/*--------------------------------*- C++ -*----------------------------------*\
  =========                 |
  \\      /  F ield         | OpenFOAM: The Open Source CFD Toolbox
   \\    /   O peration     | Website:  https://openfoam.org
    \\  /    A nd           | Version:  9
     \\/     M anipulation  |
\*---------------------------------------------------------------------------*/
FoamFile
{
    format      ascii;
    class       surfaceScalarField;
    location    "0.32";
    object      phi;
}
// * * * * * * * * * * * * * * * * * * * * * * * * * * * * * * * * * * * * * //

dimensions      [0 3 -1 0 0 0 0];

internalField   nonuniform List<scalar> 
122
(
2.70323e-08
-1.91097e-08
-7.92254e-09
-2.625e-08
2.19136e-08
4.33635e-09
-3.71977e-08
3.52145e-08
1.98316e-09
-6.09386e-09
-3.11038e-08
-2.43294e-08
2.43294e-08
3.53889e-08
-2.83985e-08
-6.99038e-09
-1.41556e-08
3.67057e-08
-2.25502e-08
8.19114e-09
2.71977e-08
1.91098e-08
2.45818e-10
-1.93556e-08
-2.19136e-08
1.6085e-08
5.82868e-09
8.2444e-09
-2.24e-08
-1.6085e-08
1.82355e-08
8.26002e-09
2.69545e-08
5.6019e-09
-2.60223e-08
2.58009e-10
2.57643e-08
1.97828e-08
-1.97828e-08
2.01709e-08
-2.01709e-08
-1.30501e-08
3.74448e-08
-2.43947e-08
-2.49726e-09
-2.3525e-08
1.83965e-11
-2.84169e-08
9.79967e-09
-2.28498e-08
1.98012e-08
2.58271e-08
-5.6562e-09
-1.10222e-08
1.92823e-08
-3.04544e-08
3.07002e-08
-1.93556e-08
-8.54923e-10
-1.89278e-08
-2.64394e-08
-1.97742e-09
-2.72944e-08
1.16938e-08
-1.16938e-08
1.82355e-08
-1.89278e-08
1.82006e-08
-1.82006e-08
-1.97027e-09
2.93959e-08
-3.13662e-08
3.92168e-09
-3.12161e-08
2.1032e-08
-2.89545e-08
-1.63669e-08
-1.23335e-08
-1.80149e-08
2.23512e-08
1.52176e-08
1.10324e-08
-1.40605e-09
2.83606e-08
3.1379e-08
-1.65713e-08
-1.79426e-08
-1.79426e-08
5.35552e-10
-2.69077e-08
2.63721e-08
6.89926e-09
8.30737e-09
2.07119e-08
-2.01763e-08
-1.66099e-08
8.23513e-09
-2.1578e-08
5.21115e-09
-9.55591e-09
9.55591e-09
2.1379e-09
-2.57228e-08
2.43168e-08
-9.61192e-09
9.61192e-09
-2.50474e-08
-1.92675e-08
-5.77993e-09
7.21325e-09
-2.39866e-09
-7.21326e-09
2.2986e-08
5.37459e-09
-1.33869e-08
-2.08189e-09
1.68836e-08
6.41428e-09
-6.41429e-09
-2.89434e-08
2.22582e-08
-1.74568e-09
)
;

boundaryField
{
    back
    {
        type            empty;
        value           nonuniform List<scalar> 0();
    }
    front
    {
        type            empty;
        value           nonuniform List<scalar> 0();
    }
    bottom
    {
        type            calculated;
        value           nonuniform List<scalar> 4(-2.625e-08 -2.625e-08 -2.625e-08 -2.625e-08);
    }
    outer_arc
    {
        type            calculated;
        value           uniform 0;
    }
    right
    {
        type            calculated;
        value           nonuniform List<scalar> 4(2.70323e-08 2.87003e-08 3.76419e-08 1.16254e-08);
    }
    inner_arc
    {
        type            calculated;
        value           uniform 0;
    }
}


// ************************************************************************* //
