/*--------------------------------*- C++ -*----------------------------------*\
  =========                 |
  \\      /  F ield         | OpenFOAM: The Open Source CFD Toolbox
   \\    /   O peration     | Website:  https://openfoam.org
    \\  /    A nd           | Version:  9
     \\/     M anipulation  |
\*---------------------------------------------------------------------------*/
FoamFile
{
    format      ascii;
    class       volVectorField;
    location    "0.32";
    object      U;
}
// * * * * * * * * * * * * * * * * * * * * * * * * * * * * * * * * * * * * * //

dimensions      [0 1 -1 0 0 0 0];

internalField   nonuniform List<vector> 
90
(
(0.690825 0.156498 -5.70733e-16)
(0.162271 0.761878 6.05085e-16)
(0.506768 0.699441 2.41553e-16)
(0.429022 0.687363 -2.40861e-16)
(0.192823 0.391094 -3.00907e-16)
(0.0222159 0.529475 -5.49931e-16)
(0.682271 0.119113 6.35561e-16)
(0.86354 0.380357 3.8064e-16)
(0.317819 0.735637 0)
(0.861206 0.338939 0)
(0.609443 0.198318 1.82986e-16)
(0.208908 0.650857 -3.14943e-16)
(0.374815 0.103491 8.8513e-17)
(0.109671 0.483759 2.46149e-16)
(0.32011 0.719197 0)
(0.265555 0.573457 0)
(0.361887 0.530307 6.27384e-16)
(0.547098 0.645838 -1.26775e-16)
(0.380811 0.751186 0)
(0.207865 0.784753 3.53247e-16)
(0.353164 0.205813 4.10786e-16)
(0.240367 0.395773 3.28042e-16)
(0.823383 0.420013 1.81889e-16)
(0.147616 0.792414 -3.2176e-16)
(0.788193 0.399729 -3.45298e-16)
(0.700492 0.347107 -2.6175e-16)
(0.526854 0.234365 -3.55982e-16)
(0.407858 0.504612 1.5515e-16)
(0.472501 0.513481 0)
(0.847846 0.315731 -2.82396e-16)
(0.878121 0.390465 1.84296e-16)
(0.331463 0.143782 3.41374e-16)
(0.571238 0.377731 9.39471e-17)
(0.822877 0.48719 -4.13501e-16)
(0.726527 0.512687 1.16718e-16)
(0.123559 0.352231 -1.92195e-16)
(0.220987 0.154673 0)
(0.232487 0.309933 0)
(0.310901 0.270435 -1.71153e-16)
(0.13895 0.450541 8.77471e-17)
(0.341702 0.635176 -2.86015e-16)
(0.392901 0.746546 -4.2024e-16)
(0.716209 0.600735 3.44083e-17)
(0.930099 0.249241 -1.44308e-16)
(0.782097 0.241676 -1.64224e-16)
(0.13259 0.730067 -1.75311e-16)
(0.0400637 0.700241 2.89478e-16)
(0.636751 0.658638 1.54762e-16)
(0.490474 0.74206 -2.75066e-16)
(0.242458 0.736212 -4.65056e-17)
(0.182484 0.722808 0)
(0.0552821 0.474158 -2.66919e-16)
(0.768061 0.531397 -4.87209e-18)
(0.487519 0.473339 0)
(0.031708 0.73794 4.35388e-16)
(0.688174 0.458154 -1.44479e-18)
(1.01359 0.263731 1.34491e-16)
(0.0306202 0.696802 0)
(0.608869 0.200653 0)
(0.489637 0.228822 -3.86025e-16)
(0.327472 0.781109 2.49266e-16)
(0.388591 0.230838 0)
(0.19404 0.114741 -4.65901e-16)
(0.640363 0.680063 -8.32761e-17)
(0.545658 0.68902 2.16454e-16)
(0.179095 0.164018 4.35382e-16)
(0.221679 0.741287 0)
(0.170705 0.722593 0)
(0.329474 0.378476 -2.54683e-17)
(0.304727 0.277972 2.91699e-16)
(0.667745 0.610341 0)
(0.664112 0.232566 1.8313e-16)
(0.739616 0.587739 0)
(0.366215 0.275949 5.35597e-16)
(0.470324 0.454632 -2.03057e-16)
(0.036081 0.757887 -1.77654e-16)
(0.17471 0.0352348 -2.4842e-16)
(0.630356 0.61792 0)
(0.839419 0.500462 3.29873e-16)
(0.317222 0.0856643 3.18104e-16)
(0.148805 0.157756 -4.6287e-16)
(0.932161 0.308092 -1.26565e-19)
(0.0805984 0.689594 -4.13875e-16)
(0.590595 0.51213 1.79534e-16)
(0.623196 0.388831 -9.0409e-17)
(0.207413 0.746886 1.85937e-16)
(0.914955 0.325152 1.50869e-16)
(0.926362 0.309367 1.78053e-19)
(0.567151 0.448335 -5.40929e-16)
(0.441755 0.159686 -1.90792e-16)
)
;

boundaryField
{
    back
    {
        type            empty;
    }
    front
    {
        type            empty;
    }
    bottom
    {
        type            uniformFixedValue;
        uniformValue    
        {
            type            scale;
            scale           
            {
                type            squarePulse;
                start           0.3;
                duration        0.3;
            }
            xScale          
            {
                type            constant;
                value           1;
            }
            value           
            {
                type            constant;
                value           (0 0.7 0);
            }
        }
        value           uniform (0 0.7 0);
    }
    outer_arc
    {
        type            noSlip;
    }
    right
    {
        type            zeroGradient;
    }
    inner_arc
    {
        type            noSlip;
    }
}


// ************************************************************************* //
