/*--------------------------------*- C++ -*----------------------------------*\
  =========                 |
  \\      /  F ield         | OpenFOAM: The Open Source CFD Toolbox
   \\    /   O peration     | Website:  https://openfoam.org
    \\  /    A nd           | Version:  9
     \\/     M anipulation  |
\*---------------------------------------------------------------------------*/
FoamFile
{
    format      ascii;
    class       volScalarField;
    location    "2.04";
    object      p;
}
// * * * * * * * * * * * * * * * * * * * * * * * * * * * * * * * * * * * * * //

dimensions      [0 2 -2 0 0 0 0];

internalField   nonuniform List<scalar> 
942
(
11.2044
11.122
11.0106
11.2224
11.0087
11.1751
11.2032
11.1731
11.2373
11.2383
11.0755
11.1506
11.2259
11.0698
11.1484
11.1241
11.0601
11.2072
11.0768
11.1072
11.0614
11.1522
11.1841
11.023
11.0762
11.0239
11.0257
11.1875
11.0382
11.2012
11.0288
11.0239
11.0344
11.1139
11.0366
11.1682
11.1769
11.2058
11.1802
11.0271
11.1299
11.1595
11.0241
11.2054
11.2007
11.0567
11.086
11.108
11.1326
11.071
11.0793
11.1833
11.1659
11.0112
11.2364
11.1483
11.1421
11.2341
11.1399
11.0958
11.1986
11.0316
11.1131
11.2004
11.205
11.1308
11.0298
11.0928
11.1466
11.2075
11.1199
11.2317
11.1265
11.2049
11.0156
11.1042
11.1106
11.0348
11.0254
11.1265
11.1842
11.0285
11.0812
11.1283
11.1324
11.0141
11.0946
11.1485
11.0681
11.0827
11.1554
11.0465
11.2335
11.1449
11.153
11.0998
11.1611
11.1472
11.1842
11.2025
11.2234
11.2351
11.0831
11.205
11.1545
11.1942
11.0599
11.0504
11.0969
11.0907
11.1508
11.1414
11.092
11.2339
11.074
11.0445
11.0914
11.219
11.201
11.1215
11.1926
11.1576
11.0178
11.124
11.1284
11.0215
11.1786
11.0316
11.0394
11.1598
11.0769
11.0646
11.0862
11.109
11.0987
11.0534
11.1485
11.0923
11.1392
11.13
11.1196
11.0466
11.0903
11.0189
11.1715
11.0316
11.2102
11.2298
11.1723
11.0162
11.1691
11.1121
11.0447
11.1951
11.0399
11.1815
11.1357
11.2364
11.0944
11.1046
11.1369
11.1793
11.222
11.1592
11.1095
11.0624
11.2209
11.2022
11.0542
11.0882
11.1014
11.1383
11.1551
11.1916
11.0106
11.2151
11.0972
11.2181
11.1472
11.2096
11.1972
11.0424
11.1735
11.2122
11.2074
11.0322
11.088
11.0149
11.0155
11.2064
11.0307
11.2038
11.1949
11.0327
11.0169
11.227
11.0222
11.1985
11.1243
11.0099
11.2032
11.2237
11.0165
11.0568
11.0883
11.1396
11.1561
11.016
11.0155
11.0183
11.02
11.2239
11.2325
11.029
11.0189
11.2106
11.013
11.0494
11.0255
11.0284
11.2041
11.2097
11.2006
11.2174
11.2309
11.0237
11.0309
11.1975
11.1965
11.0357
11.0364
11.0191
11.0343
11.2218
11.2078
11.2275
11.0466
11.2013
11.0321
11.0319
11.035
11.1999
11.1961
11.2149
11.2099
11.0223
11.1911
11.2144
11.195
11.0287
11.0287
11.1372
11.0343
11.0252
11.2043
11.2211
11.1997
11.1982
11.0521
11.2124
11.2031
11.0555
11.0341
11.199
11.1898
11.2343
11.2072
11.1926
11.0363
11.1887
11.1847
11.0185
11.1313
11.0256
11.0209
11.0557
11.0333
11.1816
11.0295
11.175
11.2019
11.1659
11.1765
11.1835
11.0681
11.0977
11.1884
11.1873
11.1967
11.1936
11.0656
11.1278
11.0587
11.1711
11.1826
11.0681
11.1031
11.1019
11.1082
11.0978
11.0899
11.1865
11.1277
11.1408
11.0861
11.1938
11.1515
11.15
11.1012
11.0493
11.208
11.0807
11.1659
11.1222
11.1676
11.0664
11.1904
11.1384
11.0893
11.1579
11.1134
11.0586
11.1993
11.1304
11.1216
11.061
11.0756
11.1732
11.1624
11.1779
11.0693
11.1784
11.1725
11.1318
11.1741
11.0726
11.1442
11.0742
11.0724
11.1566
11.0836
11.101
11.155
11.0782
11.1021
11.067
11.0982
11.1662
11.1893
11.1066
11.0745
11.1131
11.1714
11.1216
11.0781
11.177
11.093
11.177
11.0866
11.0991
11.1303
11.1612
11.1446
11.1824
11.1401
11.1396
11.1574
11.0698
11.1509
11.1055
11.1187
11.0803
11.0808
11.1613
11.0802
11.1063
11.0842
11.1023
11.1844
11.1117
11.0257
11.1869
11.104
11.1518
11.0561
11.1189
11.1369
11.1442
11.0974
11.1268
11.0893
11.1335
11.1725
11.1319
11.1146
11.1681
11.1555
11.0953
11.047
11.1421
11.124
11.1685
11.1425
11.1602
11.1475
11.0745
11.175
11.0913
11.1578
11.1699
11.0406
11.1389
11.1589
11.1347
11.1441
11.1824
11.1789
11.1628
11.0699
11.1638
11.1641
11.1538
11.1697
11.1739
11.147
11.1376
11.0782
11.0982
11.133
11.1328
11.1422
11.1292
11.1373
11.0913
11.1733
11.1651
11.116
11.1693
11.1571
11.1343
11.1672
11.1525
11.1063
11.1289
11.1839
11.1357
11.0845
11.0843
11.1596
11.1735
11.094
11.0845
11.0935
11.172
11.0866
11.0728
11.0801
11.1215
11.177
11.0864
11.1223
11.1109
11.0398
11.0916
11.0632
11.0939
11.1787
11.1266
11.1205
11.0707
11.1151
11.1134
11.1104
11.1411
11.0691
11.0612
11.1532
11.1017
11.144
11.0651
11.1902
11.067
11.1008
11.0709
11.1501
11.0746
11.1414
11.1053
11.156
11.069
11.0731
11.0801
11.0727
11.099
11.188
11.0582
11.0734
11.0528
11.0781
11.1788
11.0807
11.067
11.1771
11.0608
11.1081
11.0522
11.1082
11.1187
11.0583
11.1232
11.1497
11.0653
11.0637
11.0629
11.0718
11.1821
11.0662
11.0634
11.117
11.0557
11.1469
11.1063
11.1183
11.0655
11.1217
11.1268
11.0753
11.0552
11.0785
11.1234
11.112
11.0748
11.147
11.0321
11.0607
11.0488
11.0398
11.0682
11.1948
11.0362
11.1978
11.0694
11.0611
11.1914
11.0529
11.0393
11.0677
11.0582
11.0462
11.0427
11.0555
11.058
11.0387
11.0528
11.0255
11.0492
11.0387
11.0798
11.0237
11.0771
11.0492
11.2022
11.2056
11.0456
11.0366
11.0433
11.0499
11.0432
11.0404
11.2298
11.0357
11.0206
11.0465
11.0421
11.2147
11.0261
11.043
11.0424
11.0418
11.0419
11.2132
11.0038
11.2439
11.0455
11.2058
11.2084
11.0394
11.0042
11.2271
11.0241
11.1587
11.2119
11.2349
11.004
11.0044
11.2179
11.0047
11.1518
11.0039
11.2212
11.2182
11.2102
11.0046
11.0042
11.2421
11.0503
11.0059
11.224
11.0471
11.0055
11.06
11.0057
11.0054
11.006
11.1552
11.1309
11.1279
11.1261
11.1991
11.2116
11.0065
11.1069
11.0056
11.2362
11.0093
11.0141
11.0093
11.2052
11.2064
11.1444
11.1103
11.0821
11.12
11.1925
11.1394
11.1172
11.0209
11.2206
11.043
11.0833
11.1282
11.2104
11.1472
11.0995
11.1117
11.1543
11.1561
11.1502
11.2127
11.1998
11.2233
11.0576
11.1572
11.2418
11.0911
11.1171
11.1116
11.0237
11.048
11.2148
11.2411
11.1964
11.228
11.2195
11.2312
11.2125
11.1087
11.0152
11.167
11.0203
11.0888
11.0253
11.2283
11.0308
11.2239
11.2302
11.0182
11.0285
11.2263
11.2335
11.1448
11.0475
11.1765
11.0682
11.0743
11.0822
11.0977
11.0515
11.07
11.0791
11.1677
11.0644
11.1927
11.0863
11.0918
11.0561
11.0606
11.1972
11.0767
11.073
11.0844
11.0952
11.0541
11.0626
11.1699
11.195
11.0781
11.1191
11.0703
11.0855
11.2444
11.0532
11.0488
11.2088
11.1757
11.0451
11.0204
11.0752
11.2187
11.0469
11.1739
11.0642
11.0616
11.0674
11.1684
11.1638
11.1599
11.1906
11.2272
11.1323
11.0714
11.0103
11.2173
11.0944
11.091
11.0869
11.1612
11.2132
11.0414
11.1861
11.2197
11.0625
11.0127
11.1137
11.1838
11.1854
11.2109
11.0393
11.22
11.1005
11.2296
11.0643
11.14
11.1351
11.1619
11.1227
11.1122
11.1363
11.1327
11.0556
11.0713
11.24
11.2056
11.0039
11.2356
11.1928
11.1718
11.2069
11.0017
11.1661
11.0064
11.1818
11.0605
11.2344
11.0193
11.0933
11.0725
11.0909
11.0019
11.0639
11.2195
11.2258
11.1191
11.1163
11.0091
11.1774
11.0562
11.1464
11.1654
11.1479
11.079
11.0208
11.2372
11.1521
11.1558
11.1811
11.0499
11.1865
11.0361
11.1197
11.116
11.0107
11.1628
11.0086
11.1442
11.1485
11.1361
11.0149
11.2381
11.173
11.1346
11.0094
11.0553
11.2398
11.0102
11.146
11.1649
11.0516
11.0668
11.0658
11.2305
11.2409
11.0111
11.1386
11.0735
11.0721
11.0086
11.2046
11.1928
11.2149
11.0154
11.0093
11.2101
11.1307
11.215
11.1673
11.0806
11.0168
11.0151
11.1797
11.0774
11.1889
11.1653
11.0589
11.186
11.0637
11.2325
11.1656
11.0782
11.1569
11.1939
11.1369
11.0188
11.0133
11.1521
11.1526
11.1041
11.1853
11.2173
11.1133
11.2105
11.0851
11.0914
11.0945
11.1913
11.1816
11.1145
11.0135
11.0859
11.1541
11.103
11.2282
11.0082
11.1923
11.1644
11.1883
11.0673
11.1611
11.0119
11.1903
11.087
11.2194
11.2157
11.1864
11.1874
11.2256
11.2416
11.0507
11.1884
11.195
11.0464
11.2069
11.0069
11.1201
11.1783
11.1598
11.1808
11.0125
11.1379
11.0568
11.0545
11.1422
11.1198
11.1972
11.2403
11.0111
11.0519
11.1709
11.2173
11.118
11.1122
11.0058
11.217
11.1388
11.1618
11.0093
11.0528
11.167
11.0101
11.0134
11.115
11.1635
11.0857
11.2172
11.0647
11.009
11.1613
11.0597
11.2114
11.1875
11.0877
11.2384
11.1684
11.1794
11.2157
11.1429
11.1493
11.1819
11.239
11.0677
11.2107
11.2129
)
;

boundaryField
{
    back
    {
        type            empty;
    }
    front
    {
        type            empty;
    }
    top
    {
        type            zeroGradient;
    }
    outer_arc
    {
        type            zeroGradient;
    }
    bottom
    {
        type            uniformFixedValue;
        uniformValue    
        {
            type            table;
            format          csv;
            file            "outlet_p.csv";
            nHeaderLine     1;
            refColumn       0;
            componentColumns List<label> 1(1);
            separator       ",";
            mergeSeparators 0;
        }
        value           uniform 11.0028;
    }
    inner_arc
    {
        type            zeroGradient;
    }
}


// ************************************************************************* //
