/*--------------------------------*- C++ -*----------------------------------*\
  =========                 |
  \\      /  F ield         | OpenFOAM: The Open Source CFD Toolbox
   \\    /   O peration     | Website:  https://openfoam.org
    \\  /    A nd           | Version:  9
     \\/     M anipulation  |
\*---------------------------------------------------------------------------*/
FoamFile
{
    format      ascii;
    class       volScalarField;
    location    "2.02";
    object      p;
}
// * * * * * * * * * * * * * * * * * * * * * * * * * * * * * * * * * * * * * //

dimensions      [0 2 -2 0 0 0 0];

internalField   nonuniform List<scalar> 
1655
(
10.8709
10.9152
10.7884
10.844
10.7223
10.7569
10.7934
10.641
10.6048
10.7271
10.8614
10.8633
10.6467
10.9657
10.6954
10.8953
10.8632
10.5994
10.7814
10.9667
10.9156
10.6022
10.6839
10.688
10.869
10.8678
10.8986
10.6136
10.617
10.934
10.8038
10.7809
10.9714
10.7866
10.6166
10.7825
10.7554
10.9178
10.9741
10.913
10.915
10.6964
10.9753
10.7935
10.931
10.8464
10.8412
10.9323
10.7466
10.9733
10.7586
10.7841
10.6968
10.6115
10.6148
10.7036
10.9081
10.8616
10.8482
10.6954
10.803
10.7703
10.8728
10.6399
10.8063
10.7982
10.8218
10.857
10.6147
10.6943
10.8587
10.7925
10.9279
10.6523
10.7975
10.9436
10.6218
10.6174
10.9091
10.9309
10.8088
10.9413
10.6094
10.7964
10.9356
10.6701
10.7967
10.9239
10.8996
10.7128
10.7111
10.7884
10.7842
10.7483
10.9568
10.7786
10.8202
10.8506
10.782
10.9594
10.792
10.8137
10.7447
10.8122
10.6011
10.7678
10.6421
10.9339
10.9624
10.7216
10.9764
10.8651
10.7319
10.9366
10.6563
10.6866
10.6478
10.846
10.8962
10.6051
10.7404
10.7893
10.7991
10.8237
10.8175
10.6612
10.9733
10.9567
10.8903
10.9485
10.7508
10.9757
10.6428
10.6673
10.9297
10.9096
10.7139
10.6897
10.9125
10.8241
10.6633
10.8968
10.8863
10.7775
10.8512
10.7919
10.7631
10.7348
10.7506
10.8174
10.8064
10.8344
10.7999
10.8023
10.66
10.9746
10.8046
10.767
10.6502
10.8101
10.7639
10.8904
10.6139
10.773
10.7786
10.8529
10.6153
10.6606
10.8163
10.6247
10.8618
10.6238
10.7533
10.6321
10.9316
10.638
10.7495
10.6354
10.9386
10.9697
10.6901
10.6256
10.7611
10.8251
10.9215
10.937
10.9377
10.94
10.6157
10.6317
10.9272
10.7728
10.6263
10.7839
10.9351
10.9325
10.623
10.9383
10.9001
10.6335
10.8319
10.8314
10.7957
10.7973
10.7418
10.9112
10.9613
10.6269
10.9501
10.7895
10.7795
10.7814
10.9125
10.6581
10.9709
10.8252
10.7827
10.8915
10.7833
10.6403
10.936
10.9201
10.9684
10.6514
10.9651
10.9333
10.9291
10.7245
10.7911
10.7971
10.9426
10.817
10.8249
10.6268
10.9578
10.9454
10.9363
10.6299
10.9277
10.8473
10.6718
10.9228
10.8533
10.9266
10.6538
10.9233
10.8199
10.6197
10.9307
10.6444
10.7904
10.9275
10.7211
10.7792
10.9544
10.7817
10.9505
10.6617
10.6334
10.9672
10.8974
10.9342
10.9262
10.7832
10.7112
10.665
10.9638
10.9746
10.9651
10.9698
10.6879
10.6253
10.9263
10.931
10.6248
10.6253
10.8247
10.6651
10.6156
10.895
10.6234
10.6737
10.6237
10.6572
10.6514
10.6212
10.6311
10.965
10.961
10.6227
10.6204
10.919
10.9657
10.6277
10.6384
10.9465
10.637
10.7874
10.9213
10.9481
10.957
10.7484
10.7499
10.9394
10.922
10.62
10.9491
10.9293
10.6453
10.9193
10.6182
10.8495
10.9324
10.8954
10.6588
10.6461
10.9176
10.622
10.9152
10.9516
10.6298
10.965
10.9611
10.9433
10.9533
10.8508
10.8529
10.6676
10.946
10.7299
10.9545
10.6377
10.9637
10.9249
10.6323
10.9234
10.7232
10.9633
10.9275
10.6268
10.9564
10.9326
10.6299
10.8027
10.6626
10.9365
10.967
10.9458
10.9483
10.9265
10.6657
10.7253
10.8101
10.9537
10.6199
10.9127
10.9315
10.9247
10.6646
10.9093
10.6457
10.9577
10.6178
10.8908
10.9495
10.6591
10.9446
10.684
10.6418
10.9352
10.9295
10.9576
10.9394
10.9182
10.7014
10.6568
10.7393
10.6521
10.9393
10.9344
10.9428
10.8892
10.6687
10.8946
10.9416
10.6257
10.9143
10.6614
10.6217
10.9205
10.9044
10.7374
10.735
10.6337
10.9298
10.9119
10.9086
10.6192
10.6218
10.7453
10.9207
10.9514
10.8855
10.6766
10.7415
10.9508
10.6358
10.7401
10.9202
10.7412
10.725
10.8792
10.8963
10.7388
10.9476
10.8724
10.6422
10.8324
10.9002
10.9081
10.7479
10.883
10.7745
10.9063
10.9077
10.8359
10.8402
10.9259
10.9219
10.7788
10.9406
10.7724
10.9059
10.7364
10.8765
10.873
10.9325
10.7433
10.7382
10.8713
10.8909
10.8879
10.7444
10.9023
10.8942
10.8741
10.7706
10.7337
10.7739
10.7293
10.7792
10.8391
10.7803
10.8885
10.7808
10.8821
10.7477
10.8961
10.7759
10.7715
10.8898
10.8838
10.8914
10.8413
10.7484
10.6662
10.8902
10.9001
10.8752
10.8863
10.8847
10.9365
10.8846
10.7392
10.8315
10.8812
10.8797
10.8688
10.8631
10.7787
10.9068
10.7454
10.8708
10.779
10.8743
10.8779
10.776
10.7797
10.7461
10.9185
10.8259
10.771
10.8694
10.8008
10.8466
10.8755
10.822
10.7806
10.8695
10.7969
10.833
10.8765
10.7789
10.8323
10.8368
10.8386
10.7792
10.8349
10.8451
10.778
10.7312
10.8444
10.7777
10.8712
10.7798
10.804
10.8387
10.8532
10.813
10.8005
10.807
10.8344
10.8867
10.8346
10.8091
10.857
10.8403
10.8407
10.854
10.7888
10.835
10.7742
10.8867
10.8316
10.7637
10.9107
10.7467
10.8667
10.8116
10.8487
10.7849
10.7881
10.7733
10.8397
10.8969
10.7557
10.877
10.8235
10.8654
10.8019
10.8605
10.8524
10.8575
10.8458
10.8514
10.8269
10.785
10.8704
10.8072
10.7784
10.8343
10.8092
10.8616
10.7795
10.7529
10.7963
10.8423
10.9021
10.7787
10.7845
10.8816
10.7808
10.7683
10.7809
10.7824
10.8463
10.8501
10.7482
10.8081
10.884
10.8437
10.8383
10.7452
10.7899
10.807
10.8332
10.7788
10.8363
10.8129
10.8475
10.8679
10.8233
10.8111
10.8009
10.8564
10.8
10.8848
10.7433
10.7939
10.7796
10.7902
10.8109
10.7789
10.7763
10.8258
10.8431
10.7966
10.719
10.9018
10.8011
10.8573
10.8557
10.8794
10.8051
10.7558
10.7891
10.8224
10.8491
10.8651
10.7874
10.8134
10.8427
10.8377
10.7781
10.8521
10.8088
10.8315
10.8195
10.8085
10.8166
10.8674
10.8089
10.7999
10.8329
10.8511
10.7945
10.8448
10.8528
10.8579
10.8495
10.8592
10.7842
10.8778
10.8499
10.8563
10.7511
10.8628
10.8346
10.7989
10.8646
10.7921
10.875
10.8523
10.8597
10.8657
10.869
10.8561
10.7837
10.8345
10.8109
10.8599
10.7843
10.8102
10.8564
10.8642
10.7799
10.8204
10.8541
10.8478
10.8673
10.785
10.8061
10.8163
10.7711
10.812
10.8195
10.7813
10.794
10.7787
10.8162
10.7834
10.785
10.8132
10.8601
10.8064
10.8285
10.8546
10.7463
10.7893
10.7916
10.8032
10.8126
10.7598
10.7969
10.8628
10.785
10.8176
10.7828
10.865
10.8611
10.8598
10.8608
10.8767
10.8099
10.7649
10.7591
10.8138
10.8442
10.789
10.7754
10.844
10.8121
10.8417
10.8485
10.8402
10.7479
10.809
10.7831
10.8667
10.8711
10.7981
10.7959
10.6211
10.8631
10.6831
10.8581
10.784
10.7921
10.8477
10.8099
10.8629
10.7692
10.7746
10.8002
10.7623
10.785
10.7685
10.8189
10.7938
10.8171
10.8418
10.7531
10.871
10.8646
10.7913
10.8052
10.7809
10.8724
10.8137
10.8158
10.7774
10.8128
10.7604
10.8743
10.8552
10.7902
10.7864
10.7839
10.879
10.763
10.8558
10.851
10.7628
10.7874
10.7548
10.7862
10.8154
10.8528
10.7691
10.7776
10.8634
10.7878
10.7891
10.7587
10.831
10.8063
10.8799
10.7872
10.8078
10.8124
10.7791
10.7722
10.7654
10.7759
10.8008
10.8023
10.772
10.8628
10.7875
10.8128
10.7957
10.8664
10.79
10.7651
10.7518
10.9504
10.8238
10.7491
10.7655
10.7949
10.7647
10.75
10.7533
10.7934
10.8803
10.814
10.7571
10.7517
10.8726
10.7589
10.8213
10.9054
10.8896
10.7557
10.7588
10.876
10.7543
10.7635
10.7562
10.8724
10.8167
10.7609
10.7609
10.7541
10.8279
10.8673
10.7474
10.7551
10.7596
10.8057
10.7529
10.7486
10.8292
10.7665
10.7934
10.7418
10.7737
10.7569
10.7709
10.758
10.6198
10.8038
10.8752
10.7615
10.7675
10.7534
10.8801
10.8065
10.9022
10.7477
10.7907
10.9235
10.7541
10.7512
10.765
10.7559
10.9014
10.7512
10.7627
10.8298
10.7587
10.758
10.7503
10.8805
10.7455
10.7974
10.7561
10.7944
10.7532
10.7543
10.7517
10.7373
10.687
10.7903
10.8277
10.9002
10.7704
10.9061
10.8182
10.89
10.7344
10.6839
10.8797
10.7698
10.7702
10.8263
10.7742
10.7975
10.7535
10.7403
10.7398
10.6515
10.9428
10.8037
10.7441
10.9172
10.6748
10.8241
10.7407
10.65
10.7824
10.8011
10.9089
10.7503
10.7463
10.7343
10.8048
10.743
10.7835
10.9052
10.7373
10.8827
10.8876
10.6776
10.7332
10.7158
10.7301
10.8766
10.781
10.9044
10.7634
10.7321
10.7723
10.8175
10.7462
10.7681
10.6736
10.907
10.7261
10.6931
10.7113
10.9399
10.7002
10.7247
10.7377
10.9107
10.8001
10.7989
10.9113
10.7506
10.7754
10.8874
10.7426
10.7644
10.8217
10.7432
10.7734
10.767
10.9331
10.7232
10.7302
10.7794
10.7687
10.6863
10.8768
10.961
10.7596
10.824
10.7591
10.7178
10.7066
10.8209
10.7212
10.7572
10.895
10.9385
10.6675
10.823
10.8824
10.9514
10.9136
10.777
10.9308
10.7997
10.6965
10.7285
10.9603
10.7056
10.8014
10.7758
10.7153
10.6962
10.944
10.8896
10.9217
10.7213
10.7655
10.716
10.7671
10.6954
10.9203
10.7319
10.7303
10.7659
10.9099
10.7105
10.8945
10.7045
10.7264
10.6871
10.7026
10.7121
10.9117
10.693
10.6987
10.7021
10.9078
10.6784
10.9373
10.9369
10.929
10.7054
10.6962
10.9486
10.7223
10.6746
10.6917
10.9194
10.9264
10.9165
10.6762
10.8898
10.6856
10.6863
10.9231
10.9416
10.6928
10.9343
10.6862
10.9144
10.8661
10.9422
10.897
10.9281
10.9485
10.9575
10.6255
10.6905
10.9341
10.7426
10.9254
10.8808
10.782
10.6494
10.9207
10.945
10.9439
10.683
10.6303
10.941
10.9196
10.948
10.9283
10.9345
10.9019
10.6415
10.9247
10.6768
10.6634
10.6096
10.6002
10.9739
10.7784
10.9387
10.8868
10.7681
10.9304
10.6699
10.7259
10.6728
10.6569
10.9272
10.931
10.7163
10.6655
10.9621
10.6885
10.9048
10.8961
10.7106
10.6396
10.9162
10.7027
10.6623
10.6298
10.9096
10.6554
10.6228
10.5959
10.9831
10.7012
10.9175
10.6868
10.684
10.6924
10.6976
10.6277
10.7401
10.5912
10.9236
10.6391
10.7502
10.6463
10.6717
10.6376
10.6528
10.7471
10.9128
10.6379
10.9231
10.6729
10.8902
10.7064
10.922
10.7481
10.9568
10.9245
10.7143
10.6506
10.6441
10.9006
10.9234
10.8971
10.6009
10.6402
10.6527
10.7171
10.7995
10.7902
10.6962
10.6935
10.9522
10.9135
10.9598
10.6358
10.7139
10.9175
10.6634
10.7912
10.6602
10.7343
10.803
10.919
10.6805
10.6662
10.7382
10.6893
10.7436
10.5862
10.826
10.8119
10.7126
10.6525
10.9128
10.7013
10.704
10.7216
10.9565
10.6458
10.9449
10.9817
10.8178
10.8332
10.6248
10.7031
10.7802
10.8525
10.8406
10.7837
10.7224
10.724
10.7265
10.6735
10.8484
10.6545
10.9162
10.939
10.7352
10.8689
10.7082
10.7184
10.9515
10.7099
10.5978
10.6802
10.9175
10.9003
10.8705
10.7015
10.7277
10.8828
10.9072
10.9021
10.6484
10.9113
10.9146
10.6031
10.6462
10.9542
10.7445
10.7389
10.892
10.8649
10.9061
10.9154
10.9003
10.6528
10.8942
10.9159
10.9765
10.9023
10.8698
10.9075
10.9056
10.8832
10.9102
10.9084
10.8967
10.7962
10.7304
10.7341
10.7408
10.9544
10.7974
10.9455
10.7498
10.8949
10.8202
10.8589
10.9673
10.7324
10.9108
10.7445
10.7477
10.8262
10.7469
10.6181
10.903
10.9038
10.9123
10.8742
10.7812
10.8471
10.7432
10.7422
10.894
10.7362
10.9392
10.7028
10.9012
10.8432
10.8876
10.8558
10.9457
10.8923
10.6122
10.8676
10.8733
10.6398
10.9375
10.9031
10.8813
10.8874
10.894
10.8963
10.9022
10.9103
10.9057
10.946
10.9074
10.8636
10.8966
10.8428
10.8376
10.9026
10.9736
10.9005
10.9666
10.8335
10.9144
10.855
10.898
10.9007
10.8279
10.7391
10.7347
10.8867
10.861
10.8897
10.8763
10.9135
10.611
10.6037
10.9182
10.6041
10.8378
10.6107
10.9384
10.602
10.6064
10.8808
10.7962
10.897
10.7612
10.7205
10.7152
10.8815
10.7214
10.612
10.6791
10.7514
10.9423
10.7147
10.8396
10.872
10.6323
10.8239
10.6094
10.8297
10.8756
10.6123
10.825
10.6005
10.8957
10.8154
10.8214
10.8208
10.6278
10.6371
10.6162
10.98
10.8014
10.6023
10.9798
10.8412
10.6016
10.7877
10.799
10.8683
10.7654
10.761
10.8091
10.8653
10.7819
10.7706
10.7574
10.776
10.8749
10.8041
10.8619
10.7909
10.7967
10.8697
10.7681
10.7592
10.8065
10.873
10.8636
10.7791
10.7607
10.8211
10.8092
10.9331
10.6887
10.6963
10.8191
10.9154
10.9412
10.9206
10.9711
10.9601
10.8412
10.7409
10.8841
10.8793
10.6213
10.9696
10.9373
10.8365
10.905
10.6932
10.8943
10.9432
10.6239
10.9528
10.9534
10.8686
10.7585
10.9216
10.6031
10.8817
10.8848
10.9545
10.9825
10.8321
10.9659
10.7841
10.6848
10.6772
10.9715
10.6299
10.9262
10.6086
10.9319
10.8838
10.7937
10.8713
10.649
10.6843
10.9681
10.8747
10.6338
10.8826
10.9287
10.9563
10.7666
10.6758
10.9487
10.7542
10.8546
10.8587
10.949
10.9592
10.9601
10.659
10.7342
10.9317
10.9368
10.7175
10.9841
10.8729
10.8892
10.8946
10.9467
10.9415
10.7913
10.8282
10.8363
10.9082
10.6021
10.6002
10.857
10.9466
10.9539
10.9538
10.8198
10.5983
10.6262
10.9439
10.746
10.8125
10.7525
10.8049
10.9346
10.9784
10.6173
10.7199
10.8134
10.7729
10.7109
10.6548
10.6718
10.754
10.9762
10.7542
10.6504
10.936
10.589
10.9589
10.7838
10.974
10.7144
10.6606
10.9608
10.8285
10.8261
10.975
10.9272
10.8551
10.6832
10.9224
10.7414
10.9471
10.6133
10.7445
10.6425
10.9542
10.6026
10.9252
10.7665
10.6505
10.9679
10.7772
10.6714
10.7201
10.6788
10.7306
10.7513
10.741
10.7296
10.7453
10.7359
10.8294
10.8258
10.6346
10.8991
10.7019
10.8862
10.8336
10.8375
10.6187
10.6075
10.8567
10.7514
10.8502
10.9721
10.9617
10.8169
10.8864
10.8333
10.9403
10.7396
10.96
10.9034
10.8918
10.9344
10.9793
10.6162
10.877
10.7467
10.7895
10.9062
10.607
10.9444
10.7248
10.6127
10.6841
10.8405
10.9687
10.6085
10.7525
10.7875
10.9181
10.7396
10.7399
10.7523
10.8665
10.9791
10.9591
10.7512
10.8152
10.7887
10.7096
10.9288
10.9514
10.8111
10.6319
10.7527
10.9632
10.6576
10.9543
10.7759
10.8664
10.6108
10.6536
10.9513
10.6002
10.8411
10.8679
10.6783
10.9699
10.8879
10.7047
10.8769
10.7632
10.626
10.7049
10.6041
10.9246
10.7757
10.5999
10.9165
10.8258
10.8294
10.9516
10.9798
10.6113
10.8002
10.7105
10.9039
10.7902
10.786
10.9648
10.8291
10.594
10.8594
10.8278
10.9357
10.6347
10.5978
10.6315
10.763
10.5984
10.7222
10.9725
10.9713
10.6488
10.7994
10.7654
10.9683
10.6427
10.9186
10.8806
10.6084
10.6525
10.9728
10.6746
10.9617
10.7334
10.8763
10.8099
10.9018
10.7589
10.9706
10.7494
10.6759
10.7374
10.9745
10.7148
10.8358
10.8385
10.8277
10.7434
10.7847
10.8815
10.8015
10.889
10.9729
10.8789
10.6226
10.9724
10.8902
10.6439
10.9618
10.7052
10.8912
10.7478
10.9739
10.7589
10.6062
10.9665
10.7542
10.9682
10.7103
10.6027
)
;

boundaryField
{
    back
    {
        type            empty;
    }
    front
    {
        type            empty;
    }
    top
    {
        type            zeroGradient;
    }
    outer_arc
    {
        type            zeroGradient;
    }
    bottom
    {
        type            uniformFixedValue;
        uniformValue    
        {
            type            table;
            format          csv;
            file            "outlet_p.csv";
            nHeaderLine     1;
            refColumn       0;
            componentColumns List<label> 1(1);
            separator       ",";
            mergeSeparators 0;
        }
        value           uniform 10.5977;
    }
    inner_arc
    {
        type            zeroGradient;
    }
}


// ************************************************************************* //
