/*--------------------------------*- C++ -*----------------------------------*\
  =========                 |
  \\      /  F ield         | OpenFOAM: The Open Source CFD Toolbox
   \\    /   O peration     | Website:  https://openfoam.org
    \\  /    A nd           | Version:  9
     \\/     M anipulation  |
\*---------------------------------------------------------------------------*/
FoamFile
{
    format      ascii;
    class       volVectorField;
    location    "1.9";
    object      U;
}
// * * * * * * * * * * * * * * * * * * * * * * * * * * * * * * * * * * * * * //

dimensions      [0 1 -1 0 0 0 0];

internalField   nonuniform List<vector> 
1655
(
(-0.0116092 -0.0177956 -3.67414e-18)
(-0.00309746 0.00796768 2.42069e-17)
(-0.0159159 0.142199 1.95461e-17)
(0.111358 -0.022548 -1.1632e-17)
(0.0429485 0.0540665 0)
(0.00656644 -0.00898312 7.38721e-18)
(-0.0537814 0.117411 0)
(0.0290476 0.0980551 -1.30877e-17)
(0.0625615 0.140055 0)
(0.0443716 0.0502582 -6.39341e-18)
(0.0535407 -0.0654645 2.92447e-17)
(0.0459633 -0.0672494 -2.88114e-17)
(0.0186659 0.0562227 -6.60548e-22)
(0.00334308 -0.0272224 -1.52248e-17)
(-0.02063 -0.0756018 1.50171e-17)
(0.0062525 -0.00540278 0)
(-0.0709018 -0.00380446 2.62505e-17)
(0.0806473 0.08115 7.80899e-18)
(-0.0416074 -0.0205722 -2.93682e-17)
(0.00146584 -0.0215959 -8.45543e-18)
(0.00218609 -0.0327211 3.44166e-18)
(0.061282 0.158287 0)
(0.0391436 0.0708634 -1.57962e-17)
(0.0319494 0.0618744 7.33535e-18)
(0.0006249 -0.0465892 -4.61704e-18)
(-0.0481789 -0.00572643 -3.11942e-17)
(0.00047794 -0.00107905 -1.36402e-17)
(0.0506245 0.155674 -1.57372e-17)
(0.0425482 0.152185 2.12524e-17)
(0.00162272 -0.0282453 -1.52164e-17)
(-0.135635 0.0711984 3.78118e-17)
(0.0318897 0.189214 -4.01404e-18)
(0.00781082 -0.0717732 -5.59e-18)
(0.0882959 0.0766566 0)
(0.0835599 0.0655658 0)
(0.103173 0.0578889 0)
(0.0216652 -0.00583774 -1.98825e-17)
(-0.00497547 0.0143444 0)
(0.00595817 -0.0696723 -7.64979e-18)
(-0.0106017 0.0149363 -2.61335e-17)
(-0.0018507 -0.0180159 1.47669e-17)
(0.0385551 0.0654496 1.27575e-17)
(0.00574092 -0.0628496 -7.99798e-18)
(-0.0485272 -0.010783 2.32473e-17)
(-0.00993993 0.00624928 0)
(0.151908 -0.0372959 0)
(0.150783 -0.0156021 3.61683e-17)
(-0.0113262 0.0103581 0)
(0.0456355 0.026304 1.42427e-17)
(0.0059457 -0.0596671 1.94752e-18)
(0.0154237 -0.0111499 2.19349e-17)
(-0.0056991 0.165764 -1.45231e-17)
(-0.0142172 0.02522 -1.61436e-17)
(0.0614985 0.139744 1.40926e-17)
(0.0397219 0.0453701 -1.82964e-17)
(-0.00596718 -0.00977008 0)
(-0.00544237 0.00536617 -7.15213e-18)
(0.0522812 -0.0545745 0)
(0.134693 -0.0655213 0)
(0.00769429 0.00855991 1.5528e-17)
(-0.130301 0.0651464 -3.78492e-17)
(-0.0254688 -0.0256136 0)
(-0.0128482 -0.0271446 0)
(0.0399681 0.112539 -3.61985e-18)
(-0.0318084 0.0160363 0)
(-0.100612 0.0989543 0)
(0.0563691 0.0298025 3.39253e-17)
(0.0806011 -0.0666575 -1.67411e-17)
(0.0737635 0.0332593 0)
(0.0339938 0.0574984 -1.45969e-17)
(0.0704626 -0.0543114 1.86314e-17)
(-0.0702506 0.115507 -8.87425e-19)
(0.00450539 -0.043748 -9.46399e-19)
(-0.00392804 -0.0820659 1.3787e-17)
(-0.0034581 0.0494344 -1.75833e-17)
(0.00830756 0.00864568 8.29946e-18)
(0.0374053 0.136401 -4.82195e-18)
(0.0766714 0.0114381 0)
(-0.00106746 -0.00673779 0)
(0.0012496 -0.0295182 0)
(-0.0269072 0.0227724 1.87451e-17)
(0.000117702 0.014032 -8.4407e-18)
(0.0438609 0.0440132 1.86887e-17)
(-0.0431388 -0.00441119 9.37416e-18)
(0.00484232 -0.046372 0)
(-0.0200335 -0.02081 0)
(0.00104354 0.0658623 -1.06387e-17)
(0.00238224 -0.0377862 0)
(-0.0140583 0.0361753 -7.33662e-18)
(-0.0203081 -0.0232937 0)
(-0.0245246 -0.0262208 0)
(-0.000275921 0.134603 9.21627e-18)
(-0.0362415 -0.0174694 1.79772e-17)
(0.0284319 0.0136035 0)
(0.00467824 -0.00798216 0)
(-0.0322602 -0.0192102 2.99175e-17)
(0.0463825 0.0263188 -2.88072e-17)
(0.123552 -0.0613124 0)
(0.0436852 0.173857 -8.61072e-18)
(0.0095849 -0.0793536 1.84606e-17)
(-0.00172355 0.109797 -5.79476e-17)
(-0.000212414 0.0280862 -1.90362e-17)
(0.0402284 0.0282509 -1.85902e-17)
(-0.0150184 0.0346501 1.99208e-17)
(0.0526503 0.0793325 0)
(-0.0116875 -0.0234319 -1.1505e-18)
(0.0592094 0.118596 -1.59974e-17)
(0.000330942 -0.0206891 0)
(0.00666649 -0.0789366 0)
(-0.0112821 -0.016826 -1.64146e-17)
(0.00376064 -0.0794719 1.28693e-17)
(0.0250371 -0.0435753 1.49133e-17)
(-0.0046563 -0.0213663 9.93309e-18)
(0.00652309 -0.0539633 1.6944e-17)
(0.0595174 0.110686 1.51936e-17)
(-0.0277835 -0.0230704 -9.62611e-18)
(0.0576675 0.113975 -1.62624e-17)
(0.148916 -0.0515922 0)
(-0.0153307 0.0372673 1.45268e-17)
(0.0581415 0.0772814 -3.23541e-17)
(0.000899834 -0.0132826 -2.80265e-17)
(0.0284074 0.0266477 2.8604e-17)
(-0.0608466 0.0561212 -2.25821e-17)
(0.140721 0.0946548 2.0944e-17)
(0.0213601 0.0386827 7.38522e-18)
(0.0405639 0.0897886 0)
(0.00435077 -0.0519465 -1.83996e-17)
(0.0093374 -0.0131815 1.65878e-17)
(0.00763678 0.00154136 -2.30461e-18)
(0.00420571 -0.0630598 -2.2046e-18)
(0.0570311 0.0125222 4.20851e-18)
(0.00370332 -0.0803701 2.27111e-17)
(0.0461094 0.113332 1.40341e-17)
(0.039481 0.0834886 1.47617e-17)
(-0.000945184 -0.00717422 0)
(-0.00148804 0.0202562 0)
(0.0437148 0.0602307 -8.6058e-18)
(0.019994 0.0278848 1.46539e-17)
(-0.00264047 0.0032107 7.81649e-18)
(0.0764983 0.0123376 -7.69379e-18)
(0.00372353 0.0136043 1.01307e-17)
(-0.00380782 0.00633289 1.39937e-17)
(-0.00351514 0.00335958 0)
(0.0184426 0.0185823 0)
(-0.141153 0.0241153 -8.62635e-18)
(0.00287425 0.0203248 0)
(0.0332647 0.0269964 -3.01377e-17)
(0.0198931 0.00536111 2.4185e-17)
(0.0341258 0.0188158 1.56159e-17)
(-0.214857 0.0457148 0)
(-0.176296 0.0389959 1.47282e-17)
(-0.205596 0.0422114 -7.92576e-18)
(-0.0373132 0.0313899 1.55385e-17)
(-0.10534 0.0324913 1.34865e-17)
(-0.0112544 -0.0217566 0)
(0.00300787 -0.0492359 2.96824e-17)
(-0.0429555 0.00569786 1.89398e-18)
(0.0355627 0.0208878 7.99219e-18)
(0.0609087 0.113587 0)
(-0.0283667 0.019708 -2.02357e-17)
(0.0243064 0.0206366 2.28364e-17)
(0.0371241 -0.0278912 0)
(0.0624348 0.12133 -4.51963e-22)
(0.0465714 0.0288974 0)
(0.0118373 0.0218514 0)
(0.10697 -0.0705722 -7.73774e-18)
(0.0578145 0.147281 0)
(0.0548914 0.104352 -3.06262e-17)
(0.0104906 0.0255296 4.68973e-18)
(0.0657591 -0.0406344 0)
(-0.109396 -0.0278429 0)
(0.0352323 0.0583185 0)
(0.0183397 0.00140991 9.39844e-18)
(0.062927 0.119053 1.61737e-17)
(0.00307525 -0.0401636 9.89208e-19)
(0.0620078 0.11765 1.61131e-17)
(0.0544774 0.019076 4.22373e-18)
(0.0752604 -0.101425 0)
(0.0110042 -0.0658678 -1.75903e-17)
(0.00183568 -0.0220071 1.38253e-17)
(-0.012916 -0.0133086 2.01283e-17)
(0.02569 0.0517093 1.26396e-17)
(-0.00604236 -0.0190448 -2.68645e-17)
(0.13845 0.0680116 -4.56812e-18)
(-0.00617795 0.00423044 -8.87055e-18)
(0.015917 -0.0728412 0)
(-0.00114534 0.0103165 0)
(0.0130475 -0.070806 0)
(0.0638456 0.0704849 0)
(0.0217453 0.0606725 -1.22822e-17)
(-0.00846942 0.00797883 -1.59629e-17)
(-0.0209611 -0.0220229 0)
(0.0170749 0.0511877 -1.64113e-17)
(-0.0124736 0.16425 2.03988e-17)
(0.0214998 -0.0787287 0)
(-0.000371539 -0.0106644 -1.00059e-17)
(0.0338047 0.0597151 0)
(0.0182803 -0.0767497 0)
(-0.0199283 0.0429451 1.90291e-17)
(0.0126466 0.0568172 0)
(0.162585 0.0414234 1.04634e-17)
(0.122653 0.0193111 -4.70024e-18)
(-0.0173755 0.0887254 1.72565e-17)
(-0.0765924 0.0834087 3.83915e-17)
(-0.00689749 -0.0246296 -1.46446e-17)
(0.00489598 -0.0365062 1.16374e-17)
(0.0170908 -0.0715814 0)
(0.0159153 0.0456498 0)
(0.00576367 -0.0676533 5.22201e-17)
(0.0654962 0.0647263 0)
(0.0603368 0.211296 2.73448e-17)
(0.0127156 0.176348 -7.55212e-18)
(-0.00181409 0.0119444 0)
(0.0492226 0.100661 1.60262e-17)
(0.00346769 -0.0254551 -1.64389e-18)
(0.0938469 0.0212184 3.57219e-17)
(0.086136 0.0427515 -8.96691e-18)
(0.00700647 0.00597752 0)
(0.0397054 0.159756 1.56058e-17)
(0.0184613 0.066586 0)
(-0.00930203 0.0163835 0)
(0.004033 -0.0421125 -3.36253e-17)
(0.0107675 -0.0696565 2.36518e-17)
(0.0427095 0.0892361 1.63568e-17)
(0.0134248 -0.0726252 -1.70737e-17)
(0.0274502 -0.0833967 1.64178e-17)
(0.0278898 -0.0828519 -1.63596e-17)
(-0.0210949 -0.0259185 0)
(0.0231455 0.0877585 1.99114e-17)
(0.0323704 0.0447239 1.60083e-17)
(0.0424066 -0.0648888 0)
(0.0100937 -0.0710983 -2.00133e-17)
(0.0266993 -0.112337 1.99414e-17)
(0.101682 0.0117834 -3.14899e-17)
(0.0198121 -0.0746824 -1.6863e-17)
(0.0409922 -0.0675279 1.64631e-17)
(0.0240307 -0.0815905 0)
(-0.0007135 0.0418426 0)
(0.0250039 -0.0796187 2.03861e-17)
(0.0196811 -0.184185 1.59178e-17)
(-0.0140062 -0.011871 -1.53765e-17)
(-0.00818093 0.0101668 2.92285e-17)
(0.0366743 -0.189279 -1.98977e-17)
(-0.00253932 -0.00598208 1.39751e-17)
(0.037855 0.083968 4.09078e-18)
(-0.000590672 -0.0251816 -2.07275e-17)
(-0.172786 0.0440032 1.21729e-17)
(0.062138 0.121099 0)
(0.021647 -0.0771777 -4.08763e-18)
(0.0359887 0.0810299 0)
(-0.0417306 -0.0115062 -1.32952e-17)
(5.70488e-05 -0.0210337 3.32071e-18)
(0.0310518 0.00698412 -1.61709e-17)
(0.0400727 0.205609 -1.14299e-17)
(0.0238905 -0.0738836 1.65768e-17)
(0.0612369 0.194021 -1.9534e-17)
(0.013638 -0.0785816 -1.70218e-17)
(0.0430949 0.090625 -4.07427e-18)
(0.0391029 -0.15476 2.15623e-17)
(0.0111185 -0.0644123 1.56091e-17)
(0.0773183 -0.0542451 1.21259e-17)
(0.0107487 -0.0622068 1.68292e-17)
(0.0314898 -0.0849218 1.62945e-17)
(0.0123523 0.155555 1.5749e-17)
(0.0175234 0.00414784 1.62285e-17)
(0.0612405 0.109617 1.62125e-17)
(0.0144656 -0.0622303 0)
(0.00314293 -0.0384032 -2.29754e-17)
(0.0127846 -0.0759721 8.91793e-18)
(0.00481217 -0.0394577 0)
(0.0275929 0.0686979 -1.73138e-17)
(0.0851738 0.0350785 1.2359e-17)
(-0.00839446 0.0090022 8.5692e-18)
(0.0132582 -0.0647454 0)
(0.0887568 -0.0348679 -3.44078e-21)
(0.0622123 0.030375 -1.2494e-17)
(-0.176252 0.0353241 0)
(0.0396186 0.0845266 2.0365e-17)
(0.0471264 0.0618862 -2.0635e-17)
(0.0895532 -0.0951248 3.97538e-18)
(0.0228773 0.0483646 1.6763e-17)
(0.0631613 0.110412 4.06547e-18)
(0.05584 0.00673693 1.65696e-17)
(-0.00124334 0.0196208 1.46249e-17)
(-0.015356 -0.0286953 -2.75431e-17)
(0.0386646 0.0344177 -1.66266e-17)
(0.00455385 0.0483789 1.65247e-17)
(0.0102646 -0.0798627 1.48183e-17)
(0.0176551 -0.0663928 0)
(0.0883595 0.0643682 0)
(0.0368619 0.0488334 1.62521e-17)
(-0.00159814 -0.0166875 1.59191e-17)
(0.0108923 -0.0504758 3.44257e-17)
(0.0412465 0.0728278 0)
(-0.00120178 0.0476506 -1.64971e-17)
(0.0262986 -0.0816817 4.15078e-18)
(0.0171005 0.0627254 0)
(0.0441988 0.125056 -2.76945e-17)
(-0.00190124 -0.00236404 -1.62162e-17)
(0.00988273 -0.0721731 -4.10357e-17)
(0.0154393 -0.0806925 -1.72527e-17)
(0.0092509 0.00258721 0)
(-0.00180803 -0.00655903 2.50679e-17)
(0.0313347 -0.0840762 -4.1232e-18)
(0.031851 -0.0845016 -3.25715e-17)
(0.0352457 0.0566416 -1.75671e-17)
(0.0206584 -0.0817922 -4.18031e-18)
(0.0188194 -0.0728148 4.08209e-18)
(0.00539013 0.0460762 -4.10709e-18)
(0.0359418 -0.0867098 -1.62246e-17)
(0.0148009 0.00584522 0)
(-0.157183 0.00818346 8.66925e-18)
(0.0158374 -0.070234 -4.10977e-18)
(0.0886937 -0.0753628 -4.03989e-18)
(0.0621033 0.111255 0)
(0.00685167 0.0523446 0)
(-0.00329918 0.00140173 -1.61988e-17)
(0.0286778 0.0476512 -1.65161e-17)
(0.0364419 -0.0865581 2.70166e-22)
(0.0154161 -0.0803726 1.80517e-17)
(0.0110103 0.0513609 0)
(0.00921033 -0.0421861 -1.73346e-17)
(0.0136456 -0.0798504 2.28054e-18)
(0.0299639 -0.0823406 -4.13933e-18)
(0.0190052 -0.0810672 -1.679e-17)
(0.130225 -0.0469884 2.3122e-17)
(0.0755037 -0.0322565 7.93961e-18)
(0.0630479 0.111357 -2.04764e-17)
(0.0145524 -0.0769288 0)
(0.0668032 0.00617199 -1.60964e-17)
(0.0251026 -0.068959 0)
(0.0021028 0.0527683 1.64856e-17)
(0.00147421 -0.00911771 7.38166e-18)
(0.0183586 -0.0706329 -1.64443e-17)
(-0.00551169 0.0310975 1.64766e-17)
(0.0248881 -0.0782926 -1.22608e-17)
(0.0598706 0.0200861 1.20973e-17)
(0.0142795 -0.0554169 -1.72266e-17)
(0.034197 -0.0867384 0)
(-3.57976e-05 0.0294513 0)
(0.0139665 -0.0809289 1.77946e-17)
(0.0357656 -0.086561 1.63797e-17)
(0.0606322 -0.00637716 0)
(0.0132789 0.0108216 -2.00052e-17)
(0.0118223 0.018557 0)
(0.034671 -0.0851696 -2.87656e-17)
(0.00536511 -0.0364198 0)
(0.0242595 -0.0825496 4.16246e-18)
(0.0187588 -0.081309 0)
(0.012367 -0.0617324 0)
(0.0153771 0.0369124 0)
(0.0055051 -0.0176891 1.60757e-17)
(0.0244242 -0.0400634 0)
(0.0206695 -0.0796765 1.67455e-17)
(0.0510253 0.0769644 0)
(0.0413532 -0.0888246 0)
(0.0333692 -0.0863452 0)
(0.0377795 -0.0881749 -2.8821e-22)
(0.0263737 0.0645787 -1.63099e-17)
(0.0326597 -0.0823396 2.03166e-17)
(0.00503695 0.0159738 -1.40074e-17)
(0.0219075 -0.0643879 0)
(0.0566891 0.0922559 -4.3871e-18)
(0.0805149 -0.106524 1.59926e-17)
(0.00335973 0.00294892 1.68924e-17)
(-0.00548648 -0.00529306 -1.42107e-17)
(0.012662 -0.0735231 4.30968e-18)
(0.0125108 0.0286543 -1.60794e-17)
(0.014072 0.063211 0)
(0.043008 -0.083553 0)
(-0.0075034 0.00819644 0)
(0.0186081 -0.0777749 1.67598e-17)
(-0.00640399 0.0139036 0)
(0.042986 -0.089769 0)
(0.0123696 0.0226891 0)
(0.014561 0.0507179 4.08997e-18)
(0.129527 -0.00526554 1.20096e-17)
(0.0516631 0.107512 -4.18326e-22)
(0.0446415 -0.0738602 4.07604e-18)
(0.0299721 -0.0849055 -1.64374e-17)
(0.0406468 -0.0509019 -4.18884e-18)
(0.0882415 -0.108935 0)
(0.0576859 0.103659 -1.68278e-17)
(0.0785958 -0.101122 -1.99657e-17)
(0.0255418 -0.0831874 -4.13375e-18)
(0.0493657 0.0833399 0)
(0.0444789 -0.0904461 0)
(0.0294195 0.0724381 -5.8837e-23)
(0.0255535 0.00974484 0)
(0.0286157 -0.0811015 -4.0752e-18)
(0.000513732 -0.00787958 1.54138e-17)
(0.0214 -0.0164658 -1.60892e-17)
(0.118171 0.0112281 -1.60261e-17)
(0.0420014 0.0819975 0)
(0.038895 -0.0876744 0)
(0.0496925 -0.091321 -1.61087e-17)
(0.0421649 -0.0891356 1.61334e-17)
(0.00852387 0.0263679 0)
(0.0604408 0.107211 0)
(0.121704 -0.00622547 0)
(0.038795 -0.0885698 -1.62238e-17)
(0.0319597 -0.0369386 3.42313e-17)
(0.089463 -0.115855 3.98323e-18)
(0.064821 0.112818 -2.02839e-17)
(0.0831031 -0.0191923 -4.0129e-18)
(0.0262861 -0.0770515 -1.66239e-17)
(0.0348634 0.0759629 1.64838e-17)
(0.0290293 -0.0253476 -2.01772e-17)
(-0.00279171 0.00728484 0)
(0.119529 -0.0151714 0)
(0.0129087 0.0164251 0)
(0.0820927 -0.1227 3.98272e-18)
(0.0709624 -0.100018 4.0127e-18)
(0.0956616 -0.0101307 0)
(0.0303973 -0.077095 0)
(0.0739465 -0.127798 -1.59381e-17)
(0.0411431 0.0852564 0)
(0.0130895 -0.139078 0)
(0.0683389 -0.0962327 -1.20588e-17)
(0.0518787 -0.0926661 1.60924e-17)
(0.105021 -0.012378 1.60483e-17)
(0.0822189 -0.117348 -3.98434e-18)
(0.118521 0.0237041 4.02845e-18)
(0.0482453 -0.0914943 0)
(0.0607799 -0.0919522 1.60924e-17)
(-0.157558 -0.00621521 -1.01446e-17)
(0.0313098 -0.169395 0)
(0.0400744 -0.08865 1.22197e-17)
(0.0216201 -0.073766 1.6401e-17)
(0.0922486 0.075546 1.99738e-17)
(0.0232977 -0.082159 0)
(0.136984 0.0165261 9.99547e-22)
(0.0583531 -0.0932757 0)
(0.0370984 0.0371173 -5.26608e-18)
(0.0733696 -0.122548 1.19565e-17)
(0.0895319 -0.13557 -1.19327e-17)
(0.0431511 -0.0833419 1.63015e-17)
(-0.00430684 -0.028815 6.92999e-18)
(0.00993154 0.0105766 0)
(0.0805504 -0.132856 0)
(-0.00459613 0.00858704 1.41192e-17)
(0.0598284 -0.101321 0)
(0.0496726 -0.0263205 2.01262e-17)
(0.0494221 -0.0925289 0)
(0.0660449 -0.100418 0)
(0.0880759 -0.13266 -1.98991e-17)
(0.129648 0.0158737 1.5967e-17)
(0.0855489 0.00376227 0)
(0.115681 0.042291 5.64877e-22)
(0.0363615 -0.00518032 1.60955e-17)
(0.0971591 0.0936822 -3.98971e-18)
(0.149981 -0.141441 -1.58157e-17)
(0.0929291 0.13884 -3.98137e-18)
(0.0746141 -0.107775 3.99233e-18)
(0.0916079 0.11869 -3.18987e-17)
(0.0666995 -0.111434 1.99655e-17)
(0.133973 -0.0280167 0)
(0.0580833 -0.0972799 0)
(0.101704 0.0518152 0)
(0.131681 0.00521864 0)
(0.0957139 -0.101494 -3.98369e-18)
(0.0580512 -0.104188 -3.99893e-18)
(0.0936254 -0.104354 3.98634e-18)
(0.1522 -0.134419 -1.58367e-17)
(0.092799 -0.00593149 -1.60566e-17)
(0.0535532 0.0993714 3.23834e-17)
(0.0668092 -0.10384 -3.99777e-18)
(0.0568018 -0.0951676 0)
(0.0541373 -0.110651 4.03031e-18)
(0.0979798 -0.11242 0)
(0.0902223 -0.106869 -1.59502e-17)
(0.040608 -0.0697877 1.21972e-17)
(0.074763 -0.112388 3.99141e-18)
(0.0622595 -0.0178897 4.01885e-18)
(0.158306 -0.0788686 1.58516e-17)
(0.0904477 -0.116929 -3.98423e-18)
(0.074261 -0.107832 -2.7919e-17)
(0.0880334 -0.136672 -1.1933e-17)
(0.0425111 -0.158733 1.20107e-17)
(0.119587 0.0599867 -7.65899e-18)
(0.0380059 -0.0858269 -2.02734e-17)
(0.132866 -0.0292125 0)
(0.0532413 -0.122283 -3.98894e-18)
(0.0962882 0.130962 3.98271e-18)
(0.0832866 -0.128518 -3.98075e-18)
(0.065386 -0.115802 -1.19757e-17)
(0.12884 0.0444773 -1.58627e-17)
(0.102754 0.107132 0)
(0.0940655 -0.0292831 0)
(0.0498429 -0.0886816 -4.04982e-18)
(0.156034 -0.0321918 -3.58152e-17)
(0.139606 0.0160801 -1.59513e-17)
(0.0629572 -0.128486 3.98522e-18)
(0.0666873 0.122947 -3.98608e-18)
(0.139785 -0.133993 -1.58545e-17)
(0.0921073 -0.132225 3.97875e-18)
(-0.130153 0.00801649 -2.26089e-19)
(0.107513 0.0891432 0)
(0.0911422 -0.138137 1.19313e-17)
(0.0707192 0.130333 1.993e-17)
(0.174358 -0.0129586 0)
(0.0738896 -0.114795 1.59518e-17)
(0.119999 0.0439206 8.05496e-18)
(0.169435 -0.0456763 1.98504e-17)
(-0.12161 -0.049174 0)
(0.165338 -0.078305 1.19002e-17)
(0.091532 0.151308 -1.59461e-17)
(0.170883 -0.0429284 -3.9786e-18)
(0.144149 -0.14602 -2.30901e-21)
(0.109509 0.0901483 -1.19701e-17)
(0.102753 0.0731322 1.20617e-17)
(0.148352 -0.119829 -1.98162e-17)
(0.0419159 0.0165102 -4.01951e-18)
(0.0842807 -0.131317 -3.98096e-18)
(0.0922089 0.137897 0)
(0.0739039 0.140042 1.59323e-17)
(0.160757 -0.111354 0)
(0.113987 -0.155871 1.19004e-17)
(-0.118912 0.0273554 1.43686e-17)
(-0.098589 0.0750858 0)
(0.0739667 -0.00705181 -1.60042e-17)
(0.0712273 -0.15739 0)
(0.0800455 -0.0862994 3.20819e-17)
(0.164135 -0.0768013 0)
(-0.12458 0.0563931 -1.53391e-17)
(0.0668844 -0.178821 1.9859e-17)
(0.161353 -0.0692696 -1.199e-17)
(0.158733 -0.103211 9.55219e-22)
(0.113132 -0.145884 3.96616e-18)
(0.0883263 0.16066 -1.98026e-17)
(0.173198 -0.0108039 1.60219e-17)
(0.126434 0.0445025 1.59528e-17)
(-0.0403364 0.0309956 -8.91874e-18)
(0.0439729 -0.00115942 1.51704e-17)
(-0.0259673 -0.0206076 1.00529e-18)
(-0.00448324 0.0105325 1.91382e-18)
(0.00334955 0.00508928 -1.42523e-22)
(-0.00293198 -0.00867557 -3.27361e-17)
(-0.00714635 0.00909097 0)
(0.0943489 -0.0310787 -1.40583e-17)
(-0.0443543 -0.0190584 -2.36058e-17)
(-0.043849 0.136692 -4.1597e-17)
(-0.0387834 -0.023338 -1.60313e-17)
(0.0884712 -0.00142476 0)
(-0.0236223 0.0316772 2.3486e-17)
(-0.0142768 -0.013108 1.61819e-17)
(-0.0380039 0.017562 1.74952e-17)
(0.0486218 0.00492142 0)
(0.0850895 -0.129775 1.19421e-17)
(-0.0359579 -0.0068405 -2.48992e-17)
(0.0325874 -0.0211891 0)
(0.118483 -0.133251 -3.96884e-18)
(-0.0800914 0.0107421 0)
(0.142124 -0.106899 -1.19125e-17)
(0.122955 -0.145029 3.96687e-18)
(-0.11531 -0.0292355 0)
(0.0172032 0.00561573 0)
(0.0719943 -0.122574 3.98539e-18)
(0.0695549 0.129047 -1.59342e-17)
(0.103873 0.102571 -3.98817e-18)
(0.15003 -0.109636 1.18939e-17)
(0.0444814 0.0938676 -2.79874e-17)
(0.056753 -0.162141 4.00902e-18)
(0.0801022 0.232387 -1.17246e-17)
(0.0806813 -0.0266066 0)
(-0.0713746 0.0850574 -4.48183e-21)
(0.138234 -0.161805 1.97758e-17)
(0.0611482 -0.0957016 -4.01024e-18)
(0.086046 0.18116 1.47162e-21)
(0.0839267 0.193338 -1.17903e-17)
(0.0563944 -0.0816139 -4.04245e-18)
(0.0907441 0.164998 3.17613e-17)
(0.0263404 0.0220976 1.47063e-17)
(0.0266902 0.0169808 3.62181e-17)
(0.0942902 0.231662 -1.96208e-17)
(0.133677 -0.167022 -1.18678e-17)
(0.126657 -0.128909 1.98455e-17)
(0.0581708 -0.0335257 -3.21799e-17)
(-0.085015 0.024677 1.60075e-17)
(0.0938791 -0.118646 -1.99057e-17)
(0.15036 -0.0896271 1.59294e-17)
(0.168063 -0.0438762 2.93228e-22)
(0.133938 -0.0129339 0)
(-0.0445719 0.113824 2.70541e-17)
(0.0519668 0.103105 1.19917e-17)
(0.178426 0.0180249 1.61655e-17)
(0.0728339 0.194436 3.12961e-17)
(0.0938027 -0.163007 1.58832e-17)
(0.133666 0.1745 3.96286e-18)
(0.0876145 -0.195461 -1.19055e-17)
(0.0750079 -0.122327 -1.59438e-17)
(0.0971986 -0.0963894 3.98252e-18)
(0.102448 -0.0117157 0)
(0.106742 0.0759491 -3.9847e-18)
(0.0788295 -0.177723 -3.97061e-18)
(-0.0647682 0.0516406 -1.60106e-17)
(0.0584524 -0.0708309 3.20383e-17)
(0.0245607 0.0134042 -1.49225e-17)
(0.110633 0.155861 -1.19061e-17)
(0.089617 0.189383 -1.58541e-17)
(0.113933 0.21679 -1.18341e-17)
(-0.140618 0.0293996 3.97951e-18)
(0.0441027 0.204529 1.15018e-17)
(0.121517 0.0598597 1.59631e-17)
(-0.151709 0.0373579 7.81859e-18)
(-0.12537 0.0279246 0)
(-0.0070328 -0.00247783 -8.60865e-18)
(0.010717 0.0137472 -2.74356e-17)
(-0.00397388 0.00809833 3.25957e-17)
(-0.0525847 0.00895083 3.73483e-18)
(0.105087 -0.132738 -1.59005e-17)
(0.106661 -0.120767 3.97822e-18)
(-0.0053871 0.00105825 0)
(-0.101232 0.0177261 -3.2979e-17)
(0.030263 0.0213349 0)
(0.110084 0.22772 -1.97226e-17)
(-0.0854092 -0.0400754 1.60012e-17)
(0.12731 -0.107733 1.58976e-17)
(0.0668451 -0.142286 -1.59295e-17)
(-0.0143453 0.121145 1.98478e-17)
(-0.0723738 -0.0152369 -1.60278e-17)
(0.103067 -0.185329 0)
(-0.0751921 -0.099892 -3.19917e-17)
(0.0686923 0.216401 -1.89919e-17)
(0.0928348 -0.185862 1.98651e-17)
(0.0261311 0.0697115 1.60455e-17)
(0.10821 -0.136889 -1.19112e-17)
(0.110756 -0.0623318 0)
(0.1143 0.0271478 3.98638e-18)
(0.147814 0.165531 -7.92432e-18)
(0.0833393 -0.137854 -3.97947e-18)
(0.130901 0.195719 1.1882e-17)
(0.116504 0.113532 0)
(0.183663 0.0449017 1.74758e-17)
(0.119433 -0.115995 -1.98706e-17)
(0.119831 0.190878 3.55968e-17)
(0.145262 -0.0760695 0)
(0.105642 -0.08566 7.94867e-18)
(0.0998883 -0.12253 0)
(0.120378 -0.172255 3.95688e-18)
(0.0841416 -0.0973252 -1.99426e-17)
(0.0902071 0.102923 -1.37498e-17)
(0.0876779 -0.127886 1.19399e-17)
(0.120742 -0.0928641 0)
(0.0987519 -0.108903 -2.09826e-17)
(0.0743818 -0.00973029 1.60905e-17)
(0.0903871 -0.126989 -3.98077e-18)
(0.18053 0.0210404 -1.73792e-17)
(0.0919587 0.174005 -1.58742e-17)
(-0.101185 -0.0468093 -4.04473e-18)
(0.118444 0.233096 0)
(0.0548229 -0.101739 0)
(0.101369 -0.180318 -3.96147e-18)
(0.0997888 -0.140782 0)
(0.0913513 -0.136349 1.98902e-17)
(0.0394164 -0.085506 0)
(0.100329 -0.159929 3.97236e-18)
(0.0900752 0.167747 0)
(0.126216 -0.139189 1.18873e-17)
(-0.0384601 -0.0187509 0)
(0.097645 -0.133436 1.59005e-17)
(0.101788 0.234519 3.93841e-18)
(0.0776492 0.14045 2.78867e-17)
(0.1031 -0.152958 -1.98356e-17)
(0.0756132 -0.144005 0)
(0.0899142 0.215469 0)
(0.0595262 0.0578103 1.57199e-17)
(0.10547 -0.105894 2.45953e-17)
(0.131516 -0.0810362 0)
(0.0634257 -0.108483 0)
(0.098433 0.223366 2.75253e-17)
(0.136096 0.106146 1.58763e-17)
(0.0491048 0.0933695 -4.07135e-18)
(0.109397 0.0135884 0)
(0.0499922 0.106294 1.5991e-17)
(0.149707 0.142044 7.92419e-18)
(0.0805692 0.0791328 -3.99644e-18)
(-0.0180535 0.00325533 0)
(0.0793739 0.223581 3.93533e-18)
(0.0189475 0.0591705 -7.20478e-18)
(0.0858701 0.121742 0)
(0.0930943 0.19119 0)
(0.109706 0.157469 -7.95118e-18)
(0.0837255 -0.155554 3.97722e-18)
(0.0999336 0.1726 -7.93937e-18)
(-0.0680038 -0.0773748 4.00509e-18)
(0.0969379 -0.0923116 7.92921e-18)
(0.0156862 -0.0308198 7.52833e-18)
(0.0948132 0.18801 0)
(0.101909 0.206946 7.90817e-18)
(0.0895015 0.162385 -4.37158e-22)
(0.0712092 0.124048 3.98438e-18)
(0.0745421 -0.0396412 0)
(0.105134 0.197555 3.95576e-17)
(0.082351 -0.116332 1.99224e-17)
(0.0856202 0.144593 -3.97894e-18)
(0.0409344 0.0701122 -1.19163e-17)
(0.0967311 0.216412 0)
(0.0695033 -0.106792 -2.07309e-17)
(0.0780263 -0.0995867 2.81227e-17)
(0.0899398 -0.152636 -3.97163e-18)
(0.088461 -0.113433 3.98502e-18)
(0.0324036 -0.0719672 1.70752e-17)
(0.0968771 0.15571 -2.38261e-17)
(0.142166 -0.0194824 0)
(0.15013 -0.0418476 -1.99399e-17)
(0.0399811 0.0918202 0)
(0.11606 -0.183146 -1.5824e-17)
(0.0818861 0.142996 3.5806e-17)
(0.116558 0.0578309 5.56501e-22)
(-0.0555059 -0.13096 1.59453e-17)
(0.152478 0.132262 1.98161e-17)
(-0.103181 -0.0821623 0)
(0.116083 -0.181108 -3.96156e-18)
(0.130605 -0.167038 1.18669e-17)
(0.121855 -0.0345582 0)
(-0.000711957 0.0446655 4.23478e-18)
(0.0482816 0.0483257 1.60517e-17)
(0.0873378 -0.139537 -1.19282e-17)
(-0.0607948 -0.0403518 0)
(0.126584 0.219839 0)
(0.0838805 0.157231 0)
(-0.00959845 0.00861946 0)
(0.0923499 -0.142775 1.59067e-17)
(0.0657726 0.111655 2.02392e-17)
(-0.0366967 -0.155334 -1.59997e-17)
(0.0777083 0.0992728 -3.99542e-18)
(0.016019 0.03635 -1.60906e-17)
(0.133367 -0.156128 1.18768e-17)
(0.0160131 0.0628843 0)
(-0.101421 -0.0768347 3.99112e-18)
(0.0144691 -0.0274685 3.62355e-17)
(0.0959763 0.0371546 0)
(0.115221 0.209384 -1.97768e-17)
(0.04214 -0.0343029 -4.01675e-18)
(0.0234842 0.0304215 -1.20723e-17)
(0.127756 0.00244025 0)
(0.122508 0.129186 -1.70083e-21)
(0.065152 0.111918 -3.19231e-17)
(0.0736156 0.100879 -4.06302e-18)
(-0.0266076 -0.147345 0)
(0.0702342 -0.0203287 0)
(0.0359202 -0.0870758 -1.32286e-17)
(-0.0309272 -0.145413 -5.07912e-21)
(0.0865167 0.163779 -1.58888e-17)
(0.118612 0.193716 -1.18682e-17)
(0.0721168 0.063439 -1.60089e-17)
(0.0561516 -0.105989 0)
(0.00686736 0.0594502 1.87516e-17)
(0.105996 0.134537 8.03316e-18)
(0.0799711 0.0434881 -3.20782e-24)
(0.0178462 0.0731268 -4.08285e-18)
(0.124981 -0.0356051 0)
(-0.047348 -0.04122 -2.80323e-17)
(-0.122089 -0.0764053 -3.21674e-17)
(-0.0168952 -4.46799e-06 0)
(0.00243001 0.0125112 1.61267e-17)
(0.059381 0.0639128 1.60233e-17)
(0.0919687 -0.126527 0)
(0.0517475 -0.036341 -1.60665e-17)
(-0.0833348 -0.120378 -1.59329e-17)
(-0.102698 -0.0985651 1.64317e-17)
(0.138564 -0.0295061 1.19797e-17)
(-0.00980106 0.00112703 0)
(0.0396196 -0.0322616 -1.58247e-17)
(0.0356028 0.0462736 -1.60648e-17)
(0.0819999 0.12427 4.06864e-18)
(-0.0592906 -0.144021 0)
(0.102481 0.000216697 0)
(0.105166 0.0855423 -1.19676e-17)
(-0.0705296 -0.119266 1.59862e-17)
(0.0140592 0.0275305 -4.02401e-18)
(7.93872e-05 0.0113792 0)
(0.048545 -0.0226541 0)
(0.138152 -0.109996 -2.77346e-17)
(0.140642 0.142217 -3.96054e-18)
(0.0334134 -0.0651966 4.29583e-18)
(0.0688436 0.0980896 1.99794e-17)
(0.143284 0.192586 1.18609e-17)
(0.153367 0.166326 -2.76937e-17)
(0.053693 0.0314779 -2.00664e-17)
(0.0819241 0.00780202 -1.60348e-17)
(0.1168 -0.0197041 2.00005e-17)
(0.0705568 0.0284184 3.6075e-17)
(0.134292 0.181158 1.18733e-17)
(0.136463 0.209214 -1.18538e-17)
(0.00621983 -0.0242873 -4.10116e-18)
(0.093103 -0.139829 0)
(0.0582663 0.0793616 -3.20371e-17)
(0.142146 0.0588371 -1.58791e-17)
(-0.00630822 0.0150025 -1.61184e-17)
(-0.0831685 -0.0879127 1.59826e-17)
(0.0709833 0.116443 -1.59604e-17)
(0.155236 -0.0209593 0)
(0.142132 -0.0440605 0)
(0.0245113 -0.0797625 0)
(0.132055 -0.0653579 1.59099e-17)
(0.0805757 -0.0336326 0)
(0.0256458 -0.0310464 -1.20735e-17)
(0.0105222 0.0312634 0)
(0.0199878 -0.0255703 0)
(0.102405 -0.0250475 0)
(0.108827 -0.0400921 -3.99804e-18)
(-0.00162064 0.0175224 0)
(0.0944057 -0.125869 1.59182e-17)
(0.135909 0.0211759 -3.97992e-18)
(0.143965 -0.0460239 0)
(0.065255 -0.00215323 -2.03267e-17)
(-0.0259963 -0.0948424 -1.61043e-17)
(0.0521099 -0.0327054 0)
(0.141768 -0.0295011 3.97805e-18)
(0.0671665 -0.0542357 0)
(0.0224405 -0.0596812 1.22061e-17)
(0.0737944 -0.0344099 0)
(0.0909123 -0.0329554 0)
(-0.00898128 -0.0819315 -1.61429e-17)
(0.120155 -0.0430575 0)
(0.108275 -0.0290349 -1.60006e-17)
(0.0847199 -0.0388615 4.00881e-18)
(-0.0506596 -0.0738102 0)
(0.158268 0.150472 1.18843e-17)
(0.0856839 -0.0389745 4.00681e-18)
(0.0766225 -0.0224591 0)
(0.0480629 -0.00385838 -1.09492e-17)
(0.169076 -0.000462601 -1.98934e-17)
(-0.0483382 -0.11972 3.20529e-21)
(0.157578 -0.0367254 -1.5962e-17)
(0.0779903 -0.0359119 1.6041e-17)
(0.120991 -0.0402246 -1.59861e-17)
(0.0224292 0.0583425 0)
(0.0922927 -0.0377711 -1.20341e-17)
(0.144929 -0.0339106 0)
(0.174111 0.0286432 -1.59149e-17)
(0.0842569 -0.022333 0)
(0.0278121 0.052582 4.01367e-18)
(0.151995 -0.0135685 3.99586e-18)
(0.0509844 -0.000802635 0)
(0.165882 -0.0487363 3.98325e-18)
(0.00149769 -0.0226131 1.40787e-17)
(0.110871 -0.0431702 1.19886e-17)
(0.0649185 0.0631952 0)
(0.0458152 0.0882588 -1.20013e-17)
(-0.0352767 -0.068441 0)
(0.029899 -0.023368 0)
(0.00841932 -0.0235579 -1.45074e-17)
(0.150954 -0.0459984 0)
(-0.00446987 -0.0415835 0)
(-0.00132778 0.0361244 -4.1954e-18)
(0.0530533 -0.0201088 2.02242e-17)
(0.163287 -0.0353792 -1.59624e-17)
(0.0487748 0.0753063 -1.60186e-17)
(0.0151628 -0.0651493 1.6795e-17)
(0.0534686 -0.035984 1.63227e-17)
(0.167168 -0.0476487 0)
(0.0732389 -0.0298858 -4.00955e-18)
(0.0521379 -0.0200809 0)
(0.00585486 0.0269008 -8.34366e-18)
(0.164992 -0.0466614 5.1924e-22)
(0.158133 -0.0315942 0)
(0.178387 0.055289 -2.01889e-17)
(0.0441635 -0.0265611 0)
(0.13954 -0.0442698 -3.99669e-18)
(0.0445884 -0.0364446 1.27487e-17)
(0.0114208 -0.0557407 1.61905e-17)
(0.161058 -0.0304759 1.59601e-17)
(0.0327585 0.0621349 1.20398e-17)
(0.0441503 -0.0121582 -6.73542e-18)
(0.0527811 0.0883726 3.20158e-17)
(0.167963 -0.0480387 1.59372e-17)
(0.124206 -0.0424307 -3.99638e-18)
(0.136686 -0.0434778 0)
(0.139441 0.0226101 0)
(0.0632175 0.105051 1.61808e-17)
(0.036556 0.0582034 1.2041e-17)
(0.176027 0.0601546 2.01872e-17)
(0.0374847 -0.00294316 -4.01432e-18)
(0.0714508 -0.00498926 0)
(0.0234059 0.00830228 0)
(0.156636 0.0517907 0)
(0.0117062 -0.0116068 -1.61744e-17)
(0.0548892 -0.00482435 0)
(0.0591515 0.0999318 -1.64584e-17)
(-0.0147094 -0.0233508 2.85011e-17)
(0.147821 0.00104076 3.18974e-17)
(0.0225676 -0.0270296 -1.61077e-17)
(0.170369 0.0326021 0)
(0.0119836 -0.0173941 -1.61193e-17)
(0.0458939 0.0819688 0)
(0.160496 -0.0483443 0)
(0.139878 0.0124657 0)
(0.0957645 0.0544845 1.21166e-17)
(0.0216939 0.0655119 0)
(0.0177093 -0.0784117 0)
(0.0305283 0.0654323 0)
(0.0753526 0.0441322 0)
(0.049056 -0.0898366 -4.05005e-18)
(0.0331818 0.070039 0)
(0.161095 0.00316759 1.98623e-17)
(0.151691 -0.00465175 -3.99661e-18)
(0.0251664 0.0709197 0)
(0.00591365 0.00359708 -1.6138e-17)
(0.052055 0.0958408 -4.00027e-18)
(0.0216541 -0.00249543 4.17941e-18)
(0.114385 -0.0311793 0)
(0.0649645 0.033814 -1.5633e-17)
(0.126051 0.0227198 -1.60436e-17)
(0.00807845 0.0420959 4.10023e-18)
(0.0887602 0.0444027 -1.20902e-17)
(-0.00589902 -0.00572568 2.05579e-17)
(0.0476508 -0.0168062 -1.61231e-17)
(0.143541 0.0141708 0)
(0.00540998 -0.0445709 0)
(0.0115141 -0.0168707 0)
(0.0603547 0.103981 0)
(0.0936738 0.0739988 -1.20891e-17)
(0.0662444 0.0463823 -4.03903e-18)
(0.116697 0.0392717 1.60558e-17)
(-0.00467005 -0.0170247 9.68284e-18)
(-0.00397863 -0.00657878 -4.07092e-18)
(0.0104948 0.0161367 1.68399e-17)
(0.161842 -0.0329361 0)
(0.0768005 0.0745048 -1.28197e-17)
(0.0393019 -0.0119245 4.02333e-18)
(0.158198 0.0867189 0)