/*--------------------------------*- C++ -*----------------------------------*\
  =========                 |
  \\      /  F ield         | OpenFOAM: The Open Source CFD Toolbox
   \\    /   O peration     | Website:  https://openfoam.org
    \\  /    A nd           | Version:  9
     \\/     M anipulation  |
\*---------------------------------------------------------------------------*/
FoamFile
{
    format      ascii;
    class       volScalarField;
    location    "0.33";
    object      p;
}
// * * * * * * * * * * * * * * * * * * * * * * * * * * * * * * * * * * * * * //

dimensions      [0 2 -2 0 0 0 0];

internalField   nonuniform List<scalar> 
578
(
15.1848
15.2639
15.1972
15.4011
15.0963
15.3192
15.0985
15.1254
15.1362
15.2398
15.3371
15.1266
15.4615
15.1077
15.1083
15.2113
15.5686
15.3351
15.1278
15.1527
15.3945
15.2023
15.6172
15.3185
15.3262
15.1127
15.3954
15.3778
15.2982
15.1954
15.3824
15.2959
15.1838
15.3564
15.1051
15.1782
15.1044
15.107
15.184
15.0812
15.092
15.1274
15.11
15.0926
15.1289
15.0798
15.0923
15.114
15.1983
15.4148
15.2978
15.4626
15.5588
15.351
15.4655
15.3224
15.6887
15.1688
15.4646
15.1724
15.3621
15.5881
15.3327
15.0895
15.456
15.1138
15.1746
15.3471
15.2887
15.1097
15.3432
15.3022
15.4587
15.1059
15.3332
15.0781
15.1581
15.1765
15.4544
15.169
15.3113
15.193
15.2193
15.2138
15.1695
15.0877
15.2861
15.3338
15.1051
15.098
15.3895
15.1377
15.1034
15.4454
15.2872
15.2801
15.4622
15.4661
15.2526
15.1013
15.0922
15.0989
15.4535
15.1705
15.477
15.1004
15.3204
15.0766
15.0909
15.0748
15.1781
15.1069
15.1622
15.3719
15.3107
15.4627
15.42
15.3657
15.1012
15.4667
15.111
15.2452
15.1089
15.3787
15.2166
15.099
15.2992
15.2137
15.112
15.0927
15.113
15.0973
15.436
15.1052
15.1035
15.1719
15.1256
15.4627
15.4064
15.1156
15.1115
15.096
15.1119
15.3327
15.1084
15.1733
15.1029
15.4517
15.1037
15.0962
15.1459
15.0341
15.1705
15.1023
15.1223
15.4259
15.3449
15.4409
15.1714
15.1333
15.1149
15.0927
15.1146
15.1607
15.3212
15.0998
15.3296
15.1298
15.452
15.4091
15.177
15.1275
15.1774
15.1031
15.1282
15.4478
15.4411
15.4431
15.1777
15.2981
15.1295
15.2434
15.0953
15.4462
15.1691
15.466
15.175
15.105
15.1332
15.2925
15.1299
15.154
15.186
15.141
15.2132
15.4086
15.4285
15.4294
15.1553
15.1394
15.4663
15.4421
15.2397
15.4146
15.4305
15.1298
15.1563
15.1172
15.1242
15.1742
15.1028
15.1261
15.1047
15.4238
15.1073
15.3764
15.1428
15.1406
15.1201
15.1019
15.119
15.1224
15.1042
15.1589
15.1437
15.1046
15.3913
15.4389
15.439
15.3014
15.2149
15.2406
15.1048
15.0889
15.0892
15.1871
15.1509
15.1523
15.4586
15.1031
15.1245
15.1199
15.3968
15.1185
15.4158
15.1117
15.1091
15.2694
15.1845
15.3751
15.4116
15.1018
15.2792
15.1058
15.308
15.0955
15.3108
15.1344
15.1694
15.2635
15.1016
15.1366
15.4101
15.401
15.2783
15.106
15.1084
15.1028
15.2807
15.1101
15.1102
15.1013
15.1008
15.3796
15.428
15.3775
15.3827
15.103
15.1603
15.3623
15.1425
15.3831
15.3742
15.4055
15.3665
15.1059
15.1025
15.1029
15.3341
15.3394
15.1003
15.1055
15.3961
15.1702
15.3667
15.3771
15.1352
15.0927
15.3411
15.3647
15.3659
15.1007
15.3552
15.3342
15.3908
15.3636
15.0965
15.3077
15.3537
15.363
15.1039
15.3397
15.3431
15.101
15.3504
15.3762
15.1033
15.1062
15.1087
15.3567
15.1055
15.3645
15.3939
15.3374
15.4269
15.3576
15.1441
15.1186
15.1237
15.3497
15.4449
15.1545
15.3503
15.3608
15.1072
15.3425
15.4041
15.3671
15.325
15.388
15.387
15.3946
15.3373
15.3138
15.3424
15.2445
15.4758
15.0948
15.0925
15.0921
15.0933
15.0885
15.0868
15.3286
15.0786
15.0781
15.3386
15.0758
15.0506
15.0497
15.3549
15.6843
15.3402
15.0935
15.3396
15.4387
15.3455
15.3804
15.4187
15.1737
15.0934
15.45
15.1079
15.4143
15.1721
15.4776
15.4337
15.0919
15.0894
15.5907
15.4658
15.0938
15.0926
15.381
15.363
15.4053
15.7043
15.0778
15.0733
15.094
15.476
15.4899
15.4494
15.1004
15.2391
15.5996
15.3339
15.3372
15.5453
15.3289
15.18
15.3167
15.6535
15.291
15.4828
15.4685
15.3576
15.5392
15.3782
15.3856
15.5154
15.3375
15.317
15.097
15.4695
15.4029
15.1068
15.1098
15.104
15.4162
15.0992
15.3199
15.1256
15.1061
15.1001
15.0988
15.0884
15.3148
15.0917
15.0967
15.1568
15.3409
15.138
15.4822
15.096
15.1056
15.0908
15.3668
15.0955
15.4282
15.429
15.3929
15.443
15.3599
15.1355
15.3643
15.342
15.1785
15.184
15.3577
15.1173
15.5022
15.1133
15.4992
15.1177
15.3686
15.2834
15.5143
15.3348
15.3189
15.2705
15.1869
15.3612
15.0944
15.3372
15.1743
15.0938
15.179
15.3962
15.1023
15.3399
15.3922
15.1904
15.4411
15.3305
15.113
15.0983
15.1843
15.0374
15.1852
15.3377
15.3471
15.2432
15.3427
15.4401
15.0963
15.3318
15.5749
15.4748
15.1156
15.5741
15.1664
15.1019
15.4647
15.4309
15.0963
15.38
15.0983
15.6328
15.6352
15.11
15.3855
15.0964
15.3895
15.3309
15.461
15.0962
15.4258
15.0968
15.4752
15.3584
15.2632
15.3692
15.0776
15.0937
15.3656
15.1095
15.0818
15.3142
15.4806
15.3376
15.5913
15.3351
15.0972
15.0986
15.378
15.3416
15.429
15.0867
15.2945
15.0561
15.1181
15.4006
15.3522
15.3453
15.1882
15.322
15.1016
15.1849
15.4867
15.4889
15.3257
15.1912
15.1023
15.2875
15.349
15.3327
15.2583
15.141
15.0972
15.4096
15.1196
15.099
15.0896
15.4757
15.3444
15.1464
15.3395
15.3722
15.4412
15.4547
15.0551
15.0926
15.4815
15.4852
15.3187
15.477
15.341
15.52
15.5186
15.0984
15.2447
15.5078
15.3209
15.2685
15.328
15.1727
15.1885
)
;

boundaryField
{
    front
    {
        type            empty;
    }
    back
    {
        type            empty;
    }
    bottom
    {
        type            uniformFixedValue;
        uniformValue    
        {
            type            scale;
            scale           
            {
                type            squarePulse;
                start           0.3;
                duration        0.3;
            }
            xScale          
            {
                type            constant;
                value           1;
            }
            value           
            {
                type            constant;
                value           15.1;
            }
        }
        value           uniform 15.1;
    }
    left
    {
        type            zeroGradient;
    }
    top
    {
        type            zeroGradient;
    }
    right
    {
        type            zeroGradient;
    }
    inner_arc
    {
        type            zeroGradient;
    }
}


// ************************************************************************* //
