/*--------------------------------*- C++ -*----------------------------------*\
  =========                 |
  \\      /  F ield         | OpenFOAM: The Open Source CFD Toolbox
   \\    /   O peration     | Website:  https://openfoam.org
    \\  /    A nd           | Version:  9
     \\/     M anipulation  |
\*---------------------------------------------------------------------------*/
FoamFile
{
    format      ascii;
    class       surfaceScalarField;
    location    "0.33";
    object      phi;
}
// * * * * * * * * * * * * * * * * * * * * * * * * * * * * * * * * * * * * * //

dimensions      [0 3 -1 0 0 0 0];

internalField   nonuniform List<scalar> 
816
(
-8.16e-11
-5.88e-10
6.69e-10
-1.76e-11
-1.03e-09
1.05e-09
9.92e-10
-1.07e-09
1.2e-09
-1.21e-09
2.46e-12
6.64e-10
-6.64e-10
1.34e-09
2.41e-10
-1.58e-09
6.92e-10
-6.92e-10
-6.44e-10
6.44e-10
-1.29e-09
-7.57e-11
1.36e-09
-4.39e-10
4.22e-10
1.99e-09
-6.53e-10
1.57e-09
-1.11e-09
-4.67e-10
2.3e-10
1.14e-09
-1.37e-09
1.55e-09
-1.38e-09
-1.65e-10
1.56e-09
-1.31e-09
-2.46e-10
-1.06e-09
1.8e-09
-7.35e-10
4.76e-10
4.21e-10
-8.98e-10
-1.47e-09
8.55e-11
1.38e-09
1.83e-10
1.39e-09
6.3e-10
-1.91e-09
8.99e-10
3.05e-10
1.71e-10
-1.23e-09
8.37e-10
-1.64e-10
-6.73e-10
-8.42e-10
-4.26e-10
1.27e-09
-9.04e-10
6.15e-11
-1.31e-09
2.98e-10
1.02e-09
-1.07e-09
1.17e-09
-1.01e-10
-2.64e-12
2.92e-10
-2.89e-10
3.4e-10
-1.37e-09
5.73e-10
1.23e-09
-7.12e-10
7.1e-10
-8.76e-10
1.12e-09
2.02e-09
-1.44e-09
-1.44e-09
6.98e-10
7.39e-10
1.31e-10
1.43e-09
-2.93e-10
1.52e-09
1.32e-10
1.41e-09
-2.2e-10
-1.09e-09
-1.92e-09
7.02e-10
1.22e-09
4.24e-10
2.41e-10
-5.32e-10
-4.61e-10
4.24e-10
-1.31e-09
2.56e-12
-8.56e-10
-2.76e-10
1.13e-09
4.34e-10
2.58e-10
-5.61e-10
1.25e-09
-1.32e-09
-9.29e-10
-1.01e-09
-5.87e-11
-2.95e-11
3.48e-10
-3.18e-10
1.27e-09
-1.04e-09
7.63e-10
7.48e-11
-5.57e-10
-8.8e-10
7.28e-10
5.88e-10
4.3e-10
-1.44e-09
1.01e-09
-1.64e-10
-8.56e-10
1.61e-09
-1.14e-09
5.33e-10
-8.26e-10
1.46e-10
-2.36e-10
6.58e-10
7.43e-10
-6.58e-10
-3.92e-11
-1.34e-09
-7.53e-10
-9.68e-10
1.72e-09
-1.34e-09
2.83e-11
1.31e-09
7.02e-10
8.87e-10
1.11e-09
-5.12e-10
1.72e-09
-1.21e-09
2.97e-10
1.1e-09
-1.39e-09
-2.05e-10
-9.05e-10
6.65e-10
-1.42e-09
1.1e-09
5.72e-10
-1.67e-09
6.26e-10
1.15e-09
-1.78e-09
5.71e-10
-5.71e-10
-7.59e-10
1.39e-09
-1.08e-09
3.17e-10
1.8e-09
2.32e-10
4.37e-10
-6.69e-10
-1.44e-09
7.5e-11
1.36e-09
-5.88e-10
5.47e-10
-5.47e-10
-6.55e-10
6.55e-10
7.11e-10
-1.49e-09
7.79e-10
-4.76e-10
-1.34e-10
3.48e-10
-1.22e-09
1.65e-09
-1.69e-11
-1.07e-09
1.09e-09
-9.54e-10
-2.88e-11
9.83e-10
4.63e-10
-6.42e-10
1.35e-09
-1e-11
-1.17e-09
1.18e-09
9.87e-10
7.27e-10
-1.71e-09
-1.25e-09
2.24e-11
1.14e-09
-1.16e-09
-6.9e-10
-7.8e-10
-4.39e-10
-9.49e-11
1.52e-09
1.97e-11
-1.36e-09
-9.18e-10
1.21e-09
-1.47e-09
1.09e-09
3.8e-10
9.34e-10
8.25e-10
4.91e-10
-1.36e-10
1.55e-09
-9.57e-10
5.32e-10
-4.76e-10
-5.98e-11
-5.11e-10
6.01e-10
9.18e-10
1.4e-09
1.23e-09
-1.64e-09
4.12e-10
-4.76e-10
-9.9e-10
-3.41e-10
-8.65e-10
-2.28e-10
-1.18e-09
1.41e-09
4.07e-11
-9.95e-10
1.44e-09
-6.19e-10
-6.22e-11
1.08e-09
-7.49e-10
9.4e-11
2.95e-10
9.69e-10
-7.05e-11
-2.02e-10
1.16e-09
-1.32e-09
1.62e-10
-7.32e-10
-7.08e-10
-1.25e-09
9.03e-10
3.46e-10
-1.16e-09
-2.36e-10
1.4e-09
-2.85e-11
-1.37e-09
1.41e-09
-2.57e-10
-4.16e-10
1.4e-09
-3.62e-10
3.62e-10
1.3e-09
9.91e-11
1.35e-11
-1.27e-09
1.26e-09
8.84e-12
-1.11e-09
-1.29e-09
-3.46e-10
9.72e-10
-1e-09
8.5e-12
-4.26e-10
4.18e-10
2.58e-10
9.81e-10
2.07e-11
8.97e-10
-9.18e-10
-4.24e-10
-7.08e-11
1.29e-09
1.23e-10
7.7e-10
-8.93e-10
-6.71e-10
4.35e-10
2.36e-10
-1.25e-09
1.02e-09
-1.46e-09
-6.18e-11
1.52e-09
-5.07e-10
5.07e-10
5.33e-10
6.27e-11
2.99e-10
-1.32e-10
-1.43e-09
1.56e-09
-4.42e-11
-9.71e-10
1.42e-09
-1.08e-09
-2.97e-10
1.23e-09
-9.35e-10
4.37e-10
1.55e-10
-1.62e-09
-1.19e-09
-4.26e-10
-1.26e-09
1.2e-09
-3.49e-10
3.49e-10
-1.13e-09
-3.28e-10
1.06e-09
-1.19e-09
-7.36e-10
4.39e-10
-6.17e-10
2.09e-09
-1.48e-09
-1.28e-10
-1.13e-09
4.61e-10
-4.52e-10
-5.06e-10
5.2e-10
6.16e-11
-3.62e-10
3e-10
1.45e-11
1.05e-09
1.1e-09
6.22e-10
-7.35e-10
1.83e-09
-1.37e-09
-6.92e-10
5.64e-10
7.68e-12
-9.11e-10
9.04e-10
4.78e-10
-4.64e-10
1.66e-10
-1.2e-09
1.03e-09
9.55e-10
-1.09e-09
1.07e-09
-7.28e-12
-1.26e-09
-6.71e-10
-8.26e-10
-6.11e-10
-6.38e-10
-1.39e-09
-1.33e-10
1.53e-09
-3.44e-10
3.51e-10
-1.36e-09
-1.36e-10
1.5e-09
1.24e-09
-4.41e-11
-1.13e-09
-6.49e-11
-4.22e-10
-1.29e-09
2.05e-09
-7.55e-10
-4.39e-10
3.9e-10
4.92e-11
-4.35e-10
3.91e-10
-1.27e-09
1.26e-09
8.95e-12
1.17e-09
-1.11e-09
-6.77e-11
-7.36e-10
1.8e-09
-3.81e-10
-1.65e-10
-1.91e-09
1.2e-09
6.37e-10
5.82e-11
-1.37e-11
-1.15e-09
-4.4e-11
8.14e-10
-1.64e-09
-6.02e-11
1.36e-09
1.98e-09
-7.81e-10
9.21e-10
7.6e-10
2.09e-10
2.56e-10
-3e-10
1.36e-09
9.49e-10
9.73e-11
-8.34e-10
8.97e-10
5.2e-10
-5.64e-10
-5.29e-10
4.64e-10
-8.31e-10
-1.33e-09
2.13e-09
-7.99e-10
-3.44e-10
-3.81e-10
-3.62e-10
-2.7e-10
-9.15e-10
-6.92e-10
5.2e-10
-5.29e-10
-4.42e-10
-4.51e-11
8.02e-10
-7.57e-10
4.78e-10
7.19e-10
5.2e-11
3.91e-10
4.18e-10
-3.51e-10
-8.78e-11
-5.06e-10
-9.93e-10
-6.75e-10
1.67e-09
1.22e-09
-1.17e-10
-1.2e-09
3.33e-11
1.08e-09
9.3e-11
-2.54e-10
1.61e-10
-3.18e-10
1.12e-09
-1.39e-09
5.06e-12
1.65e-09
-1.62e-09
2.54e-10
-2.99e-10
3.9e-10
3.92e-10
-1.46e-10
2.44e-10
-5.85e-10
-1.63e-10
-1.39e-09
2.17e-10
7.82e-10
1.35e-09
1.01e-09
-1.29e-09
2.07e-09
-1.31e-09
3.19e-10
2.56e-10
-5.2e-10
-7.25e-10
-1.11e-09
1.84e-09
4.52e-10
-1.96e-09
-7.74e-10
2.12e-09
-7.96e-10
2.02e-09
1.34e-09
5.61e-11
-2.35e-10
2.35e-10
-4.41e-10
-9.28e-10
1.24e-09
1.24e-09
8.49e-10
-3.22e-10
3.22e-10
-3.92e-10
-3.18e-10
-4.06e-10
3.28e-10
7.77e-11
4.06e-10
-8.4e-11
-2.18e-10
-4.41e-10
-1.25e-09
-1.13e-09
2.22e-10
-2.14e-09
7.69e-10
1.37e-09
-7.99e-10
1.4e-10
-1.28e-09
2.11e-09
-8.28e-10
-2.06e-09
7.85e-10
5.95e-10
-1.19e-09
1.96e-09
1.05e-09
-1.83e-09
-1.46e-10
9.3e-11
6.5e-10
-9.77e-10
1.32e-09
-6.49e-10
-9.62e-10
1.61e-09
-1.27e-09
2.13e-09
-8.09e-10
1.42e-09
6.88e-10
1.44e-09
1.71e-09
-1.63e-09
-1.65e-09
8.45e-10
1.31e-09
-2.08e-09
1.28e-09
-6e-10
1.13e-09
-2.31e-10
-1.22e-09
-6.06e-10
7.12e-10
1.39e-09
2.09e-09
-3e-10
-8.96e-10
1.2e-09
-3.79e-10
3.79e-10
-3.39e-10
3.39e-10
4.24e-10
-4.24e-10
4.07e-10
-4.07e-10
4.24e-10
4.34e-10
1.22e-09
-1.65e-09
4.35e-10
-5.61e-10
1.31e-09
7.84e-10
5.59e-10
-5.59e-10
-5.11e-10
5.39e-10
-5.39e-10
-1.86e-09
7.06e-10
1.16e-09
-2.36e-10
-2.02e-09
1.25e-09
7.67e-10
-3.72e-10
3.72e-10
-1.71e-09
6.88e-10
1.02e-09
-6.11e-10
-1.22e-09
-1.06e-09
7.43e-10
-5.11e-10
1.08e-09
-4.06e-10
-1.52e-09
-1.56e-09
7.63e-10
4.35e-10
4.52e-11
6.8e-11
-2.5e-13
-8.97e-10
-1.97e-09
1.11e-09
8.64e-10
-1.27e-09
-6.01e-10
-4e-10
-3.38e-11
5.29e-10
-1.51e-09
6.14e-10
-8.22e-10
-1.11e-09
1.97e-09
-5.85e-10
-1.04e-09
4.01e-10
6.37e-10
-9.39e-11
-1.27e-09
2.53e-11
1.24e-09
-4.24e-10
2.97e-10
-2.97e-10
-2.17e-11
-7.12e-10
-6.6e-10
-8.98e-10
1.39e-09
1.4e-09
-3.8e-10
-1.3e-09
-9.79e-10
8.16e-11
1.75e-09
-9.29e-10
-5.86e-10
-1.33e-09
-9.27e-10
-1.28e-09
-2.25e-10
-8.47e-10
-3.57e-10
-8.12e-10
-5.85e-10
-1.09e-09
-1.53e-09
-3.44e-10
1.25e-09
-1.05e-09
-9.68e-10
-1.23e-09
1.1e-09
-1.31e-09
2.09e-10
-4.54e-10
-1.43e-10
-1.04e-10
1.11e-09
-4.54e-10
-2.9e-10
1.67e-09
2.25e-10
-1.9e-09
1.92e-09
4.8e-10
6.52e-10
-8.12e-10
1.34e-09
4.19e-10
-4.19e-10
1.15e-09
2.44e-10
5.78e-10
9.23e-11
-1.06e-09
1.19e-09
-1.57e-09
1.58e-09
8.16e-10
7.11e-10
-1.26e-09
5.52e-10
4.1e-11
1.7e-09
-5.43e-10
7.89e-10
1.3e-09
-1.08e-09
3.91e-11
2.92e-10
-1.02e-09
4.11e-10
5.53e-10
5.04e-10
9.24e-10
-1.03e-09
1.49e-10
-7.99e-10
3.62e-11
1.16e-09
-9.95e-10
1.05e-09
3.62e-10
-8.97e-10
4.67e-10
-3e-11
4.71e-10
-1.55e-09
-8.11e-11
-1.83e-09
2.57e-10
-5.63e-11
3.75e-10
1.58e-10
-1.1e-09
1.4e-09
1.29e-10
-1.4e-09
-2.89e-10
4.67e-10
9.69e-10
-7.33e-10
-1.01e-09
-6.38e-10
9.44e-10
6.06e-10
-1.06e-09
3.75e-10
4.8e-10
-1.39e-09
-1.51e-09
1.47e-09
-1.95e-12
-8.48e-10
-6.6e-10
6.6e-10
3.99e-10
-1.32e-09
-6.76e-10
6.76e-10
-1.12e-09
-1.38e-09
-1.1e-09
-1.13e-09
6.56e-10
6.33e-10
1.31e-09
-3.67e-10
-9.3e-10
9.78e-10
1.2e-09
-1.46e-09
7.22e-10
-8.34e-10
8.8e-10
-1.06e-09
-6.76e-10
-5.87e-10
-6.68e-10
-2.37e-10
-1.08e-09
-3e-10
6.16e-10
-8.1e-10
7.77e-10
1.65e-10
1.19e-09
3.12e-11
-1.35e-09
-1.29e-09
-6.9e-10
-1.15e-10
-1.11e-09
-1.07e-11
-5.99e-11
-1.86e-10
-6.46e-10
5.78e-10
1.39e-09
-1.53e-10
-8.88e-10
3.23e-11
8.13e-10
1.1e-09
-1.1e-09
-1.07e-09
-1.14e-09
-1.19e-09
-4.51e-10
3.18e-10
1.72e-10
)
;

boundaryField
{
    front
    {
        type            empty;
        value           nonuniform List<scalar> 0();
    }
    back
    {
        type            empty;
        value           nonuniform List<scalar> 0();
    }
    bottom
    {
        type            calculated;
        value           nonuniform List<scalar> 
12
(
6.09e-10
1.39e-09
1.19e-09
1.21e-09
6.78e-10
1.61e-10
1.63e-10
1.14e-09
1.43e-09
1.24e-09
6.88e-10
5.97e-10
)
;
    }
    left
    {
        type            calculated;
        value           uniform 0;
    }
    top
    {
        type            calculated;
        value           nonuniform List<scalar> 8(-1.32e-09 -1.32e-09 -1.31e-09 -1.31e-09 -1.31e-09 -1.32e-09 -1.32e-09 -1.31e-09);
    }
    right
    {
        type            calculated;
        value           uniform 0;
    }
    inner_arc
    {
        type            calculated;
        value           uniform 0;
    }
}


// ************************************************************************* //
