/*--------------------------------*- C++ -*----------------------------------*\
  =========                 |
  \\      /  F ield         | OpenFOAM: The Open Source CFD Toolbox
   \\    /   O peration     | Website:  https://openfoam.org
    \\  /    A nd           | Version:  9
     \\/     M anipulation  |
\*---------------------------------------------------------------------------*/
FoamFile
{
    format      ascii;
    class       volVectorField;
    location    "0.33";
    object      U;
}
// * * * * * * * * * * * * * * * * * * * * * * * * * * * * * * * * * * * * * //

dimensions      [0 1 -1 0 0 0 0];

internalField   nonuniform List<vector> 
578
(
(-0.249783 -0.348169 0)
(-0.153507 -0.639925 2.39269e-16)
(-0.384784 -0.53049 0)
(0.0472921 -0.747552 2.81263e-16)
(0.102448 -0.205547 0)
(0.0377157 -0.823933 -2.70912e-16)
(-0.107984 -0.216918 -5.0493e-17)
(0.116367 -0.208278 5.0378e-16)
(0.574338 -0.779432 0)
(-0.106933 -0.429169 -4.46908e-16)
(0.0396136 -0.839071 1.19884e-16)
(0.353801 -0.662524 1.61636e-17)
(0.0169389 -0.712727 0)
(0.44401 -0.762268 -2.75178e-16)
(-0.448846 -0.775143 0)
(0.480071 -0.604102 6.85551e-17)
(-0.350985 -0.431542 -1.99826e-16)
(-0.608207 -0.611053 4.21893e-16)
(0.32047 -0.599834 -9.87492e-17)
(0.548968 -0.704411 -2.51793e-16)
(0.0482116 -0.807661 -2.83939e-16)
(0.380544 -0.562347 3.50632e-16)
(0.270298 -0.293224 -2.75715e-16)
(-0.0128435 -0.731318 -3.35003e-17)
(-0.0189201 -0.628449 0)
(0.315852 -0.627539 4.35651e-20)
(-0.0462776 -0.729631 0)
(-0.0201274 -0.437714 2.93439e-17)
(-0.127584 -0.740189 -2.79129e-16)
(0.512071 -0.627995 0)
(-0.0331081 -0.675004 -3.87167e-16)
(0.0381308 -0.74546 2.37506e-19)
(0.601637 -0.707736 -5.92663e-17)
(-0.0316393 -0.79248 -6.59388e-17)
(-0.387311 -0.701713 -2.67795e-16)
(0.42653 -0.504699 1.56981e-16)
(0.37931 -0.68334 2.74901e-16)
(0.292955 -0.574988 0)
(-0.488593 -0.593975 -2.69503e-16)
(0.156388 -0.295292 0)
(0.177157 -0.364958 -4.60455e-16)
(0.195961 -0.340608 -2.28908e-16)
(0.1643 -0.329487 -5.64797e-16)
(-0.421723 -0.707892 -8.72172e-18)
(0.632583 -0.583001 0)
(-0.166588 -0.30658 -3.72983e-20)
(-0.182217 -0.380975 5.0268e-16)
(0.593838 -0.808461 -1.36202e-16)
(-0.485344 -0.60441 2.71163e-16)
(-0.0533132 -0.807803 0)
(0.0164492 -0.400201 1.57694e-17)
(0.0257676 -0.712371 -1.09354e-19)
(0.465137 -0.405261 3.60901e-16)
(-0.0341589 -0.786908 6.57185e-17)
(0.00203486 -0.70086 0)
(-0.028548 -0.848412 1.50372e-16)
(0.13147 -0.0888733 -3.10209e-16)
(0.502877 -0.384951 0)
(-0.421928 -0.548926 -3.34077e-16)
(0.24121 -0.303314 1.10858e-16)
(-0.510351 -0.609084 -1.40944e-16)
(-0.416094 -0.336142 -1.91493e-16)
(-0.673689 -0.530051 -3.42859e-16)
(0.419507 -0.697626 1.36884e-16)
(-0.00911489 -0.716204 2.91537e-16)
(-0.513195 -0.801804 1.42085e-16)
(0.617227 -0.753524 2.61894e-16)
(0.0697002 -0.82682 0)
(0.597243 -0.642867 3.20083e-17)
(0.381339 -0.775337 1.48126e-16)
(-0.0141324 -0.672173 0)
(0.0121824 -0.647665 -3.58321e-16)
(-0.000148059 -0.709928 -6.33993e-16)
(0.39228 -0.788595 3.10672e-16)
(0.0066475 -0.880069 0)
(0.141632 -0.245003 2.06252e-16)
(0.418976 -0.564942 4.90239e-16)
(0.313508 -0.428338 -2.9907e-16)
(0.0107974 -0.71804 2.86406e-16)
(-0.203846 -0.257413 2.56201e-16)
(0.252469 -0.688946 -4.00729e-16)
(-0.133912 -0.230333 8.70867e-16)
(0.0867227 -0.269331 -5.88187e-16)
(0.135362 -0.2159 0)
(-0.627298 -0.778951 1.76993e-16)
(-0.10841 -0.23784 -6.64718e-16)
(0.0066311 -0.23628 0)
(-0.0245036 -0.863564 1.48201e-16)
(0.252531 -0.542611 -3.37638e-16)
(-0.267858 -0.589329 2.97378e-18)
(-0.0460478 -0.779397 2.85406e-16)
(-0.643958 -0.783326 2.12769e-18)
(-0.259394 -0.554983 3.16027e-16)
(0.0423127 -0.755148 1.43678e-16)
(0.513566 -0.655547 -8.66126e-17)
(0.370387 -0.632273 0)
(0.000168567 -0.703239 3.1586e-16)
(0.00870429 -0.704966 0)
(-0.0318679 -0.277778 -1.03881e-16)
(-0.420024 -0.759574 -2.74148e-16)
(-0.491738 -0.73631 -1.67896e-17)
(0.341847 -0.72561 1.63864e-16)
(-0.036717 -0.735193 0)
(-0.368773 -0.427418 0)
(-0.00690798 -0.701247 1.48359e-16)
(0.414139 -0.746019 2.63731e-16)
(0.00850301 -0.847264 0)
(0.208735 -0.379002 2.30368e-16)
(-0.0567173 -0.135233 5.25796e-16)
(0.273228 -0.458018 -4.36819e-16)
(0.440577 -0.540721 1.21197e-16)
(0.364756 -0.737802 1.09905e-16)
(0.55364 -0.68749 -3.15933e-17)
(0.402964 -0.649136 3.74419e-17)
(0.438513 -0.654841 -4.20447e-17)
(-0.0276247 -0.718752 3.24146e-16)
(0.0552954 -0.797152 0)
(-0.331562 -0.683498 -8.23478e-17)
(-0.223131 -0.501044 0)
(-0.00924917 -0.704769 3.30603e-16)
(0.261905 -0.515208 -3.94871e-16)
(0.21705 -0.378372 0)
(0.353916 -0.6918 -3.71588e-17)
(0.0388587 -0.717331 3.60697e-16)
(0.174953 -0.380005 0)
(-0.329282 -0.712452 1.51699e-16)
(0.171366 -0.696621 2.78985e-16)
(0.629697 -0.714036 6.64123e-17)
(-0.404289 -0.799246 -3.22042e-16)
(-0.335307 -0.722734 0)
(-0.384026 -0.749011 3.687e-16)
(-0.34512 -0.739355 0)
(0.0531937 -0.783909 1.61067e-16)
(0.0718766 -0.141069 4.9659e-16)
(-0.384811 -0.778605 -3.64296e-16)
(-0.336694 -0.506227 0)
(0.303027 -0.543037 -3.66854e-16)
(-0.0157347 -0.712132 -3.29748e-16)
(0.319599 -0.649856 -1.18205e-18)
(-0.320766 -0.613764 -3.66904e-16)
(-0.148408 -0.279711 0)
(-0.323385 -0.708446 0)
(-0.272296 -0.516785 0)
(0.00754656 -0.658915 0)
(0.138957 -0.275549 -5.48502e-16)
(-0.54925 -0.669606 0)
(-0.273051 -0.547546 7.51957e-16)
(-0.0477804 -0.638769 4.14362e-16)
(0.387914 -0.770345 0)
(-0.339387 -0.717917 0)
(0.479943 -0.75025 0)
(-0.28439 -0.361222 -1.87493e-16)
(0.110081 -0.130889 -6.19991e-16)
(0.125817 -0.246625 -5.73008e-16)
(-0.418771 -0.765737 -8.62431e-18)
(-0.0554919 -0.746346 3.27937e-16)
(-0.135152 -0.775039 3.03632e-16)
(0.0663065 -0.771619 3.00254e-16)
(-0.0831366 -0.0966369 2.71184e-16)
(0.517834 -0.776308 0)
(0.514731 -0.795955 0)
(0.494951 -0.730845 0)
(-0.0826455 -0.155118 0)
(0.391641 -0.612981 -5.46399e-18)
(2.49984e-05 -0.223943 0)
(-0.335562 -0.692174 -3.09034e-16)
(0.000458867 -0.397491 0)
(-0.349257 -0.638024 -2.70936e-18)
(0.0510657 -0.649157 0)
(-0.0419127 -0.805812 0)
(0.346296 -0.51056 -3.59422e-16)
(0.174324 -0.317953 0)
(-0.187054 -0.287856 0)
(-0.124832 -0.239052 -9.41349e-18)
(-0.294549 -0.545011 0)
(-0.0120678 -0.728446 0)
(-0.00102199 -0.735949 -3.02797e-16)
(-0.303444 -0.646993 4.31242e-17)
(0.195394 -0.30001 5.08422e-16)
(-0.0149941 -0.657268 0)
(-0.170387 -0.317126 4.22567e-18)
(-0.272228 -0.591002 -4.93995e-16)
(-0.215303 -0.494907 0)
(0.0110391 -0.72991 5.61219e-16)
(-0.401151 -0.577786 0)
(-0.0266601 -0.460785 -3.36072e-16)
(0.170572 -0.234362 -3.99759e-16)
(-0.415844 -0.791415 3.0953e-16)
(-0.448837 -0.769867 0)
(-0.0140727 -0.402751 0)
(0.448751 -0.763817 0)
(0.332571 -0.53687 -3.49348e-16)
(0.270426 -0.387527 -4.65006e-16)
(-0.314163 -0.552835 2.69e-18)
(-0.202194 -0.38629 -4.76292e-16)
(-0.00737523 -0.780187 -5.00618e-16)
(0.0369551 -0.561342 -3.9523e-16)
(-0.0370343 -0.550611 4.3744e-16)
(-0.3267 -0.537881 0)
(0.316193 -0.549498 0)
(0.0295225 -0.471855 0)
(0.0259758 -0.746923 -2.91228e-16)
(0.12615 -0.45054 4.47408e-16)
(-0.0198676 -0.774817 5.15509e-16)
(-0.00333933 -0.750068 1.50793e-16)
(0.357919 -0.643628 6.87148e-16)
(-0.387817 -0.616359 0)
(-0.599001 -0.641836 -2.46907e-18)
(0.474525 -0.787278 0)
(-0.144406 -0.191767 -6.85735e-16)
(-0.222869 -0.442978 -3.8832e-16)
(-0.476992 -0.796344 0)
(-0.364674 -0.734355 0)
(0.00874412 -0.762566 -1.45862e-16)
(-0.307128 -0.600283 0)
(0.0368606 -0.766351 -3.24307e-16)
(-0.370378 -0.636795 0)
(0.374941 -0.635765 1.34999e-18)
(-0.444957 -0.799148 2.90279e-16)
(-0.110695 -0.218018 0)
(0.442755 -0.788969 -2.95563e-16)
(-0.333012 -0.628848 3.58221e-16)
(0.241912 -0.478579 7.48936e-16)
(0.187766 -0.317861 5.39877e-16)
(-0.181276 -0.324945 0)
(-0.240536 -0.468951 5.92928e-18)
(0.00223232 -0.805493 2.78255e-16)
(0.0280742 -0.372447 0)
(-0.0242247 -0.365635 -3.84687e-16)
(-0.00210363 -0.220877 -4.51666e-16)
(-0.0750205 -0.240698 0)
(0.0352681 -0.255536 4.4018e-16)
(-0.0688748 -0.131597 8.07607e-18)
(0.243122 -0.54801 0)
(-0.250217 -0.557715 0)
(0.101687 -0.154619 4.48967e-16)
(0.101563 -0.175415 4.75583e-16)
(-0.102649 -0.177334 -4.69559e-16)
(0.045822 -0.745987 -3.00517e-16)
(0.223622 -0.447098 0)
(-0.0910415 -0.170573 -4.7174e-16)
(0.0936525 -0.157564 4.80851e-16)
(-0.00970396 -0.794776 -7.1442e-17)
(-0.158057 -0.298655 -8.59544e-18)
(-0.0207653 -0.327867 -7.79352e-16)
(0.0777078 -0.163196 4.81324e-16)
(-0.076909 -0.145423 0)
(-0.0467039 -0.444136 0)
(-0.0916454 -0.129283 0)
(-0.0351911 -0.837349 1.38529e-16)
(0.00648823 -0.776219 0)
(-0.353539 -0.749531 4.89844e-18)
(0.0550572 -0.670424 3.02073e-16)
(0.0938784 -0.19728 0)
(0.00657944 -0.210989 0)
(0.314581 -0.696294 2.97932e-16)
(-0.00285739 -0.39825 5.29978e-16)
(-0.515696 -0.786836 -1.36652e-16)
(0.103083 -0.164495 4.75825e-16)
(0.0417222 -0.440649 -5.11454e-16)
(0.110692 -0.219008 -6.11995e-16)
(-0.0984643 -0.177587 -3.68493e-18)
(0.0160981 -0.326549 7.85912e-16)
(0.0263529 -0.514232 -8.99258e-16)
(-0.240339 -0.672203 5.92898e-16)
(0.291952 -0.587247 -3.07317e-16)
(0.205957 -0.448069 0)
(0.0523738 -0.102731 5.46605e-16)
(-0.00837809 -0.227063 7.0889e-18)
(0.036739 -0.112956 0)
(-0.0374801 -0.113967 0)
(-0.356496 -0.739443 0)
(0.250071 -0.518701 0)
(-0.000139694 -0.818009 -1.39002e-16)
(0.0228158 -0.762626 -1.51904e-16)
(-0.0142533 -0.832146 2.73258e-16)
(-0.0407786 -0.819192 1.58129e-16)
(-0.0525704 -0.102598 -2.67244e-19)
(-0.187406 -0.318364 0)
(-0.0218618 -0.854401 2.74129e-16)
(0.180875 -0.322925 -4.24319e-18)
(-0.0245971 -0.832245 -1.3789e-16)
(0.010164 -0.832525 0)
(0.0185458 -0.796156 1.41457e-16)
(-0.0142915 -0.84487 1.36243e-16)
(-0.136434 -0.260464 0)
(0.0615348 -0.121409 -4.12136e-18)
(-0.0617493 -0.119094 -5.30474e-16)
(-0.0053068 -0.189374 2.51627e-16)
(-0.010898 -0.403492 2.24745e-16)
(0.316529 -0.679208 3.44607e-16)
(-0.36916 -0.757475 0)
(-0.038958 -0.823353 -2.42146e-16)
(-0.102653 -0.163061 -4.76294e-16)
(0.0110673 -0.248913 2.20512e-16)
(0.0261024 -0.467385 -2.77299e-16)
(0.0983045 -0.177362 0)
(0.326442 -0.711344 -6.73231e-16)
(0.0113172 -0.426077 8.85213e-16)
(0.0115155 -0.453589 -1.10334e-16)
(-0.0293145 -0.845868 -2.80066e-16)
(-0.321307 -0.683897 0)
(0.00657121 -0.269103 -4.0846e-16)
(0.0049558 -0.221162 -4.56614e-16)
(0.0165085 -0.303841 3.93676e-16)
(-0.00550557 -0.282906 -3.84347e-16)
(0.333592 -0.712427 -7.77869e-20)
(-0.0102531 -0.751026 0)
(-0.00539119 -0.858239 -6.71273e-17)
(-0.0048446 -0.848143 -2.01878e-16)
(0.272537 -0.55191 0)
(0.00155169 -0.875249 0)
(0.000246677 -0.871828 -1.37983e-16)
(-0.250945 -0.516844 -1.52283e-18)
(-0.0144827 -0.868511 -3.41187e-16)
(0.0213121 -0.839377 -2.88579e-16)
(-0.350315 -0.711984 0)
(-0.0947326 -0.197595 3.15043e-19)
(-0.206592 -0.447107 0)
(-0.0204673 -0.863185 4.07932e-16)
(-0.289955 -0.573515 0)
(0.00712218 -0.842878 -2.72158e-16)
(-0.0253985 -0.817444 2.77975e-16)
(-0.0121014 -0.867169 7.17873e-17)
(-0.0180052 -0.757437 -3.67019e-16)
(0.0150715 -0.855627 2.53016e-16)
(-0.480925 -0.759433 0)
(-0.280964 -0.528776 0)
(0.420672 -0.763657 -3.056e-16)
(0.0117215 -0.865717 -3.81256e-16)
(-0.0259406 -0.73627 -7.62695e-17)
(-0.511204 -0.73364 0)
(0.00168206 -0.864671 1.37019e-16)
(0.0222647 -0.856508 -7.05433e-17)
(-0.255985 -0.495523 0)
(-0.011525 -0.87618 6.8037e-17)
(0.0371317 -0.807757 5.29498e-20)
(0.0256352 -0.8455 2.16489e-16)
(0.00514009 -0.760278 0)
(-0.0402489 -0.818283 0)
(0.0249365 -0.826897 0)
(0.0152497 -0.808102 -2.80771e-16)
(-0.000975408 -0.878303 3.91845e-16)
(0.000152789 -0.675147 -9.3639e-18)
(-0.00626437 -0.877155 1.95605e-20)
(0.363384 -0.580477 0)
(0.170784 -0.664855 -1.76284e-16)
(-0.0491169 -0.118939 -2.69483e-16)
(0.0491669 -0.112169 -2.78773e-16)
(-0.0525803 -0.124538 -2.64745e-16)
(0.0541341 -0.127194 3.99856e-16)
(0.0686547 -0.123127 0)
(-0.0734581 -0.126859 1.30902e-16)
(-0.00174274 -0.872267 0)
(0.091607 -0.179452 0)
(-0.0911199 -0.187427 0)
(-0.00349268 -0.881139 -1.31536e-16)
(-0.134559 -0.234188 -1.58241e-16)
(0.206031 -0.313965 3.41218e-16)
(-0.200477 -0.307611 -9.74509e-17)
(-0.00731565 -0.859836 -7.29976e-17)
(-0.13838 -0.110931 0)
(-0.000460686 -0.878 2.72106e-16)
(0.0461822 -0.117897 0)
(-0.00311689 -0.880048 1.37304e-16)
(0.00459898 -0.758292 0)
(-0.00787503 -0.872377 7.21624e-17)
(0.26475 -0.691202 6.38849e-16)
(0.0422738 -0.790734 1.24605e-16)
(-0.47995 -0.389537 0)
(0.332137 -0.704686 -3.39388e-16)
(-0.38673 -0.261725 1.79681e-16)
(-0.628699 -0.594288 4.04906e-16)
(0.195116 -0.716763 -1.51268e-16)
(-0.623305 -0.742353 -1.43117e-16)
(0.375379 -0.249292 1.69852e-16)
(-0.0305036 -0.754403 3.78475e-16)
(-0.104604 -0.248811 0)
(0.105303 -0.240202 3.05073e-16)
(-0.178822 -0.473724 1.98167e-16)
(-0.00195022 -0.70074 -5.9451e-16)
(0.107387 -0.252262 -1.55775e-16)
(-0.11142 -0.253096 0)
(0.0234957 -0.831719 1.37229e-16)
(0.00808207 -0.855184 -2.6953e-16)
(-0.00660957 -0.804066 -4.47334e-16)
(-0.0318302 -0.225265 1.39171e-16)
(-0.206833 -0.386173 0)
(-0.265034 -0.44568 -5.71035e-17)
(0.0952102 -0.234262 0)
(0.00659895 -0.700762 0)
(0.0968095 -0.675054 0)
(0.0578971 -0.73992 -3.12336e-16)
(0.330841 -0.688758 0)
(-0.62293 -0.673423 -2.29259e-16)
(0.0689768 -0.495261 2.81568e-16)
(0.672527 -0.516245 0)
(0.0187766 -0.85776 -1.58866e-16)
(0.0330858 -0.603869 -9.49955e-17)
(-0.0116949 -0.366467 0)
(-0.639664 -0.733825 1.01554e-18)
(0.00932797 -0.381622 0)
(-0.0511075 -0.358916 4.04622e-16)
(-0.0779535 -0.738626 0)
(-0.0202021 -0.703179 -1.64392e-16)
(-0.0504034 -0.716711 -8.28671e-17)
(0.580381 -0.587828 -2.01915e-16)
(-0.148693 -0.587397 1.94318e-16)
(0.0544573 -0.817917 7.12298e-17)
(0.14488 -0.759466 0)
(-0.0501404 -0.64432 8.30176e-17)
(-0.251533 -0.716015 -8.0281e-17)
(-0.014157 -0.836375 0)
(-0.258505 -0.58073 -1.88038e-16)
(-0.21533 -0.653705 -1.67722e-16)
(0.0901133 -0.781951 3.55572e-16)
(0.305732 -0.628832 1.81684e-16)
(-0.315236 -0.645877 -1.73099e-16)
(0.402283 -0.786175 -1.97498e-16)
(-0.0544435 -0.809195 0)
(-0.361788 -0.755526 3.69208e-16)
(-0.00341524 -0.208434 0)
(0.399629 -0.778829 -8.55162e-20)
(-0.405076 -0.766483 1.84057e-16)
(-0.339168 -0.721248 0)
(0.317503 -0.69505 -1.37469e-16)
(0.105613 -0.23697 0)
(-0.0422293 -0.808206 0)
(0.0530355 -0.132091 3.2931e-17)
(0.335755 -0.726912 1.63431e-16)
(-0.538763 -0.697317 1.29114e-16)
(0.00440902 -0.878785 -2.72919e-16)
(0.614254 -0.636255 1.53464e-16)
(0.0165685 -0.699744 0)
(-0.0531144 -0.131359 0)
(0.364357 -0.754105 -2.56046e-16)
(0.276005 -0.589215 3.51218e-16)
(-0.189655 -0.751305 1.50145e-16)
(0.208053 -0.486483 1.48976e-18)
(-0.0951749 -0.75146 -3.09209e-16)
(-0.163623 -0.722128 1.67714e-16)
(0.0412911 -0.819561 0)
(0.0647905 -0.798769 -7.8785e-17)
(0.0271415 -0.783165 1.07866e-16)
(-0.558051 -0.767764 2.70966e-16)
(-0.0283148 -0.845327 -2.26173e-16)
(0.0128612 -0.6691 -3.72863e-16)
(-0.406875 -0.526365 1.79303e-16)
(-0.336216 -0.452788 -3.54366e-16)
(0.00390605 -0.22745 0)
(-0.400806 -0.780738 0)
(-0.0175306 -0.702325 0)
(-0.392006 -0.748891 -1.4134e-16)
(0.0149637 -0.700218 1.46746e-16)
(-0.420473 -0.79377 -2.68472e-16)
(-0.0320833 -0.706782 0)
(-0.0555212 -0.653071 -1.93094e-16)
(0.239279 -0.587543 1.72641e-16)
(-0.00609483 -0.880476 0)
(-0.388544 -0.669297 0)
(0.13956 -0.643845 -3.65883e-16)
(-0.147285 -0.166012 -9.35125e-16)
(-0.0960631 -0.812295 3.72771e-17)
(0.0997655 -0.252003 -3.53073e-16)
(-0.0114415 -0.876101 -2.1264e-16)
(0.420873 -0.599787 -1.69379e-16)
(-0.109196 -0.263997 3.02067e-16)
(0.147749 -0.162683 0)
(-0.0746062 -0.794779 3.09499e-16)
(0.346674 -0.71136 -1.87685e-17)
(0.0223756 -0.833335 -3.73805e-17)
(-0.0246932 -0.268196 -2.23334e-16)
(-0.0648508 -0.0776855 -5.40089e-16)
(-0.0656687 -0.764044 -4.37536e-17)
(0.00766425 -0.863385 4.29606e-16)
(0.387534 -0.733416 -1.32394e-19)
(0.338815 -0.728476 2.94551e-16)
(0.0550362 -0.0593051 5.68019e-16)
(0.291413 -0.366535 -1.92305e-16)
(0.341353 -0.409106 5.3476e-17)
(-0.0159161 -0.845083 0)
(0.0204436 -0.868077 4.13821e-16)
(-0.534941 -0.671633 0)
(0.0104106 -0.868374 4.08941e-16)
(-0.061686 -0.796142 -3.00534e-16)
(0.246147 -0.564064 -1.91849e-16)
(0.0127182 -0.843458 -1.64837e-16)
(0.00145344 -0.441976 5.61016e-16)
(-0.0334615 -0.717969 1.647e-16)
(-0.586846 -0.81745 -2.49513e-16)
(-0.00157199 -0.442087 0)
(-0.570224 -0.715035 -5.01064e-17)
(0.350495 -0.733443 1.87439e-17)
(0.0743321 -0.793443 -3.11178e-16)
(-0.0520279 -0.790027 0)
(-0.102447 -0.254566 6.28841e-16)
(-0.0343668 -0.753773 -1.59477e-16)
(-0.366208 -0.764744 3.16151e-16)
(-0.0233596 -0.729707 -2.93428e-16)
(0.0225083 -0.730879 7.31445e-17)
(0.412511 -0.778809 1.49816e-16)
(-0.0349697 -0.818104 -7.60814e-17)
(0.2005 -0.46862 4.20131e-16)
(0.036082 -0.832068 0)
(-0.473127 -0.654418 9.46962e-17)
(-0.0745996 -0.797866 1.27465e-16)
(-0.226831 -0.504782 -1.82657e-16)
(0.054791 -0.796664 -7.8941e-17)
(-0.218487 -0.495166 -1.95279e-16)
(-0.0783298 -0.773204 -1.25751e-16)
(0.0312146 -0.770891 3.59224e-17)
(0.282157 -0.619666 0)
(0.0320494 -0.695001 9.48997e-17)
(-0.265529 -0.562156 1.08432e-16)
(-0.293665 -0.627591 -4.02516e-16)
(-0.00184242 -0.445273 0)
(0.394544 -0.755371 -1.51149e-16)
(0.268355 -0.556723 -2.09933e-16)
(0.0070304 -0.714976 2.68891e-16)
(0.0790993 -0.77012 -1.55932e-16)
(-0.00625856 -0.867101 -7.14331e-17)
(0.19684 -0.498435 -3.38944e-16)
(-0.00429117 -0.876822 -3.55427e-16)
(0.197227 -0.456677 2.78101e-17)
(0.314344 -0.668943 -1.81309e-16)
(0.0334432 -0.817983 0)
(0.0133209 -0.741954 4.47695e-17)
(0.0565344 -0.745013 -2.29633e-17)
(0.584408 -0.753662 6.98069e-17)
(-0.0352161 -0.724097 1.8167e-16)
(0.385993 -0.548928 5.91583e-17)
(0.420211 -0.783428 1.56766e-16)
(-0.0373533 -0.48101 6.95184e-16)
(0.0236667 -0.842046 1.52046e-16)
(0.154892 -0.766565 1.65562e-16)
(-0.171181 -0.231607 0)
(0.00306207 -0.621869 -2.06706e-16)
(-0.272076 -0.592783 1.9581e-16)
(-0.33876 -0.40455 2.00937e-16)
(-0.0504211 -0.701882 1.91678e-16)
(0.0518857 -0.704961 -1.87011e-16)
(0.10073 -0.785492 0)
(0.170273 -0.243306 -6.78332e-16)
(0.242764 -0.538522 -2.58384e-16)
(0.0916635 -0.722837 0)
(-0.027906 -0.84495 -1.54692e-16)
(-0.00763272 -0.726986 3.58783e-17)
(-0.34952 -0.616828 1.65302e-16)
(0.654516 -0.764885 -2.25506e-16)
(0.243069 -0.551454 -1.26893e-17)
(0.4881 -0.567045 1.67394e-16)
(-0.392071 -0.747186 -3.80977e-16)
(0.317706 -0.688005 0)
(-0.571636 -0.761724 0)
(0.314585 -0.589717 0)
(-0.039245 -0.854254 1.47925e-16)
(0.518192 -0.738188 0)
(0.00443865 -0.874051 -2.5275e-16)
(0.0295018 -0.831772 1.69185e-16)
(-0.062359 -0.794955 -4.75197e-17)
(-0.0588308 -0.777581 -1.89877e-16)
(-0.374894 -0.541456 1.17958e-16)
(0.207028 -0.461515 1.04024e-19)
(-0.0956912 -0.788755 -4.51134e-17)
(0.0939146 -0.784786 5.45237e-16)
(0.00319649 -0.80356 -8.30405e-17)
(0.0311037 -0.713409 -9.02815e-20)
(-0.0662452 -0.830944 -3.693e-17)
(-0.0828118 -0.765651 4.65518e-17)
(0.0794974 -0.761502 -2.95202e-16)
(-0.34813 -0.732345 0)
(-0.403267 -0.618198 0)
(0.431756 -0.501372 -2.27484e-16)
(-0.0757781 -0.815887 0)
(-0.486055 -0.65441 -8.38723e-17)
(-0.00388668 -0.812458 0)
(-0.502917 -0.631008 2.40207e-17)
(-0.410437 -0.494517 2.08753e-16)
)
;

boundaryField
{
    front
    {
        type            empty;
    }
    back
    {
        type            empty;
    }
    bottom
    {
        type            zeroGradient;
    }
    left
    {
        type            noSlip;
    }
    top
    {
        type            uniformFixedValue;
        uniformValue    
        {
            type            scale;
            scale           
            {
                type            squarePulse;
                start           0.3;
                duration        0.3;
            }
            xScale          
            {
                type            constant;
                value           1;
            }
            value           
            {
                type            constant;
                value           (0 -0.7 0);
            }
        }
        value           uniform (0 -0.7 0);
    }
    right
    {
        type            noSlip;
    }
    inner_arc
    {
        type            noSlip;
    }
}


// ************************************************************************* //
