/*--------------------------------*- C++ -*----------------------------------*\
  =========                 |
  \\      /  F ield         | OpenFOAM: The Open Source CFD Toolbox
   \\    /   O peration     | Website:  https://openfoam.org
    \\  /    A nd           | Version:  9
     \\/     M anipulation  |
\*---------------------------------------------------------------------------*/
FoamFile
{
    format      ascii;
    class       volScalarField;
    location    "0.82";
    object      p;
}
// * * * * * * * * * * * * * * * * * * * * * * * * * * * * * * * * * * * * * //

dimensions      [0 2 -2 0 0 0 0];

internalField   nonuniform List<scalar> 
90
(
-5.68418e-23
-1.45403e-23
4.71613e-22
1.36816e-21
4.57746e-22
-1.04462e-21
1.3869e-23
-1.4749e-22
-2.40232e-22
-1.20053e-22
6.5745e-23
-1.54227e-22
-1.45187e-22
6.1014e-22
-3.74454e-22
-2.69467e-21
2.90882e-21
-5.32342e-22
-6.10948e-22
-8.56743e-23
-5.58044e-23
-6.96693e-23
2.09331e-23
1.12108e-22
-3.18902e-23
2.93825e-22
-2.94315e-22
1.20919e-22
3.83805e-22
-1.83607e-22
-1.26509e-22
5.02385e-22
3.32083e-22
2.08328e-22
3.01646e-22
-2.66155e-21
-1.1669e-22
4.23572e-21
3.55173e-22
-1.70789e-22
-2.60486e-22
-3.30911e-22
5.63024e-22
-2.68465e-23
-6.6221e-24
5.54294e-22
-2.54103e-22
-9.93571e-22
-5.33255e-22
7.50004e-22
-7.41805e-23
-1.64048e-22
-2.13564e-22
4.33853e-22
-2.56892e-22
-6.9772e-22
5.12721e-24
-5.3332e-23
-5.0172e-23
6.03518e-22
-2.35649e-22
6.37108e-22
8.773e-22
2.44069e-23
-4.35477e-22
-2.22714e-22
5.40272e-22
6.30442e-22
3.56189e-21
1.30942e-22
-1.26282e-21
-1.29228e-22
5.17183e-22
-1.16373e-21
-2.47255e-21
-2.53415e-22
-1.36249e-22
3.89233e-22
6.87896e-23
1.26541e-23
4.19117e-21
-1.5184e-23
-6.26564e-23
-2.28631e-21
9.6412e-23
8.91732e-22
-6.18954e-23
-1.04737e-22
-1.55781e-21
-2.51462e-22
)
;

boundaryField
{
    back
    {
        type            empty;
    }
    front
    {
        type            empty;
    }
    bottom
    {
        type            zeroGradient;
    }
    outer_arc
    {
        type            zeroGradient;
    }
    right
    {
        type            uniformFixedValue;
        uniformValue    
        {
            type            scale;
            scale           
            {
                type            squarePulse;
                start           0.3;
                duration        0.3;
            }
            xScale          
            {
                type            constant;
                value           1;
            }
            value           
            {
                type            constant;
                value           15.1;
            }
        }
        value           uniform 0;
    }
    inner_arc
    {
        type            zeroGradient;
    }
}


// ************************************************************************* //
