/*--------------------------------*- C++ -*----------------------------------*\
  =========                 |
  \\      /  F ield         | OpenFOAM: The Open Source CFD Toolbox
   \\    /   O peration     | Website:  https://openfoam.org
    \\  /    A nd           | Version:  9
     \\/     M anipulation  |
\*---------------------------------------------------------------------------*/
FoamFile
{
    format      ascii;
    class       surfaceScalarField;
    location    "0.82";
    object      phi;
}
// * * * * * * * * * * * * * * * * * * * * * * * * * * * * * * * * * * * * * //

dimensions      [0 3 -1 0 0 0 0];

internalField   nonuniform List<scalar> 
122
(
-2.72067e-30
4.39428e-30
-3.5393e-30
6.5757e-29
-3.40056e-29
-2.80468e-29
-4.5194e-29
5.61078e-29
2.04127e-29
-2.12881e-29
5.44385e-29
1.63138e-28
-1.49332e-28
-2.83028e-30
4.49189e-31
2.71537e-30
-3.55186e-29
2.75646e-29
-2.466e-29
1.05419e-30
-4.97238e-31
7.64606e-30
5.03376e-30
-1.31198e-29
-4.67666e-29
8.56131e-29
-1.19765e-29
7.89255e-29
-4.09867e-29
-5.66729e-29
-9.18349e-30
1.82707e-29
-2.19124e-29
-3.18354e-29
-4.99518e-30
-4.13172e-30
8.40623e-31
1.06879e-29
-1.34528e-29
-9.09971e-30
1.65355e-30
-8.90207e-30
2.06186e-30
-7.19859e-30
-1.31464e-29
7.82563e-30
8.64844e-30
-2.65811e-30
-1.02169e-30
-5.47718e-30
-7.9949e-30
-2.17475e-30
9.9685e-30
-5.66704e-29
5.64719e-29
-2.28288e-30
-8.47313e-30
-8.72245e-30
-2.6567e-30
1.93876e-31
5.7407e-30
2.02032e-30
-2.35521e-29
-2.49712e-29
3.24687e-29
3.28071e-30
-1.24991e-29
3.18138e-30
-2.9167e-30
1.84932e-30
1.72945e-29
4.51997e-30
-3.47929e-29
9.25467e-30
3.1268e-30
5.92257e-31
-2.22933e-30
-4.29233e-30
3.04269e-29
-1.71719e-29
-4.0665e-30
-4.30904e-31
-3.05651e-29
-3.55198e-30
-6.02894e-30
1.26791e-29
2.72707e-30
7.28136e-30
1.58458e-29
-5.0007e-29
2.44161e-31
-1.064e-29
7.5694e-30
-9.37909e-30
4.64414e-30
-2.42233e-30
6.4455e-30
-1.61154e-30
-5.20321e-31
-4.91039e-30
5.97104e-30
1.42187e-29
3.18337e-29
8.79332e-30
1.08699e-29
2.89844e-29
1.77688e-30
1.87636e-29
-1.3153e-29
-1.79534e-29
8.78434e-29
-8.61388e-29
-4.72577e-29
5.46627e-29
7.14968e-30
1.09037e-29
-5.34666e-29
-3.75862e-30
3.95598e-30
-4.66343e-30
-2.69794e-29
2.44497e-30
)
;

boundaryField
{
    back
    {
        type            empty;
        value           nonuniform List<scalar> 0();
    }
    front
    {
        type            empty;
        value           nonuniform List<scalar> 0();
    }
    bottom
    {
        type            calculated;
        value           uniform 0;
    }
    outer_arc
    {
        type            calculated;
        value           uniform 0;
    }
    right
    {
        type            calculated;
        value           nonuniform List<scalar> 4(4.21013e-30 9.79308e-30 1.16283e-29 1.22873e-29);
    }
    inner_arc
    {
        type            calculated;
        value           uniform 0;
    }
}


// ************************************************************************* //
