/*--------------------------------*- C++ -*----------------------------------*\
  =========                 |
  \\      /  F ield         | OpenFOAM: The Open Source CFD Toolbox
   \\    /   O peration     | Website:  https://openfoam.org
    \\  /    A nd           | Version:  9
     \\/     M anipulation  |
\*---------------------------------------------------------------------------*/
FoamFile
{
    format      ascii;
    class       volVectorField;
    location    "0.82";
    object      U;
}
// * * * * * * * * * * * * * * * * * * * * * * * * * * * * * * * * * * * * * //

dimensions      [0 1 -1 0 0 0 0];

internalField   nonuniform List<vector> 
90
(
(-6.37191e-23 3.74215e-23 1.72136e-39)
(-7.80825e-22 -1.16006e-21 -5.64991e-38)
(5.57652e-22 9.81466e-22 4.77137e-38)
(1.22382e-21 -9.64158e-23 -4.72538e-38)
(-2.20228e-21 -2.86946e-21 -1.22411e-37)
(-6.43058e-22 -5.82958e-22 4.4887e-38)
(2.13366e-23 -3.77347e-23 -1.85778e-39)
(-6.11096e-23 1.78409e-23 -9.04939e-39)
(3.97422e-24 5.6432e-22 0)
(-1.43746e-23 -4.08874e-23 0)
(2.45177e-22 -2.3367e-23 7.85247e-39)
(3.97899e-22 1.74224e-21 -8.99576e-39)
(-8.30236e-24 1.40394e-22 -1.81364e-39)
(7.14219e-22 -1.2976e-22 2.0669e-39)
(1.86704e-22 1.75469e-21 0)
(-8.28337e-22 -1.94697e-22 0)
(-1.2719e-21 -1.12996e-21 1.57669e-37)
(-8.44688e-22 4.46976e-22 2.21763e-38)
(-2.17243e-22 -8.10852e-22 0)
(-4.37313e-23 1.02846e-22 9.06619e-41)
(2.42106e-22 1.43955e-22 -6.60515e-39)
(4.31105e-23 -1.34113e-22 -7.90037e-39)
(2.02959e-22 5.06063e-23 1.02424e-38)
(1.78037e-22 -7.52574e-23 -1.33885e-39)
(3.89421e-23 -1.95291e-22 4.95119e-39)
(1.83692e-22 -1.30451e-22 -7.60427e-39)
(3.32047e-23 -7.50549e-23 9.94216e-39)
(-8.597e-23 -9.18053e-23 -5.26186e-39)
(5.73165e-22 5.80817e-22 0)
(-1.60641e-22 -2.82755e-23 9.1813e-39)
(-3.32111e-23 1.46668e-22 -5.87681e-39)
(2.50602e-22 9.11522e-23 3.09202e-38)
(1.85671e-22 3.79159e-23 8.1972e-39)
(3.57981e-23 -6.47722e-23 -1.55645e-38)
(3.61814e-22 -1.35569e-22 4.68144e-39)
(3.35132e-22 2.18945e-21 6.31249e-38)
(-6.51109e-22 -2.87159e-22 0)
(-2.85137e-22 2.64395e-22 0)
(1.21198e-22 5.51505e-23 -8.09243e-39)
(5.01503e-23 5.20828e-23 -2.55392e-39)
(7.75095e-24 3.07966e-23 5.25937e-39)
(-1.21934e-22 2.46846e-22 2.52268e-38)
(7.85739e-22 -4.79102e-22 3.07372e-39)
(6.35262e-23 5.24576e-23 2.00516e-39)
(2.23819e-22 1.58494e-23 4.98143e-40)
(-7.95852e-23 -5.38398e-22 -2.15712e-38)
(-6.50694e-23 -1.06128e-23 -6.41606e-39)
(-7.57401e-22 2.93159e-22 -2.60376e-38)
(1.63542e-22 9.1595e-24 2.81563e-38)
(1.18444e-22 7.31834e-22 -3.0291e-39)
(-1.03582e-23 -1.5072e-23 0)
(-9.7457e-23 -9.52979e-23 7.81254e-39)
(2.04262e-22 9.45767e-22 6.39192e-41)
(1.92369e-22 -2.12214e-24 0)
(-1.69426e-22 -5.17354e-23 -1.58501e-38)
(-3.23354e-23 1.98621e-22 2.68603e-40)
(2.43633e-22 2.86082e-23 -2.76666e-40)
(4.71191e-22 -9.14584e-23 0)
(1.14742e-22 1.63285e-24 0)
(1.04585e-22 1.4017e-22 -3.42856e-38)
(-5.57745e-22 5.93279e-23 -1.64811e-38)
(-2.25058e-22 -9.76122e-23 0)
(1.16724e-22 1.55416e-22 -4.09986e-38)
(-2.58935e-22 -2.69558e-22 3.25042e-39)
(-2.602e-22 -4.45657e-22 -2.8513e-38)
(3.32177e-22 2.88e-22 -8.35859e-39)
(1.39847e-22 3.55038e-22 0)
(2.48723e-22 -4.44248e-22 0)
(1.33049e-21 8.65495e-23 -1.53747e-38)
(2.58453e-21 -9.87693e-22 -3.88546e-38)
(-1.54328e-21 6.87503e-22 0)
(-3.80839e-23 -1.15949e-22 -6.22912e-39)
(1.09345e-22 3.32062e-22 0)
(3.30182e-22 -5.63282e-22 -8.62037e-38)
(5.72738e-22 -3.24622e-22 3.92293e-38)
(-2.02109e-22 -1.72246e-22 8.54885e-39)
(-1.13831e-22 -3.44947e-23 1.28797e-39)
(5.861e-22 -4.16047e-22 0)
(8.96315e-23 2.08976e-22 8.99555e-39)
(4.99589e-23 -9.39046e-24 -3.01762e-39)
(1.45122e-21 -2.22078e-22 -1.74678e-37)
(2.17622e-22 1.36393e-23 -1.86117e-40)
(1.71532e-22 -3.15103e-22 9.88841e-39)
(-1.99092e-21 2.88494e-22 -6.04592e-38)
(2.33681e-22 -4.19593e-22 -3.16871e-39)
(2.92131e-22 -8.42642e-22 2.52687e-38)
(5.46024e-23 2.65437e-23 -2.70469e-39)
(-1.61101e-22 6.0377e-23 4.0897e-40)
(-2.50158e-22 -6.49157e-22 1.4885e-37)
(-2.5044e-22 -1.45571e-22 6.03246e-39)
)
;

boundaryField
{
    back
    {
        type            empty;
    }
    front
    {
        type            empty;
    }
    bottom
    {
        type            uniformFixedValue;
        uniformValue    
        {
            type            scale;
            scale           
            {
                type            squarePulse;
                start           0.3;
                duration        0.3;
            }
            xScale          
            {
                type            constant;
                value           1;
            }
            value           
            {
                type            constant;
                value           (0 0.7 0);
            }
        }
        value           uniform (0 0 0);
    }
    outer_arc
    {
        type            noSlip;
    }
    right
    {
        type            zeroGradient;
    }
    inner_arc
    {
        type            noSlip;
    }
}


// ************************************************************************* //
