/*--------------------------------*- C++ -*----------------------------------*\
  =========                 |
  \\      /  F ield         | OpenFOAM: The Open Source CFD Toolbox
   \\    /   O peration     | Website:  https://openfoam.org
    \\  /    A nd           | Version:  9
     \\/     M anipulation  |
\*---------------------------------------------------------------------------*/
FoamFile
{
    format      ascii;
    class       volScalarField;
    location    "0.31";
    object      p;
}
// * * * * * * * * * * * * * * * * * * * * * * * * * * * * * * * * * * * * * //

dimensions      [0 2 -2 0 0 0 0];

internalField   nonuniform List<scalar> 
578
(
15.2266
15.307
15.2379
15.4671
15.0971
15.3566
15.1147
15.0679
15.1386
15.2852
15.3753
15.0806
15.5237
15.1098
15.1437
15.2296
15.6054
15.3694
15.081
15.1551
15.4602
15.2193
15.649
15.3592
15.3663
15.0855
15.4447
15.4233
15.3415
15.208
15.4281
15.3304
15.1992
15.3987
15.1361
15.1865
15.1076
15.0701
15.2238
15.0818
15.0917
15.0726
15.0608
15.1236
15.1408
15.0951
15.1117
15.1214
15.2384
15.4656
15.3314
15.5257
15.5881
15.3942
15.5265
15.3718
15.7232
15.1801
15.4995
15.1736
15.3962
15.6247
15.367
15.0928
15.5144
15.1493
15.1863
15.3835
15.3126
15.1075
15.3845
15.3371
15.5182
15.1021
15.3758
15.0779
15.1505
15.1619
15.5153
15.206
15.339
15.2366
15.2415
15.2301
15.2043
15.0965
15.3178
15.3822
15.1067
15.1001
15.4377
15.1702
15.1128
15.5088
15.3109
15.3039
15.5222
15.5279
15.3003
15.1363
15.1247
15.1001
15.5092
15.2096
15.5339
15.1033
15.3605
15.075
15.1047
15.0775
15.1785
15.1099
15.1707
15.4003
15.3354
15.5192
15.4856
15.4018
15.109
15.5245
15.0654
15.2652
15.0903
15.445
15.2382
15.1031
15.3285
15.2322
15.1292
15.09
15.1247
15.0998
15.5003
15.0474
15.111
15.1957
15.0722
15.5202
15.4374
15.1205
15.1169
15.096
15.1145
15.3947
15.052
15.2118
15.1014
15.5041
15.1021
15.0902
15.1313
15.068
15.159
15.0485
15.1548
15.4772
15.3852
15.5066
15.2019
15.1301
15.1206
15.0967
15.1227
15.1339
15.382
15.0968
15.3927
15.1459
15.5181
15.4615
15.156
15.0727
15.1974
15.106
15.14
15.5056
15.5001
15.4786
15.1464
15.3509
15.141
15.2835
15.1076
15.507
15.1983
15.519
15.1827
15.1293
15.1695
15.3455
15.1144
15.1226
15.1974
15.157
15.256
15.4648
15.4952
15.48
15.1758
15.0985
15.5323
15.5042
15.265
15.4696
15.4888
15.0873
15.1833
15.1505
15.1149
15.2149
15.1027
15.1664
15.109
15.4833
15.1085
15.4427
15.1648
15.1072
15.1578
15.1046
15.1092
15.1333
15.059
15.1209
15.158
15.1045
15.4473
15.5054
15.4904
15.3568
15.2603
15.2682
15.1087
15.0925
15.0931
15.1549
15.1083
15.1685
15.5222
15.0665
15.1353
15.0623
15.4516
15.1268
15.4651
15.0531
15.1145
15.3185
15.2055
15.4225
15.4703
15.1046
15.3109
15.0822
15.3432
15.106
15.3687
15.1758
15.1332
15.2936
15.0588
15.15
15.4774
15.4685
15.3181
15.0717
15.0958
15.0707
15.3315
15.1016
15.11
15.1018
15.0784
15.434
15.4898
15.429
15.4297
15.1062
15.1777
15.4091
15.0972
15.4333
15.4299
15.4656
15.4161
15.1091
15.053
15.1069
15.3743
15.3808
15.0961
15.1089
15.447
15.1885
15.4359
15.4456
15.0852
15.097
15.4082
15.4338
15.4117
15.0977
15.4241
15.3998
15.4591
15.4058
15.1
15.3621
15.4033
15.4141
15.071
15.391
15.3929
15.0988
15.3975
15.4349
15.1045
15.1077
15.1086
15.4024
15.1051
15.4186
15.4458
15.3815
15.4831
15.4133
15.1836
15.1256
15.104
15.4033
15.5014
15.1936
15.4014
15.4196
15.1076
15.3886
15.4666
15.4278
15.3839
15.4369
15.4473
15.4534
15.3876
15.3713
15.39
15.2645
15.5114
15.1028
15.0934
15.1014
15.0942
15.087
15.0982
15.3809
15.076
15.0986
15.3852
15.1005
15.0551
15.0804
15.3992
15.7222
15.3866
15.095
15.3878
15.4767
15.3928
15.4119
15.4818
15.2077
15.1
15.4861
15.1416
15.4482
15.2092
15.4998
15.4891
15.0985
15.0906
15.6275
15.5246
15.0941
15.1022
15.4208
15.4052
15.4451
15.7416
15.1015
15.1016
15.0955
15.5389
15.5263
15.4863
15.0948
15.2734
15.6361
15.354
15.3945
15.5822
15.3689
15.215
15.3544
15.6909
15.3362
15.539
15.5063
15.3839
15.5761
15.4159
15.4198
15.5524
15.3749
15.3693
15.1034
15.5058
15.4391
15.1081
15.1262
15.0938
15.4684
15.1109
15.3589
15.1021
15.1318
15.1031
15.1078
15.0918
15.363
15.096
15.1055
15.1962
15.3852
15.1502
15.5455
15.1062
15.1085
15.0924
15.4049
15.1011
15.4664
15.4662
15.4566
15.5087
15.425
15.1757
15.4086
15.4076
15.2099
15.2094
15.4018
15.1302
15.5576
15.1399
15.5632
15.1447
15.4118
15.3314
15.5494
15.3794
15.3554
15.2985
15.2129
15.4029
15.0961
15.386
15.1564
15.1034
15.1629
15.4365
15.0973
15.3996
15.4388
15.2134
15.4939
15.3843
15.118
15.1052
15.1618
15.0443
15.1791
15.3795
15.3888
15.28
15.3974
15.4925
15.1
15.3883
15.6287
15.5304
15.1519
15.6397
15.2053
15.1054
15.5297
15.4848
15.1032
15.4252
15.1034
15.6868
15.7006
15.1061
15.4266
15.1
15.4521
15.366
15.5149
15.1058
15.4899
15.107
15.5299
15.4243
15.2873
15.4368
15.0959
15.1026
15.4085
15.1059
15.0821
15.3514
15.5453
15.3807
15.6264
15.3859
15.1008
15.1006
15.4421
15.4047
15.4952
15.0939
15.3446
15.0626
15.0931
15.4489
15.4132
15.3782
15.211
15.3606
15.1055
15.2144
15.5403
15.5545
15.3591
15.1658
15.1061
15.3184
15.3924
15.374
15.2965
15.1543
15.0988
15.4398
15.1415
15.1037
15.1235
15.5096
15.3901
15.144
15.3924
15.4355
15.4946
15.5095
15.0873
15.0948
15.5357
15.5501
15.358
15.5408
15.3854
15.5749
15.5831
15.1067
15.2836
15.5402
15.3666
15.3051
15.3697
15.2105
15.2225
)
;

boundaryField
{
    front
    {
        type            empty;
    }
    back
    {
        type            empty;
    }
    bottom
    {
        type            uniformFixedValue;
        uniformValue    
        {
            type            scale;
            scale           
            {
                type            squarePulse;
                start           0.3;
                duration        0.3;
            }
            xScale          
            {
                type            constant;
                value           1;
            }
            value           
            {
                type            constant;
                value           15.1;
            }
        }
        value           uniform 15.1;
    }
    left
    {
        type            zeroGradient;
    }
    top
    {
        type            zeroGradient;
    }
    right
    {
        type            zeroGradient;
    }
    inner_arc
    {
        type            zeroGradient;
    }
}


// ************************************************************************* //
