/*--------------------------------*- C++ -*----------------------------------*\
  =========                 |
  \\      /  F ield         | OpenFOAM: The Open Source CFD Toolbox
   \\    /   O peration     | Website:  https://openfoam.org
    \\  /    A nd           | Version:  9
     \\/     M anipulation  |
\*---------------------------------------------------------------------------*/
FoamFile
{
    format      ascii;
    class       surfaceScalarField;
    location    "0.31";
    object      phi;
}
// * * * * * * * * * * * * * * * * * * * * * * * * * * * * * * * * * * * * * //

dimensions      [0 3 -1 0 0 0 0];

internalField   nonuniform List<scalar> 
816
(
1.43322e-09
-1.12267e-08
9.79343e-09
-2.43438e-09
-2.10061e-08
2.34404e-08
1.84398e-08
-1.70065e-08
3.04916e-08
-3.01415e-08
-3.50098e-10
1.21828e-08
-1.21828e-08
2.63851e-08
5.29237e-09
-3.16774e-08
1.26338e-08
-1.26338e-08
-1.35807e-08
1.35807e-08
-2.3783e-08
-3.69124e-09
2.74742e-08
-1.26015e-08
1.01671e-08
3.80298e-08
-1.16448e-08
3.29105e-08
-2.37074e-08
-9.20314e-09
8.19193e-09
1.79704e-08
-2.61624e-08
3.2688e-08
-3.2635e-08
-5.29628e-11
3.15776e-08
-3.05057e-08
-1.07192e-09
-2.06578e-08
3.18024e-08
-1.11446e-08
4.84928e-09
1.26904e-08
-1.75397e-08
-3.01224e-08
3.58035e-09
2.65421e-08
3.86268e-09
2.90478e-08
1.26185e-08
-3.64015e-08
2.30367e-08
7.45487e-09
1.20657e-09
-2.18644e-08
2.0125e-08
-4.03127e-09
-1.60937e-08
-2.2115e-08
-8.78967e-09
3.09047e-08
-2.39216e-08
1.80658e-09
-2.75077e-08
6.81427e-09
2.06934e-08
-2.72632e-08
3.08538e-08
-3.59063e-09
9.42818e-10
1.03154e-08
-1.12582e-08
9.00637e-09
-3.00124e-08
1.18644e-08
1.9938e-08
-1.91975e-08
2.01403e-08
-2.17184e-08
2.70108e-08
3.95077e-08
-2.76433e-08
-3.36511e-08
1.70605e-08
1.65906e-08
2.11367e-09
2.94639e-08
-5.83607e-09
2.57741e-08
1.7716e-09
3.09164e-08
-4.69196e-09
-2.28157e-08
-3.12461e-08
1.07237e-08
2.05223e-08
6.71308e-09
5.46975e-09
-1.04112e-08
-9.71798e-09
8.88871e-09
-2.88514e-08
-1.6543e-09
-2.58769e-08
-7.33503e-09
3.3212e-08
6.74248e-09
5.89132e-09
-1.05201e-08
2.85198e-08
-3.2211e-08
-1.28063e-08
-2.54278e-08
-1.83536e-09
-1.02536e-09
1.09636e-08
-9.93823e-09
2.40623e-08
-1.58703e-08
2.11657e-08
-1.04066e-09
-1.09735e-08
-2.26775e-08
1.35319e-08
1.27181e-08
8.78551e-09
-2.88835e-08
2.0098e-08
-4.03127e-09
-2.58769e-08
2.83077e-08
-2.34584e-08
8.31069e-09
-1.41468e-08
-1.81469e-09
-6.45979e-09
1.91502e-08
2.27306e-08
-1.91502e-08
-3.16159e-09
-2.94735e-08
-1.40114e-08
-1.53659e-08
2.93773e-08
-3.24085e-08
3.55707e-09
2.53678e-08
1.41398e-08
1.68779e-08
2.11519e-08
-1.30151e-08
3.49783e-08
-2.19632e-08
6.36513e-09
2.36587e-08
-3.00238e-08
-6.8611e-09
-2.27438e-08
1.25986e-08
-2.66099e-08
2.37917e-08
1.18451e-08
-3.56368e-08
1.17903e-08
2.01018e-08
-3.18921e-08
1.35728e-08
-1.35728e-08
-1.21672e-08
2.47857e-08
-1.76687e-08
5.50153e-09
3.0569e-08
4.12125e-09
5.67219e-09
-9.79343e-09
-3.18264e-08
5.57157e-09
2.62548e-08
-1.12267e-08
1.43238e-08
-1.43238e-08
-1.29402e-08
1.29402e-08
1.49255e-08
-3.02008e-08
1.52754e-08
-7.44605e-09
-1.94076e-09
1.09636e-08
-2.08027e-08
2.95882e-08
-3.71032e-10
-2.18261e-08
2.21971e-08
-1.80483e-08
-6.95622e-10
1.87439e-08
1.16563e-08
-1.6994e-08
3.19195e-08
-4.32571e-10
-2.28631e-08
2.32956e-08
1.97784e-08
9.70762e-09
-2.9486e-08
-2.41597e-08
5.77412e-09
1.85062e-08
-2.42803e-08
-1.3078e-08
-1.34442e-08
-1.26015e-08
-6.75893e-10
3.01398e-08
-1.89999e-09
-3.05085e-08
-1.94969e-08
2.5862e-08
-2.6117e-08
1.62845e-08
9.8325e-09
1.4845e-08
1.42171e-08
1.20329e-08
-2.17425e-09
3.30907e-08
-1.98872e-08
1.04112e-08
-7.44604e-09
1.56792e-09
-1.51407e-08
1.10336e-08
1.47405e-08
3.0473e-08
1.83856e-08
-2.90335e-08
1.06478e-08
-1.20231e-08
-1.40939e-08
-8.32764e-09
-2.18138e-08
1.4076e-09
-2.4905e-08
2.34974e-08
7.4703e-10
-1.87954e-08
2.7389e-08
-1.3172e-08
-1.84436e-09
2.25378e-08
-1.62983e-08
3.35812e-09
6.23211e-09
2.60146e-08
-2.97793e-09
-1.97449e-09
2.49036e-08
-2.61451e-08
1.2415e-09
-1.84538e-08
-1.33726e-08
-2.49132e-08
1.74447e-08
7.46853e-09
-2.41173e-08
-2.98122e-09
2.81667e-08
-1.92146e-10
-2.79746e-08
2.76931e-08
-2.78943e-09
-7.22148e-09
2.69999e-08
-7.04435e-09
7.04435e-09
2.54752e-08
2.69158e-09
1.28144e-09
-2.2522e-08
2.12406e-08
-4.51018e-10
-2.32563e-08
-2.64477e-08
-2.58574e-09
2.00096e-08
-2.02018e-08
4.92038e-10
-7.96898e-09
7.47694e-09
3.57574e-09
2.05016e-08
3.15007e-10
2.2678e-08
-2.2993e-08
-8.88871e-09
-3.39171e-10
2.08615e-08
1.93434e-09
1.65732e-08
-1.85076e-08
-2.01515e-08
1.58276e-08
4.3239e-09
-2.62044e-08
2.32232e-08
-3.25017e-08
1.85576e-09
3.06459e-08
-1.46221e-08
1.46221e-08
8.31069e-09
1.64391e-09
5.40045e-09
-2.23285e-09
-2.86877e-08
3.09206e-08
-9.78689e-10
-2.44491e-08
2.83923e-08
-1.9386e-08
-5.4232e-09
2.79285e-08
-2.25053e-08
5.67218e-09
-6.14237e-10
-3.18874e-08
-3.00877e-08
-7.96898e-09
-2.11273e-08
2.2983e-08
-1.07829e-08
1.07829e-08
-2.42701e-08
-1.04679e-08
2.01745e-08
-2.24074e-08
-2.15064e-08
1.60832e-08
-1.01964e-08
3.7213e-08
-2.70166e-08
-7.54771e-10
-2.03725e-08
9.71799e-09
-1.0169e-08
-7.84146e-09
9.1229e-09
7.38179e-10
-6.63122e-09
5.89304e-09
-4.85327e-10
2.06598e-08
1.73408e-08
1.20365e-08
-1.13349e-08
2.86757e-08
-2.20509e-08
-1.0884e-08
1.01292e-08
-1.4195e-12
-2.19939e-08
2.19953e-08
8.84159e-09
-9.32692e-09
1.05956e-09
-2.20732e-08
2.10136e-08
1.74451e-08
-1.93858e-08
1.92341e-08
-3.1165e-09
-1.94055e-08
-2.01515e-08
-1.41468e-08
-1.31681e-08
-1.17452e-08
-2.95637e-08
2.00137e-10
2.93636e-08
-1.03857e-08
1.03843e-08
-3.05929e-08
4.69314e-10
3.01236e-08
2.28693e-08
1.13758e-10
-2.22389e-08
-1.68429e-10
-1.01671e-08
-1.95476e-08
3.08239e-08
-1.12763e-08
-1.60832e-08
1.49763e-08
1.10685e-09
-1.58276e-08
1.48489e-08
-2.24112e-08
2.20388e-08
3.72456e-10
2.34125e-08
-2.33386e-08
-7.39603e-11
-2.15064e-08
2.89417e-08
-1.15406e-08
-2.78322e-09
-2.97439e-08
1.83956e-08
1.02801e-08
1.56177e-10
-1.17065e-09
-3.16161e-08
-7.65242e-10
1.73385e-08
-3.06357e-08
-1.62867e-09
2.71038e-08
3.00178e-08
-1.16222e-08
1.8873e-08
2.01071e-08
5.90751e-09
5.12779e-09
-5.89303e-09
2.79494e-08
1.93291e-08
1.33068e-09
-1.82814e-08
1.99253e-08
1.0243e-08
-1.01292e-08
-9.49535e-09
9.32692e-09
-1.77694e-08
-1.97936e-08
3.19898e-08
-1.21962e-08
-1.03857e-08
-1.15406e-08
-6.63122e-09
-3.67405e-09
-1.85202e-08
-1.0884e-08
1.0243e-08
-9.49535e-09
-5.42375e-09
-1.41505e-09
1.82597e-08
-1.68446e-08
8.84159e-09
1.10303e-08
8.7261e-10
1.48489e-08
7.47695e-09
-1.03843e-08
-2.2172e-09
-7.84146e-09
-2.07493e-08
-1.1299e-08
3.20483e-08
1.87415e-08
-1.99364e-09
-2.41515e-08
5.77016e-10
2.64338e-08
1.23341e-09
-3.98539e-09
2.75199e-09
-9.93823e-09
2.52827e-08
-2.89567e-08
3.97258e-10
3.18063e-08
-2.82492e-08
3.98539e-09
-5.40045e-09
1.49763e-08
1.46262e-08
1.36727e-09
4.25633e-09
-1.48041e-08
-4.26742e-09
-2.70595e-08
3.45555e-09
1.18082e-08
2.01816e-08
1.73195e-08
-2.10358e-08
3.2844e-08
-2.75648e-08
6.81546e-09
5.12779e-09
-9.1229e-09
-1.17445e-08
-2.10748e-08
3.28193e-08
1.0169e-08
-3.23347e-08
-1.29404e-08
3.3122e-08
-1.27971e-08
3.15386e-08
2.10994e-08
8.45721e-10
-7.73261e-09
7.73261e-09
-1.45937e-08
-2.37741e-08
2.51102e-08
2.13045e-08
1.59085e-08
-1.16483e-08
1.16483e-08
-1.46262e-08
-4.02237e-09
-1.35388e-08
1.04679e-08
3.07087e-09
1.35388e-08
-1.89048e-09
-2.05369e-09
-1.45937e-08
-2.77964e-08
-2.75298e-08
5.53585e-09
-3.35302e-08
1.21152e-08
2.1415e-08
-1.24308e-08
3.08073e-09
-2.01228e-08
3.46445e-08
-1.45217e-08
-3.2709e-08
1.25862e-08
1.52848e-08
-2.09901e-08
3.31053e-08
1.77807e-08
-3.07211e-08
-1.9493e-09
8.60374e-10
1.18293e-08
-1.97187e-08
2.06912e-08
-1.1306e-08
-1.96302e-08
3.09362e-08
-1.94638e-08
3.55264e-08
-1.48352e-08
2.81056e-08
1.1294e-08
2.42324e-08
2.83209e-08
-3.13657e-08
-3.05308e-08
1.56956e-08
2.17993e-08
-3.59918e-08
2.31947e-08
-1.27501e-08
2.71325e-08
-4.4545e-09
-1.93424e-08
-1.13787e-08
1.17236e-08
2.29209e-08
3.43855e-08
-8.19415e-09
-1.53252e-08
2.35193e-08
-6.0994e-09
6.0994e-09
-5.42717e-09
5.42717e-09
6.30991e-09
-6.30991e-09
6.34204e-09
-6.34204e-09
6.71308e-09
6.74248e-09
2.33477e-08
-3.16745e-08
8.32689e-09
-1.05201e-08
2.13043e-08
1.30812e-08
1.21744e-08
-1.21744e-08
-1.51407e-08
1.40744e-08
-1.40744e-08
-3.05907e-08
1.1881e-08
1.87097e-08
-6.45979e-09
-3.30279e-08
2.01455e-08
1.28824e-08
-5.90247e-09
5.90247e-09
-2.92976e-08
1.20373e-08
1.72604e-08
-1.04452e-08
-2.08762e-08
-1.86722e-08
2.27306e-08
-1.09219e-08
2.2767e-08
-8.88554e-09
-2.90703e-08
-3.054e-08
2.11657e-08
8.8571e-09
2.10514e-10
9.14872e-10
1.86073e-09
-1.94004e-08
-3.32204e-08
1.85016e-08
1.47187e-08
-2.13394e-08
-1.0796e-08
-1.04911e-08
-4.75303e-10
1.28058e-08
-2.75397e-08
1.22145e-08
-1.55024e-08
-2.47157e-08
3.94256e-08
-1.28835e-08
-2.08577e-08
8.63032e-09
1.22274e-08
-4.71127e-09
-2.64183e-08
1.50039e-09
2.49179e-08
-8.64325e-09
9.53919e-09
-9.53919e-09
-3.99043e-10
-1.67615e-08
-1.32509e-08
-1.36917e-08
2.57247e-08
2.54025e-08
-8.1421e-09
-2.66744e-08
-1.67592e-08
-2.64123e-09
3.15966e-08
-1.60942e-08
-1.29761e-08
-2.35377e-08
-1.81443e-08
-2.46921e-08
-4.29204e-09
-1.7534e-08
-6.98722e-09
-1.58759e-08
-1.30891e-08
-2.25477e-08
-2.8852e-08
-6.96025e-09
2.4405e-08
-2.22922e-08
-2.01553e-08
-2.48471e-08
2.42527e-08
-2.79055e-08
3.65285e-09
-7.22108e-09
-2.06489e-09
-3.01662e-09
2.31146e-08
-7.22108e-09
-4.70408e-09
2.9407e-08
4.11507e-09
-3.35221e-08
3.29841e-08
1.49916e-08
1.82203e-08
-1.27787e-08
2.55845e-08
6.84644e-09
-6.84644e-09
2.51634e-08
5.30951e-09
1.12752e-08
4.85459e-09
-2.05851e-08
1.98375e-08
-2.79796e-08
3.06495e-08
2.0707e-08
1.75083e-08
-3.06449e-08
1.31366e-08
-1.95874e-09
2.88999e-08
-1.01902e-08
2.05792e-08
2.12842e-08
-1.71691e-08
1.87863e-09
1.03154e-08
-2.05061e-08
1.25583e-08
9.98454e-09
1.34713e-08
1.91754e-08
-2.69558e-08
4.27829e-09
-1.89787e-08
3.86633e-09
1.9653e-08
-1.88109e-08
2.07173e-08
2.78013e-09
-2.1237e-08
5.96283e-09
-2.90647e-10
9.87571e-09
-2.92617e-08
-1.31861e-09
-3.12478e-08
4.41322e-09
-5.99604e-10
5.38245e-09
2.92824e-09
-1.81039e-08
2.94198e-08
2.41382e-09
-2.88321e-08
-1.12582e-08
5.96283e-09
2.27858e-08
-1.84619e-08
-2.04634e-08
-1.12111e-08
2.10264e-08
1.20643e-08
-2.2596e-08
5.38245e-09
1.49916e-08
-2.84199e-08
-2.56898e-08
2.57328e-08
-1.66333e-09
-1.69322e-08
-1.61225e-08
1.61225e-08
1.16308e-08
-3.24672e-08
-1.61062e-08
1.61062e-08
-1.82467e-08
-2.7929e-08
-1.99949e-08
-2.21555e-08
1.01275e-08
1.01438e-08
2.68397e-08
-5.81336e-09
-1.82509e-08
1.92708e-08
1.89026e-08
-3.02876e-08
1.18257e-08
-1.63354e-08
1.65459e-08
-1.86568e-08
-1.82166e-08
-1.24283e-08
-1.7127e-08
-5.61674e-09
-1.82149e-08
-9.71415e-09
1.21253e-08
-1.54602e-08
1.49849e-08
3.27012e-09
2.51783e-08
1.49109e-10
-3.23601e-08
-2.63487e-08
-1.75261e-08
-2.24944e-09
-1.74598e-08
-4.02897e-09
-5.40017e-09
-5.19676e-09
-1.219e-08
1.33786e-08
2.37938e-08
-3.26601e-09
-1.60266e-08
-5.47692e-10
1.70673e-08
1.9398e-08
-2.16582e-08
-2.26858e-08
-2.3615e-08
-2.55039e-08
-9.86367e-09
6.78721e-09
2.61478e-09
)
;

boundaryField
{
    front
    {
        type            empty;
        value           nonuniform List<scalar> 0();
    }
    back
    {
        type            empty;
        value           nonuniform List<scalar> 0();
    }
    bottom
    {
        type            calculated;
        value           nonuniform List<scalar> 
12
(
9.3868e-09
2.70985e-08
2.21943e-08
2.10208e-08
1.60375e-08
2.75199e-09
4.26742e-09
2.72296e-08
2.93051e-08
2.52769e-08
1.61452e-08
9.28598e-09
)
;
    }
    left
    {
        type            calculated;
        value           uniform 0;
    }
    top
    {
        type            calculated;
        value           nonuniform List<scalar> 8(-2.625e-08 -2.625e-08 -2.625e-08 -2.625e-08 -2.625e-08 -2.625e-08 -2.625e-08 -2.625e-08);
    }
    right
    {
        type            calculated;
        value           uniform 0;
    }
    inner_arc
    {
        type            calculated;
        value           uniform 0;
    }
}


// ************************************************************************* //
