/*--------------------------------*- C++ -*----------------------------------*\
  =========                 |
  \\      /  F ield         | OpenFOAM: The Open Source CFD Toolbox
   \\    /   O peration     | Website:  https://openfoam.org
    \\  /    A nd           | Version:  9
     \\/     M anipulation  |
\*---------------------------------------------------------------------------*/
FoamFile
{
    format      ascii;
    class       volScalarField;
    location    "0.98";
    object      p;
}
// * * * * * * * * * * * * * * * * * * * * * * * * * * * * * * * * * * * * * //

dimensions      [0 2 -2 0 0 0 0];

internalField   nonuniform List<scalar> 
464
(
1.8447e-23
-1.79005e-22
-5.91828e-22
-5.85359e-22
-2.16629e-22
-6.00041e-22
-5.8812e-23
-5.91157e-22
-8.65978e-23
-6.98042e-23
2.12756e-24
1.35199e-22
-6.8608e-23
1.11031e-22
-2.45596e-22
-1.9431e-22
-4.77775e-22
9.50743e-22
-5.9365e-22
-5.06057e-22
-4.3401e-22
-5.58389e-22
-5.7305e-22
-5.87689e-22
-5.94362e-22
-5.91747e-22
-8.34595e-23
-5.86588e-22
1.03125e-22
-5.78931e-22
-5.8588e-22
-3.18574e-22
-3.71676e-22
-5.6252e-22
-1.46402e-22
-5.52816e-22
-1.20674e-21
-6.00414e-22
-5.87788e-22
-2.07235e-22
-4.605e-22
-5.2774e-22
-5.81243e-22
1.23199e-23
2.14374e-22
-5.78694e-22
-5.65043e-22
-5.54846e-22
-5.85635e-22
-6.02945e-22
-2.7352e-22
-5.78513e-22
-5.94174e-22
-5.08695e-22
-5.24166e-22
-5.79508e-22
-5.76693e-22
-4.46397e-22
-4.95679e-22
-5.30325e-22
-5.95801e-22
-2.03125e-22
-3.65698e-22
-4.80543e-22
-1.37734e-22
-5.27081e-22
-4.19334e-22
-5.95496e-22
5.20542e-23
-5.09762e-22
-4.5649e-22
-1.71587e-22
-3.57591e-23
-5.66648e-22
-2.6925e-22
-5.86933e-22
-4.8857e-22
5.41413e-25
-4.71986e-22
5.58045e-23
-2.23055e-22
-5.93593e-22
-3.46147e-22
-5.96104e-22
-2.52302e-22
-4.4153e-22
-1.91117e-22
-6.02631e-22
-5.81628e-22
-2.71253e-22
-2.45786e-22
-1.77851e-22
-3.73413e-22
1.08538e-22
-3.22184e-22
-5.64512e-22
-5.17296e-22
-5.95339e-22
-2.81061e-22
-1.32716e-22
-5.88033e-22
-5.52867e-22
-5.80979e-22
-3.34946e-22
-5.10284e-22
-3.2457e-22
-5.98521e-22
-4.36595e-22
-2.55475e-22
-5.3194e-22
-3.01551e-22
-5.61719e-22
-2.80537e-22
-2.68679e-22
-5.85624e-22
-5.79745e-22
-3.31456e-22
-5.86751e-22
-2.8249e-22
-5.90692e-22
-5.48227e-22
-1.46555e-22
-1.67327e-22
-2.94178e-23
-4.85246e-22
-2.73514e-22
-1.50475e-22
-2.75472e-22
-4.87456e-22
-3.42515e-22
-6.04815e-22
-1.33988e-23
-5.94753e-22
-5.74386e-22
-5.67233e-22
-3.04941e-22
-5.8376e-22
-5.87929e-22
-1.06016e-22
-5.50951e-22
-5.81242e-22
-3.82278e-22
-4.20738e-22
-5.84416e-22
-5.7684e-22
-2.71575e-22
-5.71257e-22
-5.89029e-22
-4.96818e-22
-5.41102e-22
-5.61332e-22
-5.75009e-22
-1.7328e-22
-2.68515e-22
-2.96038e-22
-5.52673e-22
-2.19623e-22
-5.53774e-22
-1.61194e-22
-2.59701e-22
-2.0226e-22
-5.50475e-22
-2.70422e-22
-6.31913e-22
-6.00952e-22
-5.78231e-22
-2.00701e-22
-4.08998e-22
-3.22293e-22
-2.64014e-22
-2.66376e-22
-2.38691e-22
-2.68001e-22
-5.5994e-22
-2.68587e-22
-2.90307e-22
-5.388e-22
-5.55823e-22
-1.75399e-22
-1.96505e-22
-5.66507e-22
-3.24311e-22
9.23306e-23
9.64126e-22
-2.53524e-22
-9.67816e-22
-3.60666e-22
-3.38809e-22
-2.676e-22
-3.11984e-22
-5.34002e-22
-3.07091e-22
-5.54123e-22
-5.50717e-22
-4.82537e-22
-4.61177e-22
-4.28384e-22
-5.46006e-22
-6.7961e-22
-5.06627e-22
-5.24893e-22
-4.74329e-22
-5.2187e-22
-4.93718e-22
-3.46806e-22
-5.51319e-22
-5.09799e-22
-4.79438e-22
-4.72949e-22
-2.79487e-22
-5.84893e-22
-3.68684e-22
-5.80375e-22
-1.54187e-22
-8.23251e-22
-2.85975e-22
2.15771e-22
-5.38912e-22
-8.32828e-23
-4.494e-22
1.82817e-21
-4.99148e-22
-4.9607e-22
-4.99768e-22
-5.41338e-22
-5.52332e-22
-5.03945e-22
-4.83608e-22
-5.33477e-22
-4.60905e-22
-4.63365e-22
-3.89791e-22
-3.88847e-22
-3.64246e-22
-3.89001e-22
-4.19661e-22
-6.03342e-22
-1.63132e-22
-3.75909e-22
-1.04541e-21
-2.83093e-22
-3.64055e-22
-4.19355e-22
-1.68966e-22
-1.34598e-22
-1.89257e-21
-2.29061e-23
-4.78769e-22
-7.92046e-22
-8.10229e-22
2.92319e-22
-1.81536e-21
-3.87028e-22
-2.67388e-22
-2.11805e-22
-1.37653e-23
-5.55285e-22
-9.20311e-22
-6.93508e-23
-2.01009e-22
-6.63241e-23
-3.63362e-22
-5.05148e-22
-2.67103e-22
-4.24634e-22
-1.78758e-22
-3.67131e-22
-5.84383e-22
-3.73282e-22
-1.97208e-22
-5.37151e-22
-2.91484e-22
-2.51913e-22
-4.25302e-22
-1.7335e-22
-2.78086e-22
-2.38919e-22
-4.44259e-22
-4.23269e-22
-2.78438e-22
-2.73017e-22
-5.72622e-22
-4.35915e-22
-5.75812e-22
-2.09243e-22
-2.69302e-22
-4.15904e-22
-1.91904e-22
-5.72721e-22
-2.37962e-22
-2.27505e-22
-1.6616e-22
-5.7888e-22
-5.29753e-22
-5.50287e-22
-4.0059e-22
-3.72381e-22
-2.63342e-22
-2.87116e-22
-2.24664e-22
-1.81129e-22
-1.6508e-22
-5.36938e-23
1.2404e-22
-8.2175e-22
-4.75719e-22
-4.19267e-22
-9.94222e-22
-2.52703e-22
-2.77848e-22
-5.11892e-22
-5.78788e-22
-5.593e-22
-1.64208e-22
-2.70545e-22
-2.65719e-22
-4.27176e-22
-2.45398e-22
-5.91651e-22
-2.17629e-22
-5.76814e-22
-3.34609e-22
-2.52699e-22
-2.71931e-22
-1.53086e-22
-5.72171e-22
-5.73365e-22
-1.95732e-22
-5.74264e-22
-2.59362e-22
-5.38915e-22
-6.89626e-23
-5.86502e-22
-4.77468e-22
-5.0336e-22
-5.2609e-22
-5.75611e-22
-5.8995e-22
-2.75146e-22
-4.75434e-22
-5.83245e-22
1.17655e-22
-2.73335e-22
-2.70948e-22
-2.8144e-22
-5.92091e-22
-5.67858e-22
-4.08548e-22
-5.99137e-22
-5.03718e-22
-5.37263e-22
-5.96918e-22
-3.57142e-22
-3.8378e-22
-5.41947e-22
-1.08956e-22
-5.9767e-22
-2.65562e-22
-5.91436e-22
-1.92102e-22
-5.96731e-22
-2.36932e-23
-6.01565e-22
-2.1713e-22
2.87884e-23
-6.01811e-22
-5.96029e-22
-1.36264e-21
2.85898e-22
-5.94219e-22
-5.91093e-22
-2.01312e-22
-1.96562e-22
-2.21747e-21
-3.53071e-22
-5.9843e-22
9.83417e-23
-5.15864e-22
2.07744e-22
-5.86908e-22
1.61991e-22
-6.3308e-22
-8.20014e-22
-2.84441e-22
2.38845e-22
-2.4223e-22
2.08119e-23
-5.9285e-22
1.93127e-21
8.4323e-22
-4.28331e-22
-4.90035e-22
-1.30854e-21
-8.60219e-22
-6.44953e-22
-5.46878e-22
-5.97081e-22
-5.7224e-22
-4.57572e-22
-1.52104e-23
-1.05785e-22
-5.95371e-22
1.41589e-22
-5.887e-22
-9.41254e-24
6.20007e-23
2.22302e-22
-5.93361e-22
1.19412e-22
-5.84873e-22
-8.49307e-23
-5.9605e-22
-5.92192e-22
-5.83735e-22
-6.04313e-22
-1.20289e-22
3.18866e-22
-6.00314e-22
-6.03012e-22
-1.40847e-22
-6.00798e-22
-6.00311e-22
6.10813e-23
-3.98546e-22
1.01504e-22
-1.15249e-22
2.93289e-22
1.65921e-22
2.86556e-22
-3.10942e-22
-5.95018e-22
-2.73323e-22
-7.13065e-22
-5.81823e-22
2.04948e-22
2.65225e-21
1.83159e-21
-5.84797e-22
2.07325e-21
-5.84536e-22
-4.11889e-22
-1.18655e-21
-6.27331e-22
-6.35398e-22
-5.66376e-22
-5.98887e-22
-5.61262e-22
-4.73976e-22
-5.57047e-22
-2.56828e-22
-1.91428e-22
2.18916e-23
-5.2149e-22
-5.87547e-22
-3.53435e-22
-9.97167e-22
-1.89621e-21
-5.97781e-22
-5.99785e-22
-6.00295e-22
-5.90229e-22
2.70876e-22
1.77355e-22
-5.82089e-22
)
;

boundaryField
{
    back
    {
        type            empty;
    }
    front
    {
        type            empty;
    }
    left
    {
        type            zeroGradient;
    }
    top
    {
        type            zeroGradient;
    }
    right
    {
        type            zeroGradient;
    }
    bottom
    {
        type            uniformFixedValue;
        uniformValue    
        {
            type            scale;
            scale           
            {
                type            squarePulse;
                start           0.3;
                duration        0.3;
            }
            xScale          
            {
                type            constant;
                value           1;
            }
            value           
            {
                type            constant;
                value           15.1;
            }
        }
        value           uniform 0;
    }
}


// ************************************************************************* //
