/*--------------------------------*- C++ -*----------------------------------*\
  =========                 |
  \\      /  F ield         | OpenFOAM: The Open Source CFD Toolbox
   \\    /   O peration     | Website:  https://openfoam.org
    \\  /    A nd           | Version:  9
     \\/     M anipulation  |
\*---------------------------------------------------------------------------*/
FoamFile
{
    format      ascii;
    class       surfaceScalarField;
    location    "0.98";
    object      phi;
}
// * * * * * * * * * * * * * * * * * * * * * * * * * * * * * * * * * * * * * //

dimensions      [0 3 -1 0 0 0 0];

internalField   nonuniform List<scalar> 
663
(
-4.70392e-29
1.94065e-28
-1.43875e-28
9.25229e-29
2.29451e-28
7.34951e-31
-7.32883e-31
-1.66826e-30
9.7018e-30
-7.90837e-30
-1.01399e-28
1.91461e-28
3.25301e-31
-1.81516e-30
-1.94611e-28
1.44082e-28
7.04409e-30
-1.18274e-29
-2.30393e-28
2.12525e-28
1.78137e-29
8.34309e-29
-3.11982e-28
4.96677e-29
1.3802e-28
6.51705e-29
2.32859e-29
-8.70469e-29
1.41162e-29
3.97664e-29
1.13427e-29
6.57767e-29
-1.39305e-28
3.70717e-29
1.26042e-28
-6.51051e-29
-3.42241e-28
-7.44868e-29
3.11989e-28
1.80797e-28
-2.22151e-28
-2.48511e-30
2.18785e-30
1.69774e-29
-4.72412e-29
2.19435e-29
4.57421e-31
4.47002e-29
-2.56973e-29
2.72361e-30
2.35621e-29
-3.01856e-29
-1.13986e-30
-6.24173e-30
-5.17632e-30
1.13928e-29
5.75269e-30
9.39172e-31
6.05285e-30
-1.54201e-29
-5.50257e-31
-7.31881e-29
7.58587e-29
-1.14988e-29
1.29553e-29
-1.28346e-30
1.25036e-28
-5.4778e-29
9.00142e-30
-1.92291e-29
1.00146e-29
-1.05923e-29
1.67593e-29
-8.9308e-29
1.23659e-28
-3.44263e-29
3.35233e-31
-1.07182e-28
-1.87335e-29
-1.109e-28
3.9148e-29
1.28306e-28
-4.9724e-29
2.18722e-28
-2.2907e-28
1.73353e-29
-8.20649e-29
-1.05516e-30
-3.91318e-30
2.22032e-30
-1.6142e-29
-3.11341e-29
-6.42024e-29
9.44076e-29
-5.595e-29
6.48725e-30
2.60702e-29
-3.68694e-29
1.02361e-29
-1.98777e-29
-1.33003e-28
5.63269e-29
-4.28735e-29
6.58919e-30
3.22276e-29
-3.51989e-29
2.8752e-30
2.8751e-29
-3.10103e-29
2.3111e-30
6.30556e-30
-6.23355e-30
6.20036e-30
1.76708e-29
-2.55138e-29
-2.04167e-29
3.24286e-30
1.71214e-29
-4.95627e-29
5.8948e-29
-1.42519e-29
8.46386e-31
5.91171e-29
-5.92314e-29
-5.62557e-29
5.37583e-29
-2.10839e-30
-2.12786e-29
2.52578e-29
1.368e-29
7.36538e-29
-9.51466e-29
-7.02409e-29
6.67205e-29
1.28033e-29
-2.84772e-29
4.88075e-30
-9.08198e-29
1.66998e-28
-7.60837e-29
9.65009e-29
-3.35773e-29
-5.49994e-29
-6.31761e-29
6.58705e-29
1.69196e-30
-1.45788e-28
2.29465e-28
8.40335e-30
4.93278e-29
6.82921e-29
-6.70832e-29
-5.31184e-30
-8.82921e-30
-3.64427e-29
-4.9904e-31
-5.69978e-29
-6.7787e-29
-3.99543e-31
-2.39085e-28
7.53536e-29
3.05804e-29
7.47673e-31
2.50766e-29
-6.73781e-30
-4.06215e-30
1.05463e-29
-3.27673e-30
-1.31931e-29
5.8542e-29
-1.88929e-28
4.47674e-29
7.98181e-29
-1.01927e-29
-4.0648e-29
1.19616e-28
8.76728e-29
-2.07739e-28
-4.32223e-30
-1.45915e-30
5.79596e-30
2.71279e-29
-6.69635e-29
3.81707e-29
-1.7071e-30
3.31607e-30
-1.65222e-30
1.43504e-28
2.17041e-29
5.73438e-29
1.08204e-28
5.874e-29
-1.17052e-29
3.92424e-30
-1.91975e-29
1.53485e-29
2.19585e-29
-3.08715e-29
6.43768e-29
-1.53944e-28
-4.72658e-29
5.16204e-29
-1.44376e-29
-9.75678e-30
-8.97945e-29
9.53964e-29
-4.8579e-29
6.85429e-30
-9.34186e-29
4.52173e-31
-1.18503e-29
7.25416e-30
4.18902e-30
-4.39226e-30
7.53352e-31
1.93021e-28
-1.77999e-28
-1.9247e-29
1.9927e-29
-2.91484e-30
-3.15916e-29
-2.43368e-29
3.31804e-30
1.14813e-28
3.95563e-29
-1.28376e-29
-6.8651e-29
7.36223e-31
-7.51826e-29
-1.27383e-29
-1.7268e-29
8.2483e-29
4.55661e-29
-4.58268e-29
1.06236e-30
-5.31539e-29
1.42389e-29
4.309e-29
-3.87592e-29
1.0411e-29
1.71659e-29
-1.54173e-29
-2.20033e-29
-1.08315e-31
-2.46027e-29
-1.79837e-30
-3.42126e-29
1.51477e-29
-2.94652e-30
7.05871e-30
-4.1922e-30
-4.47324e-30
8.49043e-30
-1.44517e-29
3.79247e-29
4.13318e-29
1.41634e-28
1.65184e-28
-5.78118e-29
2.49165e-29
1.17573e-28
-7.23797e-29
-2.51599e-29
-2.54033e-29
1.15664e-28
5.28267e-29
3.05843e-29
-1.11156e-29
2.22139e-28
-7.09482e-29
-4.7298e-29
3.38322e-29
-3.03762e-29
4.13846e-30
4.26747e-30
-2.06373e-29
1.65157e-29
1.44753e-29
-6.54332e-30
-1.81696e-29
1.41318e-29
-1.13532e-29
7.01577e-30
7.42623e-30
-6.52105e-30
-1.92156e-29
5.3828e-29
-5.0789e-29
-2.73315e-29
-4.83049e-30
-1.57722e-30
9.17402e-31
-6.88963e-30
-3.00098e-29
-2.18226e-30
-4.82656e-30
6.25297e-29
1.40781e-30
5.59465e-30
-1.32838e-29
-3.87448e-29
7.17474e-30
-2.62177e-29
2.89831e-29
-9.92566e-29
1.41424e-28
-3.82884e-29
-3.92097e-29
1.65933e-29
1.01792e-29
1.37306e-29
-5.82383e-30
3.57141e-28
-4.63157e-28
-3.60708e-29
-3.47069e-30
1.59736e-28
5.00219e-29
2.96647e-29
1.13855e-28
-1.39735e-29
-9.64613e-29
-4.40464e-29
6.46454e-30
5.64357e-30
4.53901e-30
-1.32874e-29
-3.35118e-29
2.37963e-29
4.50329e-30
1.14639e-28
-2.98664e-29
2.26265e-29
-1.71575e-29
1.63242e-28
-1.33356e-28
2.01889e-30
-2.02586e-30
9.30362e-30
-6.73929e-30
1.041e-28
-3.54986e-31
2.08959e-30
-2.33769e-29
1.23211e-30
1.21904e-29
1.66671e-29
-3.65309e-29
-6.50524e-30
8.48023e-30
-5.11985e-29
-1.44709e-28
3.64894e-29
-2.18582e-28
2.70654e-29
2.22161e-28
4.14583e-29
-3.6558e-29
1.1096e-29
-4.9995e-29
4.24846e-29
-6.0483e-29
1.03397e-28
-1.58028e-28
8.44641e-29
-1.02194e-28
-5.19253e-29
-1.87893e-29
-1.54167e-29
2.04402e-29
-1.93688e-29
1.57767e-29
-7.73765e-30
3.66929e-29
1.57544e-30
-3.90713e-29
-4.94576e-30
-1.39488e-29
-1.32166e-29
1.31112e-29
4.93426e-32
-1.74037e-30
6.62958e-29
5.01361e-29
-5.1496e-29
-1.43243e-29
4.28102e-29
-4.44491e-29
-6.04826e-31
4.93882e-29
-4.34696e-31
-1.75259e-29
1.70849e-29
4.54123e-29
1.58468e-30
-1.51181e-29
-1.84514e-29
-1.98115e-29
2.00877e-29
-2.20269e-29
1.72927e-29
-9.26903e-30
-1.15769e-28
1.50678e-28
-1.95549e-29
-2.22537e-29
-1.22036e-29
9.5601e-30
-2.15194e-29
3.84545e-29
-9.29152e-32
6.51773e-30
-4.26246e-29
-6.3174e-29
1.33256e-29
-4.91805e-29
-5.59855e-30
-7.48312e-29
8.24673e-29
-7.13156e-29
1.55261e-29
-6.3108e-29
-7.87741e-29
-6.66887e-29
7.4202e-30
1.26832e-30
-5.89869e-29
-2.59108e-29
-2.54052e-29
3.96844e-29
-8.40336e-29
-6.82579e-30
7.35807e-29
-1.15356e-28
9.8451e-29
-2.46802e-30
-8.53372e-29
6.01962e-29
-2.41885e-29
-1.01506e-28
-5.73619e-29
-1.58329e-29
2.15692e-29
-7.5301e-29
-1.04851e-28
-4.79958e-29
-4.69907e-29
5.78156e-29
-7.10559e-29
-2.61919e-28
1.68606e-28
1.23976e-29
4.53461e-29
-1.01871e-28
-7.11824e-29
-9.55135e-29
1.14896e-28
-4.08574e-29
-1.71442e-29
-1.39371e-28
8.51312e-29
-5.16203e-29
3.83058e-29
-4.32806e-29
-2.28124e-29
-1.08977e-28
6.72556e-29
-1.15046e-28
5.88206e-29
2.80878e-30
-7.21544e-29
-3.66745e-29
9.37578e-29
-6.6598e-29
-1.15618e-28
4.5889e-29
-1.50465e-28
1.3374e-28
1.93151e-29
-7.08916e-29
-1.29073e-28
-1.25048e-28
-2.08677e-29
1.46666e-28
-1.5551e-28
1.47823e-29
1.39278e-28
-3.04462e-29
-8.46834e-29
-3.12455e-29
9.51625e-29
1.37809e-29
1.38782e-28
1.53148e-28
-1.15492e-28
2.73687e-29
-4.05185e-31
2.07047e-29
-2.15311e-29
6.43648e-30
-6.37558e-29
7.05722e-29
1.43439e-31
-2.78126e-29
-3.82802e-31
-1.10526e-29
-1.33736e-28
-6.76271e-29
-6.10565e-31
-4.92025e-30
-1.70443e-29
1.16575e-28
-6.34899e-29
2.38884e-29
-8.70025e-29
-6.20977e-29
-2.53594e-29
6.03525e-29
3.43556e-29
4.78489e-29
5.60087e-29
-5.30522e-29
2.62868e-29
-6.14461e-30
3.77969e-29
-3.22385e-29
3.76344e-29
-1.33453e-28
-6.15708e-29
-7.19921e-29
1.3018e-28
2.55702e-29
8.05427e-29
-6.06704e-29
-8.61803e-29
5.72081e-29
4.99838e-29
4.09675e-29
-1.92502e-29
-6.11566e-29
9.25271e-29
6.33654e-29
-7.9832e-29
5.5542e-29
-2.64445e-29
6.35264e-29
5.96081e-30
-5.70208e-31
-6.5541e-29
-2.2198e-29
1.083e-30
5.281e-29
1.01627e-29
-9.97046e-30
3.09243e-29
1.75711e-29
1.35212e-29
2.73103e-28
-7.10729e-29
-9.61363e-31
8.76161e-31
-6.21993e-29
4.33342e-29
-2.86799e-30
8.32252e-31
-6.67422e-31
-5.01633e-30
1.1981e-31
2.51114e-31
9.92107e-29
-1.95897e-28
-3.51405e-29
1.96122e-30
1.01374e-29
7.04634e-31
1.24831e-31
4.98456e-29
8.81101e-29
-7.44797e-31
8.63729e-29
-7.47106e-31
-6.13679e-29
2.87937e-28
3.55275e-31
-3.33451e-30
-1.69619e-28
1.44246e-32
-1.66737e-29
4.29192e-29
1.52342e-31
-2.8765e-31
-6.23803e-29
1.31883e-28
5.9728e-30
-9.04498e-30
6.00662e-31
-2.0332e-30
4.53709e-29
-1.20901e-28
-1.20302e-28
5.63737e-29
-5.72987e-30
-9.09664e-29
-1.83189e-29
1.81589e-29
1.29094e-29
-5.06409e-29
6.89128e-29
-7.48413e-29
-7.76483e-29
-7.29421e-29
1.0881e-28
6.08482e-29
-8.83364e-30
-1.46397e-28
-1.49961e-28
-5.0416e-29
1.37688e-29
1.41424e-29
2.18971e-29
3.86161e-29
2.44919e-29
-4.12645e-29
-3.16079e-29
2.19069e-29
8.05571e-29
2.51934e-28
-8.71847e-31
1.42264e-28
1.93405e-31
1.04612e-28
-1.49067e-28
4.56008e-29
-4.39199e-29
-5.7602e-31
-7.83054e-29
-1.08573e-31
-1.34579e-28
-1.77876e-28
1.29767e-30
6.76929e-30
-5.69562e-30
1.59935e-30
4.04486e-30
-1.44077e-29
1.61283e-29
1.28879e-29
5.73603e-30
3.25778e-30
-1.99957e-29
5.34495e-29
1.09916e-29
-1.37479e-29
1.21074e-28
-4.62349e-29
3.7025e-29
3.59092e-29
-2.61483e-29
-2.83942e-29
-1.67372e-30
-2.1904e-30
6.27454e-31
-1.11446e-30
)
;

boundaryField
{
    back
    {
        type            empty;
        value           nonuniform List<scalar> 0();
    }
    front
    {
        type            empty;
        value           nonuniform List<scalar> 0();
    }
    left
    {
        type            calculated;
        value           uniform 0;
    }
    top
    {
        type            calculated;
        value           uniform 0;
    }
    right
    {
        type            calculated;
        value           uniform 0;
    }
    bottom
    {
        type            calculated;
        value           nonuniform List<scalar> 8(-3.26183e-28 -2.03869e-28 1.00358e-28 -1.90745e-28 -3.1643e-28 1.2316e-28 1.63568e-28 -4.31702e-29);
    }
}


// ************************************************************************* //
