/*--------------------------------*- C++ -*----------------------------------*\
  =========                 |
  \\      /  F ield         | OpenFOAM: The Open Source CFD Toolbox
   \\    /   O peration     | Website:  https://openfoam.org
    \\  /    A nd           | Version:  9
     \\/     M anipulation  |
\*---------------------------------------------------------------------------*/
FoamFile
{
    format      ascii;
    class       volVectorField;
    location    "0.98";
    object      U;
}
// * * * * * * * * * * * * * * * * * * * * * * * * * * * * * * * * * * * * * //

dimensions      [0 1 -1 0 0 0 0];

internalField   nonuniform List<vector> 
464
(
(-4.82869e-21 5.72066e-22 1.66948e-39)
(-3.16879e-21 8.47255e-21 0)
(-1.59433e-23 9.14466e-24 0)
(-5.40346e-23 2.86812e-22 3.54797e-38)
(-2.29101e-21 6.7512e-21 0)
(-2.47339e-23 2.58682e-23 -9.04712e-39)
(-4.48932e-21 1.85643e-21 -1.34495e-39)
(-1.15827e-24 2.76758e-22 0)
(-5.66217e-21 3.54527e-21 1.45925e-39)
(-5.33169e-21 4.83148e-21 -5.93391e-39)
(-3.81997e-21 -7.04729e-22 3.55569e-41)
(-1.64715e-21 1.73241e-23 -3.03227e-40)
(-4.98464e-21 2.91403e-21 -1.06248e-38)
(-9.29007e-22 -4.64656e-22 0)
(9.64577e-22 4.1635e-21 -1.17832e-38)
(1.63382e-21 3.61329e-21 1.2733e-38)
(9.78776e-21 -7.85926e-22 0)
(8.63833e-21 1.88842e-21 2.27759e-38)
(-9.01792e-24 4.51457e-23 -2.74368e-38)
(5.78141e-22 1.2901e-21 2.73242e-38)
(2.58486e-22 1.14623e-21 -4.05357e-38)
(-1.09294e-22 7.79726e-22 7.82536e-39)
(-1.38177e-22 8.71694e-22 -4.43341e-39)
(-5.37624e-23 3.89221e-22 0)
(-6.84752e-23 2.14873e-22 -3.64396e-38)
(-7.71789e-23 4.26458e-22 1.68304e-38)
(-1.82401e-21 2.12424e-21 6.28878e-39)
(5.33778e-23 3.69608e-22 -3.54018e-38)
(-9.63153e-22 2.94291e-21 0)
(-1.33587e-22 5.60302e-22 0)
(-1.1302e-22 5.7125e-22 2.06823e-39)
(1.02e-22 3.75804e-21 1.47924e-40)
(4.59543e-22 3.39425e-21 -3.38635e-39)
(-1.51466e-21 2.49733e-21 -1.94241e-38)
(-1.85513e-21 2.93541e-21 1.95763e-38)
(6.30646e-21 4.73317e-21 4.6498e-38)
(9.37239e-22 2.2508e-21 -4.99237e-38)
(-2.34505e-24 1.1843e-22 -4.34345e-39)
(6.47977e-23 3.53864e-22 2.60158e-40)
(1.95803e-21 2.01106e-21 0)
(8.9204e-22 1.52954e-21 3.75713e-38)
(8.6805e-23 1.07983e-21 0)
(-6.31866e-23 1.04767e-21 -1.15951e-38)
(-2.09986e-21 2.07536e-21 -6.27622e-39)
(-1.83014e-21 1.70926e-21 6.62174e-39)
(1.26454e-21 3.17292e-21 -2.15437e-39)
(-2.56833e-23 9.63177e-22 3.28196e-38)
(3.48123e-23 7.6348e-22 -4.09966e-40)
(-3.88002e-24 1.22185e-22 0)
(4.52936e-23 2.42396e-22 4.20527e-39)
(3.29139e-22 1.20986e-21 -2.14358e-38)
(5.70631e-23 4.88447e-22 -2.16892e-39)
(-1.70503e-21 2.47723e-23 -2.10996e-38)
(-4.20646e-23 1.67564e-21 -2.89485e-38)
(1.125e-23 1.61031e-21 -9.63558e-40)
(2.26804e-23 6.34813e-22 3.41428e-38)
(2.09786e-23 7.85202e-22 0)
(4.28398e-22 2.336e-21 0)
(1.47297e-22 2.04953e-21 -2.83968e-38)
(-1.37918e-21 -1.07527e-22 0)
(2.48944e-23 2.01179e-22 3.49391e-38)
(-2.4464e-21 3.80749e-21 2.32915e-38)
(1.46532e-21 1.95723e-21 5.17834e-38)
(6.9868e-23 1.86285e-21 -2.89676e-38)
(-4.3163e-21 4.59331e-21 -1.04787e-39)
(-1.48088e-22 1.54966e-21 -3.1101e-38)
(-1.7991e-22 1.88877e-21 -2.55169e-38)
(2.13372e-23 2.77048e-22 -3.27827e-38)
(-2.704e-21 -3.63829e-23 -1.73175e-39)
(-2.36906e-23 1.58954e-21 3.04112e-38)
(-3.02888e-23 1.9269e-21 2.83379e-38)
(-3.41695e-21 4.8334e-21 -1.1593e-38)
(2.16979e-22 3.61225e-21 0)
(1.96099e-23 8.29514e-22 3.36532e-38)
(1.51112e-22 2.4109e-22 -1.60773e-38)
(6.8513e-23 5.04626e-22 3.49466e-38)
(-4.97631e-23 1.8321e-21 -2.67814e-38)
(-5.51678e-21 7.58249e-22 -5.14146e-40)
(2.77815e-22 2.24904e-21 -2.93796e-38)
(8.1375e-22 3.26242e-21 -2.66077e-39)
(-2.11864e-21 5.18109e-21 0)
(-7.00643e-23 1.80998e-22 8.61789e-39)
(-4.5963e-22 1.982e-21 -2.11103e-38)
(-4.96958e-23 1.03896e-22 3.66159e-38)
(-1.23137e-21 3.54717e-21 0)
(8.43666e-22 2.11602e-21 -2.9594e-41)
(-2.38663e-21 3.23974e-21 -1.18099e-38)
(-8.90405e-23 2.16883e-22 0)
(-2.76248e-23 5.39115e-22 0)
(1.90357e-22 6.64012e-22 -1.60437e-38)
(-1.48307e-21 3.15589e-21 1.49842e-38)
(-3.25811e-21 5.86186e-21 0)
(8.22428e-23 1.51164e-21 2.12114e-38)
(-2.10404e-21 -2.28928e-21 -5.07722e-39)
(1.23084e-22 1.23907e-21 -2.07515e-38)
(8.97182e-22 1.72921e-21 -2.76972e-38)
(1.253e-22 2.00147e-21 2.94478e-38)
(-4.90746e-23 2.52648e-22 -7.90375e-39)
(-4.62571e-23 9.6921e-23 -1.67199e-38)
(-4.45108e-21 3.36365e-21 5.88796e-39)
(-7.7121e-23 5.5594e-22 0)
(2.78053e-23 9.53587e-22 1.9337e-39)
(-8.90365e-23 6.38368e-22 0)
(-2.46625e-22 3.78249e-21 -1.44746e-40)
(-7.59395e-22 3.69422e-21 0)
(-3.24203e-22 1.45211e-21 -1.45967e-38)
(-1.78538e-23 3.28191e-23 0)
(-6.13875e-23 2.19309e-21 2.48925e-38)
(-7.95204e-22 1.96002e-21 -1.50003e-38)
(1.8845e-23 1.31512e-21 0)
(3.89654e-22 1.24508e-21 0)
(2.4856e-23 1.01371e-21 -3.35039e-38)
(-6.24099e-24 1.72164e-21 0)
(-1.81627e-22 4.07711e-22 1.6262e-38)
(-2.32467e-23 6.09729e-22 1.1141e-39)
(-6.70074e-23 7.39618e-22 -5.5837e-40)
(-2.52421e-22 9.26832e-22 1.91343e-38)
(-6.12779e-23 2.11475e-22 3.76112e-38)
(-5.3126e-23 7.49576e-23 1.34585e-38)
(-8.9421e-23 3.26096e-22 -2.15159e-39)
(4.22642e-23 1.15732e-21 3.06801e-38)
(-3.73625e-21 3.1476e-21 2.98804e-40)
(-3.07508e-21 3.41036e-21 9.47946e-39)
(-3.24018e-21 2.16721e-21 5.8942e-39)
(1.98664e-22 2.05253e-21 0)
(5.85566e-22 1.28602e-21 1.6154e-38)
(-2.71553e-21 3.0287e-21 -9.56206e-39)
(3.38285e-22 6.89547e-22 0)
(-3.92738e-21 4.8714e-21 0)
(-1.84892e-22 7.25886e-22 1.6354e-38)
(-4.77198e-23 9.11049e-23 -2.8437e-38)
(-4.71397e-22 1.16312e-21 5.25096e-39)
(1.22677e-24 8.39255e-23 -2.85825e-38)
(-9.66626e-23 8.26458e-22 0)
(-1.21532e-22 5.44208e-22 0)
(-1.14121e-22 2.7086e-22 -1.51746e-38)
(-2.50376e-23 1.19693e-22 -5.56622e-38)
(1.28383e-23 4.53411e-22 -3.58201e-38)
(-4.08752e-21 3.81971e-21 7.13638e-39)
(-9.67609e-23 1.76726e-22 2.60989e-38)
(-9.62772e-23 2.78095e-22 0)
(2.91608e-22 1.50379e-21 0)
(-9.81505e-24 1.64255e-21 1.30531e-39)
(-4.73485e-23 7.30381e-22 3.52758e-38)
(-2.67257e-23 2.26304e-22 3.38361e-38)
(2.51035e-23 1.03673e-22 -1.64798e-38)
(-7.48629e-23 9.24716e-22 0)
(-1.22948e-22 3.43302e-22 0)
(3.74638e-23 1.81673e-21 -5.58293e-40)
(-3.71888e-22 1.99336e-22 -6.61506e-38)
(-1.32008e-22 1.01729e-21 1.04821e-39)
(-1.44254e-22 7.89317e-22 3.32333e-38)
(-1.01765e-21 3.69305e-21 -1.14973e-38)
(4.78731e-22 8.1143e-22 -1.62256e-38)
(-1.36716e-22 3.53624e-22 -1.60211e-41)
(-1.31807e-22 4.12872e-22 -3.63983e-38)
(1.25658e-20 -6.58588e-22 0)
(-1.26052e-22 1.13118e-21 0)
(-3.06104e-21 3.11004e-21 -9.80053e-39)
(-9.60716e-22 1.70981e-21 1.54869e-38)
(-3.97298e-22 3.03629e-21 0)
(-1.86247e-22 1.17507e-21 -3.35138e-38)
(1.92565e-22 1.66597e-22 3.23359e-38)
(-3.17187e-22 2.73614e-24 -1.43672e-39)
(-9.25199e-22 -1.08838e-22 3.66996e-38)
(-2.73254e-23 1.18925e-22 0)
(-1.36481e-23 3.38346e-21 -1.35676e-38)
(-6.12962e-22 6.25994e-22 2.5556e-38)
(5.82466e-22 4.22438e-21 2.70924e-38)
(4.5643e-23 3.48722e-23 2.53931e-38)
(1.19493e-22 2.0251e-22 6.55831e-40)
(-1.56845e-21 2.3523e-21 -1.40079e-38)
(3.35996e-23 -4.59325e-23 -3.54551e-40)
(-1.06619e-22 7.09957e-22 -7.77463e-39)
(8.42594e-23 1.71524e-23 1.07128e-40)
(3.80225e-22 6.02071e-22 -1.65519e-38)
(-2.12854e-22 1.24482e-21 3.32477e-38)
(-2.47093e-22 1.28383e-21 -1.33627e-40)
(-1.18217e-21 3.5931e-21 -1.1627e-38)
(5.46389e-21 2.134e-21 -2.62443e-39)
(-1.89269e-22 1.08794e-21 3.20831e-38)
(3.01119e-22 1.21583e-21 1.82323e-38)
(1.03196e-21 -2.73444e-21 0)
(4.3333e-21 -3.07085e-21 8.42878e-38)
(4.05779e-22 3.6568e-21 2.7361e-38)
(8.43249e-22 -5.06936e-22 -1.5183e-39)
(2.03313e-22 6.82684e-22 0)
(1.18907e-22 3.5131e-22 -1.54228e-38)
(3.12931e-23 -2.58782e-23 -2.55925e-38)
(2.37926e-22 4.15813e-22 3.51094e-41)
(-1.77354e-23 1.17394e-21 -3.14747e-41)
(3.22693e-22 4.67039e-22 1.92925e-38)
(-1.23668e-23 2.65631e-22 -5.32351e-38)
(8.96295e-24 9.13713e-22 -3.36059e-38)
(-4.6247e-23 1.85359e-21 2.74411e-41)
(-3.78943e-23 1.58217e-21 -2.75281e-41)
(-3.80516e-22 8.13621e-22 -2.34981e-38)
(6.09111e-24 1.37805e-21 3.11399e-41)
(6.53961e-23 1.67018e-21 -2.20261e-38)
(-8.63266e-24 1.35176e-21 2.99179e-38)
(-7.23792e-24 1.10123e-21 0)
(-2.00901e-23 1.33759e-21 0)
(-3.86179e-24 6.47405e-22 0)
(-4.23643e-23 1.46919e-21 2.91459e-41)
(1.74624e-22 2.08664e-22 0)
(-1.15063e-23 5.29232e-22 9.67591e-40)
(-2.32083e-24 3.68648e-22 0)
(-1.26121e-23 4.08689e-22 -2.33644e-38)
(-2.19337e-23 7.83441e-22 2.75281e-38)
(8.20162e-24 -2.6361e-23 1.30728e-38)
(-7.48088e-23 2.11932e-22 2.70101e-38)
(8.81417e-23 3.84376e-22 0)
(-4.70359e-24 1.85649e-22 2.81206e-38)
(1.12531e-21 4.1525e-21 -3.54194e-38)
(-5.72983e-22 -1.58994e-22 0)
(7.78837e-23 1.96138e-22 -1.31907e-38)
(7.073e-22 1.65681e-21 1.02623e-39)
(-8.4067e-25 3.29341e-22 2.60364e-38)
(-1.58947e-22 -8.72866e-23 -1.35979e-38)
(-8.65001e-24 4.45185e-22 -2.20259e-38)
(3.05048e-21 -1.78212e-21 -6.66278e-38)
(-6.19004e-24 7.15743e-22 2.92214e-38)
(-1.07933e-23 1.20581e-21 -2.99539e-38)
(-9.48028e-23 1.74001e-21 5.93518e-38)
(-2.66228e-22 1.4639e-21 3.32142e-38)
(-3.84136e-22 1.54272e-21 -3.14658e-38)
(-3.51964e-22 1.69121e-21 0)
(-3.55438e-23 2.30819e-21 1.63606e-38)
(-5.30314e-22 1.75117e-21 -1.05524e-39)
(-1.97882e-22 1.97964e-21 -2.81644e-38)
(-1.33817e-22 2.1372e-21 2.79156e-38)
(-2.36346e-23 1.95376e-21 -2.77938e-39)
(-8.70477e-23 2.07094e-21 0)
(7.55251e-22 2.32019e-21 -2.36025e-38)
(-3.61149e-22 1.14933e-21 2.23708e-38)
(1.43473e-22 2.31372e-21 0)
(-2.47449e-21 1.00609e-21 6.37533e-39)
(-1.06492e-21 1.7396e-21 5.52161e-39)
(7.97817e-23 2.47541e-21 1.95577e-38)
(-1.24066e-21 -1.61203e-21 8.49988e-38)
(5.18671e-22 2.69128e-21 -1.99181e-38)
(-2.68172e-21 2.08561e-21 -2.87693e-38)
(-5.9449e-22 2.22355e-21 1.6848e-38)
(3.48405e-22 2.61146e-21 0)
(1.16545e-21 2.50385e-21 0)
(3.36779e-21 -5.90901e-22 2.23784e-38)
(6.30947e-23 2.26129e-21 -3.60564e-40)
(-1.42665e-21 1.10863e-21 0)
(-4.87948e-21 3.95058e-21 0)
(-1.26325e-21 2.41575e-22 0)
(-1.43244e-21 4.73376e-21 1.50661e-38)
(-2.71666e-21 2.22193e-21 -2.0851e-37)
(1.99789e-21 2.30304e-21 -2.7804e-38)
(4.02248e-22 9.72135e-22 1.60933e-38)
(2.20319e-21 2.52113e-21 0)
(1.89819e-21 3.1674e-21 0)
(-6.97875e-23 1.19802e-21 0)
(-6.13582e-22 2.73458e-23 -4.19384e-38)
(2.44484e-21 2.31046e-21 -4.23433e-39)
(1.39074e-21 2.35819e-21 0)
(2.45988e-21 1.47029e-21 3.9746e-39)
(7.44478e-22 2.54348e-21 4.22367e-38)
(1.87467e-21 1.72685e-21 2.82306e-38)
(-5.28449e-22 4.09655e-21 -1.30586e-38)
(1.69075e-21 2.76036e-21 -2.82313e-38)
(-3.31246e-22 4.00387e-21 2.17943e-38)
(1.06706e-21 3.02752e-21 -4.33069e-41)
(5.04138e-25 5.79542e-22 -1.08894e-39)
(3.23018e-23 4.64504e-21 1.38166e-38)
(2.195e-22 3.77123e-21 1.32356e-38)
(-1.12636e-22 7.35526e-22 -2.85252e-38)
(9.14215e-22 3.28491e-21 0)
(3.92101e-22 2.93862e-21 1.33478e-38)
(-5.00936e-22 4.36909e-21 1.57241e-38)
(-3.16258e-21 3.01615e-21 4.6532e-39)
(7.54489e-22 2.8986e-21 0)
(6.0893e-22 3.22488e-21 0)
(-2.04042e-24 1.40987e-21 -2.57924e-38)
(2.47566e-23 4.16041e-22 0)
(-1.19238e-22 3.76773e-22 8.58366e-41)
(2.87498e-22 2.07459e-21 1.22937e-40)
(-4.76802e-23 7.91004e-22 -1.73305e-40)
(-1.86248e-24 8.02704e-22 0)
(4.72145e-24 6.22522e-22 -3.49076e-38)
(-6.01481e-22 4.49533e-21 7.34732e-39)
(-1.82867e-23 1.79362e-21 -1.48864e-38)
(1.22846e-22 7.46804e-22 -2.54112e-38)
(-1.79064e-21 2.52425e-21 0)
(8.59177e-24 7.26576e-22 0)
(-3.45202e-22 2.31823e-21 1.51879e-38)
(-7.2213e-22 2.13451e-21 5.69658e-41)
(-1.36224e-21 2.5658e-21 -7.45345e-41)
(-5.39974e-23 1.04583e-21 -3.4736e-38)
(-6.28311e-23 1.38699e-21 6.3374e-38)
(9.25134e-22 2.48673e-21 2.82736e-38)
(1.00716e-22 1.38952e-21 4.829e-38)
(1.83519e-22 8.18596e-22 0)
(2.58923e-22 8.62601e-22 5.48086e-40)
(3.07416e-22 1.32489e-21 -1.82732e-38)
(-1.3833e-21 2.04982e-21 1.39041e-38)
(-6.37349e-22 4.06219e-21 -1.21668e-38)
(-1.04072e-21 3.32042e-21 -8.82324e-39)
(-1.14529e-21 3.0937e-21 4.01081e-40)
(-1.12675e-21 -1.52777e-21 7.07881e-39)
(-1.72227e-21 4.00649e-22 1.98392e-38)
(7.59059e-22 1.82405e-21 -2.9056e-38)
(6.07111e-22 2.14543e-21 -5.02883e-38)
(-1.70394e-21 1.65788e-22 3.21751e-38)
(-4.68353e-22 9.15414e-22 -3.04105e-38)
(2.61102e-22 3.71742e-22 -1.6486e-38)
(6.10086e-24 1.72977e-21 -3.04177e-38)
(-5.2437e-23 9.01039e-22 1.86463e-40)
(1.74355e-21 2.23443e-21 0)
(-2.43977e-21 3.12157e-21 4.23153e-40)
(6.0023e-22 1.98909e-21 -3.54919e-38)
(4.27946e-22 1.67298e-21 0)
(1.15912e-22 4.43762e-22 2.01318e-38)
(-8.42186e-22 1.41433e-21 0)
(1.80567e-23 1.82021e-22 0)
(-2.06221e-21 3.28268e-21 1.17242e-38)
(-1.50656e-22 6.26983e-22 2.69945e-38)
(8.51042e-24 1.51052e-21 -8.78755e-41)
(-4.79991e-22 8.60035e-22 1.51234e-38)
(3.71031e-22 9.06449e-22 1.59668e-38)
(-1.66759e-21 2.99339e-21 1.92927e-38)
(1.19605e-23 4.29668e-22 -4.11328e-40)
(-9.98197e-24 3.55909e-22 -3.36726e-38)
(-2.04339e-21 3.15958e-21 -1.14267e-38)
(4.02375e-23 6.21925e-22 0)
(-5.77228e-22 1.41886e-21 -1.59669e-38)
(3.18107e-22 1.15086e-21 -1.4884e-38)
(-5.81934e-21 5.34828e-21 -2.66524e-39)
(-1.92697e-23 1.65613e-23 -1.43785e-38)
(8.85349e-22 2.07118e-21 5.49144e-38)
(-4.54e-23 1.72525e-21 -2.90018e-41)
(-1.11636e-22 1.30942e-21 -3.1244e-38)
(-1.47326e-22 7.57468e-22 -2.48534e-38)
(-1.45042e-23 2.93066e-23 -2.8398e-38)
(3.36387e-22 3.92789e-22 2.21408e-40)
(1.73491e-22 1.0269e-21 3.1551e-38)
(-2.11365e-24 8.31008e-24 1.46451e-38)
(-4.85295e-21 -2.44988e-21 0)
(-1.59484e-23 1.02637e-21 -2.53389e-40)
(-2.25447e-22 8.69293e-22 1.58449e-38)
(6.1438e-22 2.11696e-21 1.6458e-38)
(3.83077e-24 3.86954e-22 1.76057e-38)
(-8.44843e-24 1.97789e-22 5.44297e-38)
(-1.0005e-22 1.83998e-21 2.67034e-38)
(-2.91397e-23 7.72327e-23 3.47609e-38)
(-3.45607e-23 1.88988e-21 0)
(-5.00159e-23 1.25558e-21 -1.01273e-39)
(-1.19724e-23 6.70828e-23 -1.66575e-38)
(1.44948e-22 1.37038e-21 0)
(4.04941e-23 1.60709e-21 -2.33943e-38)
(2.85318e-23 1.15811e-21 -3.18836e-38)
(-1.05499e-21 5.15124e-21 1.54657e-38)
(6.89463e-24 1.12054e-23 0)
(-2.85856e-22 2.21793e-21 -8.35117e-39)
(8.36071e-24 1.14709e-23 -1.3354e-38)
(-4.02189e-21 8.01039e-21 0)
(-1.28716e-23 4.77481e-23 -1.95092e-38)
(-5.92556e-21 2.74699e-21 3.17634e-39)
(-3.53242e-23 9.77869e-23 9.67301e-39)
(-1.7492e-21 5.3804e-21 0)
(-3.48413e-21 -1.83283e-21 1.35789e-40)
(3.57972e-24 3.41596e-23 3.76411e-38)
(-4.64177e-25 4.12681e-22 0)
(-1.75908e-21 5.46033e-21 0)
(-4.45345e-22 5.43765e-22 0)
(-1.05176e-22 4.34096e-22 1.90069e-38)
(1.92273e-23 1.83346e-23 0)
(-1.23424e-21 1.66311e-21 -1.6377e-38)
(-2.74038e-22 4.21166e-21 -1.56387e-39)
(6.3407e-21 1.83927e-21 0)
(-9.17494e-22 6.56844e-22 -4.67663e-39)
(-6.37692e-23 4.18544e-22 0)
(-1.51199e-21 2.36856e-21 1.61826e-39)
(-3.60225e-23 8.69337e-22 4.69644e-38)
(3.16539e-22 9.32432e-22 1.8143e-38)
(-1.08325e-22 5.38129e-22 9.83318e-39)
(1.58847e-21 1.4635e-21 0)
(-4.58551e-23 3.86458e-21 -2.92341e-38)
(1.20216e-21 1.54509e-21 0)
(5.13966e-22 3.17363e-21 -8.57649e-39)
(-2.01803e-21 2.97499e-21 -2.60045e-39)
(3.13287e-22 3.90504e-21 0)
(1.20999e-22 2.08037e-21 3.67649e-39)
(-6.63527e-23 3.73733e-22 -1.94394e-38)
(9.22831e-21 -6.59204e-22 0)
(4.88307e-21 5.08227e-21 0)
(-1.49314e-21 8.7768e-22 -1.95219e-38)
(-1.19108e-21 3.10134e-22 0)
(3.52743e-22 2.53154e-21 1.11867e-38)
(-1.44762e-21 -1.70619e-22 9.60137e-38)
(2.852e-22 1.85194e-21 -1.52857e-38)
(-1.92183e-22 1.08435e-21 -3.35448e-38)
(9.30385e-24 1.15457e-21 0)
(-1.66512e-22 8.34277e-22 -7.06729e-38)
(-1.18445e-22 8.52672e-22 0)
(-7.76336e-22 3.29588e-21 -2.04701e-39)
(-4.90527e-21 8.34665e-21 0)
(-6.55661e-24 2.02703e-23 0)
(-4.12905e-21 -2.8596e-21 0)
(8.11707e-24 7.64191e-24 -1.38971e-38)
(-6.02178e-21 3.29055e-21 2.53846e-39)
(-5.43787e-21 -4.11579e-22 0)
(-3.1552e-22 -1.387e-21 0)
(6.06272e-24 -9.87982e-24 2.65573e-38)
(-1.04778e-21 -3.23878e-21 0)
(5.70535e-24 -9.18341e-24 -3.41252e-38)
(-5.28287e-21 5.86175e-21 1.77796e-39)
(2.80297e-23 2.76344e-22 1.90999e-38)
(-4.06883e-23 1.68747e-22 0)
(-1.13635e-22 6.05311e-22 1.77423e-38)
(-4.91015e-23 2.55302e-22 0)
(-4.13692e-21 6.70685e-21 0)
(-1.32422e-22 -2.45071e-22 0)
(4.49366e-23 2.01408e-22 1.13421e-39)
(-4.35173e-23 1.62905e-22 1.75518e-38)
(-5.5739e-21 6.44077e-21 -1.76482e-39)
(2.91334e-23 1.85693e-22 2.03363e-38)
(-3.34941e-23 6.30442e-23 2.0861e-38)
(-2.5433e-21 1.41794e-21 1.85587e-39)
(-5.01919e-22 6.40981e-22 1.60901e-38)
(-3.06882e-21 -4.27144e-21 -6.92641e-39)
(-7.90393e-22 3.94235e-21 -5.15211e-39)
(4.09855e-22 7.96735e-22 -1.2057e-38)
(1.42472e-21 1.76401e-21 7.28743e-39)
(6.50882e-22 7.66177e-22 -5.26041e-39)
(-6.92396e-22 3.23046e-21 2.12572e-38)
(-6.41237e-24 3.76782e-23 1.98975e-38)
(7.26691e-22 3.53361e-21 9.22229e-39)
(-3.33116e-23 1.95384e-21 1.7112e-39)
(-1.0055e-22 4.16088e-22 3.47018e-38)
(9.87843e-22 2.00424e-21 -1.85479e-38)
(3.35325e-21 5.78342e-22 0)
(5.29569e-21 2.01695e-21 -2.45949e-38)
(-1.36471e-22 6.7754e-22 -1.85731e-38)
(2.2959e-21 1.79071e-21 0)
(-5.24121e-23 3.96365e-22 -1.91817e-38)
(-8.26931e-22 1.28778e-21 0)
(-3.12971e-22 2.80486e-23 -2.41351e-38)
(-2.95437e-22 1.5883e-21 1.10041e-39)
(1.14852e-22 1.3636e-21 -2.20974e-38)
(-1.73384e-22 9.48636e-22 5.18549e-38)
(-2.35534e-22 1.2887e-21 -1.11753e-39)
(-1.87937e-22 9.69853e-22 -1.90783e-38)
(-2.34168e-22 6.91193e-22 -1.62094e-38)
(-1.93946e-22 1.08859e-21 2.06615e-38)
(-9.60551e-22 8.36467e-22 1.29873e-38)
(8.39909e-22 3.50382e-21 0)
(-5.933e-21 1.19393e-21 -3.77399e-40)
(2.54615e-23 3.68751e-21 -2.54111e-38)
(-9.25305e-23 5.21406e-22 0)
(-5.24756e-22 7.90595e-22 -2.45529e-38)
(3.35386e-21 5.67255e-21 0)
(-8.08418e-22 3.51505e-21 1.2763e-37)
(2.2904e-23 4.77652e-23 -1.89399e-38)
(2.58863e-23 9.06139e-23 -8.35092e-42)
(3.00482e-23 1.11696e-22 -3.14438e-41)
(1.05302e-23 4.57885e-24 3.14794e-38)
(-3.30038e-22 -1.24459e-21 0)
(-2.08665e-21 -3.46813e-21 2.44422e-39)
(-9.56145e-23 4.93608e-22 -4.36912e-38)
)
;

boundaryField
{
    back
    {
        type            empty;
    }
    front
    {
        type            empty;
    }
    left
    {
        type            noSlip;
    }
    top
    {
        type            uniformFixedValue;
        uniformValue    
        {
            type            scale;
            scale           
            {
                type            squarePulse;
                start           0.3;
                duration        0.3;
            }
            xScale          
            {
                type            constant;
                value           1;
            }
            value           
            {
                type            constant;
                value           (0 -0.7 0);
            }
        }
        value           uniform (0 -0 0);
    }
    right
    {
        type            noSlip;
    }
    bottom
    {
        type            zeroGradient;
    }
}


// ************************************************************************* //
