/*--------------------------------*- C++ -*----------------------------------*\
  =========                 |
  \\      /  F ield         | OpenFOAM: The Open Source CFD Toolbox
   \\    /   O peration     | Website:  https://openfoam.org
    \\  /    A nd           | Version:  9
     \\/     M anipulation  |
\*---------------------------------------------------------------------------*/
FoamFile
{
    format      ascii;
    class       volScalarField;
    location    "0.81";
    object      p;
}
// * * * * * * * * * * * * * * * * * * * * * * * * * * * * * * * * * * * * * //

dimensions      [0 2 -2 0 0 0 0];

internalField   nonuniform List<scalar> 
464
(
1.81204e-16
-3.80169e-16
-5.95855e-17
-5.78839e-17
-4.39439e-16
-5.95853e-17
7.51347e-17
-5.76359e-17
-6.82782e-17
-5.32692e-17
1.86606e-16
4.25555e-16
5.60971e-17
4.35213e-16
7.78144e-17
5.23982e-17
-8.01016e-17
-7.9057e-17
-5.44926e-17
-5.616e-17
-5.66505e-17
-5.90889e-17
-5.82413e-17
-5.834e-17
-5.82416e-17
-5.86513e-17
2.61107e-16
-5.47778e-17
2.29139e-16
-6.04256e-17
-6.01519e-17
-2.96808e-17
-2.24208e-17
-5.75272e-17
-6.04181e-17
-7.49431e-17
-7.40733e-17
-5.34271e-17
-5.41453e-17
3.25623e-18
-5.71031e-17
-5.81721e-17
-5.80152e-17
3.66769e-16
3.13952e-16
1.42863e-17
-5.50684e-17
-5.32037e-17
-5.19202e-17
-5.51631e-17
-5.69248e-17
-5.37027e-17
-6.02906e-17
-5.21763e-17
-5.12331e-17
-5.36023e-17
-5.46607e-17
-4.07595e-17
-3.81715e-17
-6.18026e-17
-5.19173e-17
-2.57418e-16
-3.99239e-17
-4.91805e-17
-1.67103e-16
-5.35841e-17
-1.54576e-17
-5.1369e-17
2.53547e-16
-4.95555e-17
-3.17457e-17
-2.18972e-16
1.60087e-16
-5.34265e-17
-8.07441e-17
-5.4011e-17
-2.49126e-17
7.79053e-17
-4.63713e-17
1.48134e-16
-3.83221e-16
-6.03642e-17
-6.11918e-16
-6.22897e-17
-3.83398e-16
-3.48753e-17
-1.81919e-16
-6.06322e-17
-5.74047e-17
-7.11894e-17
-3.42751e-16
-2.78836e-16
-1.82405e-17
3.81935e-16
-1.11358e-17
-2.87572e-17
-4.56603e-17
-5.94142e-17
-2.33622e-16
-5.62502e-17
-5.75252e-17
-5.29562e-17
-5.85422e-17
-4.23762e-17
-5.97743e-17
-6.06649e-16
-6.14484e-17
-2.03068e-17
-3.38861e-16
-5.32254e-17
-2.01496e-17
-5.4245e-17
-1.07311e-17
-1.82501e-16
-5.63595e-17
-5.72639e-17
-5.07184e-16
-6.31982e-17
-2.90337e-16
-6.0955e-17
-5.3599e-17
4.70219e-17
-1.45749e-16
1.70694e-16
-3.15769e-17
-3.27547e-17
-5.76475e-17
-1.14971e-17
-6.5854e-17
-5.46483e-16
-6.25243e-17
4.83976e-16
-5.28734e-17
-5.78772e-17
-6.03276e-17
-4.21348e-16
-6.32504e-17
-5.57416e-17
-6.37819e-17
-5.89946e-17
-6.21594e-17
-2.22125e-17
-2.70743e-17
-5.71501e-17
-6.35621e-17
-1.12347e-16
-5.69424e-17
-6.11485e-17
-4.95811e-17
-5.75783e-17
-5.78421e-17
-5.79175e-17
2.42844e-17
-3.96669e-17
-3.67264e-16
-5.98583e-17
-9.31078e-17
-5.63712e-17
-4.56943e-17
-2.86552e-16
-3.4827e-17
-5.64701e-17
-5.80574e-17
-5.66069e-17
-5.61667e-17
-6.24836e-17
-9.20899e-18
-5.71259e-17
-3.47306e-17
-1.86027e-17
7.74698e-18
-2.18454e-16
-1.22826e-16
-5.98989e-17
-4.21515e-17
-2.25549e-18
-5.56013e-17
-5.53935e-17
8.32103e-17
-7.37794e-17
-5.60524e-17
3.08714e-20
-1.03766e-16
-1.06916e-16
-7.35623e-17
-1.03894e-16
2.40818e-17
2.62456e-17
-8.17879e-17
3.12835e-17
-5.16867e-17
3.42106e-17
-5.23877e-17
-5.23281e-17
-3.92769e-17
-3.66815e-17
-5.71149e-17
-5.21567e-17
-8.42758e-17
-4.88967e-17
-5.03737e-17
-4.01483e-17
-5.13014e-17
-4.3978e-17
2.97019e-17
-5.24804e-17
-4.93536e-17
-4.36016e-17
-3.95661e-17
-1.72841e-16
-6.07529e-17
1.34221e-17
-5.15402e-17
-7.23294e-17
-5.64683e-17
1.66957e-17
-5.0315e-17
-5.18999e-17
2.38067e-16
-3.3894e-17
-1.00715e-16
-4.73551e-17
-4.64557e-17
-5.15215e-17
-5.44702e-17
-5.45268e-17
-5.283e-17
-5.38326e-17
-5.27257e-17
-5.06964e-17
-5.22534e-17
-5.58668e-17
-5.28435e-17
-4.32072e-17
-5.79093e-17
-4.81252e-17
-5.87723e-17
-5.22858e-17
-5.11628e-17
-6.36912e-17
-4.46499e-17
-5.08215e-17
-5.77338e-17
-5.05479e-17
-4.09256e-17
-7.04723e-17
-4.97171e-17
-5.80667e-17
-6.05184e-17
-5.67148e-17
-4.59848e-17
-6.5147e-17
-3.5101e-17
-5.17924e-17
-3.70698e-17
-4.68477e-17
-5.59357e-17
-5.88924e-17
-3.44648e-17
-3.18994e-17
-4.81139e-17
-3.47308e-17
-3.00274e-17
3.82782e-18
-3.96217e-17
1.85461e-18
-2.92868e-17
-5.59824e-17
5.52213e-17
-9.78452e-18
-5.89294e-17
-3.59839e-17
-2.75744e-17
1.86157e-17
5.86684e-17
-2.70622e-17
-2.19164e-17
-3.13433e-17
-2.01716e-17
-1.40763e-16
-4.1238e-17
-5.59355e-17
-2.73704e-17
-5.32688e-17
6.02909e-17
-6.42152e-17
-1.11675e-17
-1.20996e-16
-5.54342e-17
-4.76788e-17
-9.1737e-17
-5.35349e-17
-5.55344e-17
-5.39445e-17
-2.38879e-17
-2.0527e-17
7.17236e-18
2.93923e-19
8.12044e-19
-1.50763e-16
3.89309e-17
9.32216e-18
1.34572e-16
4.18502e-16
-6.47294e-17
-2.06598e-17
-2.2798e-17
-6.70731e-17
-2.61827e-16
-2.21262e-17
-4.82179e-17
-5.66747e-17
-3.67881e-17
2.56991e-17
-2.92837e-17
-4.35074e-17
-3.49736e-18
-1.65931e-16
-5.72588e-17
4.02989e-17
-6.00548e-17
-5.86854e-18
-2.1222e-16
3.56331e-18
-4.11795e-17
-5.22037e-17
-5.14292e-17
1.14505e-16
-5.50803e-17
-1.13984e-16
-5.63472e-17
-1.25353e-16
-5.83391e-17
-3.36049e-17
-4.52879e-17
-5.49442e-17
-5.96064e-17
-5.80213e-17
-3.80116e-17
-5.70887e-17
-5.77679e-17
2.68267e-16
-7.92135e-17
-1.14522e-16
-3.73974e-17
-5.65491e-17
-5.2015e-17
-2.31474e-17
-5.77484e-17
-4.37769e-17
-5.49073e-17
-5.84021e-17
-9.31231e-18
-1.60612e-17
-5.42595e-17
-2.4695e-16
-6.02403e-17
-5.59809e-16
-6.0487e-17
-3.62968e-16
-5.88324e-17
2.92091e-17
-6.02178e-17
-3.84692e-16
2.36516e-16
-5.48659e-17
-5.67474e-17
-8.44898e-17
5.68725e-16
-6.09576e-17
-5.76423e-17
4.7359e-16
1.00041e-16
-7.74735e-17
3.27893e-16
-5.86971e-17
2.05258e-16
-5.81897e-17
1.82404e-16
-6.07479e-17
-1.42902e-17
-5.26921e-17
-7.03361e-17
-3.42338e-17
-5.26586e-17
-2.40684e-17
-5.12041e-17
-5.95762e-17
-1.07608e-16
-7.82789e-17
-6.14493e-17
-6.45279e-17
-6.92077e-17
-5.97838e-17
-5.54109e-17
-5.68564e-17
-5.59388e-17
-5.87678e-17
-5.75921e-17
1.63639e-16
-2.07681e-16
-5.82022e-17
3.78146e-16
-5.67744e-17
2.63474e-17
1.67434e-16
4.79324e-16
-5.55087e-17
2.48311e-16
-5.58668e-17
-1.05233e-16
-5.62897e-17
-5.95423e-17
-5.90524e-17
-5.86779e-17
-1.82276e-16
6.67423e-16
-5.57038e-17
-5.8857e-17
-2.60046e-16
-5.6937e-17
-5.8119e-17
2.1206e-16
4.16757e-16
2.26165e-16
1.13983e-16
1.33905e-16
6.1851e-17
2.05291e-17
-6.2309e-16
-6.10967e-17
-3.05078e-17
-7.37091e-17
-6.05741e-17
-4.82602e-17
-9.7987e-17
-9.32854e-17
-5.91272e-17
-8.81002e-17
-6.17682e-17
-6.08391e-17
-6.43499e-17
-5.34192e-17
-5.51668e-17
-5.82747e-17
-5.55683e-17
-5.76843e-17
-5.78229e-17
-5.67377e-17
-5.91417e-17
-2.43271e-17
5.7868e-17
1.03996e-17
-5.92238e-17
-5.86574e-17
-7.53015e-17
-6.44823e-17
-5.54465e-17
-5.67217e-17
-5.62134e-17
-5.63615e-17
6.33002e-16
4.119e-16
-5.92236e-17
)
;

boundaryField
{
    back
    {
        type            empty;
    }
    front
    {
        type            empty;
    }
    left
    {
        type            zeroGradient;
    }
    top
    {
        type            zeroGradient;
    }
    right
    {
        type            zeroGradient;
    }
    bottom
    {
        type            uniformFixedValue;
        uniformValue    
        {
            type            scale;
            scale           
            {
                type            squarePulse;
                start           0.3;
                duration        0.3;
            }
            xScale          
            {
                type            constant;
                value           1;
            }
            value           
            {
                type            constant;
                value           15.1;
            }
        }
        value           uniform 0;
    }
}


// ************************************************************************* //
