/*--------------------------------*- C++ -*----------------------------------*\
  =========                 |
  \\      /  F ield         | OpenFOAM: The Open Source CFD Toolbox
   \\    /   O peration     | Website:  https://openfoam.org
    \\  /    A nd           | Version:  9
     \\/     M anipulation  |
\*---------------------------------------------------------------------------*/
FoamFile
{
    format      ascii;
    class       surfaceScalarField;
    location    "0.81";
    object      phi;
}
// * * * * * * * * * * * * * * * * * * * * * * * * * * * * * * * * * * * * * //

dimensions      [0 3 -1 0 0 0 0];

internalField   nonuniform List<scalar> 
663
(
-4.13266e-22
4.86779e-22
-7.35133e-23
1.07394e-22
5.16334e-22
-2.1196e-25
2.1196e-25
3.25711e-24
-1.62691e-24
-1.63019e-24
-2.26823e-22
3.34217e-22
1.24872e-26
-2.24453e-25
-5.19277e-22
1.06011e-22
1.10657e-24
2.15051e-24
-6.12674e-22
2.56856e-22
3.55818e-22
-6.89435e-23
-5.43731e-22
-1.05211e-22
5.9199e-22
2.79035e-22
-1.0239e-22
-1.76645e-22
-2.62421e-22
2.45942e-22
3.30924e-23
1.07426e-22
-1.1688e-22
9.45389e-24
1.14639e-22
-7.21349e-24
5.86992e-24
-2.01915e-23
1.43216e-23
9.08595e-24
-3.21602e-24
1.72107e-25
-1.72107e-25
7.58867e-24
-5.96192e-24
-1.62675e-24
1.30436e-24
6.2843e-24
-4.2981e-24
-2.74915e-24
7.04725e-24
-7.27134e-24
2.97324e-24
-4.03251e-24
3.30809e-24
7.2442e-25
3.62543e-25
-1.98949e-24
-2.2355e-24
-1.79704e-24
-2.82201e-24
-3.08323e-23
3.36543e-23
3.42605e-24
-1.26771e-24
-2.15834e-24
9.95308e-23
-1.02353e-22
5.77965e-24
-5.00418e-24
-7.75467e-25
2.53662e-24
3.24305e-24
-1.19365e-22
1.05154e-22
1.42109e-23
5.23485e-24
-1.246e-22
1.0185e-22
-8.80398e-23
-1.38102e-23
5.8511e-23
4.33391e-23
9.60415e-24
-5.18203e-25
6.178e-24
3.42613e-24
-5.55107e-25
7.27223e-25
8.38708e-25
2.58732e-24
-1.07742e-22
5.75011e-24
1.01992e-22
-1.6415e-24
-4.32044e-24
5.39558e-24
-7.83319e-24
2.43761e-24
-1.87572e-24
-7.4325e-23
4.34927e-23
-1.76715e-22
6.897e-24
-4.98834e-24
8.46187e-24
-3.47353e-24
-7.76077e-24
7.54996e-24
2.10816e-25
-1.56592e-24
1.56592e-24
-1.82286e-24
2.98974e-24
-4.63124e-24
4.47641e-24
7.50535e-25
-5.22694e-24
-3.74727e-24
8.43289e-25
2.90398e-24
-2.84063e-24
-2.90777e-24
5.7484e-24
5.78909e-24
-8.62975e-24
-2.09831e-24
6.57471e-24
-7.08662e-24
5.47953e-24
-6.36163e-24
8.82093e-25
1.09032e-23
-5.42366e-24
-3.0242e-24
-7.23141e-25
-7.27217e-25
-1.99549e-25
2.10195e-22
-2.09996e-22
1.67946e-24
2.65902e-23
-2.82697e-23
2.76574e-24
-5.16282e-24
2.39708e-24
-4.01863e-22
3.32919e-22
2.24402e-24
-5.15182e-24
-3.85968e-23
1.7345e-23
2.12518e-23
2.31643e-24
-2.81855e-22
-2.18768e-24
7.97677e-24
5.7163e-24
5.18691e-24
-4.02062e-22
1.12863e-22
-1.33325e-23
-1.85277e-24
-5.908e-24
-1.44901e-23
1.38493e-22
-1.24002e-22
-2.63964e-24
-2.94951e-23
-9.10179e-24
-4.91502e-22
4.17989e-22
-3.46867e-24
-2.89295e-24
-4.01655e-24
1.29887e-22
2.62518e-22
-3.92405e-22
-1.36534e-24
1.29916e-24
6.61817e-26
7.77771e-23
-1.04321e-22
2.65442e-23
4.99991e-25
1.45729e-25
-6.4572e-25
2.07664e-22
1.5826e-23
-1.41465e-23
2.97857e-22
-8.76616e-23
-8.65306e-25
-4.88058e-24
3.74217e-24
1.13841e-24
-1.45562e-22
1.31072e-22
-2.3314e-24
-1.39544e-22
9.04426e-23
-3.2545e-23
-5.78976e-23
-1.45893e-22
-2.33361e-22
3.79254e-22
5.25877e-23
3.7855e-23
-2.90489e-24
-7.02911e-25
-3.56986e-25
1.65617e-24
1.06082e-23
5.47589e-23
-6.53671e-23
2.04898e-22
-4.67319e-22
-3.20275e-24
-1.67786e-24
2.74501e-25
7.27546e-24
2.17094e-24
-5.3737e-24
2.38693e-23
8.12845e-23
-6.41705e-23
-1.04321e-22
1.45758e-25
6.31057e-23
-4.57607e-23
-5.25118e-23
5.01805e-23
-8.25425e-24
7.34721e-24
9.07038e-25
7.84869e-23
4.03291e-23
-1.18816e-22
6.60913e-24
3.05607e-23
-1.16363e-22
1.26971e-22
-4.63155e-25
4.2053e-24
-3.20851e-24
5.37946e-24
-2.65442e-23
-2.59676e-23
6.17616e-25
6.45668e-25
-1.26328e-24
5.47589e-23
3.24611e-24
-2.62846e-24
-7.97977e-24
-1.63407e-22
3.68305e-22
1.63457e-22
1.34399e-22
-2.41678e-22
3.47689e-22
2.15423e-23
1.40446e-22
-6.19593e-23
2.93578e-22
-1.30121e-22
-7.31672e-23
1.13496e-22
-1.28413e-24
5.97951e-23
2.66717e-23
-2.66718e-23
1.77825e-24
-4.98675e-24
-8.41543e-25
-4.5952e-24
5.43675e-24
-2.59677e-23
-1.26325e-24
1.20759e-24
-3.36595e-24
-2.83367e-24
2.83367e-24
2.00331e-24
-2.84486e-24
-6.62283e-23
-4.58888e-24
9.77578e-24
4.91631e-24
-2.0033e-24
7.40044e-25
2.43622e-24
1.36056e-22
-3.14447e-24
4.92274e-24
2.38082e-24
-2.05367e-24
-3.10914e-24
-2.56776e-24
-2.6591e-25
7.1117e-25
-3.85562e-24
-6.58935e-24
1.60262e-24
-1.34934e-23
1.13206e-22
-9.97126e-23
1.06877e-22
3.35694e-23
2.87912e-23
2.84487e-24
-1.1187e-26
-9.18703e-24
-1.10045e-23
-2.396e-24
3.10719e-24
1.30171e-22
1.35603e-22
-8.54229e-23
2.95427e-23
-5.49801e-23
2.54374e-23
-5.13298e-25
-1.88268e-24
1.00979e-23
-1.341e-22
-2.56775e-24
-4.17112e-25
-2.15064e-24
1.21063e-23
1.74364e-23
-6.14275e-24
5.72559e-24
-9.68486e-24
1.16912e-22
-1.07227e-22
-5.28329e-23
5.28329e-23
-3.98677e-23
-1.29653e-23
4.79418e-23
-6.29309e-23
6.53671e-23
-7.34435e-24
6.29309e-23
1.2968e-23
-8.61352e-23
-9.69232e-25
4.55956e-25
9.58666e-25
-1.92789e-24
-1.26335e-22
1.12841e-22
-8.81154e-24
-4.97195e-23
5.8531e-23
6.41406e-24
-5.4554e-24
7.90629e-24
2.85437e-23
-3.645e-23
2.45224e-23
-2.45224e-23
1.57109e-23
3.53105e-23
-4.49954e-23
-3.53105e-23
1.07881e-23
1.60754e-23
-8.16908e-24
1.60754e-23
-2.68996e-23
3.98677e-23
-7.56872e-24
1.2826e-24
6.28612e-24
2.68996e-23
-1.08242e-23
3.19394e-24
-3.19394e-24
-2.93287e-25
5.28546e-25
-5.95221e-24
-4.49518e-24
5.02372e-24
-4.83838e-24
-6.99761e-24
4.80989e-24
-7.11517e-25
-3.91607e-24
-5.79104e-25
2.18913e-24
-2.90065e-24
-5.70361e-24
1.78752e-24
2.90066e-24
2.1891e-24
1.29532e-24
-1.29532e-24
7.16187e-25
-8.16908e-24
2.31643e-24
-9.72215e-25
9.72216e-25
-2.15065e-24
-4.49953e-23
-5.04752e-23
5.04752e-23
7.16187e-25
1.57109e-23
8.93768e-25
3.69466e-24
3.16138e-25
-2.90318e-24
3.21932e-24
7.91468e-25
-5.7551e-25
-5.35608e-24
5.93159e-24
-2.46721e-24
3.25868e-24
-7.01703e-26
-6.45672e-25
-3.57536e-24
-1.7807e-24
6.99547e-24
-1.05708e-23
-1.32644e-23
-7.13506e-24
5.35439e-24
-3.53864e-24
2.09252e-23
-1.87373e-23
-2.18784e-24
1.72292e-24
1.92023e-23
3.45683e-24
-2.74204e-23
8.683e-24
-9.8076e-24
3.58092e-23
-3.7997e-23
-8.84788e-24
9.39466e-24
-1.88751e-23
-1.30988e-23
1.69341e-23
1.05523e-24
-5.89361e-24
-3.03582e-24
-3.49612e-23
-1.09545e-24
5.48325e-23
-5.78683e-23
-4.80599e-23
-6.4304e-23
2.2091e-24
6.20949e-23
-3.86852e-23
-2.95223e-23
4.64564e-23
2.53102e-23
-2.05222e-24
5.15943e-24
-1.09545e-24
-3.89938e-23
7.88375e-23
-1.02847e-22
2.40097e-23
3.0282e-23
-6.92758e-23
-7.97744e-23
-1.57603e-23
9.55347e-23
-4.75093e-23
7.77914e-23
-9.58268e-23
1.21178e-22
-2.53514e-23
3.13282e-23
-8.37206e-23
-4.84461e-23
5.41287e-24
1.43054e-22
-1.336e-22
4.24057e-23
7.87724e-23
-7.35555e-24
2.29745e-23
-7.14206e-23
-2.32847e-24
1.97648e-23
1.17702e-22
1.26627e-22
-4.00773e-23
6.30518e-23
4.34795e-25
-1.15096e-24
1.15096e-24
1.96931e-23
7.77068e-23
-5.7942e-23
4.31336e-24
6.02953e-25
6.6673e-25
-2.94854e-23
-1.04115e-22
8.62687e-23
-8.56191e-24
-2.22507e-24
3.37604e-24
4.91287e-23
-1.79249e-22
-2.77323e-24
3.12886e-23
1.12524e-22
-8.12352e-23
1.61652e-22
-5.52572e-24
-4.24479e-24
-4.35516e-23
7.55075e-24
-3.37598e-24
-4.7931e-24
-4.82802e-23
5.91044e-23
-1.31308e-22
-7.42752e-23
-2.1784e-22
1.10881e-22
1.06959e-22
1.00049e-22
2.30421e-24
3.87378e-24
4.19731e-24
-8.19887e-23
-7.19985e-25
-5.66318e-23
1.00531e-22
4.8676e-24
2.17548e-22
-8.73772e-23
3.35754e-23
-9.66272e-23
-7.03396e-23
-6.09679e-23
-5.95918e-25
1.70246e-24
9.12133e-23
-2.23127e-24
-2.77289e-24
-1.51982e-23
-2.98316e-24
2.98316e-24
-1.42203e-22
7.29138e-24
-1.00709e-24
5.72929e-22
-3.64262e-22
6.0298e-25
-6.0298e-25
6.65511e-24
-3.78882e-24
4.81598e-24
-9.65494e-25
9.65494e-25
-5.4177e-25
-3.69568e-25
3.69568e-25
1.09883e-22
-6.50169e-22
1.2251e-22
-3.28888e-24
-7.7088e-26
1.24405e-23
1.37064e-24
-1.99912e-23
1.6251e-22
1.24928e-26
1.6251e-22
1.24928e-26
7.78262e-24
5.08551e-22
3.19982e-25
-1.08018e-25
-1.35684e-22
-1.58251e-25
-5.81885e-23
3.5863e-22
1.56565e-26
-1.87771e-25
-2.87374e-23
2.74533e-23
5.97642e-23
-3.40388e-24
7.51777e-26
2.94389e-25
1.6821e-23
-1.17447e-22
-2.97937e-23
2.06066e-23
-1.6821e-23
-6.58338e-23
-4.9179e-24
4.64587e-23
2.66385e-24
-3.92452e-23
5.27416e-23
-6.35297e-23
-2.15628e-23
1.92688e-24
9.29834e-23
6.73489e-23
-2.59247e-24
4.7064e-24
-1.49038e-24
-3.26127e-24
1.21092e-23
2.52219e-25
-2.5222e-25
1.61119e-24
4.53835e-24
-6.46244e-24
-1.77334e-24
5.18381e-24
4.60604e-24
5.38986e-22
3.19977e-25
4.68513e-22
7.51883e-26
4.37245e-22
-2.3218e-22
1.59813e-22
-1.59813e-22
1.56647e-26
-2.30749e-22
1.56647e-26
-3.69007e-22
-1.74724e-22
1.22338e-24
-1.30049e-24
1.2651e-24
-1.54813e-24
2.83031e-25
-4.1393e-24
-1.23439e-24
5.97642e-23
-5.99484e-25
4.01969e-25
-1.48505e-22
4.64587e-23
3.92452e-23
-2.11659e-25
4.7064e-24
1.49038e-24
4.86988e-24
3.24312e-24
-5.62894e-24
-2.65569e-24
-3.03141e-24
-9.69012e-26
-9.0861e-26
6.96373e-25
)
;

boundaryField
{
    back
    {
        type            empty;
        value           nonuniform List<scalar> 0();
    }
    front
    {
        type            empty;
        value           nonuniform List<scalar> 0();
    }
    left
    {
        type            calculated;
        value           uniform 0;
    }
    top
    {
        type            calculated;
        value           uniform 0;
    }
    right
    {
        type            calculated;
        value           uniform 0;
    }
    bottom
    {
        type            calculated;
        value           nonuniform List<scalar> 8(-6.23728e-22 -2.08667e-22 5.40285e-22 -3.89333e-22 -5.31203e-22 3.90562e-22 6.17018e-22 2.05066e-22);
    }
}


// ************************************************************************* //
