/*--------------------------------*- C++ -*----------------------------------*\
  =========                 |
  \\      /  F ield         | OpenFOAM: The Open Source CFD Toolbox
   \\    /   O peration     | Website:  https://openfoam.org
    \\  /    A nd           | Version:  9
     \\/     M anipulation  |
\*---------------------------------------------------------------------------*/
FoamFile
{
    format      ascii;
    class       volVectorField;
    location    "0.81";
    object      U;
}
// * * * * * * * * * * * * * * * * * * * * * * * * * * * * * * * * * * * * * //

dimensions      [0 1 -1 0 0 0 0];

internalField   nonuniform List<vector> 
464
(
(-1.24547e-14 -6.77749e-15 -7.68825e-34)
(-8.06685e-15 1.61051e-14 0)
(2.36858e-18 2.98222e-18 0)
(7.70029e-17 -2.92224e-18 3.49214e-33)
(-5.78819e-15 1.26818e-14 0)
(2.07092e-18 3.17224e-18 -9.02046e-34)
(-1.18957e-14 -3.73806e-15 7.6213e-33)
(7.28636e-17 -1.50328e-17 0)
(-1.46368e-14 5.39821e-16 -5.27936e-34)
(-1.38575e-14 4.36702e-15 -6.3434e-33)
(-9.8999e-15 -8.79263e-15 6.27552e-34)
(-4.19121e-15 -4.52816e-15 -6.40111e-34)
(-1.29493e-14 -1.14671e-15 -2.33155e-34)
(-2.97734e-15 -5.14403e-15 0)
(-7.97935e-17 3.89016e-15 8.84499e-34)
(7.80686e-17 3.3718e-15 -3.74384e-33)
(2.39081e-16 5.23242e-16 0)
(1.16037e-16 3.16961e-16 -1.83098e-33)
(3.68178e-18 -3.00116e-18 -2.50829e-33)
(-7.23605e-17 1.89404e-16 3.25503e-33)
(-5.95231e-17 2.0631e-16 -4.7832e-33)
(4.82987e-17 2.11522e-16 8.32454e-34)
(4.14196e-17 2.13701e-16 -4.46788e-34)
(8.64136e-17 2.66222e-17 0)
(5.60978e-17 2.15256e-18 -3.58662e-33)
(8.51266e-17 4.37231e-17 1.68013e-33)
(-9.97884e-16 1.64274e-15 -7.96896e-33)
(4.43392e-17 -6.45131e-17 -3.28407e-33)
(-1.40097e-15 2.34186e-15 0)
(7.00956e-17 1.31353e-16 0)
(8.78018e-17 1.12206e-16 2.11229e-34)
(1.22564e-15 3.38167e-15 1.62347e-35)
(9.35583e-16 3.76543e-15 -4.07052e-35)
(1.08739e-15 2.26966e-15 -3.27715e-33)
(1.30293e-15 1.93938e-15 3.30283e-33)
(7.9095e-17 2.06104e-16 4.63881e-33)
(9.91879e-17 2.29966e-16 -4.23103e-33)
(8.76745e-18 -1.62949e-17 -3.92004e-34)
(3.36397e-17 -7.73088e-17 4.7239e-35)
(3.08048e-16 3.15077e-15 0)
(-6.29585e-17 1.75484e-16 4.98744e-33)
(-9.48435e-19 2.3782e-16 0)
(1.25912e-17 2.26158e-16 -1.18639e-33)
(-1.61857e-15 8.8864e-18 -1.93122e-32)
(-3.18547e-15 -1.52372e-15 1.9709e-32)
(3.15138e-16 3.72748e-15 4.82688e-35)
(7.5816e-17 -1.83477e-16 3.18375e-33)
(1.0812e-17 -1.98928e-16 -1.39793e-35)
(7.39507e-18 -2.9719e-17 0)
(2.4622e-17 -3.64085e-17 3.79533e-34)
(-4.76123e-17 1.65683e-16 -3.3979e-33)
(3.49423e-17 -1.26429e-16 -1.9409e-34)
(-1.5915e-17 8.66501e-17 -2.42608e-33)
(-7.44893e-17 -1.42086e-16 -2.97932e-33)
(-6.33005e-17 -2.04195e-16 -9.64611e-35)
(4.61638e-17 -1.6715e-16 3.15833e-33)
(7.50896e-17 -1.74142e-16 0)
(1.54663e-16 -1.54159e-16 0)
(1.10565e-16 -2.04277e-16 -2.08518e-33)
(-9.70753e-18 1.02009e-16 0)
(1.26848e-17 -4.16431e-17 3.07489e-33)
(-6.62532e-15 3.32189e-15 2.77606e-32)
(6.70124e-16 -2.35738e-16 4.27704e-33)
(-6.22154e-17 -8.50175e-17 -2.92721e-33)
(-1.14165e-14 4.0579e-15 -2.77605e-34)
(-5.52016e-17 -1.00301e-16 -3.16442e-33)
(6.66521e-16 -8.53653e-16 -1.06645e-33)
(1.31002e-17 -7.22332e-17 -2.86499e-33)
(-7.22229e-15 -6.2335e-15 -7.03451e-33)
(-6.38581e-17 -2.02287e-16 2.9104e-33)
(1.71361e-16 -2.62738e-16 2.08086e-33)
(-9.12621e-15 5.43735e-15 -1.47391e-32)
(-9.15268e-16 3.29076e-15 0)
(2.88364e-17 -2.08847e-16 3.19922e-33)
(3.26521e-16 -4.06451e-15 -4.13512e-33)
(5.23208e-17 -1.15356e-16 3.21752e-33)
(6.37027e-16 -6.16025e-16 -1.43453e-33)
(-1.415e-14 -6.53851e-15 -7.54682e-33)
(6.31141e-17 -9.15552e-17 -2.73268e-33)
(-3.38921e-16 3.27891e-15 3.21741e-33)
(-5.6248e-15 8.0141e-15 0)
(2.11093e-17 2.12236e-17 8.68677e-34)
(-1.29723e-15 2.47258e-15 -3.55545e-32)
(7.60686e-18 1.44934e-17 3.80612e-33)
(-3.37994e-15 4.59022e-15 0)
(4.38752e-16 -2.52455e-16 9.64547e-35)
(-6.51786e-15 1.32499e-15 -1.31845e-32)
(2.14759e-17 3.31551e-17 0)
(1.13666e-16 -3.11489e-17 0)
(4.20079e-16 -4.03921e-15 -3.66133e-33)
(-4.08548e-15 2.93793e-15 2.03771e-32)
(-8.56767e-15 8.52883e-15 0)
(1.28902e-15 -1.65612e-15 8.97595e-34)
(-5.71546e-15 -1.08887e-14 -1.92396e-32)
(1.17069e-15 -2.12998e-15 -8.76754e-34)
(8.16338e-16 -4.4674e-16 -2.04475e-33)
(-1.55332e-17 -1.23229e-16 2.73902e-33)
(3.78798e-17 2.61144e-17 -7.96691e-34)
(-1.2618e-16 -2.25938e-15 -1.55603e-32)
(-1.1258e-14 8.21484e-17 -2.79927e-35)
(1.18551e-16 4.11781e-18 0)
(1.69841e-18 -2.27018e-16 1.72899e-34)
(1.28068e-16 2.80783e-17 0)
(1.33983e-15 2.92076e-15 -1.5886e-35)
(1.12328e-15 2.81303e-15 0)
(-8.61727e-16 2.23887e-15 -2.83991e-32)
(2.52037e-18 2.34296e-18 0)
(9.77892e-16 -1.05778e-15 1.03781e-33)
(-2.20737e-15 6.85656e-16 -2.0399e-32)
(-1.98359e-17 -2.19767e-16 0)
(1.23256e-15 -2.92081e-15 0)
(4.71704e-17 -2.15196e-16 -3.25014e-33)
(9.52091e-16 -1.41503e-15 0)
(-4.86316e-16 -3.33481e-15 9.59611e-33)
(1.19337e-16 -5.97206e-17 1.06978e-34)
(1.37646e-16 6.03261e-18 -5.48801e-35)
(-7.87346e-16 -5.17612e-18 2.7928e-32)
(1.06511e-17 3.75637e-17 4.05749e-33)
(-1.56015e-16 -1.15672e-15 1.25162e-32)
(3.04918e-17 7.48691e-17 -2.26926e-34)
(5.06632e-18 -2.3512e-16 3.04006e-33)
(-9.25767e-15 -3.47664e-16 -9.87433e-35)
(-8.21459e-15 1.03356e-15 6.04051e-33)
(-9.31337e-15 -2.85352e-15 -6.57717e-33)
(3.34853e-16 -3.40248e-16 0)
(1.38218e-15 -3.08021e-15 2.15904e-33)
(-7.07001e-15 -1.95943e-17 -6.09315e-33)
(7.77871e-16 -2.83864e-15 0)
(1.0884e-15 1.50797e-15 0)
(-5.69132e-16 5.14054e-16 2.75438e-32)
(5.10504e-18 1.24576e-17 -2.95594e-33)
(-6.35508e-16 -5.12836e-16 -2.2094e-32)
(5.97498e-18 -1.31939e-17 -2.51582e-33)
(1.33786e-16 3.94486e-17 0)
(2.42522e-17 1.59258e-16 0)
(-3.37739e-16 -5.81396e-16 -2.21485e-32)
(6.05184e-18 2.59762e-17 -6.04747e-33)
(7.39979e-17 -7.01728e-17 -3.40904e-33)
(-1.06283e-14 1.76261e-15 6.81695e-33)
(-5.06838e-19 5.90746e-17 2.78595e-33)
(9.13448e-18 9.44076e-17 0)
(1.46327e-15 -2.36777e-15 0)
(9.16053e-17 -2.09147e-16 3.23515e-34)
(1.31876e-16 -5.14929e-17 3.44807e-33)
(1.15242e-17 6.53893e-17 3.69713e-33)
(4.86828e-17 -3.756e-15 -7.5827e-33)
(1.24548e-16 5.74331e-18 0)
(4.06729e-17 6.21061e-17 0)
(-8.26202e-17 -1.28441e-16 -6.81755e-35)
(-4.12412e-18 1.08665e-16 -6.73842e-33)
(1.03175e-16 5.25336e-17 1.07927e-34)
(1.19391e-16 1.03986e-16 3.37868e-33)
(-2.32745e-15 1.99303e-15 1.98683e-33)
(1.02152e-15 -3.63324e-15 -2.16861e-33)
(-4.06597e-16 -1.52704e-15 -1.83645e-35)
(2.91286e-18 1.11385e-16 -3.86616e-33)
(2.22074e-16 6.9596e-16 0)
(7.8881e-17 9.96624e-18 0)
(-7.49066e-15 -1.79152e-18 -5.95471e-34)
(-2.54735e-15 -7.11769e-16 1.65695e-32)
(-1.37255e-15 -1.61196e-17 0)
(4.65891e-17 6.00786e-17 -3.44674e-33)
(3.705e-16 -3.51498e-15 6.99611e-33)
(-3.37762e-18 5.32915e-17 3.35497e-35)
(-1.1426e-17 9.40839e-17 3.35597e-33)
(6.0898e-18 4.22427e-17 0)
(-3.27176e-16 8.54264e-16 -1.10143e-33)
(-2.4333e-17 1.71039e-16 3.49313e-33)
(4.88691e-16 2.86754e-15 2.48681e-33)
(9.99984e-17 -1.07869e-15 1.70971e-33)
(2.10748e-16 -1.7399e-15 -1.05423e-33)
(-4.29548e-15 -3.6419e-16 -1.11862e-32)
(6.36535e-17 -2.4063e-15 -2.71608e-33)
(2.88333e-17 2.02313e-16 -8.27057e-34)
(1.72212e-16 -2.1727e-15 1.8862e-33)
(5.18682e-16 -2.16482e-15 -5.68225e-35)
(1.19693e-17 6.67372e-18 3.42081e-33)
(-2.41719e-17 5.938e-17 -1.32709e-35)
(-3.29605e-15 1.89647e-15 3.66689e-33)
(4.46403e-16 1.4277e-15 6.10332e-34)
(-2.35945e-17 1.59668e-16 3.26057e-33)
(3.25236e-16 -8.81083e-16 -2.51479e-35)
(9.1581e-17 5.10598e-16 0)
(1.60617e-16 7.8488e-16 -6.69197e-33)
(1.54474e-16 1.62063e-15 9.94811e-34)
(1.81814e-16 1.19111e-15 -1.60122e-34)
(1.18139e-16 -4.56909e-16 0)
(7.82285e-17 -3.18116e-16 1.44349e-33)
(5.83441e-17 -1.29233e-15 -7.84763e-33)
(2.03758e-16 -1.25345e-15 -1.69353e-36)
(-2.63501e-17 -2.16412e-16 -3.02651e-36)
(1.66851e-16 -8.07741e-16 -1.80567e-33)
(-4.81786e-21 -6.30137e-17 -4.99632e-33)
(-8.95932e-18 -1.99967e-16 -3.20588e-33)
(2.31927e-17 -1.79051e-16 2.20863e-36)
(3.19148e-18 -1.4068e-16 -2.21563e-36)
(-4.29417e-17 1.80266e-16 -3.21183e-33)
(-3.7944e-17 -2.29129e-16 2.99431e-36)
(9.34211e-17 7.58446e-16 -3.74991e-33)
(-4.47599e-17 -1.83876e-16 2.84498e-33)
(-2.61011e-17 -1.77849e-16 0)
(-1.76062e-17 -1.1213e-16 0)
(-1.24632e-17 -9.8512e-17 0)
(-3.93042e-17 -1.47314e-16 2.6093e-36)
(1.00161e-16 -5.40175e-16 0)
(-4.7308e-18 -1.16448e-16 6.34407e-35)
(-6.92848e-18 -4.16073e-17 0)
(-6.66824e-18 -2.21205e-17 -2.17168e-33)
(-1.22421e-17 -4.08108e-17 2.19247e-33)
(-2.69522e-17 -1.35525e-15 7.05848e-33)
(3.88158e-18 5.7706e-17 2.8645e-33)
(5.21952e-17 -1.57241e-16 0)
(6.39237e-18 -4.53493e-17 2.46123e-33)
(1.17818e-17 1.56291e-17 -3.27788e-33)
(-6.9825e-18 4.18366e-17 0)
(1.10882e-16 -8.07658e-16 5.83729e-34)
(5.42593e-17 1.00425e-15 2.92326e-33)
(-4.07909e-18 -5.69417e-17 2.49276e-33)
(-1.61844e-16 1.15925e-15 3.56261e-33)
(-1.33808e-18 -8.81386e-18 -1.75425e-33)
(8.85289e-17 3.33203e-16 4.93554e-33)
(-1.62016e-17 -6.85517e-17 2.71607e-33)
(-3.21562e-17 -1.40442e-16 -2.84841e-33)
(-9.07429e-17 -9.23623e-17 6.06224e-33)
(-5.71203e-17 6.55834e-18 3.31021e-33)
(-8.15147e-17 5.85573e-17 -3.14046e-33)
(-9.36027e-17 7.73859e-18 0)
(-1.8271e-17 1.30856e-16 1.5623e-33)
(-8.68826e-17 5.12666e-17 -9.52794e-35)
(-6.20401e-17 3.08263e-18 -3.13663e-33)
(-1.04054e-17 5.17319e-17 3.10893e-33)
(3.98518e-17 1.62964e-16 -4.06057e-34)
(1.53855e-16 1.60209e-16 0)
(3.09086e-16 -1.34767e-16 -2.27403e-33)
(1.86604e-17 1.69392e-16 3.52269e-33)
(7.11109e-17 8.34715e-18 0)
(5.55585e-16 4.27006e-16 -3.78724e-35)
(4.39016e-16 2.66907e-16 3.06188e-35)
(1.81027e-16 6.77575e-17 2.84286e-33)
(3.98242e-16 4.81217e-16 3.87688e-33)
(3.30132e-16 1.06093e-17 -2.89238e-33)
(8.22234e-16 4.71716e-16 -3.1979e-33)
(2.48055e-16 2.40641e-16 3.1957e-33)
(4.97814e-16 1.08325e-16 0)
(7.11557e-16 1.48828e-17 0)
(4.18803e-16 6.31216e-16 4.16678e-35)
(9.23586e-16 1.79126e-16 -9.37252e-35)
(-3.08913e-17 1.36365e-16 0)
(9.35621e-16 7.56815e-16 0)
(-1.55191e-17 6.4422e-17 0)
(1.25487e-15 7.83552e-16 -2.84401e-33)
(7.00211e-16 8.80063e-16 -7.42746e-33)
(1.54089e-15 -6.70062e-16 -1.74609e-33)
(9.00506e-16 -3.61457e-15 3.67265e-33)
(1.17466e-15 1.45499e-17 0)
(1.39308e-15 2.66089e-16 0)
(7.56048e-17 -9.09669e-17 0)
(-7.4838e-18 2.16081e-17 -2.80016e-33)
(1.62273e-15 -1.22851e-17 -2.52872e-33)
(1.84793e-15 1.63213e-15 0)
(1.78943e-15 3.85389e-16 2.41924e-33)
(1.92574e-15 -1.34156e-15 3.62432e-33)
(1.9652e-15 -7.33014e-19 2.11457e-33)
(5.33695e-16 3.21284e-15 -1.78139e-34)
(2.03247e-15 5.40761e-16 -2.11462e-33)
(-2.40855e-16 2.53317e-15 -2.46015e-33)
(2.02206e-15 -2.579e-17 -3.78862e-36)
(9.65665e-17 -8.77965e-17 -1.04562e-34)
(-7.57777e-17 4.1517e-15 -1.55961e-33)
(1.08803e-15 2.4984e-15 1.80553e-34)
(1.13922e-17 1.95307e-16 -3.181e-33)
(1.85295e-15 6.81201e-16 0)
(5.06864e-16 -1.84841e-18 1.07749e-33)
(4.57418e-16 4.06199e-15 2.70161e-34)
(-8.42212e-15 -1.00086e-15 1.71458e-33)
(1.59381e-15 -1.86888e-17 0)
(1.13394e-15 8.28965e-16 0)
(2.5664e-17 -1.28981e-16 -1.74185e-33)
(1.03819e-17 -1.60216e-17 0)
(-3.11552e-16 -3.96267e-15 -2.09486e-33)
(5.14682e-16 -1.79861e-15 1.6122e-35)
(1.21498e-16 -9.30716e-17 -1.47431e-35)
(2.72883e-18 -3.78247e-17 0)
(2.60301e-17 -1.69179e-16 -3.22889e-33)
(-7.99786e-16 3.76892e-15 -2.78445e-33)
(-2.39441e-16 -2.52985e-15 -3.27181e-33)
(3.02696e-17 -8.76423e-17 -4.45988e-34)
(-4.99034e-15 -9.29859e-16 0)
(9.83379e-17 -1.37285e-16 0)
(-1.27531e-15 -1.68048e-15 3.34939e-33)
(-2.26753e-15 -2.08145e-15 2.40709e-35)
(-3.84319e-15 -1.12794e-15 -2.20953e-35)
(9.46895e-17 -1.23363e-16 -3.36684e-33)
(-2.26405e-17 -1.50707e-16 6.49188e-33)
(1.23598e-15 -7.54007e-16 1.77689e-33)
(1.00522e-16 -2.35006e-16 2.52913e-33)
(6.95633e-17 -2.19298e-16 0)
(7.22951e-16 -2.02884e-15 1.73597e-34)
(5.75589e-16 -1.31246e-15 2.52043e-35)
(-3.89867e-15 -1.50189e-15 1.10782e-32)
(-1.03743e-15 2.94952e-15 9.08588e-34)
(-2.5899e-15 6.65424e-16 -1.02482e-33)
(-4.57594e-15 2.94281e-16 -1.83717e-32)
(-3.44655e-15 -7.8282e-15 2.43808e-32)
(4.55466e-17 1.50295e-16 1.96657e-33)
(1.61006e-15 -1.16228e-15 -1.64784e-33)
(1.81333e-15 -1.64837e-15 -3.41161e-33)
(7.1802e-18 8.54593e-17 1.89068e-33)
(-1.24469e-15 -1.94361e-15 -3.05482e-32)
(5.1146e-16 -2.90696e-15 -1.79411e-33)
(-7.30921e-17 -1.77801e-16 -2.91104e-33)
(1.19366e-16 -7.45595e-17 -1.17496e-35)
(1.10766e-15 -4.14117e-16 0)
(-5.67242e-15 2.61969e-16 9.66431e-35)
(1.68494e-15 -2.12471e-15 -3.91164e-33)
(1.05262e-15 -2.4704e-15 0)
(2.84913e-17 -6.01541e-17 3.50091e-34)
(-2.25076e-15 -2.70819e-15 0)
(4.78447e-17 -1.18728e-17 0)
(-5.12314e-15 8.42066e-16 -3.72332e-33)
(6.4366e-17 1.62889e-16 2.80441e-33)
(3.95664e-16 -7.63992e-16 -2.48597e-36)
(-1.27579e-15 -2.94775e-15 1.4185e-32)
(4.4221e-16 -1.45769e-15 -1.1508e-34)
(-4.09332e-15 -4.23964e-17 1.47055e-33)
(3.5317e-18 -1.16692e-16 1.1136e-35)
(1.01134e-17 -9.97355e-17 -3.05218e-33)
(-6.1609e-15 7.38023e-17 5.41908e-33)
(8.46569e-17 -1.20322e-16 0)
(-1.71615e-15 -3.12103e-15 -6.88011e-33)
(-4.74193e-17 2.2164e-16 -1.62639e-33)
(-1.52185e-14 5.37371e-15 -3.07449e-33)
(1.27378e-17 1.24406e-18 -1.40862e-33)
(1.86903e-15 -9.89264e-16 3.28297e-33)
(-5.04831e-17 -1.74006e-16 -2.5964e-36)
(1.07694e-17 -1.01803e-16 -3.22218e-33)
(7.45145e-17 1.79336e-16 -2.58723e-33)
(1.74873e-17 -1.59602e-18 -2.76377e-33)
(6.70104e-16 -3.59088e-15 -1.07148e-33)
(-2.75137e-17 2.34287e-16 3.55149e-33)
(7.86161e-18 -2.71792e-18 1.44261e-33)
(-1.24888e-14 -1.39696e-14 0)
(-1.0938e-16 -3.73067e-15 -6.69713e-35)
(-6.61138e-16 -3.8411e-15 6.82801e-33)
(1.53476e-15 -1.64021e-15 1.9884e-33)
(7.34337e-17 -4.71995e-17 1.68046e-33)
(4.0476e-18 -5.88247e-17 4.95476e-33)
(3.93028e-16 -4.7418e-16 1.43036e-33)
(3.07485e-17 2.38687e-19 3.38302e-33)
(-2.23142e-17 -1.65136e-16 0)
(4.14348e-17 -1.44089e-16 -1.02439e-34)
(2.56442e-17 -4.73828e-18 -1.64084e-33)
(2.03944e-16 -4.75418e-16 0)
(2.25991e-16 -4.02657e-16 -1.09171e-33)
(3.30181e-17 -2.11115e-16 -3.15242e-33)
(-2.68443e-15 1.04464e-14 3.33375e-32)
(-7.10232e-19 9.02657e-20 0)
(-7.80331e-16 4.3025e-15 -1.80016e-32)
(-1.66258e-20 -6.43391e-19 -1.3687e-33)
(-1.03651e-14 1.3924e-14 0)
(1.17317e-17 6.57197e-18 -1.91446e-33)
(-1.52906e-14 -1.53583e-15 8.49989e-34)
(8.03758e-18 8.46743e-18 9.64451e-34)
(-4.48132e-15 9.34078e-15 0)
(-9.00714e-15 -1.1366e-14 5.90454e-34)
(2.38887e-18 -1.5056e-18 3.44119e-33)
(9.06751e-17 -3.29e-17 0)
(8.52993e-16 1.3508e-15 0)
(-1.14409e-15 -2.13201e-15 0)
(4.27949e-17 1.0629e-16 1.98012e-33)
(1.00095e-17 -4.95282e-18 0)
(-7.32611e-16 3.69039e-17 4.28306e-32)
(-1.33637e-15 3.43898e-15 -8.14526e-34)
(4.17781e-16 1.01544e-15 0)
(-3.17193e-16 1.38138e-15 3.11323e-33)
(1.00047e-16 1.05074e-17 0)
(-4.85919e-15 -1.16754e-15 1.04521e-32)
(2.83458e-18 2.15838e-16 5.32308e-33)
(-1.19008e-16 2.06336e-15 2.10832e-32)
(3.77934e-17 1.52914e-16 1.02058e-33)
(9.16447e-17 1.8569e-15 0)
(7.30785e-16 2.77661e-15 -2.65599e-33)
(6.55868e-16 1.9312e-15 0)
(1.69499e-15 2.18814e-15 -9.93154e-34)
(1.3331e-15 1.12341e-15 -4.12491e-35)
(1.35742e-15 2.75276e-15 0)
(1.6436e-15 1.65647e-15 -1.53729e-33)
(6.04415e-17 4.41101e-17 -1.94057e-33)
(1.14768e-16 4.0506e-16 0)
(2.35622e-17 6.39332e-17 0)
(6.96889e-17 1.90677e-16 -1.99581e-33)
(2.28807e-16 3.5108e-16 0)
(4.48623e-18 2.34665e-17 2.23104e-33)
(-1.15893e-17 2.87755e-17 6.36692e-33)
(-6.08944e-17 1.48849e-16 -1.75349e-33)
(4.62966e-18 1.85999e-16 -3.42405e-33)
(-5.0571e-17 1.85809e-16 0)
(9.95355e-17 1.43494e-16 -7.23232e-33)
(-2.17388e-17 2.02323e-16 0)
(-2.912e-15 1.62102e-15 9.42374e-33)
(-1.27548e-14 1.39554e-14 0)
(6.67958e-18 1.70009e-18 0)
(-1.05842e-14 -1.43079e-14 0)
(1.33193e-18 -1.87524e-18 -1.33263e-33)
(-1.56431e-14 -6.61751e-17 4.03644e-33)
(-1.40834e-14 -9.33001e-15 0)
(-9.54795e-16 -4.49114e-15 0)
(2.06945e-19 6.01205e-19 2.51151e-33)
(-2.87333e-15 -1.03618e-14 0)
(-6.2091e-19 9.27621e-20 -3.23357e-33)
(-1.36306e-14 7.3022e-15 2.8852e-33)
(5.03455e-17 -3.35981e-17 1.81407e-33)
(4.28337e-17 1.08326e-17 0)
(1.1799e-16 6.33158e-17 1.79437e-33)
(6.10719e-17 1.53358e-17 0)
(-1.07316e-14 1.02641e-14 0)
(-4.95436e-16 -1.60147e-15 0)
(2.89374e-17 -2.82754e-17 1.06251e-34)
(3.33892e-17 1.52619e-17 1.72237e-33)
(-1.44703e-14 8.59873e-15 -2.86387e-33)
(4.04296e-17 -1.87671e-17 1.92516e-33)
(2.09047e-17 2.57408e-18 2.0437e-33)
(-7.41986e-15 -3.43206e-15 7.53867e-33)
(-2.17474e-16 4.30305e-16 -1.92175e-32)
(-8.01866e-15 -1.6331e-14 -1.58607e-32)
(-2.54055e-15 2.49729e-15 3.55953e-33)
(-1.00847e-17 1.12855e-15 -7.38975e-33)
(5.90189e-17 1.98299e-15 1.33258e-33)
(2.88919e-17 9.96201e-16 -9.61921e-34)
(-1.79265e-15 5.70206e-15 4.13576e-32)
(2.13941e-18 1.52916e-18 2.03937e-33)
(1.72564e-15 1.8888e-15 1.06794e-33)
(4.43174e-16 2.0024e-15 1.80466e-34)
(6.06076e-17 6.89078e-17 3.56617e-33)
(1.65208e-15 1.04713e-15 4.97465e-33)
(4.46745e-17 1.24485e-16 0)
(3.78521e-17 1.43522e-16 1.48309e-33)
(1.11076e-16 1.02686e-16 -1.8784e-33)
(1.30886e-17 3.77285e-17 0)
(2.68681e-17 1.10814e-16 -1.99833e-33)
(1.81178e-16 2.6e-16 0)
(-9.99691e-19 5.4178e-18 -1.44908e-33)
(-8.50359e-17 1.1965e-16 1.10795e-34)
(-8.32477e-17 1.57505e-16 -1.90071e-33)
(9.2336e-17 1.29863e-16 5.33116e-33)
(-7.63591e-17 1.42803e-16 -1.0669e-34)
(6.28329e-17 1.67366e-16 -1.96178e-33)
(-7.27094e-18 1.80377e-16 -1.90605e-33)
(4.04619e-17 1.41032e-16 2.12248e-33)
(-3.83714e-17 1.41058e-16 1.87531e-33)
(6.37974e-16 3.46147e-15 0)
(-1.54512e-14 -5.41542e-15 -2.21305e-33)
(6.09347e-16 4.03626e-15 8.79722e-34)
(1.0081e-16 6.24852e-17 0)
(-1.85231e-17 1.55151e-16 -3.90333e-33)
(5.86729e-16 1.32477e-15 0)
(6.78983e-16 1.05496e-15 4.42541e-33)
(5.42664e-18 -6.23299e-18 -1.76526e-33)
(2.19656e-17 -1.16869e-17 -1.17347e-35)
(1.61496e-17 -1.5285e-17 -2.07663e-35)
(5.53272e-19 -1.19329e-18 3.01456e-33)
(-1.36513e-15 -5.03812e-15 0)
(-5.53718e-15 -1.30529e-14 4.44837e-33)
(8.2398e-17 8.70971e-17 -4.48833e-33)
)
;

boundaryField
{
    back
    {
        type            empty;
    }
    front
    {
        type            empty;
    }
    left
    {
        type            noSlip;
    }
    top
    {
        type            uniformFixedValue;
        uniformValue    
        {
            type            scale;
            scale           
            {
                type            squarePulse;
                start           0.3;
                duration        0.3;
            }
            xScale          
            {
                type            constant;
                value           1;
            }
            value           
            {
                type            constant;
                value           (0 -0.7 0);
            }
        }
        value           uniform (0 -0 0);
    }
    right
    {
        type            noSlip;
    }
    bottom
    {
        type            zeroGradient;
    }
}


// ************************************************************************* //
