/*--------------------------------*- C++ -*----------------------------------*\
  =========                 |
  \\      /  F ield         | OpenFOAM: The Open Source CFD Toolbox
   \\    /   O peration     | Website:  https://openfoam.org
    \\  /    A nd           | Version:  9
     \\/     M anipulation  |
\*---------------------------------------------------------------------------*/
FoamFile
{
    format      ascii;
    class       volScalarField;
    location    "1.05";
    object      p;
}
// * * * * * * * * * * * * * * * * * * * * * * * * * * * * * * * * * * * * * //

dimensions      [0 2 -2 0 0 0 0];

internalField   nonuniform List<scalar> 
1655
(
11.3879
11.4236
11.297
11.3708
11.2727
11.2955
11.3032
11.233
11.2152
11.2745
11.3821
11.3829
11.2359
11.4656
11.2249
11.386
11.3606
11.2188
11.3223
11.4663
11.4033
11.2139
11.2539
11.2562
11.3866
11.3599
11.3876
11.2196
11.2214
11.4116
11.3199
11.2889
11.4648
11.2915
11.2213
11.2909
11.293
11.426
11.4678
11.4218
11.4015
11.2605
11.4696
11.3312
11.4375
11.3725
11.3682
11.439
11.2819
11.4683
11.2979
11.2942
11.2212
11.2185
11.2208
11.2469
11.394
11.3827
11.3729
11.2424
11.3169
11.3115
11.3892
11.2324
11.3382
11.3144
11.3512
11.3792
11.2199
11.2597
11.3807
11.3072
11.4116
11.2281
11.3013
11.4482
11.2237
11.2218
11.3964
11.4115
11.3402
11.4464
11.2182
11.3329
11.4151
11.2469
11.3003
11.409
11.4109
11.251
11.2518
11.2948
11.3248
11.2837
11.4594
11.3193
11.3504
11.3751
11.2871
11.4459
11.2968
11.3453
11.2809
11.3434
11.2143
11.3086
11.2333
11.4115
11.4477
11.2503
11.4654
11.3842
11.2537
11.4171
11.2398
11.249
11.236
11.3715
11.4082
11.2168
11.2542
11.2992
11.3059
11.3509
11.3481
11.2428
11.4683
11.4591
11.3812
11.4266
11.2865
11.4636
11.2338
11.2458
11.4107
11.4189
11.2691
11.2213
11.3969
11.3536
11.2336
11.3841
11.3752
11.2955
11.3477
11.3026
11.2813
11.2493
11.2629
11.3319
11.3198
11.3413
11.3043
11.3088
11.2454
11.4698
11.3372
11.2838
11.237
11.3423
11.2828
11.4029
11.2197
11.2891
11.2955
11.3766
11.2204
11.2422
11.3477
11.2198
11.3592
11.2249
11.2684
11.2285
11.4126
11.2312
11.2847
11.2218
11.4227
11.4687
11.2478
11.2259
11.3007
11.3529
11.4288
11.4253
11.4435
11.4258
11.2245
11.2286
11.4344
11.3143
11.2291
11.2976
11.4271
11.4114
11.226
11.4283
11.4117
11.2296
11.3599
11.36
11.3009
11.3075
11.256
11.4002
11.4584
11.231
11.4299
11.2947
11.2934
11.2961
11.4214
11.2412
11.469
11.3541
11.2936
11.4042
11.3029
11.2324
11.442
11.4068
11.464
11.2365
11.4611
11.4285
11.4244
11.254
11.3152
11.3227
11.4455
11.3422
11.349
11.2258
11.4548
11.4476
11.4299
11.2343
11.4217
11.3625
11.2444
11.4307
11.3668
11.4093
11.2377
11.4073
11.3364
11.2225
11.423
11.2337
11.3285
11.41
11.2582
11.2918
11.4529
11.299
11.4384
11.2407
11.2193
11.4643
11.4077
11.4189
11.423
11.3017
11.2565
11.2435
11.4621
11.47
11.4599
11.4676
11.2136
11.2275
11.4334
11.4183
11.2279
11.2315
11.3406
11.2424
11.2218
11.4036
11.2256
11.2471
11.2337
11.2293
11.2353
11.2324
11.23
11.4556
11.4593
11.2252
11.2302
11.4043
11.4646
11.2265
11.2347
11.4433
11.2312
11.3098
11.4054
11.4318
11.4496
11.284
11.2858
11.4374
11.4191
11.2244
11.4429
11.4201
11.24
11.4178
11.2384
11.3509
11.4211
11.4054
11.2407
11.2379
11.4023
11.2245
11.4139
11.4418
11.2285
11.4644
11.4537
11.4415
11.4473
11.3758
11.3774
11.2443
11.4336
11.2625
11.4539
11.233
11.4643
11.4162
11.2398
11.4177
11.2609
11.4623
11.4255
11.2365
11.447
11.4318
11.232
11.3287
11.2275
11.4357
11.4662
11.4412
11.4402
11.4146
11.2454
11.2571
11.3362
11.4494
11.2229
11.4128
11.4295
11.4241
11.2436
11.4074
11.2366
11.4572
11.2217
11.3985
11.4538
11.2406
11.4302
11.2547
11.2338
11.4376
11.4366
11.4532
11.4453
11.419
11.2634
11.2432
11.2701
11.2382
11.4424
11.4311
11.4464
11.398
11.2457
11.4016
11.4369
11.2255
11.4153
11.2416
11.2377
11.4164
11.3929
11.2591
11.2679
11.2292
11.4302
11.4142
11.4091
11.2361
11.2236
11.2802
11.4203
11.4538
11.3949
11.2479
11.2668
11.4491
11.2301
11.2609
11.4285
11.2699
11.2741
11.3891
11.4023
11.2672
11.4471
11.3831
11.2327
11.3539
11.4055
11.4107
11.284
11.3922
11.2865
11.4081
11.4121
11.3469
11.3592
11.4264
11.4149
11.2949
11.4343
11.2848
11.4097
11.2777
11.3862
11.386
11.4358
11.2575
11.2789
11.3832
11.3773
11.3933
11.2636
11.4045
11.3995
11.386
11.2901
11.265
11.2907
11.2598
11.291
11.3605
11.2876
11.3957
11.2912
11.3895
11.2828
11.4002
11.2944
11.2849
11.4
11.3899
11.4006
11.3627
11.2846
11.2449
11.3962
11.4036
11.3832
11.3972
11.3966
11.4405
11.3925
11.264
11.3546
11.3938
11.3931
11.3836
11.3733
11.2858
11.4063
11.2725
11.38
11.2848
11.3883
11.3863
11.2849
11.2837
11.2694
11.4221
11.35
11.286
11.38
11.3232
11.3681
11.3886
11.3394
11.2849
11.3834
11.3172
11.3575
11.3906
11.2877
11.356
11.3509
11.3621
11.2833
11.3588
11.3662
11.2842
11.2714
11.3668
11.3115
11.386
11.2831
11.3264
11.3611
11.3715
11.3324
11.32
11.3334
11.356
11.3989
11.3576
11.3268
11.3705
11.3643
11.3634
11.3728
11.3098
11.36
11.2861
11.4008
11.3612
11.3037
11.4203
11.2829
11.3855
11.3442
11.3745
11.3251
11.3042
11.3148
11.3677
11.4089
11.2935
11.3929
11.3539
11.3818
11.3368
11.3824
11.3727
11.3509
11.3687
11.3712
11.3454
11.2998
11.3859
11.3313
11.2852
11.3567
11.3362
11.3736
11.2916
11.2912
11.3171
11.3625
11.4063
11.2837
11.3028
11.3953
11.2883
11.2856
11.3157
11.2959
11.3661
11.3713
11.2662
11.3305
11.3945
11.3675
11.3632
11.2797
11.3094
11.3329
11.359
11.2841
11.3573
11.3366
11.3645
11.3842
11.3483
11.3371
11.3257
11.371
11.3231
11.3979
11.2504
11.3155
11.2861
11.3077
11.3267
11.2882
11.2849
11.3365
11.3444
11.3034
11.2391
11.3868
11.3064
11.3758
11.3756
11.3681
11.3153
11.2705
11.3032
11.3433
11.3718
11.3769
11.3083
11.3363
11.3618
11.3541
11.2859
11.3683
11.3369
11.3542
11.3447
11.334
11.3411
11.3803
11.3309
11.3235
11.36
11.3729
11.3146
11.3691
11.3758
11.3769
11.3681
11.3796
11.2875
11.3889
11.3732
11.3768
11.2883
11.3801
11.361
11.3168
11.3636
11.3086
11.3899
11.3692
11.3766
11.3814
11.3862
11.3726
11.2932
11.3565
11.3353
11.3775
11.2966
11.3347
11.3736
11.3772
11.2882
11.3495
11.3756
11.3719
11.3842
11.3014
11.3297
11.3444
11.296
11.339
11.3452
11.2997
11.3309
11.2878
11.3461
11.2961
11.2954
11.3373
11.3744
11.3278
11.3487
11.3767
11.2601
11.302
11.3058
11.3237
11.3385
11.2983
11.3135
11.3807
11.2972
11.3467
11.2928
11.3826
11.3805
11.375
11.3796
11.3916
11.3333
11.2902
11.2887
11.3418
11.363
11.3036
11.2881
11.359
11.3356
11.3548
11.3668
11.3607
11.2724
11.3388
11.3118
11.3806
11.3671
11.3162
11.3132
11.2418
11.3781
11.2511
11.3668
11.3006
11.3249
11.3678
11.339
11.3639
11.3093
11.2974
11.3184
11.3024
11.3186
11.2921
11.3449
11.3146
11.3445
11.3583
11.2915
11.3874
11.3703
11.306
11.3257
11.3036
11.388
11.3437
11.3414
11.3022
11.3417
11.2786
11.3706
11.3593
11.3285
11.3233
11.309
11.3913
11.3024
11.363
11.359
11.2915
11.326
11.2694
11.3167
11.3416
11.3627
11.2981
11.2877
11.3667
11.3223
11.3261
11.2747
11.3538
11.3291
11.3943
11.3065
11.3297
11.3356
11.3096
11.3025
11.2955
11.3048
11.3218
11.3225
11.3125
11.3787
11.3107
11.3372
11.3307
11.3673
11.3082
11.2859
11.286
11.4475
11.3485
11.2692
11.3058
11.3279
11.3053
11.2872
11.2905
11.3288
11.3916
11.339
11.289
11.2887
11.3743
11.2987
11.3459
11.4137
11.389
11.2949
11.2764
11.3776
11.2903
11.2966
11.2947
11.3713
11.3411
11.2982
11.2773
11.292
11.3522
11.3704
11.2756
11.2726
11.2934
11.3344
11.2724
11.2826
11.3542
11.3009
11.3234
11.2729
11.3084
11.2847
11.3114
11.2937
11.2264
11.3301
11.3745
11.3018
11.3081
11.2859
11.3786
11.3369
11.412
11.279
11.3162
11.4134
11.2698
11.2783
11.3016
11.2952
11.4121
11.2819
11.2868
11.3558
11.2987
11.2784
11.2659
11.3814
11.2756
11.3257
11.295
11.3184
11.282
11.2752
11.2752
11.2711
11.2538
11.319
11.3531
11.4109
11.3041
11.4157
11.3426
11.3842
11.2621
11.2528
11.3752
11.2847
11.3096
11.3508
11.3132
11.3234
11.2784
11.2739
11.2755
11.2385
11.4327
11.3316
11.2791
11.42
11.2467
11.3482
11.273
11.2367
11.3202
11.326
11.4181
11.2869
11.2812
11.2682
11.335
11.2777
11.3228
11.4145
11.2707
11.3819
11.3833
11.2496
11.2732
11.26
11.2666
11.3708
11.3201
11.4146
11.2834
11.2747
11.3093
11.3416
11.2789
11.3058
11.2455
11.4155
11.2643
11.2571
11.2607
11.4443
11.2563
11.2707
11.2753
11.4192
11.3292
11.3303
11.4155
11.2629
11.3132
11.3858
11.2762
11.2817
11.3465
11.276
11.2872
11.3059
11.4372
11.2718
11.273
11.3166
11.2873
11.2525
11.3834
11.4556
11.281
11.3496
11.2843
11.259
11.2592
11.3457
11.2631
11.2811
11.3886
11.4353
11.2489
11.3488
11.3791
11.4518
11.4112
11.3166
11.4322
11.3329
11.2596
11.274
11.4604
11.2624
11.3326
11.3161
11.2672
11.2539
11.4433
11.3866
11.4274
11.27
11.2819
11.261
11.2829
11.2545
11.4271
11.2654
11.2754
11.2833
11.418
11.2594
11.3907
11.2572
11.2637
11.255
11.263
11.2662
11.4191
11.2582
11.2553
11.2613
11.4176
11.2474
11.4377
11.4416
11.4323
11.2637
11.2579
11.4512
11.2615
11.2486
11.2524
11.4258
11.4307
11.4231
11.2466
11.3938
11.2509
11.2519
11.4274
11.4429
11.2554
11.4402
11.2505
11.4216
11.3735
11.4237
11.3917
11.4306
11.4506
11.4577
11.2402
11.252
11.4395
11.2794
11.4317
11.3842
11.3221
11.2369
11.4259
11.4464
11.4356
11.2498
11.2421
11.4415
11.4213
11.4484
11.4345
11.4359
11.3959
11.2315
11.4304
11.2465
11.2495
11.2177
11.2129
11.4571
11.3188
11.441
11.3778
11.2842
11.4354
11.247
11.269
11.245
11.2391
11.4322
11.4365
11.2658
11.242
11.4626
11.2514
11.3972
11.3981
11.2582
11.2383
11.4124
11.2601
11.2408
11.2274
11.4014
11.238
11.2442
11.2136
11.4739
11.2548
11.4069
11.2511
11.2497
11.2533
11.2559
11.2263
11.2745
11.2135
11.4307
11.2473
11.2862
11.2344
11.2504
11.2336
11.2372
11.2821
11.403
11.231
11.4299
11.2456
11.4017
11.2613
11.4256
11.2831
11.4583
11.427
11.2637
11.2448
11.2337
11.4103
11.425
11.4062
11.2133
11.2321
11.2397
11.2631
11.3252
11.313
11.2564
11.2544
11.4284
11.4166
11.4605
11.2301
11.2556
11.4227
11.2419
11.3147
11.2455
11.2697
11.3283
11.4096
11.2507
11.2427
11.2738
11.2518
11.2778
11.2138
11.3502
11.3381
11.2648
11.2477
11.4176
11.2553
11.2593
11.2641
11.4583
11.2452
11.4203
11.4756
11.3418
11.3539
11.2433
11.2563
11.2847
11.3668
11.3594
11.2868
11.2687
11.2672
11.2664
11.2484
11.363
11.2384
11.4209
11.4145
11.2706
11.3735
11.2608
11.2647
11.4527
11.2573
11.2152
11.2489
11.411
11.4073
11.3622
11.2538
11.2676
11.3846
11.4147
11.4081
11.2357
11.4042
11.4097
11.2128
11.2349
11.4559
11.2788
11.2732
11.4026
11.3829
11.3958
11.4214
11.4017
11.239
11.3929
11.4081
11.472
11.4112
11.3768
11.4046
11.4126
11.3873
11.4057
11.4029
11.4043
11.321
11.2673
11.2715
11.2746
11.4555
11.3215
11.4218
11.2852
11.407
11.3457
11.3699
11.4478
11.27
11.4165
11.2786
11.2824
11.3482
11.2814
11.2223
11.3942
11.3988
11.4186
11.3802
11.2845
11.3639
11.2772
11.2786
11.3951
11.2764
11.4154
11.2526
11.3977
11.3689
11.3909
11.3662
11.449
11.404
11.2145
11.3767
11.3773
11.2322
11.4134
11.4007
11.3869
11.3884
11.3973
11.3959
11.4097
11.4174
11.4112
11.4496
11.4135
11.3826
11.3938
11.368
11.3638
11.4026
11.4696
11.4089
11.4495
11.3611
11.4223
11.3783
11.3897
11.3997
11.3558
11.2768
11.2774
11.4
11.37
11.3915
11.3806
11.4217
11.2182
11.2148
11.4254
11.215
11.3658
11.2195
11.4151
11.2156
11.2157
11.3749
11.3323
11.4084
11.3012
11.272
11.2694
11.3959
11.2725
11.2189
11.252
11.2657
11.4185
11.2694
11.365
11.3681
11.2289
11.3522
11.2176
11.357
11.3909
11.2194
11.3517
11.2131
11.4068
11.3311
11.3499
11.3479
11.2267
11.226
11.2218
11.4728
11.3345
11.2143
11.4735
11.3481
11.2138
11.327
11.3349
11.3864
11.3061
11.3009
11.3425
11.3848
11.3222
11.3118
11.2959
11.317
11.3911
11.3378
11.3828
11.3297
11.3335
11.3875
11.3091
11.2986
11.3402
11.3897
11.3841
11.3201
11.2772
11.3512
11.3279
11.4165
11.257
11.2607
11.3504
11.423
11.4208
11.4087
11.468
11.4401
11.3507
11.2557
11.3987
11.3946
11.2232
11.4661
11.4428
11.3651
11.4153
11.2593
11.4069
11.4476
11.2245
11.4306
11.4372
11.3861
11.2978
11.4291
11.2145
11.3967
11.3986
11.4353
11.4707
11.3439
11.4662
11.3242
11.2196
11.2511
11.4696
11.2274
11.4333
11.2173
11.4382
11.3982
11.3311
11.3886
11.2176
11.2541
11.459
11.3906
11.2293
11.3769
11.4134
11.439
11.307
11.25
11.4522
11.2915
11.3543
11.3813
11.4526
11.4615
11.449
11.2419
11.2766
11.4388
11.4429
11.2708
11.4762
11.389
11.4028
11.4069
11.4512
11.447
11.2949
11.3548
11.3638
11.4181
11.2143
11.213
11.3787
11.4508
11.4563
11.4566
11.3474
11.213
11.2258
11.4218
11.2593
11.3433
11.2658
11.3368
11.4118
11.4734
11.2075
11.2707
11.3462
11.314
11.2665
11.2381
11.2484
11.2912
11.4716
11.2913
11.2409
11.4125
11.2066
11.4605
11.2963
11.4704
11.2703
11.2427
11.4445
11.3581
11.3561
11.471
11.4344
11.3787
11.2247
11.4305
11.2799
11.4282
11.2205
11.281
11.2268
11.4572
11.2141
11.4121
11.2832
11.2409
11.4678
11.3177
11.2483
11.2727
11.2519
11.2763
11.2872
11.2799
11.276
11.2818
11.2781
11.3589
11.3564
11.2209
11.4109
11.2633
11.4003
11.3631
11.3661
11.2223
11.217
11.3799
11.2874
11.3557
11.4627
11.463
11.3487
11.4002
11.3622
11.445
11.2789
11.4379
11.4141
11.4048
11.4413
11.4652
11.2212
11.3924
11.259
11.2929
11.4168
11.2168
11.4494
11.2529
11.2217
11.2144
11.3673
11.4663
11.2171
11.2891
11.3273
11.4261
11.2551
11.2786
11.2888
11.3849
11.4699
11.4611
11.2651
11.3478
11.3278
11.267
11.4354
11.4547
11.3289
11.2284
11.2894
11.4638
11.2412
11.4406
11.3172
11.3844
11.2185
11.2392
11.4542
11.213
11.3673
11.386
11.2508
11.4687
11.3814
11.2645
11.3925
11.3036
11.2256
11.2651
11.2151
11.4326
11.2902
11.213
11.4247
11.3415
11.3587
11.4553
11.4743
11.2208
11.3344
11.268
11.4147
11.2975
11.289
11.4537
11.3576
11.2094
11.3802
11.3567
11.4123
11.2299
11.213
11.2284
11.3035
11.2146
11.2732
11.4581
11.4639
11.2349
11.335
11.3061
11.4618
11.2341
11.4262
11.3952
11.2179
11.2437
11.47
11.2341
11.4627
11.2775
11.3671
11.3407
11.4133
11.275
11.4681
11.2623
11.2505
11.2774
11.4708
11.2683
11.3651
11.3652
11.3579
11.281
11.289
11.3962
11.3356
11.4025
11.4695
11.3942
11.2242
11.4689
11.4032
11.2242
11.4631
11.2651
11.4044
11.2617
11.4656
11.2755
11.2182
11.4529
11.2682
11.4563
11.2678
11.2174
)
;

boundaryField
{
    back
    {
        type            empty;
    }
    front
    {
        type            empty;
    }
    top
    {
        type            zeroGradient;
    }
    outer_arc
    {
        type            zeroGradient;
    }
    bottom
    {
        type            uniformFixedValue;
        uniformValue    
        {
            type            table;
            format          csv;
            file            "outlet_p.csv";
            nHeaderLine     1;
            refColumn       0;
            componentColumns List<label> 1(1);
            separator       ",";
            mergeSeparators 0;
        }
        value           uniform 11.2118;
    }
    inner_arc
    {
        type            zeroGradient;
    }
}


// ************************************************************************* //
