/*--------------------------------*- C++ -*----------------------------------*\
  =========                 |
  \\      /  F ield         | OpenFOAM: The Open Source CFD Toolbox
   \\    /   O peration     | Website:  https://openfoam.org
    \\  /    A nd           | Version:  9
     \\/     M anipulation  |
\*---------------------------------------------------------------------------*/
FoamFile
{
    format      ascii;
    class       volScalarField;
    location    "0.3";
    object      p;
}
// * * * * * * * * * * * * * * * * * * * * * * * * * * * * * * * * * * * * * //

dimensions      [0 2 -2 0 0 0 0];

internalField   nonuniform List<scalar> 
90
(
15.471
17.3843
16.2831
16.4063
16.5679
17.5627
15.2652
15.2339
16.5159
14.9819
15.63
17.0423
15.6184
17.2066
16.6419
16.7353
16.4515
16.245
16.374
16.2882
15.2851
15.9014
15.5752
16.438
15.282
15.6599
15.1445
15.8657
16.2883
15.4915
15.417
15.6283
15.4861
15.4692
15.5568
16.8963
15.7957
16.3976
15.6544
16.1234
16.0308
16.1669
15.775
15.3842
15.0518
17.2452
16.697
16.1042
16.171
16.9383
16.2976
16.4591
15.7686
15.7824
16.5952
15.8195
15.1628
17.1379
14.8983
15.6492
16.291
15.7494
15.6969
15.9934
16.0323
16.0022
16.5054
16.7335
16.335
16.1503
16.024
14.8475
15.8407
15.9177
16.1684
16.5523
14.9808
15.8701
15.5863
15.0605
16.2501
14.9559
16.7946
16.0442
15.7486
16.9146
14.9733
15.2874
15.9169
14.9372
)
;

boundaryField
{
    back
    {
        type            empty;
    }
    front
    {
        type            empty;
    }
    bottom
    {
        type            zeroGradient;
    }
    outer_arc
    {
        type            zeroGradient;
    }
    right
    {
        type            uniformFixedValue;
        uniformValue    
        {
            type            scale;
            scale           
            {
                type            squarePulse;
                start           0.3;
                duration        0.3;
            }
            xScale          
            {
                type            constant;
                value           1;
            }
            value           
            {
                type            constant;
                value           15.1;
            }
        }
        value           uniform 15.1;
    }
    inner_arc
    {
        type            zeroGradient;
    }
}


// ************************************************************************* //
