/*--------------------------------*- C++ -*----------------------------------*\
  =========                 |
  \\      /  F ield         | OpenFOAM: The Open Source CFD Toolbox
   \\    /   O peration     | Website:  https://openfoam.org
    \\  /    A nd           | Version:  9
     \\/     M anipulation  |
\*---------------------------------------------------------------------------*/
FoamFile
{
    format      ascii;
    class       surfaceScalarField;
    location    "0.3";
    object      phi;
}
// * * * * * * * * * * * * * * * * * * * * * * * * * * * * * * * * * * * * * //

dimensions      [0 3 -1 0 0 0 0];

internalField   nonuniform List<scalar> 
122
(
2.2378e-08
-1.66389e-08
-5.73912e-09
-2.625e-08
2.164e-08
4.60999e-09
-3.17398e-08
2.87529e-08
2.98696e-09
-7.52717e-09
-2.42127e-08
-2.46688e-08
2.46688e-08
3.24826e-08
-2.47564e-08
-7.72626e-09
-1.35028e-08
3.21733e-08
-1.86705e-08
1.29933e-08
1.94894e-08
1.6639e-08
3.66724e-09
-2.03062e-08
-2.164e-08
1.83709e-08
3.26912e-09
6.29778e-09
-1.98006e-08
-1.83709e-08
1.71416e-08
7.6878e-09
2.10651e-08
7.96063e-09
-2.75638e-08
3.40467e-09
2.41591e-08
3.04321e-08
-3.04321e-08
2.81123e-08
-2.81123e-08
-1.15987e-08
2.9295e-08
-1.76963e-08
-4.6522e-09
-2.29115e-08
2.10303e-10
-2.49667e-08
7.98339e-09
-1.95821e-08
3.06424e-08
3.54074e-08
-7.29507e-09
-9.26425e-09
1.6952e-08
-2.15687e-08
2.5236e-08
-2.03062e-08
-1.78632e-09
-2.86459e-08
-2.43718e-08
-5.94979e-10
-2.6158e-08
1.46332e-08
-1.46332e-08
1.71416e-08
-2.86459e-08
2.39988e-08
-2.39988e-08
-4.1135e-09
2.80063e-08
-3.21198e-08
3.56174e-09
-2.97198e-08
1.13295e-08
-1.70686e-08
-1.52515e-08
-1.21848e-08
-1.52315e-08
1.98415e-08
1.72557e-08
8.99429e-09
-7.39899e-10
2.1805e-08
3.09932e-08
-1.65315e-08
-2.05941e-08
-2.05941e-08
1.69502e-09
-1.99862e-08
1.82912e-08
6.76149e-09
5.65587e-09
1.72717e-08
-1.55767e-08
-1.54719e-08
1.10185e-08
-3.30672e-08
1.78156e-08
-1.23228e-08
1.23228e-08
2.3103e-09
-2.36982e-08
2.29583e-08
-1.17511e-08
1.17511e-08
-2.33227e-08
-2.00127e-08
-3.31001e-09
7.87734e-09
-3.87383e-09
-7.87735e-09
1.64245e-08
5.3805e-09
-2.00739e-08
-2.88203e-09
1.30782e-08
1.05686e-08
-1.05686e-08
-2.76567e-08
1.84587e-08
-8.16742e-09
)
;

boundaryField
{
    back
    {
        type            empty;
        value           nonuniform List<scalar> 0();
    }
    front
    {
        type            empty;
        value           nonuniform List<scalar> 0();
    }
    bottom
    {
        type            calculated;
        value           nonuniform List<scalar> 4(-2.625e-08 -2.625e-08 -2.625e-08 -2.625e-08);
    }
    outer_arc
    {
        type            calculated;
        value           uniform 0;
    }
    right
    {
        type            calculated;
        value           nonuniform List<scalar> 4(2.2378e-08 2.74364e-08 2.68013e-08 2.83842e-08);
    }
    inner_arc
    {
        type            calculated;
        value           uniform 0;
    }
}


// ************************************************************************* //
