/*--------------------------------*- C++ -*----------------------------------*\
  =========                 |
  \\      /  F ield         | OpenFOAM: The Open Source CFD Toolbox
   \\    /   O peration     | Website:  https://openfoam.org
    \\  /    A nd           | Version:  9
     \\/     M anipulation  |
\*---------------------------------------------------------------------------*/
FoamFile
{
    format      ascii;
    class       volVectorField;
    location    "0.3";
    object      U;
}
// * * * * * * * * * * * * * * * * * * * * * * * * * * * * * * * * * * * * * //

dimensions      [0 1 -1 0 0 0 0];

internalField   nonuniform List<vector> 
90
(
(0.600939 0.298702 -1.4939e-15)
(0.288243 0.722421 1.73996e-15)
(0.433585 0.676522 8.67663e-16)
(0.286307 0.561397 -8.593e-16)
(0.174392 0.567466 -7.45645e-16)
(0.0907259 0.467602 -1.38235e-15)
(0.604137 -0.0633698 1.80067e-15)
(0.847644 0.38619 1.35134e-15)
(0.153665 0.725906 0)
(0.500838 0.415267 0)
(0.652587 0.0606075 4.24236e-16)
(0.271534 0.684229 -8.9139e-16)
(0.368166 -0.0500909 1.95101e-16)
(0.0673555 0.54343 6.10723e-16)
(0.361182 0.820294 0)
(0.327943 0.530743 0)
(0.391707 0.502856 1.64792e-15)
(0.382779 0.514605 -4.47878e-16)
(0.307843 0.813418 0)
(0.205266 0.779584 1.05876e-15)
(0.571723 0.386589 8.69474e-16)
(0.274679 0.577036 7.31254e-16)
(0.665695 0.368558 6.58364e-16)
(0.191536 0.923638 -1.0098e-15)
(0.584152 0.418637 -1.14614e-15)
(0.613666 0.263969 -7.24383e-16)
(1.0183 0.195292 -8.27902e-16)
(0.67537 0.64592 4.49606e-16)
(0.41018 0.466638 0)
(0.900174 0.324879 -9.17063e-16)
(0.652757 0.180121 6.91129e-16)
(0.392929 0.211071 7.25689e-16)
(0.824652 0.448801 2.41166e-16)
(0.734538 0.421035 -1.31857e-15)
(0.65109 0.468494 3.68968e-16)
(0.0804726 0.466181 -4.00735e-16)
(0.308609 0.220842 0)
(0.201153 0.290516 0)
(0.522673 0.454613 -3.66964e-16)
(0.231257 0.585647 1.88878e-16)
(0.495853 0.807972 -7.81824e-16)
(0.343519 0.813292 -1.42468e-15)
(0.690944 0.524202 1.12445e-16)
(0.503262 -0.0306791 -4.35523e-16)
(0.565713 -0.197896 -6.62926e-16)
(0.208262 0.644784 -4.9252e-16)
(0.127085 0.61107 7.72701e-16)
(0.479039 0.557248 5.25862e-16)
(0.469126 0.665444 -9.47536e-16)
(0.104374 0.662976 -1.44232e-16)
(0.269079 0.906664 0)
(0.139843 0.473931 -5.76698e-16)
(0.637667 0.465932 -1.48934e-17)
(0.702421 0.530461 0)
(0.112871 0.665168 1.16824e-15)
(0.675826 0.354825 -3.75591e-18)
(0.767653 -0.0459 7.01881e-16)
(0.16251 0.6466 0)
(0.910792 0.0367074 0)
(0.48919 0.164123 -9.57842e-16)
(0.277602 0.843514 8.96557e-16)
(0.511413 0.308841 0)
(0.297784 0.110959 -7.3356e-16)
(0.450996 0.463313 -2.71863e-16)
(0.494212 0.793226 7.99871e-16)
(0.24666 0.212241 6.9516e-16)
(0.17769 0.806809 0)
(0.0693227 0.851055 0)
(0.333891 0.444568 -6.40331e-17)
(0.301745 0.35763 5.44602e-16)
(0.36523 0.451232 0)
(1.08202 0.0422991 4.92208e-16)
(0.658099 0.399621 0)
(0.474162 0.28294 1.03115e-15)
(0.375105 0.372178 -5.49853e-16)
(0.125622 0.675253 -5.5562e-16)
(0.560165 -0.31108 -3.3253e-16)
(0.663893 0.589393 0)
(0.590108 0.338247 1.05374e-15)
(0.57375 0.17323 7.79093e-16)
(0.195668 0.139853 -6.74151e-16)
(0.924927 0.939474 -1.75728e-18)
(0.204986 0.591756 -1.19088e-15)
(0.469749 0.356472 5.01232e-16)
(0.556586 0.384812 -2.65602e-16)
(0.156911 0.775651 5.76943e-16)
(0.791249 0.0355825 4.95425e-16)
(0.616255 0.240051 6.98909e-18)
(0.392499 0.452699 -1.5226e-15)
(0.565681 0.393168 -4.76668e-16)
)
;

boundaryField
{
    back
    {
        type            empty;
    }
    front
    {
        type            empty;
    }
    bottom
    {
        type            uniformFixedValue;
        uniformValue    
        {
            type            scale;
            scale           
            {
                type            squarePulse;
                start           0.3;
                duration        0.3;
            }
            xScale          
            {
                type            constant;
                value           1;
            }
            value           
            {
                type            constant;
                value           (0 0.7 0);
            }
        }
        value           uniform (0 0.7 0);
    }
    outer_arc
    {
        type            noSlip;
    }
    right
    {
        type            zeroGradient;
    }
    inner_arc
    {
        type            noSlip;
    }
}


// ************************************************************************* //
