/*--------------------------------*- C++ -*----------------------------------*\
  =========                 |
  \\      /  F ield         | OpenFOAM: The Open Source CFD Toolbox
   \\    /   O peration     | Website:  https://openfoam.org
    \\  /    A nd           | Version:  9
     \\/     M anipulation  |
\*---------------------------------------------------------------------------*/
FoamFile
{
    format      ascii;
    class       volScalarField;
    location    "1.12";
    object      p;
}
// * * * * * * * * * * * * * * * * * * * * * * * * * * * * * * * * * * * * * //

dimensions      [0 2 -2 0 0 0 0];

internalField   nonuniform List<scalar> 
942
(
13.1131
13.12
13.054
13.1286
13.0526
13.1476
13.1633
13.1456
13.1698
13.1689
13.1064
13.1325
13.1362
13.1006
13.1302
13.122
13.053
13.1124
13.0486
13.1183
13.0569
13.1322
13.0904
13.0349
13.1072
13.0401
13.0698
13.0924
13.0335
13.098
13.0476
13.0693
13.0307
13.0725
13.075
13.0888
13.1088
13.0923
13.109
13.0317
13.0796
13.1159
13.0254
13.1637
13.1615
13.039
13.0558
13.0676
13.0773
13.1021
13.0544
13.0886
13.0853
13.0402
13.1613
13.092
13.1324
13.1574
13.1305
13.0836
13.0919
13.0727
13.0798
13.1065
13.094
13.1243
13.0725
13.0657
13.0857
13.1616
13.1205
13.1691
13.1258
13.1012
13.0387
13.1165
13.1195
13.0749
13.0495
13.1223
13.155
13.0419
13.1106
13.1242
13.1264
13.0601
13.0777
13.1337
13.0975
13.1108
13.1131
13.0813
13.155
13.0935
13.0956
13.1135
13.1127
13.1337
13.154
13.0917
13.1677
13.1525
13.0581
13.1615
13.1024
13.0902
13.0452
13.0354
13.0633
13.0591
13.0854
13.0812
13.073
13.169
13.1038
13.081
13.0798
13.1267
13.0899
13.0971
13.089
13.087
13.0217
13.1239
13.126
13.0475
13.0872
13.0252
13.0269
13.0817
13.0425
13.04
13.0465
13.0589
13.0541
13.0338
13.0793
13.0507
13.0743
13.0689
13.0634
13.0301
13.0739
13.0494
13.1461
13.0337
13.1637
13.1671
13.0977
13.0622
13.1439
13.096
13.0795
13.1576
13.0772
13.1039
13.1284
13.1707
13.0843
13.1149
13.1281
13.098
13.1231
13.1392
13.0911
13.0926
13.1655
13.1588
13.0407
13.0615
13.0697
13.0821
13.0883
13.0918
13.0572
13.1578
13.1141
13.1586
13.0997
13.1555
13.1595
13.0338
13.1029
13.1546
13.1072
13.0402
13.0791
13.0557
13.0612
13.151
13.068
13.1518
13.0978
13.0506
13.0555
13.1429
13.0577
13.1
13.0757
13.0271
13.0899
13.1428
13.0534
13.0449
13.0688
13.0896
13.094
13.0575
13.0281
13.0341
13.0582
13.1489
13.1639
13.0703
13.0525
13.1364
13.059
13.0788
13.0604
13.0599
13.131
13.1292
13.1477
13.1432
13.1702
13.0724
13.0703
13.1274
13.089
13.0589
13.043
13.0605
13.0775
13.1684
13.1374
13.1555
13.0776
13.1331
13.0555
13.0629
13.0627
13.1589
13.1369
13.1607
13.1592
13.0548
13.1246
13.1431
13.1297
13.0564
13.0681
13.0912
13.0709
13.0536
13.1559
13.149
13.1419
13.1489
13.0787
13.1619
13.1232
13.0827
13.073
13.1532
13.1172
13.166
13.1592
13.1464
13.049
13.1273
13.1224
13.062
13.0872
13.0675
13.0602
13.0842
13.0219
13.1467
13.0658
13.0873
13.1565
13.0902
13.0896
13.1459
13.0761
13.0898
13.1481
13.1442
13.1538
13.1505
13.0744
13.0907
13.0876
13.1157
13.1493
13.0624
13.0934
13.094
13.098
13.091
13.0862
13.1491
13.1075
13.111
13.0823
13.139
13.1155
13.1364
13.1169
13.083
13.1651
13.1121
13.1449
13.124
13.1219
13.0962
13.1583
13.1309
13.115
13.1405
13.1209
13.0888
13.163
13.1273
13.0882
13.0883
13.1076
13.122
13.1219
13.1521
13.0722
13.1212
13.1391
13.1084
13.1425
13.075
13.1121
13.0618
13.0657
13.0829
13.0766
13.1097
13.117
13.0754
13.0957
13.0652
13.0932
13.1248
13.1426
13.0989
13.0718
13.1029
13.125
13.1075
13.0661
13.145
13.0911
13.1251
13.0899
13.1061
13.1116
13.135
13.1285
13.1253
13.1141
13.1249
13.1349
13.0361
13.1185
13.1116
13.0912
13.0724
13.0399
13.1247
13.0812
13.0995
13.0847
13.0969
13.1327
13.103
13.0215
13.0883
13.0516
13.079
13.034
13.107
13.113
13.1258
13.0946
13.1113
13.044
13.067
13.1434
13.1204
13.0545
13.1378
13.1318
13.0478
13.0283
13.0725
13.0599
13.13
13.1279
13.1363
13.1168
13.0815
13.0959
13.0931
13.1223
13.0854
13.0258
13.1223
13.1316
13.1157
13.1187
13.1351
13.1316
13.1317
13.083
13.1296
13.1369
13.1233
13.1409
13.1375
13.1199
13.1164
13.0842
13.1107
13.1183
13.1228
13.1289
13.1146
13.1241
13.1056
13.0905
13.1355
13.1071
13.1363
13.1252
13.1209
13.1322
13.13
13.1013
13.1175
13.1406
13.1189
13.0924
13.0997
13.1295
13.1308
13.0977
13.1057
13.1091
13.1331
13.0975
13.0848
13.09
13.1174
13.1341
13.1041
13.1106
13.1039
13.0413
13.0997
13.0775
13.104
13.1441
13.1143
13.1107
13.0967
13.1074
13.1085
13.1047
13.1201
13.0872
13.0896
13.1258
13.1047
13.1215
13.0792
13.1345
13.0857
13.0991
13.0931
13.1241
13.0911
13.1227
13.1023
13.1298
13.0952
13.1026
13.0982
13.1002
13.1006
13.1368
13.0848
13.0945
13.0819
13.0928
13.1389
13.1044
13.0901
13.1405
13.0845
13.1107
13.0758
13.1063
13.1148
13.0681
13.1172
13.1267
13.0883
13.0915
13.0826
13.1017
13.1422
13.0951
13.0894
13.1115
13.0622
13.1278
13.1074
13.1111
13.0915
13.1142
13.1173
13.0994
13.0775
13.1007
13.1141
13.1092
13.102
13.1258
13.0656
13.0809
13.0714
13.0531
13.097
13.1449
13.073
13.1093
13.0978
13.07
13.1513
13.063
13.0582
13.0951
13.0749
13.0624
13.0624
13.0738
13.0822
13.069
13.0685
13.0652
13.0675
13.0662
13.1064
13.0653
13.1055
13.077
13.1401
13.1213
13.0705
13.071
13.0523
13.0569
13.0457
13.074
13.1643
13.0688
13.0623
13.0572
13.0665
13.1489
13.0628
13.0745
13.0724
13.0759
13.0774
13.1251
13.0484
13.1616
13.0733
13.1455
13.1442
13.0756
13.0486
13.1592
13.0632
13.106
13.1496
13.1354
13.0475
13.0465
13.1055
13.0452
13.1355
13.0491
13.1541
13.1545
13.095
13.0424
13.0491
13.172
13.0495
13.049
13.158
13.0445
13.0489
13.0579
13.05
13.048
13.0469
13.1377
13.1228
13.0993
13.12
13.1172
13.0982
13.0438
13.1145
13.0503
13.1697
13.0552
13.0574
13.0388
13.09
13.0984
13.1336
13.1158
13.1086
13.0705
13.1149
13.129
13.1175
13.0431
13.1627
13.0313
13.068
13.1202
13.1654
13.1308
13.0757
13.1185
13.1343
13.1376
13.1334
13.1665
13.1602
13.1611
13.0539
13.137
13.1645
13.0815
13.1152
13.1128
13.0672
13.0362
13.1086
13.1692
13.1199
13.1258
13.1104
13.1416
13.164
13.0829
13.0588
13.1127
13.0692
13.0773
13.0724
13.169
13.0751
13.1683
13.1505
13.0682
13.0744
13.1687
13.1616
13.1092
13.0793
13.1144
13.0974
13.1052
13.112
13.1159
13.0837
13.1004
13.1104
13.1453
13.0934
13.1593
13.1138
13.1147
13.0865
13.0897
13.1617
13.108
13.1042
13.1136
13.1162
13.0857
13.0922
13.1472
13.1611
13.1101
13.0997
13.0994
13.0652
13.1686
13.0831
13.0401
13.0975
13.1497
13.0786
13.0642
13.1048
13.1311
13.0801
13.1494
13.0623
13.0663
13.0455
13.1418
13.1432
13.141
13.1558
13.1199
13.1046
13.0512
13.0529
13.1147
13.087
13.0846
13.1088
13.0897
13.1307
13.0793
13.1536
13.1372
13.0528
13.0619
13.1123
13.1152
13.1514
13.1189
13.079
13.165
13.0889
13.167
13.0942
13.1283
13.1251
13.1427
13.1032
13.0993
13.1295
13.1283
13.0574
13.1014
13.1546
13.09
13.0361
13.142
13.1578
13.1478
13.0913
13.0416
13.0975
13.0531
13.1539
13.0898
13.1698
13.0664
13.1125
13.103
13.1132
13.0416
13.0924
13.1674
13.1675
13.1213
13.1204
13.0536
13.1487
13.0858
13.1349
13.1157
13.1348
13.1084
13.0669
13.1683
13.1373
13.1386
13.1497
13.0822
13.1569
13.0774
13.1221
13.1219
13.0546
13.0951
13.0491
13.1316
13.1107
13.0985
13.0453
13.1706
13.1127
13.1294
13.0506
13.0471
13.1714
13.0425
13.1024
13.1065
13.0439
13.0959
13.0567
13.1562
13.172
13.0454
13.1034
13.1039
13.0562
13.0335
13.0899
13.0998
13.1656
13.0484
13.0469
13.1035
13.0964
13.1667
13.1438
13.0636
13.0426
13.0642
13.1525
13.1072
13.0966
13.1421
13.088
13.0981
13.0682
13.1699
13.1396
13.1091
13.1361
13.105
13.1064
13.0638
13.0581
13.1039
13.1079
13.0881
13.1064
13.1674
13.0884
13.1017
13.0745
13.1102
13.0885
13.1076
13.1516
13.1183
13.0517
13.1101
13.1386
13.0803
13.1681
13.051
13.1538
13.1403
13.1554
13.0967
13.1035
13.0523
13.1539
13.0705
13.1664
13.1194
13.1129
13.1514
13.1641
13.1502
13.0818
13.157
13.156
13.0403
13.0919
13.042
13.0819
13.1473
13.0967
13.0911
13.0531
13.1262
13.0868
13.0854
13.1047
13.1039
13.1561
13.1716
13.0559
13.083
13.106
13.1383
13.1221
13.1152
13.0512
13.163
13.0964
13.1385
13.0568
13.05
13.1037
13.0486
13.0496
13.1171
13.142
13.1126
13.1656
13.0475
13.0545
13.14
13.0889
13.1083
13.1037
13.1118
13.1694
13.095
13.1511
13.1147
13.1009
13.1076
13.0954
13.1707
13.0546
13.11
13.1171
)
;

boundaryField
{
    back
    {
        type            empty;
    }
    front
    {
        type            empty;
    }
    top
    {
        type            zeroGradient;
    }
    outer_arc
    {
        type            zeroGradient;
    }
    bottom
    {
        type            uniformFixedValue;
        uniformValue    
        {
            type            table;
            format          csv;
            file            "outlet_p.csv";
            nHeaderLine     1;
            refColumn       0;
            componentColumns List<label> 1(1);
            separator       ",";
            mergeSeparators 0;
        }
        value           uniform 13.0466;
    }
    inner_arc
    {
        type            zeroGradient;
    }
}


// ************************************************************************* //
