/*--------------------------------*- C++ -*----------------------------------*\
  =========                 |
  \\      /  F ield         | OpenFOAM: The Open Source CFD Toolbox
   \\    /   O peration     | Website:  https://openfoam.org
    \\  /    A nd           | Version:  9
     \\/     M anipulation  |
\*---------------------------------------------------------------------------*/
FoamFile
{
    format      ascii;
    class       surfaceScalarField;
    location    "1.93";
    object      phi;
}
// * * * * * * * * * * * * * * * * * * * * * * * * * * * * * * * * * * * * * //

dimensions      [0 3 -1 0 0 0 0];

internalField   nonuniform List<scalar> 
1363
(
-5.04001e-07
3.20381e-07
1.8362e-07
-2.49958e-07
-2.18527e-08
2.7181e-07
7.47213e-07
-5.81898e-07
-1.65315e-07
-1.53906e-07
4.63065e-07
-3.0916e-07
6.93502e-07
5.37113e-08
3.57108e-07
-1.25492e-08
-3.44559e-07
-1.21832e-07
1.21832e-07
3.15107e-07
4.20005e-08
-2.94895e-07
3.03474e-07
-8.57946e-09
1.42265e-08
-3.09121e-07
-5.99055e-07
5.19638e-07
7.94175e-08
5.34851e-07
-7.31747e-07
1.96896e-07
3.41643e-07
-4.95549e-07
-7.25158e-07
7.538e-07
-2.8642e-08
5.4869e-08
4.79982e-07
-1.49555e-07
-1.00403e-07
3.29656e-07
-9.61148e-08
-2.33541e-07
-2.56471e-07
-2.4753e-07
-3.46453e-07
-6.61098e-08
4.12563e-07
-3.34628e-07
3.34628e-07
1.81239e-07
1.48417e-07
-3.46789e-07
-3.84958e-07
-1.43654e-07
-1.93072e-08
1.62961e-07
4.35527e-08
1.07496e-07
-1.51049e-07
-3.72173e-07
-2.26882e-07
2.02718e-07
-1.59165e-07
6.52568e-07
-5.97592e-07
-5.49764e-08
-2.17757e-07
7.41032e-08
-1.55775e-07
1.54779e-07
9.95316e-10
-2.44202e-08
-3.51951e-07
3.76371e-07
-1.55507e-07
-1.2675e-09
1.56775e-07
1.57096e-08
6.36859e-07
-3.29682e-08
-1.22806e-07
-2.61502e-07
-2.23746e-07
4.85248e-07
5.89854e-07
-5.35566e-07
-5.42878e-08
2.51746e-08
1.09103e-07
-1.34278e-07
-4.746e-07
1.87236e-07
2.87363e-07
2.98219e-07
-1.28607e-07
-1.69612e-07
-2.53662e-07
-2.20937e-07
-2.75522e-08
1.35048e-07
2.69242e-07
-5.48028e-07
2.78785e-07
5.05019e-07
-5.67695e-07
6.26756e-08
3.09119e-09
-3.06434e-08
-3.03373e-08
-9.14943e-08
5.72023e-08
6.46293e-08
-1.10712e-07
-8.88279e-08
1.9954e-07
4.19506e-07
8.03593e-08
-4.99866e-07
2.40836e-07
-5.02339e-07
-3.15099e-07
5.84342e-07
-2.37113e-07
-4.88045e-07
-4.76437e-07
1.29984e-07
4.54453e-08
-6.47525e-08
7.5237e-08
-5.00623e-08
2.09212e-07
-1.26881e-07
-8.23315e-08
4.10668e-07
-3.96442e-07
-4.77692e-07
3.13514e-07
1.64178e-07
2.45332e-07
-2.45332e-07
-1.21171e-09
4.1188e-07
1.45067e-07
1.00265e-07
8.15694e-07
1.46099e-08
-8.30304e-07
-2.08258e-07
1.83838e-07
6.55394e-07
-5.73627e-07
-8.1767e-08
-4.28433e-07
2.04688e-07
-9.04249e-08
4.10806e-07
1.93917e-07
1.04303e-07
2.9808e-07
-3.03072e-07
4.99256e-09
5.78021e-08
1.58802e-07
4.91795e-07
-6.50597e-07
-1.03649e-07
-3.74043e-07
2.80474e-07
-2.0674e-07
-7.37339e-08
1.64087e-07
-1.8594e-07
-2.26759e-07
2.11037e-07
1.57218e-08
1.18539e-07
-1.18539e-07
-2.14081e-08
-3.30543e-07
1.06551e-07
1.02661e-07
-9.47152e-09
-3.25156e-07
1.58353e-07
1.76275e-07
1.6227e-08
-1.57539e-07
2.03109e-09
-3.18197e-07
1.68643e-07
-1.21314e-08
9.20838e-08
-7.99524e-08
2.01451e-07
-2.6303e-07
1.37634e-07
1.25396e-07
-2.01176e-08
-3.54851e-07
5.17782e-08
-7.80945e-07
7.54465e-07
2.64799e-08
6.43731e-07
1.71963e-07
4.16246e-07
3.28661e-08
-4.49112e-07
2.43391e-07
5.10408e-07
-3.24797e-07
6.17662e-08
6.4041e-07
-1.35391e-07
2.18099e-07
-4.81671e-09
-2.13282e-07
-4.17545e-07
4.16333e-07
6.12354e-07
-2.9884e-07
3.90471e-07
-2.26293e-07
2.43445e-07
-1.59733e-07
-8.37126e-08
-2.17425e-07
-3.50269e-07
-5.72348e-08
4.73481e-07
-1.92846e-07
1.80715e-07
-1.43412e-08
2.15686e-07
-1.71612e-09
-2.1397e-07
3.86542e-08
-4.56199e-07
-5.69303e-08
2.50137e-07
-1.16615e-07
5.07085e-07
1.48562e-09
1.82352e-07
1.24693e-07
-2.35405e-07
-8.63959e-08
1.80942e-08
6.83017e-08
2.9162e-07
-1.32818e-07
2.79634e-07
2.12161e-07
-1.48855e-07
4.52064e-08
-2.69966e-07
-1.04077e-07
-6.86645e-09
-9.64358e-08
-1.30323e-07
1.70273e-08
5.02611e-07
2.18099e-07
6.47733e-07
-8.21523e-07
1.7379e-07
3.87756e-07
7.53092e-08
-7.7608e-08
6.32669e-08
2.61903e-07
-3.63328e-07
1.01425e-07
-6.32669e-08
6.47525e-08
1.28562e-07
-3.39675e-08
-9.45945e-08
3.09119e-09
1.81359e-08
-1.38656e-07
-9.68368e-08
-6.07017e-08
4.54453e-08
-6.36116e-08
3.06434e-08
6.36116e-08
-1.25007e-07
6.13957e-08
7.5237e-08
2.85906e-07
-3.52016e-07
-2.85906e-07
3.00231e-07
-1.43247e-08
3.52016e-07
-2.71657e-07
-2.99598e-07
5.40434e-07
2.99598e-07
-7.97752e-09
-3.00231e-07
2.11403e-07
-4.12695e-08
-1.07586e-07
2.71657e-07
7.97752e-09
-3.77552e-07
1.07586e-07
3.77552e-07
-6.92651e-07
-5.40434e-07
6.92651e-07
-1.52217e-07
-2.11403e-07
1.25007e-07
6.40867e-07
3.64323e-08
-1.33269e-07
3.12324e-07
2.78339e-09
1.22419e-08
2.06497e-08
-2.2739e-07
6.03662e-08
1.50671e-07
6.6693e-08
-2.48817e-07
1.82124e-07
-2.48156e-07
-5.32789e-07
5.45787e-08
2.57745e-07
6.99095e-07
-4.75645e-07
-2.2345e-07
5.12491e-07
-5.17308e-07
-1.77764e-07
2.03629e-07
-2.58658e-08
-5.65624e-07
3.00583e-08
1.0742e-08
-2.64404e-07
-2.96662e-07
-5.81889e-08
-7.76194e-09
6.04327e-08
-5.26708e-08
-8.06913e-07
2.33974e-07
-4.22423e-07
1.25761e-07
2.44682e-07
-2.3394e-07
-4.87072e-07
1.77913e-07
3.03754e-07
4.27322e-08
-3.46486e-07
5.04652e-07
1.94443e-07
-5.61303e-08
-6.01886e-07
6.58016e-07
7.99893e-08
1.35697e-07
3.3329e-07
-8.3153e-08
2.17634e-07
-2.87704e-07
-6.35157e-07
4.80265e-07
1.73768e-07
-3.54055e-08
1.39009e-07
6.15456e-07
-3.75048e-07
2.78009e-07
9.70391e-08
7.462e-08
-2.34353e-07
-1.5328e-07
-2.21768e-07
5.63759e-07
4.85954e-08
-4.27294e-07
3.13887e-07
1.13407e-07
-1.87704e-07
9.94065e-09
8.37641e-09
1.46403e-07
2.53929e-07
-1.49285e-07
-2.77879e-07
2.13692e-07
-4.59097e-07
-2.06154e-07
6.65251e-07
-4.28032e-07
3.18656e-08
3.96167e-07
5.64916e-07
-8.13072e-07
4.45011e-07
-1.31124e-07
8.46082e-07
-7.67513e-07
-7.85689e-08
3.44653e-07
1.00358e-07
-2.85946e-07
2.50541e-07
1.52439e-08
1.41531e-07
-3.00215e-08
-3.98011e-07
5.18526e-07
-1.76883e-07
4.48677e-07
-4.10482e-07
-3.81955e-08
-3.33031e-07
-2.14997e-07
4.14065e-08
-4.14065e-08
-7.7608e-08
2.08124e-07
3.10402e-07
-1.08758e-07
7.87365e-08
1.21519e-07
3.53162e-07
1.81425e-07
-5.25249e-08
-6.58625e-07
6.90491e-07
4.44977e-08
5.06665e-08
-2.38816e-07
4.4694e-07
-2.07039e-07
4.13777e-07
-2.06739e-07
-8.28906e-07
7.47139e-07
-7.23258e-08
-2.15451e-07
4.91107e-07
-2.75656e-07
-2.49021e-07
8.13937e-07
8.54075e-07
-7.23776e-07
-1.30299e-07
-4.70667e-07
6.01853e-08
-4.29098e-07
-4.15696e-08
-3.29929e-07
4.85473e-07
-1.55544e-07
3.00255e-07
-5.15706e-07
-1.09066e-07
4.53719e-07
4.6424e-07
-2.45107e-07
-2.19133e-07
7.61545e-08
-7.61545e-08
3.37896e-07
-3.37896e-07
-7.65365e-08
-7.52369e-07
-3.50781e-07
4.78218e-07
-1.27437e-07
1.34816e-07
5.53033e-08
-1.90119e-07
-1.96183e-09
2.15654e-07
-7.02254e-07
4.36287e-08
2.64384e-07
-2.64384e-07
-7.00083e-08
7.00083e-08
1.61178e-07
2.05775e-07
-4.44591e-07
7.74643e-07
7.94316e-08
1.34692e-07
1.5006e-07
-4.92784e-07
6.36862e-08
-4.37481e-07
1.23075e-07
2.10215e-07
-1.09223e-07
-3.75424e-07
4.84647e-07
3.09762e-07
-2.12723e-07
-2.51889e-07
3.65296e-07
-1.10521e-07
-3.68995e-07
-9.82801e-08
4.67275e-07
1.88584e-07
1.0849e-07
7.69545e-07
-2.74062e-07
4.55487e-07
8.7189e-08
-8.54702e-07
-2.91562e-07
3.9192e-07
2.01833e-07
-4.8449e-07
7.53223e-08
3.78397e-07
-6.17944e-07
-1.75805e-07
7.93749e-07
5.78734e-08
-4.83875e-07
3.28331e-07
2.00146e-07
-8.18091e-07
-8.06657e-07
-3.08767e-07
3.84089e-07
-4.19277e-07
3.20996e-07
5.93726e-08
4.03742e-07
-4.63115e-07
1.39569e-07
3.77602e-07
8.96737e-08
5.16316e-07
-1.38714e-07
-8.07048e-07
8.2687e-07
-1.9822e-08
4.72275e-09
-7.77351e-08
8.24874e-07
-6.51587e-07
-6.55816e-07
8.55962e-07
-3.89397e-07
-9.60428e-09
3.99001e-07
-7.4158e-07
6.63011e-07
-4.61704e-09
5.00623e-08
1.25305e-07
-1.62015e-08
1.38412e-07
-1.43029e-07
-3.75429e-07
-1.39676e-08
2.04608e-07
-5.27246e-07
3.22639e-07
-9.73529e-07
1.66616e-07
-3.70394e-08
4.13572e-07
-3.76532e-07
-4.62068e-07
4.25028e-07
3.45032e-07
3.90572e-08
4.04405e-07
4.9439e-07
-2.89782e-07
-1.02435e-07
1.07158e-07
-9.50993e-07
2.95178e-07
1.89375e-08
3.21877e-07
-3.40814e-07
-2.87395e-07
2.77791e-07
-3.17307e-07
4.21353e-07
-1.04046e-07
2.23699e-07
-1.09738e-06
8.73678e-07
-7.4983e-07
-5.97778e-07
-4.99599e-07
-6.61466e-07
8.28081e-07
6.01607e-07
-1.05953e-07
-4.95654e-07
3.81426e-08
-8.1755e-07
3.6129e-08
7.81421e-07
-6.88832e-07
6.56521e-07
3.23106e-08
-6.72214e-08
6.68829e-07
3.99928e-07
8.47182e-08
-6.01507e-07
7.81101e-07
-1.79594e-07
2.13106e-07
-2.13106e-07
-3.25156e-07
-2.13282e-07
-9.14943e-08
-1.28174e-07
1.28174e-07
-1.03049e-07
1.03049e-07
1.81359e-08
4.48541e-07
-4.27067e-07
-2.1474e-08
-3.07982e-07
3.07982e-07
-8.06972e-08
8.06972e-08
1.45067e-07
-1.39993e-07
1.39993e-07
-1.60207e-07
1.60207e-07
1.58353e-07
2.18998e-07
-2.18998e-07
5.72023e-08
-1.38656e-07
-1.12745e-07
1.03094e-08
2.70885e-07
5.33894e-07
-8.04779e-07
3.26721e-07
-3.26721e-07
4.32056e-07
-4.13119e-07
-4.62644e-07
5.2532e-07
1.23125e-07
-1.23125e-07
-3.1042e-07
-2.16826e-07
4.39332e-07
-4.78652e-07
3.93205e-08
-5.04936e-08
-4.46664e-07
4.97157e-07
-4.69503e-07
-3.48047e-07
-4.56484e-07
4.0599e-07
-6.36323e-07
3.25903e-07
-7.95496e-10
-6.88036e-07
4.93131e-07
-5.43192e-07
5.00611e-08
1.75824e-07
4.12695e-08
5.97574e-07
-6.64795e-07
-5.14524e-09
-1.60023e-08
2.11475e-08
3.89031e-08
4.60499e-07
-7.29675e-07
2.69177e-07
-9.43172e-07
2.81706e-07
2.04527e-07
-7.73234e-07
3.65578e-07
4.07656e-07
-1.41027e-08
-5.83255e-08
3.10875e-07
-1.0607e-06
4.23885e-07
-1.02166e-06
4.98873e-09
5.77344e-07
-8.93192e-07
3.15848e-07
1.32101e-07
-6.75294e-07
-3.73578e-07
-8.2906e-08
-6.23225e-07
5.17271e-07
2.62133e-08
-1.64859e-07
-5.04602e-07
6.6946e-07
1.77838e-07
-1.82983e-07
7.81843e-07
-7.45714e-07
3.95746e-07
1.5064e-07
-5.46386e-07
-2.91823e-07
8.04671e-07
-5.12848e-07
3.76635e-08
9.38516e-07
-2.81995e-07
-4.82504e-07
-2.92909e-07
7.75413e-07
1.95814e-07
-5.82134e-07
3.8632e-07
7.9435e-07
-1.32498e-08
4.61995e-08
-6.22018e-08
1.49158e-07
5.6837e-07
-4.30505e-08
-5.0397e-07
7.73146e-07
-6.32297e-07
-4.91527e-07
4.6894e-07
-4.31277e-07
-6.3682e-07
-4.44319e-07
4.69014e-07
4.79103e-07
-7.70926e-07
-2.57647e-07
-1.1135e-07
4.47991e-07
-8.11357e-08
-7.08206e-07
7.89341e-07
-9.09477e-08
5.24857e-07
-4.33909e-07
7.20967e-07
-5.25153e-07
4.75859e-07
-4.89962e-07
3.22168e-07
-1.86388e-07
7.93555e-07
-3.88049e-07
7.13952e-07
-4.13421e-09
1.26696e-08
6.07273e-07
6.632e-07
-9.56109e-07
-5.26087e-07
6.76727e-07
-9.88104e-07
2.4239e-07
-9.6156e-07
6.79565e-07
4.38138e-07
3.0802e-08
4.64351e-07
-4.96057e-07
-1.10849e-07
6.06906e-07
-2.95476e-07
6.18114e-07
-5.39107e-07
-4.14008e-07
-1.32378e-07
-6.88091e-07
6.74841e-07
3.57043e-07
2.53539e-08
-4.72018e-07
-1.68005e-07
-5.1909e-07
3.85097e-07
-6.25651e-08
8.47159e-07
5.84316e-08
-9.0559e-07
5.54294e-07
-6.3543e-07
7.06188e-07
-3.8402e-07
7.35809e-07
6.49774e-07
1.25639e-07
2.04701e-07
1.06241e-07
-3.10942e-07
-9.73562e-07
3.36742e-07
6.3248e-08
-8.08181e-08
3.74178e-07
-7.18759e-07
2.27231e-07
2.36376e-07
5.52965e-07
4.5583e-07
2.86871e-07
3.82589e-07
-5.94616e-07
3.57943e-07
2.36673e-07
4.64608e-07
-4.59619e-07
4.40849e-07
-4.28179e-07
-4.64184e-07
1.31057e-07
3.33127e-07
1.42136e-07
-3.07744e-07
4.18476e-07
7.67686e-07
4.22141e-07
-1.50331e-07
4.73206e-09
-9.72185e-07
5.27866e-07
-8.60056e-07
2.27759e-07
2.1665e-07
1.33104e-07
-1.93645e-07
4.6491e-07
-2.71266e-07
2.54228e-08
-4.45695e-07
-6.57359e-07
4.01362e-07
2.55996e-07
-5.23314e-07
4.91e-07
-5.75927e-07
8.49266e-08
-9.96096e-07
4.77006e-07
2.72193e-07
3.45921e-07
-6.80108e-07
8.26416e-07
-1.51574e-07
1.17257e-07
-3.0024e-07
-3.16531e-07
3.00746e-07
4.89602e-07
5.72939e-07
-5.68569e-07
3.10922e-07
-3.11438e-07
6.5841e-07
7.31439e-07
-3.12963e-07
-3.41338e-07
-1.94992e-07
5.96355e-07
-6.19803e-07
6.42466e-07
-2.26624e-08
-4.54723e-07
6.91396e-07
-3.63807e-07
-2.84197e-07
4.20001e-07
1.32186e-07
4.46595e-07
-4.41863e-07
-4.29941e-07
5.60998e-07
3.77947e-07
-1.94916e-07
-3.83547e-07
5.78463e-07
1.97724e-07
-1.51524e-07
-5.5288e-07
3.77075e-07
1.02516e-07
-4.43854e-07
4.14372e-07
7.76918e-09
-2.14018e-07
-1.27693e-07
3.4171e-07
3.44112e-07
-4.94443e-07
1.03259e-06
-1.26544e-07
5.04491e-07
-4.05514e-07
-3.99265e-07
3.38366e-07
-2.99086e-09
6.45457e-07
-9.29045e-07
5.23531e-07
-5.94181e-07
-1.61554e-07
7.82372e-08
-2.92255e-07
-7.16057e-07
-6.84868e-07
-8.96902e-08
-3.40756e-07
7.86452e-07
-2.33486e-07
-2.61455e-07
6.81456e-07
-2.58614e-07
-2.94266e-07
-3.58928e-07
3.17649e-07
-6.77894e-07
-4.51808e-08
-1.55128e-07
5.32203e-07
5.64982e-08
8.30711e-08
-5.03674e-07
-4.25371e-07
-7.19468e-07
1.16238e-07
2.94568e-07
5.93364e-07
-3.98958e-07
2.78724e-08
2.2135e-07
-1.43113e-07
-1.33621e-07
2.9653e-07
2.19928e-07
-1.04137e-07
-1.15791e-07
8.63072e-08
3.79154e-08
-7.32632e-08
7.58984e-07
-6.85721e-07
2.59266e-07
8.41155e-07
-7.16094e-08
-5.10744e-07
2.97802e-07
2.63196e-07
7.63419e-07
6.15451e-07
6.6345e-07
-3.49798e-07
4.24437e-07
1.07767e-07
-7.73612e-07
-8.10899e-08
-4.03282e-08
1.23399e-07
-7.60838e-09
-1.35505e-07
1.76321e-07
-8.6014e-07
8.65276e-08
1.9075e-07
2.23028e-07
4.69029e-07
-2.80445e-07
7.23197e-07
-8.54963e-08
-7.71217e-07
7.72601e-07
-6.86074e-07
-5.31332e-08
-3.34625e-07
3.71306e-07
-3.66801e-08
-6.36107e-07
-1.0415e-07
2.08899e-07
2.27901e-07
-4.80922e-07
-3.19744e-07
-5.7395e-08
-3.26533e-07
3.96525e-07
-3.3404e-07
2.65208e-07
2.09992e-07
-3.16516e-08
-4.97436e-08
4.74248e-08
6.47418e-08
1.71688e-07
1.88312e-07
1.09513e-07
8.78339e-08
-3.40768e-07
2.52216e-07
8.85518e-08
-6.76577e-07
-2.63851e-07
4.33724e-07
-2.31892e-07
1.29785e-07
1.15015e-07
1.21633e-07
6.62709e-08
-6.48522e-07
-3.18105e-07
1.36665e-07
1.08135e-07
-2.44467e-07
1.08962e-07
1.64633e-07
-6.81451e-08
-3.58185e-07
-1.54558e-07
3.35796e-07
-7.80727e-07
-2.31878e-09
1.74255e-07
-3.05116e-07
-3.56527e-08
5.59287e-07
-1.74068e-07
-1.89259e-07
-3.258e-07
4.44569e-07
3.01473e-07
2.09467e-07
1.71772e-07
-9.12373e-07
-1.38085e-07
-7.73364e-07
1.08593e-07
-4.15199e-09
-1.22729e-07
2.53421e-08
-1.53949e-07
-2.2624e-07
-1.55871e-07
-8.94608e-08
6.47055e-09
1.65301e-07
-6.16001e-08
-3.17132e-07
-1.02144e-07
-3.22158e-07
2.93039e-07
-1.28952e-07
-2.19867e-07
-3.89158e-07
1.6739e-07
6.97721e-08
-5.44854e-07
5.4531e-07
-4.55798e-10
-7.08445e-08
-4.63193e-07
1.82745e-07
3.57952e-09
-3.88538e-07
-3.01536e-07
-7.08445e-08
-2.24525e-07
8.39618e-08
-2.3852e-07
2.21776e-09
-1.87543e-07
7.07719e-07
-5.3393e-07
3.00808e-07
5.81196e-08
-2.09644e-07
7.69898e-07
1.38074e-07
-4.03247e-07
2.14845e-07
1.88402e-07
-1.72457e-07
-2.21865e-07
-2.14935e-07
-4.56895e-07
-1.69517e-07
-3.43601e-07
-8.4832e-08
9.35463e-07
3.71743e-07
-4.98667e-08
3.78968e-07
-4.10727e-08
2.48622e-07
-3.22186e-07
7.17244e-08
4.43005e-09
3.22186e-07
-7.17244e-08
2.3945e-07
3.78968e-07
2.05141e-07
-5.04338e-07
-1.83698e-07
7.34049e-07
-6.54617e-07
3.26684e-07
-3.12645e-07
4.66276e-09
3.41287e-07
-1.45656e-08
9.45994e-09
-2.50536e-07
-2.02822e-07
-1.04599e-08
-3.12645e-07
2.47304e-07
-1.1913e-07
-1.13359e-07
1.03094e-08
2.51852e-07
-6.7143e-08
-1.35543e-08
-9.45994e-09
-1.30534e-07
2.50536e-07
-1.10543e-07
2.02822e-07
1.61761e-08
-2.51852e-07
3.2854e-08
6.7143e-08
-2.47304e-07
3.41287e-07
-1.13359e-07
-3.7422e-07
-6.62484e-07
-6.01785e-07
-5.4997e-07
6.82156e-07
2.16332e-07
-7.82578e-08
1.31861e-07
1.10575e-07
4.7975e-08
7.50076e-07
-3.94835e-07
5.31308e-08
-4.69333e-07
1.10575e-07
3.52944e-07
-6.3162e-08
-2.20359e-07
2.06034e-07
4.11622e-07
1.17474e-07
-1.44251e-08
-1.17474e-07
-1.90075e-07
2.16954e-07
-2.68788e-08
-5.22115e-07
1.92204e-07
1.9048e-07
-3.55796e-07
3.92757e-07
2.94152e-07
-7.01808e-07
4.00361e-08
2.93091e-07
3.07102e-08
-1.44401e-07
2.48157e-07
2.48528e-08
-2.17699e-07
3.63533e-07
-1.08847e-07
-4.05448e-07
4.05448e-07
-3.59651e-07
-2.62542e-07
-2.8421e-07
2.48157e-07
2.47379e-07
4.33735e-08
2.83394e-07
-8.68148e-08
-5.15071e-07
3.8403e-07
-5.09669e-07
4.07201e-07
-7.23049e-07
8.68782e-08
-8.68782e-08
-2.08293e-07
-2.28297e-07
-5.22659e-08
5.22659e-08
-4.55585e-08
4.55585e-08
-2.46903e-07
3.89341e-08
5.64579e-08
1.4926e-07
1.66621e-08
-1.65922e-07
3.59483e-07
-3.59483e-07
9.20838e-08
3.07996e-07
3.5002e-07
6.04327e-08
-5.73862e-07
-5.21805e-08
-1.82172e-07
-1.62723e-07
-3.43316e-07
-7.66923e-07
6.57305e-08
4.27786e-09
-1.55101e-07
-5.88689e-08
-1.16984e-07
-6.89555e-08
-1.07533e-07
-9.45063e-09
-7.40154e-07
-4.05738e-08
-1.74331e-07
-1.70228e-07
-6.03174e-07
5.32039e-08
-1.55871e-07
-2.20616e-07
3.46012e-07
6.29968e-08
-1.46664e-07
-1.24554e-07
1.24554e-07
2.05537e-08
2.57237e-07
-4.79793e-07
-7.99524e-08
-5.08196e-08
5.08196e-08
-6.86442e-07
1.7997e-07
-3.17046e-09
8.51682e-10
-6.83932e-07
2.10847e-07
8.21015e-08
-2.92948e-07
-2.07293e-07
9.00869e-08
1.17206e-07
-5.26708e-08
-1.413e-08
1.67705e-07
-1.70875e-07
-1.17e-07
-4.67743e-08
4.67743e-08
1.27135e-07
3.00117e-07
2.63642e-07
2.06595e-07
-2.56461e-07
9.93314e-08
-2.12894e-07
4.44257e-08
-8.01574e-08
4.89805e-07
-2.78958e-07
2.42265e-07
1.94696e-07
5.58448e-08
5.11409e-09
-1.74631e-07
-4.31822e-08
9.40979e-08
-3.20263e-07
9.40232e-08
-6.57305e-08
2.68055e-07
-3.10408e-08
2.68799e-07
4.42521e-08
2.23803e-07
5.4791e-08
2.14008e-07
2.79244e-07
3.50412e-07
5.55681e-07
4.2029e-07
5.48025e-07
3.86551e-08
-3.03059e-07
2.48268e-07
2.01268e-07
1.73295e-07
1.30504e-07
-5.17674e-08
2.31491e-07
2.51279e-07
-2.23406e-07
3.23496e-07
-7.44824e-10
-1.27445e-07
-4.03713e-08
2.244e-07
1.39974e-07
-2.127e-07
2.88009e-07
2.75392e-08
-2.49272e-07
1.99323e-08
4.36078e-07
-3.82874e-07
4.52254e-07
-4.62656e-07
1.52561e-07
2.39799e-07
-4.43427e-08
-6.61421e-07
3.46561e-08
1.62539e-07
1.37108e-07
4.59651e-08
9.49496e-08
2.09377e-07
-6.87673e-08
-2.93715e-08
-1.80057e-07
2.74081e-07
5.89642e-09
-3.79854e-09
)
;

boundaryField
{
    back
    {
        type            empty;
        value           nonuniform List<scalar> 0();
    }
    front
    {
        type            empty;
        value           nonuniform List<scalar> 0();
    }
    top
    {
        type            calculated;
        value           nonuniform List<scalar> 10(-4.368e-07 -4.752e-07 -3.6e-07 -2.448e-07 -2.448e-07 -3.6e-07 -4.368e-07 -9.12e-08 -9.12e-08 -4.752e-07);
    }
    outer_arc
    {
        type            calculated;
        value           uniform 0;
    }
    bottom
    {
        type            calculated;
        value           nonuniform List<scalar> 10(7.40257e-07 3.83928e-07 8.13952e-08 -1.12167e-07 -1.97347e-07 9.40428e-07 -1.87904e-07 9.66627e-07 -1.02016e-07 7.02799e-07);
    }
    inner_arc
    {
        type            calculated;
        value           uniform 0;
    }
}


// ************************************************************************* //
