/*--------------------------------*- C++ -*----------------------------------*\
  =========                 |
  \\      /  F ield         | OpenFOAM: The Open Source CFD Toolbox
   \\    /   O peration     | Website:  https://openfoam.org
    \\  /    A nd           | Version:  9
     \\/     M anipulation  |
\*---------------------------------------------------------------------------*/
FoamFile
{
    format      ascii;
    class       volScalarField;
    location    "0.24";
    object      p;
}
// * * * * * * * * * * * * * * * * * * * * * * * * * * * * * * * * * * * * * //

dimensions      [0 2 -2 0 0 0 0];

internalField   nonuniform List<scalar> 
942
(
14.6291
14.7288
14.7429
14.635
14.7425
14.7023
14.6904
14.702
14.6725
14.67
14.7475
14.7125
14.6409
14.7501
14.711
14.7299
14.7065
14.6266
14.684
14.7396
14.7113
14.7089
14.6144
14.7263
14.746
14.7282
14.7534
14.6155
14.7142
14.615
14.7307
14.7539
14.7124
14.6557
14.7545
14.6219
14.6364
14.6078
14.6343
14.7203
14.6477
14.6601
14.7174
14.6885
14.6895
14.6946
14.6768
14.6581
14.644
14.7487
14.6844
14.6138
14.6216
14.7362
14.6623
14.6385
14.724
14.6599
14.7242
14.677
14.6107
14.7542
14.6573
14.624
14.6106
14.7254
14.7554
14.6686
14.6358
14.6847
14.7325
14.6753
14.7324
14.6169
14.7321
14.7391
14.7386
14.7556
14.7337
14.7272
14.6991
14.7274
14.7448
14.728
14.7261
14.7492
14.6714
14.7187
14.749
14.7435
14.6609
14.7571
14.6572
14.6436
14.638
14.7375
14.653
14.7204
14.6987
14.6093
14.6791
14.6524
14.6801
14.687
14.6444
14.6105
14.6953
14.7
14.6643
14.6707
14.632
14.6377
14.6726
14.6739
14.7462
14.758
14.6828
14.635
14.6085
14.6704
14.6107
14.6272
14.7204
14.7324
14.7307
14.7339
14.615
14.7081
14.7019
14.6242
14.681
14.6857
14.6751
14.6566
14.663
14.6906
14.6314
14.6691
14.6373
14.6438
14.6501
14.6957
14.6781
14.7362
14.7056
14.719
14.6846
14.6746
14.6271
14.7501
14.7051
14.677
14.7554
14.6903
14.7558
14.6283
14.7261
14.6745
14.6825
14.7372
14.7241
14.6238
14.6287
14.7121
14.6725
14.7524
14.6783
14.6861
14.7002
14.675
14.6627
14.6415
14.6302
14.6126
14.7467
14.6737
14.7399
14.6724
14.6483
14.6748
14.6904
14.7107
14.6314
14.6718
14.6216
14.7232
14.6937
14.7422
14.7484
14.6716
14.7472
14.6748
14.6175
14.7312
14.7412
14.6478
14.7405
14.6183
14.651
14.7312
14.6077
14.6499
14.7396
14.7064
14.6791
14.6446
14.6333
14.7439
14.7271
14.7279
14.742
14.657
14.6688
14.7517
14.7379
14.651
14.7467
14.7467
14.7414
14.7396
14.6485
14.6435
14.6718
14.6548
14.677
14.7569
14.7507
14.6476
14.6093
14.7356
14.7238
14.745
14.7584
14.6801
14.6539
14.6623
14.748
14.6525
14.7345
14.7406
14.7387
14.6892
14.6605
14.6772
14.6795
14.7383
14.6477
14.6566
14.6521
14.7369
14.7484
14.6492
14.7483
14.7362
14.68
14.6592
14.6646
14.6756
14.7424
14.6808
14.6403
14.744
14.752
14.6814
14.6396
14.6702
14.6818
14.6769
14.7281
14.6526
14.6483
14.7475
14.651
14.7503
14.744
14.7468
14.7029
14.6916
14.7448
14.6171
14.683
14.6235
14.6176
14.6879
14.7203
14.6891
14.685
14.679
14.6847
14.6828
14.7219
14.656
14.7484
14.6488
14.695
14.7047
14.6844
14.6901
14.6877
14.6948
14.705
14.6891
14.6862
14.6772
14.7052
14.6651
14.6707
14.7192
14.7412
14.7575
14.6871
14.7472
14.7099
14.7343
14.6622
14.754
14.6958
14.726
14.7443
14.715
14.738
14.7561
14.691
14.7299
14.6583
14.744
14.7501
14.6566
14.6688
14.7033
14.7147
14.6514
14.6906
14.6826
14.6955
14.7131
14.6744
14.6964
14.7025
14.6266
14.6991
14.7315
14.6691
14.706
14.7013
14.7107
14.7058
14.6692
14.6744
14.6974
14.7075
14.6958
14.6634
14.6949
14.694
14.6953
14.7107
14.6583
14.7158
14.7285
14.6941
14.7009
14.7134
14.6539
14.6848
14.7141
14.707
14.6818
14.6786
14.7318
14.664
14.6999
14.6771
14.6763
14.7114
14.7026
14.7106
14.7066
14.6635
14.6999
14.7103
14.6124
14.6597
14.629
14.6865
14.699
14.6879
14.7083
14.711
14.698
14.6715
14.6404
14.6995
14.7156
14.6528
14.6952
14.7035
14.6657
14.6908
14.6345
14.6474
14.6773
14.7158
14.7054
14.6805
14.7177
14.6235
14.7157
14.6769
14.6192
14.6961
14.709
14.697
14.6987
14.6908
14.6693
14.6672
14.6902
14.724
14.6838
14.7001
14.6856
14.6993
14.6854
14.6882
14.6952
14.7167
14.7343
14.7081
14.7197
14.7178
14.7048
14.7156
14.7317
14.6201
14.6955
14.7067
14.6902
14.6843
14.7132
14.6838
14.7041
14.7127
14.7138
14.677
14.7055
14.7207
14.7288
14.6909
14.6719
14.7205
14.7349
14.7344
14.6782
14.7247
14.7229
14.7212
14.7253
14.6734
14.7317
14.7054
14.7093
14.7202
14.7248
14.7285
14.7282
14.6913
14.7082
14.7092
14.7352
14.7111
14.7188
14.7138
14.6991
14.7285
14.7468
14.6924
14.7248
14.6974
14.7268
14.6613
14.7296
14.7165
14.7313
14.6939
14.7264
14.7051
14.7171
14.6981
14.7361
14.7406
14.729
14.7373
14.7209
14.6666
14.7425
14.7306
14.7479
14.7258
14.6807
14.7352
14.7338
14.6859
14.7378
14.7287
14.7392
14.7217
14.7241
14.7272
14.7224
14.7007
14.7349
14.743
14.7326
14.7419
14.6821
14.7449
14.7398
14.7201
14.7248
14.7088
14.7254
14.7166
14.7385
14.7182
14.7169
14.7333
14.7376
14.7328
14.7149
14.7225
14.7368
14.7036
14.7433
14.734
14.7376
14.7293
14.7436
14.6726
14.7508
14.6277
14.7396
14.7257
14.6862
14.7277
14.7331
14.7404
14.7318
14.7322
14.7345
14.7338
14.7393
14.7428
14.7319
14.7472
14.734
14.7399
14.7384
14.7482
14.7394
14.7438
14.6606
14.6369
14.7394
14.747
14.7262
14.7256
14.7216
14.7482
14.6712
14.7444
14.7469
14.7281
14.738
14.663
14.7437
14.7468
14.7441
14.7507
14.7544
14.637
14.741
14.6553
14.7425
14.665
14.6615
14.7519
14.7409
14.6671
14.745
14.6455
14.6658
14.6311
14.7403
14.7395
14.6117
14.7373
14.7151
14.7415
14.665
14.6675
14.607
14.7349
14.7412
14.6708
14.7203
14.7411
14.6678
14.7177
14.7403
14.716
14.7419
14.7395
14.7383
14.7158
14.7227
14.6689
14.7236
14.6353
14.6089
14.7375
14.7352
14.7418
14.6732
14.745
14.7445
14.7364
14.6062
14.6132
14.7224
14.7342
14.7404
14.6509
14.6354
14.7232
14.73
14.7319
14.6755
14.7055
14.6889
14.7212
14.6857
14.7142
14.6666
14.7369
14.7098
14.7151
14.7144
14.6842
14.6907
14.6717
14.7162
14.7106
14.6608
14.6885
14.7273
14.7289
14.751
14.7046
14.6179
14.6676
14.6396
14.6259
14.6155
14.6422
14.6831
14.6617
14.7459
14.6477
14.7551
14.6885
14.7564
14.6772
14.7573
14.679
14.6543
14.7546
14.7573
14.6779
14.6655
14.6678
14.7505
14.6437
14.753
14.7503
14.7462
14.7416
14.7567
14.7525
14.7478
14.7084
14.7538
14.6947
14.7451
14.7432
14.7561
14.7552
14.6924
14.749
14.7515
14.746
14.743
14.7567
14.7548
14.7077
14.6933
14.749
14.6765
14.7452
14.6845
14.664
14.7503
14.71
14.6109
14.7037
14.7518
14.7494
14.7426
14.6402
14.7542
14.7051
14.7129
14.7207
14.6884
14.7032
14.7109
14.7133
14.6942
14.62
14.6744
14.6877
14.7421
14.623
14.6944
14.6996
14.7373
14.6281
14.6428
14.7576
14.6959
14.6461
14.7023
14.7506
14.7259
14.6404
14.6941
14.6318
14.7582
14.6785
14.6778
14.6747
14.7512
14.7205
14.7203
14.7123
14.6828
14.6842
14.7262
14.7288
14.7206
14.7516
14.65
14.6061
14.7374
14.6384
14.6939
14.7064
14.6063
14.74
14.6304
14.7442
14.7003
14.7516
14.6743
14.7531
14.7396
14.7445
14.7418
14.7354
14.7481
14.6807
14.6777
14.7341
14.7348
14.7438
14.7012
14.7513
14.7212
14.6539
14.7201
14.7436
14.7523
14.6713
14.7177
14.715
14.6983
14.7552
14.698
14.7576
14.734
14.7372
14.7442
14.63
14.7394
14.7193
14.6651
14.6597
14.7352
14.6729
14.6431
14.7277
14.7402
14.711
14.6727
14.736
14.6541
14.6409
14.7122
14.7473
14.7009
14.6608
14.6725
14.7367
14.6646
14.7488
14.6933
14.7344
14.6067
14.62
14.6826
14.7366
14.7377
14.6165
14.6618
14.6831
14.7076
14.6899
14.7331
14.7518
14.7018
14.7419
14.618
14.7078
14.7504
14.6207
14.7183
14.6758
14.7031
14.7463
14.7109
14.6246
14.6716
14.7499
14.7461
14.6491
14.6557
14.6729
14.6295
14.6817
14.6661
14.6139
14.6937
14.7371
14.6998
14.6283
14.6992
14.7336
14.7394
14.7397
14.7166
14.6661
14.6765
14.7408
14.6895
14.7067
14.6958
14.7517
14.6399
14.7405
14.6921
14.6837
14.6801
14.6294
14.6362
14.6921
14.6737
14.6432
14.7515
14.6966
14.6887
14.7133
14.6066
14.737
14.655
14.6979
14.6334
14.6167
14.7414
14.7191
14.7537
14.7548
14.6628
14.6881
14.6873
14.6722
14.7454
14.7538
14.6365
14.6494
14.7351
14.7317
14.743
14.6782
14.6536
14.7072
14.7466
14.7178
14.6356
14.7385
14.7382
14.7318
14.7099
14.744
14.6812
14.6922
14.7453
14.7103
14.754
14.6202
14.6256
14.7415
14.6715
14.6267
14.7007
14.6245
14.656
14.6588
14.6194
14.6727
14.6961
14.6227
14.6288
)
;

boundaryField
{
    back
    {
        type            empty;
    }
    front
    {
        type            empty;
    }
    top
    {
        type            zeroGradient;
    }
    outer_arc
    {
        type            zeroGradient;
    }
    bottom
    {
        type            uniformFixedValue;
        uniformValue    
        {
            type            table;
            format          csv;
            file            "outlet_p.csv";
            nHeaderLine     1;
            refColumn       0;
            componentColumns List<label> 1(1);
            separator       ",";
            mergeSeparators 0;
        }
        value           uniform 14.74;
    }
    inner_arc
    {
        type            zeroGradient;
    }
}


// ************************************************************************* //
