/*--------------------------------*- C++ -*----------------------------------*\
  =========                 |
  \\      /  F ield         | OpenFOAM: The Open Source CFD Toolbox
   \\    /   O peration     | Website:  https://openfoam.org
    \\  /    A nd           | Version:  9
     \\/     M anipulation  |
\*---------------------------------------------------------------------------*/
FoamFile
{
    format      ascii;
    class       volVectorField;
    location    "0.24";
    object      U;
}
// * * * * * * * * * * * * * * * * * * * * * * * * * * * * * * * * * * * * * //

dimensions      [0 1 -1 0 0 0 0];

internalField   nonuniform List<vector> 
942
(
(0.120331 -0.375856 0)
(0.280464 0.024978 3.52493e-17)
(0.110545 0.306924 0)
(0.0501061 -0.421115 -1.84308e-17)
(0.105526 0.312119 1.12103e-17)
(0.163494 -0.138877 1.97661e-17)
(0.0405621 -0.0638882 5.23701e-17)
(0.192425 -0.15162 0)
(0.0285401 -0.257558 -4.07372e-17)
(0.0303166 -0.283526 4.14991e-17)
(0.200796 0.150205 0)
(0.276482 -0.10234 0)
(0.0483836 -0.427274 1.72029e-17)
(0.179519 0.167716 0)
(0.294055 -0.101183 0)
(0.263566 0.0164126 -3.83461e-17)
(0.246732 0.236414 -1.50634e-17)
(0.101946 -0.375142 0)
(0.227017 0.128322 -4.52447e-18)
(0.124515 0.0312342 6.98649e-18)
(0.252586 0.243933 2.56281e-17)
(0.285937 -0.113849 2.06754e-17)
(0.0734066 -0.138284 0)
(0.143339 0.296237 -4.08832e-17)
(0.217579 0.155852 0)
(0.15153 0.308482 3.06877e-17)
(0.0919583 0.275688 0)
(0.0904322 -0.18677 2.60191e-17)
(0.186631 0.284331 0)
(0.0767837 -0.274045 1.64049e-17)
(0.157282 0.303286 2.06491e-17)
(0.0816981 0.271008 0)
(0.166886 0.275644 1.94702e-17)
(0.205088 -0.00877343 2.29844e-17)
(0.112093 0.252129 -2.26415e-17)
(0.100715 -0.114639 4.32451e-17)
(0.235905 -0.287753 1.42512e-18)
(0.0212857 -0.219334 0)
(0.226495 -0.296951 -7.27472e-19)
(0.141373 0.273048 2.92009e-17)
(0.204067 -0.0439232 -4.10817e-17)
(0.342496 -0.222878 0)
(0.106287 0.205518 -2.03162e-17)
(0.0574911 -0.105741 -1.74566e-17)
(0.0590862 -0.0901456 -4.40899e-17)
(0.219953 0.198015 9.86271e-18)
(0.220238 0.0858849 -2.00582e-17)
(0.181584 -0.00100875 -1.89702e-17)
(0.154757 -0.0450298 2.12293e-17)
(0.196886 0.176146 2.46837e-17)
(0.240969 0.128755 0)
(0.0232488 -0.0469185 0)
(0.0405895 -0.0394936 -2.9397e-17)
(0.123696 0.274054 2.30806e-17)
(0.0302866 -0.348273 0)
(0.219912 -0.116914 -1.541e-17)
(0.114211 -0.0231023 -3.92263e-17)
(0.0370939 -0.366702 -2.75664e-18)
(0.183212 -0.0279331 5.02423e-17)
(0.331467 0.0465883 2.15454e-17)
(0.0569044 -0.201578 -2.05068e-17)
(0.101736 0.261709 -5.32882e-17)
(0.251129 -0.013999 2.46609e-17)
(0.122933 -0.343224 -1.98792e-17)
(0.0349766 -0.223658 1.89806e-17)
(0.273172 -0.0114772 1.46961e-17)
(0.0911838 0.257577 4.16791e-17)
(0.228929 0.0514419 -1.90071e-17)
(0.165493 -0.0825303 1.96436e-17)
(0.105187 -0.21629 5.36078e-18)
(0.274424 0.0343556 0)
(0.0327755 -0.17398 0)
(0.120733 0.00350689 -2.56507e-18)
(0.0730046 -0.308289 4.91294e-18)
(0.127784 0.286224 -2.18896e-17)
(0.191129 0.0625048 1.2207e-21)
(0.189108 0.0479989 2.57208e-18)
(0.101326 0.245468 2.30063e-17)
(0.14958 0.302259 -2.4674e-17)
(0.283066 0.006297 -5.0237e-18)
(0.0800203 -0.081265 3.01065e-17)
(0.159272 0.307608 -1.06624e-17)
(0.21668 0.126827 -2.71077e-18)
(0.258583 -0.00171693 1.10515e-17)
(0.242461 -0.0149474 0)
(0.0656583 0.300261 0)
(0.293609 0.0442205 -2.25815e-17)
(0.242591 -0.0730561 6.23252e-18)
(0.186412 0.184233 0)
(0.233495 0.130418 3.0862e-17)
(0.350382 -0.204864 -1.55102e-17)
(0.0934325 0.178269 7.20938e-19)
(0.0357739 -0.398339 3.09145e-18)
(0.261606 -0.116422 0)
(0.241246 -0.145233 -6.06493e-18)
(0.267478 0.0955598 1.12101e-17)
(0.323377 -0.227214 1.9152e-17)
(0.219391 -0.0640486 -1.81216e-17)
(0.129912 -0.135445 -2.6957e-17)
(0.0307649 -0.172767 -3.83044e-17)
(0.0498431 -0.168235 -1.1539e-17)
(0.0293173 -0.409678 1.27459e-17)
(0.23292 0.10655 0)
(0.0991579 -0.189695 1.47706e-17)
(0.293056 -0.18075 -2.3112e-17)
(0.0506189 -0.162288 -3.76646e-17)
(0.233572 0.198973 -1.31756e-17)
(0.20829 0.22908 0)
(0.19657 0.0267778 2.05118e-17)
(0.208401 0.0548573 0)
(0.124461 -0.0779342 0)
(0.135129 -0.0603781 -2.07187e-17)
(0.273704 0.0589939 4.11549e-17)
(0.0338632 -0.200999 0)
(0.210009 0.167107 0)
(0.0578898 0.110997 2.81278e-18)
(0.326462 0.0828622 -2.20994e-17)
(0.0658522 -0.415906 2.31448e-17)
(0.0138998 -0.0720411 -2.97205e-25)
(0.365768 -0.0506225 -2.67249e-18)
(0.023124 -0.06727 9.05459e-18)
(0.115887 -0.0910991 -2.32185e-17)
(0.0614876 0.121537 0)
(0.192284 0.0194128 2.05926e-17)
(0.192197 0.00456722 1.66543e-17)
(0.145772 0.307769 -4.38274e-17)
(0.00419319 -0.00933239 2.35013e-17)
(0.140104 0.223742 -2.22844e-17)
(0.162407 0.217774 4.07202e-17)
(0.00595426 -0.011772 2.14705e-17)
(0.178021 0.0971289 -1.10114e-17)
(0.187049 0.130533 -2.54069e-17)
(0.16871 0.0671606 0)
(0.109011 0.00754457 0)
(0.128244 0.0211906 -2.2958e-17)
(0.188452 0.164284 -1.58858e-17)
(0.050617 -0.0240623 1.39945e-18)
(0.148088 0.0414328 0)
(0.0618833 -0.02041 2.86336e-17)
(0.0834135 -0.0172586 -9.78388e-18)
(0.0908489 -0.00880808 2.30306e-17)
(0.175998 0.188442 0)
(0.29412 0.0819005 -2.25828e-17)
(0.139703 0.306797 2.43224e-17)
(0.168515 -0.125786 -5.72122e-18)
(0.163785 0.294111 -1.03093e-17)
(0.0758218 -0.17143 0)
(0.0428548 -0.203297 -1.36818e-17)
(0.188565 -0.209852 3.43341e-17)
(0.0750198 0.30055 0)
(0.195373 -0.134903 6.18206e-18)
(0.373253 -0.0135555 6.77142e-18)
(0.120933 0.224247 0)
(0.129061 -0.183801 1.28592e-17)
(0.111137 0.234775 -2.25146e-17)
(0.195844 -0.274317 0)
(0.238496 -0.0233835 2.52024e-17)
(0.0140595 -0.0746079 0)
(0.34137 0.0662269 0)
(0.255138 0.0804788 9.33971e-18)
(0.260452 -0.0303924 -3.26674e-17)
(0.167271 -0.232328 0)
(0.0319537 -0.408949 0)
(0.19973 -0.0983626 1.15343e-17)
(0.355213 -0.00553442 0)
(0.158943 0.18561 -3.43244e-17)
(0.0608463 -0.191373 0)
(0.128807 -0.227797 0)
(0.223006 0.23009 2.00966e-17)
(0.233755 0.0799142 2.39826e-17)
(0.220213 0.0211312 -2.00922e-17)
(0.179782 -0.0623508 -2.66422e-18)
(0.155145 -0.103874 -5.09796e-21)
(0.0782623 -0.192416 1.28296e-17)
(0.0695941 0.319203 0)
(0.117636 -0.326822 -2.47497e-17)
(0.24123 0.0922702 -2.37432e-17)
(0.110151 -0.335747 0)
(0.305465 -0.14483 8.1939e-19)
(0.143708 -0.338373 0)
(0.102354 -0.157195 -1.50719e-17)
(0.192776 0.272226 0)
(0.227037 -0.251235 -2.9233e-17)
(0.135478 -0.350908 6.09256e-21)
(0.0863518 -0.353479 -1.47351e-17)
(0.167059 0.303894 0)
(0.326817 0.13079 -1.16948e-17)
(0.119943 0.299841 2.35795e-17)
(0.0832553 0.298079 3.36415e-17)
(0.165077 -0.35739 1.11274e-17)
(0.126951 0.262782 4.55629e-17)
(0.172913 -0.344102 -1.11648e-17)
(0.10152 -0.260666 -1.41492e-17)
(0.163373 0.295556 -2.15472e-17)
(0.12649 0.296995 1.19364e-17)
(0.0613397 -0.420532 -1.05372e-17)
(0.134575 0.288674 0)
(0.0994294 -0.288846 3.8021e-17)
(0.20004 -0.0313744 -2.76358e-17)
(0.0505441 0.095693 2.11254e-17)
(-0.0012809 -0.0458639 0)
(0.0769494 -0.420358 1.07048e-17)
(0.130698 0.301135 0)
(0.233991 0.247656 -2.52117e-17)
(0.275082 0.0937021 2.38955e-17)
(0.2426 -0.0920907 0)
(0.209742 -0.146253 2.37437e-17)
(0.114518 0.295597 -5.22061e-17)
(0.0777729 0.166871 -2.0364e-17)
(0.12201 0.264003 1.99562e-17)
(0.127382 0.290462 -1.15817e-17)
(0.0840146 -0.404511 9.8782e-21)
(0.0490825 -0.313607 1.83654e-17)
(0.10609 0.265772 1.10984e-17)
(0.136824 0.300738 0)
(0.138618 -0.411601 -1.13239e-21)
(0.0856074 0.304396 -2.76306e-17)
(0.158266 0.230937 2.32937e-17)
(0.136616 0.281258 2.29599e-17)
(0.144415 0.280004 -3.47301e-21)
(0.167387 -0.40157 0)
(0.129901 -0.41203 -2.17359e-17)
(0.194337 -0.356325 0)
(0.111198 -0.412708 0)
(0.00656337 -0.0384433 -2.34024e-17)
(0.039898 0.145483 2.32358e-17)
(0.114003 0.262291 -1.63496e-17)
(0.196172 -0.385081 -2.23903e-17)
(0.00823843 -0.0269364 3.41916e-17)
(0.162012 0.278042 0)
(0.176493 0.299367 -2.10245e-17)
(0.114941 0.288404 -4.08385e-17)
(0.0492317 0.126832 2.2524e-17)
(0.00833779 -0.0341616 -1.23389e-17)
(0.156111 -0.40818 -1.12477e-17)
(0.0723689 -0.387263 8.25926e-21)
(0.15032 0.234254 -2.41613e-17)
(0.185633 -0.396817 2.24748e-17)
(0.158186 0.287186 -2.18904e-17)
(0.146978 0.271569 2.27301e-17)
(0.155345 0.27023 0)
(0.130073 -0.212844 -5.5613e-18)
(0.217928 -0.377195 1.11102e-17)
(0.10595 -0.282515 -1.26686e-17)
(0.129901 -0.294652 -2.24052e-17)
(0.139177 0.294594 -2.27206e-17)
(0.224454 -0.365099 1.11754e-17)
(0.12811 -0.411237 -1.20858e-17)
(0.214677 -0.380123 -2.23985e-17)
(0.149859 0.287175 5.59166e-18)
(0.119199 0.265723 -5.75367e-18)
(0.277846 -0.0871837 -2.09814e-17)
(0.12913 0.255181 0)
(0.146515 0.294718 1.68969e-17)
(0.157859 -0.304634 2.22367e-17)
(0.0994304 -0.402661 2.44922e-17)
(0.201611 -0.37928 0)
(0.201314 -0.340793 0)
(0.172798 0.230957 -1.13781e-17)
(0.106638 -0.262603 1.26179e-17)
(0.15719 -0.395186 -1.1008e-17)
(0.175188 0.221972 1.11892e-17)
(0.11619 0.255355 -2.81157e-17)
(0.1851 -0.306943 -5.87957e-18)
(0.211888 -0.349628 1.16149e-17)
(0.0411816 -0.263674 0)
(0.131884 -0.278251 0)
(0.22785 -0.330941 0)
(0.172253 0.295437 2.13676e-17)
(0.243705 -0.360055 1.12986e-17)
(0.252319 -0.341557 2.13503e-17)
(0.100865 0.288786 -2.09639e-17)
(0.263271 -0.0662551 2.43972e-17)
(0.104354 0.273137 -1.10619e-17)
(0.122094 0.285632 2.31875e-17)
(0.169048 0.219503 -2.3186e-17)
(0.105628 0.143505 0)
(0.235926 -0.244285 0)
(0.132728 0.267614 -1.14391e-17)
(0.0321005 -0.0369222 -2.38739e-17)
(0.158396 -0.287477 0)
(0.125747 -0.123769 -1.93659e-18)
(0.0839964 -0.123649 2.40084e-17)
(0.248556 -0.270065 0)
(0.265493 0.21333 4.45596e-17)
(0.362459 0.0654744 -2.21553e-17)
(0.230101 -0.287049 3.34987e-17)
(0.251144 -0.315275 2.21696e-17)
(0.18357 -0.28607 5.76254e-18)
(0.209851 -0.300637 5.72812e-18)
(0.255238 0.2234 -2.25932e-17)
(0.303769 -0.0619758 2.65108e-17)
(0.171823 0.211725 -1.0366e-17)
(0.293323 -0.275187 2.4883e-17)
(0.197882 -0.204898 6.38055e-18)
(0.27254 0.214538 -2.04374e-17)
(0.372586 0.0290103 0)
(0.373291 0.0463615 1.146e-17)
(0.383697 0.00855692 1.06563e-17)
(0.361975 0.0809578 0)
(0.33476 0.138793 0)
(0.222796 -0.263807 -1.14551e-17)
(0.395837 -0.0603176 -5.14544e-18)
(0.390345 -0.121078 -3.5696e-17)
(0.325734 0.155777 -3.56802e-17)
(0.230537 -0.366573 1.10814e-17)
(0.373886 -0.182012 -3.53155e-17)
(0.0977556 -0.0289882 0)
(0.111436 0.0372878 -1.04851e-17)
(0.0619469 0.103922 2.19984e-17)
(0.0181845 -0.0463843 1.782e-17)
(0.0916872 0.0542605 -4.34355e-22)
(0.067485 -0.0428629 -3.15389e-18)
(0.121323 0.016006 -2.19234e-17)
(0.33288 -0.270502 7.27647e-21)
(0.0754384 0.0805472 3.5393e-17)
(0.0354116 -0.0447606 -2.40893e-17)
(0.110794 -0.014784 1.52496e-21)
(0.0913157 0.043047 -6.22522e-18)
(0.0898806 -0.0400933 0)
(0.0977635 0.0169205 -6.4378e-18)
(0.0650177 0.087247 0)
(0.0222513 -0.0368925 2.52794e-17)
(0.111243 -0.00443552 -4.50567e-17)
(0.299526 -0.0438156 -2.78655e-17)
(0.186459 0.209742 -2.30234e-17)
(0.0882518 0.0673258 0)
(0.307693 -0.296181 -1.14427e-17)
(0.354861 -0.243151 0)
(0.0533437 -0.0496012 0)
(0.277244 0.214695 -4.46107e-17)
(0.280125 -0.319755 -1.9527e-17)
(0.293787 -0.241866 1.11842e-17)
(0.39386 -0.078209 -2.01891e-17)
(0.260068 -0.216753 0)
(0.28659 0.202911 2.23125e-17)
(0.384353 -0.141329 1.2718e-17)
(0.277714 0.182718 -6.56966e-19)
(0.282859 0.198902 0)
(0.0412821 -0.0282877 -2.25686e-17)
(0.315504 0.15712 3.27639e-17)
(0.286129 0.0981672 -2.25277e-17)
(0.367071 -0.200735 -5.78593e-18)
(0.303089 0.183265 -5.56596e-17)
(0.368092 0.0772123 -2.27508e-17)
(0.268982 0.223839 0)
(0.353399 0.106412 2.31492e-17)
(0.343427 -0.260822 2.21816e-17)
(0.249064 -0.333158 2.21542e-17)
(0.379983 0.0454731 -1.11949e-17)
(0.294143 0.197961 2.23069e-17)
(0.387845 0.0115249 6.51993e-22)
(0.321808 -0.288007 -5.63751e-17)
(0.393936 -0.0220399 -1.17308e-17)
(0.284377 0.16897 -1.99156e-17)
(0.240243 -0.216736 0)
(0.33567 0.131903 2.27752e-17)
(0.297788 -0.313604 0)
(0.315395 0.152271 1.11714e-17)
(0.292186 0.103812 2.25608e-17)
(0.394937 -0.0565556 2.85768e-17)
(0.30127 -0.171999 0)
(0.298838 -0.0811483 -3.15689e-18)
(0.26861 -0.335326 1.88665e-17)
(0.394642 -0.114935 -2.25395e-17)
(0.321359 -0.0664964 1.18582e-17)
(0.280848 -0.137554 -1.14243e-17)
(0.110778 0.0586344 5.22116e-17)
(0.381038 -0.174407 3.35155e-17)
(0.287503 0.08624 -5.86626e-18)
(0.332873 -0.0357908 0)
(0.306061 0.172849 2.20549e-17)
(0.103896 0.0390885 -1.13605e-17)
(0.35912 -0.231392 -2.1515e-17)
(0.308582 0.177489 1.12719e-17)
(0.373047 0.0587999 1.12042e-17)
(0.317259 0.162213 1.12866e-17)
(0.359164 0.0882391 2.32015e-17)
(0.273959 -0.340201 1.0917e-17)
(0.383962 0.0262831 1.11471e-17)
(0.0853873 0.136965 2.55178e-17)
(0.00435823 -0.0288161 0)
(0.0566461 0.00234835 2.29527e-17)
(0.009715 -0.00656721 0)
(0.121114 0.0826499 5.66528e-18)
(0.390496 -0.00633295 3.51701e-17)
(0.398663 -0.0968411 4.44327e-17)
(0.33478 -0.0972318 3.45037e-18)
(0.342111 0.114588 -4.62628e-17)
(0.392241 -0.0400232 -4.7068e-17)
(0.0881992 0.0231582 -1.16305e-17)
(0.0186091 -0.00437066 -5.84017e-18)
(0.240682 -0.191437 0)
(0.331232 -0.0334211 2.31429e-17)
(0.0382791 -0.00407416 6.13783e-18)
(0.296119 -0.212083 0)
(0.318136 -0.147668 2.21157e-17)
(0.0706976 0.0101297 5.9698e-18)
(0.119773 0.103743 1.17116e-17)
(0.0110276 -0.00450442 -1.49295e-18)
(0.0381022 -0.0103838 -1.02843e-17)
(0.338541 -0.262909 -3.30531e-17)
(0.293578 -0.0712825 0)
(0.275223 -0.149735 1.0627e-17)
(0.388467 -0.155596 0)
(0.287422 0.192634 0)
(0.15837 -0.201097 0)
(0.322416 0.136497 0)
(0.371064 -0.214852 1.10367e-17)
(0.00436059 -0.00466201 3.4447e-17)
(0.110209 0.118239 -2.44172e-17)
(0.352132 -0.0757989 1.12014e-17)
(0.332211 -0.181829 0)
(0.389607 -0.0729265 3.35031e-17)
(0.390865 -0.128619 0)
(0.282891 -0.327299 -1.11301e-17)
(0.299277 -0.316893 1.1147e-17)
(0.338021 -0.214272 1.10521e-17)
(0.263734 0.20069 2.24289e-17)
(0.349052 -0.232697 1.10313e-17)
(0.290092 -0.181052 2.33336e-17)
(0.378122 -0.184895 -4.44677e-17)
(0.260118 -0.189982 0)
(0.30503 -0.26413 -1.10251e-17)
(0.385608 -0.145995 2.22348e-17)
(0.39022 -0.0900045 -2.23016e-17)
(0.296671 0.179517 0)
(0.277608 0.103336 2.35214e-17)
(0.366655 -0.0508221 2.25159e-17)
(0.302982 -0.0281577 -4.18361e-17)
(0.26498 -0.0596348 0)
(0.378878 -0.0364692 2.24985e-17)
(0.316855 -0.0543618 0)
(0.278185 0.120667 0)
(0.116782 -0.141817 0)
(0.311573 -0.204033 0)
(0.375213 0.0245961 3.3553e-17)
(0.312284 -0.235106 0)
(0.367711 -0.201068 1.11531e-17)
(0.339217 -0.044757 -2.36203e-17)
(0.33426 -0.245534 1.10109e-17)
(0.321735 -0.13374 -2.05054e-17)
(0.351061 0.0819401 -2.25234e-17)
(0.346751 -0.0207392 0)
(0.272132 -0.31393 -2.22057e-17)
(0.370775 -0.0650983 -3.35685e-17)
(0.300476 0.15357 0)
(0.278435 0.141858 0)
(0.350833 -0.20097 0)
(0.320894 -0.290888 2.21179e-17)
(0.31302 0.125173 2.97233e-21)
(0.264433 0.134964 -2.85565e-21)
(0.27545 0.114657 -2.32422e-17)
(0.322392 -0.275029 0)
(0.29169 0.140863 0)
(0.273433 0.190576 0)
(0.292442 0.16703 0)
(0.302807 0.0231809 0)
(0.30467 -0.302205 -1.10826e-17)
(0.272174 0.131894 -2.28929e-17)
(0.379763 -0.00622652 3.36203e-17)
(0.365245 0.054591 -1.12272e-17)
(0.184962 0.294246 2.24575e-17)
(0.298021 0.127319 -1.11929e-17)
(0.231761 0.224395 1.13913e-17)
(0.287378 0.116631 -1.12452e-17)
(0.259027 -0.247078 0)
(0.371938 -0.0225372 -2.24792e-17)
(0.370916 0.00643492 -4.463e-17)
(0.236392 0.180976 0)
(0.364004 0.035621 -2.2372e-17)
(0.332941 0.0565226 -2.28219e-17)
(0.351973 0.0633636 0)
(0.379245 -0.100601 0)
(0.250314 0.196478 4.25629e-21)
(0.180021 0.20781 1.02841e-17)
(0.366285 -0.169599 0)
(0.303201 0.0988768 -3.37165e-17)
(0.376769 -0.115951 0)
(0.242149 0.218217 0)
(0.246874 -0.360552 -2.19776e-17)
(0.24045 0.204144 -2.24592e-17)
(0.333286 0.105605 0)
(0.246799 0.18316 -2.24574e-17)
(0.374351 -0.154376 -1.11261e-17)
(0.26898 0.17674 2.2411e-17)
(0.356973 -0.0913103 -2.29099e-17)
(0.336252 0.0881695 2.2501e-17)
(0.342023 -0.168368 0)
(0.227386 0.187952 -1.12387e-17)
(0.228397 0.171186 -3.97688e-17)
(0.270874 0.153133 0)
(0.235942 0.171618 0)
(0.317748 0.109462 3.36019e-17)
(0.257611 -0.348777 -2.16219e-17)
(0.183929 0.21793 0)
(0.255887 0.17447 2.24548e-17)
(0.161274 0.223696 4.75115e-17)
(0.277648 0.165946 -2.24033e-17)
(0.291408 -0.290641 0)
(0.258018 0.144816 4.78169e-17)
(0.228557 0.199616 1.12231e-17)
(0.285632 -0.270053 0)
(0.200114 0.217744 2.24952e-17)
(0.295217 0.0783469 -1.23342e-17)
(0.180051 0.235889 0)
(0.319058 0.0787501 0)
(0.309502 0.0358088 0)
(0.220378 0.24403 1.97301e-17)
(0.312568 0.0143989 -1.08575e-17)
(0.349466 -0.137591 -2.72204e-17)
(0.219005 0.205763 0)
(0.194087 0.204972 1.15747e-17)
(0.220034 0.218084 -2.24542e-17)
(0.220397 0.177629 3.79763e-17)
(0.271112 -0.294512 0)
(0.196581 0.196387 -9.7737e-18)
(0.201043 0.207074 0)
(0.329814 0.0399306 0)
(0.217802 0.257751 0)
(0.329746 -0.108293 0)
(0.306053 0.0844276 1.12931e-17)
(0.342924 0.0317443 0)
(0.210185 0.201952 0)
(0.335824 0.0154659 -1.13232e-17)
(0.336088 -0.00944247 -1.11292e-17)
(0.251999 0.162763 0)
(0.189311 0.232607 0)
(0.260131 0.153446 0)
(0.34773 0.0058536 4.47366e-17)
(0.319254 0.0630615 3.41057e-17)
(0.24348 0.16367 0)
(0.352178 -0.121943 1.92358e-17)
(0.140692 0.265396 -2.2761e-17)
(0.210136 0.223273 2.24605e-17)
(0.178153 0.246462 -2.25428e-17)
(0.178191 0.286634 5.23325e-21)
(0.204432 0.19153 0)
(0.222943 -0.347501 0)
(0.124046 0.252026 2.1898e-17)
(0.146561 -0.348588 0)
(0.219268 0.186673 0)
(0.230281 0.238958 -1.99312e-17)
(0.204716 -0.278144 -2.82539e-17)
(0.206506 0.260808 0)
(0.171145 0.277694 -2.24179e-17)
(0.211453 0.192712 0)
(0.209319 0.235982 -2.24607e-17)
(0.184455 0.265843 -1.12391e-17)
(0.174671 0.267096 4.4968e-17)
(0.198861 0.239267 0)
(0.190861 0.221997 -2.24776e-17)
(0.151132 0.254611 1.13412e-17)
(0.197149 0.251754 0)
(0.117597 0.273286 2.84645e-17)
(0.187051 0.254045 -1.12482e-17)
(0.157896 0.260845 -2.26167e-17)
(0.250394 0.146107 -2.10543e-17)
(0.109905 0.276599 -1.14548e-17)
(0.243533 0.154963 0)
(0.164235 0.234356 -2.27746e-17)
(0.188192 -0.388888 0)
(0.136683 -0.396013 3.28376e-17)
(0.169023 0.248905 3.38523e-17)
(0.137014 0.252214 2.27263e-17)
(0.187888 0.285417 4.5116e-17)
(0.203006 0.271855 -1.19157e-17)
(0.193007 0.290165 -2.27062e-17)
(0.139579 0.244644 0)
(0.0613127 -0.312327 0)
(0.142855 0.256926 -2.27343e-17)
(0.109245 0.28416 4.73777e-17)
(0.193164 0.274869 0)
(0.16672 0.259096 -3.38591e-17)
(0.128694 -0.390793 -8.61035e-21)
(0.130948 0.275634 1.14649e-17)
(0.147552 0.241603 0)
(0.153442 0.245902 1.15081e-17)
(0.134609 0.241927 -3.42058e-17)
(0.122166 0.240979 0)
(0.101987 -0.410277 2.5498e-17)
(0.104056 0.327446 -4.87422e-17)
(0.00945874 -0.389487 0)
(0.16189 0.243187 0)
(0.171687 -0.385568 -2.22205e-17)
(0.158077 -0.39407 0)
(0.126772 0.245229 2.27776e-17)
(0.115245 0.32334 6.57247e-19)
(0.0755991 -0.353564 -2.43954e-17)
(0.123346 0.278029 -2.30336e-17)
(0.301766 -0.206976 -1.83575e-17)
(0.141993 -0.384034 2.23242e-17)
(0.00999132 -0.423968 0)
(0.123509 0.320975 0)
(0.131607 0.326544 7.72144e-17)
(0.00608024 -0.320307 -4.96194e-17)
(0.136432 0.315784 -4.9096e-17)
(0.208557 -0.0738676 0)
(0.0909708 0.331412 2.42395e-17)
(0.0997831 -0.377694 -3.48655e-17)
(0.112614 -0.372 3.5072e-17)
(0.00320364 -0.216331 0)
(0.100452 0.20485 -2.4889e-17)
(0.0764515 0.346182 -7.48538e-17)
(0.00731537 -0.218097 -2.35477e-17)
(0.211467 0.276522 3.19217e-21)
(0.10815 0.318111 2.11309e-17)
(0.0866796 -0.353043 -2.39797e-17)
(0.202778 0.284757 1.16017e-17)
(0.118768 0.315801 0)
(0.243773 0.251411 -2.6462e-17)
(0.0955061 0.320017 5.48094e-17)
(0.12741 0.318172 -2.61042e-17)
(0.135519 0.323897 -3.90034e-21)
(0.200297 -0.0827807 3.69699e-17)
(0.294742 -0.0177915 -3.8628e-21)
(0.367643 -0.0707627 4.39938e-17)
(0.301952 0.00274652 1.61497e-17)
(0.163628 -0.374713 0)
(0.00902884 -0.272349 2.50164e-17)
(0.131194 0.295886 0)
(0.279237 0.0813718 -1.48891e-17)
(0.0807917 0.326762 -7.85819e-19)
(0.0157085 -0.150008 0)
(0.0788147 0.319461 7.23076e-19)
(0.10785 0.299611 2.52967e-17)
(0.0860698 0.205082 -2.95266e-17)
(0.00734978 -0.159827 -7.11882e-18)
(0.0497526 -0.284969 5.95081e-18)
(0.17435 -0.0370325 3.51906e-17)
(0.274824 0.0694893 2.60882e-17)
(0.248404 0.13861 -2.78698e-17)
(0.163866 -0.0176282 2.18361e-17)
(0.188975 -0.350865 0)
(0.240743 -0.0419506 1.315e-17)
(0.290713 0.0477302 0)
(0.146587 0.31178 2.08729e-17)
(0.0907564 -0.30053 0)
(0.191393 0.253209 -4.97504e-17)
(0.288535 0.140883 -2.6799e-17)
(0.310263 -0.00740512 -2.19843e-17)
(0.0417101 -0.0939096 -1.91155e-17)
(0.276575 -0.0826933 0)
(0.273304 0.0236954 1.23798e-18)
(0.249248 0.0623318 0)
(0.259795 -0.111966 -3.88825e-17)
(0.220793 -0.0900731 -1.8485e-17)
(0.235919 -0.0854929 -6.5026e-18)
(0.00962947 -0.0355737 4.86769e-17)
(0.105733 -0.171388 0)
(0.0822542 -0.309451 2.05707e-17)
(0.236435 0.257642 0)
(0.215199 -0.105973 -3.5273e-17)
(0.0140905 -0.361285 -2.64121e-17)
(0.335888 0.10115 2.47761e-17)
(0.301146 0.0448148 0)
(0.296709 0.0662684 -6.49537e-18)
(0.096798 0.277474 0)
(0.205971 0.247196 2.45205e-17)
(0.0278103 -0.359519 7.7931e-19)
(0.00957994 -0.270999 5.25413e-17)
(0.184973 -0.373339 0)
(0.0167898 -0.411044 2.25665e-17)
(0.0130178 -0.359475 2.41587e-17)
(0.0298498 -0.42285 1.26848e-17)
(0.0838729 -0.198433 -1.56614e-21)
(0.286121 -0.0047475 -3.40275e-17)
(0.101083 0.296393 0)
(0.296689 -0.253135 0)
(0.0567776 0.244989 -1.26039e-17)
(0.321895 0.115055 2.54384e-17)
(0.0650522 0.229163 0)
(0.0236647 -0.0786333 1.24673e-17)
(0.072058 0.21631 -2.10511e-17)
(0.0215142 -0.0750453 0)
(0.0534929 -0.408851 0)
(0.0354187 0.159508 -1.20159e-21)
(0.0464846 0.138617 2.18725e-17)
(0.0111608 -0.0360129 1.21878e-17)
(0.0497971 -0.359543 -1.24577e-17)
(0.37101 -0.144528 0)
(0.145258 0.2319 2.4705e-17)
(0.265864 -0.295437 -1.24711e-17)
(0.123427 0.131111 -1.24677e-17)
(0.138171 0.118534 0)
(0.153552 0.091866 0)
(0.172372 0.0688767 1.11513e-17)
(0.0991949 0.166509 -2.3947e-17)
(0.0765848 0.0736475 0)
(0.150756 0.101463 2.08908e-17)
(0.119098 -0.0748207 0)
(0.115601 0.139153 1.23321e-17)
(0.0669154 -0.0827768 -2.39035e-17)
(0.154689 0.0811542 3.18749e-18)
(0.159263 0.0749973 1.9128e-17)
(0.103192 0.154179 -2.53588e-17)
(0.108793 0.145252 -2.56293e-17)
(0.0608495 -0.0776282 0)
(0.145207 0.110972 2.33639e-17)
(0.0826779 0.071751 0)
(0.0920505 0.0478071 -3.01113e-18)
(0.101379 0.0413144 0)
(0.0633064 0.0941848 0)
(0.0689245 0.0829714 -1.23969e-17)
(0.0640441 -0.0459492 -1.07811e-21)
(0.0306499 -0.039957 0)
(0.0903406 0.061012 -1.97083e-17)
(0.376209 -0.0380738 -1.30874e-17)
(0.205362 0.184211 -2.42507e-17)
(0.274615 0.12286 0)
(0.00437823 -0.320317 -6.4218e-21)
(0.155869 0.221651 -3.95916e-17)
(0.211822 0.267101 -2.84329e-17)
(0.0229077 -0.277061 0)
(0.105056 -0.0810177 -4.85508e-17)
(0.13743 0.235172 -1.20712e-17)
(0.0945436 0.285401 0)
(0.228022 0.163376 2.44928e-17)
(0.0812638 -0.41975 -1.3524e-17)
(0.132208 0.230811 2.74831e-17)
(0.0575048 -0.0441055 2.46112e-17)
(0.261123 0.232008 1.29659e-17)
(0.240965 0.24404 3.81006e-17)
(0.221254 0.155437 1.36746e-17)
(0.239916 -0.16731 0)
(0.127809 -0.0704817 -4.83614e-17)
(0.14095 -0.0675082 -5.90854e-18)
(0.140886 -0.176248 3.68084e-17)
(0.00718316 -0.389076 -2.50688e-17)
(0.382177 -0.0825891 -4.11251e-17)
(0.233769 0.150083 2.02711e-17)
(0.114862 0.308577 -3.34171e-17)
(0.0393795 -0.384728 6.38493e-18)
(0.352873 0.0983694 2.4762e-17)
(0.340594 0.128601 -3.72336e-17)
(0.263533 0.12829 5.20175e-17)
(0.140862 -0.120915 0)
(0.112071 -0.412379 -2.60665e-17)
(0.08685 0.189701 4.22647e-17)
(0.147202 -0.162955 -2.44638e-17)
(0.0875907 -0.423247 1.42699e-17)
(0.248932 0.220797 -6.42217e-18)
(0.0284811 0.176779 0)
(0.303613 0.0578564 -1.25883e-17)
(0.239548 -0.327169 -2.62841e-17)
(0.179199 -0.202097 2.46959e-17)
(0.10176 -0.398753 1.58622e-17)
(0.0547289 0.119881 -2.73111e-17)
(0.0819485 -0.258512 1.42862e-17)
(0.348603 0.0279891 -2.0033e-17)
(0.0569013 -0.273899 0)
(0.174178 0.194036 4.63443e-17)
(0.266609 -0.0511354 -2.52723e-17)
(0.286998 -0.0352175 3.22584e-17)
(0.0745458 -0.0417701 3.08784e-17)
(0.393663 -0.0437056 6.38416e-18)
(0.383639 -0.00834331 -1.35621e-17)
(0.169389 -0.0167644 -2.86565e-17)
(0.178258 -0.00602086 2.72754e-17)
(0.225576 0.265133 0)
(0.128358 0.124015 0)
(0.0133797 -0.408664 -2.75174e-17)
(0.00467843 -0.0324853 -1.38363e-17)
(0.020364 0.0347902 -2.79283e-17)
(0.0172562 -0.425806 7.32835e-22)
(0.112986 -0.153165 1.25956e-17)
(0.11014 -0.0784853 -2.55795e-17)
(0.00184451 -0.083224 0)
(0.0341644 0.0281316 0)
(0.210193 -0.190108 4.57433e-17)
(0.0110614 0.199509 -4.58003e-17)
(0.0392334 -0.0428146 -1.29788e-17)
(0.163457 0.200599 1.48784e-17)
(0.00103509 -0.0324546 2.62529e-17)
(0.0704672 0.2849 2.97728e-17)
(0.254752 0.107328 0)
(0.21306 0.176441 0)
(0.228912 0.102323 -1.32932e-17)
(0.0369628 0.306438 1.54828e-17)
(0.181633 0.200762 -1.21367e-17)
(0.028428 -0.0733348 -2.01023e-17)
(0.0550144 -0.199208 1.32415e-17)
(0.235454 0.0336261 -3.29358e-18)
(0.231778 0.0418078 -4.52494e-17)
(0.0935428 0.313437 -3.17787e-17)
(0.177839 -0.157231 7.64898e-18)
(0.157967 0.214629 3.27438e-17)
(0.085648 -0.0271136 -4.82791e-22)
(0.319358 -0.251937 2.2567e-17)
(0.154719 -0.0444689 2.69783e-17)
(0.228198 0.143434 -1.28643e-17)
(0.0824752 0.286486 -4.33195e-17)
(0.0161418 -0.190088 2.8155e-17)
(0.15325 -0.0489704 -1.32977e-17)
(0.139718 -0.0592375 -2.66069e-17)
(0.185558 -0.184927 2.28767e-17)
(0.129891 0.213186 -3.14869e-18)
(0.0362428 -0.0409653 6.54022e-18)
(0.0794829 0.20033 5.82587e-18)
(0.167151 0.0271191 0)
(0.161731 0.0305486 8.86149e-18)
(0.0988106 0.308429 1.42204e-17)
(0.191646 -0.165434 3.08142e-17)
(0.127267 0.314987 0)
(0.23274 -0.0554658 -5.50628e-18)
(0.364455 -0.163588 3.09341e-17)
(0.345306 -0.100665 1.72206e-17)
(0.139766 0.315091 0)
(0.00458226 -0.0337453 -2.75057e-17)
(0.270893 -0.275349 1.40847e-17)
(0.0927469 -0.0105912 -3.67745e-18)
(0.124316 0.310742 -1.87949e-18)
(0.229035 0.257958 6.84381e-18)
(-0.00145691 -0.0331382 3.01557e-17)
(0.137038 0.303894 0)
(0.32994 -0.144566 0)
(0.276603 -0.233361 0)
(0.222266 0.267113 -1.51063e-17)
(0.189504 0.194271 0)
(0.261383 0.214359 2.51672e-17)
(0.0588515 -0.386456 -1.45013e-17)
(0.00147711 -0.080304 -1.53319e-17)
(0.139368 0.316991 0)
(0.360622 -0.111373 -7.63138e-18)
(0.190209 0.158105 0)
(0.258377 0.179685 8.60424e-19)
(0.0497058 0.0967566 1.47651e-17)
(0.00417128 -0.0849343 2.15897e-17)
(0.127663 -0.278171 0)
(0.059284 -0.153081 2.78281e-17)
(0.137667 0.311363 0)
(0.136528 0.320181 0)
(0.0493265 -0.33022 1.82758e-18)
(0.344218 -0.0796846 -2.68633e-17)
(0.0306823 -0.0788584 -1.60266e-18)
(0.174005 -0.113718 0)
(0.273619 0.150962 5.27991e-17)
(0.142274 0.311127 1.50249e-18)
(0.0498117 0.26568 -1.35341e-17)
(0.0920785 -0.0855792 0)
(0.234907 0.153689 -1.19095e-17)
(0.119022 -0.241798 -3.18966e-17)
(0.195528 -0.120475 2.97399e-17)
(0.165209 0.209871 1.42562e-17)
(0.142755 -0.251519 1.2982e-17)
(0.254329 0.232984 -1.40353e-17)
(0.0121951 -0.0797612 -2.88823e-17)
(0.254165 -0.16258 -2.68787e-17)
(0.208516 0.137419 0)
(0.260464 -0.125558 1.89536e-17)
(0.147555 -0.321153 6.4713e-18)
(0.378136 -0.106557 2.51764e-17)
(0.0886887 0.289799 6.88348e-18)
(0.0964975 0.301135 0)
(0.30984 -0.172566 2.47594e-17)
(0.340669 -0.182633 4.01124e-17)
(0.338881 0.0100725 0)
(0.191803 -0.300933 4.10545e-18)
(0.0101878 -0.0309273 -1.89533e-17)
(0.328776 -0.0193371 0)
(0.0323759 -0.320674 -1.74483e-18)
(0.31457 0.144062 -2.52803e-17)
(0.266134 0.117245 -2.46301e-21)
(0.350282 0.111461 4.39895e-21)
(0.169969 -0.324953 -6.6621e-18)
(0.153745 -0.152971 -3.05997e-17)
(0.258043 0.0508069 3.36883e-17)
(0.129456 0.30597 5.98641e-17)
(0.253269 0.127733 -3.09159e-17)
(0.0750998 -0.0338394 4.53415e-17)
(0.294304 0.011318 6.37483e-18)
(0.0348483 -0.156647 1.50299e-17)
(0.118362 0.312625 2.94151e-17)
(0.174927 -0.235028 0)
(0.235537 -0.143876 -4.17096e-17)
(0.123979 -0.149406 -2.62122e-17)
(0.169042 0.175213 7.28212e-18)
(0.271357 -0.208146 0)
(0.124453 0.306695 -3.15891e-17)
(0.168223 -0.213031 -3.06055e-17)
(0.291222 0.11267 0)
(0.048373 -0.146341 1.67616e-17)
(0.0690812 -0.398707 1.84404e-17)
(0.213439 -0.33079 -1.51593e-17)
(0.192104 -0.22475 1.86952e-18)
(0.067831 -0.269557 0)
(0.00483321 -0.422532 5.87715e-21)
(0.147877 0.225275 0)
(0.0718938 -0.0798214 2.71953e-17)
(0.154686 -0.222582 -3.80757e-18)
(0.202792 0.281533 1.54712e-17)
(0.00514653 -0.173425 0)
(0.0832554 0.175219 3.32574e-17)
(0.256185 -0.0299756 3.07541e-17)
(0.204406 -0.181858 -7.71253e-18)
(0.226934 -0.171796 -2.50979e-17)
(0.102332 -0.159359 -5.26628e-17)
(0.119857 0.304698 0)
(0.293413 -0.0469103 0)
(0.150706 0.207228 -3.23085e-17)
(0.138798 0.200854 4.20308e-17)
(0.357042 -0.131035 1.30769e-17)
(0.395985 -0.0230756 1.50029e-17)
(0.160463 -0.239125 1.09157e-17)
(0.00915666 -0.168485 -1.65912e-17)
(0.0860318 0.31026 0)
(0.141526 0.218844 0)
(0.252944 -0.254419 0)
(0.107137 -0.420999 -1.07748e-18)
(0.0821934 0.00983755 1.74361e-17)
(0.293104 0.0652074 8.16596e-18)
(0.0688264 0.338491 4.30346e-17)
(0.0867134 -0.24913 1.63104e-21)
(0.326731 -0.107621 3.22612e-17)
(0.242885 -0.134504 8.12353e-18)
(0.0421766 0.284045 -5.49691e-22)
(0.220192 0.270545 0)
(0.248666 -0.230503 -2.77437e-17)
(0.131901 0.314975 0)
(0.132435 0.310639 -2.83809e-17)
(0.285328 0.0531926 0)
(0.176029 -0.102372 2.43124e-17)
(0.218916 0.111151 -7.94315e-18)
(0.0685907 -0.183747 -1.79322e-17)
(0.232354 0.179081 0)
(0.0574148 0.316334 2.4129e-17)
(0.207245 -0.112675 7.98765e-18)
(0.14741 0.191142 3.29089e-17)
(0.0597223 -0.361152 0)
(0.169869 -0.294574 -3.16688e-17)
(0.240374 0.115855 7.75933e-18)
(0.0141248 -0.155455 -3.12982e-17)
(0.173186 -0.178261 -3.345e-17)
(0.140481 -0.134915 0)
(0.0523503 -0.384114 -9.03953e-18)
(0.333467 -0.132673 -2.15523e-17)
(0.348609 -0.164393 -2.09098e-17)
(0.134432 -0.215177 4.0695e-17)
(0.0142409 -0.0757969 3.51351e-17)
(0.253041 0.19473 0)
(0.0735854 -0.370334 -1.14466e-17)
(0.0779681 -0.390197 -3.50879e-17)
)
;

boundaryField
{
    back
    {
        type            empty;
    }
    front
    {
        type            empty;
    }
    top
    {
        type            codedFixedValue;
        value           nonuniform List<vector> 10((0 -0.386583 0) (0 -0.420568 0) (0 -0.318612 0) (0 -0.216656 0) (0 -0.216656 0) (0 -0.318612 0) (0 -0.386583 0) (0 -0.0807151 0) (0 -0.0807151 0) (0 -0.420568 0));
        name            ParabolicTimeDependentU_max;
        code            #{
		const vectorField& Cf = patch().Cf();