/*--------------------------------*- C++ -*----------------------------------*\
  =========                 |
  \\      /  F ield         | OpenFOAM: The Open Source CFD Toolbox
   \\    /   O peration     | Website:  https://openfoam.org
    \\  /    A nd           | Version:  9
     \\/     M anipulation  |
\*---------------------------------------------------------------------------*/
FoamFile
{
    format      ascii;
    class       volScalarField;
    location    "0.96";
    object      p;
}
// * * * * * * * * * * * * * * * * * * * * * * * * * * * * * * * * * * * * * //

dimensions      [0 2 -2 0 0 0 0];

internalField   nonuniform List<scalar> 
578
(
1.15893e-21
-1.15275e-21
7.40097e-22
3.05451e-21
-3.56055e-21
4.78676e-21
5.07535e-21
-2.62543e-21
-1.92524e-21
-3.20461e-21
3.68578e-21
-2.44988e-21
2.97895e-21
-3.02807e-21
4.76231e-21
1.78264e-21
8.09187e-22
1.01311e-21
-1.80433e-21
-1.18115e-21
3.0615e-21
1.99875e-21
2.94682e-21
3.5967e-21
3.58026e-21
-1.88784e-21
2.70134e-21
2.37431e-21
-2.92e-22
1.6042e-21
2.56692e-21
5.05517e-21
2.20857e-22
2.99326e-21
4.50666e-21
-2.01275e-22
-2.96252e-21
-2.5603e-21
2.49183e-21
-4.3794e-21
-3.07495e-21
-2.24374e-21
-3.10303e-21
4.94621e-21
5.01192e-22
6.1268e-21
4.58459e-21
-1.95379e-21
2.03379e-21
2.66032e-21
6.08645e-21
2.99124e-21
5.84895e-21
3.00536e-21
2.92052e-21
1.17747e-21
3.12545e-21
2.21049e-21
1.72123e-21
-8.89673e-22
2.57123e-22
8.48134e-23
7.98738e-22
-3.25737e-21
2.8892e-21
4.75642e-21
3.13501e-22
3.99379e-21
3.21454e-21
-1.6746e-21
3.10201e-21
5.02237e-21
2.91846e-21
-1.75003e-21
3.75471e-21
-3.42857e-21
-2.74055e-21
-2.12598e-21
2.93058e-21
4.98285e-21
5.02065e-21
5.07143e-22
6.57624e-21
6.35515e-21
3.22671e-21
2.08301e-21
6.71675e-21
1.65862e-21
-2.0313e-21
2.04319e-21
2.69263e-21
3.35016e-21
3.47647e-21
3.01372e-21
3.52985e-21
4.58893e-21
2.91902e-21
2.93548e-21
-3.11127e-21
5.2451e-21
4.40957e-21
-1.97191e-21
2.79198e-21
4.29576e-21
2.85016e-21
-3.76321e-21
3.8546e-21
-3.59519e-21
2.4253e-21
-2.98326e-21
-4.42092e-22
-1.9299e-21
-1.36256e-21
4.10412e-21
4.44157e-21
2.85193e-21
3.05315e-21
1.22006e-21
2.08703e-21
2.88954e-21
-1.64235e-21
7.98016e-21
-2.36379e-21
2.98237e-21
5.51609e-21
1.20367e-21
4.66172e-21
1.69626e-21
3.19025e-21
1.70281e-22
2.82663e-21
1.00277e-21
3.02637e-21
-1.81312e-21
2.48394e-21
4.18076e-21
-3.3262e-21
2.87069e-21
3.29817e-21
3.04303e-21
3.12816e-21
4.78438e-22
2.88974e-21
1.94558e-21
-2.18827e-21
4.10652e-21
8.28112e-22
2.63408e-21
-2.2949e-21
-2.53274e-22
-2.28017e-21
3.77707e-21
-2.99582e-21
-1.64209e-21
4.78341e-21
2.66856e-21
5.06929e-22
3.07278e-21
5.65844e-21
-2.1767e-21
-2.47649e-21
-2.33792e-21
3.44794e-21
-2.26052e-21
1.38286e-21
6.3605e-22
1.84609e-21
4.68042e-21
3.17922e-21
2.81736e-21
-1.8786e-21
-3.48445e-21
4.26975e-21
1.8039e-21
4.35249e-21
2.86124e-21
2.90563e-21
1.36106e-21
-2.29026e-21
3.0752e-22
4.70818e-21
3.363e-23
1.51483e-21
2.91828e-21
4.36267e-21
2.7106e-21
1.3579e-21
4.65416e-21
4.85129e-21
-7.38329e-22
-3.08083e-21
-2.69706e-21
3.17136e-21
4.65082e-21
-1.3422e-21
2.85183e-21
3.28052e-21
2.52502e-21
4.56411e-21
-3.02311e-21
3.12809e-21
2.95141e-21
8.43492e-21
2.78307e-21
2.85456e-21
-3.27552e-21
4.63462e-21
3.43754e-21
-2.77825e-21
3.58811e-21
3.52672e-22
4.71227e-21
2.32961e-21
2.91405e-21
2.48408e-21
2.92901e-21
4.81775e-21
-2.99353e-21
4.87864e-21
1.0172e-21
-3.2712e-21
3.98826e-21
-1.06342e-21
-2.95685e-21
4.96677e-21
1.31981e-21
2.83564e-21
3.2293e-21
2.61277e-21
1.40795e-22
-2.03249e-21
8.19666e-21
2.11509e-21
-1.12419e-21
1.1325e-21
-1.60294e-21
-3.06774e-21
4.61241e-21
3.01912e-21
-2.03546e-22
4.15201e-21
-3.36215e-21
2.80244e-21
3.85089e-21
2.5155e-21
-2.22671e-21
2.83917e-21
-2.70643e-21
4.34617e-21
2.84238e-21
2.87894e-21
1.78654e-21
5.3713e-21
5.83957e-22
5.24552e-21
-3.77482e-22
7.98725e-22
4.48205e-21
-2.34476e-21
7.51545e-21
-9.30636e-22
5.03314e-21
3.27928e-21
3.31041e-21
-2.55131e-22
-1.37014e-21
1.09488e-21
-3.82905e-22
-1.6818e-21
1.20606e-21
-1.14632e-21
9.48967e-22
7.80942e-22
2.78714e-21
2.95511e-21
2.85177e-21
2.69933e-21
4.63388e-22
4.56787e-21
2.92615e-21
-3.33274e-21
2.79547e-21
2.77191e-21
2.88182e-21
2.83891e-21
2.53077e-21
-1.18704e-21
1.33509e-21
3.10854e-21
3.01378e-21
6.99707e-22
1.8051e-21
2.73257e-21
4.14394e-21
3.16709e-21
3.25377e-21
-3.27139e-21
-1.02553e-22
2.64199e-21
3.16907e-21
2.86707e-21
-6.1337e-22
2.86533e-21
2.27271e-21
3.24766e-21
2.78089e-21
4.10078e-22
8.13897e-22
2.83135e-21
2.83123e-21
-6.14091e-22
2.48787e-21
2.72244e-21
-6.90109e-22
2.96568e-21
2.79606e-21
1.53399e-21
-5.29621e-22
-1.02648e-21
2.98992e-21
1.68768e-21
2.74029e-21
2.84489e-21
3.28113e-21
2.84738e-21
2.60632e-21
4.67631e-21
3.5931e-21
-3.35238e-21
2.5277e-21
2.85733e-21
3.80525e-21
2.68121e-21
2.67013e-21
2.11934e-21
3.10755e-21
2.93747e-21
2.72072e-21
1.709e-21
2.73178e-21
2.82393e-21
2.86826e-21
2.4397e-21
1.27065e-21
2.86326e-21
4.9174e-21
3.64419e-21
2.61105e-21
-2.00464e-21
3.53501e-21
-2.49157e-21
-3.07822e-21
4.61097e-21
1.69596e-21
-3.49491e-21
5.1402e-21
3.05218e-21
5.6557e-21
-3.42768e-21
5.27445e-21
2.5443e-21
1.26822e-21
2.92232e-21
-1.45044e-21
2.66104e-21
2.5115e-21
2.37982e-21
4.60496e-21
2.95024e-21
3.66306e-21
-2.49042e-21
-1.48504e-22
5.19274e-21
3.82115e-21
4.91946e-21
6.56991e-21
2.75729e-21
3.16358e-21
-2.59335e-21
1.94587e-21
2.89554e-21
-2.81976e-21
4.18071e-21
3.08132e-21
2.92178e-21
2.39432e-21
2.5713e-21
5.09734e-21
5.84511e-21
-1.80427e-21
2.95081e-21
2.8087e-21
3.06248e-21
-3.86573e-22
2.51335e-21
2.59352e-21
4.82125e-21
2.23337e-21
2.78338e-21
3.59239e-21
3.97808e-21
4.6513e-21
2.48808e-21
5.55801e-22
2.85157e-21
2.04021e-21
4.05493e-21
1.87416e-21
3.37843e-21
4.0939e-21
2.06839e-21
4.0662e-22
1.31888e-21
1.38014e-21
2.05807e-21
3.49888e-21
-2.33331e-21
3.61045e-21
-2.83481e-21
2.6808e-21
3.18118e-21
4.12592e-21
-2.4127e-21
4.72088e-21
2.03409e-21
-8.39189e-22
-2.07172e-21
6.2297e-22
-2.33173e-21
-8.12484e-22
3.09769e-21
3.17801e-21
2.05902e-21
2.96293e-21
1.80439e-21
-1.27927e-21
-2.67515e-21
1.17669e-21
-1.42854e-21
1.78495e-21
1.39888e-21
2.95993e-21
3.10265e-21
2.57764e-21
3.50959e-21
1.93128e-21
2.53747e-21
3.86185e-21
4.10007e-21
2.59991e-21
3.32045e-21
2.81497e-21
4.15371e-21
3.01966e-21
4.33347e-21
2.74172e-21
-1.20862e-21
2.75352e-21
3.27255e-21
3.87124e-22
6.88478e-21
4.52454e-21
7.34319e-22
-1.3341e-21
2.05993e-21
-1.50722e-21
1.73691e-21
-2.93519e-21
1.30819e-21
-1.23306e-21
2.30649e-21
2.38572e-21
4.2135e-21
2.71385e-21
2.05847e-21
-2.84186e-21
-1.4765e-21
-1.37933e-21
-9.92215e-23
-1.34773e-21
3.36225e-21
3.61313e-21
5.99533e-22
2.30978e-21
2.7082e-21
-1.1372e-21
1.80594e-21
2.75788e-21
2.8123e-21
3.44383e-21
3.07742e-21
3.64365e-21
-6.23251e-22
3.07552e-21
2.7691e-21
2.323e-21
2.73668e-21
2.50119e-21
2.77966e-21
3.07254e-21
-3.33982e-21
1.9423e-21
-1.1489e-21
2.90529e-21
3.89966e-22
2.75526e-21
2.80187e-21
3.11334e-21
1.53123e-21
2.79504e-21
2.57015e-21
5.20162e-21
2.97878e-21
5.89525e-21
3.39363e-21
2.55678e-21
-2.55808e-21
-4.24578e-21
4.41769e-21
3.03472e-21
3.57851e-21
3.62193e-21
1.89198e-21
-1.68076e-21
-2.01449e-21
2.84978e-21
2.25273e-21
3.16052e-21
-1.89982e-21
-6.76008e-23
-2.07172e-21
-2.91709e-21
2.47228e-21
2.51335e-21
4.92843e-21
4.23538e-21
4.31123e-21
2.46254e-21
3.45443e-21
2.73434e-21
3.11278e-21
4.70357e-21
-6.94919e-22
-1.6349e-21
5.37537e-21
3.09065e-21
3.82578e-21
8.5137e-22
-4.56015e-22
-1.50488e-21
3.83628e-21
4.03925e-21
-1.4302e-21
3.49831e-21
3.84764e-21
1.54923e-21
-2.28747e-21
2.35088e-21
2.83291e-21
2.71039e-21
2.79708e-21
3.74583e-21
-2.26137e-21
2.75455e-21
3.07633e-21
4.1958e-21
3.02204e-21
9.51002e-22
2.79015e-21
3.03866e-21
2.67841e-21
1.97349e-22
4.01819e-21
-6.43883e-24
5.7973e-22
3.68668e-21
3.35318e-21
2.68552e-21
)
;

boundaryField
{
    front
    {
        type            empty;
    }
    back
    {
        type            empty;
    }
    bottom
    {
        type            uniformFixedValue;
        uniformValue    
        {
            type            scale;
            scale           
            {
                type            squarePulse;
                start           0.3;
                duration        0.3;
            }
            xScale          
            {
                type            constant;
                value           1;
            }
            value           
            {
                type            constant;
                value           15.1;
            }
        }
        value           uniform 0;
    }
    left
    {
        type            zeroGradient;
    }
    top
    {
        type            zeroGradient;
    }
    right
    {
        type            zeroGradient;
    }
    inner_arc
    {
        type            zeroGradient;
    }
}


// ************************************************************************* //
