/*--------------------------------*- C++ -*----------------------------------*\
  =========                 |
  \\      /  F ield         | OpenFOAM: The Open Source CFD Toolbox
   \\    /   O peration     | Website:  https://openfoam.org
    \\  /    A nd           | Version:  9
     \\/     M anipulation  |
\*---------------------------------------------------------------------------*/
FoamFile
{
    format      ascii;
    class       surfaceScalarField;
    location    "0.96";
    object      phi;
}
// * * * * * * * * * * * * * * * * * * * * * * * * * * * * * * * * * * * * * //

dimensions      [0 3 -1 0 0 0 0];

internalField   nonuniform List<scalar> 
816
(
1.73713e-28
2.61765e-27
-2.7877e-27
-9.23431e-28
3.6471e-27
-2.71084e-27
-4.70675e-27
4.80782e-27
2.48892e-28
-3.22022e-28
7.24959e-29
2.74857e-27
-2.74671e-27
-1.31336e-27
1.69795e-27
-3.78617e-28
-2.69999e-27
2.69942e-27
-2.35483e-27
2.35549e-27
-5.80511e-27
-3.4733e-29
5.8365e-27
6.44884e-28
-1.60124e-27
1.46261e-27
-2.76103e-27
6.38852e-27
-4.66656e-27
-1.71941e-27
8.15306e-29
-5.57025e-29
-2.52726e-29
6.56825e-27
-5.90817e-27
-6.58193e-28
-6.12684e-27
5.37054e-27
7.44068e-28
-4.99278e-27
8.27023e-27
-3.27495e-27
-3.0969e-27
-7.73236e-28
3.87007e-27
5.65251e-27
-4.61486e-28
-5.21129e-27
7.46961e-28
5.63115e-27
2.75866e-27
-8.57494e-27
4.47605e-28
-1.91249e-28
6.39889e-28
-5.63302e-27
3.34844e-27
-1.44347e-27
-1.91873e-27
6.98442e-28
3.82314e-28
-1.07987e-27
8.43978e-28
-1.32177e-28
-5.16472e-27
1.22376e-27
3.94259e-27
3.05087e-28
-2.65318e-28
-3.8177e-29
1.06817e-28
-2.01555e-28
9.30463e-29
1.83055e-27
1.77984e-27
2.87371e-27
5.41494e-27
3.48844e-28
-2.38056e-28
4.72042e-28
1.24071e-27
8.75148e-27
-5.89202e-27
9.89352e-28
-7.30127e-28
-2.60091e-28
-6.07089e-28
-5.51132e-27
-1.40544e-27
6.81217e-27
6.22129e-28
5.92561e-27
-7.21845e-28
-4.46053e-27
8.24018e-27
-2.97825e-27
-5.25399e-27
1.69754e-27
1.01705e-27
-2.14961e-27
-1.62433e-27
1.59825e-27
5.45374e-27
-4.42813e-29
-3.03258e-27
-1.45394e-27
4.47278e-27
-1.56847e-27
-1.0729e-27
2.10006e-27
5.3916e-27
-5.43663e-27
3.53616e-27
8.49648e-29
2.23716e-28
-2.65085e-28
-8.3881e-29
3.53e-28
8.07444e-29
5.69995e-30
2.43726e-27
9.30558e-28
6.1911e-28
3.79757e-28
-2.86425e-29
2.87913e-29
1.74065e-27
-6.54087e-28
-1.08602e-27
-1.41991e-27
-3.03269e-27
-6.41429e-27
3.32824e-27
2.38122e-27
-3.79384e-27
-8.58777e-28
1.11483e-27
-1.90354e-27
-2.36513e-27
1.94499e-27
-1.71314e-28
-5.75959e-27
9.68717e-29
-7.74238e-29
-1.89718e-29
5.50776e-27
-1.16946e-29
5.6213e-27
3.13802e-27
-2.22943e-27
3.69676e-27
-2.4703e-27
7.32236e-27
-4.84691e-27
1.24555e-27
4.65721e-27
-5.89912e-27
1.24907e-28
2.36116e-28
1.06267e-28
-4.04177e-30
4.78495e-27
2.43986e-27
-7.21184e-27
1.20454e-27
-1.36764e-27
1.65656e-28
2.34308e-27
-2.34182e-27
-3.48294e-27
6.22709e-27
-4.71096e-27
1.21374e-27
5.815e-29
-1.01543e-27
-1.72332e-27
2.73308e-27
-4.58805e-27
-1.85892e-27
6.44774e-27
2.66988e-27
2.06237e-27
-2.06577e-27
-3.12376e-27
3.12781e-27
-3.17291e-27
6.20595e-27
-3.00115e-27
1.53825e-27
5.10909e-28
-6.49704e-29
1.46557e-27
2.73403e-28
-9.46211e-29
-4.64865e-27
4.7487e-27
3.69983e-27
1.44455e-28
-3.84256e-27
8.93755e-29
2.21729e-27
-5.42353e-27
1.12324e-28
4.66283e-27
-4.77926e-27
1.96973e-28
-1.46875e-28
-4.96327e-29
-5.72981e-27
-1.39667e-28
5.20343e-27
-5.0674e-27
-2.6313e-29
1.1697e-29
6.18489e-28
5.21737e-28
-5.99756e-27
-1.40773e-28
5.63713e-27
-4.05165e-27
5.28124e-27
3.77277e-29
8.21766e-29
-1.20055e-28
-3.98213e-27
1.34459e-29
-1.34025e-29
-9.1607e-28
6.81195e-27
8.45454e-28
2.1481e-27
1.54364e-27
-2.16377e-28
-2.14608e-27
2.98608e-27
3.82277e-27
5.85267e-27
5.83267e-27
-7.18379e-27
1.35582e-27
7.42678e-29
-3.20188e-29
-2.20417e-28
-9.52678e-29
2.63755e-27
3.55286e-27
-6.16595e-27
-9.60041e-29
3.80419e-27
-6.76493e-30
2.36377e-29
-2.14476e-28
4.14475e-27
-3.50301e-27
4.01645e-28
1.15004e-27
3.91439e-28
5.78392e-29
-1.41642e-27
-4.77587e-27
5.18469e-27
-4.11839e-28
-8.72395e-28
-3.7041e-27
4.88823e-27
-3.45097e-27
-1.43794e-27
4.47902e-27
9.84574e-28
-5.39168e-27
-3.14216e-29
5.42055e-27
-5.52464e-27
7.59882e-28
5.99146e-29
1.41688e-28
-1.36664e-27
1.36684e-27
-4.91136e-27
-4.659e-28
-4.45504e-29
5.14538e-27
-5.09895e-27
-1.11672e-28
-4.57357e-27
-4.32898e-27
-2.85105e-27
-3.79486e-27
3.77577e-27
-3.39397e-29
1.37643e-27
-1.3412e-27
-1.05305e-27
-3.80267e-27
6.9864e-29
9.10257e-28
-9.79315e-28
-1.59821e-27
-1.01227e-28
-5.10774e-27
-5.20569e-28
-2.85957e-27
3.38023e-27
-2.96824e-30
-2.26215e-29
2.53384e-29
4.86973e-27
-3.89231e-27
-6.64344e-27
-1.91897e-28
6.83705e-27
1.75569e-27
-1.77922e-27
2.376e-27
2.13453e-28
1.145e-27
6.81737e-28
5.59801e-27
-6.27433e-27
-4.79533e-29
1.35468e-28
-2.27147e-27
4.0962e-27
1.123e-29
6.36327e-29
-7.52154e-29
-1.71321e-27
6.24044e-28
-7.27895e-27
-5.16086e-27
1.38484e-27
-5.22737e-27
5.0162e-27
-5.28942e-28
5.2951e-28
4.35743e-27
-4.66407e-28
-3.91481e-27
4.62253e-27
-7.12081e-30
2.43928e-29
4.17638e-28
-4.05983e-28
-1.00776e-29
-4.80901e-28
-4.75323e-27
1.63522e-27
-1.75663e-27
1.87594e-27
-1.91131e-27
-1.37458e-28
1.20992e-27
-1.07021e-27
1.10216e-28
-4.01616e-27
1.67426e-28
-1.81491e-28
1.85478e-28
-1.48811e-29
5.99357e-27
-2.67888e-27
2.18607e-27
-2.65457e-28
-2.47595e-28
5.16549e-28
-1.50109e-27
1.62567e-27
-1.07217e-27
5.05172e-27
-3.96345e-27
-3.56399e-27
4.07549e-27
2.46518e-28
2.02832e-28
4.97382e-27
8.41559e-31
-3.80335e-27
2.35798e-27
2.544e-27
5.8105e-27
3.45941e-28
-6.15409e-27
-4.46252e-28
1.71582e-28
-6.12012e-27
-3.7921e-28
6.49755e-27
5.21647e-27
-2.05714e-28
4.49183e-27
1.35658e-28
1.59129e-27
-2.82144e-28
-1.28666e-28
4.11525e-28
-3.2633e-29
7.80172e-29
-4.46729e-29
1.6997e-29
-6.33723e-29
4.79168e-27
-4.89302e-27
1.06817e-28
4.94163e-27
-4.79039e-27
-1.48691e-28
-3.94118e-30
1.05287e-28
-6.14895e-28
-1.41818e-27
1.43636e-28
2.90865e-28
-3.03254e-28
3.27985e-28
-2.75068e-28
4.05241e-27
1.85474e-28
-3.03891e-27
6.60896e-27
2.48154e-28
-5.14995e-27
4.66269e-29
2.47473e-28
-3.54757e-27
5.40687e-28
-1.45436e-28
-8.7534e-28
1.06294e-27
5.55279e-27
-3.67823e-27
-3.2966e-28
-3.38825e-27
3.59865e-27
1.94301e-27
-2.1642e-27
1.81279e-27
-1.66284e-27
3.25231e-27
-4.422e-28
-9.21626e-30
4.51927e-28
-4.49263e-28
-5.94841e-28
1.21552e-27
-1.05297e-27
-3.89252e-27
-2.68719e-27
1.93775e-27
1.81314e-27
3.86385e-29
-2.1233e-28
3.21167e-27
-3.00182e-27
-1.497e-27
-5.61838e-28
-1.12372e-28
-6.11972e-29
-1.32583e-27
-1.56321e-28
7.61936e-28
1.90264e-27
6.56799e-29
6.41991e-28
-7.06694e-28
4.6562e-28
4.24126e-28
4.76835e-27
6.3823e-28
6.04819e-28
2.7652e-28
-9.20537e-28
6.43659e-28
3.70575e-28
4.74721e-27
-5.79418e-27
8.17967e-29
-6.36582e-27
6.35995e-27
9.22748e-28
-1.13973e-27
8.3761e-29
1.63041e-28
2.29167e-27
7.49608e-28
-2.47198e-27
6.12861e-28
5.1179e-27
7.40787e-28
-6.08165e-28
6.03341e-28
3.55937e-28
-2.36735e-28
-3.67859e-28
4.52253e-28
-3.82461e-28
-8.68279e-28
1.92749e-27
6.68381e-28
7.60728e-29
-7.43616e-28
1.76965e-27
4.12543e-28
3.64918e-28
2.41536e-28
2.70087e-28
1.95719e-28
3.08432e-28
-1.07486e-28
2.97862e-28
-2.9877e-28
4.28469e-28
-4.06492e-27
-4.71598e-27
1.4578e-28
-5.4719e-28
-2.29899e-28
2.29616e-28
-1.62869e-28
-1.03805e-27
-4.36127e-28
4.62867e-28
-2.60648e-29
4.2844e-28
-1.92109e-28
6.76289e-28
4.2899e-28
-5.09423e-27
-1.09375e-27
8.34806e-28
1.5264e-28
-4.3669e-28
2.84056e-28
4.67162e-28
5.89549e-28
-4.03812e-29
5.40693e-28
-4.9982e-28
-1.70054e-28
1.3307e-28
-2.36555e-27
1.18488e-28
-5.50033e-28
7.64747e-28
-3.96724e-28
4.0397e-28
-2.54957e-28
-6.16271e-28
3.65679e-27
7.11682e-28
2.41482e-28
4.69902e-28
-7.11527e-28
-1.5611e-28
5.8235e-28
1.29315e-28
5.87373e-27
-1.25012e-28
7.09853e-28
-9.19842e-29
6.55333e-27
-6.88385e-28
8.21208e-28
-2.9563e-28
-2.86988e-28
5.60078e-28
7.98956e-29
1.01079e-27
-9.79547e-29
-6.5913e-28
2.64405e-28
9.826e-28
-4.37329e-28
-1.61083e-28
2.58776e-27
-5.86214e-27
3.28097e-27
1.31202e-27
-1.31255e-27
-1.32465e-27
1.32531e-27
-1.41343e-27
1.41262e-27
1.5595e-27
-1.56069e-27
1.68449e-27
-1.55485e-27
-1.73583e-28
-8.94673e-28
1.06877e-27
2.09092e-27
-7.02313e-28
5.42162e-28
-2.0275e-27
2.04591e-27
-2.15788e-27
-2.04533e-27
2.04925e-27
-5.55407e-28
3.20128e-27
-2.6449e-27
1.11635e-27
-2.88445e-28
-1.55253e-27
1.8434e-27
-1.35529e-27
1.35717e-27
-1.00538e-27
5.31023e-27
-4.30832e-27
-2.09789e-27
-6.15516e-27
7.23708e-29
-2.34979e-27
-2.31413e-27
4.73338e-27
1.75613e-27
-3.56167e-27
6.17028e-27
2.45094e-27
-2.48665e-28
-9.19742e-29
2.1796e-28
3.48643e-27
3.96518e-28
-9.51118e-28
-3.29908e-27
4.25281e-27
2.25919e-27
-4.29179e-27
-3.01303e-28
-4.61219e-29
1.18067e-29
-2.18692e-27
-3.6709e-27
3.13638e-27
-4.50859e-27
-7.99984e-27
2.8106e-27
-1.3721e-27
-3.1886e-27
4.55808e-27
-5.77801e-28
-7.75626e-28
-8.6649e-29
8.62829e-28
-5.03361e-27
-4.25074e-28
4.16661e-28
-4.58919e-29
-1.88569e-28
1.97225e-27
-2.39734e-30
-7.55213e-30
3.19307e-28
-4.62184e-27
-5.41473e-27
4.73403e-27
-4.33898e-27
2.03861e-27
-5.18492e-27
1.62291e-27
5.83921e-27
3.67298e-27
1.68133e-27
-9.79237e-28
-3.67875e-27
1.45751e-27
3.21071e-27
-2.65621e-27
-4.5744e-27
2.19349e-28
1.4361e-27
-4.87218e-27
-4.40099e-27
3.83362e-27
4.92407e-27
4.75959e-27
-5.6331e-27
8.77714e-28
-1.66405e-27
-5.80899e-28
-1.06486e-27
-2.02523e-29
-1.66881e-27
-1.04772e-27
-6.90523e-27
-6.45499e-28
7.52393e-27
4.88231e-28
1.91604e-27
2.57623e-27
-2.20272e-30
1.38743e-29
-1.38326e-27
1.38308e-27
4.8109e-27
1.04482e-27
2.40944e-27
3.58174e-27
-4.47491e-27
-5.26263e-27
6.46601e-28
3.74991e-28
1.31339e-28
7.41739e-28
-9.40733e-28
1.99808e-28
-3.28654e-28
3.88729e-28
-3.03159e-27
7.24331e-28
-5.23643e-27
4.62965e-27
-2.33268e-28
-1.97693e-28
4.01001e-27
-1.89966e-31
-2.15613e-27
2.94662e-31
-3.69492e-27
6.14273e-28
-2.31895e-28
5.60798e-28
-2.6782e-27
5.9525e-27
7.18713e-28
-4.24045e-27
-1.96385e-27
-2.25916e-27
-1.70793e-27
-7.49242e-30
3.27495e-27
8.09117e-28
-3.15422e-28
-6.32623e-28
1.46171e-27
1.62994e-28
1.46244e-27
9.03777e-28
3.90581e-27
5.55329e-27
2.53625e-28
-1.02666e-27
9.65848e-29
-1.67796e-27
-3.32963e-29
6.27282e-29
-7.62834e-28
-1.31137e-28
4.11913e-27
2.68829e-27
-4.60527e-27
1.46433e-27
1.90789e-27
8.70412e-28
6.24149e-27
6.26117e-28
1.05852e-28
-3.60345e-27
-2.31064e-30
2.39217e-30
-3.4951e-29
5.26867e-27
7.08302e-31
-6.91709e-31
4.5358e-27
-3.02011e-29
-2.85849e-29
4.46406e-27
-4.1634e-31
3.10878e-30
5.56788e-27
-1.46066e-27
-3.91534e-27
6.42499e-28
-5.08897e-27
2.80012e-29
3.64661e-29
3.31761e-27
-3.40953e-27
-4.63578e-30
-3.5725e-28
-5.82442e-28
5.6992e-28
-3.35553e-28
-3.53739e-30
-2.66892e-29
1.50588e-29
-3.29471e-27
3.25091e-27
6.70361e-28
4.9885e-28
2.53246e-28
-5.70047e-27
-2.05834e-27
5.38321e-28
4.0343e-28
4.58837e-27
5.18592e-30
-2.19909e-30
1.6412e-27
-2.62547e-27
-5.30772e-28
-5.93319e-27
-6.72934e-28
-4.05376e-27
-1.89403e-28
3.11688e-27
-2.75356e-27
7.7102e-29
5.02245e-31
-3.38545e-30
5.1658e-28
-1.93993e-27
-1.13143e-27
-5.81844e-28
)
;

boundaryField
{
    front
    {
        type            empty;
        value           nonuniform List<scalar> 0();
    }
    back
    {
        type            empty;
        value           nonuniform List<scalar> 0();
    }
    bottom
    {
        type            calculated;
        value           nonuniform List<scalar> 
12
(
-2.03093e-27
-5.47205e-27
4.94013e-27
-4.60854e-27
2.7729e-27
6.58022e-28
-6.25844e-28
4.82403e-27
5.79129e-27
-4.58556e-27
-2.64315e-27
2.22653e-27
)
;
    }
    left
    {
        type            calculated;
        value           uniform 0;
    }
    top
    {
        type            calculated;
        value           uniform 0;
    }
    right
    {
        type            calculated;
        value           uniform 0;
    }
    inner_arc
    {
        type            calculated;
        value           uniform 0;
    }
}


// ************************************************************************* //
