/*--------------------------------*- C++ -*----------------------------------*\
  =========                 |
  \\      /  F ield         | OpenFOAM: The Open Source CFD Toolbox
   \\    /   O peration     | Website:  https://openfoam.org
    \\  /    A nd           | Version:  9
     \\/     M anipulation  |
\*---------------------------------------------------------------------------*/
FoamFile
{
    format      ascii;
    class       volVectorField;
    location    "0.96";
    object      U;
}
// * * * * * * * * * * * * * * * * * * * * * * * * * * * * * * * * * * * * * //

dimensions      [0 1 -1 0 0 0 0];

internalField   nonuniform List<vector> 
578
(
(-0.0363 -0.0432 0)
(-0.0193 -0.0653 2.72e-16)
(-0.0543 -0.0639 -9.67e-17)
(0.0036 -0.0708 -2.3e-17)
(0.0118 -0.0263 -4.33e-17)
(0.00457 -0.0928 -8.54e-17)
(-0.0123 -0.027 4.31e-17)
(0.0133 -0.0245 -2.19e-20)
(0.0597 -0.0898 -1.88e-16)
(-0.0114 -0.0409 4.04e-16)
(0.00579 -0.101 -1.27e-16)
(0.0385 -0.075 0)
(0.00935 -0.0872 9.39e-17)
(0.0394 -0.0822 -7.29e-16)
(-0.0401 -0.0831 3.67e-16)
(0.0699 -0.075 -8.82e-17)
(-0.0455 -0.0415 3.93e-16)
(-0.0731 -0.0622 0)
(0.0353 -0.0685 0)
(0.0652 -0.0878 1.35e-16)
(0.00326 -0.0799 0)
(0.0557 -0.0688 0)
(0.0308 -0.0274 -4.67e-16)
(0.000215 -0.0738 0)
(-0.00101 -0.0586 0)
(0.0336 -0.0683 3.71e-16)
(-0.0033 -0.0677 -4.69e-17)
(-0.00024 -0.0337 2.52e-17)
(-0.0169 -0.0781 -4.49e-16)
(0.0721 -0.078 3.6e-16)
(-0.00101 -0.0581 -4.32e-16)
(0.00429 -0.0765 9.27e-17)
(0.077 -0.0829 -3.47e-16)
(-0.0012 -0.0795 1.83e-16)
(-0.0352 -0.0748 -3.63e-16)
(0.0617 -0.0652 -5.46e-16)
(0.0346 -0.0733 7.13e-16)
(0.0325 -0.0631 0)
(-0.0695 -0.0756 -3.58e-16)
(0.0189 -0.0404 0)
(0.0193 -0.0438 -3.54e-16)
(0.0222 -0.04 4.24e-16)
(0.0195 -0.0378 0)
(-0.0356 -0.0732 0)
(0.0543 -0.0528 4.64e-17)
(-0.0195 -0.0414 0)
(-0.0198 -0.045 3.54e-16)
(0.054 -0.0825 -4.66e-17)
(-0.0692 -0.0755 5.34e-16)
(-0.00568 -0.0806 -9.82e-17)
(0.000748 -0.0353 1.38e-17)
(0.0139 -0.0901 -3.96e-16)
(0.046 -0.033 -1.93e-16)
(-0.0014 -0.0805 0)
(0.00151 -0.0811 3.23e-16)
(-0.0043 -0.0975 7.83e-16)
(0.012 -0.0105 7.48e-16)
(0.0364 -0.0301 -3.8e-16)
(-0.0598 -0.0594 -6.84e-16)
(0.0397 -0.0426 2e-16)
(-0.0706 -0.0674 3.61e-16)
(-0.0381 -0.0267 0)
(-0.0577 -0.0443 5.18e-17)
(0.0354 -0.0732 3.39e-16)
(-0.0046 -0.0892 9.03e-17)
(-0.0444 -0.0836 2e-16)
(0.0733 -0.0856 -4.17e-17)
(0.0103 -0.0979 2.99e-16)
(0.0786 -0.0736 -1.71e-16)
(0.0393 -0.0839 3.99e-16)
(0.000453 -0.0623 0)
(0.00133 -0.063 -1.3e-17)
(0.000154 -0.0862 -9.79e-17)
(0.0402 -0.0855 0)
(0.0016 -0.108 1.81e-16)
(0.0117 -0.0247 0)
(0.0526 -0.0762 2.4e-16)
(0.0433 -0.062 -1.97e-16)
(0.00573 -0.0901 0)
(-0.0358 -0.0385 -1.05e-16)
(0.0362 -0.074 -3.39e-16)
(-0.0179 -0.0257 -3.66e-16)
(0.0108 -0.0252 -1.66e-16)
(0.0178 -0.0252 1.69e-16)
(-0.0701 -0.0865 -4.84e-17)
(-0.0142 -0.0411 0)
(0.000659 -0.0206 0)
(-0.00412 -0.107 -2.87e-16)
(0.0286 -0.0634 1e-20)
(-0.0305 -0.0702 3.22e-18)
(-0.00241 -0.0739 0)
(-0.0607 -0.0785 9.82e-17)
(-0.029 -0.0648 0)
(0.013 -0.0971 1.75e-16)
(0.0735 -0.0757 5.33e-16)
(0.0528 -0.0699 -4.57e-16)
(0.000132 -0.0822 9.64e-17)
(0.00526 -0.0826 -6.91e-16)
(-0.0039 -0.0246 -7.22e-16)
(-0.0399 -0.0833 0)
(-0.0418 -0.0747 0)
(0.0369 -0.0813 -6.3e-16)
(-0.0138 -0.0946 0)
(-0.0546 -0.0575 0)
(-0.00447 -0.0815 0)
(0.0392 -0.0825 -5.43e-16)
(0.00223 -0.0977 -1.91e-16)
(0.0197 -0.0426 0)
(-0.00841 -0.023 0)
(0.0221 -0.0444 -4.41e-16)
(0.0615 -0.0711 -1.47e-16)
(0.0376 -0.08 0)
(0.0697 -0.0847 4.04e-16)
(0.0606 -0.0721 -3.26e-16)
(0.0633 -0.0744 3.39e-16)
(-0.0138 -0.0905 3.92e-16)
(0.00603 -0.0801 2.04e-16)
(-0.0499 -0.0771 -2.99e-16)
(-0.0269 -0.0607 5.19e-17)
(-0.00516 -0.0827 3.42e-16)
(0.0278 -0.056 -3.53e-16)
(0.0279 -0.0422 -7.4e-22)
(0.0382 -0.0768 -3.85e-16)
(0.00168 -0.065 -5.17e-17)
(0.0235 -0.0406 0)
(-0.0324 -0.0819 3.98e-16)
(0.0244 -0.0751 -3.78e-16)
(0.0752 -0.0765 -1.93e-16)
(-0.0407 -0.0863 2e-16)
(-0.0266 -0.0819 0)
(-0.0403 -0.0819 0)
(-0.0317 -0.0833 0)
(0.0111 -0.0937 0)
(0.0081 -0.0163 3.74e-16)
(-0.0397 -0.0843 -3.72e-16)
(-0.0406 -0.0695 0)
(0.0338 -0.0634 0)
(-0.00835 -0.0866 -3.35e-16)
(0.0496 -0.0732 3.79e-16)
(-0.035 -0.0686 0)
(-0.0182 -0.0343 4.57e-16)
(-0.0275 -0.0822 0)
(-0.0302 -0.0584 0)
(-0.000269 -0.0623 0)
(0.0159 -0.0311 0)
(-0.0732 -0.0827 1.16e-20)
(-0.0247 -0.0573 4.19e-16)
(-0.00657 -0.0514 0)
(0.0405 -0.0838 4.03e-16)
(-0.0264 -0.0762 0)
(0.0486 -0.0902 0)
(-0.0186 -0.0262 0)
(0.0181 -0.0178 0)
(0.014 -0.0283 4.48e-16)
(-0.0438 -0.0878 -3.74e-16)
(-0.00577 -0.0704 -2.07e-16)
(-0.0197 -0.0884 4.03e-16)
(0.0116 -0.0792 -9.24e-17)
(-0.0155 -0.0153 -9.02e-17)
(0.0512 -0.091 -3.19e-16)
(0.044 -0.0831 4.48e-16)
(0.0413 -0.0734 4.66e-16)
(-0.00993 -0.0188 -5.72e-18)
(0.0445 -0.08 0)
(-0.000118 -0.019 2.25e-20)
(-0.0287 -0.0725 5.95e-21)
(-0.000209 -0.0348 -4.51e-16)
(-0.0391 -0.0756 0)
(0.00766 -0.0527 -1.01e-16)
(-0.00557 -0.103 -1.65e-16)
(0.0428 -0.0708 0)
(0.0203 -0.0367 0)
(-0.0244 -0.0417 0)
(-0.014 -0.0283 -4.51e-16)
(-0.0341 -0.0644 0)
(-0.0052 -0.095 -9.27e-17)
(-0.000272 -0.0985 -9.38e-17)
(-0.048 -0.0729 3.45e-16)
(0.0266 -0.0452 5.07e-17)
(-0.00218 -0.0637 2.12e-16)
(-0.021 -0.0375 0)
(-0.0367 -0.0643 0)
(-0.0215 -0.0661 0)
(0.00528 -0.0958 6.95e-16)
(-0.0486 -0.0782 2.53e-16)
(-0.00496 -0.038 -3.35e-16)
(0.025 -0.0301 -1.7e-16)
(-0.0417 -0.0866 9.01e-17)
(-0.0459 -0.0903 3.91e-16)
(-0.00106 -0.0362 -4.54e-16)
(0.0449 -0.089 -3.87e-16)
(0.0379 -0.0706 0)
(0.0382 -0.0491 4.31e-16)
(-0.0361 -0.0682 0)
(-0.0242 -0.0417 0)
(-0.00143 -0.111 1.79e-16)
(0.00287 -0.0419 8.59e-16)
(-0.00283 -0.0414 -6.87e-16)
(-0.0381 -0.0709 0)
(0.0355 -0.0674 0)
(0.00589 -0.0396 -3.31e-16)
(0.00903 -0.0992 -8.79e-16)
(0.0137 -0.0422 -2.13e-16)
(-0.0041 -0.108 0)
(-0.000976 -0.104 -2.83e-16)
(0.039 -0.0751 0)
(-0.0442 -0.0803 0)
(-0.0451 -0.0536 0)
(0.046 -0.0907 3.98e-16)
(-0.0225 -0.0256 0)
(-0.0196 -0.0456 4.24e-16)
(-0.0469 -0.0921 -3.84e-16)
(-0.0375 -0.0796 -1.25e-17)
(0.00246 -0.107 9.24e-17)
(-0.0328 -0.0664 -2.12e-16)
(0.00135 -0.0726 0)
(-0.0416 -0.0799 -4.04e-16)
(0.0409 -0.079 4.05e-16)
(-0.0446 -0.0905 3.96e-16)
(-0.0111 -0.0239 -4.62e-16)
(0.0437 -0.0893 2.02e-16)
(-0.0372 -0.0722 0)
(0.0238 -0.0502 -4.18e-16)
(0.0228 -0.0428 0)
(-0.0222 -0.0413 0)
(-0.024 -0.0503 8.4e-16)
(4.04e-05 -0.115 -9.04e-17)
(0.00264 -0.0253 3.95e-20)
(-0.00207 -0.025 1.78e-16)
(-0.000317 -0.0191 3.58e-16)
(-0.00942 -0.0231 -3.63e-16)
(0.00464 -0.0225 -1.83e-16)
(-0.00807 -0.0163 -3.72e-16)
(0.023 -0.0726 0)
(-0.0234 -0.0738 0)
(0.0164 -0.0264 1.29e-16)
(0.0124 -0.0237 0)
(-0.0127 -0.0239 0)
(0.0158 -0.0938 1.47e-16)
(0.0194 -0.0453 0)
(-0.0113 -0.0204 0)
(0.0112 -0.0195 0)
(-0.00141 -0.113 -3.66e-16)
(-0.0191 -0.0357 0)
(-0.00136 -0.0218 6.97e-16)
(0.00901 -0.018 0)
(-0.00963 -0.0181 -3.61e-16)
(-0.00359 -0.0403 8.43e-16)
(-0.0135 -0.0218 0)
(-0.00186 -0.0998 -9.14e-17)
(0.00142 -0.11 9.06e-17)
(-0.0359 -0.0835 0)
(0.00678 -0.0667 0)
(0.00699 -0.0203 -3.61e-18)
(0.000588 -0.0182 0)
(0.0269 -0.081 3.97e-16)
(-0.000416 -0.0357 4.49e-16)
(-0.0516 -0.0922 -6.13e-16)
(0.0133 -0.0241 0)
(0.00406 -0.0397 4.52e-16)
(0.0111 -0.0238 4.59e-16)
(-0.0118 -0.0211 3.65e-16)
(0.000768 -0.0217 -7.13e-16)
(0.00109 -0.039 4.8e-16)
(-0.0329 -0.0718 3.07e-16)
(0.0292 -0.0629 7.58e-16)
(0.0138 -0.0404 0)
(0.00491 -0.0116 -3.7e-16)
(-0.000911 -0.0201 -3.65e-16)
(0.00212 -0.00916 0)
(-0.00215 -0.00925 0)
(-0.0323 -0.0795 -3.86e-16)
(0.0188 -0.052 0)
(-0.000241 -0.117 -2.65e-16)
(0.00635 -0.104 -1.95e-16)
(-0.00105 -0.115 -5.35e-16)
(-0.00238 -0.089 2.07e-16)
(-0.00494 -0.0116 0)
(-0.0229 -0.042 0)
(-0.000937 -0.107 -4.69e-16)
(0.0216 -0.0408 0)
(-0.0019 -0.11 8.07e-16)
(0.000316 -0.116 0)
(0.00288 -0.11 -9.07e-17)
(-0.000821 -0.115 1.82e-16)
(-0.0161 -0.0312 -4.39e-16)
(0.00677 -0.0137 -7.32e-16)
(-0.00678 -0.0137 3.69e-16)
(-0.000489 -0.0149 0)
(0.000203 -0.0345 -4.49e-16)
(0.0225 -0.0676 0)
(-0.0367 -0.0822 1.23e-17)
(-0.00394 -0.102 1.65e-16)
(-0.0133 -0.023 0)
(0.000397 -0.018 0)
(0.000944 -0.0363 5.55e-17)
(0.0115 -0.0209 -3.66e-16)
(0.0261 -0.0807 -9.78e-16)
(-0.000167 -0.0364 1.02e-16)
(0.000308 -0.0368 -4e-16)
(-0.00126 -0.0979 4.81e-16)
(-0.023 -0.069 0)
(-3.61e-06 -0.0212 3.56e-16)
(-4.48e-05 -0.018 0)
(0.000639 -0.0209 0)
(1.42e-05 -0.0222 6.74e-16)
(0.0259 -0.0751 3.9e-16)
(-0.00188 -0.0763 -9.27e-16)
(-0.000442 -0.118 -3.52e-16)
(-0.000433 -0.118 0)
(0.0243 -0.0569 2.11e-16)
(-0.000857 -0.116 2.65e-16)
(-0.0004 -0.119 -5.6e-16)
(-0.0191 -0.0525 0)
(-0.000577 -0.114 3.64e-16)
(0.00118 -0.11 3.75e-16)
(-0.034 -0.0766 0)
(-0.00708 -0.0205 0)
(-0.014 -0.0408 0)
(-0.000881 -0.106 -4.5e-16)
(-0.0294 -0.0623 -4.23e-16)
(4.26e-05 -0.117 7.31e-16)
(-0.00264 -0.11 9.34e-17)
(0.000541 -0.103 -2.91e-16)
(-0.00501 -0.105 3.71e-16)
(0.000394 -0.113 -1.72e-16)
(-0.0493 -0.0915 3.67e-16)
(-0.032 -0.0609 0)
(0.043 -0.0865 0)
(9.03e-05 -0.114 6.74e-16)
(-0.00989 -0.0975 9.51e-17)
(-0.0557 -0.0906 -1.46e-16)
(-0.000258 -0.118 1.78e-16)
(0.000729 -0.104 -3.66e-16)
(-0.0277 -0.0554 6.3e-16)
(-6.37e-05 -0.113 1.84e-16)
(0.00516 -0.104 -1.7e-16)
(0.000885 -0.103 -3.81e-16)
(-0.000467 -0.0763 0)
(-0.00236 -0.0903 0)
(0.00197 -0.108 -1.86e-16)
(0.00181 -0.112 2.74e-16)
(-0.000861 -0.116 2.65e-16)
(-0.000791 -0.0659 3.79e-16)
(-0.000165 -0.117 2.68e-16)
(0.0497 -0.0663 -1.08e-16)
(0.0275 -0.0774 2.13e-16)
(-0.0081 -0.0186 -3.68e-16)
(0.00771 -0.0177 9.33e-17)
(-0.00894 -0.0202 3.63e-16)
(0.00902 -0.02 0)
(0.0092 -0.0192 3.71e-16)
(-0.00935 -0.0194 1.85e-16)
(-0.0017 -0.103 -1.82e-16)
(0.00992 -0.0224 0)
(-0.0102 -0.0234 0)
(4.39e-05 -0.116 -2.68e-16)
(-0.0117 -0.0243 -3.59e-16)
(0.0142 -0.0261 0)
(-0.0143 -0.0267 0)
(-0.00136 -0.113 -2.9e-16)
(-0.0118 -0.0111 0)
(-9.06e-05 -0.116 9.02e-17)
(0.00788 -0.0193 4.12e-16)
(-0.000348 -0.117 -9.33e-17)
(0.000521 -0.0961 -3.93e-16)
(-0.00134 -0.115 9.3e-17)
(0.0396 -0.0781 3.9e-16)
(0.00727 -0.101 1.64e-16)
(-0.0326 -0.0299 0)
(0.036 -0.0786 0)
(-0.0332 -0.0217 -4.54e-17)
(-0.0524 -0.054 3.78e-16)
(0.0303 -0.0828 -1.97e-16)
(-0.0764 -0.085 -2.02e-16)
(0.033 -0.0202 3.47e-16)
(-0.00873 -0.101 -9.39e-17)
(-0.0156 -0.0356 -4.66e-16)
(0.0154 -0.0345 3.33e-16)
(-0.0257 -0.05 -4.31e-16)
(-0.00127 -0.081 -3.33e-16)
(0.0161 -0.0362 -2.32e-16)
(-0.0163 -0.0367 0)
(0.00342 -0.107 -4.56e-16)
(0.00146 -0.111 2.69e-16)
(-0.000988 -0.104 5.54e-16)
(-0.00159 -0.0194 -4.76e-16)
(-0.0199 -0.0435 4.33e-16)
(-0.0224 -0.0444 0)
(0.0142 -0.0334 -2.87e-16)
(0.00421 -0.0812 1.65e-16)
(0.0151 -0.0813 0)
(0.00976 -0.0916 3.91e-16)
(0.0282 -0.0718 -1.9e-16)
(-0.0797 -0.0774 3.43e-16)
(0.0102 -0.0535 2.01e-16)
(0.0619 -0.0447 3.4e-18)
(-0.000312 -0.0987 4.91e-16)
(0.00542 -0.0716 4.18e-16)
(-0.00103 -0.0314 4.67e-16)
(-0.0748 -0.0793 -6.76e-16)
(0.0011 -0.0335 -4.25e-16)
(-0.00617 -0.0369 2.23e-16)
(-0.0106 -0.0784 3.04e-16)
(-0.0126 -0.0847 0)
(-0.00815 -0.0895 0)
(0.0729 -0.0602 0)
(-0.0236 -0.0679 6.13e-16)
(0.00872 -0.101 -4.71e-16)
(0.0221 -0.0889 -3.85e-16)
(-0.00834 -0.0778 -7.88e-16)
(-0.0372 -0.0799 9.69e-17)
(-0.00285 -0.094 5.96e-21)
(-0.0274 -0.073 -8.08e-16)
(-0.0338 -0.0765 -9.79e-17)
(0.0143 -0.0953 9.45e-17)
(0.0321 -0.0705 -4.29e-16)
(-0.0325 -0.0718 -2.16e-16)
(0.041 -0.0863 0)
(-0.00775 -0.0955 9.32e-17)
(-0.0378 -0.0828 5.05e-17)
(0.00014 -0.0177 -1.91e-20)
(0.0412 -0.0841 0)
(-0.0399 -0.082 5.24e-16)
(-0.0358 -0.0811 0)
(0.0313 -0.0804 -2.03e-16)
(0.0138 -0.0405 5.73e-16)
(-0.00621 -0.0889 -4.35e-16)
(0.0079 -0.0224 -3.42e-16)
(0.0307 -0.082 0)
(-0.065 -0.0875 0)
(0.00128 -0.113 -1.81e-16)
(0.0469 -0.0525 -1.03e-16)
(0.0114 -0.0837 0)
(-0.00877 -0.0206 -1.79e-16)
(0.0362 -0.0816 -1.98e-16)
(0.0316 -0.0688 0)
(-0.0281 -0.0862 -3.86e-16)
(0.021 -0.0648 0)
(-0.0155 -0.0929 3.94e-16)
(-0.0258 -0.0864 -3.02e-16)
(0.00358 -0.0958 0)
(0.00993 -0.0829 2.11e-16)
(0.000255 -0.0774 0)
(-0.0601 -0.0912 0)
(-0.00447 -0.109 3.8e-16)
(-0.000534 -0.062 -3.23e-16)
(-0.0542 -0.0718 -3.86e-16)
(-0.0444 -0.0655 5.47e-16)
(0.000737 -0.0173 0)
(-0.042 -0.0852 1.03e-16)
(-0.0109 -0.082 0)
(-0.0369 -0.0807 2.1e-21)
(0.00967 -0.0814 1.6e-16)
(-0.0431 -0.0889 -3.74e-16)
(-0.00144 -0.0643 0)
(-0.00556 -0.064 -6.7e-18)
(0.0362 -0.0649 1.94e-16)
(0.000507 -0.109 5.8e-16)
(-0.0584 -0.0755 0)
(0.0172 -0.0641 4.18e-16)
(-0.0251 -0.0282 2.15e-16)
(-0.0142 -0.0968 -1.48e-16)
(0.0143 -0.0383 -2.61e-16)
(-0.00223 -0.113 9.35e-17)
(0.0508 -0.0797 -1.41e-20)
(-0.0154 -0.0399 0)
(0.0249 -0.027 -2.2e-16)
(-0.0117 -0.0991 1.96e-16)
(0.0335 -0.0761 -6.07e-16)
(0.000504 -0.0911 -4.32e-16)
(-0.00115 -0.0179 0)
(-0.0125 -0.0167 0)
(-0.00989 -0.0756 2.04e-16)
(-0.000612 -0.102 -4e-16)
(0.0361 -0.0795 1.93e-16)
(0.0348 -0.0819 4.06e-16)
(0.0105 -0.0136 1.79e-16)
(0.0194 -0.0258 8.82e-17)
(0.0484 -0.0565 1.73e-16)
(0.000487 -0.0932 0)
(0.00309 -0.11 1.89e-16)
(-0.0756 -0.079 -2.9e-16)
(-0.000816 -0.11 -8.94e-16)
(-0.00912 -0.0815 1.63e-16)
(0.0262 -0.0712 2.09e-16)
(-4.97e-05 -0.0929 3.04e-16)
(-0.00212 -0.0407 0)
(-0.0164 -0.0885 0)
(-0.0531 -0.0841 -1.92e-16)
(0.00222 -0.041 -1.65e-16)
(-0.0699 -0.087 4.77e-17)
(0.0315 -0.0786 2.42e-17)
(0.0174 -0.0906 5.05e-17)
(-0.00995 -0.0982 -1.94e-16)
(-0.0151 -0.0353 4.54e-16)
(-0.00153 -0.0713 2.14e-16)
(-0.0387 -0.084 1.94e-16)
(-0.00671 -0.0782 1.59e-16)
(0.00638 -0.0788 0)
(0.0405 -0.0853 -2.04e-16)
(-0.00568 -0.105 -3.85e-16)
(0.0239 -0.0608 0)
(0.00257 -0.0991 5.74e-16)
(-0.0691 -0.0739 1.1e-16)
(-0.0157 -0.0897 0)
(-0.0266 -0.0598 2.24e-16)
(0.00916 -0.0936 0)
(-0.0254 -0.0629 4.2e-16)
(-0.02 -0.0895 0)
(0.00104 -0.0769 3.9e-16)
(0.0392 -0.0648 0)
(0.00135 -0.0616 -4.25e-16)
(-0.0278 -0.0646 -2.33e-16)
(-0.0328 -0.072 -5.42e-17)
(0.000248 -0.0362 -4.24e-16)
(0.0395 -0.0825 2.08e-16)
(0.0276 -0.0635 0)
(0.000855 -0.0709 0)
(0.0212 -0.0895 4.01e-16)
(0.00056 -0.101 -2.85e-16)
(0.027 -0.0494 -3.39e-16)
(-0.00144 -0.112 9.41e-17)
(0.0247 -0.0571 0)
(0.0349 -0.0763 2.22e-16)
(0.00131 -0.0896 -5.43e-16)
(-2.27e-05 -0.0723 2.78e-16)
(0.0056 -0.0687 -2.19e-16)
(0.053 -0.0742 1e-16)
(-0.0047 -0.0735 2.21e-16)
(0.0312 -0.0472 0)
(0.0427 -0.0874 0)
(-0.00217 -0.036 -4.16e-16)
(0.000284 -0.0938 0)
(0.0214 -0.0863 4.65e-16)
(-0.0248 -0.0373 -2.31e-16)
(0.000924 -0.0579 0)
(-0.0309 -0.0688 -2.74e-16)
(-0.0489 -0.0577 -2.64e-17)
(-0.0119 -0.0661 4.46e-16)
(0.013 -0.0672 8.71e-20)
(0.0147 -0.0883 -2.57e-17)
(0.0257 -0.0383 0)
(0.0284 -0.064 2.32e-16)
(0.0125 -0.0749 0)
(-0.000875 -0.0952 -2.05e-16)
(0.000422 -0.0721 0)
(-0.0514 -0.0712 0)
(0.063 -0.0761 -9.96e-17)
(0.0284 -0.0672 2.16e-16)
(0.0673 -0.061 2.81e-17)
(-0.0414 -0.0829 -1.12e-16)
(0.0342 -0.0787 -1.94e-16)
(-0.0514 -0.0753 1.02e-16)
(0.048 -0.0632 -1.11e-16)
(-0.00625 -0.106 -9.58e-17)
(0.055 -0.0899 -2.62e-16)
(-0.000857 -0.111 1.1e-16)
(0.00104 -0.0918 1.08e-16)
(-0.012 -0.0929 5.65e-17)
(-0.0148 -0.0942 0)
(-0.0305 -0.0483 0)
(0.0249 -0.0558 -4.87e-16)
(-0.0208 -0.0857 0)
(0.0217 -0.0863 -2.1e-16)
(0.000846 -0.0872 0)
(0.016 -0.0873 2.14e-16)
(-0.00993 -0.0986 1.43e-16)
(-0.023 -0.0871 -2.29e-16)
(0.0225 -0.087 -2.3e-16)
(-0.0374 -0.0813 2.12e-16)
(-0.0583 -0.0718 0)
(0.0571 -0.0503 -1.56e-16)
(-0.00979 -0.0908 -4.48e-16)
(-0.0706 -0.0767 1.12e-16)
(0.000693 -0.0891 0)
(-0.0676 -0.0802 2.31e-16)
(-0.0579 -0.0655 0)
)
;

boundaryField
{
    front
    {
        type            empty;
    }
    back
    {
        type            empty;
    }
    bottom
    {
        type            zeroGradient;
    }
    left
    {
        type            noSlip;
    }
    top
    {
        type            uniformFixedValue;
        uniformValue    
        {
            type            table;
            format          csv;
            file            "inlet_v.csv";
            nHeaderLine     1;
            refColumn       0;
            componentColumns List<label> 3(1 2 3);
            separator       ",";
            mergeSeparators 0;
        }
        value           uniform (0 -0.08 0);
    }
    right
    {
        type            noSlip;
    }
    inner_arc
    {
        type            noSlip;
    }
}


// ************************************************************************* //
