/*--------------------------------*- C++ -*----------------------------------*\
  =========                 |
  \\      /  F ield         | OpenFOAM: The Open Source CFD Toolbox
   \\    /   O peration     | Website:  https://openfoam.org
    \\  /    A nd           | Version:  9
     \\/     M anipulation  |
\*---------------------------------------------------------------------------*/
FoamFile
{
    format      ascii;
    class       volVectorField;
    location    "1.92";
    object      U;
}
// * * * * * * * * * * * * * * * * * * * * * * * * * * * * * * * * * * * * * //

dimensions      [0 1 -1 0 0 0 0];

internalField   nonuniform List<vector> 
1655
(
(-0.0144359 -0.0124831 -3.63817e-18)
(-0.00215939 0.00542541 2.39737e-17)
(-0.0337858 0.145202 1.93514e-17)
(0.0916613 -0.026432 -1.15326e-17)
(0.0466461 0.0592249 0)
(0.00311252 -0.0123803 7.31453e-18)
(-0.0692906 0.120276 0)
(0.0281383 0.0970512 -1.29534e-17)
(0.0605173 0.141384 0)
(0.0485693 0.0549829 -6.32605e-18)
(0.0499293 -0.0557573 2.8971e-17)
(0.0439416 -0.06017 -2.85415e-17)
(0.0183105 0.0564803 -8.60236e-22)
(0.00313129 -0.0277697 -1.50734e-17)
(-0.0284666 -0.110271 1.48249e-17)
(0.00467985 -0.00534835 0)
(-0.0712044 -0.00340933 2.59899e-17)
(0.0846074 0.0875317 7.72434e-18)
(-0.0423145 -0.0171464 -2.90806e-17)
(0.0015816 -0.0218058 -8.37172e-18)
(0.00218323 -0.0326982 3.4076e-18)
(0.0595364 0.15758 0)
(0.039384 0.0748244 -1.56321e-17)
(0.0326804 0.0656559 7.2585e-18)
(-0.000882858 -0.043131 -4.5721e-18)
(-0.0483218 -0.00555131 -3.08839e-17)
(-0.000496177 -0.00159329 -1.35048e-17)
(0.0489139 0.153099 -1.55791e-17)
(0.0410908 0.14887 2.10396e-17)
(0.00196673 -0.0281671 -1.50661e-17)
(-0.144624 0.0689521 3.74142e-17)
(0.0130147 0.193109 -3.97322e-18)
(0.00748884 -0.0717435 -5.53484e-18)
(0.0729701 0.0936752 0)
(0.0869651 0.0706717 0)
(0.0957288 0.0719985 0)
(0.0200767 -0.00982249 -1.96798e-17)
(-0.00443681 0.0114854 0)
(0.00570585 -0.0696623 -7.57431e-18)
(-0.00925819 0.0105237 -2.58818e-17)
(-0.00170146 -0.0185241 1.46205e-17)
(0.0397022 0.0701489 1.26234e-17)
(0.00548309 -0.0628691 -7.91891e-18)
(-0.044683 -0.00654739 2.30256e-17)
(-0.00840088 0.0069305 0)
(0.1255 -0.038873 0)
(0.138586 -0.0260487 3.58616e-17)
(-0.00950834 0.0100775 0)
(0.0483716 0.0247464 1.40984e-17)
(0.00564003 -0.0596922 1.92826e-18)
(0.0112168 -0.0148962 2.17173e-17)
(-0.0240152 0.166768 -1.43785e-17)
(-0.0219216 0.015569 -1.59824e-17)
(0.0593673 0.141108 1.39458e-17)
(0.0347296 0.0633423 -1.80768e-17)
(0.00159085 -0.0100979 0)
(-0.00540154 0.00474575 -7.08169e-18)
(0.0423982 -0.0450626 0)
(0.110802 -0.0612478 0)
(0.0147249 0.00955711 1.5368e-17)
(-0.137839 0.0660534 -3.74428e-17)
(-0.0291533 -0.0254535 0)
(-0.0125941 -0.0229083 0)
(0.0386446 0.111783 -3.58282e-18)
(-0.0220933 0.0253593 0)
(-0.112537 0.0954363 0)
(0.0745086 0.0151898 3.35498e-17)
(0.0684338 -0.0547544 -1.66012e-17)
(0.0692514 0.0297908 0)
(0.0352901 0.0616623 -1.44446e-17)
(0.0554676 -0.0441588 1.84703e-17)
(-0.0846484 0.112221 -8.7772e-19)
(0.0049661 -0.0431956 -9.37081e-19)
(-0.012525 -0.115281 1.35888e-17)
(0.00184381 0.0564666 -1.73927e-17)
(0.00982067 0.00628423 8.21693e-18)
(0.0361586 0.133742 -4.77358e-18)
(0.0747077 0.0121471 0)
(-0.00133718 -0.00750857 0)
(0.00174518 -0.0292493 0)
(-0.015044 0.0316797 1.85648e-17)
(0.00218721 0.0111282 -8.35907e-18)
(0.0412245 0.0617814 1.84749e-17)
(-0.0392995 0.000911647 9.28553e-18)
(0.00503698 -0.0462055 0)
(-0.00667199 -0.0291149 0)
(-0.00390074 0.0783773 -1.05201e-17)
(0.00291308 -0.0372892 0)
(-0.00923252 0.0313783 -7.26857e-18)
(-0.00779021 -0.0292856 0)
(-0.0118747 -0.0337818 0)
(-0.0191262 0.144042 9.12635e-18)
(-0.0368711 -0.0129877 1.7798e-17)
(0.0303328 0.012869 0)
(0.00445151 -0.0101427 0)
(-0.0344903 -0.0166683 2.96249e-17)
(0.066139 0.0145331 -2.84839e-17)
(0.0990221 -0.0530268 0)
(0.0233893 0.183913 -8.51843e-18)
(0.0094236 -0.0792889 1.82782e-17)
(-0.0173859 0.118742 -5.72993e-17)
(0.0234116 0.028356 -1.88186e-17)
(0.0434726 0.02864 -1.84016e-17)
(0.0061843 0.0381878 1.97245e-17)
(0.0634817 0.102119 0)
(-0.0174357 -0.0232292 -1.13869e-18)
(0.0570318 0.121951 -1.58282e-17)
(0.000657407 -0.0207032 0)
(0.00654926 -0.0789006 0)
(0.0010334 -0.0169356 -1.62685e-17)
(0.00366203 -0.0794582 1.27421e-17)
(0.01948 -0.0365905 1.47723e-17)
(0.00683991 -0.019887 9.83594e-18)
(0.00669133 -0.0537797 1.67769e-17)
(0.0580372 0.116204 1.50311e-17)
(-0.0141028 -0.0317879 -9.53276e-18)
(0.0557816 0.117677 -1.60906e-17)
(0.12177 -0.052612 0)
(-0.0106598 0.0343933 1.43876e-17)
(0.0651498 0.0963261 -3.19409e-17)
(0.013509 -0.00787592 -2.77518e-17)
(0.0417728 0.0345437 2.82823e-17)
(-0.0665036 0.0615609 -2.23374e-17)
(0.162602 0.0889039 2.06897e-17)
(0.0467919 0.0304436 7.30982e-18)
(0.0396517 0.091622 0)
(0.00412053 -0.0519935 -1.82177e-17)
(0.00801631 -0.0152742 1.64226e-17)
(0.00614098 0.0015914 -2.28208e-18)
(0.00420899 -0.0630337 -2.18282e-18)
(0.0540534 0.00467205 4.16839e-18)
(0.0036067 -0.0803513 2.24865e-17)
(0.0444263 0.11366 1.38894e-17)
(0.038869 0.085926 1.46087e-17)
(-0.000743949 -0.00726814 0)
(-0.00124945 0.0165382 0)
(0.0465121 0.0655138 -8.51469e-18)
(0.0280624 0.0262216 1.45144e-17)
(-0.00256268 0.00190641 7.73994e-18)
(0.093151 0.00924276 -7.60669e-18)
(0.00768104 0.0132861 1.00309e-17)
(-0.00442376 0.00652957 1.38549e-17)
(-0.00490675 0.00385715 0)
(0.0319255 0.020024 0)
(-0.141077 0.0243665 -8.54073e-18)
(0.0167966 0.0216574 0)
(0.0402311 0.0345891 -2.98232e-17)
(0.0311019 0.0130578 2.39294e-17)
(0.0438419 0.0289491 1.54531e-17)
(-0.218346 0.0450278 0)
(-0.181267 0.0390496 1.45774e-17)
(-0.206576 0.0418382 -7.84561e-18)
(-0.0284621 0.0397926 1.53826e-17)
(-0.107099 0.0359862 1.33496e-17)
(0.00532646 -0.0339674 0)
(0.0028806 -0.0492742 2.9389e-17)
(-0.0331994 0.0130048 1.8762e-18)
(0.0537185 0.0295171 7.8976e-18)
(0.0590652 0.119055 0)
(-0.012111 0.0270237 -2.00421e-17)
(0.0376187 0.0322725 2.25843e-17)
(0.0433972 -0.0287654 0)
(0.0601201 0.12591 -4.04188e-22)
(0.0660949 0.0324724 0)
(0.0351419 0.0274051 0)
(0.0887191 -0.0590222 -7.6759e-18)
(0.0556358 0.146597 0)
(0.0535991 0.108471 -3.0302e-17)
(0.0329833 0.0238478 4.63964e-18)
(0.0621312 -0.0452815 0)
(-0.108839 -0.027936 0)
(0.0306939 0.0752621 0)
(0.0308107 0.0146178 9.29624e-18)
(0.060515 0.124413 1.59998e-17)
(0.00351787 -0.0398342 9.79469e-19)
(0.0596283 0.122958 1.59402e-17)
(0.0538244 0.0134708 4.1835e-18)
(0.0807145 -0.128344 0)
(0.0110501 -0.0656926 -1.74167e-17)
(0.00177277 -0.0221124 1.36884e-17)
(-0.00415258 -0.0193748 1.99284e-17)
(0.022909 0.0695917 1.24889e-17)
(-0.00902181 -0.0214876 -2.65854e-17)
(0.162372 0.0735529 -4.51521e-18)
(-0.00675752 0.00276407 -8.78278e-18)
(0.0159209 -0.072586 0)
(0.000813029 0.0095423 0)
(0.0130479 -0.0706179 0)
(0.0669192 0.0792108 0)
(0.0255768 0.0776726 -1.21365e-17)
(-0.00839582 0.00777829 -1.58053e-17)
(-0.0250239 -0.0217997 0)
(0.0202926 0.0564774 -1.62345e-17)
(-0.0288159 0.158386 2.02045e-17)
(0.0214293 -0.0783777 0)
(-4.78099e-05 -0.0108847 -9.90658e-18)
(0.0329351 0.0681118 0)
(0.0182243 -0.0764739 0)
(-0.015663 0.0378216 1.8853e-17)
(0.0205965 0.0729875 0)
(0.167363 0.0292119 1.03527e-17)
(0.150097 0.0256483 -4.64493e-18)
(-0.0275345 0.0980701 1.70664e-17)
(-0.0885095 0.0853232 3.79799e-17)
(0.00332422 -0.0351515 -1.44918e-17)
(0.00461997 -0.0369493 1.15222e-17)
(0.0163414 -0.0714163 0)
(0.0225636 0.0470569 0)
(0.00574286 -0.0676147 5.17042e-17)
(0.0572858 0.0795864 0)
(0.0453113 0.201733 2.70896e-17)
(-0.00159739 0.167812 -7.4806e-18)
(-0.00160268 0.00837282 0)
(0.0479223 0.103378 1.58592e-17)
(0.00338705 -0.0255979 -1.62762e-18)
(0.123351 0.0332477 3.52656e-17)
(0.0925363 0.0505187 -8.86611e-18)
(0.0131158 0.00461404 0)
(0.0304067 0.141779 1.54713e-17)
(0.0297284 0.0799463 0)
(-0.00780792 0.0150789 0)
(0.00442383 -0.0416174 -3.32945e-17)
(0.01027 -0.0696341 2.34179e-17)
(0.0459438 0.09885 1.61735e-17)
(0.0128732 -0.0725325 -1.69049e-17)
(0.0272646 -0.0829298 1.62562e-17)
(0.027717 -0.082362 -1.61987e-17)
(-0.0107341 -0.0351732 0)
(0.0197909 0.0670544 1.9745e-17)
(0.0322186 0.0220584 1.58632e-17)
(0.041668 -0.0629218 0)
(0.0172463 -0.0853668 -1.97955e-17)
(0.0361365 -0.122944 1.97274e-17)
(0.117156 0.00352335 -3.11417e-17)
(0.0190798 -0.0744107 -1.66967e-17)
(0.0391629 -0.0656555 1.63044e-17)
(0.02389 -0.081196 0)
(0.0116999 0.0408823 0)
(0.0249104 -0.0791597 2.01855e-17)
(0.0294442 -0.183687 1.57642e-17)
(-0.00303553 -0.0218272 -1.52243e-17)
(-0.008311 0.00902943 2.89408e-17)
(0.0457991 -0.182159 -1.97209e-17)
(-0.00193674 -0.00678952 1.38366e-17)
(0.0421291 0.0913724 4.04672e-18)
(6.85074e-05 -0.0251692 -2.05228e-17)
(-0.175783 0.041124 1.20477e-17)
(0.0598569 0.126144 0)
(0.0216298 -0.076779 -4.0474e-18)
(0.0416578 0.0929978 0)
(-0.0398255 -0.00691326 -1.31718e-17)
(0.000669441 -0.021013 3.28791e-18)
(0.0387849 -0.00791256 -1.60012e-17)
(0.0235156 0.198928 -1.13231e-17)
(0.0229942 -0.0734324 1.64134e-17)
(0.0492102 0.17575 -1.93706e-17)
(0.0134718 -0.0784468 -1.68537e-17)
(0.0461674 0.0961206 -4.0304e-18)
(0.0436154 -0.193034 2.12638e-17)
(0.0105483 -0.0644069 1.54546e-17)
(0.0769083 -0.0559441 1.20068e-17)
(0.0108931 -0.0619404 1.66633e-17)
(0.0311733 -0.0843963 1.61342e-17)
(0.00124535 0.140572 1.56128e-17)
(0.0246727 -0.0103034 1.60586e-17)
(0.0603631 0.116587 1.60373e-17)
(0.013623 -0.0622345 0)
(0.00304973 -0.0384551 -2.27481e-17)
(0.012322 -0.0758817 8.82977e-18)
(0.00456227 -0.0396518 0)
(0.031515 0.0802034 -1.71365e-17)
(0.0965338 0.0321204 1.22196e-17)
(-0.00824681 0.00914152 8.48477e-18)
(0.0134051 -0.0643966 0)
(0.10623 -0.0546542 -4.94569e-21)
(0.0739962 0.0271662 -1.23579e-17)
(-0.177519 0.0326655 0)
(0.0436217 0.0876203 2.01536e-17)
(0.0449869 0.0771985 -2.03926e-17)
(0.0855403 -0.0937185 3.93775e-18)
(0.0191437 0.0628465 1.65703e-17)
(0.0629475 0.11802 4.02133e-18)
(0.0680124 -0.00133887 1.63888e-17)
(-0.00636745 0.0141154 1.44867e-17)
(-0.0211236 -0.055472 -2.72243e-17)
(0.0506171 0.0310192 -1.64464e-17)
(0.0112949 0.0578206 1.63421e-17)
(0.00999005 -0.0797903 1.46719e-17)
(0.0167516 -0.0662544 0)
(0.0984665 0.0704214 0)
(0.0430685 0.0491735 1.60833e-17)
(-0.0012248 -0.0170887 1.57613e-17)
(0.0101453 -0.0507234 3.40845e-17)
(0.0409931 0.0895762 0)
(0.0127942 0.0517256 -1.63224e-17)
(0.0258005 -0.0811806 4.10996e-18)
(0.0165962 0.0621354 0)
(0.0385522 0.102874 -2.74738e-17)
(-0.00163681 -0.00314775 -1.60547e-17)
(0.00982463 -0.0720816 -4.06305e-17)
(0.0150959 -0.0805264 -1.70824e-17)
(0.0112992 0.00273725 0)
(-0.00140721 -0.00669597 2.48196e-17)
(0.0309226 -0.0834107 -4.08272e-18)
(0.0314489 -0.0839482 -3.22512e-17)
(0.031315 0.0691968 -1.73652e-17)
(0.0203123 -0.0814951 -4.13911e-18)
(0.0188711 -0.0724205 4.04189e-18)
(0.0177998 0.0439746 -4.06608e-18)
(0.0352567 -0.0861624 -1.60657e-17)
(0.0304625 -0.00204536 0)
(-0.156715 0.0081611 8.58364e-18)
(0.015917 -0.0699068 -4.0693e-18)
(0.0865241 -0.0749829 -4.0008e-18)
(0.0608681 0.118412 0)
(0.0199602 0.054596 0)
(-0.00277672 0.000302356 -1.6039e-17)
(0.0229619 0.0646376 -1.63215e-17)
(0.0355578 -0.0859594 2.64718e-22)
(0.0151841 -0.0802029 1.78736e-17)
(0.0140273 0.0648984 0)
(0.008538 -0.0425405 -1.71622e-17)
(0.0132835 -0.079726 2.25802e-18)
(0.0294541 -0.0816589 -4.09862e-18)
(0.0186026 -0.0808133 -1.66244e-17)
(0.101136 -0.0404385 2.29399e-17)
(0.0554419 -0.0250925 7.87543e-18)
(0.0625005 0.119333 -2.02537e-17)
(0.0144347 -0.0767635 0)
(0.0748067 -0.0112894 -1.5933e-17)
(0.0239165 -0.0684585 0)
(0.0148275 0.0601933 1.63038e-17)
(0.00129148 -0.00898094 7.30869e-18)
(0.0184447 -0.0701453 -1.62826e-17)
(0.00793543 0.0255031 1.63161e-17)
(0.0247812 -0.0777821 -1.21403e-17)
(0.0671258 0.00357585 1.19766e-17)
(0.0133673 -0.0555282 -1.70557e-17)
(0.0338106 -0.0861762 0)
(0.0128363 0.0254762 0)
(0.0137016 -0.0807893 1.76188e-17)
(0.0353619 -0.0858572 1.62189e-17)
(0.0712601 -0.0182241 0)
(0.0158909 -0.00873791 -1.97974e-17)
(0.0165197 0.0182945 0)
(0.0342545 -0.0843663 -2.84834e-17)
(0.00498463 -0.0368369 0)
(0.0238919 -0.0821408 4.12144e-18)
(0.0185019 -0.0810659 0)
(0.0125938 -0.0612349 0)
(0.0156821 0.038574 0)
(0.0149036 -0.0299694 1.58983e-17)
(0.0297665 -0.0567047 0)
(0.0201429 -0.0793722 1.65804e-17)
(0.0467955 0.0900831 0)
(0.0400357 -0.0882561 0)
(0.0330361 -0.0857597 0)
(0.0371879 -0.0876402 -2.80866e-22)
(0.0328441 0.0630262 -1.61472e-17)
(0.0317008 -0.0817694 2.01166e-17)
(0.0033958 0.0142686 -1.38717e-17)
(0.0206629 -0.0641112 0)
(0.0526795 0.101802 -4.33827e-18)
(0.0779759 -0.104618 1.58397e-17)
(0.00434845 0.000105981 1.67302e-17)
(-0.00456296 -0.0155174 -1.40595e-17)
(0.0125958 -0.0733815 4.26713e-18)
(0.0135828 0.031494 -1.59123e-17)
(0.0266309 0.0730575 0)
(0.0425993 -0.0819807 0)
(-0.0069055 0.00744191 0)
(0.0180345 -0.0775349 1.65944e-17)
(-0.00497785 0.0114271 0)
(0.041839 -0.0893375 0)
(0.0143838 0.0263598 0)
(0.0237322 0.0480174 4.04913e-18)
(0.137459 -0.0258432 1.18793e-17)
(0.0500602 0.109751 -3.51547e-22)
(0.044316 -0.0718627 4.03639e-18)
(0.0297141 -0.0843741 -1.62757e-17)
(0.0404685 -0.0498705 -4.14786e-18)
(0.0857918 -0.106154 0)
(0.0569203 0.109521 -1.66473e-17)
(0.0753319 -0.0999124 -1.97748e-17)
(0.0252492 -0.0827547 -4.09307e-18)
(0.0471847 0.0970073 0)
(0.0430218 -0.0899477 0)
(0.0353418 0.0745777 2.61027e-22)
(0.0416359 0.00205306 0)
(0.0283178 -0.0805484 -4.03513e-18)
(-0.000307651 -0.00850345 1.52604e-17)
(0.0315714 -0.0303242 -1.59066e-17)
(0.125301 -0.00876566 -1.58679e-17)
(0.0452467 0.097401 0)
(0.0384228 -0.086952 0)
(0.0477057 -0.090967 -1.59525e-17)
(0.0405443 -0.0885107 1.59763e-17)
(0.0217659 0.0201843 0)
(0.0582488 0.115486 0)
(0.122871 -0.0210438 0)
(0.0380174 -0.0880399 -1.60648e-17)
(0.0293734 -0.0371566 3.39e-17)
(0.0879999 -0.11211 3.94527e-18)
(0.064995 0.120535 -2.00646e-17)
(0.0926101 -0.0351364 -3.96698e-18)
(0.0254874 -0.0765035 -1.64605e-17)
(0.0404451 0.0918797 1.62911e-17)
(0.0392404 -0.0370568 -1.99515e-17)
(-0.00260464 0.00582471 0)
(0.128512 -0.0342734 0)
(0.0157798 0.0200334 0)
(0.0828173 -0.118331 3.94429e-18)
(0.0677394 -0.0991259 3.97424e-18)
(0.104016 -0.0280705 0)
(0.0295261 -0.0762378 0)
(0.076324 -0.122691 -1.57822e-17)
(0.0460298 0.098996 0)
(0.0225955 -0.146315 0)
(0.0648652 -0.0957322 -1.19433e-17)
(0.0494539 -0.0921488 1.59363e-17)
(0.102184 -0.0249107 1.58876e-17)
(0.0816349 -0.113825 -3.94587e-18)
(0.119624 0.0396265 3.98706e-18)
(0.0460475 -0.0908985 0)
(0.0577409 -0.0919108 1.59366e-17)
(-0.156971 -0.00827547 -1.00448e-17)
(0.0421497 -0.173128 0)
(0.0394638 -0.0880471 1.20999e-17)
(0.0216015 -0.0732166 1.62397e-17)
(0.0791299 0.0937749 1.97869e-17)
(0.0230928 -0.0817952 0)
(0.122624 0.0375068 8.85556e-22)
(0.055369 -0.0929302 0)
(0.0411145 0.0404434 -5.21131e-18)
(0.0749064 -0.118648 1.18395e-17)
(0.0938269 -0.129222 -1.18151e-17)
(0.043349 -0.082027 1.61412e-17)
(0.00733996 -0.0364619 6.85867e-18)
(0.0126517 0.0130276 0)
(0.083882 -0.127277 0)
(-0.00467275 0.00844197 1.39792e-17)
(0.0574839 -0.100192 0)
(0.0602469 -0.0385678 1.98986e-17)
(0.0468639 -0.0918734 0)
(0.0628837 -0.0994157 0)
(0.090864 -0.126546 -1.97058e-17)
(0.110668 0.0372267 1.58212e-17)
(0.0932499 -0.0143785 0)
(0.0979526 0.0631376 5.8733e-22)
(0.0440869 -0.0207408 1.59144e-17)
(0.0831956 0.113017 -3.95201e-18)
(0.158813 -0.146266 -1.56519e-17)
(0.0786803 0.159283 -3.935e-18)
(0.0724707 -0.105899 3.95386e-18)
(0.0788566 0.137957 -3.15315e-17)
(0.0661928 -0.108944 1.97712e-17)
(0.1324 -0.0412652 0)
(0.0549008 -0.0964604 0)
(0.0863041 0.0709624 0)
(0.128642 0.0234368 0)
(0.0942931 -0.0984732 -3.94548e-18)
(0.0568343 -0.102611 -3.96024e-18)
(0.0902024 -0.101572 3.94867e-18)
(0.157313 -0.135222 -1.56708e-17)
(0.0898723 -0.0179955 -1.58926e-17)
(0.0526704 0.10392 3.20409e-17)
(0.0642316 -0.102521 -3.9594e-18)
(0.0537034 -0.0944967 0)
(0.0553623 -0.107402 3.99095e-18)
(0.0979579 -0.108334 0)
(0.0933531 -0.102784 -1.57928e-17)
(0.041404 -0.0680918 1.2077e-17)
(0.0737219 -0.109925 3.95296e-18)
(0.0718824 -0.0329362 3.97324e-18)
(0.169266 -0.10437 1.56656e-17)
(0.0952234 -0.112295 -3.94478e-18)
(0.0809498 -0.103307 -2.76361e-17)
(0.0939872 -0.130497 -1.18139e-17)
(0.0475963 -0.1449 1.19089e-17)
(0.104024 0.0819524 -7.58728e-18)
(0.0365818 -0.0852277 -2.0076e-17)
(0.142174 -0.0466832 0)
(0.0561636 -0.11516 -3.95231e-18)
(0.0807414 0.150938 3.93663e-18)
(0.0897889 -0.12292 -3.94071e-18)
(0.0659599 -0.112636 -1.18592e-17)
(0.11042 0.0670543 -1.57141e-17)
(0.0854889 0.12915 0)
(0.104252 -0.0430117 0)
(0.0484614 -0.0888402 -4.01008e-18)
(0.165839 -0.0655361 -3.537e-17)
(0.120528 0.0383525 -1.58057e-17)
(0.0661266 -0.121521 3.94685e-18)
(0.0691882 0.144453 -3.93913e-18)
(0.139636 -0.118914 -1.57085e-17)
(0.0969245 -0.126443 3.93943e-18)
(-0.131829 0.00276543 -2.23868e-19)
(0.0904589 0.110373 0)
(0.0959631 -0.131422 1.18138e-17)
(0.0706687 0.152955 1.9695e-17)
(0.173318 -0.0504691 0)
(0.0814022 -0.110363 1.57901e-17)
(0.111251 0.0633778 7.97211e-18)
(0.175477 -0.0778466 1.96158e-17)
(-0.119155 -0.0516658 0)
(0.163995 -0.0960469 1.17753e-17)
(0.0752353 0.172516 -1.57596e-17)
(0.17173 -0.0737082 -3.93219e-18)
(0.145744 -0.13224 -1.90934e-21)
(0.0924435 0.110652 -1.18585e-17)
(0.109251 0.0670717 1.19375e-17)
(0.146261 -0.112582 -1.96344e-17)
(0.0342564 0.034061 -3.98028e-18)
(0.0911723 -0.125767 -3.9408e-18)
(0.0753744 0.15894 0)
(0.0782997 0.159416 1.57495e-17)
(0.165773 -0.121735 0)
(0.116563 -0.134863 1.17935e-17)
(-0.12342 0.0200853 1.42267e-17)
(-0.108333 0.0675638 0)
(0.0790281 -0.0323251 -1.58219e-17)
(0.0836094 -0.165525 0)
(0.0846808 -0.0843048 3.17617e-17)
(0.171513 -0.100913 0)
(-0.131056 0.050434 -1.51828e-17)
(0.0731533 -0.162257 1.96969e-17)
(0.154565 -0.0858644 -1.18648e-17)
(0.159251 -0.110925 5.5747e-22)
(0.115488 -0.125728 3.93121e-18)
(0.0821127 0.133504 -1.96542e-17)
(0.16653 -0.0457726 1.58547e-17)
(0.106981 0.0668196 1.58072e-17)
(-0.0372653 0.0305721 -8.83308e-18)
(0.0523217 0.00343594 1.50109e-17)
(-0.0274759 -0.0217566 9.95084e-19)
(-0.00231783 0.00696883 1.89569e-18)
(0.00499452 0.00584035 -1.62437e-22)
(-0.0118708 -0.00353285 -3.24293e-17)
(0.00994755 0.0132774 0)
(0.0733334 -0.0267972 -1.39449e-17)
(-0.0421396 -0.0170685 -2.33791e-17)
(-0.0576076 0.130745 -4.11545e-17)
(-0.0389022 -0.0229708 -1.58718e-17)
(0.0880632 -0.0104912 0)
(-0.0191062 0.0281245 2.32679e-17)
(-0.0151316 -0.0145892 1.60181e-17)
(-0.0397989 0.0199699 1.73166e-17)
(0.0473348 0.000778888 0)
(0.0904566 -0.124271 1.18232e-17)
(-0.0258815 -0.00304725 -2.4681e-17)
(0.0189108 -0.0141655 0)
(0.119616 -0.112202 -3.93405e-18)
(-0.0803792 0.0109304 0)
(0.136788 -0.0998372 -1.1802e-17)
(0.124132 -0.123236 3.93178e-18)
(-0.115019 -0.0332993 0)
(0.021832 0.00981165 0)
(0.0785543 -0.11755 3.94523e-18)
(0.0760529 0.145057 -1.57521e-17)
(0.0873261 0.122563 -3.95095e-18)
(0.161024 -0.127367 1.17549e-17)
(0.0523513 0.111228 -2.76669e-17)
(0.0611419 -0.146109 3.97186e-18)
(0.0634828 0.228037 -1.16124e-17)
(0.0729058 -0.0352872 0)
(-0.0797595 0.0741081 -3.63218e-21)
(0.146008 -0.157751 1.9571e-17)
(0.0578324 -0.0950953 -3.97167e-18)
(0.0700351 0.201678 2.04096e-21)
(0.0739117 0.171839 -1.16923e-17)
(0.0647407 -0.0789338 -4.00107e-18)
(0.077277 0.186893 3.1387e-17)
(0.0289922 0.0216414 1.45546e-17)
(0.0211964 0.0331854 3.58436e-17)
(0.0795931 0.225066 -1.94338e-17)
(0.137564 -0.149766 -1.17616e-17)
(0.126126 -0.10877 1.96712e-17)
(0.0695196 -0.0427721 -3.18227e-17)
(-0.0884386 0.0134743 1.58529e-17)
(0.0938668 -0.114113 -1.9714e-17)
(0.141171 -0.0915828 1.57818e-17)
(0.157955 -0.0692818 -6.89222e-24)
(0.135355 -0.0281497 0)
(-0.0552448 0.102584 2.67873e-17)
(0.0578361 0.123954 1.18539e-17)
(0.168263 -0.0230767 1.60423e-17)
(0.0543015 0.207689 3.09523e-17)
(0.106512 -0.170094 1.57051e-17)
(0.141809 0.162243 3.926e-18)
(0.0968904 -0.185915 -1.1785e-17)
(0.0806456 -0.117511 -1.5783e-17)
(0.108931 -0.115065 3.93581e-18)
(0.109245 -0.0396633 0)
(0.108959 0.0443023 -3.94795e-18)
(0.0839973 -0.158566 -3.93428e-18)
(-0.0703379 0.0392684 -1.58541e-17)
(0.0654199 -0.0681342 3.17099e-17)
(0.0316777 0.019645 -1.47617e-17)
(0.106826 0.125142 -1.18154e-17)
(0.0737449 0.209269 -1.56706e-17)
(0.103814 0.194561 -1.17376e-17)
(-0.143227 0.0294535 3.93853e-18)
(0.0255441 0.206526 1.13836e-17)
(0.102775 0.0811458 1.58164e-17)
(-0.153279 0.0366562 7.73954e-18)
(-0.125555 0.0275177 0)
(-0.00206885 -0.00118324 -8.52275e-18)
(0.0166361 0.015387 -2.71513e-17)
(-0.00382796 0.0070846 3.22749e-17)
(-0.0522305 0.0138874 3.69873e-18)
(0.108005 -0.119197 -1.57494e-17)
(0.108535 -0.104723 3.94117e-18)
(-0.00554187 0.00177042 0)
(-0.102987 0.019181 -3.26421e-17)
(0.0340947 0.0252285 0)
(0.0988938 0.230628 -1.95204e-17)
(-0.0836966 -0.0474641 1.58429e-17)
(0.121976 -0.0930601 1.57578e-17)
(0.0706745 -0.130762 -1.57793e-17)
(-0.0230472 0.10679 1.96713e-17)
(-0.0734623 -0.0243927 -1.5859e-17)
(0.114454 -0.182486 0)
(-0.0704284 -0.103365 -3.16801e-17)
(0.0501622 0.223991 -1.87925e-17)
(0.0991898 -0.167705 1.96843e-17)
(0.0327287 0.0871855 1.58651e-17)
(0.121516 -0.150283 -1.17777e-17)
(0.12133 -0.0859413 0)
(0.119888 -0.00504827 3.95009e-18)
(0.155378 0.135214 -7.8456e-18)
(0.087167 -0.130417 -3.94051e-18)
(0.136365 0.184079 1.1769e-17)
(0.116755 0.0800197 0)
(0.168918 0.00641154 1.73429e-17)
(0.117829 -0.0972147 -1.96961e-17)
(0.112633 0.157886 3.53408e-17)
(0.130809 -0.078862 0)
(0.0962145 -0.0723111 7.87864e-18)
(0.102538 -0.109745 0)
(0.124092 -0.151149 3.92135e-18)
(0.0852459 -0.0862369 -1.97529e-17)
(0.0703477 0.118709 -1.36262e-17)
(0.0893747 -0.12248 1.18239e-17)
(0.111117 -0.0805912 0)
(0.100353 -0.0933575 -2.07919e-17)
(0.068515 -0.0201296 1.59314e-17)
(0.0946898 -0.120546 -3.94116e-18)
(0.162634 -0.0183575 -1.72573e-17)
(0.0908637 0.192704 -1.56911e-17)
(-0.100284 -0.0465619 -4.00495e-18)
(0.108376 0.220562 0)
(0.0623737 -0.0970973 0)
(0.106173 -0.159467 -3.92566e-18)
(0.10408 -0.129417 0)
(0.0970264 -0.129884 1.96917e-17)
(0.0419402 -0.0813972 0)
(0.103966 -0.141116 3.93583e-18)
(0.0791838 0.190017 0)
(0.138722 -0.151205 1.17508e-17)
(-0.0370084 -0.0329304 0)
(0.101637 -0.123434 1.57494e-17)
(0.0882097 0.239874 3.89783e-18)
(0.0879894 0.149921 2.75912e-17)
(0.106663 -0.135038 -1.96574e-17)
(0.0796958 -0.132837 0)
(0.0744902 0.231895 0)
(0.0849178 0.0410568 1.55415e-17)
(0.104971 -0.0892659 2.43709e-17)
(0.115935 -0.0750406 0)
(0.0669203 -0.104008 0)
(0.0856066 0.203688 2.72985e-17)
(0.138423 0.0690966 1.57336e-17)
(0.070649 0.0860576 -4.0292e-18)
(0.0928677 0.0344001 0)
(0.0611258 0.117583 1.58227e-17)
(0.158316 0.11692 7.84888e-18)
(0.0700971 0.0967923 -3.95758e-18)
(-0.0155794 0.011102 0)
(0.0621626 0.229668 3.89386e-18)
(0.0428479 0.0542803 -7.13244e-18)
(0.0745296 0.141304 0)
(0.0828826 0.214183 0)
(0.124385 0.161984 -7.86293e-18)
(0.0878197 -0.139995 3.9398e-18)
(0.105864 0.185883 -7.85239e-18)
(-0.0643524 -0.0827726 3.96503e-18)
(0.0929488 -0.0771359 7.8592e-18)
(0.026861 -0.0397075 7.44476e-18)
(0.0881277 0.210305 0)
(0.0964674 0.226361 7.81644e-18)
(0.0932336 0.179555 -7.97694e-22)
(0.0845038 0.127997 3.94232e-18)
(0.0618904 -0.0361754 0)
(0.103547 0.214266 3.91042e-17)
(0.0853171 -0.110479 1.97284e-17)
(0.0759758 0.164828 -3.93279e-18)
(0.0639129 0.0573144 -1.17988e-17)
(0.0823574 0.230969 0)
(0.0715826 -0.101917 -2.05258e-17)
(0.0794659 -0.0910836 2.78553e-17)
(0.0941203 -0.137727 -3.93509e-18)
(0.0907318 -0.10517 3.94618e-18)
(0.0401186 -0.0680274 1.68994e-17)
(0.108829 0.165732 -2.35658e-17)
(0.124314 -0.000741533 0)
(0.136713 -0.0321314 -1.97676e-17)
(0.0540868 0.0954948 0)
(0.125209 -0.175701 -1.56623e-17)
(0.0742787 0.163314 3.53914e-17)
(0.0990019 0.078736 4.35769e-22)
(-0.0494683 -0.133441 1.57853e-17)
(0.154183 0.0892342 1.96432e-17)
(-0.0998129 -0.0840157 0)
(0.121592 -0.162603 -3.92574e-18)
(0.141394 -0.167501 1.17457e-17)
(0.132138 -0.0490347 0)
(0.00637507 0.0586355 4.1885e-18)
(0.0425464 0.0643352 1.58858e-17)
(0.0920852 -0.132425 -1.18117e-17)
(-0.0599656 -0.0398167 0)
(0.119952 0.205526 0)
(0.0812185 0.177352 0)
(0.00395663 -0.000242704 0)
(0.0969791 -0.13322 1.57513e-17)
(0.0663212 0.118792 2.00208e-17)
(-0.0302316 -0.153437 -1.58468e-17)
(0.0683197 0.117676 -3.94981e-18)
(0.0175898 0.0490973 -1.59152e-17)
(0.135544 -0.1366 1.17693e-17)
(0.0244188 0.0777229 0)
(-0.0989556 -0.0771784 3.95251e-18)
(0.00332173 -0.0228466 3.5908e-17)
(0.0811379 0.0569812 0)
(0.115541 0.216846 -1.95699e-17)
(0.0298505 -0.0333497 -3.98055e-18)
(0.0208206 0.0452033 -1.1939e-17)
(0.10857 0.0241602 0)
(0.144929 0.126584 -2.86499e-21)
(0.0639001 0.133259 -3.15511e-17)
(0.0969768 0.0931714 -4.01901e-18)
(-0.0187777 -0.150699 0)
(0.0625103 -0.0293001 0)
(0.040486 -0.0829222 -1.30962e-17)
(-0.02543 -0.14081 -4.80805e-21)
(0.0804687 0.18425 -1.57038e-17)
(0.12251 0.197635 -1.17438e-17)
(0.0628297 0.0800342 -1.58553e-17)
(0.0632176 -0.101953 0)
(0.02498 0.0634632 1.85569e-17)
(0.127616 0.137023 7.93918e-18)
(0.0679606 0.0616919 1.56845e-22)
(0.0307441 0.083462 -4.04023e-18)
(0.133345 -0.0322739 0)
(-0.0465854 -0.0397011 -2.77574e-17)
(-0.119346 -0.0767226 -3.18552e-17)
(-0.0155859 0.00697235 0)
(0.00200599 0.0244853 1.59515e-17)
(0.0526516 0.0796788 1.58571e-17)
(0.0956699 -0.120962 0)
(0.0399256 -0.0323738 -1.59216e-17)
(-0.0788617 -0.120678 -1.57757e-17)
(-0.0989734 -0.0998571 1.62748e-17)
(0.121168 -0.0123749 1.18789e-17)
(-0.0107863 0.00964185 0)
(0.0544892 -0.0271261 -1.56562e-17)
(0.0322813 0.0610618 -1.58864e-17)
(0.101226 0.1213 4.02424e-18)
(-0.0534896 -0.145117 0)
(0.0865727 0.0209659 0)
(0.089535 0.105404 -1.18567e-17)
(-0.0663043 -0.118547 1.58304e-17)
(0.0130152 0.0406687 -3.97954e-18)
(2.00444e-05 0.0220906 0)
(0.0649784 -0.0127913 0)
(0.151182 -0.12911 -2.74156e-17)
(0.139962 0.101734 -3.92709e-18)
(0.041921 -0.0622298 4.2536e-18)
(0.062944 0.116962 1.97515e-17)
(0.141458 0.160402 1.17698e-17)
(0.152022 0.120469 -2.7459e-17)
(0.0454478 0.0493039 -1.98686e-17)
(0.0690398 0.0279285 -1.5881e-17)
(0.101144 -0.00133384 1.98284e-17)
(0.0595232 0.0476992 3.57293e-17)
(0.13039 0.145699 1.17836e-17)
(0.130994 0.177064 -1.17615e-17)
(-0.00291603 -0.0201651 -4.06148e-18)
(0.098196 -0.13146 0)
(0.0535993 0.094779 -3.16787e-17)
(0.148105 0.0206594 -1.57364e-17)
(-0.00401415 0.0244579 -1.59462e-17)
(-0.080214 -0.0869587 1.58284e-17)
(0.0663016 0.137471 -1.57737e-17)
(0.138034 -0.00283136 0)
(0.135669 -0.0496886 0)
(0.0239213 -0.0793042 0)
(0.14329 -0.0916226 1.57172e-17)
(0.0922635 -0.0442149 0)
(0.0149468 -0.0301569 -1.19605e-17)
(0.0124912 0.0427655 0)
(0.00853026 -0.0266282 0)
(0.0968762 -0.0359921 0)
(0.0997321 -0.0449673 -3.95974e-18)
(0.000485174 0.0280079 0)
(0.0956159 -0.120582 1.57649e-17)
(0.14318 -0.0133687 -3.94226e-18)
(0.13143 -0.0397259 0)
(0.0594991 -0.0124479 -2.01243e-17)
(-0.0224815 -0.0895166 -1.59515e-17)
(0.0415767 -0.0363067 0)
(0.151892 -0.0614062 3.92967e-18)
(0.0624264 -0.0568607 0)
(0.0207995 -0.0611974 1.20833e-17)
(0.0632918 -0.0393381 0)
(0.106756 -0.0310865 0)
(-0.00685548 -0.0772 -1.59923e-17)
(0.110893 -0.0449185 0)
(0.0930613 -0.0129996 -1.58721e-17)
(0.0743044 -0.0415966 3.9707e-18)
(-0.0479706 -0.0716008 0)
(0.159287 0.106226 1.17848e-17)
(0.0732185 -0.0316394 3.97131e-18)
(0.095549 -0.0142875 0)
(0.041908 -0.012506 -1.08432e-17)
(0.175357 -0.0392752 -1.96858e-17)
(-0.0439923 -0.116555 3.00442e-21)
(0.162244 -0.0524307 -1.57833e-17)
(0.0922617 -0.0380057 1.58638e-17)
(0.107796 -0.0306788 -1.58469e-17)
(0.0280739 0.0743095 0)
(0.104956 -0.0452615 -1.19013e-17)
(0.142993 -0.0456599 0)
(0.175214 -0.0140834 -1.57804e-17)
(0.0711424 -0.00579784 0)
(0.028743 0.0657473 3.96937e-18)
(0.158528 -0.0338888 3.95279e-18)
(0.041105 0.017022 0)
(0.155423 -0.0439528 3.94794e-18)
(-0.0076389 -0.0214307 1.39382e-17)
(0.098089 -0.0374527 1.18842e-17)
(0.0716502 0.0684293 0)
(0.0507012 0.108363 -1.18624e-17)
(-0.0331737 -0.0652485 0)
(0.0198117 -0.0280897 0)
(-0.000545152 -0.024658 -1.43608e-17)
(0.143682 -0.0484082 0)
(-0.00383977 -0.0382285 0)
(0.00406805 0.0484608 -4.1495e-18)
(0.0526426 -0.0241729 2.00235e-17)
(0.164985 -0.0496123 -1.57874e-17)
(0.0468901 0.0907199 -1.58399e-17)
(0.0153371 -0.0645626 1.66299e-17)
(0.0663576 -0.0367411 1.61484e-17)
(0.169091 -0.0578609 0)
(0.0601 -0.0168887 -3.97647e-18)
(0.0429586 -0.0278358 0)
(0.00884355 0.0231233 -8.26448e-18)
(0.162252 -0.0545088 4.4116e-22)
(0.140678 -0.0148715 0)
(0.170929 0.00921725 -2.0035e-17)
(0.0333359 -0.0315774 0)
(0.146859 -0.0451616 -3.95537e-18)
(0.0568006 -0.0420443 1.26063e-17)
(0.0109566 -0.0533046 1.60326e-17)
(0.166661 -0.0484916 1.57814e-17)
(0.0347762 0.0762031 1.19062e-17)
(0.035685 -0.0197113 -6.66959e-18)
(0.0522074 0.10574 3.16512e-17)
(0.163784 -0.0526408 1.57767e-17)
(0.134393 -0.049444 -3.95239e-18)
(0.146258 -0.0544705 0)
(0.148553 0.00532949 0)
(0.0640514 0.112679 1.6006e-17)
(0.0355269 0.0719154 1.19082e-17)
(0.173383 0.012045 2.00248e-17)
(0.0394352 -0.00599249 -3.97331e-18)
(0.058943 0.0136038 0)
(0.0235275 0.00383687 0)
(0.163242 0.01134 0)
(0.0103982 -0.0123791 -1.60155e-17)
(0.0636779 -0.0215411 0)
(0.0595648 0.106996 -1.62813e-17)
(-0.014685 -0.0212744 2.82204e-17)
(0.1305 0.0229055 3.15949e-17)
(0.0126072 -0.0187794 -1.59649e-17)
(0.175239 -0.0108594 0)
(0.00313471 -0.00693767 -1.59802e-17)
(0.0478757 0.0997591 0)
(0.161725 -0.0548769 0)
(0.147268 -0.00390398 0)
(0.0999924 0.0459269 1.19949e-17)
(0.0305675 0.0693408 0)
(0.0175839 -0.0781797 0)
(0.0347419 0.0814349 0)
(0.0781054 0.0380985 0)
(0.0474738 -0.0897538 -4.01059e-18)
(0.0379578 0.0674592 0)
(0.169571 -0.0357493 1.9655e-17)
(0.159527 -0.0249007 -3.95418e-18)
(0.0340228 0.0788501 0)
(0.00233138 0.0167352 -1.59627e-17)
(0.0546161 0.116461 -3.95386e-18)
(0.0202515 -0.0062581 4.13741e-18)
(0.108833 -0.0411732 0)
(0.0667383 0.0288537 -1.54802e-17)
(0.133308 0.00358106 -1.58839e-17)
(0.0131808 0.0547352 4.05549e-18)
(0.0912594 0.03543 -1.1972e-17)
(-0.00880301 0.00348636 2.0354e-17)
(0.0450375 -0.0206764 -1.59631e-17)
(0.15186 -0.00502017 0)
(0.0055293 -0.0438401 0)
(0.00942629 -0.0166034 0)
(0.0602873 0.111159 0)
(0.0987414 0.0686876 -1.19652e-17)
(0.0713486 0.0324103 -3.99886e-18)
(0.123306 0.0226584 1.5896e-17)
(-0.00480611 -0.0160235 9.58754e-18)
(-0.0085946 0.00282969 -4.03014e-18)
(0.0123188 0.0104225 1.66821e-17)
(0.14949 -0.0183072 0)
(0.0816805 0.0747699 -1.26856e-17)
(0.0291853 0.00338759 3.98753e-18)
(0.162705 0.0428948 0)