/*--------------------------------*- C++ -*----------------------------------*\
  =========                 |
  \\      /  F ield         | OpenFOAM: The Open Source CFD Toolbox
   \\    /   O peration     | Website:  https://openfoam.org
    \\  /    A nd           | Version:  9
     \\/     M anipulation  |
\*---------------------------------------------------------------------------*/
FoamFile
{
    format      ascii;
    class       volVectorField;
    location    "1.92";
    object      U;
}
// * * * * * * * * * * * * * * * * * * * * * * * * * * * * * * * * * * * * * //

dimensions      [0 1 -1 0 0 0 0];

internalField   nonuniform List<vector> 
942
(
(0.0215669 -0.0696837 0)
(0.00331899 0.0371331 2.48793e-17)
(0.0410109 0.109383 0)
(0.00946267 -0.0788101 -1.31562e-17)
(0.0414004 0.120141 7.89309e-18)
(0.0386097 -0.0320167 1.3912e-17)
(0.00770881 -0.0109446 3.65873e-17)
(0.0469125 -0.0359778 0)
(0.00408675 -0.0484561 -2.88146e-17)
(0.0049311 -0.0530976 2.9371e-17)
(0.0830701 0.0392082 0)
(0.0955707 -0.05151 0)
(0.00899067 -0.0801864 1.22695e-17)
(0.0803216 0.0748542 0)
(0.109464 -0.0538108 0)
(0.0163048 0.0255949 -2.70563e-17)
(0.0310601 -0.0302999 -1.06608e-17)
(0.0186744 -0.069603 0)
(0.0570361 0.019135 -3.18913e-18)
(-0.0421832 -0.0113609 4.87549e-18)
(0.0376204 -0.0374536 1.81258e-17)
(0.0949659 -0.0563204 1.45776e-17)
(0.0136423 -0.0254565 0)
(-0.00515137 -0.0283747 -2.89112e-17)
(0.0874273 0.0272561 0)
(-0.00846269 -0.0363052 2.17237e-17)
(0.0438786 0.113242 0)
(0.0155758 -0.0344558 1.84455e-17)
(-0.0116561 -0.0294221 0)
(0.0145219 -0.05097 1.16489e-17)
(-0.0142084 -0.0317208 1.46434e-17)
(0.036902 0.105317 0)
(-0.00823912 -0.0229802 1.37896e-17)
(-0.0655523 0.0507621 1.61475e-17)
(0.0478358 0.0975218 -1.58628e-17)
(0.0177016 -0.016182 3.04385e-17)
(0.0354319 -0.0531073 1.0275e-18)
(0.00542903 -0.0411594 0)
(0.034913 -0.0550435 -5.24748e-19)
(-0.00508388 -0.0215204 2.06374e-17)
(-0.0859472 0.00117018 -2.88491e-17)
(0.0437604 -0.0827009 0)
(0.00132415 -0.00315616 -1.42689e-17)
(0.0105997 -0.0183902 -1.21977e-17)
(0.0104697 -0.015425 -3.0857e-17)
(0.035357 0.00464555 6.97579e-18)
(0.0733802 0.0319871 -1.40929e-17)
(-0.0573358 0.0622207 -1.33034e-17)
(-0.103739 -0.00198884 1.48377e-17)
(0.0904389 0.0748823 1.73071e-17)
(0.0768377 0.00853293 0)
(0.00624711 -0.0116173 0)
(0.0124061 -0.00914197 -2.05242e-17)
(0.00192531 -0.0309648 1.6372e-17)
(0.00505127 -0.0656398 0)
(-0.0421065 -0.0661134 -1.08529e-17)
(0.0320914 0.000128379 -2.74183e-17)
(0.00634757 -0.0687552 -1.96783e-18)
(0.0413616 -0.00146388 3.51244e-17)
(0.0719319 0.129301 1.51481e-17)
(0.0110678 -0.0378087 -1.44807e-17)
(0.0462468 0.103625 -3.73229e-17)
(-0.032286 0.0627919 1.73592e-17)
(0.0218521 -0.063534 -1.41923e-17)
(0.00744075 -0.0418226 1.34583e-17)
(0.0582282 0.0106864 1.03476e-17)
(0.0392999 0.0954343 2.91825e-17)
(0.039474 0.0784271 -1.33218e-17)
(-0.0539234 -0.0343314 1.37541e-17)
(0.0220467 -0.0419467 3.7829e-18)
(-0.0101576 0.0326539 0)
(0.00590404 -0.0334642 0)
(0.0153245 0.00929575 -1.79606e-18)
(0.0139951 -0.0572361 3.49282e-18)
(0.00049209 -0.0321281 -1.55135e-17)
(-0.061942 -0.0139137 5.81979e-22)
(-0.0568401 -0.00652529 1.79671e-18)
(0.0406066 0.086735 1.61221e-17)
(-0.00833038 -0.0206472 -1.75248e-17)
(0.0324941 0.0293568 -3.54187e-18)
(0.0165749 -0.0174453 2.09927e-17)
(-0.0126819 -0.0358285 -7.5628e-18)
(0.0466516 -0.00750093 -1.90838e-18)
(0.0402051 0.0151145 7.79403e-18)
(0.0573756 -3.90759e-05 0)
(0.0313366 0.125442 0)
(0.0504027 0.117734 -1.5845e-17)
(0.0883768 -0.0287604 4.38003e-18)
(0.0830145 0.088378 0)
(0.0453198 -0.0236067 2.18175e-17)
(0.0401937 -0.102761 -1.10966e-17)
(0.0234373 0.0449471 5.03233e-19)
(0.00633669 -0.0748995 2.21441e-18)
(-0.0414642 -0.0754889 0)
(-0.0168031 -0.0635193 -4.28719e-18)
(-0.0265191 -0.0210441 7.91535e-18)
(0.0311067 -0.0724152 1.36252e-17)
(0.0823307 -0.0220679 -1.27192e-17)
(0.0266071 -0.0294204 -1.89303e-17)
(0.00702768 -0.0328492 -2.70326e-17)
(0.0096285 -0.0330339 -8.12484e-18)
(0.00545159 -0.0769619 9.1684e-18)
(0.0835135 0.0192394 0)
(0.0208624 -0.0364312 1.04075e-17)
(2.2428e-05 -0.0846776 -1.64205e-17)
(0.00979437 -0.0307479 -2.65343e-17)
(0.0349895 0.00246368 -9.37362e-18)
(0.0139901 -0.00901822 0)
(-0.00760296 0.0557508 1.44308e-17)
(0.0473108 0.0566587 0)
(-0.0180064 -0.031548 0)
(-0.0700753 -0.0241764 -1.45262e-17)
(0.0555591 0.0988146 2.89144e-17)
(0.00561747 -0.0376992 0)
(0.0930017 0.0545684 0)
(0.0127822 0.0233885 1.96282e-18)
(0.0886828 0.105069 -1.55639e-17)
(0.0124023 -0.0775553 1.66256e-17)
(0.0039071 -0.0161726 4.70003e-23)
(0.0551096 0.0325177 -1.90756e-18)
(0.0051661 -0.0149244 6.33181e-18)
(0.0115735 -0.020718 -1.6363e-17)
(0.000726525 0.00167794 0)
(0.00550396 0.00903695 1.44105e-17)
(0.0225772 0.00489139 1.16678e-17)
(-0.0062259 -0.0311402 -3.10874e-17)
(0.00277125 -0.00472389 1.64191e-17)
(0.00397161 -0.00167514 -1.57e-17)
(0.0127105 0.00339015 2.86937e-17)
(0.00718276 -0.00816409 1.49885e-17)
(0.0627311 0.0270709 -7.70054e-18)
(0.0562034 0.0322264 -1.78288e-17)
(0.0701597 0.0238831 0)
(-0.0944128 0.0342798 0)
(-0.0219161 0.037788 -1.60213e-17)
(0.0465764 0.0266526 -1.11421e-17)
(-0.0153847 -0.00501931 9.75092e-19)
(0.0388107 0.0337527 0)
(-0.0684863 0.00269183 1.9884e-17)
(-0.126538 0.0160143 -6.77623e-18)
(-0.136679 0.0248146 1.59436e-17)
(0.0281254 0.014872 0)
(0.0795863 0.0922667 -1.59097e-17)
(0.000109874 -0.0194988 1.72667e-17)
(0.0408381 -0.028275 -4.02634e-18)
(-0.0109243 -0.0269138 -7.30793e-18)
(0.0164406 -0.0327864 0)
(0.00741335 -0.0388518 -9.66122e-18)
(0.0267707 -0.0343049 2.43888e-17)
(0.0367629 0.130056 0)
(0.0493011 -0.0323268 4.35269e-18)
(0.0849892 0.094166 4.7842e-18)
(0.0409718 0.0760135 0)
(0.0244989 -0.0369083 9.0494e-18)
(0.0410894 0.0804319 -1.57754e-17)
(0.0304596 -0.0498301 0)
(0.0623906 -0.00195733 1.77511e-17)
(0.00183289 -0.015966 0)
(0.0850378 0.126239 0)
(-0.0417344 -0.0148004 6.57182e-18)
(0.0865581 0.00350542 -2.29239e-17)
(0.0254983 -0.0410841 0)
(0.00646409 -0.0768156 0)
(0.0518549 -0.0311606 8.10736e-18)
(0.0612846 0.0990558 0)
(0.0602209 0.0831691 -2.40115e-17)
(0.0118514 -0.0372152 0)
(0.0263209 -0.0450683 0)
(0.022759 -0.0154252 1.4239e-17)
(0.0739091 0.0477169 1.68865e-17)
(-0.0118652 0.0809348 -1.40607e-17)
(-0.0894223 -0.0238742 -1.86425e-18)
(-0.00731793 -0.0307155 2.28434e-22)
(0.014208 -0.0361978 9.09844e-18)
(0.0335163 0.140183 0)
(0.0220372 -0.0611469 -1.76609e-17)
(-0.0318695 -0.0298553 -1.67464e-17)
(0.0202141 -0.0625905 0)
(-0.0236815 -0.0927718 5.7878e-19)
(0.0271834 -0.0639854 0)
(0.0192735 -0.0302448 -1.06245e-17)
(-0.00782116 -0.0283785 0)
(0.0319704 -0.0427994 -2.08514e-17)
(0.0251498 -0.0658376 2.34048e-22)
(0.0160779 -0.065565 -1.05183e-17)
(-0.0153367 -0.0383421 0)
(0.111796 0.0459216 -8.28446e-18)
(0.0347271 0.0782099 1.66268e-17)
(0.0454555 0.143651 2.36119e-17)
(0.0306721 -0.0679225 7.95368e-18)
(0.0660103 0.133677 3.18625e-17)
(0.0326147 -0.0662105 -7.9713e-18)
(0.018115 -0.0484278 -1.01013e-17)
(-0.00896739 -0.0205508 -1.53077e-17)
(0.03089 0.0633451 8.41977e-18)
(0.0111164 -0.078672 -7.57125e-18)
(0.0336802 0.0639635 0)
(0.0177864 -0.0538121 2.70621e-17)
(-0.0843541 0.0229696 -1.94737e-17)
(0.0012323 -0.00618141 1.47485e-17)
(0.000790016 -0.00998523 0)
(0.0139747 -0.0784633 7.68613e-18)
(0.0143742 0.0258604 0)
(0.0206141 -0.0319935 -1.78804e-17)
(0.0850241 0.0685684 1.68483e-17)
(-0.0611027 -0.0584977 0)
(-0.00259248 -0.0466051 1.68601e-17)
(0.0469667 0.110901 -3.66367e-17)
(0.00219713 -0.00757255 -1.42484e-17)
(-0.000152496 -0.024291 1.40958e-17)
(0.0384924 0.0801659 -8.16549e-18)
(0.0151003 -0.075422 3.48449e-22)
(0.00789434 -0.0587359 1.30479e-17)
(0.0575228 0.124976 7.76149e-18)
(0.00674314 0.00477531 0)
(0.024885 -0.0766448 -8.31033e-23)
(0.0467741 0.149031 -1.93891e-17)
(0.0733803 0.13569 1.62851e-17)
(0.0416065 0.0836128 1.61831e-17)
(0.0360128 0.0681965 -1.47188e-22)
(0.0296129 -0.0750781 0)
(0.0233705 -0.0766498 -1.56344e-17)
(0.0358236 -0.0690539 0)
(0.0200454 -0.0767907 0)
(0.0017324 -0.00957848 -1.63238e-17)
(0.0128251 0.0441156 1.62272e-17)
(0.0620431 0.128581 -1.14336e-17)
(0.0339882 -0.0726136 -1.60628e-17)
(0.00219472 -0.00784352 2.39273e-17)
(0.0226651 0.0353385 0)
(-0.0155563 -0.0345202 -1.4936e-17)
(0.0533241 0.12249 -2.86512e-17)
(0.0132355 0.0314084 1.57214e-17)
(0.00297054 -0.00901608 -8.60164e-18)
(0.0279534 -0.0761836 -8.07938e-18)
(0.0129819 -0.0722691 2.79213e-22)
(0.0714387 0.135413 -1.68958e-17)
(0.0327356 -0.0747097 1.61371e-17)
(0.0122515 0.0183711 -1.55205e-17)
(0.044114 0.0871493 1.60147e-17)
(0.0386032 0.0723922 0)
(0.0266263 -0.0423473 -3.93644e-18)
(0.0383173 -0.072696 7.9581e-18)
(0.0204172 -0.0531611 -8.9953e-18)
(0.02544 -0.0561186 -1.59176e-17)
(0.0124468 0.0224747 -1.61244e-17)
(0.037751 -0.0697315 8.00828e-18)
(0.0230512 -0.0765186 -8.67858e-18)
(0.0370776 -0.0724692 -1.60689e-17)
(0.0160568 0.0279295 3.96911e-18)
(0.0653988 0.135792 -4.02523e-18)
(-0.0400796 -0.049201 -1.48102e-17)
(0.0677201 0.135264 0)
(0.00502148 0.0124446 1.19885e-17)
(0.0308808 -0.0592008 1.58141e-17)
(0.0179436 -0.0749842 1.75756e-17)
(0.0362894 -0.0727298 0)
(0.0376413 -0.0672111 0)
(0.0716104 0.116094 -7.97084e-18)
(0.0212948 -0.0496899 8.96059e-18)
(0.0276615 -0.0736371 -7.90605e-18)
(0.0805463 0.122545 7.83551e-18)
(0.0597327 0.120043 -1.96657e-17)
(0.035721 -0.0614104 -4.17991e-18)
(0.0350293 -0.0660934 8.31934e-18)
(0.00676032 -0.049669 0)
(0.026499 -0.0535298 0)
(0.0421232 -0.0672987 0)
(-0.0107412 -0.025668 1.51794e-17)
(0.0411294 -0.069945 8.09876e-18)
(0.0408476 -0.066557 1.53272e-17)
(0.0562448 0.143024 -1.46671e-17)
(-0.0493534 -0.0162426 1.73066e-17)
(0.058668 0.133603 -7.73471e-18)
(0.0512114 0.11031 1.62669e-17)
(0.0790049 0.130771 -1.62056e-17)
(0.00663644 0.00619786 0)
(0.0470885 -0.0560393 0)
(0.0606505 0.123449 -8.01898e-18)
(0.0082525 -0.00920646 -1.66764e-17)
(0.0313923 -0.0568191 0)
(0.0193838 -0.0170039 -1.37144e-18)
(0.0150278 -0.0209163 1.69275e-17)
(0.0479702 -0.0605355 0)
(0.0753561 -0.0376567 3.15942e-17)
(0.0981158 0.129377 -1.55877e-17)
(0.0438204 -0.0618552 2.37758e-17)
(0.0462055 -0.0664231 1.58065e-17)
(0.0359611 -0.0585024 4.09478e-18)
(0.040143 -0.0623701 4.07028e-18)
(0.066101 -0.0415712 -1.60297e-17)
(-0.0187308 -0.00761152 1.88942e-17)
(0.0810681 0.12377 -7.24698e-18)
(0.0421789 -0.0561169 1.78188e-17)
(0.0407042 -0.0477731 4.50734e-18)
(0.0548877 -0.00921048 -1.44821e-17)
(0.0990681 0.136865 0)
(0.0985866 0.139987 8.08085e-18)
(0.106653 0.12984 7.5151e-18)
(0.0983393 0.114427 0)
(0.113138 0.0278276 0)
(0.0433833 -0.0582292 -8.13437e-18)
(0.13083 0.0194765 -3.65353e-18)
(0.103437 -0.0873332 -2.53959e-17)
(0.119961 0.00549359 -2.5238e-17)
(0.0408516 -0.071852 7.93629e-18)
(0.0690138 -0.120358 -2.51687e-17)
(0.0314739 -0.00860218 0)
(-0.0416957 -0.0191291 -7.30964e-18)
(0.0134037 0.0224415 1.53476e-17)
(0.00375901 -0.00880325 1.24375e-17)
(0.017273 0.00289866 -3.45719e-22)
(0.0103227 -0.00766074 -2.20217e-18)
(-0.00160555 0.00624095 -1.53597e-17)
(0.0497544 -0.0648113 2.41888e-22)
(0.0271185 0.0322292 2.46457e-17)
(0.00614971 -0.00864092 -1.6806e-17)
(0.021164 0.00164054 -9.53396e-23)
(-0.0183399 -0.0194306 -4.34563e-18)
(0.0195568 -0.0110495 0)
(-0.0309215 -0.00272822 -4.49061e-18)
(0.0167172 0.0248217 0)
(0.00323984 -0.00499327 1.76326e-17)
(0.0210194 0.00376051 -3.15141e-17)
(-0.0142087 0.02964 -1.98758e-17)
(0.0930263 0.112274 -1.61214e-17)
(0.0351024 0.0252526 0)
(0.0467838 -0.0629662 -8.20413e-18)
(0.0555282 -0.0748726 0)
(0.0121988 -0.0108704 0)
(0.0721999 -0.0320684 -3.16687e-17)
(0.0440186 -0.064147 -1.39868e-17)
(0.0612478 -0.0598388 7.96791e-18)
(0.123734 -0.0167874 -1.43374e-17)
(0.0577979 -0.0533569 0)
(0.0907901 -0.0289809 1.58219e-17)
(0.0895117 -0.114171 9.06532e-18)
(0.082875 0.00317472 -4.66948e-19)
(0.076166 -0.00406259 0)
(0.0087137 -0.0112369 -1.57562e-17)
(0.12279 0.00397412 2.32043e-17)
(0.00920856 -0.00667182 -1.5975e-17)
(0.0602792 -0.110255 -4.13291e-18)
(0.118589 -0.0240607 -3.9414e-17)
(0.0979732 0.111081 -1.60336e-17)
(0.0545163 -0.0255729 0)
(0.097136 0.0728583 1.63495e-17)
(0.0552581 -0.0660742 1.58912e-17)
(0.0448346 -0.0684225 1.58033e-17)
(0.108512 0.133421 -7.87551e-18)
(0.0972407 -0.0214519 1.58266e-17)
(0.125216 0.127966 1.39675e-21)
(0.0514391 -0.0642517 -4.0394e-17)
(0.140064 0.0855936 -8.29621e-18)
(0.104028 -0.00479632 -1.41111e-17)
(0.0515901 -0.0515136 0)
(0.103281 0.0277959 1.6119e-17)
(0.0480361 -0.0652138 0)
(0.112513 -0.0179727 7.89677e-18)
(0.0347381 -0.00209285 1.5984e-17)
(0.152463 0.0250162 2.02585e-17)
(0.0821734 -0.0601534 0)
(0.121555 -0.0374273 -2.23017e-18)
(0.0441133 -0.0669927 1.34937e-17)
(0.128933 -0.0806771 -1.59982e-17)
(0.138667 -0.0135201 8.36093e-18)
(0.0834932 -0.0558711 -8.08399e-18)
(0.0428836 0.0222202 3.65784e-17)
(0.0883266 -0.121191 2.38754e-17)
(-0.00599038 0.00471616 -4.16566e-18)
(0.0240168 0.0424877 0)
(0.117253 -0.00948973 1.56133e-17)
(0.0495664 0.0154056 -7.94675e-18)
(0.0648855 -0.0772654 -1.53871e-17)
(0.121206 -0.0310941 7.97109e-18)
(0.0952553 0.120621 7.89625e-18)
(0.122996 -0.0168962 7.99288e-18)
(0.0892245 0.0902705 1.6393e-17)
(0.0464989 -0.0691821 7.79761e-18)
(0.11135 0.130922 7.85875e-18)
(0.00241354 0.0068176 1.79532e-17)
(0.00264011 -0.00756867 0)
(-0.0467992 0.0213951 1.60074e-17)
(-0.00157809 -0.0136399 0)
(0.0413584 0.0238825 3.97488e-18)
(0.132528 0.107868 2.48255e-17)
(0.142712 -0.0501015 3.15249e-17)
(0.138146 -0.0534033 2.43973e-18)
(0.0926514 0.0488904 -3.27561e-17)
(0.149664 0.0550394 -3.33139e-17)
(0.0381917 0.0175554 -8.13229e-18)
(-0.0697925 0.00620354 -4.05471e-18)
(0.0565427 -0.047251 0)
(0.128057 0.0398318 1.63158e-17)
(-0.0879574 0.0253919 4.25405e-18)
(0.0683318 -0.0577734 0)
(0.0950149 -0.0713963 1.56566e-17)
(-0.00521393 0.0122997 4.18407e-18)
(0.0288808 0.0172949 8.23553e-18)
(-0.0286435 -0.00790171 -1.04073e-18)
(-0.098396 0.0218283 -7.11792e-18)
(0.0605686 -0.0676934 -2.36428e-17)
(0.122974 -0.0263139 0)
(0.0770947 -0.0536476 7.50893e-18)
(0.105047 -0.116415 0)
(0.104312 -0.0432629 0)
(0.0248026 -0.0333482 0)
(0.101934 0.0043152 0)
(0.069931 -0.0922113 7.89091e-18)
(0.0040162 -0.00464022 2.40605e-17)
(0.0168424 0.0122163 -1.71901e-17)
(0.153165 -0.0255104 7.90954e-18)
(0.0865805 -0.0729433 0)
(0.159731 -0.00985577 2.37224e-17)
(0.138366 -0.0948009 0)
(0.0491916 -0.0684239 -7.95778e-18)
(0.0503698 -0.0674619 7.96842e-18)
(0.0755129 -0.0687389 7.8797e-18)
(0.0880527 -0.0437265 1.58601e-17)
(0.0706226 -0.0713398 7.88629e-18)
(0.0742146 -0.0559461 1.65464e-17)
(0.0944877 -0.102569 -3.17153e-17)
(0.0637834 -0.0497013 0)
(0.0591153 -0.063597 -7.86027e-18)
(0.120178 -0.109935 1.57803e-17)
(0.155233 -0.0389911 -1.5791e-17)
(0.120551 -0.0435189 0)
(-0.00221927 -0.0220429 1.66768e-17)
(0.154829 0.0234705 1.59221e-17)
(0.102994 0.0285551 -2.9491e-17)
(0.10927 -0.0146501 0)
(0.152564 0.0553159 1.59058e-17)
(0.136238 0.00171922 0)
(0.0472998 -0.0344938 0)
(0.0189197 -0.0226 0)
(0.0753596 -0.06127 0)
(0.108023 0.115681 2.36343e-17)
(0.066754 -0.0621443 0)
(0.0810049 -0.0924803 7.95282e-18)
(0.143478 0.0271846 -1.66892e-17)
(0.065713 -0.0662998 7.86798e-18)
(0.106621 -0.0696396 -1.44944e-17)
(0.0760353 0.081513 -1.58911e-17)
(0.126113 0.0652433 0)
(0.0489434 -0.0670982 -1.58256e-17)
(0.158599 5.50587e-05 -2.37359e-17)
(0.112846 -0.0370916 0)
(0.0926529 -0.0508743 0)
(0.0839076 -0.0767345 0)
(0.0546178 -0.0665926 1.5827e-17)
(0.0828892 0.00186462 7.50969e-22)
(0.0649513 -0.0526235 -2.68213e-21)
(0.0229386 -0.0340499 -1.64409e-17)
(0.0587827 -0.0656413 0)
(0.0947217 -0.0391082 0)
(0.102498 -0.0455165 0)
(0.115898 -0.0506114 0)
(0.0255476 0.0586773 0)
(0.0534827 -0.0667451 -7.92988e-18)
(0.0698119 -0.0502017 -1.61423e-17)
(0.134236 0.10012 2.37124e-17)
(0.0861168 0.107039 -7.90852e-18)
(-0.015661 -0.0392316 1.59825e-17)
(0.0784613 -0.0184931 -7.91587e-18)
(0.0645941 -0.0256336 8.06472e-18)
(0.0543946 -0.0202802 -7.95071e-18)
(0.0522621 -0.0578914 0)
(0.138865 0.0739881 -1.58661e-17)
(0.111855 0.10363 -3.14866e-17)
(0.104494 -0.0203294 0)
(0.0851735 0.107535 -1.57879e-17)
(0.0508583 0.0785743 -1.60859e-17)
(0.068992 0.092133 0)
(0.156617 -0.0600431 0)
(0.0915076 -0.0369616 -7.2909e-22)
(0.0870729 0.119151 7.19059e-18)
(0.102455 -0.0974214 0)
(0.0448004 0.016909 -2.3866e-17)
(0.143696 -0.0804689 0)
(0.0721946 -0.0337825 0)
(0.0425795 -0.0711191 -1.57304e-17)
(0.0835993 -0.0317122 -1.58666e-17)
(0.0758552 0.0439908 0)
(0.100304 -0.0383092 -1.583e-17)
(0.119522 -0.0979023 -7.90657e-18)
(0.107357 -0.0538224 1.58022e-17)
(0.150668 -0.0466659 -1.61817e-17)
(0.0639468 0.0609967 1.59148e-17)
(0.0983207 -0.0784305 0)
(0.102113 -0.00408246 -7.91904e-18)
(0.107051 0.00869893 -2.79854e-17)
(0.10281 -0.0596565 0)
(0.106994 -0.0148698 0)
(0.0679809 0.0222551 2.37972e-17)
(0.0450084 -0.0703134 -1.54607e-17)
(0.0836436 0.107432 0)
(0.107586 -0.0467308 1.58114e-17)
(0.0756924 0.132862 3.32152e-17)
(0.115306 -0.0563105 -1.57839e-17)
(0.0534369 -0.0654536 0)
(0.0832403 -0.0530959 3.3656e-17)
(0.0919338 -0.01154 7.91528e-18)
(0.0552635 -0.0624269 0)
(0.0790407 0.0526623 1.58271e-17)
(0.00776386 0.0242147 -8.7308e-18)
(0.0614722 0.085466 0)
(0.043465 0.0519236 0)
(0.0253409 0.0651505 0)
(0.0442829 -0.0193745 1.40047e-17)
(0.0462884 0.0592907 -7.66531e-18)
(0.119283 -0.0856649 -1.9255e-17)
(0.0864759 0.00664239 0)
(0.0960692 0.0933559 8.10663e-18)
(0.0741231 -0.0023254 -1.58698e-17)
(0.109418 0.0330707 2.6705e-17)
(0.0504352 -0.0646866 0)
(0.10315 0.0961676 -6.84655e-18)
(0.0918151 0.0634858 0)
(0.0462957 0.0807553 0)
(0.0334194 -0.0275168 0)
(0.126912 -0.0641888 0)
(0.0304919 0.0323062 7.99416e-18)
(0.067412 0.0881195 0)
(0.095584 0.0381128 0)
(0.069189 0.0796058 -7.99916e-18)
(0.100886 0.0667117 -7.85102e-18)
(0.104613 -0.0479618 0)
(0.0630279 0.0641695 0)
(0.1017 -0.0558089 0)
(0.0947306 0.0832834 3.15413e-17)
(0.0343304 0.0628035 2.41002e-17)
(0.104441 -0.0321166 0)
(0.132092 -0.076274 1.3622e-17)
(0.057337 0.114717 -1.59595e-17)
(0.06818 0.017981 1.58904e-17)
(0.0509517 0.0718391 -1.5875e-17)
(-0.00152659 -0.0166871 -2.89447e-22)
(0.106707 0.0758533 0)
(0.0406027 -0.0691099 0)
(0.063917 0.125672 1.53118e-17)
(0.025402 -0.0645747 0)
(0.107067 0.0238837 0)
(0.0523065 -0.0316165 -1.41454e-17)
(0.0398128 -0.0590943 -2.0069e-17)
(0.0293338 -0.0110051 0)
(0.0194858 0.0204092 -1.58977e-17)
(0.106408 0.048955 0)
(0.05592 0.00749603 -1.59074e-17)
(0.0266027 0.0206973 -7.96685e-18)
(0.0277304 0.0388339 3.18732e-17)
(0.0512522 0.0282921 0)
(0.0753488 0.0767183 -1.58145e-17)
(0.0595501 0.117668 7.95128e-18)
(0.0395572 0.016457 0)
(0.0631946 0.133974 1.99079e-17)
(0.0374417 0.0364422 -7.96921e-18)
(0.0469259 0.0895022 -1.59311e-17)
(0.0783425 -0.0420656 -1.48426e-17)
(0.0616148 0.138079 -8.01254e-18)
(0.0898404 -0.027076 0)
(0.0711366 0.127745 -1.59532e-17)
(0.033661 -0.0737072 0)
(0.0243326 -0.0736073 2.35785e-17)
(0.0522724 0.0896494 2.38399e-17)
(0.067881 0.134835 1.58917e-17)
(-8.8774e-06 -0.0188757 3.2126e-17)
(0.0162793 -0.0200755 -8.49853e-18)
(-0.0110518 -0.0345197 -1.61591e-17)
(0.0693527 0.135721 0)
(0.0104526 -0.058184 0)
(0.0627431 0.125973 -1.59341e-17)
(0.0590488 0.136302 3.31463e-17)
(0.0108516 -0.0111363 0)
(0.0430074 0.07435 -2.38546e-17)
(0.0233147 -0.0728356 -3.22714e-22)
(0.0548881 0.111865 8.04019e-18)
(0.0697752 0.136203 0)
(0.0654716 0.128005 8.06531e-18)
(0.0645073 0.12381 -2.3925e-17)
(0.0481392 0.0922162 0)
(0.0184949 -0.0763478 1.82444e-17)
(0.0384095 0.123504 -3.43585e-17)
(0.00159352 -0.0729369 0)
(0.063661 0.118892 0)
(0.0312493 -0.0727858 -1.59224e-17)
(0.0285707 -0.073851 0)
(0.060534 0.116592 1.59313e-17)
(0.0232181 0.064405 4.64217e-19)
(0.0133512 -0.0659592 -1.74401e-17)
(0.0576529 0.122016 -1.61544e-17)
(0.0192145 -0.0687366 -1.30735e-17)
(0.0259511 -0.0717933 1.59901e-17)
(0.00191804 -0.079417 0)
(0.00795834 0.0135714 0)
(-0.00145349 -0.0190905 5.51868e-17)
(0.00145015 -0.0600575 -3.55057e-17)
(0.0022333 -0.034031 -3.50024e-17)
(0.0658818 -0.0280479 0)
(0.0432727 0.156826 1.70367e-17)
(0.0178644 -0.0702561 -2.49566e-17)
(0.0204321 -0.0692473 2.5105e-17)
(0.000912297 -0.0406033 0)
(0.00440451 -0.032522 -1.75604e-17)
(0.0369999 0.161331 -5.26983e-17)
(0.00110975 -0.0408243 -1.66359e-17)
(0.0034315 -0.0385982 -5.13449e-22)
(0.03588 0.110127 1.48557e-17)
(0.015425 -0.0656492 -1.7129e-17)
(-0.00658533 -0.0401976 8.26168e-18)
(0.0200947 0.0477449 0)
(0.0329702 -0.0420902 -1.88832e-17)
(0.0444268 0.148389 3.85012e-17)
(0.00545169 -0.00326391 -1.86232e-17)
(0.0016498 -0.0299333 3.43919e-22)
(0.0580776 -0.0313993 2.59522e-17)
(0.0825733 0.0260251 -1.10611e-22)
(0.0556956 -0.00464383 3.1369e-17)
(0.0516471 0.0451446 1.13945e-17)
(0.0284082 -0.0697852 0)
(0.00253095 -0.0511303 1.78329e-17)
(0.00228094 -0.0356637 0)
(-0.0333673 0.000911087 -1.05193e-17)
(0.0415607 0.158739 -5.51374e-19)
(0.0024902 -0.0285544 0)
(0.0410415 0.152246 5.07326e-19)
(0.0483057 0.125307 1.77763e-17)
(0.00311629 -0.0258762 -2.07489e-17)
(0.00256564 -0.0303015 -5.03028e-18)
(0.0102072 -0.0533731 4.24567e-18)
(0.0505671 -0.00275371 2.46426e-17)
(-0.0340992 0.00606032 1.85655e-17)
(0.0555903 -0.0347577 -1.9655e-17)
(-0.0981926 0.0338623 1.5252e-17)
(0.0318154 -0.0656881 0)
(0.0854354 -0.00425583 9.23067e-18)
(-0.0122785 0.0399783 0)
(-0.00523104 -0.0362 1.48021e-17)
(0.016717 -0.0559455 0)
(-0.00104261 -0.0158213 -3.52734e-17)
(0.112901 0.0180429 -1.89687e-17)
(0.0746704 0.0444495 -1.55055e-17)
(0.00844428 -0.0168439 -1.33492e-17)
(0.105884 -0.0385874 0)
(0.00967687 0.094493 8.69807e-19)
(-0.0467987 0.00524419 0)
(0.0818799 -0.0473991 -2.7583e-17)
(0.0633865 -0.0333426 -1.30338e-17)
(0.0793357 -0.0376018 -4.57265e-18)
(0.00298854 -0.0078911 3.39424e-17)
(0.0201672 -0.0331868 0)
(0.014702 -0.0577005 1.46288e-17)
(0.0264544 -0.0419165 0)
(0.0582212 -0.0392111 -2.49441e-17)
(0.00210831 -0.0678264 -1.8919e-17)
(0.0994657 0.0886706 1.75244e-17)
(0.00880064 0.0552846 0)
(-0.000331205 0.0328907 -4.60113e-18)
(0.0538311 0.131311 0)
(0.00876001 -0.021791 1.74851e-17)
(0.00597369 -0.0675603 5.59319e-19)
(0.00134055 -0.0507439 3.73773e-17)
(0.0317142 -0.0699579 0)
(0.00342273 -0.077015 1.62333e-17)
(0.00302229 -0.0674349 1.73427e-17)
(0.00555961 -0.0797006 9.15588e-18)
(0.0176166 -0.0383848 -7.37413e-23)
(-0.00341624 0.0828324 -2.4115e-17)
(0.0523348 0.140235 0)
(0.036168 -0.0542247 0)
(0.0207729 0.0833769 -8.81369e-18)
(0.104311 0.0659291 1.79963e-17)
(0.0228722 0.0740215 0)
(0.0045567 -0.0177844 8.69879e-18)
(0.0242995 0.0651756 -1.46919e-17)
(0.00512801 -0.0171928 0)
(0.00956882 -0.0765743 0)
(0.0121426 0.051924 -1.83853e-22)
(0.0146551 0.0391459 1.52713e-17)
(0.00257015 -0.00942835 8.4982e-18)
(0.00852018 -0.066942 -8.91487e-18)
(0.0608117 -0.113604 0)
(0.0650208 0.121795 1.72929e-17)
(0.0404674 -0.0574444 -8.92387e-18)
(0.0446169 0.0521924 -8.68478e-18)
(0.0561525 0.0473467 0)
(0.0277382 0.00184154 0)
(-0.0512235 -0.0246131 7.7781e-18)
(0.0238694 0.0426979 -1.6716e-17)
(0.0297243 0.0317445 0)
(0.0453049 0.0183006 1.45753e-17)
(0.0237905 -0.0144861 0)
(0.0372145 0.050281 8.58932e-18)
(0.0111599 -0.0161012 -1.66774e-17)
(0.00344965 -0.0183984 2.22658e-18)
(-0.0288813 -0.0262216 1.33537e-17)
(0.0255504 0.0426385 -1.76871e-17)
(0.0296311 0.0456058 -1.78584e-17)
(0.00999652 -0.0131853 0)
(0.0552186 0.036711 1.62826e-17)
(0.0349933 0.0306939 0)
(-0.000436028 -0.0108471 -2.1061e-18)
(-0.0315703 -0.0216189 0)
(0.013991 0.0220459 0)
(0.0205074 0.0281604 -8.63531e-18)
(0.0117746 -0.00841534 8.19389e-23)
(0.00459082 -0.00699452 0)
(0.0301709 0.0134793 -1.37416e-17)
(0.086859 0.0604014 -9.28236e-18)
(0.105546 0.0757394 -1.70002e-17)
(0.100349 0.0338027 0)
(0.000636474 -0.0601184 -1.7423e-22)
(0.0672417 0.119358 -2.77192e-17)
(0.00450502 -0.0374939 -2.02236e-17)
(0.00526571 -0.0520882 0)
(0.0231991 -0.0164214 -3.39006e-17)
(0.0606121 0.11376 -8.44472e-18)
(0.0532756 0.140146 0)
(0.0975622 0.0152516 1.72488e-17)
(0.015093 -0.078181 -9.70443e-18)
(0.0480008 0.0891614 1.92694e-17)
(0.0120324 -0.00863353 1.71792e-17)
(0.0485781 -0.0359783 9.26541e-18)
(0.046738 -0.0433087 2.70197e-17)
(0.0417679 0.0241169 9.66322e-18)
(0.060822 -0.0438381 0)
(0.0262613 -0.0156854 -3.37866e-17)
(0.0329506 -0.0190312 -4.12794e-18)
(0.0268057 -0.0370818 2.58869e-17)
(0.00154544 -0.0729554 -1.80294e-17)
(0.0879172 -0.025067 -2.92037e-17)
(0.0494832 0.0183076 1.43867e-17)
(0.0320044 0.0788957 -2.36484e-17)
(0.00806951 -0.0721295 4.58043e-18)
(0.102171 0.0957572 1.74932e-17)
(0.110289 0.0514481 -2.63437e-17)
(0.0416898 -0.0482047 3.67315e-17)
(0.0139839 -0.0203456 0)
(0.0203506 -0.0767291 -1.88731e-17)
(0.0241 0.049382 2.95102e-17)
(0.0293637 -0.0357358 -1.72127e-17)
(0.016025 -0.0787629 1.02185e-17)
(0.0364304 -0.0123201 -4.57773e-18)
(0.0102091 0.0607661 0)
(0.0135357 0.0516704 -8.88166e-18)
(0.0376052 -0.0623061 -1.88283e-17)
(0.0359981 -0.0458763 1.74579e-17)
(0.0185244 -0.0740211 1.13441e-17)
(0.0136841 0.0275286 -1.90623e-17)
(0.0152938 -0.0487908 1.01225e-17)
(0.075049 0.135581 -1.40939e-17)
(0.0096002 -0.0512265 0)
(0.0699644 0.0934456 3.24858e-17)
(0.109574 -0.00682117 -1.78193e-17)
(0.108273 0.0109041 2.26572e-17)
(0.0122379 -0.00900893 2.15642e-17)
(0.120204 0.0512229 4.51084e-18)
(0.105393 0.109734 -9.67153e-18)
(0.0296301 -0.00478544 -2.00832e-17)
(0.0298605 0.000452201 1.91188e-17)
(0.023663 -0.0422581 0)
(0.0507952 0.0530725 0)
(0.00244473 -0.0765733 -1.985e-17)
(0.00098986 -0.00692342 -9.69368e-18)
(-3.83476e-05 -0.00823983 -1.93822e-17)
(0.00312327 -0.079941 1.0981e-22)
(0.0209148 -0.0304757 8.85895e-18)
(0.0229197 -0.0150652 -1.78698e-17)
(0.000759636 -0.0158962 0)
(0.00215118 -0.0182238 0)
(0.0240318 -0.0294544 3.25913e-17)
(0.0033329 0.0684899 -3.20706e-17)
(0.0087535 -0.00977877 -9.05322e-18)
(0.0604932 0.0908165 1.04453e-17)
(0.000321466 -0.00832333 1.83056e-17)
(0.0319414 0.11181 2.08936e-17)
(-0.0077856 -0.0355273 0)
(0.105606 0.0512407 0)
(-0.0129589 -0.0314278 -9.39143e-18)
(0.0167772 0.117521 1.0951e-17)
(0.086603 0.110061 -8.48633e-18)
(0.00644635 -0.0162186 -1.40172e-17)
(0.0100737 -0.0381074 9.3412e-18)
(-0.0258469 0.0159642 -2.31606e-18)
(-0.0346943 0.0134754 -3.19856e-17)
(0.0467539 0.149327 -2.23849e-17)
(0.0408752 -0.0375082 5.42661e-18)
(0.0634705 0.106569 2.29532e-17)
(0.0212723 -0.00648457 -1.56016e-22)
(0.0436124 -0.05893 1.61641e-17)
(0.0486703 -0.0121027 1.88556e-17)
(0.069721 -0.00147455 -9.07056e-18)
(0.0395858 0.119624 -3.04714e-17)
(0.0021577 -0.0357979 1.98019e-17)
(0.0476686 -0.0156248 -9.29414e-18)
(0.0378864 -0.019378 -1.8605e-17)
(0.0396572 -0.0434046 1.61618e-17)
(0.0406714 0.0731635 -2.2067e-18)
(0.00763186 -0.00847282 4.56117e-18)
(0.0239375 0.0555933 4.06796e-18)
(-0.0130022 0.0116396 0)
(-0.0372214 0.00145659 6.20011e-18)
(0.0482148 0.141851 9.97825e-18)
(0.0178022 -0.0265386 2.19704e-17)
(0.00624983 0.00340658 0)
(0.0885806 -0.0137231 -3.86036e-18)
(0.0527669 -0.125936 2.2027e-17)
(0.0135446 -0.0542031 1.23535e-17)
(8.34538e-05 -0.0353757 0)
(0.000611843 -0.00770205 -1.9183e-17)
(0.0376436 -0.0534113 1.01117e-17)
(0.0136875 -0.00100288 -2.56938e-18)
(0.0113436 0.0242826 -1.33989e-18)
(0.0170833 -0.0410492 4.89422e-18)
(-4.17833e-05 -0.00666399 2.10371e-17)
(0.00160557 -0.0374236 0)
(0.000988102 -0.10584 0)
(0.0309778 -0.0444266 0)
(0.00890806 -0.0398823 -1.08378e-17)
(0.0940716 0.101522 0)
(0.0379133 -0.00658192 1.79335e-17)
(0.0105268 -0.0721989 -1.04642e-17)
(0.000129478 -0.0153668 -1.07389e-17)
(0.00243201 -0.0359035 0)
(0.0423468 -0.0717797 -5.44368e-18)
(0.0803156 0.0582744 0)
(0.0507061 0.0142783 6.11658e-19)
(0.00181466 -0.0132894 1.03395e-17)
(0.00157808 -0.0169066 1.51495e-17)
(0.0218756 -0.0515586 0)
(0.0130356 -0.0297811 1.95814e-17)
(0.00198815 -0.0263675 0)
(0.00320892 -0.0322611 0)
(0.0100579 -0.0616325 1.30938e-18)
(0.0177992 -0.0162355 -1.91928e-17)
(0.00730931 -0.0156397 -1.11801e-18)
(0.0421066 -0.0264679 0)
(0.101349 0.00695796 3.73049e-17)
(-0.000912018 -0.0365135 1.06765e-18)
(0.0191843 0.094402 -9.47399e-18)
(0.0199708 -0.0184342 0)
(0.0861071 -0.0110851 -8.35896e-18)
(0.0202644 -0.0446653 -2.28102e-17)
(0.048983 -0.031267 2.0944e-17)
(0.0698155 0.11004 9.97672e-18)
(0.0233694 -0.0461988 9.23441e-18)
(0.0556542 -0.0394333 -9.9888e-18)
(0.00256457 -0.0173661 -2.01676e-17)
(0.0671819 -0.0459896 -1.90283e-17)
(0.0663349 0.0165074 0)
(0.0782058 -0.0527742 1.34019e-17)
(0.0251913 -0.0593453 4.63097e-18)
(0.0775177 -0.0672122 1.7977e-17)
(0.0487802 0.137241 4.83192e-18)
(0.0511371 0.146313 0)
(0.00240122 -0.0981178 1.76617e-17)
(0.028098 -0.112474 2.85163e-17)
(0.0561345 0.115403 0)
(0.0309163 -0.055783 2.94573e-18)
(0.00319831 -0.00820657 -1.32105e-17)
(0.021359 0.0750845 0)
(0.00700918 -0.0601809 -1.24857e-18)
(0.11525 0.0249068 -1.79049e-17)
(0.0124756 -0.0386727 -2.7164e-21)
(0.103444 0.07349 1.52999e-22)
(0.0283753 -0.060293 -4.77126e-18)
(0.033292 -0.0348931 -2.15223e-17)
(-0.0395085 0.015355 2.38353e-17)
(0.0116338 0.00689043 4.26445e-17)
(0.0339164 -0.0426696 -2.18507e-17)
(0.0188767 -0.0100529 3.16302e-17)
(0.0135116 0.101348 4.502e-18)
(0.00643641 -0.0305904 1.05776e-17)
(0.0213476 0.0533064 2.10807e-17)
(0.0344456 -0.0504962 0)
(0.0618185 -0.0415676 -2.94691e-17)
(0.0238079 -0.0314223 -1.84598e-17)
(0.0674133 0.0770933 5.09604e-18)
(0.0170418 -0.0488158 0)
(0.0161484 0.0369476 -2.26054e-17)
(0.0330726 -0.0465104 -2.16301e-17)
(0.101615 0.0538024 0)
(0.0100649 -0.0286301 1.1787e-17)
(0.0131686 -0.074301 1.32478e-17)
(0.0348364 -0.0621665 -1.0901e-17)
(0.0379806 -0.0504565 1.32057e-18)
(0.0122151 -0.0506488 0)
(0.000948781 -0.0793683 2.19351e-22)
(0.061288 0.111248 0)
(0.0138097 -0.0165132 1.89855e-17)
(0.0306729 -0.046565 -2.69382e-18)
(-0.00347959 -0.0369635 1.1043e-17)
(0.00190484 -0.032371 0)
(0.00326712 -0.0285843 2.34552e-17)
(-0.0489296 0.0302948 2.18083e-17)
(0.0456175 -0.0434443 -5.44807e-18)
(0.00885233 -0.0413809 -1.78564e-17)
(0.0169337 -0.0276857 -3.72029e-17)
(0.0287847 0.0692443 0)
(0.122416 0.00899713 0)
(0.0504929 0.0854205 -2.27078e-17)
(0.0430212 0.0725502 2.94376e-17)
(0.0399718 -0.0944871 9.36774e-18)
(0.124312 0.0866746 1.06233e-17)
(0.032233 -0.0493234 7.7162e-18)
(0.000856932 -0.0316299 -1.16938e-17)
(0.0455123 0.152111 0)
(0.0483465 0.0869976 0)
(0.0333399 -0.044232 0)
(0.0193603 -0.0781215 -7.77602e-19)