/*--------------------------------*- C++ -*----------------------------------*\
  =========                 |
  \\      /  F ield         | OpenFOAM: The Open Source CFD Toolbox
   \\    /   O peration     | Website:  https://openfoam.org
    \\  /    A nd           | Version:  9
     \\/     M anipulation  |
\*---------------------------------------------------------------------------*/
FoamFile
{
    format      ascii;
    class       volScalarField;
    location    "2.4";
    object      p;
}
// * * * * * * * * * * * * * * * * * * * * * * * * * * * * * * * * * * * * * //

dimensions      [0 2 -2 0 0 0 0];

internalField   nonuniform List<scalar> 
1655
(
13.5175
13.5191
13.511
13.5195
13.5258
13.525
13.5101
13.5151
13.497
13.5257
13.5176
13.5173
13.5169
13.5218
13.5028
13.4974
13.4793
13.4981
13.525
13.5223
13.5125
13.4967
13.5233
13.5238
13.5172
13.4899
13.4988
13.5025
13.5049
13.5277
13.5039
13.512
13.5233
13.517
13.499
13.5192
13.5248
13.5196
13.5234
13.5189
13.5129
13.5248
13.5238
13.5247
13.5201
13.5196
13.5192
13.5195
13.5251
13.5237
13.5249
13.5111
13.4981
13.5009
13.5002
13.5135
13.5092
13.518
13.5192
13.5111
13.5047
13.525
13.5174
13.5142
13.5237
13.5058
13.522
13.5182
13.4985
13.5249
13.518
13.508
13.5224
13.504
13.5126
13.5203
13.5066
13.5014
13.5092
13.5249
13.5231
13.5201
13.4979
13.5246
13.5263
13.5157
13.5135
13.52
13.5181
13.5177
13.5191
13.5129
13.5249
13.5254
13.5207
13.5249
13.5222
13.5189
13.514
13.5242
13.5131
13.5229
13.5254
13.5234
13.4943
13.5248
13.5137
13.5263
13.5242
13.5169
13.5234
13.5177
13.5181
13.525
13.5175
13.5181
13.5156
13.5195
13.518
13.4959
13.5167
13.5154
13.5083
13.5205
13.5222
13.5199
13.5236
13.5205
13.4933
13.5273
13.525
13.5234
13.5149
13.5207
13.523
13.519
13.5256
13.4962
13.5122
13.5214
13.5065
13.4984
13.4904
13.5139
13.4849
13.5111
13.5162
13.5143
13.516
13.4939
13.4989
13.489
13.5073
13.5035
13.5145
13.5239
13.5236
13.5204
13.5158
13.5237
13.5199
13.5171
13.5017
13.5191
13.517
13.5186
13.5029
13.5189
13.5229
13.5002
13.4909
13.5043
13.518
13.5097
13.5248
13.512
13.5252
13.5001
13.5229
13.5239
13.5145
13.5049
13.5249
13.5207
13.5203
13.5204
13.5199
13.522
13.5018
13.5072
13.5205
13.5249
13.5059
13.5094
13.5184
13.5248
13.5033
13.5201
13.5175
13.5078
13.5204
13.5203
13.5094
13.5092
13.5223
13.5082
13.5231
13.5075
13.5258
13.5156
13.5106
13.5093
13.5194
13.5188
13.5239
13.5213
13.5194
13.5175
13.5081
13.51
13.5202
13.5172
13.5234
13.5136
13.5233
13.5176
13.5149
13.5218
13.5056
13.5048
13.5207
13.5011
13.501
13.5039
13.523
13.521
13.5191
13.5097
13.5134
13.4984
13.5135
13.5198
13.4993
13.5207
13.5142
13.5192
13.498
13.5045
13.5152
13.5117
13.5247
13.522
13.5226
13.5104
13.5226
13.5095
13.5236
13.5159
13.4997
13.5231
13.5163
13.5204
13.5136
13.5079
13.5218
13.5192
13.5228
13.5243
13.5235
13.5232
13.4911
13.505
13.5205
13.5183
13.5062
13.5085
13.4963
13.5165
13.4998
13.5122
13.5036
13.5205
13.5107
13.5021
13.5055
13.5095
13.5072
13.5236
13.5228
13.5017
13.5061
13.5154
13.5222
13.5064
13.5108
13.5221
13.5138
13.5071
13.5177
13.5245
13.5235
13.5254
13.5253
13.5205
13.5105
13.5019
13.5228
13.5149
13.5142
13.5097
13.514
13.4907
13.5167
13.515
13.5177
13.5128
13.5149
13.5029
13.5067
13.5234
13.506
13.5217
13.5236
13.5213
13.5232
13.5191
13.5189
13.5193
13.5231
13.5233
13.5223
13.5094
13.5219
13.5111
13.5139
13.5098
13.5229
13.5224
13.5152
13.512
13.5237
13.5183
13.5097
13.5032
13.5009
13.5196
13.5223
13.522
13.5228
13.5157
13.5213
13.5223
13.5027
13.5231
13.5036
13.5067
13.5173
13.5144
13.5164
13.5005
13.5075
13.5222
13.5029
13.5079
13.5205
13.5108
13.5235
13.524
13.5108
13.5199
13.5202
13.5232
13.5201
13.5117
13.5253
13.5159
13.5239
13.5171
13.5205
13.5186
13.5206
13.5095
13.5203
13.5086
13.5212
13.5059
13.5093
13.5155
13.5133
13.5082
13.5056
13.5233
13.5238
13.5086
13.5175
13.5096
13.504
13.5121
13.5051
13.5247
13.512
13.5207
13.5092
13.5207
13.5242
13.5224
13.5091
13.5235
13.5201
13.5241
13.5261
13.5068
13.507
13.5239
13.5218
13.5048
13.5112
13.4994
13.5082
13.5076
13.5248
13.5069
13.5217
13.5048
13.5109
13.4968
13.4998
13.5159
13.5084
13.5198
13.5207
13.5219
13.5085
13.5257
13.5046
13.5108
13.5195
13.5234
13.5258
13.5069
13.493
13.5008
13.5245
13.5027
13.5044
13.5089
13.5216
13.5237
13.5206
13.5231
13.5191
13.5123
13.5172
13.5054
13.5181
13.5025
13.5245
13.5027
13.5207
13.5224
13.5131
13.5004
13.5117
13.5141
13.5249
13.5202
13.5035
13.5041
13.5002
13.5128
13.5141
13.5202
13.5049
13.524
13.5129
13.514
13.5151
13.5128
13.4995
13.5201
13.5008
13.5241
13.5006
13.5171
13.5139
13.5024
13.5202
13.5179
13.5245
13.5154
13.5124
13.5216
13.5027
13.5206
13.5161
13.5125
13.4991
13.5182
13.5111
13.5198
13.5178
13.5151
13.5199
13.5157
13.4966
13.5172
13.5164
13.5169
13.5147
13.5186
13.5246
13.5168
13.5233
13.5142
13.5165
13.5203
13.5151
13.5121
13.5016
13.5047
13.5055
13.5029
13.5154
13.5146
13.503
13.5025
13.5181
13.5164
13.5138
13.5094
13.5186
13.5203
13.5177
13.5206
13.5249
13.5192
13.5254
13.5176
13.5235
13.5191
13.5249
13.5081
13.525
13.5198
13.5179
13.525
13.5174
13.5217
13.5146
13.5239
13.5181
13.5159
13.4805
13.5178
13.5146
13.4984
13.5105
13.5154
13.521
13.5183
13.5116
13.5222
13.5016
13.5118
13.5248
13.5049
13.5111
13.5069
13.515
13.5101
13.5162
13.5161
13.5136
13.5236
13.5123
13.5121
13.5166
13.5246
13.5016
13.5109
13.5183
13.5186
13.5245
13.5065
13.5218
13.5192
13.5143
13.5048
13.5186
13.5045
13.5157
13.5057
13.5071
13.5087
13.5047
13.5033
13.5162
13.5123
13.5106
13.5151
13.5126
13.492
13.5119
13.5199
13.485
13.4818
13.5065
13.5101
13.5031
13.5013
13.5147
13.5164
13.4854
13.4959
13.5146
13.5146
13.4986
13.518
13.5033
13.5065
13.5004
13.5057
13.4966
13.5128
13.5057
13.5228
13.5063
13.5073
13.5087
13.5185
13.5074
13.5175
13.5103
13.52
13.5174
13.5121
13.5188
13.5185
13.5159
13.511
13.5175
13.5175
13.5088
13.5185
13.5172
13.525
13.515
13.5196
13.5182
13.4919
13.514
13.516
13.5079
13.5125
13.5132
13.517
13.5093
13.5166
13.5083
13.5009
13.5141
13.5137
13.5208
13.5113
13.5055
13.514
13.522
13.5175
13.5189
13.5164
13.5116
13.5118
13.5221
13.5221
13.522
13.5194
13.5202
13.5244
13.5129
13.5225
13.5185
13.5157
13.5197
13.5063
13.5189
13.4981
13.518
13.5242
13.5165
13.5159
13.5192
13.5213
13.5245
13.517
13.5161
13.5177
13.5221
13.5145
13.5165
13.5172
13.5085
13.5165
13.5166
13.5198
13.5227
13.5235
13.5222
13.5079
13.5184
13.5201
13.4963
13.5148
13.4959
13.509
13.5091
13.5245
13.5232
13.5223
13.5095
13.4931
13.5152
13.5187
13.5155
13.51
13.5218
13.4948
13.5195
13.5235
13.5138
13.5228
13.4923
13.5248
13.5214
13.5166
13.5248
13.5234
13.522
13.5202
13.5202
13.5215
13.4968
13.5249
13.5167
13.4936
13.5178
13.5177
13.521
13.5161
13.5228
13.5204
13.5217
13.5227
13.5252
13.4922
13.4942
13.5247
13.5241
13.5216
13.5124
13.5246
13.4944
13.4944
13.523
13.5245
13.527
13.5228
13.5211
13.4947
13.5226
13.519
13.4931
13.5237
13.5243
13.5258
13.5097
13.5133
13.5168
13.5201
13.5162
13.5161
13.5228
13.5229
13.5231
13.5223
13.5135
13.5149
13.5248
13.5119
13.521
13.5119
13.5242
13.493
13.5195
13.5227
13.5242
13.5226
13.5091
13.5249
13.5249
13.5237
13.525
13.5247
13.5245
13.5241
13.5108
13.5103
13.5237
13.5249
13.492
13.5249
13.5106
13.5167
13.4913
13.5248
13.5251
13.4926
13.5243
13.5235
13.5246
13.4912
13.5174
13.5243
13.5267
13.525
13.5153
13.4936
13.5241
13.5266
13.5238
13.523
13.5251
13.5243
13.5176
13.5237
13.5229
13.5241
13.5236
13.5235
13.5247
13.5241
13.5027
13.522
13.4917
13.5249
13.525
13.524
13.4907
13.5236
13.5176
13.5241
13.5216
13.5125
13.5254
13.5239
13.5241
13.525
13.5177
13.5239
13.5228
13.5192
13.5249
13.5245
13.5254
13.4915
13.524
13.5226
13.5249
13.5212
13.5239
13.525
13.5244
13.5242
13.5227
13.5224
13.5185
13.5177
13.5233
13.5185
13.5135
13.4911
13.5235
13.5226
13.491
13.5221
13.5246
13.5165
13.5245
13.5218
13.5242
13.5244
13.5249
13.5138
13.5218
13.5227
13.5251
13.5137
13.5178
13.5138
13.5241
13.5128
13.5243
13.5215
13.5188
13.5246
13.5252
13.5238
13.5235
13.525
13.5246
13.518
13.5241
13.4912
13.4903
13.5216
13.5248
13.5224
13.5237
13.4871
13.5246
13.5184
13.5232
13.5252
13.5241
13.5149
13.5242
13.5242
13.518
13.5178
13.5233
13.5235
13.5226
13.5204
13.5217
13.5247
13.525
13.5189
13.5229
13.5235
13.5124
13.5244
13.5242
13.49
13.5244
13.5238
13.5163
13.5243
13.5218
13.5245
13.52
13.5252
13.5249
13.5241
13.5218
13.5202
13.4982
13.5234
13.524
13.5184
13.5235
13.5223
13.5224
13.5174
13.5231
13.5237
13.4905
13.52
13.5186
13.5193
13.4908
13.5217
13.5037
13.5247
13.5185
13.5239
13.5242
13.5253
13.5217
13.524
13.5236
13.5248
13.5245
13.5204
13.5214
13.49
13.519
13.5248
13.5244
13.5226
13.5244
13.5214
13.5196
13.5235
13.5257
13.5233
13.5182
13.5223
13.4891
13.5215
13.5233
13.5232
13.5248
13.5245
13.518
13.524
13.5212
13.5241
13.5192
13.5185
13.5201
13.5203
13.5189
13.5246
13.5235
13.5207
13.5228
13.5214
13.5202
13.519
13.5187
13.5184
13.5197
13.4989
13.5184
13.5219
13.5179
13.5209
13.5227
13.52
13.5197
13.5185
13.4955
13.5246
13.4898
13.518
13.521
13.5218
13.5141
13.5205
13.5202
13.5255
13.52
13.4942
13.5247
13.5166
13.518
13.5211
13.522
13.5209
13.5155
13.5207
13.5137
13.5217
13.5201
13.5194
13.4909
13.5081
13.5194
13.5189
13.5192
13.4992
13.4928
13.524
13.525
13.5204
13.4924
13.524
13.5198
13.5211
13.5243
13.5186
13.5164
13.5195
13.5201
13.524
13.5172
13.5212
13.5204
13.4958
13.4981
13.5218
13.5133
13.5047
13.5235
13.5168
13.508
13.5013
13.5152
13.5168
13.4924
13.5231
13.5211
13.5115
13.5211
13.5201
13.5203
13.5221
13.5076
13.5247
13.492
13.5204
13.5183
13.5249
13.513
13.5196
13.5106
13.5148
13.5249
13.5072
13.5106
13.52
13.5195
13.5156
13.5235
13.5167
13.525
13.5209
13.5168
13.5235
13.5174
13.5127
13.5167
13.5154
13.5141
13.495
13.5122
13.5099
13.5232
13.5058
13.5079
13.5228
13.522
13.5278
13.512
13.5213
13.5103
13.522
13.5171
13.518
13.5052
13.5171
13.5241
13.5025
13.5095
13.5194
13.5182
13.5247
13.5198
13.5247
13.4941
13.5024
13.5039
13.524
13.5183
13.5144
13.521
13.5228
13.5233
13.5206
13.5172
13.5285
13.5236
13.5002
13.4982
13.5161
13.5213
13.5144
13.5012
13.5015
13.5163
13.5244
13.524
13.5238
13.5184
13.4971
13.5162
13.5156
13.5276
13.5243
13.4944
13.523
13.5236
13.5214
13.5217
13.495
13.5187
13.5053
13.5118
13.4776
13.5211
13.524
13.4929
13.5162
13.5106
13.5145
13.5004
13.5022
13.4913
13.5142
13.5209
13.5248
13.5245
13.5147
13.5169
13.5031
13.5173
13.4996
13.5185
13.4912
13.5052
13.5248
13.5162
13.4969
13.4973
13.5146
13.4962
13.4988
13.4953
13.5109
13.5074
13.5239
13.5245
13.5245
13.5213
13.5036
13.5283
13.5253
13.5177
13.504
13.4982
13.5249
13.5243
13.5149
13.5249
13.5251
13.4985
13.5251
13.502
13.4973
13.492
13.5165
13.4963
13.5161
13.5024
13.5248
13.5253
13.4952
13.5253
13.5295
13.5201
13.4915
13.519
13.4963
13.4959
13.5205
13.5167
13.4925
13.4988
13.4934
13.5134
13.5277
13.4942
13.498
13.4924
13.4998
13.4935
13.5138
13.5169
13.5118
13.5204
13.5139
13.5175
13.4903
13.5193
13.5195
13.4983
13.5246
13.5147
13.5245
13.52
13.5194
13.5184
13.4935
13.495
13.5205
13.5252
13.5258
13.5169
13.4966
13.4946
13.4947
13.5191
13.5008
13.496
13.5195
13.4978
13.5199
13.4983
13.528
13.4947
13.4938
13.492
13.5244
13.5176
13.5249
13.5255
13.5254
13.5171
13.526
13.5002
13.5233
13.5197
13.5281
13.5258
13.5191
13.489
13.5121
13.5212
13.5001
13.52
13.517
13.5032
13.5199
13.4943
13.5169
13.4978
13.5216
13.5207
13.5104
13.5039
13.5009
13.5232
13.5239
13.4947
13.5235
13.4932
13.49
13.5248
13.5242
13.5176
13.5249
13.5249
13.5237
13.5177
13.5247
13.5248
13.5249
13.5249
13.5175
13.5235
13.5173
13.5247
13.5245
13.5175
13.5249
13.525
13.5237
13.5174
13.5178
13.5249
13.5245
13.522
13.4999
13.5226
13.5243
13.5251
13.5224
13.5193
13.5258
13.5147
13.5234
13.5256
13.4961
13.5214
13.5175
13.5175
13.5059
13.5233
13.5201
13.5204
13.5184
13.5245
13.5181
13.5203
13.5067
13.5267
13.5248
13.5174
13.525
13.5202
13.4953
13.5175
13.5171
13.5262
13.5231
13.4934
13.5224
13.5248
13.4916
13.5231
13.5245
13.5093
13.5201
13.4981
13.5201
13.5176
13.5245
13.5173
13.4928
13.5232
13.5236
13.5173
13.5112
13.4909
13.52
13.5248
13.525
13.5221
13.5202
13.525
13.4919
13.5183
13.5202
13.5211
13.5238
13.5197
13.5256
13.5204
13.5201
13.5257
13.5233
13.5171
13.5178
13.5179
13.5203
13.52
13.5153
13.5198
13.5198
13.5188
13.4945
13.4937
13.5179
13.5202
13.5203
13.5205
13.5213
13.4928
13.5088
13.5272
13.5227
13.5232
13.526
13.5238
13.5258
13.524
13.4933
13.5253
13.5233
13.5249
13.5249
13.5117
13.522
13.525
13.5244
13.525
13.5125
13.5262
13.5023
13.5206
13.5164
13.5251
13.5262
13.5203
13.5249
13.5213
13.5216
13.5251
13.5204
13.5186
13.501
13.5204
13.5258
13.5253
13.499
13.5255
13.5041
13.5208
13.496
13.5175
13.5235
13.5122
13.5234
13.525
13.5221
13.5258
13.5233
13.526
13.5252
13.5259
13.5261
13.5253
13.5257
13.5207
13.5218
13.5011
13.5182
13.5249
13.5176
13.5204
13.5198
13.5058
13.4971
13.5185
13.5253
13.4943
13.5235
13.5213
13.522
13.5175
13.5203
13.5203
13.5255
13.5262
13.5186
13.518
13.5204
13.5234
13.5014
13.5171
13.5198
13.5156
13.5188
13.4962
13.5204
13.5195
13.5001
13.4889
13.5194
13.5229
13.4996
13.5251
13.5247
13.5194
13.5217
13.5256
13.5249
13.5178
13.5232
13.5208
13.5239
13.5229
13.5249
13.5255
13.5203
13.5201
13.5019
13.5108
13.5252
13.5213
13.5193
13.5242
13.5249
13.5172
13.499
13.5184
13.5204
13.4947
13.5194
13.5173
13.5223
13.5237
13.4918
13.5252
13.5175
13.5248
13.5085
13.5256
13.4983
13.5205
13.5204
13.4927
13.5191
13.498
13.5209
13.5205
13.5243
13.4988
13.5241
13.526
13.5184
13.5159
13.5154
13.5238
13.5207
13.4894
13.5178
13.5209
13.5275
13.5123
13.4957
13.5114
13.5249
13.4947
13.526
13.5238
13.5236
13.5101
13.5242
13.5247
13.5234
13.5062
13.5195
13.5174
13.4972
13.5153
13.5247
13.5037
13.5209
13.5258
13.4826
13.5234
13.5185
13.5252
13.523
13.5237
13.5224
13.5255
13.5251
13.5249
13.5203
13.5197
13.5216
13.5256
13.514
13.5173
13.524
13.5177
13.5244
13.5172
13.5078
13.5242
13.5178
13.5026
13.5212
13.5255
13.5179
13.5221
13.5235
13.5202
13.4965
13.5241
13.5242
13.5237
13.5256
13.4966
)
;

boundaryField
{
    back
    {
        type            empty;
    }
    front
    {
        type            empty;
    }
    top
    {
        type            zeroGradient;
    }
    outer_arc
    {
        type            zeroGradient;
    }
    bottom
    {
        type            uniformFixedValue;
        uniformValue    
        {
            type            table;
            format          csv;
            file            "outlet_p.csv";
            nHeaderLine     1;
            refColumn       0;
            componentColumns List<label> 1(1);
            separator       ",";
            mergeSeparators 0;
        }
        value           uniform 13.4927;
    }
    inner_arc
    {
        type            zeroGradient;
    }
}


// ************************************************************************* //
