/*--------------------------------*- C++ -*----------------------------------*\
  =========                 |
  \\      /  F ield         | OpenFOAM: The Open Source CFD Toolbox
   \\    /   O peration     | Website:  https://openfoam.org
    \\  /    A nd           | Version:  9
     \\/     M anipulation  |
\*---------------------------------------------------------------------------*/
FoamFile
{
    format      ascii;
    class       volScalarField;
    location    "2";
    object      p;
}
// * * * * * * * * * * * * * * * * * * * * * * * * * * * * * * * * * * * * * //

dimensions      [0 2 -2 0 0 0 0];

internalField   nonuniform List<scalar> 
1655
(
10.1199
10.1239
10.1046
10.1236
10.1098
10.1183
10.1051
10.0725
10.0552
10.1121
10.1228
10.1223
10.0749
10.1256
10.0983
10.1221
10.1202
10.0483
10.1202
10.1256
10.1224
10.0542
10.0915
10.0934
10.1199
10.1217
10.1222
10.0596
10.0614
10.1226
10.1003
10.0995
10.125
10.1268
10.0528
10.1279
10.1185
10.1239
10.1251
10.1238
10.1224
10.0976
10.1254
10.1235
10.1241
10.1235
10.1231
10.1242
10.12
10.1254
10.1178
10.0985
10.099
10.0583
10.0581
10.1197
10.1223
10.1234
10.1229
10.0965
10.1056
10.1182
10.1195
10.0719
10.1267
10.0964
10.1252
10.1232
10.0542
10.0968
10.1233
10.0964
10.1226
10.0298
10.1293
10.1251
10.0636
10.0495
10.1223
10.1226
10.1272
10.1249
10.0561
10.1242
10.1227
10.1062
10.1265
10.1226
10.1232
10.1264
10.1186
10.1106
10.1208
10.1201
10.1256
10.1196
10.1255
10.1233
10.1064
10.1238
10.1171
10.1267
10.1197
10.1264
10.0524
10.1179
10.0723
10.1226
10.1238
10.1373
10.1245
10.1224
10.1419
10.1228
10.0785
10.1146
10.0749
10.123
10.1222
10.0537
10.1372
10.1322
10.1173
10.1214
10.1258
10.0813
10.1254
10.1256
10.1221
10.123
10.119
10.1243
10.073
10.0839
10.1226
10.1238
10.1057
10.0869
10.1224
10.1246
10.0702
10.1221
10.122
10.1331
10.1156
10.1335
10.1328
10.1276
10.1331
10.1017
10.1068
10.1064
10.1304
10.1201
10.0877
10.1255
10.1265
10.1316
10.0758
10.1271
10.1328
10.1211
10.0593
10.1316
10.1328
10.1233
10.0603
10.0808
10.1264
10.0621
10.1196
10.0623
10.1344
10.0675
10.1226
10.0702
10.1196
10.0642
10.123
10.1256
10.115
10.0626
10.1178
10.1224
10.124
10.1231
10.1245
10.1231
10.0533
10.0652
10.1239
10.1184
10.06
10.0917
10.1233
10.1226
10.0578
10.1233
10.1228
10.0656
10.1231
10.1235
10.1196
10.1089
10.1292
10.1224
10.125
10.0587
10.1231
10.1272
10.0888
10.0881
10.124
10.0798
10.1257
10.1239
10.1307
10.1211
10.0834
10.0688
10.1245
10.1226
10.1251
10.0747
10.125
10.1235
10.1233
10.1243
10.082
10.0832
10.1249
10.0912
10.0957
10.0447
10.1249
10.125
10.1235
10.0626
10.1232
10.1085
10.0929
10.1239
10.1122
10.1225
10.0759
10.1225
10.1006
10.0619
10.1232
10.0713
10.1226
10.1226
10.1109
10.0902
10.1249
10.0857
10.1236
10.0796
10.062
10.1253
10.1229
10.1229
10.1233
10.0842
10.1093
10.0824
10.1253
10.1256
10.1248
10.1256
10.1169
10.046
10.124
10.1229
10.0374
10.0428
10.1016
10.0815
10.0566
10.1223
10.0603
10.0863
10.0339
10.0336
10.0251
10.0483
10.0628
10.1244
10.1252
10.0493
10.0519
10.1225
10.1255
10.0644
10.0668
10.1243
10.0708
10.0824
10.1225
10.1233
10.1242
10.1202
10.1201
10.1241
10.1231
10.0584
10.1241
10.123
10.0739
10.1231
10.0477
10.1145
10.123
10.1225
10.0795
10.0725
10.1225
10.0604
10.123
10.1238
10.0632
10.1255
10.1244
10.1243
10.1243
10.1237
10.1238
10.0834
10.1234
10.1131
10.1251
10.0669
10.1256
10.1229
10.0683
10.123
10.1097
10.1254
10.1235
10.0605
10.124
10.1239
10.0317
10.0847
10.0446
10.1241
10.1256
10.1241
10.1239
10.1228
10.0834
10.1182
10.088
10.1245
10.0613
10.1229
10.1237
10.1235
10.0824
10.1227
10.0463
10.1252
10.0606
10.1217
10.1254
10.0758
10.1233
10.0917
10.0693
10.1243
10.1242
10.1246
10.1248
10.1233
10.0998
10.0802
10.1141
10.077
10.1247
10.1237
10.125
10.1215
10.0844
10.1221
10.1239
10.0638
10.1231
10.0797
10.0346
10.123
10.1223
10.1196
10.1125
10.067
10.1238
10.1231
10.1228
10.0517
10.0626
10.1144
10.1233
10.1255
10.121
10.0874
10.1184
10.1247
10.0676
10.1231
10.1239
10.1155
10.1111
10.1201
10.1222
10.1159
10.1247
10.1188
10.0705
10.0997
10.1225
10.1229
10.1148
10.1206
10.127
10.1227
10.1231
10.1057
10.1046
10.1236
10.1229
10.1162
10.1237
10.1233
10.1228
10.1166
10.1196
10.1191
10.1242
10.1301
10.1172
10.1186
10.122
10.1214
10.1232
10.1225
10.122
10.1192
10.1178
10.1137
10.1173
10.1157
10.1157
10.1123
10.1118
10.1214
10.1137
10.1206
10.1131
10.1221
10.1169
10.1254
10.1216
10.1209
10.1219
10.1148
10.1158
10.0833
10.1216
10.1224
10.1195
10.1211
10.1206
10.1244
10.1209
10.119
10.11
10.1201
10.1196
10.1187
10.1167
10.1238
10.1226
10.1169
10.1188
10.1133
10.1192
10.1199
10.1225
10.1185
10.1201
10.1236
10.1068
10.1201
10.1181
10.1185
10.1179
10.1194
10.0981
10.1217
10.1186
10.1165
10.1171
10.1194
10.1265
10.1138
10.1044
10.1176
10.1117
10.1164
10.1162
10.1184
10.1123
10.1183
10.1169
10.119
10.1146
10.1184
10.1149
10.1161
10.0943
10.0924
10.0886
10.1026
10.1208
10.1132
10.0953
10.1145
10.1193
10.1171
10.1173
10.0864
10.119
10.1194
10.1206
10.1245
10.1182
10.1238
10.12
10.1219
10.1268
10.1237
10.1214
10.091
10.119
10.1236
10.1224
10.119
10.1195
10.1257
10.1189
10.1258
10.1235
10.1188
10.1183
10.1198
10.1174
10.099
10.1336
10.119
10.1205
10.1163
10.1098
10.1239
10.116
10.0923
10.1142
10.088
10.1126
10.1226
10.1065
10.087
10.1197
10.1081
10.1326
10.118
10.0933
10.1143
10.1191
10.1246
10.0897
10.1207
10.1203
10.1198
10.1138
10.0868
10.1229
10.1198
10.1041
10.105
10.1152
10.111
10.1194
10.0979
10.0924
10.0896
10.1146
10.0865
10.1201
10.1337
10.0903
10.105
10.0943
10.1021
10.0955
10.1203
10.1019
10.1099
10.1319
10.1216
10.1222
10.1248
10.1185
10.1199
10.1219
10.1131
10.1331
10.1005
10.0954
10.1209
10.1172
10.0837
10.0908
10.1092
10.1031
10.0981
10.1133
10.1256
10.1033
10.0972
10.093
10.1156
10.1178
10.1119
10.0919
10.1218
10.1205
10.0941
10.1214
10.1226
10.1195
10.1147
10.1218
10.1226
10.1198
10.1219
10.121
10.1161
10.1191
10.1211
10.1126
10.1199
10.0991
10.1189
10.1141
10.1175
10.1185
10.1197
10.1155
10.1083
10.1067
10.0886
10.1183
10.0978
10.1205
10.1164
10.1169
10.1004
10.1248
10.1213
10.1222
10.1196
10.091
10.0972
10.1245
10.1164
10.124
10.118
10.1163
10.1229
10.0966
10.1259
10.1136
10.1051
10.1181
10.1159
10.1154
10.0979
10.1222
10.1301
10.1071
10.1052
10.1156
10.1222
10.1133
10.1086
10.1198
10.1115
10.1249
10.101
10.1202
10.1212
10.1163
10.1204
10.1188
10.1181
10.1167
10.1152
10.1247
10.1112
10.1126
10.118
10.1062
10.1056
10.1062
10.1132
10.1102
10.1188
10.1266
10.1176
10.1179
10.1216
10.1034
10.1134
10.0592
10.1173
10.0904
10.1143
10.1154
10.121
10.1161
10.1262
10.1184
10.1163
10.1163
10.108
10.1147
10.1188
10.1166
10.1201
10.117
10.1231
10.1048
10.1152
10.119
10.1178
10.1109
10.1118
10.1166
10.1191
10.1263
10.1201
10.1167
10.1262
10.1239
10.1219
10.1146
10.122
10.12
10.1174
10.1199
10.1143
10.1137
10.1116
10.1155
10.1209
10.131
10.1187
10.122
10.1114
10.1155
10.1166
10.1178
10.12
10.121
10.1305
10.1062
10.1005
10.1191
10.1162
10.1081
10.109
10.1172
10.1159
10.1152
10.1162
10.0991
10.1035
10.1174
10.1178
10.1175
10.1001
10.1232
10.1197
10.1155
10.1189
10.113
10.1245
10.1016
10.1227
10.1158
10.1222
10.1162
10.1137
10.1128
10.1221
10.1202
10.0981
10.1141
10.1173
10.121
10.1146
10.1023
10.1237
10.122
10.1137
10.126
10.1216
10.113
10.1142
10.1133
10.1217
10.1128
10.1135
10.1278
10.1176
10.1119
10.1193
10.1161
10.1259
10.1138
10.1254
10.1236
10.1132
10.116
10.1146
10.1207
10.1141
10.1161
10.116
10.1176
10.1131
10.0511
10.1227
10.1219
10.1162
10.1172
10.1138
10.1221
10.1265
10.1237
10.1142
10.1188
10.1228
10.1288
10.1166
10.1141
10.1157
10.1233
10.1144
10.1175
10.1192
10.1154
10.1219
10.1284
10.1215
10.1147
10.1216
10.1169
10.1191
10.1157
10.1217
10.1196
10.1128
10.0926
10.1194
10.1173
10.1232
10.1153
10.1238
10.1052
10.1222
10.1161
10.0913
10.1223
10.1217
10.1161
10.1133
10.1171
10.1208
10.1183
10.1137
10.117
10.0751
10.1235
10.1239
10.1192
10.1234
10.0867
10.1081
10.1134
10.0735
10.1191
10.1212
10.124
10.1132
10.1196
10.1117
10.1256
10.1183
10.1199
10.124
10.1126
10.1222
10.1224
10.0883
10.1139
10.105
10.11
10.1218
10.1191
10.1238
10.1203
10.1141
10.1159
10.1076
10.1134
10.115
10.0852
10.1241
10.1084
10.0955
10.1016
10.1247
10.0968
10.1097
10.1163
10.124
10.1231
10.1234
10.1232
10.1299
10.117
10.1222
10.1135
10.1238
10.1116
10.1135
10.1294
10.1149
10.1242
10.1098
10.1127
10.118
10.1187
10.0997
10.12
10.1246
10.1203
10.1165
10.1174
10.1085
10.0995
10.1138
10.1062
10.1186
10.1222
10.1239
10.0963
10.1183
10.1224
10.1251
10.1228
10.1181
10.124
10.1244
10.0973
10.1125
10.1255
10.1009
10.1245
10.1181
10.1053
10.0971
10.1245
10.1222
10.1238
10.1084
10.1276
10.1041
10.1256
10.0947
10.1239
10.1118
10.1136
10.122
10.1241
10.1016
10.1223
10.0991
10.1094
10.093
10.1002
10.1041
10.1241
10.0958
10.0965
10.0996
10.1238
10.0877
10.1242
10.1245
10.124
10.1014
10.0967
10.1254
10.1079
10.0871
10.0937
10.1238
10.1239
10.1239
10.0866
10.1216
10.0993
10.0917
10.1238
10.1246
10.0946
10.1243
10.091
10.124
10.1178
10.123
10.1222
10.1239
10.1252
10.1254
10.0348
10.1035
10.1241
10.1191
10.1238
10.1211
10.1199
10.0759
10.1237
10.1249
10.1237
10.0896
10.0702
10.1245
10.1234
10.1249
10.1238
10.1242
10.1223
10.0322
10.1237
10.0866
10.0902
10.0572
10.0529
10.1238
10.1191
10.1246
10.122
10.1295
10.124
10.0851
10.1091
10.0848
10.0782
10.1239
10.124
10.1046
10.0815
10.1256
10.0918
10.1223
10.1221
10.103
10.0347
10.1228
10.0989
10.0801
10.0659
10.1224
10.0769
10.06
10.0481
10.1249
10.1039
10.1226
10.0912
10.0898
10.0973
10.0957
10.0652
10.1159
10.0432
10.1238
10.0741
10.1182
10.0728
10.092
10.0306
10.0759
10.1169
10.1225
10.0693
10.1238
10.0853
10.1214
10.1003
10.1237
10.1181
10.1255
10.1237
10.1032
10.0763
10.0721
10.1233
10.1236
10.1228
10.0534
10.0709
10.0644
10.1041
10.0851
10.0841
10.0959
10.0941
10.1229
10.1233
10.1256
10.0686
10.112
10.1237
10.0811
10.0824
10.0836
10.1119
10.085
10.1226
10.0944
10.0822
10.1157
10.0935
10.1153
10.0276
10.0971
10.0899
10.1033
10.0852
10.1235
10.1024
10.0987
10.1061
10.1256
10.0802
10.1227
10.1255
10.0916
10.0999
10.0499
10.0997
10.1076
10.1123
10.1056
10.1179
10.1078
10.1077
10.1084
10.0892
10.1088
10.0772
10.1236
10.1226
10.1128
10.1193
10.1003
10.1048
10.1253
10.1045
10.0522
10.0902
10.1227
10.1228
10.1212
10.1075
10.1092
10.1215
10.1237
10.1228
10.0744
10.1225
10.1227
10.0611
10.0736
10.1255
10.1165
10.1146
10.122
10.1208
10.1223
10.1237
10.1224
10.0777
10.1222
10.1226
10.1256
10.1235
10.1192
10.1226
10.1233
10.1211
10.1226
10.1225
10.1225
10.0856
10.11
10.1133
10.1146
10.1254
10.0841
10.1228
10.12
10.122
10.0946
10.1149
10.1235
10.1118
10.1235
10.1183
10.1196
10.0961
10.1187
10.0599
10.1223
10.1224
10.1238
10.1196
10.1136
10.1099
10.1171
10.1187
10.122
10.1161
10.1226
10.1128
10.1224
10.1224
10.1215
10.1131
10.1252
10.1218
10.0577
10.1179
10.1201
10.0714
10.1226
10.1224
10.1206
10.1218
10.122
10.1222
10.1232
10.1238
10.1231
10.1253
10.1234
10.1217
10.1222
10.1218
10.1215
10.1224
10.1257
10.1231
10.1236
10.1225
10.124
10.1235
10.1222
10.1224
10.1223
10.1174
10.1158
10.1202
10.1157
10.1218
10.1208
10.1241
10.0583
10.0546
10.124
10.0551
10.1232
10.0511
10.1227
10.0522
10.0459
10.1219
10.1238
10.1226
10.1168
10.1088
10.1062
10.1192
10.1094
10.0581
10.0896
10.1355
10.1228
10.1062
10.1211
10.1215
10.0686
10.1235
10.0577
10.1215
10.1188
10.0597
10.12
10.0532
10.1225
10.1013
10.1238
10.1215
10.0666
10.0484
10.0582
10.1251
10.1252
10.0537
10.1253
10.1096
10.0483
10.1221
10.1252
10.1214
10.1181
10.1182
10.1268
10.1227
10.1206
10.1185
10.1187
10.1194
10.1198
10.1261
10.1231
10.1231
10.1247
10.121
10.1184
10.1184
10.1264
10.1199
10.1229
10.12
10.1316
10.1256
10.099
10.1228
10.0938
10.0975
10.126
10.124
10.1229
10.1226
10.1256
10.1233
10.1078
10.1337
10.1201
10.1195
10.0629
10.1253
10.1245
10.1236
10.1234
10.0959
10.1219
10.125
10.064
10.123
10.1234
10.1202
10.1172
10.1239
10.0542
10.1199
10.1197
10.1233
10.1246
10.1052
10.1256
10.1205
10.1014
10.0888
10.1256
10.0667
10.1238
10.0565
10.1241
10.1197
10.1238
10.1202
10.0662
10.0918
10.1245
10.1189
10.0687
10.122
10.1227
10.1234
10.1174
10.0878
10.1254
10.1183
10.1164
10.1237
10.1254
10.1256
10.124
10.0805
10.1153
10.1242
10.1246
10.1075
10.1252
10.1191
10.121
10.1221
10.1252
10.1249
10.1248
10.1203
10.1226
10.1236
10.0534
10.0529
10.1226
10.1253
10.1256
10.1256
10.1229
10.0513
10.0656
10.1229
10.137
10.1268
10.1328
10.1264
10.1226
10.1255
10.0531
10.1084
10.1265
10.1183
10.104
10.0563
10.086
10.1192
10.1256
10.1194
10.045
10.1226
10.0464
10.1256
10.1312
10.1256
10.106
10.0812
10.1236
10.1246
10.1252
10.1256
10.1241
10.1239
10.0934
10.124
10.1185
10.1231
10.0568
10.1197
10.046
10.1255
10.0544
10.1227
10.1316
10.0745
10.1256
10.119
10.0859
10.1085
10.0894
10.1137
10.1198
10.1184
10.1132
10.1198
10.1161
10.1247
10.1256
10.0495
10.1229
10.1
10.1201
10.1241
10.1237
10.0624
10.0557
10.1237
10.12
10.1125
10.1246
10.1256
10.1258
10.12
10.1237
10.1248
10.1179
10.1231
10.1234
10.1216
10.1244
10.1242
10.0594
10.1186
10.1367
10.1206
10.1235
10.055
10.1251
10.1343
10.0533
10.1017
10.1229
10.1255
10.0573
10.1194
10.1218
10.1239
10.1346
10.1178
10.1189
10.1215
10.1248
10.1256
10.1342
10.1263
10.1218
10.1037
10.1238
10.1255
10.0975
10.068
10.1197
10.1256
10.0798
10.1236
10.1191
10.1208
10.0572
10.0779
10.1256
10.0532
10.1226
10.1212
10.089
10.1256
10.1221
10.1014
10.1191
10.1172
10.0653
10.1015
10.0554
10.124
10.1297
10.0528
10.124
10.1008
10.1243
10.1255
10.1256
10.0544
10.1252
10.1041
10.1233
10.1299
10.1169
10.1242
10.123
10.0495
10.1225
10.1237
10.1226
10.0694
10.0412
10.0681
10.1175
10.0511
10.1097
10.124
10.1249
10.0479
10.1252
10.1179
10.1248
10.0306
10.1239
10.1193
10.0551
10.066
10.1256
10.0488
10.1256
10.1149
10.1218
10.1269
10.1231
10.1332
10.1255
10.1323
10.0879
10.1169
10.1256
10.1057
10.1239
10.1222
10.125
10.1191
10.1107
10.1192
10.1258
10.1208
10.1256
10.1192
10.0642
10.1256
10.1211
10.057
10.1256
10.1015
10.1212
10.1351
10.1248
10.133
10.0532
10.124
10.1338
10.1242
10.1039
10.0512
)
;

boundaryField
{
    back
    {
        type            empty;
    }
    front
    {
        type            empty;
    }
    top
    {
        type            zeroGradient;
    }
    outer_arc
    {
        type            zeroGradient;
    }
    bottom
    {
        type            uniformFixedValue;
        uniformValue    
        {
            type            table;
            format          csv;
            file            "outlet_p.csv";
            nHeaderLine     1;
            refColumn       0;
            componentColumns List<label> 1(1);
            separator       ",";
            mergeSeparators 0;
        }
        value           uniform 10.052;
    }
    inner_arc
    {
        type            zeroGradient;
    }
}


// ************************************************************************* //
