/*--------------------------------*- C++ -*----------------------------------*\
  =========                 |
  \\      /  F ield         | OpenFOAM: The Open Source CFD Toolbox
   \\    /   O peration     | Website:  https://openfoam.org
    \\  /    A nd           | Version:  9
     \\/     M anipulation  |
\*---------------------------------------------------------------------------*/
FoamFile
{
    format      ascii;
    class       surfaceScalarField;
    location    "2";
    object      phi;
}
// * * * * * * * * * * * * * * * * * * * * * * * * * * * * * * * * * * * * * //

dimensions      [0 3 -1 0 0 0 0];

internalField   nonuniform List<scalar> 
2420
(
-1.04597e-08
-4.21598e-08
5.26195e-08
2.25929e-08
-2.25929e-08
1.13396e-06
-6.26211e-07
-5.07752e-07
-4.7772e-07
4.7772e-07
-1.00058e-06
3.82662e-07
6.17916e-07
-1.3452e-07
7.64599e-08
5.80604e-08
6.13749e-07
5.20215e-07
-8.70424e-07
1.15724e-07
7.547e-07
1.29315e-06
-1.6515e-06
3.58346e-07
-7.57999e-07
-2.42579e-07
-4.45064e-07
2.94406e-07
1.50658e-07
-8.56672e-08
-3.59397e-07
-8.70424e-07
-9.48018e-08
-7.74862e-08
1.72288e-07
-5.30056e-07
3.541e-06
-3.01094e-06
-4.01632e-08
3.29643e-08
7.19885e-09
2.11763e-07
2.05148e-07
-4.16912e-07
-6.27348e-07
4.04361e-07
2.22987e-07
1.57102e-07
-1.17434e-07
-3.96678e-08
-1.27105e-07
3.23034e-08
-7.23646e-08
2.12589e-07
-1.40224e-07
-1.15985e-07
-7.74758e-07
8.8929e-07
-1.14532e-07
-9.32191e-07
1.57433e-07
-9.69963e-08
8.65367e-08
3.46696e-08
1.77094e-07
-1.13215e-08
-2.88417e-08
-5.45997e-07
-8.87834e-07
1.43383e-06
-1.1863e-06
6.40304e-07
1.92939e-07
-8.73739e-08
-1.05565e-07
-9.26692e-07
-3.58509e-07
1.2852e-06
8.56453e-07
3.98433e-08
-8.96296e-07
-4.3653e-07
4.35527e-07
1.00321e-09
3.17386e-07
6.16923e-07
-9.34309e-07
-2.73118e-07
-3.54229e-07
6.4063e-07
-3.23244e-07
-1.41589e-07
7.06912e-09
2.52743e-08
-2.68143e-09
-3.33407e-08
-4.0319e-07
-2.39732e-08
1.38033e-09
4.3465e-08
-1.1583e-07
8.0199e-07
2.37069e-07
-1.03906e-06
3.36659e-07
-3.7e-07
6.51892e-08
2.69019e-08
-9.20911e-08
1.42765e-08
-3.23109e-08
1.80344e-08
-1.48589e-07
-3.29131e-07
2.75494e-07
2.02226e-07
3.19196e-08
-1.76431e-08
-8.79935e-08
4.13786e-07
-3.25792e-07
-4.39974e-08
3.80656e-07
1.51715e-07
-7.52549e-08
2.30242e-07
-4.0446e-07
-1.25596e-07
-9.22773e-07
-7.28722e-07
1.13561e-06
-3.9427e-07
-7.4134e-07
5.08209e-07
5.85559e-07
-1.09377e-06
2.79968e-08
-8.84807e-09
-1.91487e-08
2.58972e-07
3.54339e-08
-4.09313e-07
6.03808e-07
-1.94495e-07
1.00376e-06
-4.95552e-07
2.21925e-07
-1.14862e-06
-1.75132e-07
1.80098e-07
-4.96595e-09
1.01227e-07
-1.43387e-07
-9.35226e-07
1.05095e-06
-3.56405e-07
6.45168e-08
2.91888e-07
-1.08502e-06
7.26507e-07
5.23427e-07
-7.75346e-07
2.51919e-07
-1.70952e-07
3.88771e-07
-2.17818e-07
7.01473e-07
-9.74591e-07
-1.30201e-07
8.802e-08
-4.71267e-07
1.68146e-07
-2.42648e-07
7.45016e-08
8.13673e-07
2.72733e-06
-2.51913e-07
4.04025e-07
-1.52112e-07
2.88715e-09
8.29888e-08
-8.5876e-08
-1.11534e-06
-7.0959e-08
-2.84599e-07
9.86072e-07
7.14618e-08
7.48983e-08
1.18041e-07
-2.45656e-07
-1.10748e-07
3.37478e-08
-3.08607e-08
7.77846e-07
3.57764e-07
1.6611e-07
-1.00921e-07
1.0735e-07
1.67749e-07
-2.751e-07
1.88029e-06
-1.92909e-06
4.87917e-08
2.7431e-07
-5.26224e-07
2.14857e-07
-4.6711e-08
-4.52766e-08
-2.07271e-08
6.60037e-08
1.8793e-07
-8.88105e-07
7.00175e-07
-9.67913e-07
1.15584e-06
2.9689e-07
-8.04642e-07
1.23032e-07
3.407e-08
1.34275e-07
-2.22268e-07
-9.48049e-10
-5.89255e-08
5.98735e-08
3.26942e-08
-1.50128e-07
6.32695e-07
-1.09268e-07
-5.10795e-07
1.01482e-07
-8.57277e-07
8.9712e-07
-4.67058e-07
1.79412e-07
2.87647e-07
7.23294e-07
-4.26403e-07
3.37945e-07
-4.15934e-07
7.7989e-08
1.15568e-07
2.98217e-07
3.1814e-07
1.98045e-08
-1.09516e-06
3.72317e-07
7.22841e-07
-4.09716e-08
-1.3416e-07
-1.3583e-06
4.87849e-07
8.70454e-07
1.80925e-08
-1.05466e-07
-1.94853e-07
-2.72205e-07
5.95687e-07
-1.01284e-08
-1.31431e-08
-3.3012e-07
3.43263e-07
1.12311e-07
-1.97978e-07
2.91604e-07
3.04083e-07
3.12616e-07
-2.05265e-07
1.37563e-06
-4.38901e-07
-9.36727e-07
9.12381e-07
-9.74663e-07
-3.8364e-07
4.55219e-07
1.1727e-07
-1.62547e-07
-3.26921e-07
-7.68237e-07
2.89744e-07
1.86027e-09
2.65321e-07
1.01463e-07
-3.66784e-07
3.69201e-07
-9.97604e-07
6.28403e-07
-7.18799e-08
-7.24386e-07
7.96266e-07
3.47644e-07
2.85051e-07
-1.11447e-06
3.80692e-07
7.33782e-07
-3.2228e-07
2.78283e-07
1.06695e-07
-1.07643e-07
2.50896e-08
7.87475e-09
1.75104e-07
-3.71933e-07
1.96829e-07
1.75827e-07
-2.99834e-07
1.24007e-07
-3.41361e-07
3.28218e-07
-1.2938e-06
3.58575e-07
-6.33478e-07
-4.80995e-07
-5.33477e-08
5.33477e-08
1.53809e-08
1.66387e-08
-3.20196e-08
-5.79684e-07
-3.7689e-07
9.56574e-07
-4.0446e-07
-8.84807e-09
-4.49488e-07
-3.25858e-07
1.00376e-06
-3.04702e-08
1.91487e-08
3.04702e-08
-1.81178e-08
-1.23523e-08
-1.51734e-07
-2.04499e-07
3.56233e-07
2.24077e-07
4.16912e-07
-6.40989e-07
2.04499e-07
6.08219e-08
1.50647e-07
-3.56233e-07
2.05586e-07
-2.05809e-07
4.95552e-07
-2.22845e-10
2.05809e-07
-2.05586e-07
-1.05597e-06
1.03119e-06
2.47805e-08
1.05597e-06
-8.34048e-07
-1.03119e-06
6.40989e-07
3.90204e-07
-6.08219e-08
4.64847e-07
-4.64847e-07
8.34048e-07
-2.20123e-06
2.72143e-07
-2.49956e-08
-2.97284e-07
-1.43688e-07
2.08205e-07
3.21969e-07
-5.8703e-07
2.65061e-07
4.00965e-07
7.24843e-08
4.72616e-07
-1.81974e-07
-1.9765e-07
3.79624e-07
-1.43254e-06
5.09772e-07
-2.33368e-07
-3.53662e-07
-3.85102e-07
-2.16344e-07
-2.94451e-07
-1.61656e-06
8.02108e-07
-1.24101e-06
-6.82899e-08
1.20466e-06
-1.48926e-06
5.99545e-07
-3.94396e-07
-8.45062e-07
-3.94945e-07
1.24001e-06
2.52935e-07
-2.53158e-07
-1.41903e-06
4.65064e-07
9.53967e-07
-9.31182e-07
2.25829e-07
-5.00017e-08
-2.18262e-07
1.42293e-06
1.05914e-07
2.63074e-07
-3.68989e-07
-1.07659e-07
-1.94458e-08
-1.98187e-06
-1.13625e-06
2.91185e-07
1.95578e-08
1.32157e-07
-6.24037e-07
5.52157e-07
4.58629e-08
-2.88435e-08
-1.70194e-08
-4.28654e-07
9.02947e-08
3.38359e-07
-4.05481e-08
7.42959e-08
-3.22739e-07
-1.50781e-07
-1.00186e-06
1.15264e-06
-8.52122e-07
-2.84126e-07
-3.28813e-08
5.70414e-10
6.72614e-08
1.12836e-07
9.56677e-07
-9.24146e-07
-3.25309e-08
-6.02899e-07
8.33141e-07
-4.539e-07
6.60065e-08
3.87894e-07
-3.52552e-08
8.05895e-07
-3.63605e-07
-6.99673e-08
4.92402e-08
-9.9515e-07
1.43028e-07
1.61176e-07
-5.71756e-07
4.10581e-07
-3.48473e-07
5.09649e-07
-7.39517e-07
1.15376e-06
-4.14247e-07
6.68405e-08
1.45748e-07
-4.26245e-07
3.4164e-07
8.46058e-08
-8.81029e-07
-4.31166e-08
-2.20513e-07
3.95617e-07
9.80274e-08
5.18896e-07
7.47859e-07
-4.79291e-07
-2.68568e-07
-5.11439e-07
-9.14602e-08
-8.59231e-09
1.1828e-06
1.14178e-08
-1.19077e-07
1.81524e-07
-6.31012e-07
2.83639e-07
3.56991e-07
-1.67441e-07
-1.45326e-08
-4.97861e-08
3.87089e-07
-3.37303e-07
-1.3674e-07
-8.5841e-07
-8.62847e-09
7.46331e-08
3.20193e-07
1.15334e-07
-8.90042e-07
1.03559e-06
-1.4555e-07
-1.06053e-07
4.32866e-07
-4.73326e-07
4.046e-08
-4.43292e-08
4.77195e-07
4.16326e-07
-1.97383e-07
1.92666e-07
4.71622e-09
-4.22769e-07
2.25387e-07
-3.31788e-07
4.14009e-07
-8.22217e-08
2.91788e-08
6.27043e-07
-6.56222e-07
-7.93023e-07
8.22202e-07
2.49416e-07
7.36656e-07
4.30988e-07
-8.93483e-08
-3.57195e-07
2.54071e-08
-4.0732e-07
1.58027e-07
-1.03906e-06
-4.52451e-07
4.08122e-07
1.06487e-07
8.83307e-07
-9.89794e-07
-1.93308e-06
4.7941e-08
-2.0781e-09
8.89503e-07
-7.83016e-07
2.49966e-08
2.83511e-08
-8.61859e-07
-2.8183e-08
-1.43038e-07
9.63266e-08
1.22323e-06
-6.46323e-07
-5.76906e-07
-8.99932e-07
-5.32613e-07
-6.45574e-08
8.98852e-07
-1.12401e-07
1.39303e-07
-3.37021e-07
-6.20543e-07
9.57564e-07
2.3642e-07
5.23692e-08
3.78619e-07
-5.29077e-07
1.38602e-07
3.44761e-07
-4.83363e-07
-8.7478e-07
1.29214e-08
-1.90674e-06
1.68847e-06
3.81113e-07
-2.65779e-07
2.37556e-07
-5.06408e-07
2.68852e-07
3.63875e-07
-1.00801e-07
4.57657e-07
1.95386e-08
2.95629e-07
7.44717e-07
-1.08174e-06
1.29998e-06
-9.8079e-07
-3.19192e-07
3.0018e-07
8.09331e-08
1.81527e-07
-2.06523e-07
3.33488e-07
-4.39541e-07
2.53409e-07
-7.80212e-08
-1.75388e-07
-1.25596e-07
-1.90468e-07
4.39883e-07
1.50597e-08
7.92674e-08
2.84608e-07
1.00661e-06
-2.69956e-07
-3.96938e-07
2.0647e-07
5.28878e-07
6.94351e-07
-2.15262e-07
-6.59518e-07
-9.58978e-07
7.11446e-07
2.47533e-07
7.14104e-07
-2.07148e-07
-5.06956e-07
1.53083e-07
8.09816e-07
-9.62899e-07
1.2389e-06
-1.01103e-06
-2.27879e-07
-4.91046e-07
9.41076e-08
6.4752e-07
-1.05198e-06
2.60102e-06
-1.9535e-06
9.59321e-07
-7.52851e-07
8.19871e-07
-8.52402e-07
4.63532e-07
-3.08531e-07
-1.55002e-07
3.84786e-07
8.56539e-08
9.16205e-07
-1.9503e-08
7.13331e-08
2.43806e-07
-3.15139e-07
8.67401e-07
-1.26235e-06
-7.13278e-07
8.71304e-07
4.63054e-07
-6.00866e-08
-4.02967e-07
7.547e-07
-1.44637e-07
2.83511e-08
4.30939e-07
-2.6377e-07
-1.67169e-07
-3.36664e-07
4.71356e-07
-1.34692e-07
-1.40167e-08
1.48291e-07
-1.40167e-08
-4.35927e-07
4.7047e-07
-3.45435e-08
4.82097e-07
-2.444e-08
-3.84054e-07
4.72554e-07
-8.85e-08
-4.17627e-07
3.53069e-07
9.47416e-07
-4.60996e-07
-4.8642e-07
4.82917e-07
-8.2063e-10
-5.80848e-07
1.04784e-06
-4.66994e-07
-6.31479e-07
8.55556e-07
-4.25587e-07
6.63143e-07
3.63256e-07
2.34139e-07
1.101e-06
4.91777e-07
-8.85907e-09
-3.32555e-07
4.71156e-07
-1.75923e-07
2.47256e-07
1.26868e-07
2.71271e-08
8.73014e-08
-2.27649e-07
3.29131e-07
-2.27649e-07
2.58115e-07
-1.08199e-07
4.52961e-07
6.59602e-07
3.52869e-07
-1.01247e-06
-3.34685e-07
3.87054e-07
1.89026e-08
-6.5749e-08
6.5749e-08
4.10681e-07
-5.76123e-08
7.44065e-07
-1.20506e-06
4.51816e-07
-4.36947e-08
-3.16117e-07
9.75719e-07
3.24739e-07
-4.71642e-07
4.91181e-07
-2.94991e-07
-4.67246e-07
-4.70122e-07
-1.1434e-08
4.81556e-07
5.15567e-07
-7.17709e-08
-3.50998e-07
-1.05198e-06
3.47814e-10
4.12468e-07
3.82656e-07
3.54918e-07
-7.03099e-08
6.31285e-07
-6.31285e-07
4.89698e-07
6.64066e-07
5.55272e-07
-3.71008e-07
4.58309e-07
8.53017e-07
-1.30867e-06
4.5565e-07
-1.81677e-08
5.09944e-07
-4.83076e-07
5.00284e-07
-9.10273e-09
-4.52594e-07
8.48814e-07
-3.9622e-07
4.68301e-07
-4.48933e-07
-1.93677e-08
-4.82187e-08
5.01008e-08
-4.90229e-07
1.34325e-06
5.53359e-07
-6.87354e-07
1.33995e-07
5.12652e-08
-5.12652e-08
-1.9813e-06
-6.02559e-07
6.02559e-07
-8.39507e-07
4.28649e-07
3.75624e-08
-4.66211e-07
3.82559e-08
-3.82559e-08
-4.60356e-07
-1.19843e-08
1.19843e-08
5.27508e-07
-4.99463e-07
-2.80447e-08
5.75328e-07
-5.75328e-07
-9.39014e-07
8.07133e-07
-1.10392e-06
2.96791e-07
7.9916e-07
3.53837e-07
6.01723e-08
-4.42616e-07
2.28077e-07
-3.10298e-07
7.56914e-07
-2.03555e-07
8.64921e-07
-1.18411e-06
-5.37827e-07
-1.49527e-07
-6.46918e-08
4.7716e-07
-4.41267e-07
5.0934e-07
6.33551e-07
-4.8674e-07
4.27376e-07
4.26201e-08
-5.18297e-07
1.008e-06
1.13909e-06
-3.31957e-07
-8.89936e-07
-3.7241e-07
5.02187e-07
-2.06306e-08
5.5479e-07
-4.54501e-08
5.03659e-07
6.28527e-09
-1.39016e-06
1.93177e-07
-7.64653e-07
5.71476e-07
2.61185e-07
-2.37598e-07
-2.35875e-08
1.84179e-07
5.72735e-07
-1.16398e-06
1.52957e-07
1.06153e-06
-3.32614e-07
-7.28919e-07
4.33961e-07
-5.5342e-08
-1.17406e-06
3.63069e-07
-8.81366e-07
2.52743e-08
-3.26922e-07
-7.77002e-07
-4.9618e-07
4.9618e-07
-7.74242e-07
1.5842e-07
6.15822e-07
-6.29957e-07
9.21302e-08
7.34611e-07
4.14272e-07
1.96893e-08
-7.76819e-07
6.46892e-07
1.29928e-07
-2.7521e-07
8.99645e-08
-8.82988e-07
-5.2804e-07
-1.01917e-07
3.66418e-08
5.18148e-07
5.44175e-07
-3.50998e-07
-5.90064e-07
-4.56946e-08
-5.30376e-07
5.76071e-07
5.40301e-07
6.98821e-08
-5.82425e-07
5.12543e-07
-2.87604e-07
8.76493e-07
-5.88889e-07
9.73271e-07
4.93084e-07
3.66987e-07
4.53303e-07
6.60959e-07
-1.11426e-06
-4.72012e-07
6.62535e-07
-5.81421e-07
-8.11139e-08
5.8803e-07
4.28768e-07
7.48193e-09
-4.3625e-07
-6.18399e-07
-6.35166e-07
-2.86628e-07
9.21794e-07
-7.7408e-08
5.06057e-07
4.91091e-07
-9.05338e-07
-3.09991e-07
3.09991e-07
-2.18096e-07
8.64987e-07
6.07093e-07
-6.81136e-08
-5.3898e-07
9.57633e-07
-5.94564e-07
5.18124e-07
2.21771e-08
-5.39357e-07
6.31487e-07
-8.53262e-07
-6.02323e-07
-8.51715e-08
6.87494e-07
1.08748e-06
-9.09452e-07
3.07129e-07
3.87452e-07
-7.54558e-07
1.20786e-06
4.36097e-07
6.83462e-07
-1.11956e-06
-6.02702e-07
1.37103e-06
-7.68327e-07
-5.63373e-07
6.97368e-07
-1.35726e-06
-5.81184e-07
-1.07304e-07
6.88488e-07
5.55818e-07
-6.50108e-07
9.429e-08
-5.78114e-07
3.87571e-08
-2.48493e-07
6.16841e-07
-5.10549e-07
7.73982e-07
-2.63433e-07
2.59096e-08
-6.11946e-07
1.04804e-06
1.95029e-07
3.49146e-07
-3.76088e-07
-5.99902e-08
6.50704e-07
-7.00886e-08
-5.80616e-07
5.17115e-07
2.56867e-07
8.1988e-07
-3.02765e-07
4.54248e-07
-1.0041e-07
6.25019e-07
8.65935e-07
3.61873e-07
-1.22781e-06
5.20318e-07
2.99561e-07
8.13374e-07
-2.93056e-07
-6.41205e-07
-3.17682e-07
9.58886e-07
6.92807e-07
-5.92484e-08
-6.33559e-07
-3.59894e-07
-4.93726e-07
8.5362e-07
4.74586e-07
-9.60402e-07
1.83399e-07
6.36665e-07
1.40394e-08
7.15683e-07
6.55346e-07
-6.05096e-07
-3.09805e-07
9.14901e-07
-9.41316e-07
1.10353e-06
-6.20416e-07
-4.8311e-07
2.21297e-07
-9.50216e-07
5.21001e-08
-5.4669e-07
4.9459e-07
-3.8981e-07
1.25575e-06
-6.08604e-07
6.97029e-07
-8.84251e-08
7.66592e-07
1.06614e-06
-1.03263e-06
-3.35133e-08
-3.91549e-07
9.50159e-07
-5.58609e-07
-8.91724e-07
-6.85982e-07
7.91443e-07
-1.05462e-07
6.098e-07
2.8059e-07
7.48748e-08
9.9127e-07
-9.74196e-07
1.10079e-07
8.64117e-07
5.03569e-07
2.134e-07
-1.10696e-06
8.9356e-07
-3.32481e-07
8.04794e-07
-4.72313e-07
7.60796e-07
1.97871e-07
-9.58668e-07
1.28345e-06
-5.67768e-07
-1.0035e-06
-1.20756e-06
5.87139e-07
6.96032e-07
2.7707e-07
-9.73102e-07
6.55712e-07
2.94447e-07
-5.51151e-07
1.71477e-07
3.79674e-07
5.97219e-07
8.00342e-07
-8.04267e-07
-2.28364e-07
7.45087e-07
3.02956e-07
5.63158e-07
4.32759e-07
-9.95917e-07
-9.03153e-07
2.17171e-07
8.164e-07
-8.98935e-08
4.29456e-07
4.5108e-07
-8.80537e-07
8.81437e-07
2.13317e-07
-1.09475e-06
3.80443e-07
-6.83208e-07
-8.67529e-08
-7.93279e-07
7.11218e-07
8.20607e-08
-6.55982e-07
8.53853e-07
9.9475e-07
-4.31592e-07
7.14634e-07
-2.73869e-07
-4.40765e-07
-7.35401e-07
8.4548e-07
3.54177e-07
-9.62781e-07
-1.96299e-07
1.96299e-07
3.18946e-07
-3.18946e-07
2.13395e-07
-2.13395e-07
1.38033e-09
1.48291e-07
1.02435e-07
-1.02435e-07
2.13112e-07
-2.13112e-07
1.27734e-07
-1.27734e-07
3.61874e-07
-2.04694e-07
2.04694e-07
2.75494e-07
-7.70326e-08
7.70326e-08
1.35777e-07
-1.35777e-07
-2.51974e-07
2.51974e-07
3.1268e-07
-3.1268e-07
-3.19314e-07
9.44056e-07
-6.24742e-07
1.41908e-07
-1.41908e-07
-4.53094e-08
4.53094e-08
-4.83054e-07
9.48417e-07
-4.65363e-07
8.62958e-07
-5.68512e-07
5.11696e-07
4.58962e-07
8.7354e-07
-2.76321e-07
2.01671e-07
-1.00594e-06
-5.52209e-07
-5.44346e-07
7.13573e-07
1.95118e-07
-9.08691e-07
-1.00472e-07
-8.8369e-07
6.15123e-07
2.89605e-07
-1.22829e-07
-1.66776e-07
-5.77506e-07
4.87612e-07
-5.30333e-07
-5.89226e-07
7.34928e-07
-1.3027e-06
1.85557e-07
-6.33053e-07
3.39997e-07
5.89987e-07
-1.35831e-06
-3.99537e-07
-1.51614e-07
-6.26066e-08
-8.21084e-07
-1.02213e-06
4.91799e-07
3.89808e-07
2.28506e-07
-8.23069e-07
-3.64163e-07
5.81335e-07
8.29602e-07
2.06976e-07
1.18453e-07
-2.08835e-07
-2.15632e-07
9.15243e-07
5.16227e-08
7.93857e-07
-4.08637e-07
1.14357e-06
-3.64392e-07
1.24583e-06
-1.09584e-06
3.71042e-07
7.24796e-07
1.10304e-06
-2.52957e-07
-8.50081e-07
5.54226e-07
-5.15884e-07
1.22614e-06
-7.10254e-07
-6.65019e-07
1.09448e-06
-8.02966e-07
8.94031e-07
-9.10651e-08
9.22708e-07
-2.1149e-07
1.23449e-07
-2.5261e-07
-9.21877e-07
6.48008e-07
-7.1271e-07
-1.01089e-06
3.75365e-07
6.35527e-07
-6.59876e-07
5.46829e-07
-9.78421e-07
-9.22078e-07
4.56715e-07
-1.81178e-08
-1.04975e-06
9.45968e-07
1.03781e-07
-1.34161e-07
5.93124e-07
-8.5699e-07
2.88478e-07
6.66121e-07
7.99973e-08
4.47173e-07
7.38647e-07
1.00452e-07
5.86121e-07
-6.86573e-07
-1.06851e-06
6.69751e-07
-5.10626e-07
7.05743e-07
7.29944e-07
5.6112e-07
2.9151e-07
-1.69465e-07
-9.26373e-07
2.07049e-07
6.57938e-07
1.16351e-06
-7.92472e-07
-2.78466e-08
-6.71902e-07
6.12665e-08
6.10635e-07
-4.67182e-07
-3.62884e-07
-5.3982e-07
7.46796e-07
4.45837e-07
-6.62181e-07
-3.75249e-07
-5.89374e-07
3.31391e-07
-7.39807e-07
4.08417e-07
-3.24509e-07
-2.3744e-07
7.34315e-07
7.88106e-07
-1.35041e-07
3.3007e-07
3.68433e-07
5.75623e-07
-6.20279e-07
-8.65222e-07
-2.05672e-07
1.07089e-06
1.87073e-07
4.12472e-07
-6.74383e-07
-2.3271e-07
7.3628e-07
-3.28447e-07
9.98198e-07
6.09988e-07
3.70789e-07
-9.80778e-07
3.34144e-07
1.86545e-07
-6.4535e-07
4.58805e-07
6.25128e-07
-9.53574e-07
-9.03166e-07
-4.55148e-07
-5.58245e-07
1.28819e-06
1.42836e-07
3.04337e-07
8.83361e-07
-5.27602e-07
-4.78336e-07
8.7317e-07
4.53391e-07
-1.1661e-06
7.98923e-07
-5.47004e-07
3.20924e-07
7.40771e-07
1.02328e-06
-1.05112e-06
-3.34176e-07
8.60484e-07
-5.26308e-07
-5.59877e-07
6.49603e-07
-8.97256e-08
-4.01843e-07
-5.06847e-07
7.98486e-07
-9.67951e-07
-7.69217e-07
-3.45044e-07
1.32038e-07
1.25339e-07
-2.57378e-07
-4.64747e-07
7.49798e-07
-8.79761e-07
-4.77499e-07
-1.18591e-06
2.8274e-07
1.05047e-06
-3.25675e-07
6.6168e-07
1.09359e-06
-5.72135e-07
-5.2145e-07
6.93576e-07
-3.41256e-07
-3.90275e-07
-1.03404e-06
-1.51864e-07
-9.30261e-07
-9.29446e-07
-1.42066e-07
2.35153e-07
-9.30873e-08
-1.13593e-06
-2.89007e-07
8.6463e-07
-1.33491e-06
4.51764e-07
-4.89381e-07
-2.50427e-07
-2.91894e-07
-4.93406e-07
2.60696e-07
-5.64432e-07
1.00955e-07
4.63477e-07
-5.58672e-07
2.86429e-07
2.72244e-07
3.53637e-07
-4.08824e-07
1.14747e-06
-9.93904e-07
-3.41005e-07
-6.55652e-07
8.89877e-07
-3.03756e-07
1.16372e-07
1.02235e-06
-1.13872e-06
1.18221e-07
-7.39104e-07
-1.90953e-07
5.01865e-07
-3.10912e-07
2.5357e-07
-7.69608e-07
5.16038e-07
9.38528e-07
3.90603e-07
-2.0353e-07
4.93869e-07
-1.16825e-06
1.14577e-06
7.57369e-07
-1.22436e-06
6.46633e-07
-1.38338e-07
-1.02564e-06
-4.02749e-07
-5.19986e-07
9.22735e-07
-1.24672e-06
4.44676e-07
-6.27373e-07
1.82696e-07
-7.01579e-07
-2.505e-07
6.62972e-07
-1.00023e-07
-7.18957e-09
1.07213e-07
-8.08371e-07
-6.42064e-07
2.4595e-09
-4.46579e-08
4.21984e-08
1.84889e-07
-5.84426e-07
9.49222e-07
-1.50737e-07
1.23467e-06
-2.43398e-07
3.05898e-07
-8.32206e-07
5.41296e-07
3.48581e-07
1.54564e-07
-4.59959e-07
-1.85392e-07
-7.36133e-07
3.33384e-07
6.0694e-07
-9.51984e-07
3.47942e-07
4.01856e-07
6.23548e-07
-2.01431e-07
1.74138e-07
4.81347e-07
-6.55485e-07
3.29743e-07
6.086e-08
6.14839e-07
-8.65339e-07
2.59776e-07
-1.27738e-07
1.3975e-07
-4.12865e-07
2.73115e-07
-6.98415e-07
-5.92163e-07
-1.39606e-07
-7.3306e-07
8.23742e-07
-9.06816e-08
-4.57718e-07
1.15324e-07
1.44452e-07
-6.42382e-07
6.53947e-07
-1.15646e-08
-5.84719e-07
-5.95233e-07
5.05507e-07
-6.2837e-07
5.37688e-07
-2.97541e-07
-1.35538e-07
-5.06844e-07
7.43843e-07
1.13965e-06
-1.53409e-07
-3.53053e-07
-8.93663e-07
-1.18396e-06
3.91489e-07
-1.6161e-07
6.87515e-07
-4.86085e-07
-1.09148e-07
4.77897e-08
7.76763e-07
-9.8558e-08
-1.46531e-09
-1.05147e-06
-1.20666e-06
1.55541e-07
4.37432e-07
-3.12092e-07
3.4602e-08
1.43447e-07
4.55622e-07
-5.99069e-07
-7.57462e-08
5.53196e-07
-4.7745e-07
1.30496e-06
-7.2171e-07
-5.18475e-08
-1.39891e-07
-4.87481e-07
-7.92144e-08
2.73669e-08
-4.73827e-07
-3.47544e-07
-3.19927e-08
3.79537e-07
-9.15153e-07
-2.7119e-07
5.57619e-07
1.91104e-07
1.38966e-07
2.42185e-07
1.98445e-07
-4.4063e-07
-3.63841e-08
7.85825e-08
-1.18101e-07
-3.91947e-07
5.10047e-07
-5.12086e-08
-3.47411e-07
3.98619e-07
-2.0316e-07
-5.29104e-07
7.03242e-07
-2.2819e-07
4.70375e-07
-4.2329e-07
4.69196e-07
-4.21407e-07
3.64345e-07
-1.08798e-06
2.25283e-07
-3.18371e-07
-6.64641e-07
3.43577e-08
1.56746e-07
1.1217e-06
-2.28136e-07
-7.18377e-07
9.01777e-07
7.64793e-07
-6.15516e-08
1.98007e-07
6.87363e-07
1.83801e-08
4.30827e-08
-9.69123e-08
9.6816e-07
-1.04043e-07
-1.78709e-08
-4.03536e-07
-6.53332e-07
8.36028e-07
-7.68955e-07
1.06575e-06
5.12684e-07
-1.3301e-07
6.32062e-07
-3.59819e-07
-1.01163e-07
2.60538e-09
3.8237e-09
9.1142e-07
-7.62853e-08
-9.06446e-08
1.14302e-08
-7.37964e-08
8.01691e-08
8.96866e-08
-1.65972e-07
4.81069e-07
2.07961e-08
1.34193e-07
-3.07228e-07
1.73035e-07
-6.62685e-07
-1.32822e-07
7.95506e-07
-8.00158e-07
-2.51309e-07
2.97305e-07
5.92395e-07
-4.95466e-08
-6.68831e-07
-3.36242e-07
1.20621e-08
1.42502e-07
1.28274e-07
-6.22706e-08
-5.82516e-07
6.06924e-07
-3.69952e-08
8.30852e-07
6.93733e-07
-2.12387e-07
-2.30674e-07
-2.97761e-07
6.9571e-08
1.6565e-07
-8.18982e-07
1.7686e-07
-1.04356e-06
7.36816e-07
-2.28839e-09
2.51589e-07
-1.11579e-06
8.64197e-07
9.91574e-07
-1.12991e-06
9.31165e-07
2.62467e-07
-1.23335e-07
8.67302e-08
3.66043e-08
-1.02761e-06
1.18315e-06
8.94137e-08
-1.20778e-07
3.13647e-08
1.1568e-06
-1.65224e-07
1.02952e-07
-4.20922e-08
6.15915e-07
-1.11268e-07
2.1848e-07
1.01765e-06
1.40715e-07
-2.51983e-07
-8.77906e-07
-6.71119e-07
-7.39311e-07
9.909e-07
-8.05572e-08
8.34909e-07
-7.54352e-07
8.6769e-07
8.93553e-08
6.91187e-07
-6.51667e-08
-5.36858e-07
6.02024e-07
-5.01989e-07
5.54089e-07
4.03882e-07
-8.00102e-07
8.16194e-07
2.49552e-07
-1.28161e-07
4.01276e-07
-1.06696e-07
-3.90959e-07
2.99591e-07
8.39498e-07
4.99449e-07
-6.17415e-07
2.55111e-07
-1.1066e-07
-2.20497e-07
-2.08074e-07
6.30197e-08
2.6394e-08
9.28919e-07
-2.85676e-07
9.81707e-07
8.81143e-07
-7.00383e-07
-1.80761e-07
-2.33725e-07
1.07322e-06
-9.88446e-09
2.64363e-08
-1.65518e-08
1.2695e-07
-2.56662e-08
6.36401e-07
-1.80779e-07
-4.72076e-07
8.81163e-07
-4.09087e-07
2.57367e-07
-3.90378e-07
4.44268e-08
6.98594e-07
-7.88741e-08
-8.44696e-07
1.85178e-07
-3.38598e-07
7.97134e-07
-1.03086e-06
-1.07369e-07
-1.02254e-06
8.51451e-07
-7.26162e-07
-1.25289e-07
3.33862e-07
-1.05785e-07
-3.14572e-07
8.60093e-07
-5.4552e-07
-5.09631e-07
1.04148e-06
-5.31853e-07
5.49233e-07
4.708e-08
-1.53776e-07
-1.27795e-07
-6.15277e-07
-5.08639e-07
-7.37854e-08
-6.20949e-07
-2.49662e-07
-2.59283e-07
-9.48147e-07
-2.20348e-07
-4.35137e-07
1.06208e-06
5.79399e-07
-3.32864e-09
3.7684e-07
-6.88653e-07
-3.72104e-07
1.06076e-06
-1.20453e-06
2.00082e-07
1.00445e-06
-2.01625e-08
-5.60453e-07
4.24014e-07
2.59027e-08
9.05262e-07
2.47105e-07
6.41447e-07
5.36879e-07
-1.08337e-07
9.0547e-07
2.89084e-08
-1.49687e-07
-8.82131e-08
1.49658e-06
-1.40837e-06
-6.26889e-08
3.73514e-07
1.354e-08
-4.57793e-07
-1.25033e-07
4.7125e-07
-4.91881e-07
1.15828e-07
-4.2792e-07
-1.03525e-06
9.27879e-07
1.9251e-07
2.75436e-07
4.93031e-08
-8.50735e-07
9.8271e-07
-1.31974e-07
-1.26498e-07
-6.69379e-07
9.94086e-07
-3.24707e-07
-7.69946e-07
7.29567e-07
4.03788e-08
4.41399e-07
-2.32889e-07
3.83998e-07
6.23865e-08
-4.46384e-07
-3.96493e-07
-2.68149e-07
7.72807e-07
5.18155e-07
3.41937e-07
2.72277e-08
-2.06558e-07
1.7933e-07
7.55523e-07
-5.65489e-07
-2.91518e-07
4.66446e-08
-2.72613e-07
3.97237e-08
7.78039e-07
-7.31394e-07
-2.75336e-07
-1.16495e-06
9.99723e-07
-9.55854e-07
-7.93936e-08
1.43351e-07
-3.72503e-07
8.09851e-08
2.32518e-07
-5.12325e-08
1.03394e-06
-3.67699e-08
4.7503e-09
-4.40815e-07
-4.53971e-07
4.54319e-07
2.33451e-07
4.53891e-07
5.21654e-08
-1.00709e-06
1.1399e-08
3.3453e-08
2.27732e-07
-2.55195e-07
8.04451e-07
-5.71932e-07
4.11226e-07
5.26944e-07
-7.30529e-08
3.48258e-07
6.29675e-08
-9.92166e-07
8.73812e-09
9.83428e-07
8.69772e-09
-5.47677e-07
8.24168e-07
-1.04505e-06
1.94064e-08
4.6672e-07
6.02238e-08
-4.18611e-07
1.25721e-08
4.06039e-07
-1.03365e-06
8.50343e-08
-1.52927e-07
6.78928e-08
3.63636e-07
-2.42452e-08
-6.90336e-07
1.29593e-07
5.60742e-07
-1.4054e-07
-2.28448e-07
-2.43704e-07
5.23416e-07
-3.23742e-07
3.25537e-07
-1.04938e-06
5.62636e-07
-3.81708e-07
-8.22822e-07
3.18486e-07
-4.1712e-07
5.32689e-07
-2.72342e-07
5.67335e-08
2.15608e-07
-4.31762e-07
3.50967e-08
3.96665e-07
2.39371e-08
-1.34597e-07
-4.94642e-07
5.29107e-07
-3.93204e-07
-9.7276e-07
-4.47692e-07
-5.30034e-07
-2.32621e-07
-3.97206e-08
-2.89316e-07
4.56119e-08
9.79028e-07
-2.2911e-06
1.31207e-06
-3.89651e-07
9.10337e-07
-7.25159e-07
1.11487e-06
1.43139e-06
-9.21617e-07
-3.91997e-07
-6.98358e-07
2.23282e-07
2.48184e-07
-1.02561e-07
1.27372e-08
3.11251e-07
4.62704e-07
-8.58644e-08
-1.00957e-06
1.02142e-06
-7.44348e-07
9.19075e-07
2.70458e-07
-1.24165e-06
9.71192e-07
-5.33221e-07
1.02279e-06
-4.89566e-07
9.31996e-07
1.9193e-07
5.53266e-08
8.81791e-07
-2.43436e-07
-4.58802e-08
-5.06125e-07
-2.79563e-09
5.0892e-07
6.91015e-07
-8.71776e-07
-1.49459e-06
4.45218e-07
-3.04161e-08
-1.02538e-06
8.9341e-07
1.08485e-06
-1.52849e-07
9.25098e-07
-1.36636e-06
-2.95444e-07
5.20083e-08
9.39295e-07
-3.4671e-08
-1.18969e-06
-4.62459e-07
-1.56363e-07
1.83408e-07
2.62458e-07
9.44798e-07
2.28604e-07
6.20358e-08
-2.90639e-07
-1.56633e-07
-8.16127e-07
-5.54771e-08
-7.14469e-07
9.56368e-07
-6.14431e-07
8.2604e-07
-9.1701e-07
9.09701e-08
5.8098e-08
2.71029e-07
-9.05047e-09
5.58275e-08
-4.6777e-08
1.0802e-06
-1.60869e-07
-1.20975e-06
9.34544e-07
9.12644e-07
9.18052e-08
5.30911e-07
-1.81764e-07
-1.29856e-06
9.26147e-07
1.13638e-06
-3.9971e-07
-2.83498e-07
-6.9808e-07
-3.27304e-07
-4.86466e-07
3.70042e-07
-2.41233e-07
1.89699e-08
2.22263e-07
3.69498e-08
4.04856e-07
-9.38078e-07
6.27056e-07
-2.03542e-06
-3.64014e-07
-3.33372e-07
-6.32735e-07
-1.02501e-06
4.40217e-07
-1.3714e-06
6.19715e-07
-8.58377e-07
7.33088e-07
6.76467e-07
-5.85402e-07
-1.40241e-07
1.6903e-07
1.74437e-07
-4.17671e-07
6.97969e-08
4.5931e-07
-9.83536e-07
8.47135e-08
-7.24314e-07
-2.147e-07
1.05222e-06
-1.88027e-07
-2.08162e-07
3.59341e-07
8.57166e-07
7.16883e-08
1.57635e-07
7.79128e-07
-2.07652e-07
1.48361e-06
2.24422e-07
1.03552e-06
-3.25265e-07
1.17201e-06
-5.64387e-07
4.90601e-07
2.30329e-07
-9.41735e-07
4.70934e-08
1.45765e-07
-1.26795e-07
1.38011e-07
1.28655e-07
1.86581e-07
1.56886e-07
-3.51884e-07
-3.41692e-07
2.86289e-07
9.71564e-07
-1.21483e-07
-1.08663e-06
7.62122e-07
2.0499e-07
-9.49338e-07
9.3229e-07
-8.85197e-07
6.42467e-07
-6.41213e-07
1.33445e-06
9.39451e-08
7.88549e-08
1.33762e-07
9.18462e-07
-3.56952e-07
-3.10202e-07
4.1322e-07
-4.62337e-08
-5.10298e-07
6.56482e-07
-1.46185e-07
3.46696e-08
-1.24049e-06
-1.70479e-08
-3.62191e-07
1.21959e-07
-5.13905e-07
-6.12215e-07
9.70434e-07
-3.13107e-07
3.65116e-07
3.82804e-07
4.23122e-07
3.113e-06
-1.53348e-08
5.97364e-07
-7.83248e-07
6.09824e-07
-1.5806e-07
1.88368e-07
5.22277e-07
-4.83948e-07
-5.02611e-07
-3.67813e-07
3.01949e-08
-3.77606e-07
8.02551e-08
9.25449e-08
1.76675e-07
-4.89926e-07
6.19519e-07
-4.21759e-07
4.02391e-07
6.02245e-07
-4.80286e-07
-4.99447e-07
5.34543e-07
-3.89544e-08
3.26161e-07
-9.01414e-07
3.07042e-07
3.56083e-09
-5.01707e-08
-8.42264e-07
2.34883e-07
2.10984e-07
-8.93571e-08
5.79958e-07
7.09187e-08
-6.88334e-07
-4.40961e-07
8.45736e-07
1.42488e-07
3.71773e-07
4.3292e-07
-5.10089e-07
1.84904e-07
-4.57116e-07
4.5432e-07
-7.34137e-07
3.25051e-07
2.226e-07
3.38912e-08
3.37882e-07
-1.8307e-07
6.38289e-07
-4.90749e-07
2.81522e-07
-8.25664e-08
-4.81148e-07
1.13424e-07
1.22903e-06
1.17035e-07
4.36282e-07
3.64285e-08
-4.26921e-07
4.5606e-07
-9.96721e-08
1.01427e-07
-1.83994e-07
5.63726e-07
-6.82179e-07
6.19e-08
-9.36108e-09
1.6397e-07
1.75571e-08
4.58165e-07
-5.1049e-07
8.57075e-09
-1.71631e-08
9.43196e-08
-6.54413e-07
3.03755e-08
4.94669e-07
-6.59015e-08
1.27014e-07
-1.45205e-07
1.29348e-06
-6.53178e-07
4.06383e-07
1.6945e-07
9.87994e-09
-7.87961e-07
6.71977e-07
3.91925e-07
9.31769e-08
-4.85102e-07
-5.03964e-07
7.26951e-07
-1.58065e-07
-7.03562e-07
-1.26484e-06
2.85277e-09
-9.12672e-08
2.12296e-07
-1.01605e-07
1.13035e-07
8.25042e-07
-4.4238e-07
2.45358e-07
-2.45725e-07
9.2316e-08
7.02177e-07
-8.42613e-08
4.2163e-07
5.09721e-07
3.79569e-07
1.88476e-07
6.44591e-08
1.48977e-07
-3.25287e-07
7.37206e-07
-4.11919e-07
7.24137e-07
3.05634e-08
7.33681e-07
6.45869e-07
-4.37776e-08
3.28778e-07
-6.80821e-08
5.69584e-07
7.23898e-07
-7.87075e-07
-9.05745e-07
-6.21543e-07
1.86677e-07
6.45529e-07
7.24137e-07
1.15297e-06
3.59662e-07
-2.19781e-07
-3.12684e-07
-1.15236e-07
8.26231e-07
-1.21823e-06
-1.83419e-07
-9.19082e-07
4.94029e-08
7.83309e-08
4.26881e-08
9.92198e-08
1.94743e-07
-9.2308e-08
2.0966e-07
3.73597e-09
-1.93838e-07
2.85596e-07
9.87549e-09
-1.67402e-07
-2.0966e-07
1.93838e-07
1.67402e-07
3.72919e-08
-2.47363e-07
-4.61148e-09
-2.85596e-07
-9.87549e-09
4.94029e-08
4.26881e-08
1.94743e-07
-2.47363e-07
-5.76312e-07
6.94678e-08
2.03413e-07
6.63659e-07
2.11815e-07
-4.45126e-07
4.45126e-07
2.03413e-07
-3.45806e-07
-2.16006e-07
2.00261e-07
4.16688e-07
-2.05704e-07
4.0418e-07
8.87923e-08
2.15291e-07
-2.33251e-07
3.69518e-08
2.33251e-07
1.87233e-08
-8.6971e-07
-7.46846e-07
1.14877e-07
-7.86311e-08
-6.91496e-08
4.61074e-07
-6.24361e-08
-4.75828e-08
-1.14964e-07
1.84416e-07
-1.40232e-06
-1.97496e-07
-4.59486e-07
1.95716e-07
3.61809e-07
2.6984e-08
-1.28263e-06
3.76889e-07
-1.18711e-07
1.96174e-07
1.41346e-07
-3.34455e-08
-1.1565e-08
-2.89216e-06
2.41245e-06
4.79711e-07
7.34709e-07
-2.24988e-07
5.28913e-08
-5.28913e-08
-4.48355e-07
-4.62066e-08
-8.61004e-07
8.59272e-08
1.76524e-07
-1.39573e-07
4.81523e-08
-2.94031e-06
8.85191e-07
-4.52138e-07
1.43607e-07
9.66155e-08
7.80674e-07
-3.92394e-08
2.86316e-07
-2.63312e-07
-1.14768e-07
-6.29996e-07
-5.24349e-08
-1.31559e-07
1.5157e-08
4.61159e-07
1.33329e-07
5.34871e-08
-1.05922e-07
-5.89255e-08
-2.87834e-07
-1.28674e-07
8.62455e-07
-5.58007e-07
2.06128e-08
-2.06128e-08
1.24615e-07
7.16838e-08
-1.24615e-07
3.23889e-08
1.88764e-08
-1.88764e-08
-4.28196e-07
-4.17313e-07
6.13062e-09
-1.10195e-06
4.03592e-07
-5.59074e-07
-9.38109e-09
1.55146e-07
9.73137e-08
-6.98559e-07
-3.16206e-07
-7.99136e-07
2.79203e-07
-1.9041e-07
4.21661e-07
-3.53311e-07
3.41747e-07
-3.52552e-08
-1.40399e-07
3.54115e-07
-3.54115e-07
6.18377e-07
-1.35123e-07
6.98668e-08
-7.61728e-07
1.31806e-06
1.58151e-06
-2.89957e-06
2.53714e-07
7.25594e-08
-6.54903e-08
-1.26268e-07
-6.32178e-08
1.76328e-06
2.66115e-08
-1.72686e-07
1.49805e-08
-1.41776e-07
-3.48431e-08
3.48431e-08
3.97795e-07
3.3941e-07
5.02611e-07
4.69865e-07
-1.50272e-07
-3.19593e-07
1.44006e-07
2.70236e-08
-2.31962e-08
-1.33329e-07
-5.98497e-07
2.31962e-08
-3.22485e-07
1.85968e-07
1.36517e-07
1.07111e-06
-2.4268e-08
-1.13813e-06
5.98735e-08
-1.21545e-06
7.43316e-07
4.72137e-07
-3.34455e-08
-3.77571e-07
-4.11919e-07
3.77571e-07
2.5209e-07
7.72345e-08
-7.36736e-08
-1.24023e-07
-2.4409e-07
1.24023e-07
2.4409e-07
1.68674e-07
-1.68674e-07
1.73663e-06
7.06531e-09
-6.29017e-07
-4.10042e-07
8.73612e-08
8.91633e-08
-1.12601e-07
-2.06344e-07
2.06344e-07
-6.53178e-07
-4.40382e-07
6.32178e-08
-1.08874e-07
6.8235e-09
1.35123e-07
-3.13502e-08
-2.99732e-07
-1.31959e-08
1.38639e-07
1.30139e-06
1.63272e-08
-8.44093e-08
1.90336e-07
-8.54599e-07
6.13062e-09
-7.44187e-07
6.90047e-07
6.48676e-07
-2.82876e-07
-1.39164e-07