/*--------------------------------*- C++ -*----------------------------------*\
  =========                 |
  \\      /  F ield         | OpenFOAM: The Open Source CFD Toolbox
   \\    /   O peration     | Website:  https://openfoam.org
    \\  /    A nd           | Version:  9
     \\/     M anipulation  |
\*---------------------------------------------------------------------------*/
FoamFile
{
    format      ascii;
    class       surfaceScalarField;
    location    "2";
    object      phi;
}
// * * * * * * * * * * * * * * * * * * * * * * * * * * * * * * * * * * * * * //

dimensions      [0 3 -1 0 0 0 0];

internalField   nonuniform List<scalar> 
1363
(
-5.03634e-07
3.24161e-07
1.79473e-07
-3.22067e-07
2.27178e-07
9.48886e-08
7.34731e-07
-5.77628e-07
-1.57103e-07
-1.55536e-07
4.63534e-07
-3.07998e-07
6.76023e-07
5.87082e-08
3.35714e-07
-4.43641e-09
-3.31277e-07
-1.30918e-07
1.30918e-07
3.12321e-07
2.33923e-08
-2.94428e-07
3.03383e-07
-8.95453e-09
1.46817e-08
-3.0911e-07
-3.0136e-07
1.70866e-07
1.30494e-07
4.96502e-07
-6.24584e-07
1.28082e-07
3.40347e-07
-4.95883e-07
-5.7237e-07
5.26412e-07
4.59573e-08
1.01133e-07
3.95369e-07
-3.08331e-07
-1.37356e-08
2.76498e-07
2.1966e-07
-4.96158e-07
-2.53883e-07
-2.49751e-07
-6.89888e-07
2.77762e-08
6.62112e-07
-1.71738e-07
1.71738e-07
3.18264e-07
-4.1766e-08
-2.35841e-07
-3.88743e-07
-1.49513e-07
-2.06991e-08
1.70212e-07
9.54828e-08
-1.54409e-08
-8.00419e-08
-3.28326e-07
2.69658e-08
1.71056e-07
-7.55731e-08
5.80043e-07
-5.69557e-07
-1.04857e-08
-2.22316e-07
7.28024e-08
-2.29701e-08
-1.08978e-07
1.31948e-07
-2.0481e-08
-3.55308e-07
3.75789e-07
-1.11816e-07
-9.432e-08
2.06136e-07
7.99175e-09
5.72051e-07
-8.74581e-08
6.4488e-08
-4.79917e-07
8.32787e-08
3.96638e-07
5.77407e-07
-6.22457e-07
4.50503e-08
1.7376e-08
1.22981e-07
-1.40357e-07
-4.85786e-07
2.00082e-07
2.85704e-07
2.98589e-07
-1.27661e-07
-1.70929e-07
-2.55009e-07
-2.30777e-07
-6.07364e-08
4.52955e-08
2.8619e-08
-4.57627e-07
4.29008e-07
4.43392e-07
-4.20729e-07
-2.26632e-08
8.33976e-08
-1.44134e-07
-3.14092e-08
-9.95091e-08
6.21007e-08
6.88176e-08
-3.4311e-07
-7.30272e-08
4.16138e-07
1.61102e-07
3.02298e-07
-4.634e-07
3.32836e-08
-5.132e-07
-3.41831e-07
3.7045e-07
-3.10616e-07
-2.61753e-07
-5.16506e-07
-1.73382e-07
5.12436e-08
-7.19427e-08
6.96062e-08
-5.22302e-08
1.29102e-07
-8.97459e-08
-3.9356e-08
4.11059e-07
-3.96377e-07
-2.70025e-07
3.09125e-07
-3.90999e-08
1.81584e-07
-1.81584e-07
-5.40618e-10
4.11599e-07
1.22876e-07
5.87087e-08
6.59064e-07
-2.81614e-08
-6.30903e-07
-2.08763e-07
1.88282e-07
5.98782e-07
-5.97306e-07
-1.47625e-09
-1.69054e-07
2.52332e-07
-8.59331e-08
4.10094e-07
1.96774e-07
1.01815e-07
3.75529e-07
-2.98045e-07
-7.7484e-08
2.92252e-08
3.89134e-07
2.6092e-07
-6.50054e-07
-1.62842e-07
-1.07183e-07
2.78756e-07
-2.03749e-07
-7.50068e-08
2.44544e-07
-1.73662e-08
-2.26218e-07
2.10922e-07
1.52963e-08
1.22686e-07
-1.22686e-07
-2.52755e-08
-3.30032e-07
2.67821e-08
1.0232e-07
1.03458e-07
-2.75195e-07
2.62458e-09
1.69113e-07
-1.98994e-08
-1.63071e-07
5.12551e-08
-3.45088e-07
3.67566e-08
-1.13615e-08
8.34593e-08
-7.20977e-08
7.6736e-08
4.9269e-08
1.14203e-07
-1.63472e-07
3.04411e-08
-3.35145e-07
3.70997e-08
-7.03207e-07
6.68687e-07
3.45201e-08
4.39969e-07
2.19095e-07
3.14238e-07
5.67335e-08
-3.70971e-07
2.03768e-08
5.06035e-07
-1.51788e-07
2.01057e-07
3.99632e-07
4.37604e-08
2.69946e-07
3.49453e-08
-3.04891e-07
-4.17014e-07
4.16474e-07
4.06819e-07
-9.76943e-08
1.38293e-07
-1.77393e-07
1.63389e-07
-2.65089e-07
1.017e-07
-4.97162e-08
-3.71013e-07
-3.49346e-08
3.49172e-07
-1.82127e-07
1.70766e-07
-1.1989e-08
2.15041e-07
-1.23973e-09
-2.13802e-07
3.92034e-08
-4.56218e-07
-3.55404e-07
2.47346e-07
-2.2655e-07
3.64843e-07
5.00462e-09
1.83277e-07
1.61682e-07
-5.04793e-07
-4.82426e-08
-3.01972e-07
3.50215e-07
2.63106e-07
1.26028e-07
3.19047e-07
-5.81267e-08
-5.24267e-08
-1.10416e-07
-1.89484e-07
8.23011e-08
-2.10085e-07
-9.58564e-08
-1.30362e-07
-1.80727e-07
3.51592e-07
2.69946e-07
7.78167e-07
-7.45794e-07
-3.23734e-08
3.86119e-07
7.74147e-08
-7.89271e-08
6.69381e-08
-2.1171e-08
-4.24432e-07
4.45603e-07
-6.69381e-08
7.19427e-08
1.29423e-07
8.73785e-09
-1.38161e-07
8.33976e-08
1.0895e-07
-9.22447e-08
-6.90355e-08
-9.40358e-08
5.12436e-08
-2.31592e-07
1.44134e-07
2.31592e-07
-2.46557e-07
1.49648e-08
6.96062e-08
4.027e-07
-3.74924e-07
-4.027e-07
3.67827e-07
3.48736e-08
3.74924e-07
-7.26261e-08
-5.09527e-07
5.4281e-07
5.09527e-07
-2.46421e-07
-3.67827e-07
2.94799e-07
-7.83441e-08
2.59173e-08
7.26261e-08
2.46421e-07
-1.63566e-07
-2.59173e-08
1.63566e-07
-5.05397e-07
-5.4281e-07
5.05397e-07
3.7413e-08
-2.94799e-07
2.46557e-07
5.68083e-07
5.01219e-08
-1.19157e-07
3.00846e-07
1.14756e-08
1.09784e-07
2.39068e-08
-2.27656e-07
6.06639e-08
1.50258e-07
6.72289e-08
-2.66093e-07
1.98864e-07
-2.34559e-07
-4.68648e-07
4.02431e-08
2.60603e-07
3.03503e-07
-4.35833e-07
1.32329e-07
6.53666e-07
-6.1872e-07
-1.8153e-07
1.99527e-07
-1.79976e-08
-6.09943e-07
-1.25142e-08
1.58099e-08
-2.70819e-07
-2.67414e-07
-6.77306e-08
-7.41497e-09
5.99373e-08
-5.25223e-08
-7.73955e-07
2.66847e-07
-3.29659e-07
6.22454e-08
2.57277e-07
-2.41468e-07
-4.87094e-07
1.79096e-07
3.16414e-07
1.90152e-08
-3.35429e-07
3.47247e-07
-4.37432e-08
-3.26729e-08
-6.67194e-07
6.99867e-07
7.83967e-08
1.36645e-07
3.27845e-07
-8.04984e-08
1.14165e-07
-5.21527e-07
-3.87172e-07
4.52751e-07
1.90076e-08
-3.90383e-08
1.02112e-07
5.66575e-07
-3.7282e-07
2.75071e-07
9.77488e-08
-1.58304e-08
-2.49259e-07
-1.5241e-07
-2.2041e-07
4.77228e-07
-7.04086e-08
-4.22856e-07
3.09648e-07
1.13208e-07
-1.87493e-07
5.96287e-09
-1.67015e-07
5.80371e-08
2.67311e-07
-1.47785e-07
-2.79158e-07
1.86519e-07
-1.58598e-07
-5.92067e-07
7.50665e-07
-3.82077e-07
-3.62973e-09
3.85707e-07
5.2783e-07
-7.62389e-07
4.3795e-07
-1.28302e-07
7.76576e-07
-8.12227e-07
3.56511e-08
3.39916e-07
9.80341e-08
-2.89856e-07
2.50817e-07
1.00921e-07
1.05215e-07
-1.1959e-08
-3.70118e-07
5.18202e-07
-1.77855e-07
3.55364e-07
-3.35313e-07
-2.00514e-08
-4.34051e-07
-2.35755e-08
-3.01378e-08
3.01378e-08
-7.89271e-08
2.06472e-07
3.1173e-07
-8.58245e-08
7.38654e-08
3.33825e-07
4.65558e-08
3.55057e-07
-1.58386e-07
-6.6117e-07
6.5754e-07
5.32598e-08
-1.47538e-08
-2.39625e-07
4.46097e-07
-2.07527e-07
4.13446e-07
-2.05919e-07
-7.91914e-07
7.90437e-07
-3.57026e-08
-2.11967e-07
4.88301e-07
-2.76333e-07
-2.43326e-07
7.71156e-07
7.33478e-07
-5.07022e-07
-2.26456e-07
-3.24644e-07
-1.06683e-08
-2.78052e-07
-4.65929e-08
-3.30443e-07
4.81477e-07
-1.51034e-07
3.02347e-07
-5.14314e-07
-1.04181e-07
4.44097e-07
4.62577e-07
-2.45907e-07
-2.16671e-07
7.52336e-08
-7.52336e-08
2.74749e-07
-2.74749e-07
5.08941e-08
-8.42808e-07
-3.51539e-07
4.73295e-07
-1.21756e-07
-4.98297e-08
1.14916e-07
-6.50862e-08
1.33154e-07
5.33655e-08
-6.30425e-07
-3.07452e-08
2.37532e-07
-2.37532e-07
-6.9337e-08
6.9337e-08
1.57857e-07
2.04673e-07
-4.44299e-07
6.64081e-07
6.93977e-08
1.29939e-07
5.10918e-08
-3.06837e-07
2.87851e-08
-1.91921e-07
1.18675e-07
2.0917e-07
-1.02571e-07
-3.73542e-07
4.76113e-07
3.07015e-07
-2.09266e-07
-2.46367e-07
3.59575e-07
-5.57539e-08
-3.70724e-07
-9.08197e-08
4.61543e-07
1.86244e-07
4.49885e-09
8.2747e-07
-2.01482e-07
5.56539e-07
-4.28578e-08
-7.69369e-07
-2.84568e-07
3.82602e-07
2.0019e-07
-4.77722e-07
7.00786e-08
3.74018e-07
-1.73314e-07
-3.62439e-07
5.35753e-07
6.06481e-08
-4.8182e-07
3.30786e-07
3.43966e-07
-5.1728e-07
-7.97757e-07
-3.02103e-07
3.72182e-07
-4.17133e-07
3.26313e-07
5.10083e-08
4.00322e-07
-4.51331e-07
2.38369e-07
3.80869e-07
8.06744e-08
5.09783e-07
-1.28914e-07
-7.73836e-07
8.37976e-07
-6.41408e-08
2.27525e-07
1.62893e-08
7.74148e-07
-6.45179e-07
-3.55366e-07
6.99332e-07
-3.76829e-07
-1.49944e-08
3.91823e-07
-5.81017e-07
6.16668e-07
-9.86531e-10
5.22302e-08
1.38129e-07
-1.51476e-08
1.49173e-07
-1.50159e-07
-3.71429e-07
-5.39943e-09
3.74268e-07
-6.63404e-07
2.89136e-07
-9.00941e-07
1.26985e-07
-2.72723e-08
3.99285e-07
-3.72013e-07
-4.48933e-07
4.21661e-07
3.39384e-07
3.27983e-08
3.90392e-07
5.65876e-07
-1.91609e-07
-8.6507e-08
3.14032e-07
-7.37324e-07
3.81958e-07
-1.03597e-09
3.40952e-07
-3.39916e-07
-2.83572e-07
2.68577e-07
-5.39339e-07
6.53419e-07
-1.1408e-07
3.34215e-07
-8.77666e-07
5.43451e-07
-5.66726e-07
-2.20782e-07
-6.56884e-07
-7.35424e-07
8.62409e-07
7.51884e-07
-5.37689e-07
-2.14195e-07
2.78561e-08
-9.40474e-07
3.38404e-07
6.02071e-07
-6.10794e-07
6.43675e-07
-3.28811e-08
4.03745e-07
3.4814e-07
3.988e-07
7.73123e-08
-4.63687e-07
5.06014e-07
-4.23273e-08
1.37645e-07
-1.37645e-07
-2.75195e-07
-3.04891e-07
-9.95091e-08
6.43588e-08
-6.43588e-08
-1.14659e-07
1.14659e-07
1.0895e-07
4.15145e-07
-4.29887e-07
1.47414e-08
-4.07791e-07
4.07791e-07
-7.58543e-08
7.58543e-08
1.22876e-07
-2.45173e-07
2.45173e-07
-1.37048e-07
1.37048e-07
2.62458e-09
3.44178e-07
-3.44178e-07
6.21007e-08
-9.22447e-08
1.4225e-07
-2.28757e-07
4.03327e-07
6.03785e-08
-4.63706e-07
2.21775e-07
-2.21775e-07
4.1708e-07
-4.18116e-07
-4.53147e-07
4.30484e-07
1.16429e-07
-1.16429e-07
-4.88822e-07
-1.74581e-07
4.30223e-07
-4.83411e-07
5.31877e-08
-4.38484e-08
-4.26487e-07
4.70335e-07
-3.29835e-07
-6.1064e-07
-4.38027e-07
3.94178e-07
-6.00282e-07
1.11459e-07
-3.50802e-08
-5.75714e-07
5.07889e-07
-7.64252e-07
2.56363e-07
-3.14499e-08
7.83441e-08
7.64414e-07
-3.60669e-07
2.63253e-07
-1.42888e-07
-1.20365e-07
-6.40546e-08
6.31732e-07
-4.68402e-07
-1.63329e-07
-9.90635e-07
2.55211e-07
4.78838e-07
-8.933e-07
1.97999e-07
6.953e-07
-3.80017e-08
-4.86107e-08
4.24145e-07
-9.9087e-07
6.33921e-07
-8.54704e-07
-1.28066e-08
7.95044e-07
-7.07757e-07
-8.72866e-08
-2.96012e-07
-4.68241e-07
-3.62931e-07
-7.50955e-08
-7.87119e-07
2.4943e-07
1.21068e-08
3.07777e-07
-6.5397e-07
3.46193e-07
2.89606e-07
-2.63529e-08
9.15414e-07
-5.7701e-07
3.40308e-07
1.52472e-07
-4.9278e-07
-2.15344e-07
6.67446e-07
-4.52102e-07
2.63722e-08
8.70503e-07
-2.26828e-07
-3.95929e-07
-2.93469e-07
6.89398e-07
2.19661e-07
-5.35476e-07
3.15815e-07
5.96501e-07
-9.04872e-08
1.0585e-07
-2.48738e-07
1.21079e-07
4.99874e-07
-6.93906e-08
-6.55917e-07
4.92588e-07
-5.6649e-07
-6.38089e-07
4.57236e-07
-4.30864e-07
-3.56949e-07
-5.96599e-08
5.40669e-07
4.21805e-07
-6.37149e-07
-5.89119e-07
2.07656e-07
4.17571e-07
1.00722e-07
-7.36621e-07
6.35899e-07
-7.40774e-08
4.79496e-07
-4.05418e-07
6.16061e-07
-3.964e-07
4.37201e-07
-4.75203e-07
2.71518e-07
-1.95168e-07
5.61421e-07
-5.08527e-07
6.19987e-07
-8.81543e-09
-4.04541e-07
4.3582e-07
5.31961e-07
-8.2543e-07
-4.23836e-07
5.76308e-07
-9.55865e-07
3.78855e-07
-7.49446e-07
5.22618e-07
4.37174e-07
2.00624e-08
4.49281e-07
-4.32727e-07
-1.05894e-07
5.38621e-07
-3.69072e-07
6.58208e-07
-5.02118e-07
-3.73602e-07
-1.19178e-07
-5.50605e-07
4.60117e-07
3.43493e-07
3.30283e-08
-4.59515e-07
-1.88026e-07
-4.15197e-07
-1.59396e-08
-1.86652e-08
6.76101e-07
2.34715e-07
-9.10816e-07
6.21325e-07
-5.20603e-07
5.41816e-07
-2.70298e-07
8.83758e-07
5.01906e-07
1.87492e-07
-6.26764e-08
1.26344e-07
-6.3668e-08
-9.0354e-07
5.46591e-07
6.49169e-08
-1.14785e-07
3.80219e-07
-8.32939e-07
1.9485e-07
-7.1852e-08
7.07751e-07
4.41723e-07
-1.38074e-07
4.84267e-07
-2.7363e-07
2.39912e-08
2.49639e-07
4.42174e-07
-4.54981e-07
1.85766e-07
-5.90307e-07
-1.50336e-07
2.18817e-08
1.28454e-07
-8.13416e-08
-4.11704e-07
2.50915e-07
4.68328e-07
4.96528e-07
-4.01639e-07
-5.70036e-09
-8.11905e-07
7.52246e-07
-9.06606e-07
3.40116e-07
1.85314e-07
-2.25938e-07
-2.71139e-07
5.13136e-07
-2.41997e-07
2.88919e-08
-1.51294e-07
-6.00734e-07
2.22967e-07
3.77767e-07
-3.60015e-07
4.92824e-07
-6.7034e-07
1.77517e-07
-8.18822e-07
4.03625e-07
2.88429e-07
3.69779e-07
-3.33997e-07
6.40026e-07
-1.79908e-07
4.41241e-07
-4.67594e-07
-2.96204e-07
2.94738e-07
4.79475e-07
5.83166e-07
-7.38186e-07
1.49066e-07
-2.30954e-07
4.52e-07
5.82336e-07
-3.31421e-07
-5.43335e-07
-3.12916e-07
5.35883e-07
-4.97228e-07
2.51763e-07
2.45465e-07
-1.36906e-07
3.86545e-07
-1.19461e-07
-4.56901e-07
3.51382e-07
1.92309e-07
4.30623e-07
-4.36324e-07
-2.49796e-07
2.71677e-07
2.7025e-07
1.66805e-07
-5.0598e-07
3.39175e-07
4.13677e-07
-3.07827e-07
-3.35198e-07
-2.72412e-08
5.39162e-08
-5.97251e-07
2.94941e-07
2.01587e-07
-2.40542e-07
-2.26199e-07
4.66741e-07
1.61023e-07
-5.62662e-07
8.32219e-07
-2.55346e-07
5.25596e-07
2.61851e-08
-4.89891e-07
2.5779e-07
-2.51838e-07
5.03601e-07
-4.98813e-07
5.24998e-07
-3.23086e-07
-3.754e-07
1.45149e-07
-3.85691e-07
-5.36015e-07
-7.35414e-07
2.0251e-07
-5.74392e-07
7.25686e-07
-1.7935e-08
-1.3675e-07
4.88132e-07
-4.52924e-07
1.17727e-07
-4.19735e-07
3.68671e-07
-5.52232e-07
-2.4819e-07
-3.47514e-07
3.20273e-07
1.86168e-07
5.22004e-08
-4.86555e-07
-1.22581e-08
-8.40615e-07
1.11436e-07
2.98658e-07
2.84045e-07
-4.68196e-07
1.83788e-08
3.94319e-07
-2.4917e-07
1.21082e-07
2.18551e-07
1.00643e-07
1.87567e-07
-2.88211e-07
2.21726e-07
-2.34373e-07
-1.13828e-07
5.62373e-07
-4.48545e-07
1.59946e-07
7.88292e-07
3.91786e-08
-3.05748e-07
6.33605e-09
2.65341e-07
8.04581e-07
3.75007e-07
3.09297e-07
-3.47784e-07
8.40229e-08
2.3625e-07
-7.59229e-07
-1.01406e-08
-1.97686e-07
2.49887e-07
3.83242e-08
-2.87495e-07
-1.23725e-08
-7.61082e-07
1.85309e-09
1.91217e-07
2.22229e-07
4.66013e-07
-2.79769e-07
6.06e-07
-9.70011e-08
-5.45546e-07
7.96892e-07
-7.95039e-07
4.37231e-08
-3.3525e-07
3.68386e-07
-3.31358e-08
-6.37562e-07
-7.68742e-08
2.08741e-07
2.28059e-07
-4.76085e-07
-3.18228e-07
-3.84611e-08
-3.26874e-07
3.9589e-07
-2.76266e-07
2.65562e-07
2.09638e-07
-2.54025e-08
-6.00419e-08
4.98719e-08
3.94997e-08
1.72073e-07
1.87927e-07
9.63236e-08
5.22845e-08
-2.94765e-07
2.42889e-07
5.18761e-08
-6.79356e-07
-2.19363e-07
4.32179e-07
-2.31989e-07
1.29412e-07
1.15388e-07
9.76727e-08
2.86224e-08
-6.30946e-07
-2.69179e-07
1.36746e-07
1.08054e-07
-1.93832e-07
-9.36623e-08
1.63901e-07
-2.06205e-07
-3.52277e-07
9.55311e-08
2.22733e-07
-7.5623e-07
-1.01699e-08
1.35823e-07
-2.43486e-07
-5.12791e-08
5.43841e-07
3.23823e-08
-4.56814e-07
-5.25906e-07
4.42223e-07
3.01485e-07
1.49957e-07
1.81085e-08
-8.50309e-07
-1.37777e-07
-7.48197e-07
7.99126e-08
-2.64022e-08
-6.33438e-08
2.65074e-08
-1.54168e-07
-2.28217e-07
-1.0271e-07
-7.88738e-08
-1.19319e-07
1.37427e-07
1.13553e-07
-3.20467e-07
-9.66663e-08
-2.70951e-07
2.13652e-07
3.08925e-08
-1.69609e-07
-3.87908e-07
1.67498e-07
-1.5205e-07
-2.51627e-07
6.41623e-07
-3.89996e-07
-7.56023e-08
-1.68077e-07
4.97943e-08
-3.53586e-08
-3.53384e-07
-2.78845e-07
-7.56023e-08
-2.24007e-07
2.73165e-07
-1.77634e-07
3.7569e-08
-1.87636e-07
7.19073e-07
-7.51447e-07
4.15239e-07
4.49543e-09
-3.12323e-07
7.63662e-07
1.98165e-07
-4.03194e-07
2.13634e-07
1.89561e-07
-1.72364e-07
-2.21532e-07
-2.15268e-07
-4.56679e-07
-1.67008e-07
-7.73356e-08
-9.1718e-08
9.17889e-07
3.56272e-07
-1.53194e-08
3.15285e-07
-4.05353e-08
5.60476e-07
-2.66758e-07
7.05767e-08
4.65687e-09
2.66758e-07
-7.05767e-08
2.38619e-07
3.15285e-07
2.0568e-07
-4.29944e-07
-1.4577e-07
7.83781e-07
-7.14383e-07
3.38892e-07
-3.57572e-07
-5.02195e-08
3.11614e-07
-8.98392e-08
1.78562e-07
-2.91026e-07
-3.15593e-07
1.07018e-08
-3.57572e-07
9.12813e-08
-1.5564e-07
-1.23468e-07
8.80923e-09
3.75118e-07
-6.80636e-08
-7.79073e-09
-1.78562e-07
-6.66114e-08
2.91026e-07
-4.58524e-08
3.15593e-07
2.85854e-08
-3.75118e-07
3.09399e-08
6.80636e-08
-9.12813e-08
3.11614e-07
-1.23468e-07
9.77025e-09
-3.22874e-07
-6.07031e-07
-5.41279e-07
7.33588e-07
4.99969e-08
1.48168e-07
1.30557e-07
1.11993e-07
-1.12581e-08
6.99522e-07
-8.28607e-08
5.0869e-08
-6.29978e-07
1.11993e-07
4.37072e-07
-2.45463e-07
-4.10163e-07
4.45036e-07
3.83736e-07
1.18033e-07
-3.3739e-09
-1.18033e-07
-1.91737e-07
2.08856e-07
-1.71191e-08
-5.78257e-07
2.51949e-07
1.85163e-07
-3.42267e-07
3.9273e-07
1.10962e-07
-8.06263e-07
1.11617e-07
1.68369e-08
-3.20531e-11
-1.45929e-07
2.57432e-07
3.04852e-08
-2.12612e-07
3.62599e-07
-3.34476e-07
-3.49805e-07
3.49805e-07
-3.59691e-07
-2.53086e-07
-2.82887e-07
2.57432e-07
2.45894e-07
-8.74513e-08
2.82893e-07
-2.11378e-07
-4.55816e-07
2.70865e-07
-4.58357e-07
6.11841e-07
-5.24555e-07
5.5145e-08
-5.5145e-08
-1.12526e-07
-2.28159e-07
-5.24198e-08
5.24198e-08
3.73565e-09
-3.73565e-09
-2.47041e-07
3.87802e-08
3.47214e-08
1.79679e-07
4.03779e-09
-1.83716e-07
3.2123e-07
-3.2123e-07
8.34593e-08
2.53135e-07
4.46732e-07
5.99373e-08
-5.09184e-07
-2.18983e-07
-3.02755e-08
-2.64836e-07
-3.25971e-07
-5.45375e-07
6.69551e-08
2.38196e-09
-1.54915e-07
-5.88864e-08
5.15729e-08
-6.89391e-08
-4.26357e-08
9.42086e-08
-7.33271e-07
-2.2959e-08
-1.72684e-07
-1.58593e-07
-6.35093e-07
9.38142e-08
-1.0271e-07
-2.92146e-07
1.28674e-07
6.28674e-08
-1.46732e-07
-8.5769e-08
8.5769e-08
2.07974e-08
2.4778e-07
-6.19277e-07
-7.20977e-08
4.00112e-08
-4.00112e-08
-6.74563e-07
1.79647e-07
-2.91788e-10
-9.87814e-09
-4.72271e-07
2.90572e-07
1.42782e-07
-4.33354e-07
-1.59715e-07
9.24256e-08
6.72891e-08
-5.25223e-08
-1.02464e-09
1.67113e-07
-1.67405e-07
1.56191e-07
-4.67468e-08
4.67468e-08
1.10601e-07
3.43151e-07
1.34077e-07
2.55005e-07
-2.70324e-07
2.06188e-07
-4.48556e-07
4.44532e-08
-4.91134e-08
6.11138e-07
-3.20566e-07
5.08313e-07
1.99232e-07
5.15852e-08
8.64724e-09
-1.75655e-07
-2.67319e-08
8.67099e-08
-3.20118e-07
9.19005e-08
-6.69551e-08
2.69412e-07
-3.29698e-08
2.72035e-07
4.78689e-08
2.21543e-07
5.062e-08
2.21415e-07
2.64559e-07
3.50243e-07
2.94434e-07
3.38195e-07
2.59795e-07
3.33777e-08
-3.04197e-07
2.53577e-07
1.91563e-07
1.44003e-07
1.23965e-07
-5.00999e-08
1.3039e-07
2.42349e-07
-2.23971e-07
3.12428e-07
-3.75662e-09
-2.12608e-08
-4.34399e-08
2.2523e-07
1.39027e-07
-2.11259e-07
2.88674e-07
1.92054e-08
-2.41968e-07
2.00528e-08
5.71486e-07
-4.77672e-07
6.00071e-07
-4.66336e-07
1.52507e-07
2.66287e-07
-1.74895e-07
-5.9515e-07
3.66283e-08
1.23185e-07
1.1726e-07
2.85747e-08
7.68317e-08
2.18169e-07
1.34446e-07
-5.97562e-08
-1.81471e-07
2.73372e-07
5.77547e-09
-5.78655e-09
)
;

boundaryField
{
    back
    {
        type            empty;
        value           nonuniform List<scalar> 0();
    }
    front
    {
        type            empty;
        value           nonuniform List<scalar> 0();
    }
    top
    {
        type            calculated;
        value           nonuniform List<scalar> 10(-4.368e-07 -4.752e-07 -3.6e-07 -2.448e-07 -2.448e-07 -3.6e-07 -4.368e-07 -9.12e-08 -9.12e-08 -4.752e-07);
    }
    outer_arc
    {
        type            calculated;
        value           uniform 0;
    }
    bottom
    {
        type            calculated;
        value           nonuniform List<scalar> 10(7.14436e-07 3.65335e-07 8.54443e-08 -8.93716e-08 -1.48608e-07 8.98719e-07 -1.26295e-07 9.00125e-07 -3.09857e-08 6.47201e-07);
    }
    inner_arc
    {
        type            calculated;
        value           uniform 0;
    }
}


// ************************************************************************* //
