/*--------------------------------*- C++ -*----------------------------------*\
  =========                 |
  \\      /  F ield         | OpenFOAM: The Open Source CFD Toolbox
   \\    /   O peration     | Website:  https://openfoam.org
    \\  /    A nd           | Version:  9
     \\/     M anipulation  |
\*---------------------------------------------------------------------------*/
FoamFile
{
    format      ascii;
    class       volVectorField;
    location    "2";
    object      U;
}
// * * * * * * * * * * * * * * * * * * * * * * * * * * * * * * * * * * * * * //

dimensions      [0 1 -1 0 0 0 0];

internalField   nonuniform List<vector> 
1655
(
(-0.01203 -0.00632217 -3.60816e-18)
(-0.000343794 -8.28796e-05 2.37852e-17)
(-0.104861 0.115031 1.91248e-17)
(0.0488983 -0.013671 -1.14778e-17)
(0.094443 0.103641 0)
(-0.00782649 -0.0217246 7.24129e-18)
(-0.131786 0.095328 0)
(0.0388279 0.161127 -1.27351e-17)
(0.0589443 0.228715 0)
(0.0946763 0.0904528 -6.23444e-18)
(0.0447883 -0.0473272 2.87418e-17)
(0.0423274 -0.0526568 -2.83152e-17)
(0.0284916 0.10405 -3.56436e-21)
(0.00286317 -0.0292046 -1.4944e-17)
(-0.0198469 -0.502574 1.41214e-17)
(0.00282055 -0.00682125 0)
(-0.057079 -0.00478889 2.57967e-17)
(0.0657282 0.0816406 7.63486e-18)
(-0.0257977 0.000620477 -2.88802e-17)
(0.0020721 -0.0222731 -8.30091e-18)
(0.00386674 -0.0317957 3.37917e-18)
(0.0569791 0.233855 0)
(0.0670121 0.148019 -1.5367e-17)
(0.0639712 0.135731 7.13215e-18)
(0.00219254 -0.0352428 -4.53783e-18)
(-0.037462 -0.00757019 -3.0654e-17)
(-0.000618727 -0.00456319 -1.33883e-17)
(0.048666 0.213557 -1.52905e-17)
(0.0433114 0.203188 2.06218e-17)
(0.00287204 -0.028244 -1.49394e-17)
(-0.182585 0.0463399 3.7009e-17)
(-0.0472058 0.147821 -3.95601e-18)
(0.00650662 -0.0716875 -5.48852e-18)
(-0.0110199 0.129176 0)
(0.0576797 0.0317466 0)
(0.0178321 0.108773 0)
(0.00577655 -0.0227787 -1.94824e-17)
(-0.00334257 0.00517427 0)
(0.00497757 -0.0696546 -7.51095e-18)
(-0.00620723 0.000620834 -2.56782e-17)
(0.000657929 -0.0201151 1.44967e-17)
(0.0756343 0.14066 1.24114e-17)
(0.0047492 -0.0629548 -7.85222e-18)
(-0.00878599 0.0174933 2.28963e-17)
(-0.00086159 0.00505097 0)
(0.071059 -0.0204817 0)
(0.0755973 -0.0153276 3.56965e-17)
(-0.000920242 0.00565694 0)
(0.0604 0.00861138 1.3962e-17)
(0.00477384 -0.0597871 1.91201e-18)
(-0.00893767 -0.0192169 2.15222e-17)
(-0.0790777 0.122164 -1.42586e-17)
(0.129496 -0.0225 -1.57337e-17)
(0.0588419 0.226139 1.36534e-17)
(0.0647316 0.180557 -1.76169e-17)
(-0.167569 -0.147758 0)
(-0.00311036 0.000762264 -7.02344e-18)
(0.0319975 -0.0365393 0)
(0.0899989 -0.0367272 0)
(-0.0533827 0.0959248 1.50587e-17)
(-0.18383 0.0546971 -3.69791e-17)
(-0.0296184 -0.0123293 0)
(-0.00164408 -0.0168617 0)
(0.0473896 0.176757 -3.51992e-18)
(0.0390731 0.0367923 0)
(-0.151207 0.0593393 0)
(0.119717 0.0191129 3.31634e-17)
(0.0577985 -0.042737 -1.64856e-17)
(-0.00487437 -0.138657 0)
(0.0708978 0.132009 -1.41998e-17)
(0.0376669 -0.0326983 1.83392e-17)
(-0.130869 0.0725631 -8.68614e-19)
(0.00656227 -0.0416722 -9.29286e-19)
(-0.00317181 -0.615546 1.2441e-17)
(-0.0474625 0.0567505 -1.72521e-17)
(0.0137795 -0.00529046 8.14877e-18)
(0.0398202 0.190027 -4.68255e-18)
(-0.0307241 -0.177019 0)
(-0.000296911 -0.0104636 0)
(0.00329248 -0.0287498 0)
(0.053462 0.0266849 1.8356e-17)
(0.00878018 -0.00225833 -8.2933e-18)
(0.0600292 0.181749 1.79991e-17)
(-0.00392238 0.0243111 9.22708e-18)
(0.00573194 -0.0458113 0)
(-0.0135466 -0.333051 0)
(-0.077482 0.0791022 -1.04081e-17)
(0.00514376 -0.0356862 0)
(0.00328836 0.0115199 -7.2201e-18)
(-0.0281606 -0.225877 0)
(0.0451659 -0.237753 0)
(-0.0999769 0.130962 9.01246e-18)
(-0.0205166 0.00814916 1.76794e-17)
(0.0386329 0.00658452 0)
(0.00311763 -0.0147764 0)
(-0.0241175 0.00133609 2.94316e-17)
(0.102902 0.0190708 -2.81381e-17)
(0.0739367 -0.0338965 0)
(-0.0531117 0.167579 -8.45804e-18)
(0.00892912 -0.0790392 1.81247e-17)
(-0.0961407 0.115135 -5.66792e-17)
(0.0714898 0.00557763 -1.85984e-17)
(0.0634842 0.0231796 -1.82228e-17)
(0.0729678 0.0109512 1.95328e-17)
(0.0685584 0.18267 0)
(-0.0247297 -0.0111486 -1.12963e-18)
(0.0666159 0.207339 -1.55045e-17)
(0.0014138 -0.0208036 0)
(0.00623161 -0.0787619 0)
(-0.0934022 -0.0659367 -1.59913e-17)
(0.00336942 -0.079416 1.26346e-17)
(0.0115021 -0.0251459 1.46563e-17)
(-0.0399678 -0.0585071 9.68581e-18)
(0.00731061 -0.0532474 1.66369e-17)
(0.0765637 0.20173 1.47336e-17)
(0.0319568 -0.280385 -9.16363e-18)
(0.0683301 0.20178 -1.57648e-17)
(0.0884275 -0.0298262 0)
(0.00253291 0.020921 1.42881e-17)
(0.0709983 0.176125 -3.11999e-17)
(-0.0415722 0.00740776 -2.74696e-17)
(0.0074475 0.0635306 2.80685e-17)
(-0.134515 0.0697321 -2.20228e-17)
(0.144817 -0.00732185 2.06044e-17)
(0.102263 0.0215022 7.22016e-18)
(0.0558707 0.163409 0)
(0.00349407 -0.0521281 -1.80644e-17)
(0.00410165 -0.0203084 1.62821e-17)
(0.00504581 -0.000219016 -2.26276e-18)
(0.00436039 -0.0629312 -2.16448e-18)
(0.0376381 -0.0234766 4.13173e-18)
(0.00332239 -0.0802871 2.22971e-17)
(0.0526891 0.183742 1.36283e-17)
(0.0580847 0.158273 1.43451e-17)
(-3.24873e-05 -0.00733071 0)
(-0.00153216 0.00396511 0)
(0.0923297 0.120291 -8.37023e-18)
(0.0791095 -0.0511858 1.42919e-17)
(-0.00145443 -0.00253389 7.67574e-18)
(0.113054 0.00817583 -7.51565e-18)
(0.0829326 0.185909 9.7623e-18)
(-0.00281929 0.00391295 1.37415e-17)
(-0.00379758 0.0027039 0)
(0.0602729 0.0326027 0)
(-0.122621 0.0167021 -8.47814e-18)
(0.0130086 0.0375654 0)
(0.0602227 0.0261369 -2.95372e-17)
(0.00493468 0.0558669 2.36763e-17)
(0.0354507 0.0258903 1.53405e-17)
(-0.23494 0.0346233 0)
(-0.220129 0.0308036 1.442e-17)
(-0.200405 0.0311299 -7.77691e-18)
(-0.0615685 0.0396103 1.52188e-17)
(-0.155793 0.0352208 1.31958e-17)
(0.0216566 -0.409202 0)
(0.00255544 -0.0493735 2.91417e-17)
(0.0287685 0.0278804 1.86106e-18)
(0.0821287 0.0385218 7.81796e-18)
(0.0741748 0.207805 0)
(0.055641 0.00927672 -1.98209e-17)
(0.0763075 0.0285057 2.23373e-17)
(0.0528411 -0.0322299 0)
(0.0631177 0.226302 -9.7274e-22)
(0.0705001 0.0504688 0)
(0.0560139 0.0463711 0)
(0.0750263 -0.0409325 -7.6269e-18)
(0.0537057 0.219275 0)
(0.0721672 0.191308 -2.97196e-17)
(0.0760849 0.00907413 4.5798e-18)
(-0.0794942 -0.207872 0)
(-0.0999144 -0.0265768 0)
(0.0710655 0.189728 0)
(0.0501328 0.0263339 9.20862e-18)
(0.067892 0.218773 1.56564e-17)
(0.00495432 -0.0390792 9.71326e-19)
(0.0696219 0.214344 1.56038e-17)
(0.0461384 -0.0136183 4.15155e-18)
(-0.103702 -0.236002 0)
(0.0112323 -0.0650559 -1.72712e-17)
(0.00165881 -0.0224168 1.35725e-17)
(-0.11675 -0.256333 1.90711e-17)
(0.0741746 0.175473 1.21967e-17)
(-0.0190914 -0.0205426 -2.63319e-17)
(0.130658 -0.00776378 -4.50399e-18)
(-0.00632861 0.000309904 -8.71042e-18)
(0.0158318 -0.0716118 0)
(0.00758931 0.00278896 0)
(0.0130228 -0.0699038 0)
(0.096867 0.153386 0)
(0.0789551 0.170689 -1.18619e-17)
(-0.00319077 0.00584484 -1.56786e-17)
(-0.0248235 -0.00693021 0)
(0.0978882 0.137314 -1.58795e-17)
(-0.070397 0.0993204 2.00661e-17)
(0.0210008 -0.0769863 0)
(0.000753033 -0.0113897 -9.82233e-18)
(0.0902141 0.148623 0)
(0.0178633 -0.0753902 0)
(-0.00488076 0.0166883 1.87249e-17)
(0.0835278 0.15387 0)
(0.106423 -0.0157743 1.02992e-17)
(0.101299 -0.0135422 -4.61824e-18)
(-0.102688 0.0948308 1.68193e-17)
(-0.150802 0.069466 3.75046e-17)
(0.121325 -0.123864 -1.41975e-17)
(0.00589357 -0.0366964 1.14262e-17)
(0.013816 -0.0710827 0)
(0.108539 0.138462 0)
(0.00581362 -0.067457 5.12704e-17)
(-0.0183184 0.116854 0)
(0.0327278 0.113995 2.70383e-17)
(-0.0275822 0.0960548 -7.45717e-18)
(-0.00172102 -1.69497e-06 0)
(0.0641416 0.180581 1.55595e-17)
(0.00324456 -0.0259855 -1.61385e-18)
(0.116495 -0.00127972 3.50357e-17)
(0.0314924 0.0857448 -8.78445e-18)
(0.0302754 -0.00213527 0)
(0.032851 0.0555958 1.5445e-17)
(0.0894413 0.146998 0)
(-0.00046527 0.00658439 0)
(0.0065508 -0.0393632 -3.30198e-17)
(0.00871739 -0.0696388 2.32202e-17)
(0.0933816 0.153374 1.58778e-17)
(0.0110714 -0.0723253 -1.67625e-17)
(0.0264894 -0.0810093 1.61222e-17)
(0.0271982 -0.0803164 -1.60658e-17)
(0.104261 -0.164486 0)
(0.0349458 -0.00677078 1.96369e-17)
(0.0540908 -0.0405386 1.56913e-17)
(0.0354696 -0.0568786 0)
(0.0377348 -0.114756 -1.95885e-17)
(0.0603631 -0.138192 1.95498e-17)
(-0.0317835 -0.128074 -3.04742e-17)
(0.0164662 -0.073688 -1.65571e-17)
(0.0310981 -0.0604483 1.61814e-17)
(0.0231577 -0.0796188 0)
(0.124062 0.119907 0)
(0.0246674 -0.0772672 2.00192e-17)
(0.0433326 -0.167621 1.56578e-17)
(-0.115003 -0.305473 -1.46839e-17)
(-0.00666548 0.00559245 2.87047e-17)
(0.056608 -0.154202 -1.96194e-17)
(0.000261573 -0.00915695 1.37193e-17)
(0.0983282 0.131919 3.98107e-18)
(0.00278188 -0.0249164 -2.03507e-17)
(-0.190191 0.0224693 1.19273e-17)
(0.0640435 0.223625 0)
(0.0214732 -0.0751859 -4.01405e-18)
(0.0882017 0.160244 0)
(-0.0134763 0.019428 -1.30842e-17)
(0.00275468 -0.0211881 3.26031e-18)
(0.141108 -0.0732111 -1.56871e-17)
(-0.00597591 0.122396 -1.12967e-17)
(0.0196704 -0.0722899 1.62761e-17)
(0.050997 0.0823512 -1.93567e-17)
(0.0128878 -0.0779152 -1.67127e-17)
(0.103433 0.12337 -3.96599e-18)
(-0.0921023 -0.311388 2.06722e-17)
(0.00879526 -0.0644934 1.5324e-17)
(0.0647624 -0.0595307 1.19157e-17)
(0.0113685 -0.0610416 1.65249e-17)
(0.0305177 -0.0820888 1.60019e-17)
(-0.0108387 0.064453 1.55814e-17)
(0.153867 -0.0727053 1.56945e-17)
(0.0859527 0.197265 1.57264e-17)
(0.0110534 -0.0624532 0)
(0.00280991 -0.0385905 -2.25563e-17)
(0.0107781 -0.0756482 8.75542e-18)
(0.00393398 -0.0402181 0)
(0.135425 0.0484121 -1.70122e-17)
(0.0461386 0.00646387 1.20803e-17)
(-0.00548396 0.00885903 8.41529e-18)
(0.0138669 -0.0631984 0)
(-0.0576628 -0.184701 -3.58692e-21)
(0.0754374 0.0395425 -1.21584e-17)
(-0.185225 0.014777 0)
(0.109007 0.0979464 1.98303e-17)
(0.0737614 0.156786 -1.99217e-17)
(0.0715621 -0.0897872 3.91021e-18)
(0.078473 0.148436 1.62049e-17)
(0.095565 0.187848 3.94761e-18)
(0.0672988 -0.0338718 1.61064e-17)
(0.0922911 0.212754 1.40516e-17)
(-0.0114607 -0.436427 -2.5891e-17)
(0.119654 0.108672 -1.60552e-17)
(0.0923093 0.130368 1.60018e-17)
(0.00909531 -0.0795499 1.45488e-17)
(0.0138455 -0.066084 0)
(0.0701723 0.0853815 0)
(0.115481 0.134894 1.57083e-17)
(0.00135343 -0.0181388 1.56276e-17)
(0.00812671 -0.0516168 3.37945e-17)
(0.0725699 0.199873 0)
(0.112104 0.110206 -1.59776e-17)
(0.0236179 -0.0794352 4.0761e-18)
(0.0234661 0.104562 0)
(0.0519437 0.0198785 -2.73605e-17)
(-0.000466937 -0.00510687 -1.59156e-17)
(0.00971541 -0.0717148 -4.02906e-17)
(0.0138488 -0.0799451 -1.69396e-17)
(0.0249567 0.00471957 0)
(0.00244978 -0.0054135 2.45963e-17)
(0.0290406 -0.080893 -4.04943e-18)
(0.0308986 -0.0815097 -3.19877e-17)
(0.0810895 0.149656 -1.69919e-17)
(0.018864 -0.0804131 -4.10474e-18)
(0.0190006 -0.0709053 4.00844e-18)
(0.139949 0.0759353 -3.97721e-18)
(0.0342657 -0.0835948 -1.59345e-17)
(0.155955 0.0631518 0)
(-0.148722 -0.000194954 8.51548e-18)
(0.0161014 -0.0686848 -4.03563e-18)
(0.0725052 -0.0742257 -3.97222e-18)
(0.083089 0.203704 0)
(0.123274 0.0904336 0)
(-0.000248448 -0.00396625 -1.59042e-17)
(0.0728772 0.162855 -1.59412e-17)
(0.0343967 -0.0832126 2.44864e-22)
(0.0143173 -0.0795507 1.77244e-17)
(0.083553 0.142574 0)
(0.0068007 -0.0437799 -1.70144e-17)
(0.0120178 -0.0793242 2.23907e-18)
(0.0271441 -0.0792561 -4.06485e-18)
(0.0170204 -0.0799421 -1.64854e-17)
(0.0573062 -0.0222857 2.28257e-17)
(0.0266893 -0.0136205 7.82925e-18)
(0.0918481 0.194477 -1.9879e-17)
(0.0139853 -0.0761086 0)
(0.147689 -0.0770455 -1.5652e-17)
(0.0198196 -0.0674014 0)
(0.0995325 0.120398 1.59671e-17)
(0.00103679 -0.00840622 7.24732e-18)
(0.0188539 -0.0682443 -1.6149e-17)
(0.170899 0.0854052 1.58504e-17)
(0.0247563 -0.0756445 -1.20408e-17)
(0.143506 -0.0700599 1.17703e-17)
(0.010736 -0.0561183 -1.691e-17)
(0.0329395 -0.083656 0)
(0.144086 0.116168 0)
(0.0127569 -0.0802757 1.74711e-17)
(0.0339942 -0.082835 1.60874e-17)
(0.00153875 -0.142015 0)
(0.0359715 -0.0651182 -1.95374e-17)
(0.0150885 0.205414 0)
(0.0324796 -0.0811816 -2.82525e-17)
(0.00408273 -0.0379822 0)
(0.0222501 -0.0806454 4.08721e-18)
(0.0174341 -0.0801397 0)
(0.0134424 -0.0595008 0)
(0.0326025 0.088172 0)
(0.149152 -0.108908 1.55459e-17)
(0.0573316 -0.0947969 0)
(0.0181037 -0.0783861 1.64424e-17)
(0.0675448 0.212167 0)
(0.037969 -0.0854793 0)
(0.0319708 -0.0832004 0)
(0.0361332 -0.0849652 -2.69677e-22)
(0.123233 0.0555365 -1.58566e-17)
(0.0306462 -0.0787441 1.99533e-17)
(0.0228503 0.147892 -1.34974e-17)
(0.016622 -0.0638274 0)
(0.0656828 0.219257 -4.23125e-18)
(0.0668162 -0.0982388 1.5726e-17)
(0.00537129 -0.00799992 1.65771e-17)
(-0.0947071 -0.311742 -1.35364e-17)
(0.0123832 -0.0728284 4.23143e-18)
(0.0370872 0.0821262 -1.56542e-17)
(0.0964068 0.128465 0)
(0.0397756 -0.0753882 0)
(-0.00331902 0.00388349 0)
(0.0159228 -0.0768333 1.64553e-17)
(0.00031697 0.00157045 0)
(0.0399951 -0.0868066 0)
(0.0427379 0.0734316 0)
(0.139051 0.0479243 3.96133e-18)
(0.171468 -0.07424 1.17191e-17)
(0.0635504 0.187152 -8.66315e-22)
(0.0395088 -0.0643907 4.00574e-18)
(0.0286276 -0.0821815 -1.61424e-17)
(0.0349358 -0.0467349 -4.11551e-18)
(0.0739855 -0.0984406 0)
(0.0818118 0.192217 -1.63277e-17)
(0.0637438 -0.0950012 -1.96328e-17)
(0.0238726 -0.0810892 -4.05934e-18)
(0.0701786 0.209916 0)
(0.0406581 -0.0873132 0)
(0.114989 0.0823244 6.70142e-22)
(0.121772 -0.0195983 0)
(0.0280395 -0.0781708 -4.0021e-18)
(-0.000128039 -0.0116751 1.51282e-17)
(0.134543 -0.0887947 -1.56064e-17)
(0.17122 -0.0750424 -1.56305e-17)
(0.0762155 0.196347 0)
(0.0371647 -0.0835192 0)
(0.0440293 -0.0885826 -1.58259e-17)
(0.0379866 -0.0854457 1.58476e-17)
(0.142214 0.10365 0)
(0.0666411 0.222892 0)
(0.113095 -0.0474953 0)
(0.0368483 -0.0854099 -1.59336e-17)
(0.0197081 -0.0395076 3.36394e-17)
(0.0777657 -0.10265 3.9177e-18)
(0.101256 0.180341 -1.9726e-17)
(0.153298 -0.0712246 -3.90792e-18)
(0.022341 -0.0749093 -1.63244e-17)
(0.0794647 0.18274 1.59472e-17)
(0.120384 -0.0822494 -1.96291e-17)
(-0.00217917 0.00239302 0)
(0.164213 -0.0701095 0)
(0.0463304 0.0538817 0)
(0.0763809 -0.108548 3.91577e-18)
(0.0574851 -0.0945514 3.94484e-18)
(0.162148 -0.076145 0)
(0.0259298 -0.0737553 0)
(0.0736696 -0.112889 -1.56633e-17)
(0.0840253 0.177692 0)
(0.042654 -0.151371 0)
(0.0553274 -0.092377 -1.18547e-17)
(0.0449048 -0.0893434 1.58098e-17)
(0.0843694 -0.0403368 1.57447e-17)
(0.0729749 -0.10493 -3.91728e-18)
(0.0580221 0.095296 3.96637e-18)
(0.0420593 -0.0877972 0)
(0.0506902 -0.0899647 1.58115e-17)
(-0.161531 -0.0228106 -9.9537e-18)
(0.0621709 -0.166422 0)
(0.0383014 -0.0849979 1.20015e-17)
(0.0218678 -0.0710334 1.61065e-17)
(0.0491894 0.171453 1.94957e-17)
(0.0220996 -0.0803646 0)
(0.056549 0.107907 6.71388e-22)
(0.0489121 -0.090352 0)
(0.0790213 0.0620633 -5.14666e-18)
(0.069947 -0.109824 1.17503e-17)
(0.0953961 -0.114589 -1.1724e-17)
(0.0426941 -0.0751885 1.60117e-17)
(0.093925 -0.111702 6.74788e-18)
(0.0360059 0.0310493 0)
(0.0830466 -0.1154 0)
(-0.00300863 0.0046927 1.38646e-17)
(0.0495484 -0.0957484 0)
(0.130165 -0.0698989 1.95958e-17)
(0.0421709 -0.0883637 0)
(0.0538112 -0.0946159 0)
(0.0887107 -0.113507 -1.9561e-17)
(0.057723 0.10811 1.56971e-17)
(0.157939 -0.076763 0)
(0.0511125 0.135256 1.4522e-22)
(0.138751 -0.0828149 1.56139e-17)
(0.0440316 0.192854 -3.89556e-18)
(0.152498 -0.0961861 -1.55756e-17)
(0.0381744 0.217741 -3.87753e-18)
(0.0624581 -0.099476 3.92513e-18)
(0.0473718 0.214471 -3.10684e-17)
(0.0586139 -0.102719 1.96231e-17)
(0.104943 -0.0320054 0)
(0.0476296 -0.0922008 0)
(0.049489 0.143779 0)
(0.0663484 0.089583 0)
(0.0819589 -0.0907453 -3.91819e-18)
(0.0497752 -0.0982815 -3.93035e-18)
(0.0766021 -0.0944333 3.92129e-18)
(0.147639 -0.0837366 -1.55967e-17)
(0.0714999 -0.0410388 -1.57497e-17)
(0.0749037 0.185233 3.14217e-17)
(0.0550111 -0.0970971 -3.93017e-18)
(0.0471328 -0.0907628 0)
(0.0518019 -0.103459 3.95962e-18)
(0.0876347 -0.0971532 0)
(0.0899665 -0.0918682 -1.56756e-17)
(0.0411893 -0.0608261 1.19804e-17)
(0.0647528 -0.102796 3.92431e-18)
(0.142061 -0.0745508 3.91165e-18)
(0.179535 -0.0886849 1.55481e-17)
(0.0955042 -0.0994407 -3.91534e-18)
(0.0903496 -0.090966 -2.74049e-17)
(0.102841 -0.115814 -1.17161e-17)
(0.0492149 -0.118262 1.18391e-17)
(0.025838 0.142214 -7.51994e-18)
(0.0344922 -0.0819992 -1.99148e-17)
(0.158329 -0.0567349 0)
(0.0539973 -0.106815 -3.92183e-18)
(0.0265056 0.216393 3.88279e-18)
(0.0988325 -0.108247 -3.90813e-18)
(0.0602214 -0.105956 -1.17703e-17)
(0.040538 0.138246 -1.55509e-17)
(0.00658803 0.186198 0)
(0.155106 -0.0608671 0)
(0.0460935 -0.0868778 -3.97735e-18)
(0.192752 -0.0815407 -3.49705e-17)
(0.058168 0.111851 -1.56926e-17)
(0.0655615 -0.112319 3.91647e-18)
(0.113484 0.147178 -3.90104e-18)
(0.134355 -0.0776092 -1.56217e-17)
(0.0988912 -0.111395 3.90978e-18)
(-0.138411 -0.0220021 -2.21852e-19)
(0.00868965 0.167988 0)
(0.099886 -0.116526 1.17228e-17)
(0.106005 0.17084 1.95048e-17)
(0.160323 -0.0411052 0)
(0.0946573 -0.0981691 1.56576e-17)
(0.0348392 0.121272 7.89744e-18)
(0.172564 -0.0615831 1.94816e-17)
(-0.11712 -0.0645437 0)
(0.14818 -0.0536382 1.17173e-17)
(0.00937736 0.210726 -1.5571e-17)
(0.160992 -0.050045 -3.9063e-18)
(0.136668 -0.0835549 -9.82301e-22)
(0.0254876 0.185389 -1.16882e-17)
(0.166019 0.019884 1.17956e-17)
(0.136917 -0.0676575 -1.95261e-17)
(0.0337762 0.0870032 -3.93183e-18)
(0.102759 -0.111891 -3.90792e-18)
(-0.00106161 0.202586 0)
(0.129221 0.124984 1.56092e-17)
(0.152817 -0.0728619 0)
(0.119391 -0.10818 1.17071e-17)
(-0.135444 -0.0105382 1.40748e-17)
(-0.134945 0.0280318 0)
(0.116733 -0.0827897 -1.56163e-17)
(0.109859 -0.16107 0)
(0.0856713 -0.0785502 3.15127e-17)
(0.168823 -0.0728955 0)
(-0.151697 0.0177875 -1.50376e-17)
(0.0745099 -0.126099 1.95756e-17)
(0.14053 -0.0469207 -1.1799e-17)
(0.146835 -0.0636764 5.62204e-22)
(0.120911 -0.104172 3.90248e-18)
(0.111944 0.0339435 -1.95272e-17)
(0.149196 -0.0338104 1.57431e-17)
(0.0474238 0.14234 1.56332e-17)
(-0.0235651 0.0232777 -8.77375e-18)
(0.0501777 -0.00299542 1.48745e-17)
(-0.02592 -0.0192918 9.86438e-19)
(0.00247002 -0.00104399 1.88144e-18)
(0.0163948 0.00917513 -2.05632e-22)
(-0.0228164 0.00147714 -3.2103e-17)
(0.0333166 0.00458075 0)
(0.0370842 -0.0138125 -1.38705e-17)
(-0.0172232 -0.00363401 -2.32451e-17)
(-0.0928552 0.0759698 -4.07764e-17)
(-0.0271942 -0.0132287 -1.57565e-17)
(0.0424202 -0.00766597 0)
(-0.00351844 0.0122461 2.31257e-17)
(-0.0142133 -0.0172582 1.58705e-17)
(-0.0362538 0.0227015 1.71755e-17)
(0.0439081 0.00545447 0)
(0.104183 -0.111945 1.17194e-17)
(0.0228813 0.0137338 -2.44905e-17)
(-0.00203091 -0.00281618 0)
(0.123227 -0.0907837 -3.90559e-18)
(-0.0668157 0.00599156 0)
(0.13036 -0.0612952 -1.17333e-17)
(0.126407 -0.0966869 3.90278e-18)
(-0.115731 -0.0515028 0)
(0.0225246 0.0211838 0)
(0.0946224 -0.104934 3.91008e-18)
(0.130323 0.103197 -1.56179e-17)
(0.0279145 0.197423 -3.89452e-18)
(0.16911 -0.101014 1.16659e-17)
(0.115975 0.0909743 -2.73797e-17)
(0.0619178 -0.119199 3.94465e-18)
(0.0512537 0.139212 -1.15977e-17)
(0.0433822 -0.0247567 0)
(-0.0967787 0.0230745 -2.64936e-22)
(0.141826 -0.106325 1.94732e-17)
(0.0502898 -0.09166 -3.94114e-18)
(0.0141252 0.208194 5.79981e-21)
(0.0924387 0.0692761 -1.16556e-17)
(0.0790568 -0.072432 -3.96662e-18)
(0.0470293 0.216929 3.10482e-17)
(0.0459225 0.0221817 1.44128e-17)
(0.0297797 0.0817304 3.5385e-17)
(0.0862474 0.126897 -1.94147e-17)
(0.130422 -0.099393 -1.17004e-17)
(0.12689 -0.0822908 1.9528e-17)
(0.132559 -0.0572925 -3.14066e-17)
(-0.0944624 -0.0284308 1.56988e-17)
(0.0850299 -0.102597 -1.95753e-17)
(0.130628 -0.0521171 1.56904e-17)
(0.13888 -0.0385975 2.06092e-22)
(0.122586 -0.0455067 0)
(-0.0769485 0.0457024 2.65822e-17)
(0.115983 0.112403 1.17319e-17)
(0.145095 -0.0277804 1.5929e-17)
(-0.00712498 0.191511 3.07186e-17)
(0.126636 -0.152891 1.55659e-17)
(0.179667 0.0305521 3.89834e-18)
(0.102491 -0.14391 -1.17098e-17)
(0.0975981 -0.106465 -1.56415e-17)
(0.143958 -0.131368 3.88923e-18)
(0.151952 -0.0897355 0)
(0.154143 -0.0370815 -3.90379e-18)
(0.0852617 -0.123196 -3.91041e-18)
(-0.0789044 -0.00722183 -1.57152e-17)
(0.074699 -0.0641803 3.1434e-17)
(0.0353982 0.016936 -1.46529e-17)
(0.15058 0.0209102 -1.17066e-17)
(0.0354384 0.204964 -1.5534e-17)
(0.141054 0.0785278 -1.16845e-17)
(-0.161865 0.0246115 3.89574e-18)
(-0.0199158 0.148753 1.13304e-17)
(0.0355213 0.155875 1.56475e-17)
(-0.157815 0.0278436 7.67178e-18)
(-0.116557 0.0188599 0)
(-0.0240308 0.00628094 -8.44629e-18)
(0.114696 0.066055 -2.67763e-17)
(-0.00219971 0.00236583 3.20145e-17)
(-0.0734109 0.0175572 3.65722e-18)
(0.11703 -0.105812 -1.56168e-17)
(0.114896 -0.0923926 3.90798e-18)
(-0.00199987 0.000927042 0)
(-0.129482 0.0196938 -3.22485e-17)
(0.03091 0.0136662 0)
(0.12534 0.129452 -1.94784e-17)
(-0.0794857 -0.072489 1.57099e-17)
(0.12002 -0.0657499 1.56459e-17)
(0.0709802 -0.11553 -1.56587e-17)
(-0.0319527 0.0378013 1.95869e-17)
(-0.0729465 -0.0574385 -1.57002e-17)
(0.123904 -0.142597 0)
(-0.0626285 -0.111232 -3.14041e-17)
(0.00380316 0.172412 -1.87127e-17)
(0.098812 -0.123791 1.95669e-17)
(0.0951269 0.0816886 1.5694e-17)
(0.149959 -0.144415 -1.16732e-17)
(0.164215 -0.114988 0)
(0.168994 -0.069003 3.89586e-18)
(0.184008 0.00772122 -7.79374e-18)
(0.0883645 -0.11722 -3.91037e-18)
(0.183202 0.0439504 1.16761e-17)
(0.167209 -0.0142585 0)
(0.125669 -0.0205578 1.72613e-17)
(0.118502 -0.0744581 -1.95564e-17)
(0.159221 0.0436325 3.50491e-17)
(0.119475 -0.0447042 0)
(0.0913885 -0.0547189 7.81846e-18)
(0.111255 -0.0991117 0)
(0.122199 -0.107573 3.90052e-18)
(0.0876461 -0.0779642 -1.95873e-17)
(-0.0177144 0.154803 -1.34819e-17)
(0.0845522 -0.110344 1.1737e-17)
(0.107205 -0.0556345 0)
(0.104278 -0.082409 -2.06253e-17)
(0.0448783 -0.0369423 1.57974e-17)
(0.107972 -0.10969 -3.90641e-18)
(0.132095 -0.0238184 -1.71349e-17)
(0.132681 0.133201 -1.55898e-17)
(-0.0931758 -0.0407106 -3.97433e-18)
(0.144329 0.0982944 0)
(0.0805397 -0.0853613 0)
(0.106408 -0.118476 -3.90365e-18)
(0.11227 -0.114235 0)
(0.107143 -0.115875 1.95287e-17)
(0.0586296 -0.0728735 0)
(0.106748 -0.115937 3.90678e-18)
(0.066635 0.206633 0)
(0.155738 -0.129717 1.16525e-17)
(-0.0281981 -0.0740854 0)
(0.112212 -0.11086 1.56168e-17)
(0.0958425 0.146852 3.89474e-18)
(0.142486 0.0755648 2.73268e-17)
(0.112268 -0.113664 -1.95133e-17)
(0.0820039 -0.118012 0)
(0.0494698 0.185499 0)
(0.125375 0.0194098 1.53449e-17)
(0.10656 -0.0751988 2.41748e-17)
(0.106912 -0.047774 0)
(0.0818547 -0.0941156 0)
(0.105629 0.0946162 2.72383e-17)
(0.19418 -0.022615 1.55773e-17)
(0.130567 0.0409095 -3.97674e-18)
(0.0535294 0.100189 0)
(0.127956 0.0741804 1.56428e-17)
(0.170937 0.00259839 7.80805e-18)
(0.052834 0.174123 -3.89873e-18)
(0.00904603 0.0455285 0)
(0.0346848 0.166251 3.87795e-18)
(0.113997 0.034366 -7.03363e-18)
(0.0580964 0.210417 0)
(0.0824503 0.187753 0)
(0.165272 0.0384944 -7.79824e-18)
(0.0898089 -0.118748 3.9103e-18)
(0.1563 0.0819733 -7.79442e-18)
(-0.0557519 -0.0987922 3.92814e-18)
(0.0915421 -0.0630008 7.79942e-18)
(0.098956 -0.0844776 7.32705e-18)
(0.10501 0.170259 0)
(0.123353 0.143337 7.7908e-18)
(0.142147 0.110948 -2.34809e-21)
(0.137289 0.0603172 3.90861e-18)
(0.032003 0.0185618 0)
(0.143728 0.12225 3.89336e-17)
(0.0977239 -0.101456 1.95546e-17)
(0.0694384 0.213528 -3.88446e-18)
(0.126742 0.0350634 -1.16487e-17)
(0.077434 0.173534 0)
(0.0841032 -0.0932834 -2.03403e-17)
(0.0848938 -0.0837268 2.76218e-17)
(0.0986052 -0.118504 -3.90611e-18)
(0.100558 -0.0968071 3.91128e-18)
(0.0620656 -0.0612873 1.67403e-17)
(0.155986 0.0635142 -2.34054e-17)
(0.0695057 0.0703303 0)
(0.0835778 0.0386697 -1.96708e-17)
(0.124375 0.0592704 0)
(0.127009 -0.128041 -1.55751e-17)
(0.0846437 0.198246 3.49582e-17)
(0.0448484 0.155736 -4.9335e-22)
(-0.0392309 -0.132698 1.56602e-17)
(0.206443 -0.00982341 1.94603e-17)
(-0.0960155 -0.0898937 0)
(0.117921 -0.11373 -3.90364e-18)
(0.143986 -0.121117 1.16804e-17)
(0.149715 -0.0483319 0)
(0.0749221 0.0508949 4.14323e-18)
(0.0459512 0.119528 1.56764e-17)
(0.0960729 -0.118249 -1.17188e-17)
(-0.0545216 -0.0341206 0)
(0.168832 0.0790453 0)
(0.115856 0.160344 0)
(0.206137 0.0425799 0)
(0.102062 -0.117917 1.56275e-17)
(0.105466 0.172977 1.96892e-17)
(-0.0203754 -0.14078 -1.57383e-17)
(0.0591781 0.196869 -3.89072e-18)
(0.0417021 0.0998114 -1.57103e-17)
(0.131547 -0.0932831 1.17065e-17)
(0.0935564 0.0607657 0)
(-0.0934369 -0.0698057 3.92268e-18)
(-0.00828694 0.0163229 3.56116e-17)
(0.0500867 0.121412 0)
(0.160708 0.0926633 -1.94655e-17)
(0.00330263 0.00596796 -3.96043e-18)
(0.0368426 0.0921664 -1.17891e-17)
(0.0598251 0.0931764 0)
(0.159395 0.0086889 -1.55879e-21)
(0.0898713 0.179932 -3.11339e-17)
(0.135184 0.0278161 -3.98313e-18)
(-0.005173 -0.149127 0)
(0.0307721 -0.0296717 0)
(0.059054 -0.07213 -1.29744e-17)
(-0.0182794 -0.125182 -3.86758e-21)
(0.100913 0.181958 -1.55771e-17)
(0.17131 0.0725102 -1.16786e-17)
(0.0505436 0.146823 -1.56326e-17)
(0.0828641 -0.0913315 0)
(0.103318 0.0379938 1.833e-17)
(0.156037 0.0268837 7.88788e-18)
(0.0479352 0.124967 2.67294e-22)
(0.107722 0.0562984 -3.99246e-18)
(0.10682 0.0219588 0)
(-0.04399 -0.0332811 -2.7536e-17)
(-0.115311 -0.0735422 -3.16008e-17)
(0.00551611 0.0374516 0)
(0.0248763 0.0667395 1.5759e-17)
(0.0523731 0.145988 1.56348e-17)
(0.0945716 -0.106581 0)
(0.0155004 0.0202635 -1.58203e-17)
(-0.0718347 -0.113551 -1.56573e-17)
(-0.0932301 -0.0981592 1.61527e-17)
(0.0699117 0.0610571 1.17996e-17)
(0.0112429 0.0448869 0)
(0.108881 -0.0146593 -1.54811e-17)
(0.0459604 0.116036 -1.56775e-17)
(0.144173 0.0355106 3.98286e-18)
(-0.0441495 -0.13733 0)
(0.0518377 0.0877306 0)
(0.0402519 0.185841 -1.16812e-17)
(-0.0599641 -0.107907 1.57139e-17)
(0.0348499 0.0865888 -3.92969e-18)
(0.0218819 0.060496 0)
(0.112809 0.00342719 0)
(0.17398 -0.118478 -2.71864e-17)
(0.198191 -0.00381729 -3.89074e-18)
(0.0604438 -0.0554324 4.21454e-18)
(0.0673745 0.189446 1.94572e-17)
(0.194211 0.0320411 1.16715e-17)
(0.201202 0.00380842 -2.72299e-17)
(0.0409397 0.104016 -1.96205e-17)
(0.0445185 0.0903672 -1.57191e-17)
(0.0597508 0.0690828 1.96774e-17)
(0.044098 0.105231 3.53181e-17)
(0.186497 0.0291089 1.16719e-17)
(0.184038 0.0464139 -1.16636e-17)
(-0.00934932 0.0175471 -4.0286e-18)
(0.106574 -0.117062 0)
(0.0599841 0.165999 -3.12218e-17)
(0.201524 -0.0523343 -1.55449e-17)
(0.0224024 0.0634406 -1.57533e-17)
(-0.0751315 -0.0774326 1.57077e-17)
(0.0799215 0.198012 -1.55624e-17)
(0.0759135 0.0697508 0)
(0.0939072 -0.00367156 0)
(0.0214788 -0.0778521 0)
(0.178913 -0.10898 1.55303e-17)
(0.143631 -0.0512058 0)
(-0.00422005 0.00802039 -1.18794e-17)
(0.0399168 0.0921353 0)
(-0.0141633 -0.00395748 0)
(0.068634 -0.0299013 0)
(0.0647356 -0.00467967 -3.94221e-18)
(0.02692 0.0707164 0)
(0.0892484 -0.107436 1.5654e-17)
(0.191537 -0.0707219 -3.88491e-18)
(0.081877 0.0290581 0)
(0.0340374 -0.0335059 -1.99554e-17)
(-0.0189239 -0.0775975 -1.58328e-17)
(0.0125595 -0.00753307 0)
(0.193886 -0.0929786 3.88264e-18)
(0.0497372 -0.0644296 0)
(0.0179396 -0.0633592 1.19785e-17)
(0.0304122 -0.0101994 0)
(0.120338 0.00605984 0)
(-0.00507756 -0.0694872 -1.58722e-17)
(0.0744639 0.00627288 0)
(0.0558565 0.0589384 -1.57504e-17)
(0.0428488 0.000978174 3.94999e-18)
(-0.0445498 -0.0618218 0)
(0.194399 -0.00122898 1.16947e-17)
(0.0428247 0.0320817 3.94521e-18)
(0.111495 0.0165203 0)
(0.0175843 -0.0312981 -1.07529e-17)
(0.187656 -0.0551991 -1.94804e-17)
(-0.0380266 -0.104576 2.44573e-21)
(0.145483 -0.0403603 -1.56703e-17)
(0.128677 -0.0205346 1.57069e-17)
(0.0675289 0.0387972 -1.57495e-17)
(0.0784974 0.0887258 0)
(0.141097 -0.0320693 -1.17838e-17)
(0.111829 -0.0244584 0)
(0.172764 -0.0349948 -1.56375e-17)
(0.0434234 0.0632294 0)
(0.0543246 0.123565 3.91512e-18)
(0.163484 -0.0635539 3.90887e-18)
(0.0303921 0.0768458 0)
(0.095861 0.0259643 3.93082e-18)
(-0.0159397 0.00185928 1.38266e-17)
(0.0603801 0.0265571 1.18193e-17)
(0.108814 0.139309 0)
(0.100911 0.123568 -1.17344e-17)
(-0.0310954 -0.057049 0)
(-0.00640921 -0.0132555 0)
(-0.0153081 -0.00285522 -1.42469e-17)
(0.0983685 0.00622732 0)
(-0.00473212 -0.0320613 0)
(0.0568209 0.0606999 -4.10481e-18)
(0.0415169 -0.0353107 1.98635e-17)
(0.133361 -0.0311758 -1.56922e-17)
(0.0646474 0.157095 -1.56122e-17)
(0.0160866 -0.0624445 1.64934e-17)
(0.123261 -0.0303707 1.59662e-17)
(0.128103 -0.0155806 0)
(0.0347184 0.0497673 -3.94484e-18)
(0.0133941 -0.0263251 0)
(0.0139845 0.00638963 -8.20164e-18)
(0.114445 -0.00764895 -1.1281e-21)
(0.0789375 0.0593983 0)
(0.154323 -0.0228163 -1.98982e-17)
(0.000890298 -0.0154933 0)
(0.113113 0.0126319 -3.93035e-18)
(0.117351 -0.0471438 1.2438e-17)
(0.00783609 -0.0520297 1.58987e-17)
(0.150541 -0.0477879 1.56685e-17)
(0.0648587 0.1327 1.17511e-17)
(0.00436199 -0.0269899 -6.61827e-18)
(0.0767549 0.167452 3.12256e-17)
(0.113512 0.000820876 1.57268e-17)
(0.129143 -0.0156457 -3.92847e-18)
(0.137279 -0.024937 0)
(0.174483 -0.0648195 0)
(0.102314 0.175466 1.57369e-17)
(0.0534708 0.132509 1.17458e-17)
(0.168657 -0.0279167 1.98811e-17)
(0.0355216 -0.0173227 -3.93805e-18)
(0.0386242 0.0785586 0)
(0.0175775 -0.0109599 0)
(0.205806 -0.0493362 0)
(0.00944169 -0.0148168 -1.58798e-17)
(0.1408 -0.0783731 0)
(0.0943655 0.177754 -1.59917e-17)
(-0.0145038 -0.0161006 2.79858e-17)
(0.0654904 0.0962809 3.13791e-17)
(0.00211329 0.0333377 -1.58053e-17)
(0.187609 -0.0443028 0)
(0.00511463 0.0422261 -1.58e-17)
(0.082151 0.149434 0)
(0.123107 -0.00727027 0)
(0.159499 -0.0585074 0)
(0.140699 0.000249419 1.18587e-17)
(0.111168 0.0956441 0)
(0.0170092 -0.0772662 0)
(0.0795383 0.112146 0)
(0.0988194 0.00308781 0)
(0.0447094 -0.087718 -3.97833e-18)
(0.123904 0.0432663 0)
(0.199503 -0.0674601 1.94322e-17)
(0.167014 -0.0666359 -3.90937e-18)
(0.103207 0.118131 0)
(0.0176419 0.0585197 -1.57649e-17)
(0.0971387 0.146942 -3.91169e-18)
(0.0125731 -0.0153744 4.10201e-18)
(0.080263 -0.0225038 0)
(0.0745643 -0.00102074 -1.53567e-17)
(0.176157 -0.0722426 -1.56546e-17)
(0.058936 0.0828849 4.01221e-18)
(0.115511 -0.00558419 -1.18621e-17)
(0.00645529 0.0380461 2.01249e-17)
(0.0312819 -0.0323326 -1.58354e-17)
(0.173558 -0.0686969 0)
(0.00479885 -0.0441873 0)
(0.00499656 -0.0164407 0)
(0.0920928 0.186494 0)
(0.154194 0.0338855 -1.18083e-17)
(0.14344 -0.0480153 -3.9376e-18)
(0.171951 -0.0610633 1.56816e-17)
(-0.000347839 -0.0150411 9.50647e-18)
(0.00804696 0.0434559 -3.98473e-18)
(0.0117273 -0.00627573 1.65442e-17)
(0.0853068 0.0561037 0)
(0.132781 0.0650017 -1.25114e-17)
(0.0212247 0.0627578 3.94224e-18)
(0.20699 -0.0348853 0)
(0.132833 -0.0383018 -1.56962e-17)
(0.0212797 0.0505403 3.9443e-18)