/*--------------------------------*- C++ -*----------------------------------*\
  =========                 |
  \\      /  F ield         | OpenFOAM: The Open Source CFD Toolbox
   \\    /   O peration     | Website:  https://openfoam.org
    \\  /    A nd           | Version:  9
     \\/     M anipulation  |
\*---------------------------------------------------------------------------*/
FoamFile
{
    format      ascii;
    class       volVectorField;
    location    "2";
    object      U;
}
// * * * * * * * * * * * * * * * * * * * * * * * * * * * * * * * * * * * * * //

dimensions      [0 1 -1 0 0 0 0];

internalField   nonuniform List<vector> 
942
(
(0.0222756 -0.0694073 0)
(0.0409433 0.0173152 2.45264e-17)
(0.0394624 0.107216 0)
(0.00972548 -0.0787604 -1.29735e-17)
(0.042444 0.117378 7.78641e-18)
(0.035927 -0.032488 1.37235e-17)
(0.0084041 -0.0121097 3.60757e-17)
(0.0437124 -0.0371558 0)
(0.00417593 -0.048427 -2.84149e-17)
(0.00501316 -0.0530801 2.89635e-17)
(0.0485669 -0.00235948 0)
(0.0842112 -0.032997 0)
(0.00921955 -0.0801446 1.20992e-17)
(0.0759386 0.0436658 0)
(0.0945243 -0.0352265 0)
(0.0435903 0.00566624 -2.66509e-17)
(0.0678171 0.0123457 -1.04936e-17)
(0.0193323 -0.0694018 0)
(0.0893406 0.0556917 -3.13234e-18)
(-0.0237068 0.00396843 4.81912e-18)
(0.0688659 0.0023028 1.78845e-17)
(0.0858578 -0.0360128 1.44023e-17)
(0.0142463 -0.0265952 0)
(0.00827847 -0.0134704 -2.85408e-17)
(0.0450496 -0.0205308 0)
(0.00512932 -0.0252612 2.14371e-17)
(0.0358991 0.104952 0)
(0.016425 -0.035162 1.81879e-17)
(0.0211279 -0.0024425 0)
(0.0152631 -0.0510088 1.14873e-17)
(0.00127534 -0.0338029 1.44337e-17)
(0.0307872 0.0927561 0)
(0.0165098 0.00547028 1.36154e-17)
(-0.084143 0.00915514 1.59172e-17)
(0.0371348 0.109146 -1.56384e-17)
(0.0178038 -0.0183305 3.0013e-17)
(0.0377399 -0.0537966 1.01304e-18)
(0.00575898 -0.0412117 0)
(0.0367849 -0.0553955 -5.17361e-19)
(0.00933107 -0.00149794 2.03775e-17)
(-0.069225 -0.0339867 -2.84999e-17)
(0.0482263 -0.0508643 0)
(0.0151614 0.0181807 -1.40518e-17)
(0.011537 -0.0198158 -1.20272e-17)
(0.0115311 -0.0165878 -3.04245e-17)
(0.0668273 0.0409843 6.85725e-18)
(0.0486116 0.0696081 -1.38988e-17)
(-0.0868569 0.0268683 -1.31072e-17)
(-0.0694132 -0.0311658 1.46811e-17)
(0.0765642 0.0267572 1.71081e-17)
(0.0816678 0.0646323 0)
(0.00674622 -0.0129269 0)
(0.0117568 -0.00924714 -2.02404e-17)
(0.00482459 -0.018291 1.61694e-17)
(0.00513589 -0.0656349 0)
(-0.00020513 -0.0444688 -1.07319e-17)
(0.0216607 -0.00172647 -2.70576e-17)
(0.00646323 -0.0687382 -1.94054e-18)
(0.0332122 -0.00160702 3.46633e-17)
(0.0509744 0.103151 1.4969e-17)
(0.0117845 -0.0379941 -1.42796e-17)
(0.0354805 0.10429 -3.68408e-17)
(-0.0454454 0.00667621 1.71683e-17)
(0.0226399 -0.0633749 -1.39955e-17)
(0.0079257 -0.0418615 1.32715e-17)
(0.0712073 0.0041873 1.01927e-17)
(0.0307429 0.0895277 2.88049e-17)
(-0.00830658 0.0789283 -1.31244e-17)
(-0.00742295 -0.0340008 1.36056e-17)
(0.0213229 -0.0416191 3.73054e-18)
(0.0287981 0.0229413 0)
(0.00597786 -0.0333784 0)
(0.0148304 0.00151792 -1.7706e-18)
(0.0146683 -0.0571915 3.44417e-18)
(0.00658649 -0.0195977 -1.53207e-17)
(-0.0477551 0.00103611 1.21513e-22)
(-0.0254442 0.00918457 1.7764e-18)
(0.0317069 0.0907106 1.58998e-17)
(0.000683784 -0.0248832 -1.72838e-17)
(0.0606331 0.0105883 -3.491e-18)
(0.015006 -0.016094 2.07046e-17)
(0.00500011 -0.0294146 -7.46392e-18)
(-0.00258069 -0.0329068 -1.88503e-18)
(0.057176 0.00128653 7.67796e-18)
(0.056625 -1.7394e-05 0)
(0.0302685 0.109695 0)
(0.0190611 0.0938736 -1.56489e-17)
(0.0676146 -0.0191104 4.32622e-18)
(0.0833764 0.0537568 0)
(-0.00823779 -0.0379721 2.15589e-17)
(0.0453088 -0.057674 -1.09819e-17)
(0.0259157 0.0600008 4.95702e-19)
(0.00647045 -0.0748645 2.1837e-18)
(-0.00277378 -0.0657387 0)
(0.0168691 -0.0327323 -4.24551e-18)
(-0.0402503 0.00651891 7.80321e-18)
(0.0434347 -0.0491484 1.34684e-17)
(0.0573997 -0.0172391 -1.25714e-17)
(0.024998 -0.0275519 -1.86718e-17)
(0.0075497 -0.0330687 -2.66572e-17)
(0.00951696 -0.0330567 -8.01221e-18)
(0.00556846 -0.0769344 9.04119e-18)
(0.0700884 0.0770788 0)
(0.0206493 -0.0364424 1.02634e-17)
(0.0256739 -0.0421125 -1.62317e-17)
(0.0105668 -0.0312555 -2.61643e-17)
(0.0814441 0.0337866 -9.19604e-18)
(0.0462273 0.0351042 0)
(-0.0543148 0.0508787 1.42049e-17)
(-0.000816373 0.0571582 0)
(0.0141326 -0.020032 0)
(-0.0207162 -0.0339624 -1.43715e-17)
(0.0149597 0.0954043 2.84995e-17)
(0.0056985 -0.0376327 0)
(0.0620859 0.000658329 0)
(0.0143959 0.0326647 1.93438e-18)
(0.0611393 0.126351 -1.53518e-17)
(0.0127764 -0.0774556 1.63948e-17)
(0.00438762 -0.0167391 5.03235e-23)
(0.0668826 -0.035993 -1.87975e-18)
(0.00590806 -0.0159346 6.24332e-18)
(0.0203502 -0.0126743 -1.61328e-17)
(0.00736344 0.0138502 0)
(0.0250519 0.000209142 1.42094e-17)
(0.02514 -0.00262429 1.15074e-17)
(0.00189147 -0.028445 -3.06597e-17)
(0.0033121 -0.00596527 1.61896e-17)
(0.0255775 0.0275727 -1.54477e-17)
(0.0346824 0.0369592 2.82475e-17)
(0.00671685 -0.00537544 1.47815e-17)
(0.0869752 0.0469252 -7.58588e-18)
(0.0832229 0.0402202 -1.7553e-17)
(0.0483279 0.0467783 0)
(-0.127794 0.00809658 0)
(-0.0904099 0.0205568 -1.57408e-17)
(0.0618645 0.0415931 -1.09766e-17)
(0.00940506 -0.0116423 9.62813e-19)
(-0.016079 0.0394463 0)
(-0.0197916 -0.00884528 1.96756e-17)
(-0.0805441 -0.00304059 -6.70121e-18)
(-0.120557 0.00225616 1.57582e-17)
(0.0457575 0.0431424 0)
(0.0422543 0.118118 -1.56509e-17)
(0.0031894 -0.01803 1.70348e-17)
(0.0391843 -0.0299953 -3.97075e-18)
(0.0133454 -0.00702701 -7.21173e-18)
(0.0158734 -0.0332361 0)
(0.00746736 -0.0387867 -9.52721e-18)
(0.028998 -0.037101 2.40429e-17)
(0.0350562 0.114996 0)
(0.047769 -0.0335465 4.29324e-18)
(0.0869435 0.0210766 4.745e-18)
(0.0414287 0.101328 0)
(0.0254774 -0.0356949 8.92468e-18)
(0.0350791 0.0956204 -1.55464e-17)
(0.0319549 -0.0505856 0)
(0.0600206 0.00128889 1.75047e-17)
(0.0018727 -0.0158715 0)
(0.0651794 0.126712 0)
(-0.0406163 0.00996687 6.48015e-18)
(0.0739144 -0.000418387 -2.26386e-17)
(0.0272017 -0.042639 0)
(0.00667124 -0.076797 0)
(0.0521145 -0.0244959 7.99755e-18)
(0.0563853 0.0275163 0)
(0.0786796 0.0877753 -2.36575e-17)
(0.011558 -0.037242 0)
(0.0260278 -0.0441878 0)
(0.0564673 0.0331473 1.40087e-17)
(0.0350474 0.0870317 1.66395e-17)
(-0.0522695 0.0404455 -1.3881e-17)
(-0.0475592 -0.040547 -1.84317e-18)
(0.0193558 -0.0172978 -9.87428e-23)
(0.0149797 -0.0366234 8.97137e-18)
(0.0342626 0.124652 0)
(0.0216327 -0.0606967 -1.74167e-17)
(-0.0484932 -0.0118355 -1.65022e-17)
(0.020021 -0.0622419 0)
(0.00616891 -0.0725081 5.72406e-19)
(0.0266364 -0.0631052 0)
(0.0201986 -0.0296174 -1.04773e-17)
(0.0252748 0.00555829 0)
(0.0349056 -0.0449512 -2.05561e-17)
(0.0247845 -0.0651763 2.33689e-22)
(0.0167596 -0.0654438 -1.0372e-17)
(0.00769192 -0.025177 0)
(0.0808526 0.117798 -8.15508e-18)
(0.0292729 0.075123 1.641e-17)
(0.0433048 0.132675 2.3311e-17)
(0.0302706 -0.0668163 7.8443e-18)
(0.0432932 0.138949 3.14401e-17)
(0.0321222 -0.0647997 -7.86173e-18)
(0.0189631 -0.0485686 -9.9603e-18)
(0.00497831 -0.032313 -1.50868e-17)
(0.0235144 0.058058 8.31033e-18)
(0.0113677 -0.0785924 -7.46623e-18)
(0.0214655 0.0508783 0)
(0.0186123 -0.053791 2.66867e-17)
(-0.0764908 -0.0176532 -1.92399e-17)
(0.00309314 0.00477189 1.45509e-17)
(0.000936411 -0.0101432 0)
(0.0142605 -0.078323 7.57954e-18)
(0.0121151 0.0233576 0)
(0.0548412 0.0179418 -1.76103e-17)
(0.0470996 0.108374 1.66265e-17)
(-0.0290369 -0.0729105 0)
(0.0205378 -0.019263 1.66411e-17)
(0.0386486 0.109674 -3.61509e-17)
(0.00897204 0.00873625 -1.40475e-17)
(0.00638942 -0.00938944 1.39176e-17)
(0.026545 0.0727834 -8.06367e-18)
(0.0153424 -0.0752563 3.53139e-22)
(0.00801844 -0.0586692 1.2867e-17)
(0.0422632 0.131323 7.65904e-18)
(0.00668952 -0.000314931 0)
(0.025212 -0.07613 -7.9199e-23)
(0.0466647 0.139871 -1.91392e-17)
(0.0702591 0.098384 1.60903e-17)
(0.0251147 0.0666408 1.59951e-17)
(0.0224427 0.0421141 -9.87845e-23)
(0.0300149 -0.0743558 0)
(0.0238471 -0.0762276 -1.54178e-17)
(0.0355695 -0.0674618 0)
(0.0203281 -0.0764755 0)
(0.00170905 -0.0093962 -1.60976e-17)
(0.0101768 0.0338019 1.60199e-17)
(0.0438886 0.140795 -1.12747e-17)
(0.0345398 -0.0717089 -1.58413e-17)
(0.00247511 -0.00849492 2.35937e-17)
(0.0205852 0.000155173 0)
(0.0108178 -0.0304211 -1.47413e-17)
(0.0406766 0.121661 -2.82764e-17)
(0.010365 0.0278543 1.55118e-17)
(0.00274183 -0.00886614 -8.4824e-18)
(0.0282132 -0.0754974 -7.96769e-18)
(0.0131592 -0.0721549 2.81784e-22)
(0.0642146 0.120091 -1.66948e-17)
(0.0330991 -0.0737671 1.59143e-17)
(0.0119567 -0.0116976 -1.53202e-17)
(0.0284002 0.0565495 1.58417e-17)
(0.029312 0.0303931 0)
(0.0267604 -0.0414361 -3.88221e-18)
(0.0386191 -0.0712095 7.84887e-18)
(0.0197482 -0.0527717 -8.87101e-18)
(0.0245581 -0.055271 -1.56984e-17)
(0.00961822 0.0144081 -1.59164e-17)
(0.0386311 -0.0686639 7.89795e-18)
(0.023272 -0.0760746 -8.55846e-18)
(0.0376492 -0.0713093 -1.58473e-17)
(0.0119709 0.00803488 3.92118e-18)
(0.0441858 0.144175 -3.97102e-18)
(-0.0198887 -0.0786437 -1.45889e-17)
(0.0458235 0.141756 0)
(0.00542954 -0.00437625 1.18339e-17)
(0.0300304 -0.0577325 1.55972e-17)
(0.0181444 -0.0747374 1.73321e-17)
(0.0363112 -0.0713036 0)
(0.037388 -0.0652938 0)
(0.0727813 0.0379724 -7.8947e-18)
(0.0204203 -0.049251 8.83677e-18)
(0.028258 -0.0730771 -7.79663e-18)
(0.0793662 0.0455861 7.76556e-18)
(0.0427672 0.135012 -1.93856e-17)
(0.0351824 -0.059288 -4.12283e-18)
(0.0361258 -0.0653764 8.20422e-18)
(0.00685615 -0.0496239 0)
(0.0255339 -0.0525176 0)
(0.0421887 -0.0650206 0)
(0.0084205 -0.0361961 1.49511e-17)
(0.041982 -0.0685631 7.9872e-18)
(0.0422632 -0.0652644 1.51161e-17)
(0.0487249 0.143561 -1.44642e-17)
(-0.0395815 -0.0602566 1.70355e-17)
(0.0449901 0.137581 -7.63254e-18)
(0.0351918 0.106922 1.6058e-17)
(0.0814821 0.076405 -1.60206e-17)
(0.0227992 0.0261476 0)
(0.0466622 -0.0541408 0)
(0.037273 0.11274 -7.92411e-18)
(0.00823293 -0.0101288 -1.64443e-17)
(0.0306543 -0.0550937 0)
(0.0210836 -0.0190668 -1.352e-18)
(0.0154092 -0.0227933 1.66904e-17)
(0.0478826 -0.0581514 0)
(0.104763 -0.0266222 3.10893e-17)
(0.0905509 0.125742 -1.53814e-17)
(0.0439764 -0.0592196 2.34516e-17)
(0.0464047 -0.0640028 1.55907e-17)
(0.0356765 -0.0561895 4.03885e-18)
(0.0400393 -0.0598152 4.01481e-18)
(0.0925484 -0.0252458 -1.57892e-17)
(-0.0071177 -0.0550629 1.85799e-17)
(0.0851962 0.0825928 -7.16813e-18)
(0.0454526 -0.0546351 1.75718e-17)
(0.0401724 -0.0460831 4.44522e-18)
(0.103572 0.00895756 -1.42344e-17)
(0.101752 0.0882189 0)
(0.101127 0.112954 7.97349e-18)
(0.118629 0.0617691 7.43438e-18)
(0.0902901 0.135916 0)
(0.0836754 0.106009 0)
(0.0435717 -0.0558009 -8.0235e-18)
(0.137557 -0.044057 -3.59812e-18)
(0.0953419 -0.092274 -2.50792e-17)
(0.0896319 0.0887233 -2.48716e-17)
(0.041133 -0.0700677 7.82736e-18)
(0.0594208 -0.0711663 -2.49529e-17)
(0.0177698 -0.00478736 0)
(-0.0369445 -0.0100712 -7.21332e-18)
(0.0187844 0.0375189 1.51163e-17)
(0.00446236 -0.0100671 1.22635e-17)
(-0.00759915 -0.0179067 -8.8318e-22)
(0.0138486 -0.00804756 -2.17133e-18)
(0.0150368 0.00375312 -1.51269e-17)
(0.0525753 -0.0579512 2.71741e-22)
(0.0413545 0.0432449 2.42648e-17)
(0.00581987 -0.00782425 -1.65745e-17)
(0.0185508 0.00185603 4.11186e-23)
(-0.0331423 -0.0221125 -4.27547e-18)
(0.0174438 -0.00695991 0)
(-0.00345872 0.00918739 -4.44258e-18)
(0.0286889 0.0442882 0)
(0.00419802 -0.00581218 1.73866e-17)
(0.0097256 0.000101673 -3.10944e-17)
(-0.0135779 -0.0298688 -1.95793e-17)
(0.0849216 0.0278709 -1.59921e-17)
(0.0265678 0.0111205 0)
(0.0493343 -0.059997 -8.09231e-18)
(0.0561681 -0.0573462 0)
(0.0108952 -0.0105101 0)
(0.105989 -0.0140312 -3.11593e-17)
(0.0459248 -0.0624498 -1.37919e-17)
(0.0577004 -0.0570646 7.86141e-18)
(0.122088 -0.0659255 -1.41178e-17)
(0.0538031 -0.0520148 0)
(0.108486 0.000905818 1.56008e-17)
(0.0771239 -0.094943 8.95728e-18)
(0.102198 0.0446423 -4.58796e-19)
(0.108767 0.0224542 0)
(0.0145268 -0.00939849 -1.55367e-17)
(0.0908549 0.0866087 2.28616e-17)
(-0.00389488 0.0373204 -1.57063e-17)
(0.055229 -0.0608516 -4.09041e-18)
(0.10104 0.0441453 -3.89191e-17)
(0.10135 0.127414 -1.57971e-17)
(0.10173 -0.00687918 0)
(0.0858911 0.124648 1.609e-17)
(0.0566251 -0.0588267 1.56749e-17)
(0.0451593 -0.0660906 1.55875e-17)
(0.121697 0.106744 -7.77323e-18)
(0.105617 0.0241556 1.55976e-17)
(0.139906 0.0655754 9.14681e-22)
(0.0530129 -0.0606173 -3.98372e-17)
(0.152901 0.0143834 -8.1965e-18)
(0.0985279 0.0612634 -1.38954e-17)
(0.0492398 -0.0506387 0)
(0.0800686 0.102719 1.58534e-17)
(0.0494934 -0.0629479 0)
(0.0801467 0.0629733 7.79394e-18)
(0.0191799 0.0509063 1.5749e-17)
(0.152316 -0.0318363 1.99421e-17)
(0.0735171 -0.0490107 0)
(0.0992391 -0.028088 -2.20515e-18)
(0.0453172 -0.0653008 1.33077e-17)
(0.111512 -0.0847518 -1.57988e-17)
(0.11636 -0.023815 8.25606e-18)
(0.0779819 -0.0404751 -7.97894e-18)
(0.0599279 0.0294676 3.60017e-17)
(0.0702859 -0.0707348 2.36302e-17)
(-0.00578906 0.0463986 -4.09535e-18)
(0.0279046 -0.0188539 0)
(0.0969057 0.0674193 1.53876e-17)
(0.0459441 0.0306889 -7.83167e-18)
(0.0608874 -0.0581224 -1.51939e-17)
(0.0959751 0.0447223 7.87442e-18)
(0.108204 0.116493 7.77997e-18)
(0.0890606 0.0655736 7.88828e-18)
(0.0875895 0.125136 1.61318e-17)
(0.0473416 -0.0670574 7.69095e-18)
(0.13179 0.0842789 7.75642e-18)
(0.0145475 0.0212842 1.76753e-17)
(0.00322242 -0.00876335 0)
(-0.0807951 0.0135903 1.57191e-17)
(0.00865511 -0.0085163 0)
(0.0515017 0.0266578 3.91552e-18)
(0.151124 0.0361819 2.45503e-17)
(0.132139 -0.0728654 3.1131e-17)
(0.112748 -0.0375131 2.4127e-18)
(0.0759401 0.113482 -3.22153e-17)
(0.158758 -0.0108817 -3.2863e-17)
(-0.0017655 0.0141053 -8.04423e-18)
(-0.0333349 -0.011577 -4.01414e-18)
(0.0520771 -0.0470979 0)
(0.126684 -0.00273905 1.6105e-17)
(-0.091634 0.0106051 4.19282e-18)
(0.0620415 -0.0536286 0)
(0.0841899 -0.0475739 1.54692e-17)
(-0.0452707 0.0178076 4.11075e-18)
(0.0386298 0.0297658 8.10893e-18)
(-3.9766e-05 -0.0125245 -1.02807e-18)
(-0.0739019 0.00185965 -7.03751e-18)
(0.0592097 -0.0607517 -2.33221e-17)
(0.0985182 -0.023577 0)
(0.072213 -0.0425911 7.41093e-18)
(0.0828955 -0.0776415 0)
(0.101779 -0.0014518 0)
(0.0259365 -0.0359622 0)
(0.0729196 0.0809094 0)
(0.0632262 -0.0593486 7.79985e-18)
(0.00410724 -0.00523954 2.37257e-17)
(0.0312121 0.0300275 -1.69152e-17)
(0.130668 -0.0332367 7.81677e-18)
(0.0760243 -0.0539428 0)
(0.151604 -0.0447299 2.34045e-17)
(0.111032 -0.0714854 0)
(0.0497041 -0.066079 -7.84896e-18)
(0.0512608 -0.0647438 7.85997e-18)
(0.0682697 -0.0574331 7.78034e-18)
(0.100694 -0.033897 1.56304e-17)
(0.0647149 -0.0595583 7.78273e-18)
(0.0672615 -0.0489845 1.63333e-17)
(0.0760056 -0.0621389 -3.13619e-17)
(0.0577921 -0.0483283 0)
(0.0571113 -0.0601552 -7.75322e-18)
(0.0938421 -0.072965 1.56188e-17)
(0.138317 -0.0590772 -1.55802e-17)
(0.0956136 0.0191756 0)
(-0.0176835 0.0163806 1.64448e-17)
(0.148623 -0.0192028 1.56969e-17)
(0.105888 0.00146752 -2.90804e-17)
(0.0801084 -0.0168737 0)
(0.155597 -0.00304243 1.56854e-17)
(0.115724 -0.0169084 0)
(0.0146186 0.0147993 0)
(0.0193931 -0.0249358 0)
(0.0671603 -0.053849 0)
(0.132836 0.0753976 2.33289e-17)
(0.06159 -0.0573848 0)
(0.0697615 -0.0592624 7.86374e-18)
(0.131419 -0.0103493 -1.64435e-17)
(0.0622397 -0.0594622 7.76429e-18)
(0.0923707 -0.0445524 -1.4319e-17)
(0.083077 0.111423 -1.56437e-17)
(0.134128 0.0134225 0)
(0.0492474 -0.0645399 -1.56098e-17)
(0.145199 -0.0315569 -2.3401e-17)
(0.0746471 0.0367477 0)
(0.049387 0.00575259 0)
(0.073144 -0.0575834 0)
(0.0550432 -0.0625325 1.56108e-17)
(0.0599912 0.0731379 -1.10485e-21)
(0.0163936 -0.0203794 -1.51292e-21)
(-0.00877314 0.00701834 -1.62503e-17)
(0.057627 -0.0614266 0)
(0.057553 0.0306364 0)
(0.100836 -0.0226394 0)
(0.0832945 0.0163139 0)
(0.0668238 0.0340876 0)
(0.0535535 -0.0637654 -7.82129e-18)
(0.0271239 -0.000420809 -1.59998e-17)
(0.150503 0.036251 2.3445e-17)
(0.107455 0.102631 -7.79207e-18)
(0.0149735 -0.0237243 1.5775e-17)
(0.0483873 0.0481192 -7.81567e-18)
(0.07627 -0.0277332 7.94718e-18)
(0.027318 0.0382064 -7.84835e-18)
(0.0509737 -0.0559275 0)
(0.151312 0.0115806 -1.56717e-17)
(0.138681 0.0499573 -3.10771e-17)
(0.0828776 -0.0469849 0)
(0.114402 0.0841277 -1.55549e-17)
(0.0736399 0.0848772 -1.58411e-17)
(0.0866149 0.102817 0)
(0.129828 -0.0536388 0)
(0.0967528 -0.0406895 9.08226e-22)
(0.0874404 0.0580217 7.11304e-18)
(0.083131 -0.0592631 0)
(0.0358412 0.0730786 -2.3475e-17)
(0.115763 -0.0608811 0)
(0.0867391 -0.0274773 0)
(0.0431852 -0.0693094 -1.55148e-17)
(0.0882266 -0.0371343 -1.56445e-17)
(0.0678426 0.103611 0)
(0.0872817 -0.0482811 -1.56234e-17)
(0.0938349 -0.0600582 -7.82544e-18)
(0.0882332 -0.0272252 1.56143e-17)
(0.125226 -0.0422911 -1.59909e-17)
(0.0653106 0.106119 1.56543e-17)
(0.0834685 -0.0532211 0)
(0.0807171 -0.039101 -7.81763e-18)
(0.0660005 -0.0396695 -2.76745e-17)
(0.0608158 -0.0130357 0)
(0.0698826 -0.0497951 0)
(0.0534159 0.0860023 2.34098e-17)
(0.0455382 -0.0682449 -1.52488e-17)
(0.0824368 0.0201569 0)
(0.084689 -0.0420571 1.56258e-17)
(0.076551 0.101784 3.28381e-17)
(0.0794599 -0.00778213 -1.56349e-17)
(0.053152 -0.0625659 0)
(0.03393 -0.0352179 3.33421e-17)
(0.0847439 -0.0340041 7.80516e-18)
(0.054016 -0.0599993 0)
(0.0800134 -0.0162138 1.56414e-17)
(0.0120232 0.0632245 -8.57722e-18)
(0.068165 0.0101718 0)
(0.0511717 0.0906521 0)
(0.0600175 0.0505679 0)
(0.0644126 -0.0307821 1.37885e-17)
(0.0870738 0.0364997 -7.55026e-18)
(0.0975277 -0.0525621 -1.90436e-17)
(0.0800894 -0.0294091 0)
(0.0840444 0.00697633 8.03893e-18)
(0.0780404 -0.0272018 -1.56394e-17)
(0.070379 -0.0275678 2.64031e-17)
(0.0503168 -0.0622743 0)
(0.0837664 0.0166139 -6.79218e-18)
(0.0808701 -0.0114272 0)
(0.0793041 0.0704079 0)
(0.0572512 -0.030875 0)
(0.105438 -0.0422228 0)
(0.0314095 0.0792742 7.86441e-18)
(0.10165 0.0692708 0)
(0.0806362 -0.0202551 0)
(0.106557 0.0495033 -7.87984e-18)
(0.123356 0.0218465 -7.74746e-18)
(0.0671391 -0.0467471 0)
(0.0730907 -0.00978585 0)
(0.0546031 -0.0321693 0)
(0.123595 0.0433699 3.11253e-17)
(0.0523083 0.0846727 2.37118e-17)
(0.0621905 -0.0510405 0)
(0.107487 -0.0494729 1.34745e-17)
(0.0362331 0.0920349 -1.57787e-17)
(0.0755156 -0.0275805 1.56455e-17)
(0.0588122 0.00221051 -1.57082e-17)
(0.0170522 -0.0370286 -1.30195e-21)
(0.0806012 0.000935577 0)
(0.0406449 -0.0670882 0)
(0.0457322 0.14383 1.50944e-17)
(0.0262575 -0.0643098 0)
(0.0780101 -0.0284205 0)
(0.0681415 -0.0221523 -1.39376e-17)
(0.0399377 -0.0565073 -1.97955e-17)
(0.051529 -0.0373452 0)
(0.0239727 -0.0203412 -1.56856e-17)
(0.0787809 -0.0187318 0)
(0.0710364 -0.029084 -1.5661e-17)
(0.0395446 -0.0264935 -7.85264e-18)
(0.034063 -0.0103296 3.14476e-17)
(0.06685 -0.0262054 0)
(0.0783079 -0.00313595 -1.56403e-17)
(0.0448261 0.077014 7.86586e-18)
(0.0574325 -0.0298721 0)
(0.0438832 0.140787 1.96385e-17)
(0.0516392 -0.0202284 -7.85378e-18)
(0.0379169 0.0425841 -1.57648e-17)
(0.0241223 -0.0446839 -1.46953e-17)
(0.0460169 0.143743 -7.90695e-18)
(0.0410185 -0.0520644 0)
(0.0675216 0.0660697 -1.57993e-17)
(0.0337479 -0.0725654 0)
(0.0249364 -0.0731934 2.32521e-17)
(0.0526697 0.0263933 2.35983e-17)
(0.0476494 0.131835 1.56923e-17)
(0.0219677 -0.0355354 3.16169e-17)
(0.0412889 -0.0350202 -8.36079e-18)
(0.0220601 -0.030669 -1.59429e-17)
(0.0528203 0.133991 0)
(0.0105531 -0.0580951 0)
(0.0423186 0.101982 -1.57629e-17)
(0.0468683 0.140406 3.26931e-17)
(0.0336741 -0.0377822 0)
(0.0424305 0.0164072 -2.36076e-17)
(0.0233499 -0.0723436 -3.25066e-22)
(0.033536 0.101783 7.94299e-18)
(0.0576284 0.118018 0)
(0.053196 0.0858626 7.98284e-18)
(0.0520845 0.142322 -2.35876e-17)
(0.0413465 0.114434 0)
(0.0190148 -0.0760986 1.79923e-17)
(0.0424648 0.118408 -3.39046e-17)
(0.00161985 -0.0729372 0)
(0.0583001 0.0579446 0)
(0.0311418 -0.0717507 -1.57028e-17)
(0.0285826 -0.0730567 0)
(0.0469759 0.137426 1.56965e-17)
(0.024933 0.0605045 4.58009e-19)
(0.013489 -0.0658312 -1.71984e-17)
(0.0376303 0.118607 -1.5952e-17)
(0.0367063 -0.0388499 -1.29066e-17)
(0.0258383 -0.0711328 1.57692e-17)
(0.001971 -0.0794174 0)
(0.00916056 0.0141007 0)
(0.00179562 -0.0149368 5.44317e-17)
(0.00150923 -0.0600564 -3.50129e-17)
(0.00452004 -0.0248645 -3.45233e-17)
(0.0524343 -0.0179391 0)
(0.0478761 0.148991 1.68155e-17)
(0.017966 -0.0699883 -2.46111e-17)
(0.0203966 -0.0688828 2.47574e-17)
(0.000971669 -0.0406118 0)
(0.00580646 -0.0211583 -1.73201e-17)
(0.040091 0.149339 -5.20378e-17)
(0.00112241 -0.0408232 -1.64051e-17)
(0.0379777 -0.0290079 -3.574e-22)
(0.0383816 0.10657 1.46567e-17)
(0.0154876 -0.0654727 -1.68916e-17)
(0.02857 -0.0233585 8.15367e-18)
(0.0216754 0.0462966 0)
(0.0569043 -0.00640167 -1.86313e-17)
(0.0480583 0.142919 3.79938e-17)
(0.00762831 -0.000953313 -1.83646e-17)
(0.00360062 -0.0225871 1.73304e-22)
(0.0511366 -0.0214757 2.56192e-17)
(0.0964836 0.00561539 -7.54405e-22)
(0.0680005 -0.061004 3.09145e-17)
(0.0888973 0.0212052 1.12221e-17)
(0.0291354 -0.0692902 0)
(0.00265068 -0.0511344 1.75853e-17)
(0.00396184 -0.0249432 0)
(-0.0266208 0.0277701 -1.03706e-17)
(0.0449533 0.147384 -5.44275e-19)
(0.00255322 -0.0284865 0)
(0.0435104 0.140309 5.00887e-19)
(0.043651 0.124066 1.75423e-17)
(0.0057285 -0.0123508 -2.04815e-17)
(0.00281095 -0.0303632 -4.96043e-18)
(0.0107544 -0.0533689 4.18678e-18)
(0.0356561 -0.00438484 2.43225e-17)
(-0.0170561 0.0317002 1.83302e-17)
(0.00671564 -0.0407497 -1.93997e-17)
(-0.103299 0.00030862 1.50549e-17)
(0.0327374 -0.065152 0)
(0.0627865 -0.0083787 9.11611e-18)
(0.0203715 0.038633 0)
(0.00406687 -0.0281519 1.46117e-17)
(0.016506 -0.0557312 0)
(0.0312687 0.0231335 -3.47515e-17)
(0.0837069 0.0928603 -1.86831e-17)
(0.104412 0.019953 -1.52879e-17)
(0.00894134 -0.0184538 -1.31623e-17)
(0.0876853 -0.0263833 0)
(-0.0193984 0.0598084 8.60141e-19)
(-0.0224241 0.0209921 0)
(0.0761254 -0.031399 -2.72082e-17)
(0.0599707 -0.0217043 -1.28674e-17)
(0.064354 -0.0237397 -4.51681e-18)
(0.00323155 -0.00874654 3.34687e-17)
(0.0210029 -0.032889 0)
(0.0146411 -0.0575356 1.44262e-17)
(0.055914 -0.0093828 0)
(0.0577295 -0.0275977 -2.45976e-17)
(0.00214946 -0.067824 -1.86566e-17)
(0.0737615 0.135059 1.72611e-17)
(0.0400813 0.0536307 0)
(0.0144195 0.0636035 -4.52914e-18)
(0.0435434 0.129167 0)
(0.043648 0.0236172 1.7183e-17)
(0.00620606 -0.0675442 5.51556e-19)
(0.00136886 -0.0507375 3.68588e-17)
(0.0324727 -0.0692927 0)
(0.00352585 -0.0770128 1.6008e-17)
(0.00313499 -0.0674293 1.7102e-17)
(0.00569181 -0.0796804 9.02878e-18)
(0.0167605 -0.0383703 -7.98399e-23)
(-0.0142365 0.0232388 -2.3893e-17)
(0.0481584 0.139451 0)
(0.0430668 -0.0500565 0)
(0.0180175 0.0680804 -8.70178e-18)
(0.0744276 0.125456 1.7738e-17)
(0.0185477 0.0600786 0)
(0.00453134 -0.0175547 8.57826e-18)
(0.0189402 0.0554121 -1.45012e-17)
(0.00497407 -0.0170937 0)
(0.00975541 -0.0765229 0)
(0.0103551 0.041203 -6.69687e-23)
(0.0112257 0.0309581 1.50735e-17)
(0.00245698 -0.00917575 8.38048e-18)
(0.00865501 -0.0668878 -8.79124e-18)
(0.0582392 -0.0939443 0)
(0.0626001 0.13429 1.70399e-17)
(0.0427092 -0.0569198 -8.79802e-18)
(0.0627971 0.0645471 -8.55066e-18)
(0.0534069 0.0315028 0)
(-0.0138401 -0.0241059 0)
(-0.0578553 -0.0141163 7.67283e-18)
(0.0322015 0.065262 -1.646e-17)
(0.039825 0.035748 0)
(0.0172293 -0.011456 1.43927e-17)
(0.0260561 -0.0153403 0)
(0.0568814 0.0749874 8.45605e-18)
(0.0112137 -0.01503 -1.64476e-17)
(-0.0412591 -0.0301252 2.19099e-18)
(-0.055713 -0.0248802 1.31523e-17)
(0.0394158 0.0701454 -1.74059e-17)
(0.0476943 0.0736914 -1.7574e-17)
(0.0109184 -0.0131418 0)
(0.0382309 0.0115896 1.60807e-17)
(0.0364691 0.0234933 0)
(-0.0212717 -0.0233758 -2.071e-18)
(-0.0397489 -0.0188027 0)
(0.0229605 0.0403101 0)
(0.0341492 0.0465894 -8.49848e-18)
(0.0141629 -0.00966512 4.64202e-23)
(0.00512332 -0.00706886 0)
(0.0113227 -0.00324081 -1.35831e-17)
(0.0890889 -0.0162321 -9.16162e-18)
(0.0768607 0.00827296 -1.68667e-17)
(0.071053 0.0979732 0)
(0.000651456 -0.0601164 -1.78317e-22)
(0.0741513 0.119909 -2.73104e-17)
(0.0425574 0.00449148 -1.99575e-17)
(0.00552696 -0.0520966 0)
(0.0225503 -0.0173094 -3.34347e-17)
(0.0556445 0.135299 -8.32059e-18)
(0.0462432 0.13606 0)
(0.0518178 -0.0340882 1.70374e-17)
(0.0154871 -0.078021 -9.5701e-18)
(0.0490199 0.11906 1.89706e-17)
(0.0122346 -0.00930902 1.69406e-17)
(0.0884 -0.00678704 9.11757e-18)
(0.0679207 -0.0144042 2.66129e-17)
(0.0919018 0.0422959 9.48848e-18)
(0.0562655 -0.0429633 0)
(0.0269026 -0.01367 -3.33222e-17)
(0.0289333 -0.0132386 -4.07311e-18)
(0.0273559 -0.0352721 2.55318e-17)
(0.00159544 -0.0729547 -1.77792e-17)
(0.0947261 -0.074206 -2.87769e-17)
(0.0991636 0.048587 1.41093e-17)
(0.0314605 0.0764926 -2.33318e-17)
(0.00835923 -0.072099 4.51686e-18)
(0.0855874 0.136086 1.72359e-17)
(0.084623 0.120617 -2.59248e-17)
(-0.00344574 -0.0222697 3.63462e-17)
(0.0220706 -0.0158206 0)
(0.0208136 -0.0764065 -1.86118e-17)
(0.0216707 0.05535 2.90966e-17)
(0.0286331 -0.0336106 -1.69758e-17)
(0.0163735 -0.078594 1.00769e-17)
(0.0776783 0.0173778 -4.49297e-18)
(0.00951907 0.0508207 0)
(0.0352028 0.0676297 -8.74876e-18)
(0.0394198 -0.0616417 -1.8567e-17)
(0.0360038 -0.0439561 1.72173e-17)
(0.0190948 -0.0738197 1.1187e-17)
(0.012369 0.0301793 -1.87984e-17)
(0.0149052 -0.0485818 9.98242e-18)
(0.0659291 0.0849339 -1.39372e-17)
(0.00965615 -0.0511102 0)
(0.0855476 0.0793725 3.19905e-17)
(0.0804355 -0.0126892 -1.76235e-17)
(0.0944319 -0.00483638 2.23803e-17)
(0.0139339 -0.00765254 2.12676e-17)
(0.129132 -0.020754 4.46464e-18)
(0.117398 0.0335637 -9.55217e-18)
(0.0230751 -0.000418179 -1.98109e-17)
(0.0226668 0.000582738 1.88665e-17)
(0.0529079 -0.0241268 0)
(0.0607692 0.05139 0)
(0.00249211 -0.0765672 -1.95745e-17)
(0.00101935 -0.00693653 -9.55908e-18)
(0.00158083 0.00231387 -1.91334e-17)
(0.00320766 -0.0799272 1.11144e-22)
(0.0216178 -0.0292278 8.73682e-18)
(0.0239587 -0.0168851 -1.76191e-17)
(0.000781828 -0.0159152 0)
(0.00262181 -0.00520446 0)
(0.0293595 -0.0304647 3.21265e-17)
(0.00339275 0.0605593 -3.16568e-17)
(0.0073904 -0.00871196 -8.92913e-18)
(0.0805903 0.100773 1.02881e-17)
(0.000327392 -0.00822385 1.80519e-17)
(0.0288607 0.0958501 2.06337e-17)
(-0.0403922 -0.0152286 0)
(0.0678992 -0.0122293 0)
(-0.0448811 -0.0277912 -9.23746e-18)
(0.0176035 0.107683 1.0814e-17)
(0.0867628 0.0637384 -8.39935e-18)
(0.00618181 -0.0165962 -1.38229e-17)
(0.0100159 -0.0380658 9.21162e-18)
(0.0150808 0.010614 -2.28973e-18)
(0.00494221 0.0161553 -3.15845e-17)
(0.0493702 0.143957 -2.20919e-17)
(0.0378858 -0.0370497 5.35282e-18)
(0.0766591 0.114219 2.26164e-17)
(0.0117011 -0.00545687 -7.80709e-23)
(0.0479054 -0.0518254 1.59424e-17)
(0.0296646 -0.00949209 1.86224e-17)
(0.022651 -0.040381 -8.95368e-18)
(0.0351633 0.105762 -3.00934e-17)
(0.00221472 -0.0357704 1.95271e-17)
(0.0303388 -0.00837575 -9.17953e-18)
(0.0274742 -0.0111747 -1.83581e-17)
(0.0380175 -0.0419734 1.59409e-17)
(0.0498692 0.104469 -2.17082e-18)
(0.00650889 -0.00741795 4.49862e-18)
(0.0189696 0.0529065 4.01268e-18)
(0.0182257 0.00585603 0)
(0.00388343 0.00631355 6.13555e-18)
(0.0492655 0.138697 9.8427e-18)
(0.0265943 -0.0228896 2.16678e-17)
(0.00738608 0.00374044 0)
(0.0610072 -0.0130192 -3.8147e-18)
(0.051939 -0.0827857 2.18226e-17)
(0.0300327 -0.0925099 1.21491e-17)
(0.00432621 -0.026916 0)
(0.000619724 -0.00767505 -1.8917e-17)
(0.0415671 -0.0529451 9.97166e-18)
(0.0040258 -0.00118023 -2.53523e-18)
(0.0121006 0.0235837 -1.32168e-18)
(0.048997 0.00262914 4.8186e-18)
(-3.65019e-05 -0.00666095 2.07452e-17)
(0.00480961 -0.0259449 0)
(0.0201173 -0.0881334 0)
(0.0382743 -0.0418152 0)
(0.0430268 -0.00288455 -1.06943e-17)
(0.0849947 0.0380776 0)
(0.0943604 0.0121781 1.76128e-17)
(0.0107094 -0.0721233 -1.03191e-17)
(0.000132549 -0.0153629 -1.059e-17)
(0.00524506 -0.026467 0)
(0.0516898 -0.0982007 -5.35557e-18)
(0.0647934 0.0237261 0)
(0.101107 0.0385516 5.99964e-19)
(0.00495385 0.0015875 1.02022e-17)
(0.00180746 -0.0170721 1.49387e-17)
(0.0229041 -0.0516892 0)
(0.0124143 -0.0303391 1.93094e-17)
(0.00499299 -0.0222878 0)
(0.0053339 -0.0245648 0)
(0.0105107 -0.061604 1.29121e-18)
(0.0271733 -0.0712659 -1.88371e-17)
(0.00717358 -0.016875 -1.10239e-18)
(0.042594 -0.0271023 0)
(0.0905762 0.0742808 3.67964e-17)
(0.00551128 -0.0264831 1.05401e-18)
(0.0181262 0.0795956 -9.35327e-18)
(0.0184306 -0.0178723 0)
(0.0341033 -0.0450511 -8.27558e-18)
(0.0212004 -0.0451549 -2.24918e-17)
(0.0503436 -0.0299026 2.06532e-17)
(0.0823667 0.10157 9.83152e-18)
(0.0245845 -0.0468464 9.10567e-18)
(0.0859882 -0.0129856 -9.83525e-18)
(0.00259092 -0.0171798 -1.98882e-17)
(0.0621308 -0.043043 -1.87754e-17)
(0.0263755 -0.0202073 0)
(0.0743499 -0.0376328 1.32348e-17)
(0.0261442 -0.059259 4.56672e-18)
(0.0820713 -0.0978615 1.77122e-17)
(0.0442477 0.128393 4.77015e-18)
(0.0500112 0.143484 0)
(0.0247821 -0.0551606 1.74874e-17)
(0.0388613 -0.0601969 2.82551e-17)
(0.0437299 0.0530958 0)
(0.0322441 -0.0558824 2.90476e-18)
(0.0030361 -0.00844248 -1.30269e-17)
(0.018416 0.00761704 0)
(0.00732917 -0.0601667 -1.23124e-18)
(0.0849776 0.102321 -1.76421e-17)
(-0.0212218 -0.0125077 -6.46985e-22)
(0.0833674 0.13067 9.90727e-22)
(0.0294415 -0.0600726 -4.70506e-18)
(0.0308843 -0.0333052 -2.12282e-17)
(-0.00474066 0.022883 2.35392e-17)
(0.0113275 0.00669464 4.20655e-17)
(-0.0163649 -0.0334461 -2.16276e-17)
(0.010655 -0.00554912 3.12214e-17)
(-0.00679875 0.0434003 4.46117e-18)
(0.00647458 -0.0305314 1.04309e-17)
(0.0221331 0.051796 2.07958e-17)
(0.0351617 -0.0484902 0)
(0.0601583 -0.0380486 -2.90688e-17)
(0.0235788 -0.0296017 -1.82059e-17)
(0.078838 0.0689782 5.0255e-18)
(0.033211 -0.0350797 0)
(0.0155002 0.0356788 -2.22983e-17)
(0.0338309 -0.0445552 -2.13344e-17)
(0.0650474 0.113541 0)
(0.00974161 -0.0290079 1.16238e-17)
(0.0136 -0.0742019 1.30637e-17)
(0.0360281 -0.0617532 -1.07497e-17)
(0.0386235 -0.0484373 1.30252e-18)
(0.0121485 -0.0505565 0)
(0.000970197 -0.0793655 2.24317e-22)
(0.0667371 0.127541 0)
(0.0128189 -0.0149613 1.87242e-17)
(0.0312794 -0.044877 -2.65691e-18)
(0.032972 -0.00799096 1.08802e-17)
(0.00198764 -0.0323842 0)
(0.00382148 -0.0154508 2.31672e-17)
(-0.0473957 -0.0218401 2.15045e-17)
(0.0431162 -0.0430964 -5.37383e-18)
(0.0270795 -0.0249017 -1.76101e-17)
(0.0177972 -0.0293482 -3.66811e-17)
(0.0264642 0.0667587 0)
(0.100633 -0.0106396 0)
(0.0687945 0.111026 -2.23213e-17)
(0.0598999 0.10333 2.8947e-17)
(0.047128 -0.100266 9.24106e-18)
(0.140613 0.0106928 1.05064e-17)
(0.0324027 -0.0476912 7.61043e-18)
(0.000874433 -0.0316247 -1.15316e-17)
(0.0472321 0.142271 0)
(0.0590218 0.118003 0)
(0.0375553 -0.0459791 0)