/*--------------------------------*- C++ -*----------------------------------*\
  =========                 |
  \\      /  F ield         | OpenFOAM: The Open Source CFD Toolbox
   \\    /   O peration     | Website:  https://openfoam.org
    \\  /    A nd           | Version:  9
     \\/     M anipulation  |
\*---------------------------------------------------------------------------*/
FoamFile
{
    format      ascii;
    class       surfaceScalarField;
    location    "2";
    object      phi;
}
// * * * * * * * * * * * * * * * * * * * * * * * * * * * * * * * * * * * * * //

dimensions      [0 3 -1 0 0 0 0];

internalField   nonuniform List<scalar> 
3673
(
-3.1587e-07
3.28956e-08
2.82975e-07
3.66682e-07
-2.14191e-07
-1.52491e-07
-2.7908e-08
-2.87962e-07
-4.74852e-08
-6.93189e-09
5.44171e-08
4.66949e-08
-9.41802e-08
-1.90237e-07
-1.30323e-07
3.2056e-07
-9.57816e-08
1.74426e-07
-7.86441e-08
-1.88756e-07
-1.6684e-07
3.55596e-07
-1.4222e-07
4.64389e-08
1.06487e-07
-2.96724e-07
-1.15364e-07
1.01726e-07
1.36381e-08
1.1155e-07
-9.03497e-08
-2.12003e-08
1.24155e-07
2.42527e-07
9.3428e-08
-1.28531e-07
3.51028e-08
9.1115e-08
2.1676e-07
-3.91571e-07
1.74812e-07
1.51852e-07
2.25734e-08
7.67447e-09
-7.67447e-09
1.59035e-07
-7.18269e-09
-6.96925e-08
1.6312e-07
1.34849e-07
-1.2686e-07
-7.98887e-09
6.152e-08
-6.152e-08
1.52844e-07
-3.416e-07
-1.574e-07
1.46377e-07
1.10232e-08
-8.91761e-08
-2.6188e-08
9.4841e-08
1.6709e-08
-1.91865e-07
1.87573e-07
4.2922e-09
-1.38695e-07
1.07318e-07
-1.05031e-07
-2.28727e-09
2.25873e-07
-1.74221e-07
-5.16519e-08
1.82188e-07
4.36851e-08
2.39345e-07
-5.7157e-08
2.37216e-07
-2.51374e-07
1.41574e-08
2.04855e-08
-1.16451e-07
9.59656e-08
-1.34168e-07
1.7277e-07
-3.8602e-08
-5.31639e-08
8.22611e-08
-2.90972e-08
-7.92092e-08
2.60453e-08
-4.52739e-08
-3.39353e-08
-8.75791e-08
8.75791e-08
-4.45229e-08
5.3931e-08
-9.40805e-09
-5.15982e-08
5.15982e-08
-2.74865e-08
4.06383e-08
-1.31518e-08
-5.05502e-09
5.05502e-09
-6.13496e-08
6.22228e-08
-8.73195e-10
1.80275e-08
-1.80275e-08
1.75901e-08
4.37366e-10
1.75901e-08
-1.09503e-07
1.02564e-07
6.93916e-09
-4.01827e-08
4.01827e-08
1.1761e-07
-7.76327e-09
-1.09847e-07
-1.64441e-07
9.30826e-09
1.55133e-07
-1.07719e-07
1.67067e-08
9.10119e-08
8.72978e-08
-7.95246e-09
-7.93453e-08
-6.30554e-08
-1.05065e-09
6.4106e-08
-2.46622e-08
-3.3482e-09
2.80104e-08
-1.07743e-07
1.44887e-08
9.32542e-08
1.79084e-07
1.4616e-09
-1.80546e-07
-5.53083e-09
-2.74962e-09
8.28045e-09
1.25922e-07
-1.33548e-07
7.62545e-09
1.1821e-07
-1.12468e-07
-5.74195e-09
-1.19211e-07
1.34745e-07
-1.55341e-08
-1.36282e-07
1.65088e-07
-2.88053e-08
2.46393e-07
-9.17667e-09
-2.49364e-07
2.2157e-07
2.77937e-08
-1.89628e-07
1.14853e-07
7.47745e-08
-7.55403e-08
-3.76565e-08
1.13197e-07
-8.09829e-08
7.77216e-08
3.26132e-09
-6.96714e-08
6.65545e-08
3.11697e-09
-2.75487e-08
2.44506e-08
3.09807e-09
-1.59218e-08
1.27444e-08
3.17737e-09
-4.02413e-09
7.58044e-10
3.26609e-09
4.83779e-08
-5.28227e-08
4.44481e-09
5.68812e-08
-5.98648e-08
2.98362e-09
-6.43242e-08
2.97462e-09
1.78291e-07
-3.45131e-07
-9.77377e-08
-1.17656e-08
-4.92198e-08
2.65832e-07
-2.16613e-07
-7.04475e-08
2.50436e-08
4.54039e-08
5.11078e-09
2.24609e-08
-2.75717e-08
-1.64114e-08
4.98334e-08
-3.34219e-08
-3.65978e-08
3.65978e-08
5.03299e-08
-5.03299e-08
6.93527e-08
-6.93527e-08
1.01369e-07
-1.01369e-07
-1.55015e-07
1.55015e-07
-1.54814e-07
1.54814e-07
1.20777e-07
-1.20777e-07
3.30143e-08
-3.30143e-08
6.93267e-08
-1.14259e-07
4.49327e-08
-1.4422e-07
1.4422e-07
1.96637e-08
-5.69909e-09
-1.39646e-08
2.73937e-08
-1.44373e-08
-1.29564e-08
-2.36114e-08
3.78833e-08
-1.42719e-08
-4.59517e-08
5.98353e-08
-1.38836e-08
6.89803e-08
-5.53353e-08
-1.36449e-08
7.87471e-08
-6.52141e-08
-1.3533e-08
9.03598e-08
-7.67538e-08
-1.3606e-08
-1.5102e-08
1.5102e-08
-1.12672e-07
1.27661e-07
-1.49895e-08
-1.22626e-07
1.34363e-07
-1.17376e-08
-1.32238e-07
1.38824e-07
-6.58686e-09
1.14105e-07
2.07442e-08
2.09751e-07
-5.06669e-09
-2.04685e-07
-2.20267e-07
1.47426e-08
2.05524e-07
1.94639e-07
-1.55548e-08
-8.01721e-09
2.48637e-09
-1.54876e-08
-1.41913e-07
-3.6452e-07
1.66389e-07
1.98131e-07
-4.0291e-08
1.08295e-10
8.85581e-09
-1.18135e-09
-1.54255e-07
-1.27124e-08
1.66967e-07
-3.28391e-09
-1.88581e-07
-4.0291e-08
8.01009e-09
1.85328e-07
-1.93338e-07
-1.4426e-08
1.52343e-09
1.05795e-07
-6.20783e-08
1.08988e-08
5.11796e-08
1.86229e-07
-3.16552e-07
2.30497e-07
-2.29154e-07
-1.34321e-09
-1.86598e-09
-8.95232e-08
9.13891e-08
6.30554e-08
-1.5354e-09
2.3246e-07
-2.2445e-07
1.03187e-07
-9.30993e-08
-1.40351e-07
1.38485e-07
-1.6075e-07
6.49515e-09
-1.16557e-08
4.72383e-09
-5.40645e-09
1.1761e-07
-1.07719e-07
-1.87831e-09
-2.46622e-08
-1.2902e-08
3.24054e-09
1.36666e-07
-1.39907e-07
2.81503e-07
-2.48607e-07
-3.87676e-08
-1.07201e-07
2.16974e-09
4.42476e-09
-1.23636e-07
9.92304e-09
-1.46205e-07
1.78659e-07
7.13951e-09
-1.85799e-07
-5.63408e-09
-2.4373e-07
-1.54883e-08
-1.74139e-07
-4.10209e-08
-3.45194e-08
-5.67205e-08
-4.50082e-08
1.01729e-07
-1.75791e-07
4.16234e-08
-1.95121e-07
1.9374e-07
1.38181e-09
9.9885e-08
-1.55399e-08
-8.43451e-08
-9.99912e-09
-7.09838e-08
-5.96911e-08
-9.98039e-09
4.02565e-08
-7.95568e-09
-3.23008e-08
-8.33765e-09
-1.92111e-08
-7.93829e-09
-7.98352e-09
1.26587e-09
-5.29e-09
-3.24043e-08
4.91781e-09
1.40995e-07
-1.50729e-08
-4.19491e-08
-2.28819e-09
4.42373e-08
-6.06289e-09
5.44408e-08
-2.28235e-09
5.91635e-08
-1.91905e-08
1.21755e-07
-1.24305e-08
-7.51486e-08
8.74545e-08
-2.32046e-08
2.01864e-07
-1.97426e-07
8.2559e-08
-1.39279e-07
1.03044e-07
-2.08414e-08
-1.7428e-07
6.14197e-08
-6.09492e-09
-4.55032e-08
3.41616e-08
-3.66792e-09
-1.3871e-09
-4.5617e-08
3.37596e-09
1.42142e-08
-5.87024e-08
4.23147e-08
1.9703e-07
-2.09059e-07
-7.39065e-08
-4.25445e-08
9.88634e-08
-5.79863e-08
-1.5175e-09
-4.30055e-08
5.00807e-08
5.12915e-09
3.55091e-08
1.01842e-08
-2.21506e-10
6.24443e-08
-1.8249e-08
2.11815e-09
8.54609e-08
-1.9664e-07
9.33197e-09
1.87308e-07
-9.06788e-09
1.33232e-07
-9.78925e-08
-1.59085e-07
1.85787e-07
-6.07417e-08
-2.08233e-09
-1.79156e-08
-2.16143e-08
-1.11933e-07
9.35398e-09
1.08856e-07
1.45981e-08
1.20147e-07
2.20933e-08
1.42994e-07
-4.14104e-09
2.50534e-07
5.43282e-09
2.16138e-07
-1.8549e-08
1.33402e-07
-4.67416e-08
9.08507e-09
-8.83165e-09
8.65532e-08
-6.88539e-09
7.34399e-08
-9.91337e-09
3.4364e-08
-9.38177e-09
2.21262e-08
-1.01985e-08
1.09565e-08
-1.26553e-08
-4.01674e-08
-8.97028e-09
-5.08945e-08
-6.77753e-09
-5.75467e-08
-1.40797e-08
8.46599e-10
-3.14844e-08
2.75181e-08
2.23152e-08
-2.35537e-09
-3.42425e-08
3.87676e-08
5.47547e-08
-4.09759e-08
7.92758e-08
-5.47547e-08
1.08509e-07
-7.92758e-08
-1.59156e-07
1.49381e-07
-1.49381e-07
1.39326e-07
7.97559e-08
-1.39326e-07
-1.19939e-08
-7.97559e-08
1.1095e-07
-3.5554e-08
-7.87054e-08
-1.42838e-07
1.18283e-08
1.32391e-07
1.08321e-08
-2.1239e-08
2.05083e-08
-2.44364e-08
-3.35918e-08
1.0065e-08
2.78183e-08
-5.39074e-08
4.9922e-08
5.95985e-08
-6.3673e-08
6.85486e-08
-7.31524e-08
1.00995e-08
8.02603e-08
-8.20438e-08
-1.01842e-08
-4.87485e-09
1.99768e-08
-1.1496e-07
1.15006e-07
-1.28688e-07
1.25393e-07
-1.3452e-07
1.32047e-07
2.17367e-09
2.07578e-07
1.30346e-07
-1.35412e-07
-1.41244e-07
1.43842e-08
-9.56195e-08
-2.48175e-07
7.93238e-10
-1.13261e-07
9.27782e-08
-9.22971e-08
-4.81094e-10
3.11235e-09
8.96659e-08
4.09759e-08
-2.38727e-07
1.97168e-07
-1.93927e-07
2.27213e-07
1.78912e-07
-2.28131e-07
-5.88608e-09
-2.23268e-07
2.80736e-07
-1.49033e-08
-1.14393e-08
-5.00807e-08
-1.57441e-07
1.72184e-07
1.48278e-07
-1.38946e-07
-9.6712e-08
9.44771e-08
2.23492e-09
4.24917e-08
1.95164e-07
-9.83605e-09
-3.80134e-09
-9.29107e-08
1.83361e-07
-1.46094e-07
-8.09596e-09
1.5419e-07
-2.7591e-09
5.39387e-08
-3.10361e-09
1.08899e-07
-3.53447e-08
7.29404e-08
-7.29404e-08
-6.7223e-08
6.7223e-08
4.34401e-08
-4.34401e-08
-3.74269e-08
3.74269e-08
3.12765e-08
-3.12765e-08
-2.68282e-09
2.68282e-09
-1.06739e-08
1.06739e-08
-1.52744e-08
1.52744e-08
-8.95914e-08
-6.17197e-08
1.51311e-07
8.06122e-09
-1.52662e-07
1.44601e-07
-2.18729e-07
1.46816e-07
7.19133e-08
-2.23823e-07
2.21663e-07
2.15968e-09
-1.53898e-07
1.94263e-07
-4.03651e-08
1.77768e-07
-1.54681e-07
-2.30876e-08
-1.57163e-07
1.68437e-07
-1.12733e-08
-1.02221e-07
1.02221e-07
1.44477e-07
-1.54572e-07
1.60105e-07
-5.53325e-09
3.83116e-09
-1.42777e-07
8.54609e-08
9.24001e-08
1.89278e-07
-1.00248e-07
1.97615e-07
-5.06767e-08
-2.27904e-08
-1.14551e-08
1.14551e-08
-1.42142e-08
-1.478e-08
-2.60586e-08
-4.28046e-08
6.80393e-09
1.10814e-07
9.88828e-08
4.19981e-08
9.82132e-09
2.20813e-09
2.4561e-09
2.06316e-09
2.91515e-09
2.97298e-09
4.06992e-09
3.54623e-09
1.61688e-09
7.51486e-08
-6.96791e-08
-6.4106e-08
6.96791e-08
4.55032e-08
-4.0342e-08
-3.42495e-08
4.0342e-08
3.42495e-08
-2.80104e-08
1.3871e-09
7.12763e-09
-7.12763e-09
1.36575e-08
-1.36575e-08
1.8249e-08
2.12224e-08
5.14771e-08
1.06944e-07
-7.78872e-08
-1.90935e-07
1.88814e-07
-2.33e-07
2.28467e-07
-1.82703e-07
1.51459e-07
1.5171e-07
-1.70215e-07
-1.62905e-07
1.53657e-07
-9.24001e-08
1.09847e-07
-4.119e-09
2.91626e-08
-1.57676e-07
1.55851e-07
4.2541e-09
4.59498e-08
4.51997e-09
-1.50614e-07
6.97536e-10
-1.07431e-07
-1.39653e-07
1.89412e-09
-1.89412e-09
-3.82117e-09
2.10171e-08
-1.71959e-08
-4.64283e-09
8.21658e-10
8.55705e-09
-8.55705e-09
-1.10212e-08
1.20549e-08
-1.0337e-09
1.25988e-08
8.41831e-09
-4.64283e-09
-3.74935e-08
3.0313e-08
7.18048e-09
-3.62143e-08
-1.27919e-09
-3.99161e-10
2.29328e-09
4.02506e-08
-4.05267e-08
2.76064e-10
4.03631e-09
-4.15095e-08
9.82853e-10
-4.30638e-08
1.55421e-09
-4.14334e-08
-1.63033e-09
-1.02738e-08
-7.4734e-10
-4.38847e-08
2.45131e-09
8.76491e-09
6.61272e-08
-7.48921e-08
1.75721e-09
7.0077e-09
-4.01394e-08
-3.74537e-09
1.49664e-08
-2.3676e-09
-4.31791e-08
3.03978e-09
3.77441e-08
-4.11597e-08
3.41566e-09
-5.43505e-09
9.24943e-09
-1.27468e-08
3.49741e-09
3.43816e-08
-3.80235e-08
3.64185e-09
-6.77814e-09
3.91423e-09
-3.02083e-08
-7.81513e-09
-3.39939e-08
3.78553e-09
-2.54153e-08
-8.57854e-09
-2.92571e-08
3.84177e-09
8.7517e-09
2.97944e-08
-3.85461e-08
-2.02082e-08
-9.04885e-09
4.09377e-08
-3.2186e-08
-2.40158e-08
3.80754e-09
-1.47718e-08
-9.24396e-09
-1.84582e-08
3.68639e-09
-2.94302e-08
2.65069e-08
2.92325e-09
-1.54594e-09
1.54594e-09
-1.39678e-08
8.0095e-08
4.69253e-09
-2.31571e-09
6.06205e-08
-5.83048e-08
1.26621e-08
-4.28359e-09
-8.37847e-09
9.80902e-09
2.85304e-09
-6.81477e-08
6.58319e-08
1.81749e-08
-8.36586e-09
1.53388e-08
2.83613e-09
-1.29936e-09
3.05657e-09
2.37622e-08
-8.42347e-09
2.08964e-08
2.86585e-09
-7.21271e-09
2.92913e-09
-9.20879e-09
-1.37844e-08
4.35788e-08
-8.51208e-09
3.79227e-08
3.01501e-09
-4.66874e-08
4.36865e-08
3.00092e-09
-8.76468e-09
-6.27149e-08
6.27149e-08
5.23485e-08
-8.66207e-09
4.94266e-08
2.92188e-09
-2.29328e-09
-8.21658e-10
-5.78526e-08
5.50791e-08
2.77349e-09
-8.42591e-09
6.31367e-08
-8.0576e-09
-1.1412e-08
2.85494e-09
-8.53377e-09
6.05728e-08
2.56382e-09
6.06205e-08
-7.57481e-09
2.67709e-08
2.07098e-07
-2.33869e-07
-1.29015e-08
-5.89598e-08
7.18613e-08
9.81809e-08
-1.03878e-07
5.69698e-09
1.12851e-07
-1.46702e-08
3.64065e-07
-3.52932e-07
-1.11323e-08
3.565e-07
7.56476e-09
1.05319e-07
7.53204e-09
2.66409e-08
-2.66409e-08
1.23864e-07
-1.85447e-08
-1.56155e-08
-2.16504e-07
2.3212e-07
3.70776e-07
-3.63979e-07
-6.7963e-09
1.88042e-08
-5.0376e-09
-1.37666e-08
1.14466e-07
9.39785e-09
-2.63887e-08
2.29986e-07
-2.03597e-07
-4.56036e-07
4.60199e-07
-4.16272e-09
-3.50132e-07
3.57664e-07
-7.53151e-09
3.59407e-07
1.13688e-08
-4.22948e-07
4.28179e-07
-5.23097e-09
3.49601e-07
-3.41584e-07
-8.01735e-09
-3.62156e-07
1.20239e-08
-3.72976e-09
-9.01708e-09
3.45916e-07
1.1748e-08
3.41383e-07
-8.62104e-09
-3.32762e-07
-2.23068e-08
1.36773e-07
-1.48371e-08
4.38089e-07
-4.23252e-07
-5.51613e-08
-2.26655e-07
2.81816e-07
-4.19221e-07
4.21316e-07
-2.09582e-09
3.33494e-07
-9.29688e-09
-3.24197e-07
2.957e-08
-1.28054e-08
-2.52491e-07
2.65297e-07
3.37157e-07
1.24443e-08
-1.54274e-08
-2.12992e-07
2.28419e-07
4.33463e-08
6.20203e-07
-6.63549e-07
-5.54892e-09
3.62049e-07
-3.65738e-07
-1.13209e-08
-9.25569e-08
-1.02063e-08
3.26011e-07
-3.15805e-07
-2.68183e-07
1.56916e-08
-5.54818e-08
3.04116e-08
2.50701e-08
3.45782e-08
6.70832e-07
-7.0541e-07
4.82163e-07
2.66774e-08
-5.08841e-07
-1.20075e-08
-2.30921e-07
2.42928e-07
1.095e-08
-3.74929e-07
-2.11695e-08
-3.43123e-08
-2.35843e-08
-4.2477e-07
3.28463e-07
1.29199e-08
-1.40868e-08
-2.24601e-07
2.38688e-07
9.71701e-09
6.95655e-07
-7.05372e-07
4.29372e-07
-4.02601e-07
-2.33691e-08
6.87652e-07
-6.64283e-07
-2.09447e-09
3.6668e-07
-7.27291e-09
-3.54801e-07
-7.35479e-09
-1.50691e-08
-2.20309e-07
2.35378e-07
-6.05459e-08
6.43928e-07
-5.83383e-07
3.20006e-07
1.34888e-08
6.87552e-08
-3.83435e-08
-1.53779e-08
-2.18265e-07
2.33643e-07
3.14787e-07
-1.20649e-08
-3.02722e-07
7.22462e-09
4.00761e-07
-4.07986e-07
-9.5307e-08
5.53605e-07
-4.58298e-07
7.96023e-08
2.01476e-09
-8.16171e-08
-4.25069e-07
4.18272e-07
-9.63203e-08
4.1001e-07
-3.13689e-07
3.07059e-07
-1.29185e-08
-2.94141e-07
-5.04377e-07
5.47723e-07
-4.14095e-07
4.06563e-07
-3.0726e-07
3.18737e-07
-1.14771e-08
3.53843e-07
-7.92678e-09
-4.34763e-08
-4.76127e-08
2.61788e-07
-2.14175e-07
-3.76438e-07
3.66232e-07
-3.05299e-07
2.89684e-07
1.2259e-08
3.11619e-07
1.43926e-08
-4.05576e-07
3.97559e-07
4.99909e-07
-4.6282e-07
-3.70888e-08
-4.70874e-07
-3.96241e-07
3.8762e-07
-3.22882e-07
1.5622e-08
5.24891e-07
-4.16133e-08
-4.83278e-07
-5.40282e-07
5.7486e-07
3.45922e-07
-8.7653e-09
-1.31431e-08
2.99842e-07
-2.86699e-07
-3.86469e-07
3.77172e-07
4.28911e-08
2.5864e-08
-4.76017e-07
4.41601e-08
4.31857e-07
7.48324e-09
1.31597e-08
4.45088e-07
5.48202e-08
6.20714e-08
-5.56686e-07
5.66403e-07
2.98473e-07
1.63137e-08
3.46533e-09
1.87463e-07
-1.90928e-07
3.37844e-07
-9.38008e-09
-4.50004e-07
4.53449e-07
-3.44578e-09
-5.49248e-07
5.25879e-07
-5.65223e-07
6.08464e-08
1.36461e-08
-5.19432e-07
4.58886e-07
1.8827e-08
1.91386e-07
-2.10213e-07
3.51674e-08
-8.66051e-09
-3.4238e-07
3.30372e-07
8.20616e-08
-3.91704e-08
2.70086e-07
-2.58062e-07
-3.60721e-07
3.48656e-07
1.64101e-08
2.19246e-07
-2.35656e-07
3.3015e-07
-1.01445e-08
2.90377e-07
1.66822e-08
-5.49536e-07
-7.14973e-09
-4.21814e-08
4.91959e-08
-7.01451e-09
-4.5524e-07
3.59933e-07
-5.75245e-07
3.49625e-08
-1.24539e-08
2.92726e-07
-2.80272e-07
1.43451e-08
1.65877e-07
-4.9588e-07
-5.33683e-08
-1.90577e-07
2.57924e-08
-5.1334e-08
2.55416e-08
-3.60401e-08
2.17415e-07
-1.81375e-07
-3.40833e-07
2.44513e-07
-7.20979e-08
7.20979e-08
-3.49796e-07
3.36877e-07
1.01955e-08
3.16795e-07
-3.30882e-07
3.042e-09
-9.09354e-08
8.78934e-08
-3.38791e-07
3.25648e-07
-4.21814e-08
-1.25876e-07
1.50946e-07
1.18785e-08
1.08966e-08
1.60156e-08
-2.15331e-07
2.31741e-07
-1.12637e-08
-1.84941e-07
2.03768e-07
3.11105e-07
-1.26315e-08
-4.13632e-07
-1.05801e-07
-2.20454e-07
1.72842e-07
-6.90559e-08
-1.67477e-07
1.70942e-07
2.83248e-07
1.6594e-08
1.69636e-08
-5.29674e-08
5.57409e-08
3.03648e-07
-1.3271e-08
8.53002e-09
2.52667e-07
-2.61197e-07
-8.60632e-08
2.35937e-09
8.37038e-08
3.48903e-08
-3.48903e-08
-6.46091e-09
-3.35155e-07
-1.42155e-07
1.42155e-07
-3.2808e-07
3.15626e-07
3.04687e-07
-3.19756e-07
7.62553e-08
-4.15735e-09
3.38537e-07
-8.1643e-09
-3.34694e-07
1.35297e-08
3.21164e-07
-1.06898e-08
2.8725e-07
-2.76561e-07
-1.2694e-07
-1.52156e-08
-2.89899e-07
2.74471e-07
4.70446e-08
-4.70446e-08
-7.62553e-08
8.19522e-08
1.69497e-08
-1.24151e-08
1.26912e-08
-3.74343e-08
-4.74708e-09
6.66965e-08
-6.46818e-08
-1.68769e-09
1.68769e-09
-1.1412e-08
-3.01029e-07
-1.54211e-07
1.2693e-07
-1.2693e-07
-2.46704e-07
2.55234e-07
1.95416e-09
5.74205e-09
3.1623e-07
-3.21972e-07
-2.19167e-07
3.4226e-08
-2.21888e-09
2.76233e-07
-2.74015e-07
1.24275e-07
-3.95558e-08
-8.47196e-08
1.0722e-07
-1.0722e-07
-3.74343e-08
-3.18889e-07
3.08199e-07
2.96563e-07
-1.33152e-08
2.78351e-07
-2.8057e-07
5.0331e-08
7.39444e-08
-6.90559e-08
1.66638e-07
-2.06574e-07
3.99357e-08
-2.30304e-08
2.26815e-07
-2.03785e-07
-3.25699e-07
-8.99498e-09
5.241e-08
-9.10119e-08
8.84384e-09
-5.20803e-08
4.32364e-08
-3.23413e-07
1.4836e-08
3.08577e-07
-1.86353e-07
1.88762e-08
-4.17555e-07
3.91166e-07
5.00456e-08
3.11159e-08
-2.03379e-07
1.72263e-07
2.97158e-07
-3.12536e-07
3.8125e-08
-3.52591e-08
-7.73389e-08
3.77831e-08
-4.40296e-08
-5.36982e-09
5.36982e-09
2.78009e-07
1.47166e-08
-1.60328e-07
7.56085e-08
-8.17545e-09
2.84749e-07
-2.76574e-07
3.2712e-07
-1.03245e-08
3.04475e-07
-3.1265e-07
-3.17388e-07
5.88799e-09
3.115e-07
-1.64317e-07
-5.6138e-08
3.21962e-09
2.68674e-07
-2.71894e-07
-3.07983e-07
3.13725e-07
1.62912e-08
1.58777e-07
-1.44812e-07
-1.39652e-08
-1.80693e-08
1.44999e-07
-2.27128e-07
3.8125e-08
-5.87469e-08
-1.01581e-07
-1.99798e-07
-1.41035e-07
1.76623e-07
-1.45507e-07
-2.58485e-07
6.57343e-09
2.51912e-07
1.44813e-07
1.08609e-08
-8.4096e-09
-4.95035e-09
-2.34587e-07
2.39538e-07
2.36949e-08
5.83667e-08
6.59036e-09
-3.23376e-07
3.16786e-07
-1.259e-07
1.1229e-08
1.14671e-07
-1.95416e-09
-2.60995e-07
2.64215e-07
1.30832e-07
-1.30832e-07
-7.1714e-10
-2.66868e-07
2.67585e-07
-5.83048e-08
-3.19192e-07
1.80428e-09
1.48969e-07
1.27091e-08
-1.61678e-07
3.14701e-09
4.18169e-07
-1.17745e-08
-1.14125e-07
-1.53219e-08
2.30744e-08
-7.75244e-09
-5.23355e-08
-2.50034e-08
-1.24151e-08
5.241e-08
-2.16825e-07
1.5784e-07
5.8985e-08
-3.2423e-08
3.2423e-08
5.45726e-08
6.78764e-08
-7.55586e-08
1.01351e-07
9.82473e-08
-1.11399e-07
-2.29137e-07
1.93097e-07
-4.88103e-09
-3.71557e-07
1.31225e-08
-1.31225e-08
3.79459e-08
7.54338e-08
-1.1338e-07
1.68089e-08
-9.21265e-08
9.21265e-08
-3.76746e-07
3.70074e-07
6.67136e-09
-1.2133e-07
1.2133e-07
9.31499e-09
-5.47322e-09
-3.12603e-07
-1.08096e-08
-6.66965e-08
1.08509e-07
-5.29674e-08
-3.64123e-07
3.56663e-07
7.46062e-09
3.27795e-09
9.88821e-08
-9.88821e-08
-1.77038e-07
-2.63409e-08
-8.19522e-08
8.94843e-08
-2.87145e-08
-1.47618e-08
3.9521e-07
-4.00091e-07
-5.73415e-09
3.65991e-07
-3.60257e-07
-1.28148e-07
9.94332e-08
1.96281e-07
-9.95556e-08
-9.67251e-08
2.10109e-07
-4.34708e-08
-1.40724e-07
1.40724e-07
-1.52605e-07
2.09655e-07
-5.70493e-08
-7.87857e-09
-3.20201e-07
-2.957e-08
3.11065e-07
-8.74055e-10
8.74055e-10
-1.27652e-08
2.29595e-07
-2.1683e-07
8.16508e-09
-1.65774e-08
8.4123e-09
-1.10091e-08
2.49435e-07
-2.38426e-07
-2.62946e-09
1.38585e-08
-7.51954e-09
-3.1137e-07
-1.84209e-08
3.43521e-07
-3.5139e-07
7.86879e-09
-4.23426e-09
-3.82235e-07
2.90655e-07
-2.95343e-07
4.68765e-09
-9.31499e-09
1.47741e-07
-5.58521e-09
4.29235e-07
-4.32657e-07
3.42223e-09
-3.45249e-07
3.37371e-07
1.47741e-07
1.2694e-07
-1.97199e-08
2.74123e-07
-2.7484e-07
-2.76168e-08
2.54639e-07
-1.97195e-09
-2.96252e-09
2.90022e-07
-1.20129e-08
-3.42616e-09
4.18072e-07
-4.14645e-07
1.04317e-07
-2.5452e-07
1.50203e-07
3.83048e-07
-3.88782e-07
-3.90774e-08
-1.30028e-08
1.26912e-08
4.06399e-07
-4.10633e-07
-2.42975e-07
2.19944e-07
-3.34207e-07
3.26687e-07
2.69535e-07
-8.60234e-10
1.28883e-09
-2.68157e-07
4.21069e-07
-4.24715e-07
3.6458e-09
2.97513e-07
-6.85836e-09
-2.1572e-07
1.7367e-07
4.20495e-08
-2.98139e-09
4.40296e-08
-4.10482e-08
-5.27251e-09
-2.9007e-07
4.11589e-07
-4.15584e-07
3.9953e-09
-3.13256e-07
-5.00456e-08
4.28582e-08
1.21577e-08
-5.50159e-08
2.35843e-08
-2.03063e-08
-1.03124e-09
6.34755e-08
1.08411e-07
1.31589e-07
1.49624e-09
-3.08671e-07
3.07175e-07
-1.23343e-07
3.12169e-08
-1.68089e-08
2.03063e-08
2.57193e-07
-2.55019e-07
-9.20002e-08
5.28297e-08
-1.55451e-07
-6.13745e-08
-2.84156e-07
2.89384e-07
-5.22798e-09
-2.89314e-07
2.9081e-07
1.28267e-08
-1.57639e-07
-8.81005e-08
-1.91194e-08
1.10421e-09
-2.5959e-07
-2.8681e-07
2.65378e-09
1.38683e-07
-1.38683e-07
-2.54402e-09
-2.21606e-07
2.28179e-07
8.19926e-09
-8.51243e-09
-1.32211e-07
-9.88324e-09
1.24554e-07
-1.67352e-08
4.45536e-08
-7.30357e-09
2.02061e-07
-1.94757e-07
-1.65511e-07
1.60561e-07
1.15514e-08
1.39395e-07
1.08609e-08
-6.20661e-09
-3.54514e-07
-4.02312e-08
1.89201e-07
-4.16754e-09
-4.20901e-07
3.16137e-07
-1.14496e-08
-3.33135e-07
1.65826e-08
4.46681e-08
-2.38965e-07
1.94297e-07
-9.64388e-08
1.34385e-07
-3.42425e-08
1.45039e-07
2.70111e-09
-1.01079e-08
2.75968e-07
1.12819e-08
-7.10006e-09
-3.42696e-07
-3.09416e-08
1.56197e-08
-5.34031e-07
5.36125e-07
-2.09451e-09
-4.39427e-07
4.36001e-07
-1.60394e-07
2.13875e-07
-5.34802e-08
4.41345e-07
-4.45512e-07
1.1325e-07
-1.50029e-08
-1.42838e-07
1.36096e-08
-2.4453e-07
2.53306e-08
3.84679e-07
1.11082e-07
-6.56785e-08
-1.81449e-08
-1.03142e-07
-1.18174e-08
-3.43103e-08
2.79348e-09
-2.49585e-07
2.46791e-07
3.82853e-07
1.94757e-10
-4.57898e-08
-1.21452e-07
1.67242e-07
3.9453e-07
6.79966e-10
-2.4363e-07
-2.52633e-09
2.46156e-07
-1.24133e-07
-3.89241e-07
4.59526e-10
-6.83922e-09
1.98225e-07
3.15162e-07
-3.21497e-07
6.33469e-09
-7.72394e-09
-3.31067e-07
1.80965e-07
-1.97863e-07
1.68986e-08
-2.59441e-07
2.58639e-07
8.01819e-10
-3.76646e-07
-9.94393e-11
-1.36828e-08
3.17422e-07
-3.10384e-07
-7.0383e-09
-1.2839e-08
-4.11655e-09
2.23362e-07
1.4995e-07
-1.0512e-07
-4.48302e-08
1.96931e-07
-2.06413e-07
9.48117e-09
-8.59009e-08
8.59009e-08
3.70488e-07
-4.13336e-10
3.00004e-07
6.69993e-09
-3.06704e-07
3.79965e-08
1.58284e-07
2.51204e-07
-2.61087e-07
-3.56413e-07
3.5956e-07
1.23661e-09
-2.14657e-07
2.1342e-07
-6.80993e-09
1.62066e-08
-2.34472e-07
-2.64917e-07
-1.15626e-09
2.66073e-07
-4.84855e-08
4.10482e-08
-3.63388e-07
-7.35626e-10
6.6819e-09
3.10741e-07
1.6511e-08
-2.29503e-07
1.20064e-08
-1.86286e-07
2.26473e-07
1.49452e-08
-2.41418e-07
3.33065e-08
-1.04826e-08
-2.28239e-08
1.4392e-08
2.67111e-07
-1.30835e-08
-5.47322e-09
3.57724e-07
-1.06115e-09
-7.63745e-10
2.52676e-07
-1.36925e-07
1.35894e-07
-2.75964e-07
2.75609e-07
3.5495e-10
3.06867e-07
-5.78794e-08
-7.24065e-09
1.94549e-07
-9.12696e-09
-6.5413e-09
1.94004e-07
-1.75395e-07
1.88104e-07
-2.27743e-07
2.20502e-07
8.94843e-08
7.11302e-09
2.54675e-07
4.6179e-09
-2.2495e-07
5.28896e-09
2.00499e-07
-1.95337e-08
-8.68451e-08
-4.13025e-08
-2.57668e-07
2.62286e-07
-2.68484e-07
2.67721e-07
-2.73008e-07
-4.40879e-10
2.73449e-07
4.05463e-07
9.36231e-10
-2.11429e-07
5.8824e-08
-2.40003e-07
1.54017e-08
1.34613e-08
-2.52451e-08
1.00679e-07
1.44361e-07
-1.61097e-07
5.68438e-09
3.10776e-07
-3.16461e-07
-1.42229e-07
2.21541e-07
1.59377e-08
-2.37479e-07
1.86849e-07
1.0082e-08
-3.31304e-08
-1.68973e-08
3.19913e-10
-1.15251e-07
1.27987e-07
-1.27361e-08
-3.51717e-09
-4.02059e-07
2.34601e-08
1.83443e-07
-5.95502e-07
5.58413e-07
-1.60241e-07
4.10717e-07
-2.43642e-07
9.05505e-09
-4.00934e-07
8.42316e-10
2.75013e-08
5.26104e-07
5.52619e-08
-2.0838e-07
1.53118e-07
-1.34952e-08
9.57035e-10
4.19012e-08
-1.36524e-08
-3.48331e-08
-1.61683e-07
-5.51917e-08
-3.68085e-08
-8.97099e-09
3.20453e-08
-1.52072e-08
7.10862e-07
-1.72854e-09
-5.77733e-08
6.9931e-08
2.69578e-10
1.39728e-09
-2.74406e-07
4.97144e-08
-8.30184e-08
-2.99846e-08
3.31706e-07
-3.39462e-07
7.75649e-09
-2.59623e-07
-3.27423e-08
-2.50118e-09
-1.36044e-08
3.5e-07
3.2106e-07
-3.15375e-07
-6.88427e-09
-3.05766e-07
-2.29605e-07
8.71331e-09
2.20892e-07
-2.09135e-09
-2.36377e-07
1.6068e-08
-1.97976e-09
6.89632e-07
4.2884e-07
3.94726e-10
-2.03399e-08
-1.48178e-07
1.68518e-07
-3.14815e-07
-3.37803e-09
-1.58754e-07
1.45101e-07
-2.70056e-07
2.69196e-07
-1.83119e-08
6.89144e-07
1.21157e-07
-7.05867e-08
-5.05707e-08
-1.45039e-07
1.42002e-07
3.03779e-09
4.52931e-09
1.84083e-07
-1.95632e-07
1.15489e-08
-3.80161e-09
-3.92439e-07
1.46335e-07
-1.30128e-07
1.30545e-07
-3.11123e-08
-1.30971e-07
-1.19211e-08
1.42892e-07
-5.63577e-09
2.5684e-07
4.20288e-07
7.81159e-10
-1.3271e-07
1.48981e-07
-1.62705e-08
-3.06921e-07
1.10099e-07
-2.7251e-07
2.71885e-07
6.24801e-10
-1.35539e-08
-1.38982e-09
9.55772e-10
-4.42482e-07
4.38836e-07
3.64612e-09
2.24802e-09
2.87136e-07
-1.13724e-09
5.84237e-08
1.459e-07
-1.60172e-07
-2.49431e-07
2.36666e-07
-4.16486e-07
9.01592e-10
-1.0671e-08
3.06378e-08
1.19312e-07
3.29673e-07
-2.9853e-09
1.38541e-07
-8.84688e-08
-5.00727e-08
-1.99267e-07
-1.47582e-09
2.00743e-07
2.18583e-07
-2.20316e-07
1.73285e-09
-7.23156e-09
4.36131e-10
2.75173e-07
-1.82121e-09
-4.43691e-07
-2.41716e-07
2.63852e-08
1.47764e-08
6.29152e-07
-5.91031e-10
-6.58326e-09
1.3863e-07
-1.37931e-07
1.5443e-07
-1.64986e-08
-4.44028e-07
4.43294e-07
7.3397e-10
-1.35337e-07
1.51704e-07
-1.63666e-08
-2.68215e-07
2.90721e-09
4.16056e-07
-4.18963e-07
-3.22461e-07
3.26025e-07
-3.56438e-09
-5.67126e-07
3.30947e-08
-1.3751e-08
-2.64411e-07
2.71524e-07
2.73682e-07
-8.32059e-10
-1.98435e-07
-1.23343e-07
-4.32798e-07
1.41133e-10
-3.19141e-07
-4.23522e-09
-4.87964e-09
2.48387e-07
-2.43508e-07
-2.45798e-08
-1.15945e-07
1.29555e-07
7.21171e-09
-2.28909e-07
8.4096e-09
-4.25323e-07
6.08269e-10
4.96608e-09
3.12143e-07
-3.1711e-07
-1.40456e-07
-1.71824e-08
-5.89632e-07
-5.87033e-09
-1.02431e-08
-1.66365e-07
1.76608e-07
1.2414e-07
-7.32889e-08
-5.08509e-08
1.89582e-07
-1.96123e-07
-1.37399e-07
1.82616e-07
-1.94354e-07
-1.96294e-07
1.87167e-07
4.36176e-07
-1.75679e-10
2.6544e-07
-2.18013e-09
-2.6326e-07
-6.0024e-09
-2.23603e-07
-9.67143e-08
-2.64755e-07
2.66153e-07
-2.54732e-07
2.52761e-07
3.53738e-07
5.82172e-09
7.12964e-08
5.11526e-08
1.81934e-07
-2.25405e-07
-6.25561e-08
1.07224e-07
-2.51306e-07
2.52595e-07
-1.09779e-07
1.7868e-07
-1.92363e-07
-1.37803e-08
1.0893e-07
-5.61006e-08
3.16673e-07
-5.89699e-09
2.65323e-07
-2.66479e-07
-1.23209e-09
5.59645e-07
3.21752e-07
-5.74294e-08
9.16533e-08
-3.42239e-08
1.7531e-07
-1.903e-07
2.46278e-07
-2.47754e-07
2.01332e-07
-2.27673e-07
-3.26449e-07
3.43716e-07
-1.72671e-08
-1.98408e-07
1.91821e-07
6.28921e-09
-2.4601e-07
2.43484e-07
-6.46818e-08
-4.0416e-08
1.14644e-07
9.90972e-09
1.43787e-07
-1.27639e-07
-1.6148e-08
1.32391e-07
1.1471e-07
-1.33562e-07
1.88525e-08
1.7244e-07
-1.84257e-07
-4.33801e-09
2.50616e-07
-3.66838e-07
3.66424e-07
-2.61472e-07
2.5995e-07
1.52243e-09
-1.16878e-07
1.31226e-07
-1.43479e-08
-1.59691e-07
1.46688e-07
-3.18923e-07
3.1596e-07
-1.19939e-08
4.83029e-08
4.38237e-08
-1.59156e-07
-6.39129e-08
5.2105e-09
-9.86102e-09
-2.22142e-07
1.68662e-07
1.45914e-07
-1.58998e-07
-1.12346e-07
2.15696e-09
1.10189e-07
9.72046e-09
1.93956e-07
-2.00539e-07
4.44498e-09
3.73037e-07
-3.73137e-07
1.66072e-07
-2.21264e-07
1.09779e-07
-3.52591e-08
1.82401e-07
-1.90104e-07
7.70246e-09
1.36916e-09
-3.11493e-07
-7.42998e-09
-1.37757e-07
-2.47194e-07
1.96623e-07
5.95338e-08
-5.82972e-08
1.4323e-07
-1.4323e-07
2.34416e-07
-4.6312e-08
1.17222e-09
-2.51529e-08
3.79478e-07
-3.79283e-07
1.67438e-07
-1.82441e-07
1.76299e-07
-1.60679e-07
-1.30202e-07
-2.2706e-07
1.92749e-07
-3.60426e-07
3.59691e-07
-9.81226e-08
1.66205e-08
8.1502e-08
7.53551e-08
-5.76555e-08
-1.76995e-08
5.6918e-09
2.18401e-07
-8.40164e-08
2.06434e-07
-1.18057e-07
1.33002e-07
1.78902e-07
-2.35003e-07
-1.08811e-08
1.32211e-07
2.17646e-08
-1.80727e-07
1.58962e-07
-4.31721e-09
-2.35193e-07
2.31979e-07
3.21434e-09
2.47401e-07
9.43842e-09
-1.43924e-08
2.0804e-07
-2.27573e-07
-5.98972e-08
2.27139e-07
-1.7556e-07
1.66589e-07
5.89543e-09
3.04623e-07
-3.10518e-07
-1.51962e-08
-3.76038e-09
2.66756e-07
-2.62996e-07
3.12639e-08
5.04862e-07
-8.50261e-08
2.83287e-08
5.66974e-08
-1.24267e-07
1.3625e-08
3.2266e-07
1.5984e-07
-2.0633e-07
4.64908e-08
-1.59884e-07
1.49213e-07
-3.53971e-07
3.5291e-07
-1.40462e-07
1.57084e-07
-1.66214e-08
-1.61994e-07
-3.51716e-09
-4.41724e-08
2.33373e-07
-8.63448e-09
-1.86998e-07
-5.68358e-07
-1.58421e-07
-1.28673e-07
1.98604e-07
-1.44999e-07
1.41356e-07
-1.25288e-07
3.14568e-07
-3.18803e-07
-7.32614e-08
3.78157e-08
3.54456e-08
1.89751e-07
-1.9659e-07
-4.46635e-07
2.607e-09
-6.96104e-08
2.27895e-07
1.54835e-07
-2.16209e-07
-1.19489e-07
1.34891e-07
-2.20837e-08
-2.46099e-07
-6.31245e-07
-1.59979e-07
2.06098e-07
-4.61192e-08
1.82871e-09
-1.6402e-07
1.50137e-07
-2.57353e-07
2.16051e-07
2.08854e-07
-1.66838e-07
-4.20161e-08
-2.80915e-07
-1.45643e-07
1.87544e-07
3.85716e-07
-3.85256e-07
2.08845e-07
-1.08166e-07
1.39059e-07
-1.23121e-07
1.6038e-07
-1.90805e-07
3.04256e-08
1.67896e-07
-1.53905e-07
-1.39908e-08
3.56645e-07
1.64315e-07
-1.8246e-07
3.83677e-07
-3.51667e-07
-3.20099e-08
-3.28548e-07
1.07722e-07
-1.57171e-07
1.69291e-07
-1.21207e-08
-1.65009e-07
1.51258e-07
7.12215e-07
-7.14195e-07
-4.00052e-07
4.25383e-07
-2.97935e-07
-8.76901e-09
4.41473e-07
4.1679e-07
3.18013e-07
-3.21577e-07
1.1471e-07
4.46591e-08
-6.22978e-08
1.76387e-08
1.36433e-08
1.6956e-07
-1.78073e-07
-2.08831e-07
2.0346e-07
5.37119e-09
-2.52366e-07
2.1512e-07
-1.05021e-07
-4.17263e-07
4.18044e-07
1.45525e-07
-1.58481e-07
-4.72743e-08
4.64002e-08
-3.47568e-07
3.46179e-07
-7.31254e-07
7.16047e-07
1.36906e-07
-1.2118e-07
-1.57258e-08
-1.10422e-08
-7.28111e-07
7.18617e-07
9.49439e-09
1.12922e-08
-1.26543e-07
-2.85253e-07
1.36585e-08
-2.55833e-07
2.60521e-07
-4.12436e-07
4.13338e-07
-1.60679e-07
1.70253e-07
-9.57357e-09
1.64007e-07
-1.76909e-07
2.18367e-07
-2.22483e-07
3.3168e-08
3.22397e-07
-3.25382e-07
-1.42578e-08
-2.84562e-07
1.34787e-08
2.71084e-07
6.96068e-07
-6.89706e-07
-6.36147e-09
-4.58281e-08
-7.23365e-07
7.05069e-07
1.82966e-08
2.13526e-07
-1.62887e-07
-5.06384e-08
-1.75987e-07
1.63148e-07
-4.07377e-07
4.08333e-07
4.22429e-07
-4.21821e-07
1.37724e-08
-1.45892e-08
-1.81393e-07
1.60193e-07
-2.07379e-09
2.60713e-07
-3.18303e-07
-1.66283e-07
1.52638e-07
3.27568e-07
-3.30069e-07
1.59868e-07
-1.73474e-07
-3.41344e-07
3.39616e-07
-1.61874e-07
2.17136e-07
-1.71268e-07
1.57773e-07
-6.2705e-09
3.10893e-07
1.20424e-08
-4.02116e-07
4.03052e-07
-1.67712e-07
1.54158e-07
1.98302e-07
-1.39478e-07
3.33361e-07
-3.35453e-07
-1.65259e-07
1.54378e-07
-3.07337e-08
-1.69396e-07
1.55863e-07
2.29468e-08
3.6073e-07
3.85064e-09
2.85614e-07
-9.64515e-09
-7.93317e-10
-5.49249e-08
-4.4788e-09
-1.36781e-08
-1.64366e-07
1.70647e-07
-6.28139e-09
-4.76212e-07
5.05119e-07
-2.89074e-08
3.91732e-07
-3.91052e-07
2.71662e-09
-4.83029e-08
4.91769e-08
-1.1241e-08
-1.74415e-07
2.07203e-07
-3.2788e-08
-2.25067e-07
2.18385e-07
6.68208e-09
-1.33562e-07
4.26471e-07
-4.26077e-07
2.74591e-07
-3.96672e-07
3.97514e-07
-6.82918e-08
-1.56736e-08
6.6893e-07
-6.54153e-07
1.42002e-07
-2.54165e-09
2.53223e-07
-8.71797e-09
-1.74977e-09
-1.12321e-08
-2.3241e-07
-7.04907e-07
6.86595e-07
-6.89305e-08
3.14789e-07
5.21753e-09
4.72494e-07
-4.4123e-07
-4.56491e-09
1.66168e-07
-1.50889e-07
-1.52789e-08
4.30155e-07
-4.30014e-07
1.53395e-08
-1.70523e-08
6.19946e-09
4.25478e-08
4.29946e-07
2.92036e-07
-2.6909e-07
-8.81005e-08
-6.26354e-09