/*--------------------------------*- C++ -*----------------------------------*\
  =========                 |
  \\      /  F ield         | OpenFOAM: The Open Source CFD Toolbox
   \\    /   O peration     | Website:  https://openfoam.org
    \\  /    A nd           | Version:  9
     \\/     M anipulation  |
\*---------------------------------------------------------------------------*/
FoamFile
{
    format      ascii;
    class       surfaceScalarField;
    location    "2";
    object      phi;
}
// * * * * * * * * * * * * * * * * * * * * * * * * * * * * * * * * * * * * * //

dimensions      [0 3 -1 0 0 0 0];

internalField   nonuniform List<scalar> 
3455
(
3.72663e-07
-2.18598e-07
-1.54065e-07
-5.05587e-08
6.93456e-08
-1.87869e-08
1.05016e-07
1.06718e-08
-1.15688e-07
1.13471e-07
-8.45509e-09
2.56901e-07
-2.59865e-07
2.96374e-09
2.31932e-07
2.49698e-08
2.4685e-07
-2.35779e-07
-1.10709e-08
2.04981e-07
4.18689e-08
-4.11305e-08
4.72038e-08
-6.07338e-09
-5.00304e-08
8.89996e-09
3.29055e-07
-3.42129e-07
1.30738e-08
2.74736e-07
5.43193e-08
4.87253e-08
-6.1524e-08
1.27987e-08
5.68256e-08
-8.10029e-09
2.95501e-07
-3.43658e-07
4.81563e-08
2.7101e-07
2.44911e-08
-8.78008e-09
2.69565e-09
6.08443e-09
-2.61258e-09
-6.1675e-09
5.48068e-08
-5.32715e-08
-1.53531e-09
5.61791e-08
-1.37232e-09
3.24974e-09
3.31191e-07
-3.34441e-07
-3.08381e-07
2.59235e-07
4.91455e-08
3.29189e-07
-2.91428e-07
-3.7761e-08
1.03359e-07
1.01123e-08
-1.96377e-08
1.22997e-07
-2.46217e-07
3.3253e-07
-8.63138e-08
-3.0619e-07
5.99738e-08
-2.26861e-07
3.34867e-07
-1.08006e-07
-2.85102e-07
5.82412e-08
2.09022e-07
-2.59659e-07
5.06372e-08
-5.08434e-08
7.27279e-08
-7.03225e-08
-2.40535e-09
8.78282e-08
-1.51003e-08
2.61874e-07
-1.70185e-07
-9.16891e-08
1.7551e-07
-2.51168e-07
7.56578e-08
-2.13967e-07
-1.28162e-07
-6.02686e-08
-2.63937e-07
4.99696e-08
1.40974e-07
-2.18995e-07
7.80215e-08
2.8836e-07
-2.92481e-07
4.12177e-09
2.06854e-07
-6.58807e-08
2.65191e-07
-2.66874e-07
1.68293e-09
-6.41734e-08
7.80824e-08
-1.3909e-08
3.10122e-07
-2.54479e-07
-5.56434e-08
-5.86644e-08
-5.50899e-09
3.16799e-07
-6.67672e-09
1.90824e-07
-2.09775e-07
1.89511e-08
2.0643e-07
-1.56065e-08
-7.84669e-08
-3.01072e-07
2.28559e-07
7.25123e-08
-2.13274e-07
-8.7798e-08
-4.96057e-08
-1.19183e-08
-4.09866e-08
-8.61909e-09
-4.01033e-08
4.94805e-08
-9.37725e-09
-2.84448e-08
-1.16584e-08
-2.98214e-08
3.75033e-08
-7.68193e-09
-1.58905e-08
-1.39308e-08
-1.93709e-08
2.53377e-08
-5.96685e-09
-3.25991e-09
-1.61109e-08
-7.24995e-09
1.31804e-08
-5.93048e-09
9.57085e-09
-1.68208e-08
7.67402e-09
-4.97837e-09
2.60146e-08
-1.83406e-08
1.56601e-08
-1.24888e-08
-3.17134e-09
3.64107e-08
-2.07505e-08
2.40865e-08
-2.24581e-08
-1.62834e-09
4.72036e-08
-2.31171e-08
3.27922e-08
-3.30959e-08
3.03704e-10
5.75888e-08
-2.47966e-08
4.08917e-08
-4.30762e-08
2.18457e-09
6.61431e-08
-2.52514e-08
4.7319e-08
-5.10702e-08
3.75127e-09
7.11092e-08
-2.37903e-08
-5.30159e-08
7.05781e-08
-1.75622e-08
3.16326e-09
-3.35487e-09
2.26276e-07
3.55977e-08
-3.33827e-08
2.41613e-07
-9.68109e-09
-9.55537e-09
2.28314e-07
-2.33336e-08
9.31916e-09
1.88816e-07
1.80387e-08
-2.09591e-08
1.10158e-07
9.62723e-08
-1.03116e-07
-2.80557e-08
-1.74911e-07
2.02967e-07
2.00504e-07
1.38377e-07
1.49983e-07
-1.16102e-07
2.231e-07
9.36992e-08
-4.37743e-08
6.79862e-08
1.98419e-08
-3.0669e-07
2.1588e-08
-3.19541e-08
-9.01272e-09
7.69989e-08
-3.05923e-07
-2.67375e-10
-6.00903e-08
-1.02322e-08
1.79921e-08
2.89441e-08
2.27841e-07
1.04689e-07
-4.91058e-08
-9.55854e-09
7.71972e-09
-2.80666e-07
1.6729e-08
-9.65513e-09
-3.46431e-08
-6.34353e-09
1.48374e-08
-2.40884e-08
-4.3564e-09
1.34149e-08
-1.32148e-08
-2.67578e-09
1.21229e-08
-2.67076e-09
-5.89148e-10
1.05097e-08
-8.3961e-09
5.78352e-09
1.17475e-09
2.01425e-08
5.87203e-09
7.65374e-09
4.82299e-08
2.23482e-08
2.93335e-08
7.07723e-09
6.87534e-09
-1.80055e-09
3.88835e-08
8.32009e-09
5.78761e-09
4.7211e-08
1.03778e-08
4.13474e-09
5.31356e-08
1.30075e-08
2.06539e-09
5.49585e-08
1.61507e-08
1.68704e-09
-2.04295e-07
-8.81862e-08
-2.28179e-07
5.79935e-08
2.67587e-07
-3.97457e-08
2.3675e-07
1.35913e-07
2.21994e-07
-1.67078e-07
-5.49162e-08
9.38284e-08
-1.51911e-08
-2.9319e-07
5.81639e-09
3.23373e-07
7.19768e-08
5.86741e-08
2.01304e-09
-2.01304e-09
-1.17505e-08
-2.41643e-08
1.03828e-07
1.18166e-07
2.72324e-07
-2.69074e-07
-1.67407e-07
1.5563e-07
1.17778e-08
-2.01865e-07
1.97718e-07
4.14716e-09
-4.54052e-09
-9.17472e-09
1.37152e-08
9.73812e-09
-1.42786e-08
8.95869e-09
-2.04233e-07
1.95274e-07
1.98677e-08
4.94779e-08
3.06494e-09
1.73975e-07
-1.7704e-07
-1.64571e-08
-1.5095e-07
-2.86076e-07
2.8542e-07
6.55718e-10
-2.02412e-08
9.22179e-08
2.86595e-09
-8.52906e-10
5.04956e-09
-1.68e-08
-2.4343e-08
-2.61733e-07
-3.02505e-09
-1.9884e-07
2.61435e-07
-2.52477e-07
8.36699e-09
1.95261e-07
-2.03628e-07
-2.75322e-07
2.78387e-07
2.40646e-07
-2.39648e-07
-9.97412e-10
-1.90312e-09
-9.55227e-08
9.74258e-08
2.42974e-07
-2.34607e-07
-1.49038e-07
1.47135e-07
3.57477e-07
-2.62856e-08
-2.06505e-07
9.13252e-09
1.97372e-07
-8.78679e-09
9.91532e-08
-9.81485e-08
-1.00466e-09
3.42129e-09
9.57319e-08
2.37621e-07
-6.43359e-09
-2.33215e-07
2.54069e-07
6.81228e-09
-2.60881e-07
1.56572e-07
-1.47439e-07
-1.02283e-07
1.00222e-07
2.06069e-09
-2.01286e-07
-1.02278e-07
3.03564e-07
6.20264e-09
-3.18633e-07
3.1243e-07
2.67187e-08
2.34716e-07
2.05774e-07
-1.0513e-08
-3.2146e-07
1.20174e-07
-3.43517e-09
-9.88478e-08
-2.98407e-07
3.0461e-07
-1.54794e-07
-6.53483e-09
1.61329e-07
2.6214e-07
-8.07143e-09
-2.91595e-07
-1.31821e-08
-3.27666e-07
9.03303e-09
1.53137e-07
3.84271e-09
-1.51282e-07
2.85954e-07
1.9934e-07
-2.21022e-07
1.67893e-08
-4.5197e-09
2.43874e-08
1.79887e-07
-5.9118e-09
3.16639e-07
9.55181e-09
-3.26191e-07
-1.10273e-08
3.58878e-09
-1.58383e-07
5.00068e-10
-1.29432e-07
1.10645e-07
-3.32561e-07
3.42113e-07
-1.48538e-07
-1.84916e-07
1.76845e-07
-8.40594e-09
-1.7651e-07
8.31611e-08
-9.15671e-08
1.45635e-09
8.17048e-08
-3.90116e-09
2.33479e-08
-1.94468e-08
-2.84195e-09
-1.05921e-09
7.52669e-09
-7.52669e-09
1.69268e-08
6.42111e-09
4.26457e-08
-4.23741e-08
-2.71586e-10
-2.6975e-10
1.15811e-07
-1.15542e-07
-4.59011e-08
4.56314e-08
-2.84195e-09
-1.33249e-09
1.33249e-09
3.94453e-08
-3.77052e-08
-1.74017e-09
3.17152e-08
7.73013e-09
4.30061e-09
1.11511e-07
-1.72001e-08
1.86564e-08
-4.49292e-08
4.80922e-08
-3.16299e-09
4.68474e-09
-4.74909e-08
2.5617e-09
-4.30166e-08
-4.47436e-09
-4.58486e-08
2.83206e-09
-4.03188e-08
-5.52984e-09
-4.33061e-08
2.98735e-09
4.9405e-09
2.91816e-08
-3.2095e-08
2.91345e-09
-3.70006e-08
-6.30555e-09
-4.00434e-08
3.04282e-09
-3.32243e-08
-6.81911e-09
-4.75129e-08
1.61175e-09
-3.62469e-08
3.02261e-09
4.59245e-08
2.16766e-09
1.89384e-07
-1.33827e-08
-1.76001e-07
-2.77625e-08
2.50294e-08
2.73311e-09
-7.06531e-09
-4.51684e-09
3.18435e-09
-2.08759e-08
-6.88661e-09
2.73286e-10
1.05921e-09
-2.33921e-08
2.51616e-09
-1.67773e-08
-6.61477e-09
-7.06562e-09
-1.90812e-08
2.30392e-09
-3.10989e-07
3.96244e-08
2.71364e-07
-1.27406e-08
-6.34065e-09
-1.48759e-08
2.13529e-09
-1.58832e-09
-1.50983e-08
-2.8622e-08
4.37204e-08
8.73597e-09
-1.07726e-08
2.03659e-09
-6.13989e-09
-4.71697e-09
-6.0556e-09
-6.73263e-09
2.01566e-09
5.61641e-08
-5.08578e-07
4.52414e-07
-7.3022e-08
5.47849e-08
1.82371e-08
-6.45763e-10
-6.08687e-09
-7.68177e-09
5.52173e-09
2.16004e-09
-4.14388e-07
5.34293e-08
3.60958e-07
-2.6803e-09
2.03453e-09
-1.05829e-08
1.05829e-08
3.49962e-09
-6.17991e-09
3.09216e-08
-1.84924e-07
1.54002e-07
1.40382e-09
2.09579e-09
-3.58224e-07
6.37206e-09
6.33528e-08
-6.97248e-08
1.60815e-08
-9.70944e-09
-1.56076e-08
-5.74144e-08
1.65039e-07
-1.63156e-07
-1.88229e-09
-2.57559e-07
1.28739e-08
2.52139e-08
3.485e-09
-2.86989e-08
-8.17735e-08
1.06987e-07
8.5146e-08
-9.85286e-08
-9.55601e-09
7.29088e-08
3.48961e-09
-1.10163e-08
1.72664e-07
-7.62497e-09
1.97921e-07
-1.95822e-07
-2.0982e-09
1.87518e-09
1.96045e-07
2.61262e-07
-2.59387e-07
-6.27794e-09
-1.30981e-07
1.30981e-07
-3.75648e-08
2.24665e-08
-1.86091e-07
1.57469e-07
-1.46467e-07
-4.4798e-08
2.4239e-09
1.3914e-08
2.16746e-09
-8.41527e-09
1.21947e-08
4.32804e-09
-2.99314e-07
2.94986e-07
-1.23414e-07
-7.56654e-09
-4.91773e-07
5.27589e-07
-3.58164e-08
1.80844e-08
-2.02106e-08
2.12618e-09
-4.69189e-07
-3.9389e-08
-5.50449e-07
5.64759e-07
-1.43102e-08
-5.46091e-07
5.43182e-08
1.57056e-07
2.82052e-08
-2.21719e-08
-6.03325e-09
2.89728e-09
-1.66054e-07
4.40905e-08
-4.40905e-08
2.42494e-08
-6.16504e-09
2.61452e-08
2.05997e-09
-6.26695e-07
6.11355e-07
1.53404e-08
-5.82065e-07
3.16161e-08
5.97702e-07
-6.06893e-07
9.19062e-09
-1.23414e-07
7.43927e-09
-8.97702e-08
8.23309e-08
5.84001e-08
5.80217e-07
1.74852e-08
-5.20213e-07
-2.58774e-08
2.07749e-09
-6.4288e-07
6.26199e-07
1.66805e-08
1.24451e-07
1.12592e-08
-1.3571e-07
-2.07353e-08
1.45186e-07
2.78862e-09
-3.02248e-07
2.9946e-07
3.2143e-08
-5.99776e-09
4.45458e-08
-6.2108e-07
-5.61557e-09
2.64051e-07
-1.84804e-09
-6.2205e-07
6.14875e-07
7.17486e-09
3.00101e-08
2.13283e-09
2.73157e-08
-1.14023e-07
8.67075e-08
-6.24613e-07
-1.82663e-08
-1.02812e-07
1.14071e-07
4.69416e-08
-2.85104e-09
4.46219e-09
-5.58107e-07
5.60121e-07
-2.01443e-09
3.62034e-08
-6.19328e-09
1.33878e-07
-6.39285e-07
1.82048e-08
-6.29652e-09
-1.02812e-07
-5.94266e-07
-2.77846e-08
-6.561e-08
8.19566e-09
-6.74923e-08
3.88334e-08
-1.4383e-07
1.04996e-07
-4.51592e-07
4.46068e-07
5.52401e-09
-9.34333e-09
-1.14071e-07
9.2102e-08
-9.2102e-08
3.33234e-08
-3.33234e-08
-1.30855e-08
-6.3745e-07
1.28367e-08
-5.107e-07
-4.74071e-08
-2.37066e-09
-4.17199e-08
-2.25746e-08
3.38327e-08
-5.95733e-07
1.46749e-09
4.69416e-08
-3.26395e-07
2.96234e-07
3.01611e-08
-3.56117e-08
-2.86777e-07
2.96865e-07
-1.00878e-08
2.97516e-07
-2.8832e-07
-9.19627e-09
-3.71551e-07
-8.00417e-08
-2.86487e-07
2.97751e-07
-1.12639e-08
-2.55059e-07
-5.09192e-07
-1.50815e-09
-3.40798e-08
-2.26834e-07
1.895e-07
3.73335e-08
2.91066e-07
6.45029e-09
-2.89561e-07
3.01159e-07
-1.15985e-08
1.18895e-08
-6.3678e-09
-2.96928e-07
1.01514e-08
-1.07098e-08
-6.31234e-08
-1.17202e-07
-4.98761e-08
-2.94797e-07
3.05989e-07
-1.11912e-08
-1.55965e-07
9.58618e-09
1.46378e-07
-2.99222e-07
1.27352e-08
-1.93821e-07
1.87502e-07
6.31868e-09
-2.3239e-07
-9.40052e-08
-3.88791e-07
1.72401e-08
-8.24837e-09
1.73e-07
-1.89379e-07
1.63784e-08
-2.33744e-08
4.6624e-08
-2.32496e-08
-4.41097e-08
-3.00846e-07
3.11445e-07
-1.05987e-08
-3.03461e-07
1.39005e-08
-1.70857e-07
-5.59769e-08
-2.70593e-07
3.82025e-08
-9.25563e-08
-8.10926e-08
1.99183e-07
-2.61827e-08
2.83263e-08
2.05046e-07
-2.04953e-07
-9.3393e-11
2.50533e-08
1.83392e-07
-2.08445e-07
1.12258e-08
-3.08682e-07
1.38845e-08
5.175e-08
-9.71735e-09
-4.20326e-08
2.3419e-07
-2.29865e-07
-4.3253e-09
-3.06859e-07
-1.02039e-08
3.17063e-07
-1.87682e-09
1.75108e-07
-1.50055e-07
3.54496e-08
4.69863e-08
4.76371e-09
-7.68165e-08
-7.91481e-08
9.5506e-08
-1.00743e-07
5.2374e-09
-3.11559e-08
-1.07616e-07
4.58118e-08
-2.10389e-07
1.64577e-07
1.9122e-07
-1.45409e-07
2.20859e-07
-2.17814e-07
-3.04489e-09
-5.51834e-08
6.3831e-08
-8.64753e-09
-6.12167e-08
2.30626e-08
1.52045e-07
-3.14272e-07
1.34259e-08
-1.10787e-08
-5.73656e-08
6.84443e-08
-1.3473e-08
1.08979e-07
-7.26187e-09
8.5445e-09
3.54316e-07
-1.73445e-07
-1.80871e-07
-2.86149e-07
-1.07795e-08
1.59059e-08
1.63763e-08
-2.87681e-07
-1.15416e-08
1.16024e-08
1.35843e-07
3.59531e-08
2.88021e-09
2.44718e-07
-2.40524e-07
-4.19323e-09
-3.63837e-09
5.05799e-08
-2.91998e-07
-1.1463e-08
1.34785e-08
1.05885e-08
2.55614e-07
-2.66203e-07
1.71231e-07
1.83085e-07
-1.33733e-07
1.44322e-07
-1.26253e-07
1.26253e-07
-3.16077e-07
-1.00486e-08
3.26125e-07
3.15953e-07
-3.26041e-07
1.39901e-08
-3.19911e-07
1.30518e-08
2.18663e-07
-1.74254e-07
-4.44096e-08
-2.97802e-07
-1.08795e-08
3.22854e-07
-3.12733e-07
-1.01211e-08
-2.56143e-07
2.59158e-07
-3.01484e-09
3.1958e-07
-3.30844e-07
1.45085e-07
-1.22023e-07
1.48525e-08
3.26668e-07
-3.38266e-07
1.36424e-08
-2.68318e-07
2.70993e-07
-2.67489e-09
2.6294e-08
2.033e-08
1.14404e-07
2.61544e-08
1.92509e-07
-2.0349e-09
1.45811e-07
-1.43777e-07
-6.06127e-08
-1.8979e-08
7.95917e-08
1.34518e-07
9.23298e-09
-1.43751e-07
3.35938e-07
-3.47129e-07
-9.0878e-09
2.66259e-07
-2.57171e-07
-3.03877e-07
-1.03949e-08
-3.38141e-07
3.29053e-07
-2.53528e-07
-1.02825e-08
2.6381e-07
3.09672e-07
1.31822e-08
5.3708e-07
-5.72896e-07
-2.49252e-07
2.52955e-07
-3.70221e-09
6.04508e-07
-6.18818e-07
-1.442e-07
1.04671e-08
3.45962e-07
-3.56561e-07
-2.63724e-07
7.58071e-09
3.24618e-07
9.44963e-09
-3.34067e-07
6.87888e-07
-6.72548e-07
-4.30765e-08
4.90082e-08
-5.93173e-09
-9.74638e-09
-3.22629e-07
3.32375e-07
9.90533e-09
1.24303e-08
1.23275e-07
-1.34354e-07
3.55788e-07
-3.65992e-07
-9.68272e-09
-1.33878e-07
-6.93828e-08
6.93828e-08
7.01963e-07
-6.85282e-07
-2.61451e-07
-2.2729e-09
6.7491e-07
-6.67735e-07
4.92317e-07
-4.86793e-07
1.31858e-08
-9.79725e-09
-2.47061e-07
2.56858e-07
7.0856e-08
-7.0856e-08
7.83891e-09
-6.84516e-08
7.2223e-09
7.98536e-08
-8.70759e-08
-8.44457e-09
2.70067e-07
-2.61622e-07
6.06151e-07
-6.08165e-07
2.67025e-07
-2.65106e-07
-1.91909e-09
-3.46214e-07
3.3777e-07
1.10046e-07
1.6207e-08
-8.39759e-08
-8.12609e-09
7.88389e-08
-1.23101e-08
-6.65288e-08
-2.22162e-07
8.89008e-09
2.13271e-07
-3.29258e-07
1.31811e-08
-2.84288e-08
5.57444e-08
-4.30765e-08
-2.70353e-07
-9.07721e-08
-9.97123e-09
-6.15438e-08
-8.18516e-09
-2.44322e-07
2.52507e-07
3.83388e-09
-8.85782e-08
8.47444e-08
-1.02387e-08
3.69851e-07
-3.79899e-07
-9.31323e-09
-3.29248e-07
3.38561e-07
3.0706e-07
-3.16857e-07
-4.70706e-08
1.86418e-08
3.70401e-07
-1.9917e-07
7.88389e-08
2.64633e-07
-9.01898e-09
5.92326e-08
-1.22463e-08
3.55895e-07
-3.25734e-07
-1.52597e-07
1.87726e-07
-3.51296e-08
7.866e-09
-3.54252e-07
3.46386e-07
3.73946e-08
-3.57234e-08
-1.67116e-09
1.32775e-07
6.2002e-09
5.30324e-08
4.13032e-07
7.32952e-09
-4.20362e-07
1.73917e-07
1.96484e-07
-5.31312e-09
3.29931e-07
7.46899e-08
-1.83651e-09
-2.08552e-07
2.31715e-07
-2.05561e-07
2.75693e-08
-1.80166e-07
-1.27546e-07
1.27546e-07
2.74309e-07
-2.66443e-07
4.04864e-09
-9.48208e-08
-1.00228e-08
6.65288e-08
-5.6506e-08
1.10046e-07
5.57466e-09
-6.36337e-08
7.88571e-08
-9.47435e-09
3.70799e-08
-3.70799e-08
3.18509e-07
-3.2577e-07
4.24679e-08
-5.21852e-08
-4.80708e-09
-2.4333e-07
2.48137e-07
3.28145e-08
3.1122e-09
-3.59267e-08
3.73946e-08
2.70481e-07
-7.45313e-10
-2.69736e-07
-1.27565e-08
1.10163e-08
-1.14986e-07
-1.25603e-08
3.28145e-08
6.27965e-09
2.64713e-07
-7.88571e-08
-1.08104e-08
8.96675e-08
-2.96526e-08
2.47414e-08
-9.79666e-08
1.01079e-07
-1.32045e-07
3.78899e-07
-3.88645e-07
1.4099e-07
-3.6944e-09
-1.37296e-07
1.11052e-08
2.99401e-07
-3.07586e-07
-5.33596e-09
4.18368e-07
5.53436e-08
-5.05799e-08
-1.27565e-08
-2.28021e-07
2.36911e-07
1.41396e-08
-3.91119e-08
-3.96459e-09
3.41643e-11
-3.41643e-11
1.60344e-07
-3.35493e-07
1.28648e-08
2.79625e-08
8.20836e-08
-3.33435e-07
-4.70536e-09
2.52478e-07
-2.15144e-07
-7.87385e-08
8.39759e-08
-9.04697e-09
-3.35468e-07
3.44515e-07
3.18435e-09
1.4099e-07
-1.10097e-07
1.10097e-07
3.02152e-09
3.42481e-08
-3.42481e-08
-6.35157e-09
2.81497e-07
-2.75146e-07
2.6895e-07
-2.67828e-07
-1.12216e-09
1.17359e-09
-9.91402e-08
3.875e-07
-3.96814e-07
1.75505e-07
-2.07972e-07
3.24674e-08
-1.54823e-07
1.55997e-07
-3.58623e-07
3.4834e-07
3.84416e-09
9.85236e-08
-9.85236e-08
3.75271e-08
-3.54496e-08
-3.96806e-08
1.48527e-07
-1.08847e-07
-3.91119e-08
-5.89483e-09
2.00344e-08
5.38483e-10
-2.44927e-07
2.44389e-07
7.28062e-09
-2.49597e-07
2.42317e-07
-6.15438e-08
4.2403e-08
-8.20836e-08
-2.42865e-08
4.60095e-07
-4.35808e-07
-3.66021e-07
3.59669e-07
-4.82567e-07
4.58281e-07
1.26645e-07
-1.26645e-07
7.01174e-08
3.21342e-07
-5.65883e-09
-3.15684e-07
1.86332e-08
-1.86332e-08
1.33922e-08
-1.13898e-08
-1.25906e-07
1.37296e-07
-2.45601e-07
1.22436e-07
1.23166e-07
2.68158e-08
-2.472e-08
-4.5671e-08
-1.82594e-07
9.9308e-08
8.32861e-08
7.46899e-08
-3.19333e-07
-9.92496e-09
3.95204e-07
-4.04251e-07
1.95898e-07
-8.14945e-08
-2.16951e-07
-2.38196e-07
2.33871e-07
-5.85357e-09
5.85357e-09
-3.42076e-07
-4.13824e-09
-6.76006e-08
-1.14994e-07
-8.34444e-08
-1.296e-08
9.64044e-08
2.93654e-07
-2.98461e-07
5.82234e-08
7.24274e-08
1.00819e-07
-1.57529e-08
-8.50659e-08
1.89301e-08
-9.6971e-09
1.88253e-07
-3.07837e-08
-3.51293e-07
-1.46293e-07
3.96792e-08
-6.75346e-08
2.78554e-08
1.00053e-09
1.3999e-07
-4.42171e-07
4.36835e-07
2.06698e-08
2.65307e-09
1.3712e-07
-1.38956e-07
2.37912e-07
-1.34395e-07
1.65317e-07
2.68158e-08
7.00281e-09
3.55156e-07
-3.62159e-07
6.50829e-08
-3.41581e-07
1.23336e-08
-9.17491e-09
-3.40749e-07
3.49924e-07
2.75042e-08
9.91403e-08
6.1291e-09
1.28197e-07
-1.34326e-07
1.68613e-07
-2.01668e-07
3.30554e-08
-3.02152e-09
-5.69168e-08
6.43561e-08
1.15912e-07
2.40282e-09
-1.18315e-07
-1.06693e-08
3.39643e-08
-2.3295e-08
5.98485e-08
-3.35545e-08
-1.67852e-09
3.59267e-08
-4.904e-07
4.86582e-08
4.41741e-07
2.07085e-07
-2.00766e-07
1.75567e-07
-8.61662e-08
-8.94007e-08
-8.72469e-09
2.7389e-07
-2.74636e-07
-4.17199e-08
3.12255e-07
-5.19552e-09
3.63172e-08
5.2258e-08
-8.85753e-08
3.75271e-08
1.22965e-07
-5.39065e-08
-1.95605e-08
5.6281e-08
-5.6281e-08
6.90588e-08
-1.04753e-08
1.75052e-07
-3.50734e-07
-3.51713e-09
-4.38577e-08
-2.36769e-08
-2.26855e-08
2.26855e-08
4.2403e-08
-8.15098e-08
7.5615e-08
-1.47525e-07
3.3061e-07
9.36023e-08
-1.47634e-08
-6.98398e-08
8.70048e-08
-1.7165e-08
8.94472e-09
-8.94472e-09
1.16778e-08
1.91054e-07
-2.0459e-07
1.35357e-08
-1.17023e-07
6.71466e-08
2.08547e-07
-3.3042e-08
-4.88894e-08
4.88894e-08
6.03126e-09
-3.00865e-09
3.52048e-08
-2.05813e-07
1.7616e-07
9.49057e-08
-5.85884e-08
-8.7323e-08
8.7323e-08
-1.30931e-07
1.30931e-07
4.01599e-07
-4.10774e-07
8.19457e-08
1.54634e-07
-1.70387e-07
-5.53436e-08
5.18018e-08
-5.18018e-08
-3.2596e-07
-9.53363e-09
1.21947e-08
1.30421e-08
-5.83707e-08
-5.86521e-08
-9.59041e-08
1.23408e-07
1.00101e-07
-2.92967e-08
-7.08047e-08
1.3999e-07
-2.06698e-08
1.55349e-07
3.23773e-08
1.12577e-07
-1.12577e-07
4.64968e-09
-3.73559e-07
3.6891e-07
-2.81206e-08
2.64455e-07
-2.55005e-07
5.03015e-08
5.97945e-09
2.86917e-07
-2.82267e-07
-1.3721e-07
1.3721e-07
-3.79858e-08
8.7512e-09
-8.7512e-09
-8.33388e-10
1.30281e-08
-9.25838e-08
7.87385e-08
1.61275e-07
-2.08502e-07
4.72268e-08
-6.03126e-09
7.23202e-08
-7.84877e-08
1.32587e-07
-5.04078e-09
3.65235e-07
-3.75357e-07
-8.06911e-09
9.36023e-08
2.1801e-09
1.32587e-07
2.91171e-07
-2.90633e-07
2.31239e-07
-2.30206e-07
-1.03351e-09
1.56173e-07
3.11559e-08
-2.89758e-08
5.58848e-08
-5.58848e-08
-2.63411e-07
2.62414e-07
-2.30257e-08
4.77671e-08
1.14986e-07
-1.6462e-08
-1.46357e-07
1.35688e-07
2.5929e-07
-2.62305e-07
-2.04498e-07
-1.37471e-07
-1.29728e-08
-4.69595e-07
1.64979e-08
-1.4194e-08
-1.6495e-08
3.14365e-07
-3.11142e-08
-2.8325e-07
-1.16778e-08
1.4194e-08
1.87618e-09
-2.57643e-07
2.55767e-07
1.88901e-07
-2.02882e-08
2.6672e-08
4.33423e-07
-2.48247e-07
1.79071e-08
2.3034e-07
-1.43507e-07
1.49636e-07
3.9587e-08
-5.37399e-09
-4.35155e-08
2.37139e-07
-2.35262e-07
-2.93818e-07
-1.14475e-07
2.71518e-08
1.15819e-08
2.52873e-07
-3.84411e-08
9.06992e-08
4.0975e-07
8.61849e-09
2.1593e-07
-2.65814e-09
1.28416e-07
-1.28416e-07
3.02943e-07
-3.5417e-09
-2.71994e-07
2.78997e-07
-2.08362e-07
1.80241e-07
-8.23284e-08
-1.61952e-08
1.67435e-07
-1.39473e-07
4.01385e-08
1.35428e-07
1.12539e-08
-6.40465e-09
2.03777e-07
1.1891e-08
1.04021e-07
-3.06628e-08
-1.71494e-07
2.02157e-07
1.83667e-07
5.23369e-09
-2.59421e-07
-6.78167e-09
8.96675e-08
2.30734e-07
2.5864e-08
4.1615e-07
-6.40057e-09
-3.77599e-08
-7.91107e-09
-1.66564e-07
1.9146e-07
-2.48959e-08
2.26816e-08
2.91683e-07
2.07023e-07
-4.57484e-08
1.13995e-07
1.37839e-07
-2.43808e-07
5.61195e-09
-6.53108e-09
2.59009e-07
4.00475e-07
-3.73803e-07
-1.23878e-08
8.4708e-08
-1.25332e-08
-1.33824e-07
-2.51277e-07
-1.1251e-08
2.62528e-07
-9.06641e-08
2.08243e-08
-1.35959e-07
-1.25113e-09
-5.49885e-09
3.70734e-07
-1.07017e-08
-8.31946e-08
9.38963e-08
-5.50577e-09
2.05917e-07
-1.48626e-08
-3.45708e-07
-9.18277e-09
3.54891e-07
-2.03198e-09
4.53382e-08
5.47632e-08
-9.77037e-09
-6.87174e-08
1.2601e-08
1.31843e-07
7.43543e-10
-2.69104e-07
-4.41332e-07
-8.38201e-10
7.06113e-09
-1.60104e-07
1.53043e-07
2.26869e-08
-2.08942e-07
1.42851e-08
1.94657e-07
-7.70597e-09
2.23636e-07
-3.56959e-07
-3.82499e-08
9.55097e-09
2.93019e-07
-2.85738e-07
5.76659e-08
3.9587e-08
-1.68268e-07
-4.02338e-08
-5.53047e-09
3.61318e-07
-2.52625e-07
4.62292e-09
2.48002e-07
1.306e-07
-5.05357e-08
4.0643e-07
4.53974e-08
-2.08279e-07
1.62882e-07
-1.48098e-09
2.65532e-07
-1.64979e-08
-9.95316e-08
2.5091e-08
7.44406e-08
-1.11277e-08
-9.11464e-08
1.02274e-07
-1.81761e-07
-2.62117e-08
-5.85257e-09
3.51815e-07
-2.38341e-07
1.58205e-07
1.72404e-07
1.5948e-07
4.75432e-08
2.7031e-07
-2.719e-07
1.59059e-09
-4.21883e-08
2.89758e-08
1.65935e-07
5.9538e-09
1.14714e-07
-1.20667e-07
-1.63543e-07
2.0894e-07
-6.35549e-08
5.55872e-07
-2.71417e-07
1.68116e-09
-2.01999e-07
2.00518e-07
4.0279e-08
-1.25906e-07
-3.00865e-09
-6.12088e-09
4.35155e-08
-2.23422e-07
1.01218e-08
2.133e-07
-6.48176e-08
6.48176e-08
-1.06824e-07
7.75277e-08
1.05252e-07
-1.11373e-07
1.03528e-08
2.08608e-07
-2.18961e-07
4.06967e-07
-1.44827e-07
1.10035e-08
-1.9497e-10
-5.43711e-09
3.84336e-07
3.66097e-08
-2.00153e-07
-1.22444e-08
-5.99453e-08
7.21896e-08
5.87331e-08
-9.4925e-08
3.61919e-08
-1.12372e-08
-9.88889e-08
1.10126e-07
-3.10605e-08
-8.29626e-08
-3.47362e-07
1.18945e-08
7.30258e-09
7.97022e-08
-1.36445e-07
1.71032e-08
-3.61859e-07
3.55078e-07
1.1831e-08
-2.58892e-07
-1.27488e-08
1.48437e-07
-9.49334e-08
-4.97338e-08
-9.40957e-08
-5.00027e-10
-2.70917e-07
1.3712e-07
2.07202e-08
6.81243e-07
-3.88651e-08
6.45016e-07
1.11458e-07
-6.19804e-08
-5.88849e-09
6.80798e-07
1.06968e-08
2.5937e-07
-3.32443e-07
-9.13787e-09
1.07683e-07
-1.1279e-08
1.52786e-07
9.28214e-09
-1.62068e-07
-6.64426e-09
3.42582e-07
-6.04322e-09
4.07642e-07
-3.2497e-07
3.15774e-07
1.89147e-10
1.95085e-07
-2.03111e-07
-1.77209e-07
-1.92563e-07
9.50299e-09
-1.05994e-08
-1.67597e-08
2.73591e-08
-1.38654e-07
3.86891e-08
9.99653e-08
4.39757e-07
-2.92238e-09
9.89271e-09
2.69104e-07
8.81622e-09
5.95691e-07
-6.64964e-09
4.13617e-07
-1.2698e-08
3.8562e-08
1.03959e-08
-2.54718e-07
1.28241e-07
-2.05575e-08
1.63139e-07
-6.67528e-07
2.76601e-08
6.39867e-07
6.95755e-09
-2.50288e-07
-7.50405e-08
-7.63894e-09
3.34307e-07
-2.26466e-07
-1.18002e-07
1.16467e-07
-2.56327e-07
-1.6641e-07
-4.33357e-07
4.37065e-07
-3.70854e-09
-9.9352e-09
-1.06622e-07
1.16557e-07
-4.39036e-09
-1.94207e-07
-1.03827e-08
-1.25255e-08
-5.15119e-08
6.40373e-08
-5.31134e-09
3.92812e-07
3.58231e-07
-3.07519e-09
-3.1931e-08
-5.43057e-09
4.00634e-07
-1.87301e-07
1.01134e-07
1.90458e-08
1.27553e-07
-1.46599e-07
-1.30281e-08
-8.43352e-08
5.49435e-07
-1.23555e-08
1.03438e-08
2.63965e-07
2.03358e-07
-6.23654e-09
-1.97122e-07
4.09617e-07
-1.61463e-07
1.98073e-07
-1.54192e-08
3.66947e-07
4.267e-08
-4.47458e-07
2.95027e-09
4.44507e-07
-1.01987e-09
-2.56624e-07
-2.32558e-07
2.26027e-07
-2.52977e-08
1.7746e-07
-1.52162e-07
-1.31971e-07
-5.53292e-08
-1.19965e-07
-1.14534e-07
1.0916e-07
-1.21521e-08
-4.35381e-08
5.56902e-08
-4.95868e-08
-4.48037e-08
2.08041e-07
-2.00202e-07
-7.83848e-09
-3.96314e-07
3.83391e-07
1.29234e-08
-2.07058e-07
-4.83825e-08
1.13465e-07
-4.41357e-07
4.32393e-07
8.96364e-09
8.41527e-09
2.96357e-09
2.01251e-10
-4.22623e-07
4.22421e-07
9.1509e-09
2.68391e-07
1.77958e-07
-1.45581e-07
-8.45948e-09
3.28039e-07
2.73023e-07
8.6789e-10
-6.92446e-09
-1.13136e-07
1.2006e-07
-1.31843e-07
1.31093e-07
7.50255e-10
1.83185e-07
-1.71603e-07
9.41173e-08
-1.05396e-07
-2.54006e-09
-3.59319e-07
-1.14475e-07
1.45216e-08
6.06264e-08
-6.06264e-08
1.65227e-07
2.59515e-07
6.01704e-09
2.02669e-07
-1.88383e-07
-6.58337e-07
1.86942e-07
1.89751e-08
-6.54356e-09
-2.43054e-07
-1.18484e-08
-3.55978e-08
4.74462e-08
1.87909e-07
2.12732e-08
-2.12732e-08
-2.2122e-07
1.80986e-07
1.69876e-07
1.80329e-08
5.94888e-08
8.6291e-09
4.47256e-07
-4.55885e-07
1.23613e-07
4.65422e-09
-4.65422e-09
-9.01722e-09
3.23479e-08
-2.01167e-08
1.561e-07
-1.67055e-07
1.09551e-08
-5.10046e-07
-1.48536e-08
5.249e-07
2.66746e-07
1.64496e-09
1.53215e-07
-1.65603e-07
-4.83998e-10
-1.17518e-07
-3.79647e-07
-1.66667e-08
2.95514e-08
1.93972e-07
-2.27014e-07
3.80279e-07
-3.85775e-07
5.49598e-09
-1.69591e-07
1.58889e-07
5.97945e-09
-3.03664e-09
-2.67316e-07
1.71221e-07
-5.27065e-08
-1.18515e-07
3.74746e-07
-3.80276e-07
-1.22817e-07
-8.11333e-09
-1.51261e-09
1.1798e-07
2.75091e-07
-2.75591e-07
-1.35731e-08
1.35731e-08
3.85639e-07
-3.91138e-07
2.2857e-07
-2.78304e-07
-4.32728e-07
-2.87805e-07
2.59283e-07
2.85221e-08
1.52351e-07
-1.62121e-07
2.44776e-07
-9.514e-08
4.04917e-07
-3.79703e-08
-4.24013e-08
-1.58089e-08
8.34107e-09
2.78575e-07
-2.472e-08
2.49779e-07
2.40027e-07
-2.58759e-07
1.87324e-08
-2.50593e-07
2.53556e-07
2.05148e-07
-1.90626e-07
2.28312e-07
-2.70137e-07
4.18243e-08
4.30415e-07
-3.74678e-07
3.69041e-07
5.63742e-09
-3.02622e-07
1.82264e-07
-2.16768e-09
2.58242e-07
-2.56075e-07
1.48091e-07
-1.60264e-07
1.21738e-08
2.31246e-07
-7.82035e-08
-3.57234e-08
9.1777e-08
-1.11879e-07
2.0102e-08
-2.44377e-07
2.48999e-07
2.19182e-07
-2.34045e-07
-2.87613e-07
2.34041e-07
5.35718e-08
-3.37904e-08
5.01534e-08
3.71697e-08
1.92973e-07
-1.58392e-07
1.46147e-07
1.33722e-07
3.52455e-07
-3.43179e-07
-9.27574e-09
1.25751e-07
-1.25751e-07
4.55587e-10
-2.30676e-07
2.04464e-07
-3.1251e-07
2.96285e-07
1.62256e-08
-1.024e-08
1.22817e-07
2.68847e-07
-1.91319e-07
1.44267e-07
-1.56875e-07
1.2608e-08
5.62585e-07
-5.83837e-07
2.12515e-08
2.55986e-07
-1.25386e-07
-5.92421e-07
5.86533e-07
2.1193e-07
-1.9949e-07
-1.24401e-08
-2.33741e-07
2.39352e-07
2.48943e-07
-2.5474e-07
5.79707e-09
-1.59882e-07
2.63903e-07
-2.33858e-07
2.28732e-07
5.12611e-09
-2.63664e-07
2.32603e-07
1.21445e-09
-2.46142e-07
4.35343e-07
-9.12674e-09
3.24901e-07
-1.72432e-07
1.61509e-07
1.09234e-08
2.64823e-07
-2.43999e-07
2.69307e-07
-2.33115e-07
-2.32886e-07
2.12769e-07
2.70527e-07
1.1223e-09
-2.7165e-07
3.90835e-07
-3.96341e-07
2.08273e-08
-2.89574e-07
-1.3048e-08
-5.9705e-07
6.05403e-07
-8.35269e-09
-2.44049e-07
-3.69037e-07
3.63184e-07
-2.50489e-07
2.57792e-07
7.40472e-09
-3.57779e-07
3.07243e-07
9.84882e-09
-3.22823e-07
3.12974e-07
4.28594e-08
-9.91403e-08
1.76185e-07
-1.66292e-07
-1.55381e-07
1.42855e-07
-2.48007e-07
-3.23956e-07
3.33805e-07
-1.00764e-08
-1.00823e-08
-3.24746e-07
3.34828e-07
1.75683e-07
-1.66706e-07
-8.97674e-09
3.92354e-07
-1.66524e-07
1.76682e-07
-1.01581e-08
-4.49394e-07
1.75848e-07
-1.66345e-07
1.35739e-07
-5.02853e-09
1.35959e-07
1.61264e-07
-3.1434e-07
-1.1851e-08
2.23994e-07
-2.34377e-07
-3.60312e-07
1.41576e-07
-1.54004e-07
1.24283e-08
-8.03632e-08
2.15792e-07
-6.71353e-09
3.06173e-07
1.38956e-07
-3.63424e-07
3.5723e-07
6.19357e-09
1.32971e-07
-1.82453e-07
1.89411e-07
-1.80371e-07
1.89327e-07
-8.95559e-09
-4.23446e-07
4.18016e-07
-4.73778e-07
-5.98905e-07
6.19625e-07
1.88868e-07
-1.78472e-07
-4.19451e-07
4.14134e-07
5.31726e-09
-1.75116e-07
1.63988e-07
4.70773e-07
-4.85627e-07
2.22371e-07
-2.12249e-07
2.00289e-07
-9.91545e-08
-1.7051e-08
1.7051e-08
2.64473e-07
-3.12377e-09
-2.15922e-07
2.70685e-07
1.74471e-08
1.17059e-08
4.21543e-07
-4.27221e-07
5.67831e-09
3.7125e-07
-3.72533e-07
1.28307e-09
-2.45178e-08
9.1777e-08
1.20713e-08
-4.25163e-07
3.17489e-09
-5.9094e-07
6.1784e-07
-2.68993e-08
-2.70983e-07
2.69056e-07
1.92735e-09
-1.84666e-07
1.89043e-07
-4.3772e-09
1.75724e-07
-1.67383e-07
-4.15242e-07
4.0993e-07
5.01632e-07
-1.47178e-08
-4.86914e-07
5.36689e-08
-1.1201e-08
-3.1275e-07
-1.00736e-08
2.4664e-09
-1.77878e-07
1.66466e-07
1.14119e-08
3.95876e-07
-4.01364e-07
5.48872e-09
3.27553e-07
-3.36334e-07
8.78112e-09
-1.43709e-09
1.43709e-09
-3.57926e-07
3.51282e-07
-4.10821e-07
4.05454e-07
5.36675e-09
-3.08893e-08
3.96405e-08
3.30898e-07
-3.39358e-07
-3.34257e-07
3.2524e-07
-2.33634e-07
2.27398e-07
3.40042e-07
-3.47681e-07
3.3512e-07
-3.43199e-07
8.07844e-09
-5.81296e-07
6.10847e-07
1.40475e-07
-1.52627e-07
2.64121e-07
-1.89435e-09
-2.62226e-07
2.62133e-07
-2.60488e-07
-4.06193e-07
4.00756e-07
3.45492e-07
-3.5264e-07
7.14762e-09
7.4555e-09
4.63318e-07
5.27407e-07
-5.66272e-07
5.23461e-09
4.17187e-07
1.81785e-07
-1.70531e-07
-6.17778e-08
-1.86889e-07
1.88104e-07
3.46867e-08
-1.80334e-07
1.69097e-07
1.08399e-08
-1.69932e-07
1.59092e-07
4.24724e-07
-4.30767e-07
2.76055e-07
-2.76368e-07
3.13669e-10
-1.9815e-07
1.55962e-07
-2.11214e-07
3.09208e-07
-3.24422e-07
1.26322e-07
-1.36562e-07
4.27628e-07
6.43235e-09
-4.3406e-07
2.30402e-07
-2.22997e-07
7.64943e-09
-5.90426e-08
-1.37035e-08
4.83722e-07
-5.37524e-07
5.38017e-08
1.85468e-07
-1.2598e-07
-9.01934e-09
3.33074e-07
-3.24054e-07
1.39298e-07
-1.51405e-07
1.21067e-08
-5.52064e-07
5.71266e-07
-1.92017e-08
1.70514e-07
-1.53411e-07
-3.6371e-07
-5.7086e-07
5.9852e-07
1.88108e-07
-1.76776e-07
-1.13321e-08
-1.11879e-07
-1.88969e-07
1.86486e-07
2.48312e-09
-5.42063e-09
1.38282e-07
-1.5013e-07
-1.5013e-07
1.67548e-07
-1.74176e-08
-2.20776e-09
2.61722e-07
-5.01534e-08
4.14022e-08
-2.12129e-07
1.6638e-07
9.75906e-09
1.67643e-08
1.96392e-08
2.27056e-07
-2.46695e-07
1.8157e-07
-1.92151e-07
1.05805e-08
-1.67017e-07
1.77361e-07
1.31093e-07
1.84243e-07
-1.90787e-07
-1.60169e-07
1.55141e-07
2.56497e-07
7.62329e-09
-5.33764e-07
5.4258e-07
9.17985e-09
2.6808e-07
-2.6649e-07
6.77599e-11
-3.38292e-07
-9.06968e-09
1.78903e-07
-1.92922e-07
1.40195e-08
2.3459e-12
3.27568e-07
-9.05913e-09
3.09006e-08
2.29477e-09
-3.31954e-08
-4.99916e-08
-1.82875e-07
1.7196e-07
1.09148e-08
4.84573e-07
-4.96929e-07
-4.35482e-07
3.7236e-07
6.31224e-08
-1.92552e-07
1.92068e-07
-8.23284e-08
1.86052e-07
-1.91149e-07
5.09765e-09
-1.78205e-07
1.57917e-07
1.39407e-08
-1.92986e-07
1.61136e-08
1.76872e-07
4.3691e-07
-4.49883e-07
-5.14155e-07
5.11073e-07
3.08205e-09
-2.24201e-07
3.11428e-08
1.93059e-07
1.04548e-08
1.7273e-07
-1.65174e-09
4.38562e-07
1.87106e-07
-1.75275e-07
-2.36369e-08
1.80454e-07
-1.69508e-07
-1.09457e-08
1.86101e-07
-4.97914e-07
4.34359e-07
-1.95441e-07
1.93928e-07
1.99554e-07
-1.95619e-07
-3.93488e-09
1.7603e-07
-1.68353e-07
-7.67711e-09
-1.67708e-07
1.78215e-07
-1.05072e-08
8.34062e-09
9.66098e-09
2.58524e-08
-2.58524e-08
-1.3575e-10
2.69924e-07
6.05792e-09
-1.85071e-07
1.75136e-07
-3.75333e-08
9.6104e-08
2.5762e-07
4.6333e-10
4.63338e-09
-6.15502e-08
-4.90243e-09
-1.3491e-08
3.68213e-07
1.36981e-07
-1.4898e-07