/*--------------------------------*- C++ -*----------------------------------*\
  =========                 |
  \\      /  F ield         | OpenFOAM: The Open Source CFD Toolbox
   \\    /   O peration     | Website:  https://openfoam.org
    \\  /    A nd           | Version:  9
     \\/     M anipulation  |
\*---------------------------------------------------------------------------*/
FoamFile
{
    format      ascii;
    class       volVectorField;
    location    "2";
    object      U;
}
// * * * * * * * * * * * * * * * * * * * * * * * * * * * * * * * * * * * * * //

dimensions      [0 1 -1 0 0 0 0];

internalField   nonuniform List<vector> 
2364
(
(5.25247e-06 -0.0792249 0)
(0.00190089 -0.0180552 -8.58904e-17)
(0.000163598 -0.0316623 2.74926e-16)
(-0.000745287 -0.0267992 -2.46931e-16)
(-0.00486919 -0.0646319 0)
(-0.0059331 -0.0619711 0)
(-0.00839354 -0.0581188 -3.20323e-17)
(-0.00972308 -0.0558825 0)
(0.00114097 -0.0117496 0)
(0.00184351 -0.0153045 0)
(-0.0117677 -0.0831586 -2.36466e-16)
(-0.0133054 -0.0661963 2.59245e-16)
(-0.00117996 0.0157674 3.95627e-18)
(-0.00120127 0.0123483 1.73777e-17)
(-0.00216406 -0.0838038 5.90845e-17)
(-0.00564472 -0.0646536 1.63319e-17)
(-0.000776715 -0.000380603 4.00697e-18)
(-0.000687539 -0.00329466 1.76006e-17)
(-0.000400482 -0.0165302 0)
(-0.000716289 -0.0130925 -6.73567e-17)
(-0.00287477 -0.0961467 2.60963e-16)
(-6.9836e-06 -0.0762632 6.93046e-17)
(-0.00271451 -0.0884312 6.4807e-17)
(0.000209662 -0.0265041 6.19859e-17)
(-0.000794989 -0.0322875 1.67321e-17)
(-0.00604551 -0.0877778 6.40997e-17)
(-0.0050973 -0.0748296 -1.94347e-18)
(-0.0117015 -0.0833444 5.93716e-17)
(-0.00886961 -0.067439 6.00133e-17)
(-0.00419457 -0.0636558 6.11566e-17)
(-0.0045259 -0.0652773 0)
(-0.00174917 0.0170596 6.1246e-17)
(-0.000453105 0.0209537 0)
(-0.00257689 -0.0673472 0)
(-0.00824888 -0.0589501 0)
(-0.012493 -0.0816917 0)
(-0.00813978 -0.0595502 0)
(-0.00742617 -0.0607526 6.03262e-17)
(-0.0101045 -0.0508588 0)
(0.0304845 -0.0722205 1.33686e-16)
(-0.00808981 -0.0499088 5.9432e-17)
(0.00535606 -0.0624844 -1.47127e-20)
(-0.000636024 0.018455 0)
(0.0196166 -0.0598256 6.04732e-17)
(-0.0021225 0.0139465 0)
(0.0140513 -0.0783707 -5.95782e-17)
(0.00333188 -0.0491827 0)
(0.00643805 -0.0483271 5.94334e-17)
(6.95483e-05 -0.0820341 -5.75484e-17)
(0.0327631 -0.0530215 5.82074e-17)
(0.0291456 -0.0479763 0)
(-0.000621845 0.0144307 5.77116e-17)
(-0.00210034 0.00982101 0)
(-0.000795134 0.0117282 -2.47579e-16)
(-0.00235193 0.00668526 2.46851e-16)
(-0.000825476 0.00889468 0)
(-0.00246282 0.00358138 0)
(-0.000829571 0.00603914 -2.48989e-16)
(-0.00254383 0.000508055 2.48048e-16)
(-0.000288474 0.0033221 0)
(-0.00212384 -0.00229598 0)
(3.75897e-05 -0.00057549 5.84456e-17)
(-0.00186623 -0.00641735 6.1949e-17)
(-0.000120616 -0.002693 -2.49566e-16)
(-0.00190199 -0.00903597 3.08855e-16)
(-0.000174934 -0.00504573 0)
(-0.00194945 -0.0116008 0)
(-0.000237519 -0.00752417 0)
(-0.00189363 -0.014108 0)
(-0.000363087 -0.0098603 0)
(-0.00169819 -0.0162676 0)
(-0.000325827 -0.0116928 0)
(-0.00120833 -0.0175794 0)
(0.000233898 -0.017624 0)
(0.000587551 -0.0123922 6.54947e-17)
(0.00246216 -0.00982007 0)
(-0.00275673 -0.0672783 -2.58976e-16)
(-0.00355817 -0.0643047 2.51326e-16)
(-0.00618821 -0.0629248 -1.59223e-17)
(-0.00720236 -0.0603328 0)
(-0.00958764 -0.0548463 1.59744e-17)
(-0.0107652 -0.0529148 0)
(-0.00542608 -0.0486763 -5.94319e-17)
(-0.00305077 -0.0500796 0)
(0.0149173 -0.0502909 -2.37729e-16)
(0.0188557 -0.0524556 2.37422e-16)
(0.0411452 -0.0534023 -3.27029e-17)
(0.040096 -0.0569565 -5.91439e-17)
(0.0242728 -0.0763559 0)
(0.0199316 -0.0628526 0)
(0.0102256 -0.0797141 -2.38319e-16)
(0.0049245 -0.0654317 2.41036e-16)
(-0.00126424 0.0221737 0)
(-0.0117961 -0.0699427 -5.97172e-17)
(-0.0121601 -0.0816661 0)
(-0.00129349 0.0193073 0)
(-0.00820346 -0.0730832 -1.79557e-16)
(-0.00107641 0.0163833 -3.06404e-16)
(-0.00115297 0.0199807 3.07407e-16)
(-0.00809364 -0.0832361 1.78081e-16)
(-0.00311333 -0.085703 -1.32694e-16)
(-0.00141102 0.0137607 0)
(-0.0010274 0.0178929 -1.67144e-17)
(-0.00833729 -0.0663192 -6.00693e-17)
(-0.00649792 -0.0809153 -1.57987e-17)
(-0.00116855 0.00954198 0)
(-0.00139156 0.0128809 0)
(-0.00111021 0.00668101 0)
(-0.00145309 0.00987644 0)
(-0.00111031 0.00380905 0)
(-0.00154102 0.00678339 0)
(-0.000989568 0.000939257 0)
(-0.00150489 0.00349322 0)
(-0.0015694 0.00176772 -1.69222e-17)
(-0.00144347 -0.00261951 0)
(-0.000849171 -0.00615873 -6.19491e-17)
(-0.0015166 -0.00274502 0)
(0.000965814 -0.0165192 -3.55488e-16)
(-0.00102612 -0.00868911 0)
(-0.00164542 -0.00501341 0)
(0.000515451 -0.0114905 2.71525e-16)
(-0.00117089 -0.0113508 -2.46468e-16)
(-0.00176793 -0.00751041 2.48222e-16)
(-0.00115031 -0.0138303 -2.45881e-16)
(-0.00178903 -0.00987603 2.47746e-16)
(-0.000975376 -0.0157549 -2.45401e-16)
(-0.00170834 -0.01179 2.4741e-16)
(-0.000722898 -0.0169593 -2.45061e-16)
(-0.00102934 -0.0117047 2.67617e-16)
(0.036013 -0.0523731 0)
(-0.00218252 -0.0646208 8.34102e-17)
(-0.00325649 -0.0734223 3.88449e-17)
(-1.54387e-05 -0.0794889 0)
(0.0437676 -0.0223296 -1.33946e-16)
(-5.30795e-05 -0.0779399 0)
(3.50565e-05 -0.0745814 -1.85307e-17)
(-0.00228372 -0.0854774 1.55625e-16)
(0.000406717 -0.0330748 0)
(-0.000499485 -0.000376569 1.41334e-16)
(0.0010137 -0.00894062 2.82809e-16)
(0.0443207 -0.0329036 0)
(-0.00283974 -0.0957961 -3.19112e-16)
(7.70969e-05 -0.0415552 2.68559e-16)
(0.000256964 -0.0547387 -8.45204e-18)
(-0.00366828 0.00467127 0)
(-0.00371696 -0.00725591 0)
(-5.79564e-05 -0.059301 1.20084e-16)
(0.00144464 -0.0142652 -1.72829e-16)
(-0.00112736 -0.0540954 -2.71067e-16)
(-0.000152626 -0.0456066 -3.4399e-16)
(-0.000147416 -0.0749723 0)
(3.60881e-05 -0.0261051 -8.936e-17)
(-0.0011521 -0.0015852 0)
(0.00105686 -0.00498049 -3.66695e-16)
(-0.000139032 -0.0731351 -3.77308e-17)
(0.000198264 -0.0585134 0)
(-0.00011434 -0.0660311 2.64702e-16)
(6.95893e-05 -0.0592571 2.66665e-16)
(-0.00188116 -0.0704562 7.57412e-18)
(0.000191441 -0.0683582 0)
(7.51302e-05 -0.0308771 1.4413e-16)
(0.000138583 -0.0658161 -1.30114e-16)
(0.000136479 -0.0412832 0)
(-0.0029104 -0.0956255 -2.74637e-16)
(0.000473761 -0.0552306 -1.37216e-16)
(0.000385088 -0.0587882 1.38364e-16)
(0.000173109 -0.0254795 0)
(9.39446e-05 -0.0309225 0)
(0.000233938 -0.065422 0)
(0.000167632 -0.0654477 1.38245e-16)
(-0.00313733 -0.0764851 -1.27073e-16)
(0.00042546 -0.0467529 0)
(0.000347687 -0.0264092 0)
(-0.00223892 -0.0915877 0)
(-0.00283642 -0.0923402 1.38908e-16)
(-0.000125313 -0.0688549 0)
(4.2022e-05 -0.0549614 -1.59313e-16)
(-0.00167696 -0.0884944 1.61911e-16)
(0.00034173 -0.0318637 -4.58001e-18)
(-0.00291932 -0.0878614 -2.71513e-16)
(0.00137241 -0.0474834 1.44174e-16)
(-0.00254026 -0.070479 1.31316e-16)
(-0.00299528 -0.084504 1.28216e-16)
(-0.00219837 -0.0765947 0)
(-0.00284871 -0.0936937 1.35375e-16)
(0.000508814 -0.0423314 4.50624e-18)
(0.000225974 -0.0416637 1.52525e-16)
(-5.36266e-06 -0.073784 0)
(0.000136038 -0.0584931 -2.75425e-16)
(9.39496e-05 -0.0553338 -3.45964e-16)
(0.000277757 -0.0072999 2.02123e-16)
(0.000226731 -0.0449546 2.72308e-16)
(-0.00280831 -0.0934383 1.3791e-16)
(-0.00286243 -0.0920158 0)
(0.000942332 -0.0427361 -1.42712e-16)
(0.00013345 -0.0545082 2.74294e-16)
(0.00211108 -0.0327656 1.42301e-16)
(-0.00248969 -0.0848882 1.40221e-16)
(-0.00257478 -0.0954305 1.35251e-16)
(0.000112388 -0.0458701 -1.74743e-20)
(-0.00221908 -0.0558528 4.34837e-18)
(-0.00246083 -0.0480002 2.79805e-19)
(-0.00162768 -0.0289157 -2.88135e-19)
(-1.90661e-05 -0.0201836 0)
(-0.00126906 -0.00425849 0)
(-0.000770967 -0.000281404 1.51046e-16)
(-0.000428343 -0.00166537 0)
(-0.00114114 -0.00761471 0)
(-0.000269262 -0.0100473 0)
(-0.000300904 -0.0297587 0)
(0.000146042 -0.0156975 0)
(-0.000392815 -0.000597343 -1.50283e-16)
(0.000497298 0.000508509 0)
(-0.000772143 -0.00904873 -1.49552e-16)
(-0.00145302 -0.0123216 1.49551e-16)
(-0.000945718 -0.0365112 1.46403e-16)
(0.000773887 -0.00689478 0)
(0.000766148 -0.0161714 0)
(-0.000805345 -0.00182031 0)
(0.000769536 -0.0105714 0)
(0.0009937 -0.0159056 -1.49209e-16)
(0.000901066 -0.00996914 1.49277e-16)
(0.00117496 -0.015355 0)
(0.000995184 -0.00914406 0)
(-0.00081641 -0.013781 0)
(0.00105987 -0.00581055 0)
(0.00130391 -0.0145638 -1.49381e-16)
(0.00104865 -0.00814467 1.49517e-16)
(0.0013861 -0.0135852 0)
(0.000383358 -0.0109578 0)
(0.00107245 -0.00701625 0)
(0.000600243 -0.0109133 -1.49187e-16)
(-0.0036316 -0.0487124 1.43579e-16)
(0.00101647 -0.0045746 1.5003e-16)
(0.00141868 -0.0124785 0)
(0.000795767 -0.000524437 1.48511e-16)
(0.00135009 -0.0100699 0)
(-0.000143298 0.000422795 2.38202e-18)
(0.000954665 -0.00334404 0)
(0.00127961 -0.00883952 0)
(0.0014024 -0.0112929 -1.49847e-16)
(0.000889236 -0.00213955 0)
(0.0107616 -0.0784905 0)
(0.0012105 -0.00761933 0)
(0.000834686 -0.00096592 -1.50573e-16)
(0.00048846 -0.0161117 1.49212e-16)
(0.0065497 -0.0154491 0)
(0.000801815 0.000185969 0)
(0.00115975 -0.00641526 1.50573e-16)
(0.00113761 -0.00522447 0)
(0.000795865 0.00133391 0)
(0.012897 -0.135703 -1.32068e-16)
(0.00557235 0.0122672 1.49513e-16)
(0.00114812 -0.00403495 0)
(0.00085681 0.0048112 0)
(0.0136985 -0.107289 0)
(0.000811472 0.00249929 0)
(0.000176531 -0.00180025 0)
(0.00117428 -0.00284538 0)
(0.00839371 -0.0484192 0)
(0.000835294 0.00365283 -1.51056e-16)
(0.0146643 -0.116307 1.35226e-16)
(0.0019304 -0.0145501 0)
(0.00121005 0.000879884 0)
(0.00399785 0.0249897 -1.22311e-21)
(0.000261155 0.0459524 0)
(0.0126493 -0.0877295 0)
(-0.00338307 -0.0567387 -1.42355e-16)
(0.00713458 0.0027601 0)
(0.00528115 0.0237453 0)
(-0.00304778 -0.0303322 1.46553e-16)
(0.00219963 -0.0242674 0)
(-0.000516248 -0.00336001 0)
(0.0015237 0.0506266 0)
(0.000579426 -0.0538697 -1.45166e-16)
(0.000627462 -0.0614281 1.45558e-16)
(-0.000100723 -0.0728012 0)
(0.00119823 -0.00163381 1.50877e-16)
(-0.000730783 0.0297833 0)
(0.00631643 -0.000521409 0)
(0.00767268 -0.0428004 0)
(0.00906986 -0.0548737 0)
(-0.000281309 -0.0149168 -1.49327e-16)
(-1.76012e-06 -0.00306455 -2.36131e-18)
(0.000865837 0.00714873 0)
(0.000442537 -0.00400101 0)
(-0.00208978 -0.0217063 -1.4725e-16)
(0.000375257 -0.00455715 0)
(-0.00141435 -0.0843068 -1.39534e-16)
(-0.000923256 0.0445285 0)
(0.0110549 -0.150563 2.6311e-16)
(0.000856581 0.00831213 -1.50336e-16)
(0.0118271 -0.144151 -1.32061e-16)
(0.00573693 -0.165201 1.30165e-16)
(0.0118158 -0.146304 -1.30992e-16)
(0.00380242 0.0462494 -1.44495e-16)
(0.00114689 0.00452818 0)
(-0.00196663 0.0498771 0)
(0.00015742 0.0102349 0)
(0.00117072 0.0033405 1.50164e-16)
(0.000834448 0.0105795 0)
(-0.00286281 -0.184347 -2.56729e-16)
(0.00591865 -0.159107 0)
(-0.00064852 -0.179079 2.57948e-16)
(-0.000961152 0.0282139 0)
(0.00236258 -0.0175811 0)
(0.0131113 -0.140581 3.66844e-21)
(0.00258981 -0.165311 -2.58544e-16)
(0.00887052 -0.157699 -1.30692e-16)
(0.000842534 0.00945625 0)
(-0.00446601 -0.189251 8.78237e-22)
(-0.0041357 0.0404141 0)
(-0.00432817 0.0365208 0)
(-0.00112653 -0.0854336 1.39215e-16)
(0.00114491 0.00568695 0)
(0.00920237 -0.152624 4.42933e-21)
(-0.00232748 -0.174705 2.56723e-16)
(-0.000351381 -0.0783194 0)
(0.00236529 -0.172518 1.29753e-16)
(-0.00372835 -0.184489 -2.56813e-16)
(0.000850286 0.0116959 0)
(0.00765345 -0.0220878 0)
(-0.00416742 -0.177248 -2.55666e-16)
(-0.00174303 0.037825 0)
(0.00042639 0.0157164 0)
(-0.000276781 -0.17068 -2.67725e-21)
(-0.0037707 -0.166862 1.30486e-16)
(0.00119423 0.00683277 0)
(0.000311372 0.0465844 0)
(-0.00409943 -0.187848 -6.10218e-22)
(0.00119558 0.00212216 0)
(-0.000965718 0.0235205 0)
(-0.00483167 -0.169977 2.56801e-16)
(0.00151058 0.0128888 -1.4429e-16)
(-0.00159635 0.0250574 0)
(0.0107654 -0.0292193 -1.45188e-16)
(-0.00744307 -0.134029 1.33977e-16)
(-0.00147299 0.0414039 0)
(-0.00072041 0.0211145 -3.4736e-21)
(0.000150096 0.00799732 0)
(-0.0035722 -0.177016 3.28242e-23)
(-0.00421152 -0.188264 1.27968e-16)
(-0.00773131 -0.149351 6.36922e-20)
(0.000323273 0.0147844 0)
(-0.00442855 -0.175053 1.27962e-16)
(0.000913618 0.0128408 0)
(-0.00343875 -0.177516 -2.58428e-16)
(0.0001928 0.0108653 0)
(-0.0129328 -0.0932892 0)
(-0.00578011 -0.161533 -7.46482e-21)
(-0.00253954 -0.08597 -1.3946e-16)
(-0.00222797 -0.0862613 0)
(-0.0147024 -0.11472 -2.67935e-16)
(-0.00297728 -0.0862452 -1.39429e-16)
(-0.000759305 -0.076924 0)
(-0.00506406 -0.152243 1.28893e-19)
(0.00772366 -0.0132478 0)
(-0.0117661 -0.0628372 -1.42024e-16)
(-0.00181964 -0.0834052 0)
(-0.00315387 -0.0873865 -1.39304e-16)
(0.00120988 -0.000375879 0)
(-0.00260108 -0.0824547 0)
(-0.0019035 0.0338856 -1.46893e-16)
(-0.0108275 -0.133415 0)
(0.0371987 -0.00889599 -3.90615e-16)
(-0.00309621 -0.0890614 -1.39127e-16)
(0.0346814 -0.0237624 0)
(-0.00311828 -0.0825577 0)
(-0.000610425 -0.0562785 1.44782e-22)
(-0.0194417 -0.077128 -1.38333e-16)
(-0.0104464 -0.113613 1.36104e-16)
(-0.00189191 -0.0868605 1.39519e-16)
(-0.00370678 -0.0540944 3.42982e-22)
(-0.00560282 0.00396688 -1.49901e-16)
(-0.00642402 0.0167213 1.49273e-16)
(-0.0029532 -0.0909583 0)
(-0.00332785 -0.0834103 0)
(-0.0126114 -0.0544855 2.84049e-16)
(-0.0135917 -0.0756732 1.35366e-19)
(-0.0181446 -0.0951001 0)
(-0.0175093 -0.0631346 1.40368e-16)
(-0.00648175 -0.0513372 -2.86207e-16)
(-0.00793144 -0.0557359 -4.15935e-22)
(0.00109689 -0.0599845 1.43099e-16)
(-0.00553334 -0.0549207 0)
(0.00148084 -0.0565759 2.02313e-22)
(-0.00328419 -0.0846994 0)
(0.00198484 0.0106614 1.49001e-16)
(0.0019951 -0.0673881 -3.49856e-22)
(-0.00286679 -0.0928855 0)
(-0.00143795 -0.0527262 2.89534e-22)
(-0.00576704 -0.048471 -2.89844e-16)
(0.000264036 0.0116377 0)
(0.00162159 0.0171679 0)
(0.0255951 -0.0339749 -1.4687e-16)
(-0.00171522 0.0308789 0)
(0.000275993 0.0108384 0)
(0.0334623 -0.0155639 1.52972e-16)
(0.00702277 -0.0550265 -2.86197e-16)
(0.016091 -0.049534 0)
(0.00185714 -0.0638476 1.42373e-16)
(0.00203494 -0.0221327 0)
(0.00181292 -0.0117788 0)
(-0.00612804 -0.0462613 1.44439e-16)
(-0.00316231 -0.0861434 0)
(0.00182454 -0.0236387 0)
(-0.00287294 0.0270968 0)
(-0.0015793 -0.0877385 0)
(-0.00223155 -0.0827849 1.39777e-16)
(-0.00232088 -0.0882106 -1.46107e-16)
(-0.00279156 -0.0859789 0)
(0.00276596 -0.0609013 -3.47606e-20)
(0.00306957 -0.0649005 -3.42554e-22)
(-0.00310034 -0.0867293 0)
(-0.00289662 -0.0823932 1.39428e-16)
(-0.00314346 0.0436475 -1.45595e-16)
(0.00868232 -0.00308476 0)
(0.00181906 -0.0703956 -3.62942e-22)
(0.000588628 0.0168536 0)
(-0.00314939 -0.0881779 0)
(-0.00326081 -0.0829116 1.39303e-16)
(-0.00242096 -0.0703546 1.41185e-16)
(-0.00295443 -0.0890784 0)
(-0.00290722 -0.0465007 -2.87192e-19)
(0.00069122 0.0285162 0)
(-0.00282141 -0.0958189 0)
(-0.00243294 -0.0917328 -1.38405e-16)
(-0.00332814 -0.0840206 1.39126e-16)
(-0.00309564 -0.0876226 0)
(-0.010699 -0.0564055 0)
(-0.00302493 -0.0899995 0)
(-0.00283535 -0.094834 0)
(0.00120726 -0.0747338 -2.91769e-22)
(-0.00257927 -0.0928179 -1.38233e-16)
(-0.00487852 -0.0404256 0)
(0.00286535 -0.068275 3.41824e-20)
(-0.00256747 -0.0947789 -1.37966e-16)
(-0.0032207 -0.0854164 0)
(-0.00102068 -0.0837018 0)
(-0.00546334 0.017741 0)
(0.0242578 -0.0394445 1.45156e-16)
(-0.0079831 -0.0609118 0)
(-0.00188764 -0.0486313 -3.00717e-16)
(0.00399207 0.0169419 0)
(-0.00233339 -0.0345927 1.47462e-16)
(-0.00242101 -0.0972578 -1.37648e-16)
(0.00251061 -0.0793209 0)
(-0.00290138 -0.0919214 0)
(0.00194929 -0.0935275 0)
(-0.00280049 -0.0797373 0)
(-0.00308283 -0.0883836 0)
(0.00641191 -0.160815 -1.30199e-16)
(0.00152392 -0.0728304 -3.39505e-22)
(0.00111228 -0.177538 1.25874e-19)
(-0.0027486 -0.0348508 0)
(-0.00226921 -0.0999223 5.40203e-22)
(0.00153002 -0.0747581 -2.81445e-16)
(0.00203816 -0.0923799 0)
(-0.0049597 -0.19699 0)
(0.000945242 -0.0175798 1.49316e-16)
(-0.00274301 -0.0978347 0)
(0.00197986 -0.0731361 3.4084e-20)
(0.00244953 -0.0710025 -1.75868e-20)
(0.00379011 -0.0352457 -4.52877e-22)
(-0.0021932 -0.102573 5.79816e-22)
(-0.00243198 -0.0467876 -1.47254e-16)
(0.00201496 0.046007 0)
(0.000590676 0.0160657 0)
(-0.00382453 -0.200803 0)
(0.000908783 -0.0761671 2.25649e-22)
(0.00028258 -0.194918 0)
(0.00487743 -0.142212 0)
(-0.00311991 -0.0868762 0)
(0.00268147 -0.0758344 0)
(-0.000293678 0.0160724 0)
(0.00259799 0.0218155 0)
(-0.00172211 0.0259741 -1.55565e-16)
(0.00235906 -0.0807778 0)
(0.0047397 -0.176501 -1.2613e-19)
(0.000652956 -0.0772076 1.40334e-16)
(0.00178712 -0.0958025 0)
(0.00375968 0.0421163 0)
(-0.00154901 0.0305553 1.47332e-16)
(-0.00203463 -0.0270606 0)
(-0.00312254 -0.0645471 1.44096e-16)
(-0.00306326 -0.0899767 0)
(0.00599039 0.00477151 0)
(0.000466261 -0.00831864 -1.48657e-16)
(-0.00125652 -0.0739486 0)
(-0.00219323 0.0253529 0)
(0.00139236 0.0226001 0)
(0.00225889 -0.074568 0)
(-0.00139704 0.0275523 0)
(-0.00284767 -0.0938595 0)
(-0.00214846 -0.106436 6.42839e-22)
(-0.00262053 -0.0998268 0)
(0.00212577 -0.0876884 0)
(0.00579645 0.0183965 0)
(-0.00336519 -0.092621 0)
(-0.00116063 -0.0162318 0)
(-0.0024588 -0.0804156 1.40912e-16)
(0.00253969 0.0123387 0)
(-0.00209335 -0.0992869 0)
(-0.00864395 -0.0502637 -1.45385e-16)
(0.00163524 -0.0980856 0)
(-0.000707815 -0.014128 -9.11119e-18)
(-0.0042096 -0.0384173 0)
(0.00206894 0.0192457 0)
(-0.00160542 -0.11831 8.20131e-22)
(-0.00381154 -0.0928827 0)
(0.00172543 -0.0971297 0)
(-0.000576108 0.0254704 0)
(0.00197307 -0.0602372 1.43037e-16)
(-0.00473955 -0.0650178 1.42407e-16)
(-0.00749856 -0.047968 0)
(0.000427107 -0.027669 0)
(0.00223131 -0.0823295 0)
(-0.00135984 0.0290815 0)
(-0.00162481 -0.023125 0)
(0.00161597 0.0244862 0)
(0.00112833 -0.0759471 1.9279e-22)
(-0.000793105 0.023732 0)
(0.0016771 0.0255797 0)
(0.000176826 -0.00719608 -1.49208e-16)
(-0.0020016 -0.0922843 1.38405e-16)
(0.00276156 -0.00777853 0)
(0.00136069 -0.0735948 0)
(0.000202618 -0.013241 1.59323e-16)
(-0.000523857 -0.00722681 1.5278e-16)
(0.000293601 -0.0784034 -1.40464e-16)
(-0.000173668 -0.00438537 0)
(0.00150405 -0.0440492 0)
(-1.67972e-05 0.000353256 0)
(0.000104538 -0.00661535 -3.83673e-23)
(-0.00151037 -0.0723289 0)
(0.00188202 0.0290905 0)
(-0.00650079 -0.0600806 0)
(0.00531935 -0.00313614 0)
(2.08212e-05 -0.0258207 -1.20284e-22)
(-0.00341877 -0.034801 0)
(-0.00208534 -0.108926 6.78526e-22)
(4.04478e-05 -0.0500654 0)
(-0.00277288 -0.0697216 -1.40718e-16)
(0.00174572 -0.0854021 0)
(-0.00159441 -0.121981 -2.70259e-16)
(0.0008127 0.018307 0)
(-0.000111412 -0.00266429 0)
(-0.00101536 -0.0691322 -1.41856e-16)
(0.00149314 -0.00308535 9.61174e-18)
(0.000602548 -0.0157561 -1.50128e-16)
(0.00029686 0.000887743 0)
(0.000730795 0.0182696 0)
(-0.00595443 -0.0437719 0)
(-0.00297576 -0.0916622 0)
(0.0057551 0.034802 0)
(0.00156004 -0.0997471 0)
(-0.00683819 -0.067447 0)
(-0.000959498 0.0283015 0)
(-0.00252509 -0.101712 0)
(0.000664457 -0.00048397 2.42528e-22)
(0.000203491 -0.0309626 0)
(-0.00132082 -0.0234457 0)
(0.000526393 -0.00139999 0)
(0.000150825 -0.0067771 0)
(0.00188929 -0.0849391 0)
(0.000448864 -0.0779257 4.21749e-16)
(-0.000106739 -0.0316626 1.52895e-16)
(-0.00200068 -0.111285 6.98823e-22)
(0.00795482 -0.0546005 0)
(-0.000110137 -0.042053 -1.47372e-16)
(-0.00239564 -0.098335 0)
(0.000799512 -0.0767807 -1.40594e-16)
(0.0013382 -0.0207355 0)
(0.000252639 0.0124214 0)
(0.0119833 0.0361542 0)
(0.000285405 -0.00753997 1.49139e-16)
(0.00229268 -0.00654186 -3.56338e-17)
(-6.55281e-05 -0.0731767 0)
(-0.00190559 -0.0735712 1.41205e-16)
(0.000455675 0.0142361 0)
(0.00760531 0.0234467 0)
(0.00702562 -0.131435 1.35395e-21)
(0.00123797 -0.101589 0)
(-0.0021046 -0.0648764 -1.04176e-21)
(0.004938 -0.135818 0)
(0.00122151 -0.0308785 0)
(0.00315386 0.0249365 0)
(0.00182591 -0.0944356 0)
(0.000148783 0.00495727 0)
(-0.00307667 -0.0891638 0)
(-0.00123465 -0.047618 2.84376e-19)
(-0.00352715 -0.062163 0)
(0.000271541 0.00844345 0)
(0.00128123 0.0154817 -1.49254e-16)
(-0.00131612 -0.0463267 -4.57555e-18)
(-0.000184994 0.0170563 0)
(-0.00278978 -0.0968275 0)
(-0.00197339 -0.113421 7.08295e-22)
(0.0321889 -0.0380376 6.88913e-20)
(-0.00466902 -0.0599492 -2.79509e-19)
(0.000157023 -0.0681851 0)
(0.000240759 -0.000534903 0)
(0.00140949 -0.102301 0)
(-0.0002751 -0.0462182 4.67061e-18)
(0.0222706 0.0196689 -1.49216e-16)
(0.000968092 -0.0834033 0)
(-0.00040722 -0.0330621 -1.4291e-16)
(-0.000329458 -0.0312835 0)
(-0.00216903 -0.00907927 1.47993e-16)
(0.00714448 -0.0567206 0)
(-0.00204392 -0.106236 0)
(-0.00258473 -0.0617409 0)
(-0.000817769 -0.0143542 -1.40749e-16)
(0.000299382 -0.0502341 0)
(-0.00106094 -0.126606 0)
(0.000270754 0.00617999 0)
(0.000538616 -0.077342 -1.40492e-16)
(-0.000710096 -0.0482661 1.455e-16)
(9.74757e-05 -0.0670188 0)
(0.00670876 -0.0446216 0)
(0.000138636 0.00664913 0)
(0.00140756 -0.100408 0)
(0.0181564 0.0331531 0)
(-0.00284729 -0.0933581 0)
(-0.00251934 -0.1034 0)
(0.003143 -0.0375941 0)
(-0.0348287 -0.0136356 0)
(0.00874443 -0.0536928 0)
(0.000502191 -0.00239023 0)
(0.00133323 0.0107256 0)
(-0.0300353 -0.0113237 0)
(-0.00301472 -0.0126842 0)
(-0.00663191 0.00474736 0)
(0.000121909 -0.013464 0)
(0.0113208 -0.131808 1.32663e-16)
(-0.00237836 -0.0584339 0)
(-0.000921241 0.0260829 0)
(-0.0256357 -0.036818 0)
(-0.00205726 0.0224864 0)
(0.000110944 -0.0791893 0)
(0.000141302 0.00972673 0)
(0.00171255 -0.0917163 0)
(0.0120532 0.0142763 0)
(0.000141455 0.00885812 0)
(-0.00149104 -0.0322481 -1.39951e-16)
(-0.00270182 -0.0183555 1.52606e-16)
(0.00492203 -0.0156797 0)
(-0.000127869 -0.0258863 0)
(-0.00257195 -0.0312582 -9.56383e-18)
(0.00574182 -0.0495143 2.89071e-16)
(0.00124783 -0.104823 0)
(-9.4775e-05 -0.0159977 0)
(0.000133603 0.00579342 0)
(0.00388735 0.00812678 0)
(0.00229341 -0.0180342 -2.25791e-16)
(-0.00316554 -0.0826145 0)
(-0.00243772 -0.0318095 0)
(-0.0039945 -0.0151235 0)
(0.000244847 0.00291782 0)
(0.000409189 0.0027439 0)
(0.00332937 -0.0556651 1.42836e-16)
(0.0338586 -0.00183822 2.48738e-16)
(0.00867765 -0.0560375 0)
(-0.000592945 -0.00959019 3.7015e-22)
(0.000492935 0.000661124 0)
(-0.00132577 -0.00766726 0)
(-0.00787366 -0.0542986 -1.40645e-16)
(0.0155552 0.0235658 1.45625e-19)
(-0.00303045 -0.0227413 0)
(0.000635828 0.0300601 0)
(-0.00205492 -0.115254 7.24134e-22)
(0.0199538 0.0116929 0)
(-8.37505e-05 -0.0415649 2.5292e-16)
(0.00108926 0.0201908 0)
(-0.000411707 0.0120705 0)
(-0.002685 -0.0988387 0)
(0.0001138 -0.00228586 0)
(-0.00302607 -0.0908126 0)
(0.023499 0.0035845 8.94987e-18)
(0.0122301 -0.0329566 0)
(-0.017609 -0.0118079 0)
(5.79171e-05 -0.0309339 0)
(0.000266754 0.00692925 0)
(-0.00880249 -0.0500628 2.91235e-16)
(0.000916166 0.0259917 0)
(0.000802525 -0.103976 0)
(-0.00723616 -0.0492845 -2.26655e-18)
(0.0025996 -0.0786113 0)
(0.00849899 -0.00804654 0)
(0.00149071 -0.0869346 0)
(5.76271e-06 0.0312564 0)
(0.011151 -0.138771 -2.72605e-21)
(-0.00410127 -0.00431176 0)
(0.000271155 -0.00486969 0)
(0.00365098 0.0285951 0)
(-0.000700449 0.0267444 0)
(0.0116959 -0.0534112 0)
(0.000104306 -0.0106747 1.49293e-16)
(0.000454586 0.00172208 0)
(0.000340776 0.0127915 0)
(-0.00213166 -0.0176234 0)
(0.000131798 -0.0469897 0)
(-0.00216384 -0.105163 6.21422e-22)
(0.0176249 0.00667518 0)
(-0.00131546 -0.0196103 0)
(0.00086552 0.00597697 0)
(0.000265644 0.0022798 0)
(-0.000180446 -0.028973 0)
(-0.000229092 0.0180087 0)
(-0.000244323 -0.0820419 0)
(0.000952787 -0.0655716 -1.41893e-16)
(-0.00422546 0.0389967 1.45092e-16)
(0.000282863 0.0100317 0)
(-0.000725988 0.0130883 0)
(0.000160769 -0.0732996 1.39442e-16)
(0.00532714 -0.0170801 0)
(0.00247654 -0.039006 0)
(-0.0039453 -0.047901 0)
(-0.0030649 -0.0353391 0)
(0.000322002 -0.075472 0)
(-0.00410854 -0.0946153 0)
(-0.00235568 -0.0471863 0)
(0.0047405 -0.137257 0)
(0.000319821 0.00458949 0)
(-0.00265333 -0.0372555 0)
(0.00730013 -0.0917479 0)
(0.000362048 0.00370303 0)
(0.000434783 -0.0732242 0)
(0.00538601 -0.0513593 0)
(0.00630445 -0.126902 -2.67451e-16)
(0.00396556 -0.0685515 0)
(-0.0365709 -0.0233725 0)
(0.000250346 0.0131912 0)
(-0.000842133 -0.0176185 1.49172e-16)
(0.000472465 -0.0685245 1.39733e-16)
(-0.0025232 -0.0739296 0)
(-0.00335998 -0.0330507 0)
(0.00279881 -0.0711044 0)
(0.0143005 -0.0127275 -2.89973e-16)
(-0.00194667 -0.117536 2.7026e-16)
(-0.000496934 -0.0622236 -1.44304e-16)
(-0.000124973 -0.0305599 0)
(0.00127784 -0.0891058 0)
(0.00203874 -0.0840241 0)
(-0.00731703 -0.0549028 2.2121e-18)
(0.00262695 -0.0333075 0)
(0.000219671 0.00350408 0)
(0.00802051 0.0443629 -1.44613e-16)
(-0.0317958 -0.0326858 0)
(0.00271147 -0.0715349 0)
(0.000650378 -0.0592165 0)
(-0.0262887 -0.0242569 0)
(0.00883774 -0.0532534 0)
(0.00142931 -0.0540714 0)
(-0.00198834 -0.081259 -1.4095e-16)
(0.000851188 0.0207677 0)
(0.00064686 -0.0657673 -1.39989e-16)
(-0.00266505 -0.0035192 0)
(-0.00183079 -0.121206 -2.70415e-16)
(0.000150433 0.0075506 0)
(0.00158424 0.00924979 0)
(-0.0073478 -0.0519915 0)
(0.00595553 -0.0820941 0)
(0.0121351 -0.0529204 0)
(-0.000179755 -0.0629123 -2.83913e-22)
(-0.000615042 -0.0698234 0)
(-0.00151676 -0.0736768 6.89356e-20)
(0.00673674 -0.115496 0)
(-0.0023341 -0.026053 1.41846e-16)
(-0.0032121 -0.0465525 0)
(-0.00297825 -0.079207 0)
(-0.00527083 -0.0307296 0)
(-0.0002928 0.0477871 0)
(-0.00178437 -0.107934 -2.73613e-16)
(0.0130559 0.0409132 -1.41324e-19)
(-0.00301519 -0.0692721 0)
(-0.00225222 -0.0284935 0)
(-0.00177729 -0.10932 6.34817e-22)
(9.31421e-05 -0.00709307 0)
(0.00385803 -0.0586621 -1.42854e-16)
(-0.00249638 -0.104848 0)
(0.000308782 -0.0146303 -3.66944e-20)
(-0.0140234 -0.0281896 0)
(-0.00259709 -0.0248352 0)
(-0.00291227 -0.092515 0)
(-0.000363121 -0.0474616 0)
(-0.00194676 -0.0711845 0)
(-0.000517249 -0.127748 0)
(-0.0366266 -0.0266836 0)
(0.00356021 -0.0647784 1.43132e-16)
(-0.00395404 -0.0589172 -4.36914e-21)
(0.00198497 -0.0651331 0)
(-0.00262017 -0.0976918 0)
(0.00861279 -0.0104171 0)
(-0.00177159 -0.0817197 1.39599e-16)
(0.00185835 -0.0126417 0)
(0.000138054 0.00928148 0)
(0.010631 -0.0545745 0)
(-0.00180959 -0.105089 -2.74283e-16)
(-0.000406766 -0.0724485 0)
(-0.0324452 -0.0230022 0)
(0.0066434 -0.109077 0)
(-0.0118626 -0.0534901 0)
(0.000241362 -0.074232 0)
(0.000288328 0.00540888 0)
(-0.00798464 -0.0191321 -1.45582e-16)
(-0.00238408 -0.0307262 1.44625e-16)
(0.00685673 -0.0571808 0)
(-0.00190347 -0.102158 -2.74961e-16)
(0.00295106 -0.0708495 -3.44914e-20)
(-0.00383506 -0.083154 1.38438e-16)
(0.0120691 -0.053168 0)
(-7.54237e-05 -0.0783866 -1.40572e-16)
(0.011105 -0.0517036 0)
(0.000282671 0.00922832 0)
(2.58875e-06 -0.0801315 0)
(0.00139925 -0.0377621 -2.92845e-16)
(-0.011593 -0.0534629 0)
(0.0105636 -0.1509 -5.10332e-19)
(0.000347587 -0.0777036 0)
(0.000990938 -0.0622342 0)
(0.00989188 -0.0540154 0)
(0.000269167 0.0139652 0)
(-0.000974507 -0.0272125 0)
(0.000167971 0.00451531 0)
(0.000280748 0.00160035 0)
(-0.000741874 -0.0156866 -1.4774e-16)
(-0.00643491 -0.0571115 0)
(-0.00146828 -0.0634156 0)
(-0.00258242 0.0134437 0)
(-0.00441556 -0.0886947 -1.38408e-16)
(-0.019811 -0.0262787 0)
(-0.00140896 -0.0282297 -9.39275e-18)
(-0.00293166 -0.05581 -2.65097e-16)
(-0.00208873 -0.116803 2.70417e-16)
(-0.00299561 -0.0352249 1.47075e-16)
(-0.000789549 -0.0465642 0)
(-0.00173814 -0.112007 -2.72651e-16)
(-0.0101591 -0.0528482 0)
(-0.00275086 -0.0223499 0)
(-0.00923401 -0.0296668 -1.47163e-16)
(-0.00240893 -0.03288 0)
(0.00728915 -0.0353977 0)
(-0.00275383 -0.0949694 0)
(-0.0018266 -0.0315589 0)
(-0.0362836 -0.0190044 0)
(-0.00369784 -0.0505434 0)
(0.00105336 -0.0545201 0)
(-0.0014226 -0.0997606 -1.3709e-16)
(0.00287544 -0.069864 0)
(-0.00316644 -0.0465659 0)
(-0.0238383 -0.0109557 0)
(0.0114871 -0.041073 0)
(0.000183308 -0.0787083 -1.71393e-20)
(-7.73155e-05 -0.0319496 0)
(-0.00510133 -0.199921 4.9284e-19)
(0.00629983 -0.180795 0)
(0.00113839 -0.0294015 -3.11059e-16)
(-0.000163044 -0.195908 0)
(0.00255605 -0.0724445 0)
(-0.00256443 -0.100789 0)
(0.0263396 0.00932054 1.54915e-16)
(-0.00246658 -0.0435631 0)
(-0.00209541 -0.0992303 -1.37811e-16)
(-0.00176118 -0.118806 -2.71012e-16)
(-0.00230085 -0.0916177 -8.17184e-23)
(-4.83943e-05 -0.0553135 1.45076e-16)
(-0.00358995 -0.095091 -4.20244e-16)
(-0.00423509 -0.0573592 0)
(0.00218576 -0.0753399 0)
(-0.00270764 -0.010692 -1.47409e-16)
(-0.0120422 -0.0281351 0)
(-0.000995415 -0.126798 0)
(0.00230101 -0.0746643 0)
(0.000152673 -0.173334 1.29385e-16)
(-0.00188572 -0.120451 -2.70593e-16)
(-0.00257446 -0.014041 0)
(0.0025369 -0.069113 1.41015e-16)
(0.0288352 -0.015744 0)
(0.000420463 -0.0451495 0)
(-0.00318288 -0.0476953 0)
(-0.0050376 -0.188777 0)
(0.00171875 -0.0685393 1.41182e-16)
(-0.00587701 -0.0312346 2.93034e-16)
(-0.00229414 -0.0965539 -1.38108e-16)
(-0.000259477 -0.0648203 0)
(-0.000265787 -0.0300343 0)
(0.000343707 -0.0735521 0)
(-0.0109657 -0.0539922 0)
(-0.00117473 -0.125935 0)
(-0.00208998 -0.0348695 0)
(-0.00444185 -0.0739266 0)
(-0.00142487 -0.0822897 0)
(0.00270662 -0.0590542 -1.42867e-16)
(-0.00289558 -0.020114 1.46129e-16)
(0.00275728 0.0177461 0)
(-0.00167375 -0.11454 -2.72054e-16)
(0.00113392 -0.106078 0)
(-0.0077446 -0.0140784 0)
(0.000192774 0.00403499 0)
(-0.0016576 -0.116835 -2.71504e-16)
(0.00177635 -0.0693152 0)
(-0.0232283 -0.0403221 -1.43598e-16)
(-0.00390727 -0.0322536 -2.85843e-16)
(9.92921e-05 -0.004851 0)
(-0.0129402 -0.0379382 0)
(0.0136902 -0.038984 -1.4432e-16)
(0.0050665 -0.156369 0)
(0.00244393 -0.0734697 0)
(0.00178501 -0.0592747 0)
(0.0125204 -0.115591 0)
(-0.00779097 -0.0528363 0)
(0.00322866 0.0143959 0)
(0.011063 -0.107874 0)
(0.000338047 -0.128905 1.34143e-16)
(0.00027827 -0.0751335 0)
(0.00432961 -0.07036 -7.00735e-20)
(0.00626059 -0.0487504 -1.43963e-16)
(-0.0163554 -0.0459447 1.43598e-16)
(0.00014726 0.00709828 0)
(-0.0330723 -0.0270559 0)
(-0.00188262 -0.0298196 0)
(-0.00286174 -0.0179645 0)
(-0.0122142 -0.0129577 1.47163e-16)
(-0.0102835 -0.0515795 -1.44096e-16)
(-0.000522733 -0.0618039 0)
(0.00327174 -0.109099 0)
(0.00618687 -0.0550812 0)
(0.0155861 0.023459 0)
(0.00204938 -0.124507 1.3435e-16)
(0.000482509 -0.00326315 0)
(-0.00027845 -0.0746018 2.75564e-19)
(-0.000401169 -0.123939 1.34982e-16)
(0.00225156 -0.0557708 1.42784e-16)
(0.00021327 -0.0779854 1.41087e-16)
(-0.00700311 -0.0478385 0)
(-0.00239295 -0.0944852 -1.38333e-16)
(-4.64195e-05 -0.0789768 0)
(-0.00574748 -0.0479235 0)
(-0.00141033 -0.0363404 0)
(0.000315119 -0.0468547 0)
(0.00287548 -0.0551445 0)
(0.0287371 0.0138592 0)
(-0.000911346 -0.107818 0)
(-0.00147151 -0.0284101 0)
(-0.00136182 -0.125728 0)
(-0.00325104 -0.0584066 0)
(-0.000905731 0.0139144 0)
(0.00606215 -0.0443032 0)
(-0.000257261 -0.079732 0)
(-0.00342704 -0.0583762 -1.44729e-16)