/*--------------------------------*- C++ -*----------------------------------*\
  =========                 |
  \\      /  F ield         | OpenFOAM: The Open Source CFD Toolbox
   \\    /   O peration     | Website:  https://openfoam.org
    \\  /    A nd           | Version:  9
     \\/     M anipulation  |
\*---------------------------------------------------------------------------*/
FoamFile
{
    format      ascii;
    class       volVectorField;
    location    "2";
    object      U;
}
// * * * * * * * * * * * * * * * * * * * * * * * * * * * * * * * * * * * * * //

dimensions      [0 1 -1 0 0 0 0];

internalField   nonuniform List<vector> 
2510
(
(-7.13034e-05 -0.0738056 0)
(2.21295e-05 -0.0779511 -6.39165e-18)
(-6.28125e-06 -0.0719658 0)
(0.00146406 -0.0147591 -4.3406e-17)
(-6.84156e-05 -0.0232765 2.5188e-17)
(-0.00130036 -0.0839359 2.64167e-17)
(-7.91703e-05 -0.0445586 -1.62232e-17)
(-0.00153475 -0.0917828 2.74808e-17)
(0.000404199 -0.0379845 9.26389e-19)
(-0.0014382 -0.0798088 2.53138e-17)
(0.00342172 0.020857 -1.21965e-17)
(-0.00349505 -0.0283774 0)
(6.75194e-06 -0.0782107 -7.48917e-18)
(0.00125426 -0.0318688 -1.62791e-17)
(-6.92456e-05 -0.0760759 1.36585e-17)
(-0.00171105 -0.0907681 -9.98192e-18)
(5.22333e-05 -0.0460275 3.31944e-17)
(-0.000486416 -0.00189577 -1.44078e-17)
(-0.000304838 -0.0409987 -9.81699e-18)
(-0.000324145 -0.0446028 1.386e-17)
(0.00103004 -0.0324215 -1.30456e-17)
(-0.000406506 0.0128675 -2.72291e-17)
(-0.00169471 -0.0919777 8.23954e-18)
(6.97563e-05 -0.0390024 -1.41601e-17)
(0.00235584 0.0325609 0)
(-0.00303663 -0.0216632 0)
(0.000346727 -0.0519147 -8.9825e-19)
(-0.00194849 -0.0888656 0)
(-0.000227182 -0.0318055 -2.86706e-17)
(-0.0138914 -0.0524728 -8.75859e-19)
(-0.0121501 -0.0558686 0)
(-0.0124484 -0.0560795 0)
(-0.0020341 -0.0653844 0)
(0.0224856 0.0157045 1.42115e-17)
(0.0098789 0.0404458 -1.23233e-17)
(-0.00642332 0.011777 1.53597e-17)
(-0.00630762 0.0251188 -1.43535e-17)
(-0.00743374 0.00900552 8.68278e-19)
(-0.000267376 0.0182795 0)
(-0.00173493 0.00956534 0)
(-0.000311292 0.0112495 0)
(-0.00223057 -0.0123353 2.75968e-17)
(-0.000482094 0.00202403 5.90434e-23)
(8.92868e-05 -0.0201377 4.60517e-19)
(7.8309e-05 -0.00324169 0)
(1.58626e-06 -0.00626263 0)
(0.000194203 -0.00330179 -1.41422e-17)
(-0.00248863 0.0317868 0)
(-0.000183703 -0.00728396 2.86641e-17)
(-0.00160009 0.0385215 -1.48261e-17)
(-0.000254309 -0.0414823 0)
(0.00469504 0.0351188 1.51231e-17)
(-0.000901086 0.0296677 0)
(-0.00045177 0.0209519 0)
(-0.000297954 0.00839385 -1.52046e-17)
(-0.00292826 -0.0238236 0)
(0.00482587 0.050959 4.00187e-18)
(-0.00113923 -0.00482563 -4.01609e-18)
(-0.00305043 0.0376769 -4.41005e-19)
(-0.00179784 -0.0330134 0)
(-0.00394042 -0.0360081 -1.45998e-17)
(-0.00687699 -0.041603 0)
(-0.000527866 -0.0692072 4.59791e-19)
(0.00394803 -0.0636199 0)
(0.0127808 -0.0400682 -1.45773e-17)
(0.022878 -0.0021951 0)
(-0.00123845 0.0242335 1.45062e-17)
(-0.00106569 0.0208755 -2.20493e-19)
(-0.00115037 0.00991702 0)
(-0.00113624 0.0068377 0)
(-0.00109251 0.00360413 -2.82798e-17)
(-0.00146297 -0.010962 0)
(-0.000970502 -0.0131704 0)
(-0.000246908 -0.0142544 0)
(-0.0014123 -0.0912492 2.08391e-23)
(-0.00325953 0.0249736 -1.77363e-18)
(-0.00148527 -0.076765 -8.306e-18)
(0.00068105 -0.0152517 -2.85708e-17)
(-0.00640159 -0.00483457 -8.95981e-22)
(-0.00739229 0.00127273 -1.40567e-17)
(-4.36668e-05 -0.00684232 0)
(-0.000767797 -0.00907862 0)
(-0.00133278 -0.0128789 0)
(-0.00191916 -0.0197263 0)
(0.000404542 -0.0323 0)
(0.000537053 -0.0332138 0)
(0.00366491 -0.0277346 0)
(0.00549935 -0.00932085 0)
(0.01065 0.0195027 2.77702e-17)
(-1.19754e-05 0.0316484 -1.47095e-17)
(-0.00360647 -0.00914631 2.21289e-19)
(-0.00296034 -0.0114767 1.43162e-17)
(-0.00325844 -0.0138023 -1.4259e-17)
(-0.00327778 -0.0187221 0)
(-0.0031124 -0.0212109 2.17829e-22)
(-0.00305982 -0.0236376 -1.43117e-17)
(-0.00315274 -0.0260597 4.18411e-17)
(-0.000654256 0.00419077 0)
(-0.00340501 -0.0354286 -1.4119e-17)
(-0.00257023 -0.0379928 -1.42504e-17)
(-0.00113021 -0.0399855 -2.87368e-17)
(0.00148039 -0.0387896 0)
(0.00106528 -0.0561328 1.51017e-17)
(-0.000121568 -0.0635509 1.56771e-17)
(0.0045274 0.0511797 1.46144e-17)
(-0.000897209 0.0010512 5.72827e-20)
(-0.000155444 -0.0428069 -9.20049e-18)
(-0.00132734 -0.0896373 -3.05732e-17)
(-0.000151369 -0.014248 -1.42255e-17)
(-0.00225772 -0.00392161 2.81397e-17)
(-0.00439288 0.0419038 0)
(0.00028143 -0.0556208 0)
(-0.000101833 -0.00722959 0)
(8.47607e-05 -0.0563303 1.41696e-17)
(0.000586816 -0.0310992 8.34048e-18)
(-0.000178976 -0.0263204 0)
(0.000944574 -0.0176983 -2.72816e-17)
(-0.00143779 -0.0876052 -1.63575e-17)
(0.000268203 -0.0655112 0)
(7.35579e-05 -0.0289596 7.9933e-24)
(-0.000682604 0.0195548 2.75298e-17)
(0.000181702 -0.0628441 -2.78759e-17)
(0.00446163 0.0321004 1.08873e-17)
(-0.00276122 -0.0196798 3.61317e-18)
(0.000170312 -0.038815 0)
(-0.00332188 0.0448438 -1.32528e-17)
(0.000608817 -0.00318309 2.97884e-23)
(-0.000265155 -0.045718 -1.43047e-17)
(-0.000853436 0.0263183 1.49499e-17)
(0.00135663 0.0234717 -4.26078e-22)
(0.000353311 0.0168005 0)
(-0.000414868 0.01369 0)
(-0.000282954 0.00629942 1.5305e-17)
(-0.00335672 -0.0304546 0)
(-0.00109355 -0.0528369 0)
(-9.76426e-05 -0.077149 1.36545e-17)
(-9.18435e-05 -0.0139703 0)
(-0.000125719 -0.025834 2.68867e-17)
(-0.00256953 -0.0305486 0)
(-0.00469089 -0.036588 0)
(-0.00696759 -0.0464962 -1.38045e-17)
(0.00130631 -0.0653135 0)
(0.00490573 -0.0496676 0)
(0.0145793 -0.017112 0)
(0.016124 0.0173133 -1.38293e-17)
(0.0110467 0.0453621 0)
(-0.000957195 0.0533796 2.13672e-19)
(-0.00196027 0.021719 1.04745e-17)
(-0.00180484 0.0185654 0)
(-0.00176278 0.0150539 -1.41769e-17)
(-0.00135442 0.0070011 0)
(-0.00163018 0.00366779 -1.47217e-17)
(-0.00162966 0.000343099 1.47069e-17)
(-0.00135371 -0.0026437 4.41706e-17)
(-0.00164289 -0.00474475 -2.76652e-17)
(-0.00448881 0.0343321 0)
(-0.00182555 -0.0143557 0)
(-0.00163638 -0.0172186 1.47123e-17)
(-0.000830738 -0.0189612 1.46784e-17)
(-0.00399608 0.0279638 0)
(-0.00057276 0.026577 -1.08045e-17)
(-0.0012414 0.0271147 -1.73325e-17)
(-0.00943933 -0.0513049 -1.39831e-17)
(-0.0121799 -0.0515351 0)
(0.0199537 0.0288517 -3.48441e-18)
(0.0246763 0.0193351 -1.1006e-17)
(-0.00220796 0.0479024 1.42602e-17)
(-0.00439137 0.0265197 0)
(-0.000416544 0.0157019 -1.45945e-17)
(-0.000940112 0.0125108 -1.39062e-17)
(-0.000751199 2.32337e-06 -2.90965e-17)
(-0.00163834 -0.00861169 0)
(0.000186899 -0.00571833 1.45619e-17)
(0.000562459 -0.0132234 0)
(-0.00897635 -0.0606849 1.45175e-17)
(-0.00511002 -0.064805 0)
(0.018672 0.0251988 -1.78361e-18)
(0.015119 0.0387979 1.60876e-17)
(-0.00625418 0.0216676 -1.44805e-17)
(-0.00112585 0.014525 -3.50404e-18)
(-0.000430982 0.0167667 3.67539e-18)
(-0.00159361 -0.0069578 0)
(-0.000850969 0.00142217 1.42783e-17)
(0.000120053 -0.0142874 -5.71332e-20)
(-4.02717e-05 -0.00644773 1.41873e-17)
(-0.00092904 0.0280085 1.78654e-17)
(0.00063603 -0.0524545 -1.46128e-17)
(0.000529336 -0.0559295 1.47393e-17)
(-0.00322421 0.0416408 0)
(-0.000208285 -0.031051 0)
(0.00679411 0.0477925 0)
(0.000149832 0.0505997 0)
(-0.00141314 0.019578 -1.10308e-22)
(-0.0010966 0.00322098 8.95079e-23)
(-0.00236753 -0.0101534 0)
(-0.00428205 0.0308505 1.53579e-17)
(-0.00166084 -0.028407 0)
(-0.00349603 -0.0329336 1.45146e-17)
(-0.00588059 -0.0408611 0)
(0.000627164 -0.0674201 0)
(0.00186956 -0.0599563 1.80977e-18)
(0.0099651 -0.0354656 1.4514e-17)
(0.0167168 0.000667539 0)
(-0.00210291 0.0202157 -1.47177e-17)
(-0.0017182 0.0167325 0)
(-0.00200345 0.00530121 -1.47599e-17)
(-0.00183796 0.00190149 -9.22448e-19)
(-0.0018815 -0.00148406 1.46324e-17)
(-0.00199847 -0.0159309 0)
(-0.0013921 -0.0183282 0)
(-0.000487355 -0.0195126 1.62529e-17)
(-0.00539303 0.00847766 1.46543e-17)
(-0.00564465 0.0106978 -9.25297e-19)
(-0.00575206 0.0143819 0)
(-0.00674736 0.0176854 5.01149e-22)
(9.13659e-06 -0.0131996 0)
(-4.96874e-05 -0.0136422 8.74977e-19)
(-0.00123012 -0.0186702 0)
(-0.00103045 -0.0164019 0)
(-0.00238821 -0.0258711 0)
(-0.00196125 -0.0217583 0)
(-0.00303655 -0.0368547 0)
(-0.00313183 -0.0310274 0)
(0.000572678 -0.0519935 0)
(-0.000148411 -0.0505271 0)
(-0.00075015 -0.0494521 -1.78014e-18)
(0.000129208 -0.0468629 0)
(0.00519541 -0.0301148 0)
(0.00241883 -0.0406689 0)
(0.00808915 -0.000809908 0)
(0.00772158 -0.0157378 0)
(0.0127446 0.0287398 -1.41806e-17)
(0.00812834 0.0309773 0)
(0.000606437 0.0488347 -2.2535e-19)
(0.0015616 0.0480161 1.86532e-18)
(-0.00290072 0.0020137 0)
(-0.00341651 0.00207684 3.71856e-18)
(-0.00230487 -0.000743376 0)
(-0.00272679 0.000669349 -1.44813e-17)
(-0.00273973 -0.00240531 1.44777e-17)
(-0.00302224 -0.00372087 0)
(-0.0027714 -0.00929847 0)
(-0.00279924 -0.0100938 0)
(-0.00262029 -0.0130291 9.0315e-19)
(-0.00268034 -0.0116355 0)
(-0.00254713 -0.0160528 0)
(-0.0026214 -0.0145762 2.89309e-17)
(-0.00267273 -0.0185293 -1.41445e-17)
(-0.0026167 -0.0174867 -2.87044e-17)
(-0.000800505 0.00319303 0)
(-0.000858949 0.00511281 0)
(-0.00302826 -0.0283643 2.96077e-17)
(-0.00287348 -0.0294354 0)
(-0.0024837 -0.0308535 0)
(-0.00195722 -0.0319415 1.44239e-17)
(-0.00131118 -0.0329129 1.44386e-17)
(-0.000581647 -0.0336987 1.27451e-17)
(0.000855566 -0.062902 0)
(0.00126515 -0.0420992 -1.5237e-17)
(0.00138229 -0.0408227 1.2556e-17)
(-0.00167099 0.0288417 -3.59006e-18)
(2.55116e-05 -0.0665113 0)
(-0.00105705 -0.0272801 0)
(0.000281164 -0.0238677 0)
(0.000117761 -0.0290279 0)
(-0.000438085 -0.0147554 -1.45549e-17)
(-0.00165471 -0.0907463 -4.12393e-18)
(-0.00148899 -0.0650478 1.81169e-17)
(-0.00139711 -0.0895869 -3.44835e-17)
(0.000331183 -0.062517 0)
(-0.00128864 -0.0681464 2.31521e-17)
(0.0002109 -0.0625363 0)
(-0.0017605 -0.0791189 1.90522e-17)
(-0.000652062 0.0178796 0)
(-0.000261362 -0.0579634 0)
(0.000549552 -0.0441962 0)
(0.000415415 -0.0249309 -1.52194e-17)
(-0.00153178 0.015412 1.44059e-17)
(9.02936e-05 -0.052083 -1.32178e-17)
(0.00114173 -0.0339206 0)
(0.000425985 -0.0300441 -1.52519e-17)
(-0.000503696 -0.0424913 2.53736e-17)
(0.00175853 -0.0450918 1.54602e-17)
(0.000862342 -0.0116488 2.82068e-17)
(-0.000506432 -0.0322585 -1.44866e-17)
(0.000985607 -0.0177117 -2.17561e-23)
(-0.000265936 0.0161637 0)
(-0.000199885 0.0149089 2.94093e-17)
(-0.000322577 0.010008 9.04641e-23)
(-0.000298285 0.00876295 0)
(-0.000349145 0.00747694 0)
(-0.000450124 0.000378824 1.48634e-17)
(-0.000264337 -0.00149139 0)
(-0.000111078 -0.00264114 -1.48578e-17)
(0.0348362 0.0035418 0)
(0.0316557 -0.022251 -1.47134e-17)
(0.0147508 -0.0506841 1.46871e-17)
(0.000942075 -0.0613953 1.46525e-17)
(-0.00994946 -0.0488541 0)
(-0.00573704 -0.0475342 -1.47048e-17)
(-0.00280597 -0.0469852 7.16248e-21)
(-0.000650852 0.022479 0)
(0.000654745 -0.0399947 0)
(-0.0010054 -0.0467617 1.5249e-17)
(0.000287477 -0.0392608 0)
(-0.000349323 0.0188275 -1.47579e-17)
(-0.00121275 0.029915 0)
(0.000190073 -0.0555682 -1.46662e-17)
(-0.00468537 0.037961 1.44626e-17)
(-2.40434e-05 -0.0248271 0)
(0.000783697 0.0544417 -1.82696e-18)
(0.00732475 0.0488132 0)
(-0.00231083 0.0128912 1.46772e-17)
(-0.00185701 -0.00387145 -1.46559e-17)
(-0.00176621 -0.00245153 0)
(0.000302278 -0.00223777 3.02431e-17)
(0.000430351 -0.00480385 -1.4466e-17)
(-0.00277152 -0.0346312 -9.17729e-19)
(-0.00532847 -0.0387096 4.58517e-19)
(-0.00865478 -0.0462099 1.45192e-17)
(0.00249944 -0.0687488 -8.98974e-19)
(0.0234574 0.0167357 1.45435e-17)
(0.0193798 -0.0212656 4.58614e-19)
(0.00728372 -0.0543566 0)
(-0.00286965 0.0347922 -1.44888e-17)
(-0.00134642 0.02658 -1.43666e-17)
(-0.00114494 0.0228556 2.32179e-19)
(-0.00112391 0.0122083 1.49064e-17)
(-0.00115699 0.0087199 1.49276e-17)
(-0.00120983 0.00575351 -2.97775e-17)
(-0.00127929 -0.00875032 0)
(-0.00114668 -0.0118462 -1.49153e-17)
(-0.00052441 -0.013337 -2.97508e-17)
(-0.000536135 0.0252759 1.44799e-17)
(-0.000504221 0.0240263 -1.48177e-17)
(-0.000298889 0.0219642 -1.43649e-17)
(-0.000388862 0.0229382 -1.49526e-17)
(-0.000323275 0.0148404 2.99322e-17)
(-0.000489046 0.013695 -2.96723e-17)
(-0.000456901 0.0115282 -1.48052e-17)
(-0.000388956 0.0126326 1.48036e-17)
(-0.000414887 0.0104635 1.47394e-17)
(-0.000491978 0.0092933 1.46099e-17)
(-0.000657589 -0.0012086 1.49856e-17)
(-0.00078275 -0.00262061 -2.97064e-17)
(-0.000610986 -0.0039167 1.48178e-17)
(-0.000567153 -0.00496073 -1.48168e-17)
(-0.000326141 -0.005644 2.98151e-17)
(-0.000300639 -0.00623521 -1.44889e-17)
(0.0304525 0.0111504 0)
(0.032694 -0.00123546 -1.4839e-17)
(0.0303396 -0.0165079 1.4375e-17)
(0.023815 -0.0327379 4.6314e-19)
(0.00845041 -0.058287 -1.47927e-17)
(0.0153806 -0.0475998 1.4806e-17)
(-0.00274142 -0.0640224 1.41755e-17)
(0.00329987 -0.0637296 -1.38122e-17)
(-0.00835625 -0.0464586 -1.48137e-17)
(-0.0105382 -0.0485156 0)
(-0.00641256 -0.0450131 1.43485e-17)
(-0.00472463 -0.044022 4.62951e-19)
(-0.00216807 -0.0428223 0)
(-0.00331776 -0.0433169 -1.38771e-17)
(-0.00144112 0.0325959 1.46728e-17)
(-0.00148229 0.0355045 1.49943e-17)
(-0.000185452 -0.00885527 4.84051e-17)
(-0.00066195 -0.0422151 0)
(-0.00127062 -0.0425674 -2.99006e-17)
(0.000754212 -0.0164488 -1.89058e-18)
(0.00122169 -0.0404932 -1.50494e-17)
(0.000183902 -0.0516463 2.91556e-17)
(-0.000170458 -0.0306868 -3.12496e-18)
(0.000158732 -0.0431919 1.50606e-17)
(-0.000180006 0.000530763 -1.56764e-17)
(-0.00129996 -0.00386429 0)
(-0.000664614 -0.000894055 0)
(-0.000459955 -0.00191842 0)
(-0.000684887 -0.00462559 1.26784e-17)
(-0.00166006 -0.00645131 2.99555e-20)
(-0.000468283 -0.00106567 0)
(-0.00134231 -0.0116682 0)
(-0.00059652 -0.00871367 0)
(0.00041039 0.000655274 9.62608e-19)
(-7.58145e-05 -0.00958377 0)
(-0.000666458 -0.0130742 0)
(-2.87089e-05 -0.0140282 0)
(0.000353303 -0.00998289 0)
(0.000490629 -0.0145292 0)
(-0.000233916 -0.00138778 -1.52752e-17)
(0.000678088 -0.00995038 0)
(0.0026448 -0.0167474 0)
(0.00175422 -0.00359908 0)
(0.0008881 -0.0145922 0)
(-0.000791089 -0.00230977 -1.53369e-17)
(0.000912897 -0.00953549 0)
(0.00108267 -0.00879437 0)
(0.00119487 -0.0142562 0)
(0.0012484 -0.000318865 0)
(0.00119422 -0.00777447 0)
(0.00143111 -0.0135678 0)
(-0.000616084 -0.00230896 0)
(0.00160844 -0.0125788 0)
(0.00126532 -0.00653023 0)
(0.00173861 -0.0113524 0)
(0.00130798 -0.00510883 0)
(0.00264218 -0.00553177 0)
(0.00181733 -0.00994947 0)
(0.00170354 0.00820015 0)
(0.00131664 -0.00356603 0)
(0.00184614 -0.00843094 0)
(0.00129406 -0.00195482 0)
(0.00110013 0.010527 0)
(-7.00635e-05 0.000413953 0)
(0.00312233 -0.0246734 0)
(-0.000914294 -0.00525283 1.53684e-17)
(0.000267117 0.0207498 0)
(0.00167036 -0.000319852 0)
(0.00108624 0.00595348 0)
(0.000926047 0.0213532 0)
(0.00165316 0.00136556 0)
(0.00107683 0.00745597 0)
(0.00114567 0.0029093 0)
(0.00165234 0.00306145 0)
(0.00108318 0.00897779 0)
(0.00110966 0.00444951 0)
(-0.000253964 -0.00262312 1.27874e-17)
(0.00183208 -0.00684536 0)
(0.00309595 -0.014867 0)
(0.00171044 -0.00198023 0)
(0.00113234 0.013701 0)
(0.00113171 0.0153017 0)
(0.00170986 0.00992245 0)
(0.000148385 0.0142554 0)
(0.00169354 0.0116333 0)
(0.00111113 0.0168881 0)
(-0.000159826 0.000643313 0)
(-0.000431846 0.000154343 0)
(0.00106821 0.0184393 0)
(0.00164976 0.0133171 0)
(0.00157845 0.0149573 0)
(-0.000379096 -0.00359584 0)
(0.0016648 0.00476554 0)
(0.00100453 0.0199342 0)
(0.000175743 0.0138264 0)
(0.00148404 0.0165375 0)
(0.00664956 -0.0715569 1.51748e-17)
(0.00221038 -0.024528 0)
(0.00185515 0.0311701 0)
(0.003174 0.0283649 0)
(0.00264192 -0.107703 0)
(0.00185849 -0.099899 0)
(0.00244411 0.0336163 0)
(0.000297817 0.00669555 1.53148e-17)
(0.0040095 0.0308456 0)
(0.00407057 -0.0683982 0)
(-0.00201652 -0.109514 1.51515e-17)
(0.00319686 -0.00239428 0)
(0.0030769 0.0366534 0)
(-0.0072199 -0.0699722 0)
(-0.0019083 -0.132814 3.02592e-17)
(-0.0023025 -0.105686 0)
(-0.00242906 -0.101723 -1.51583e-17)
(-0.00147902 -0.124502 -1.51276e-17)
(-0.00245455 -0.103027 0)
(-0.00263477 -0.0992701 0)
(0.00179268 -0.00522728 0)
(-0.00271163 -0.0980169 0)
(-0.00260078 -0.100437 0)
(0.00478073 0.033905 0)
(-0.00431141 -0.126496 1.84786e-21)
(-0.0128027 -0.078882 0)
(0.000839287 -0.123553 6.86057e-23)
(-0.00276534 -0.0979055 0)
(0.000400577 0.00922371 0)
(0.00297602 -0.080759 0)
(-0.00284797 -0.0955879 2.9605e-20)
(0.00403495 -0.0667433 0)
(0.00859954 -0.182435 6.57716e-22)
(0.00132095 -0.107835 0)
(0.00348068 -0.0994827 0)
(0.0024254 0.0263789 0)
(-0.00298603 -0.0954212 -1.51699e-17)
(0.00389688 -0.0691929 0)
(0.00714276 0.0194891 0)
(0.00765737 -0.195488 4.63778e-22)
(-0.00491087 -0.141902 -2.13337e-22)
(0.00327149 -0.0734961 0)
(-0.00231211 -0.102859 -5.91405e-20)
(0.00781605 0.0040062 0)
(0.000428525 0.008131 -1.53232e-17)
(0.00138888 -0.11947 3.02938e-17)
(-0.00298046 -0.0932919 2.96125e-20)
(0.00374719 -0.0715617 0)
(0.00296041 -0.198708 -1.96685e-23)
(0.00660356 -0.110567 0)
(-0.00395787 -0.191342 -1.50273e-17)
(0.000230587 0.0215698 0)
(-0.00211859 -0.1083 0)
(-0.00221543 -0.107012 0)
(0.00395299 -0.0700337 0)
(-0.0116955 -0.173466 -1.09268e-21)
(-0.00314353 -0.0911026 0)
(0.00861987 0.00714644 0)
(0.00401485 -0.0691856 0)
(-0.00340937 -0.091705 0)
(0.00143482 -0.114516 -9.68782e-23)
(-0.0185261 -0.142689 -1.25917e-21)
(0.000790688 0.0251319 0)
(-0.0014519 -0.119916 0)
(-0.0185071 -0.101261 -6.20788e-22)
(-0.00365231 -0.0891957 1.48471e-20)
(0.0127887 -0.158368 7.36366e-22)
(-0.00153268 -0.116576 0)
(-0.00326222 -0.0929526 -3.70524e-21)
(-0.00238048 -0.104349 0)
(0.00624776 0.0162352 0)
(-0.00882844 -0.0662266 -1.52233e-17)
(-0.00217615 -0.105384 1.51622e-17)
(0.00365952 -0.0828375 0)
(-0.00278223 -0.0967898 2.96043e-20)
(-0.00337755 -0.0889967 0)
(-0.00165714 -0.113961 0)
(0.0116314 -0.144278 5.61002e-22)
(-0.00294978 -0.132989 -3.02522e-17)
(-0.00179599 -0.111194 0)
(-0.0035143 -0.0879699 5.92217e-20)
(0.0126773 -0.15148 6.79265e-22)
(0.00940786 -0.168254 5.53028e-22)
(-0.00252895 -0.101717 0)
(-0.00371601 -0.0867423 0)
(-0.00195994 -0.108327 1.5156e-17)
(0.00752205 0.0231624 0)
(0.0101502 -0.126657 -3.46973e-22)
(0.0031338 0.00977755 0)
(-0.0029138 -0.0944347 -2.95909e-20)
(0.0124527 -0.131366 -3.02248e-17)
(0.014056 -0.13693 6.0526e-22)
(0.00179171 -0.169841 3.24419e-23)
(-0.00380852 -0.085911 1.85446e-21)
(0.000770938 -0.0534904 8.66535e-23)
(-0.00268037 -0.0991542 0)
(-0.00138511 -0.130878 -3.02636e-17)
(-0.0076795 -0.162965 -5.36613e-22)
(0.0139791 -0.147806 3.0161e-17)
(-0.00305567 -0.0921904 0)
(-0.0183147 -0.148413 -1.05227e-21)
(0.00353625 -0.057752 3.0836e-23)
(0.00168423 0.00647878 0)
(0.00267136 -0.0931756 0)
(0.00867325 0.0110407 0)
(-0.00329768 -0.0811219 0)
(-0.00257699 -0.100797 0)
(0.00305678 -0.0656477 4.07623e-23)
(-0.00286881 -0.0966508 0)
(-0.00400616 -0.0838365 0)
(-0.00101232 -0.152028 3.01621e-17)
(0.00117247 -0.0174607 1.53488e-17)
(-0.0287405 -0.123882 -1.31345e-21)
(0.00846396 -0.153796 3.01475e-17)
(-0.00348308 -0.0845932 -2.96602e-20)
(-0.00325171 -0.0900479 1.51289e-17)
(2.75601e-05 -0.0796957 1.61291e-17)
(-0.0117968 -0.143286 3.01717e-17)
(-0.00162246 -0.0913481 1.49298e-17)
(0.00756406 -0.00449679 0)
(-0.0100285 -0.0579171 0)
(-0.0292131 -0.0897998 -7.2117e-22)
(0.000197419 0.0162895 0)
(-0.00280521 -0.0976288 -1.51954e-17)
(-0.00210287 -0.130723 8.85867e-23)
(0.00322796 -0.0897571 0)
(0.00105788 0.0276742 0)
(-0.00289929 -0.0944856 0)
(0.000641329 -0.00810025 -1.53168e-17)
(0.00529703 0.0375272 0)
(-0.00254186 -0.100515 0)
(0.00363118 0.0402641 0)
(-0.0036616 -0.0869512 0)
(0.00513576 -0.064758 0)
(-0.0031233 -0.0941769 0)
(0.00596557 -0.0566525 1.43541e-23)
(-0.00354688 -0.0904465 1.51901e-17)
(-0.0238835 -0.127907 3.02047e-17)
(-0.0146099 -0.0605151 -1.7669e-23)
(0.000493897 0.0247844 0)
(0.00104732 -0.0506081 4.47151e-23)
(-0.00396413 -0.0818677 1.52112e-17)
(-0.00392737 -0.0848717 -1.51853e-17)
(0.000357597 0.0188553 0)
(-0.00371653 -0.0879476 1.85372e-21)
(0.00161229 -0.0740912 3.80951e-23)
(0.000873349 0.0263509 0)
(0.000255932 -0.00671378 0)
(0.00129697 0.0220666 0)
(0.00218831 -0.101747 0)
(0.000760953 -0.0310828 0)
(-0.00277792 -0.0916091 2.96552e-20)
(0.00350928 -0.0866672 0)
(0.000730242 0.0260256 0)
(0.00243014 -0.100448 0)
(0.00307515 -0.0908628 0)
(-0.00290335 -0.0830836 0)
(0.00192819 -0.0486927 0)
(0.00360135 -0.0788675 0)
(0.000266252 0.0109982 0)
(0.00103508 0.0277139 0)
(-0.00402422 -0.0828245 0)
(0.000200332 -0.00474642 1.53308e-17)
(0.000760471 -0.0152986 -1.53958e-17)
(0.000245842 0.0230526 0)
(0.000290746 0.0172487 0)
(0.000385142 0.0012226 1.53269e-17)
(-0.000487464 -0.0074553 0)
(-0.000335081 -0.00247953 0)
(-0.0347509 -0.10325 3.027e-17)
(-0.00144962 -0.0274574 0)
(0.0026311 -0.0728044 0)
(0.000652531 -0.000874977 0)
(-0.00166784 -0.0919176 -1.52472e-17)
(0.00725369 -0.0579621 1.52414e-17)
(1.86545e-05 -0.0798667 -1.60381e-17)
(-0.00204419 -0.0320988 1.54176e-17)
(0.00183711 -0.0226732 0)
(0.000408428 -0.00715399 1.53524e-17)
(-0.002424 -0.0893501 0)
(-0.0036442 -0.0856077 -1.51727e-17)
(3.89855e-05 -0.0796738 -3.22036e-17)
(-0.00150023 -0.0307746 0)
(0.000145571 0.0156019 0)
(0.0100277 -0.0533295 -2.32644e-22)
(-0.00625382 -0.0628357 -1.52333e-17)
(0.00264025 -0.0991543 0)
(0.00646299 0.026155 -1.65091e-17)
(-0.00257478 -0.00867686 -1.50603e-17)
(0.00344094 -0.0876627 0)
(0.00390666 -0.049479 3.05115e-17)
(-0.00590525 -0.10819 0)
(0.000409807 0.0167132 1.53114e-17)
(0.00779859 -0.0533378 0)
(0.00359902 -0.0847412 0)
(-0.000560152 0.0204797 -1.47952e-17)
(0.000392405 0.012361 1.53174e-17)
(-0.00156987 -0.0170935 1.80823e-17)
(-0.00176323 0.00745819 1.4457e-17)
(0.000416759 0.0156068 0)
(0.000283088 -0.000496334 1.53255e-17)
(-0.00355405 -0.0802819 -1.51859e-17)
(-0.00161246 -0.0437831 -1.65427e-17)
(-0.002094 -0.0826122 0)
(0.0029669 -0.0966253 0)
(-0.00194546 -0.0880824 0)
(-0.00166303 -0.092155 -1.53105e-17)
(-0.0125705 -0.0519693 3.0482e-17)
(0.00062856 -0.0778653 9.44703e-22)
(-0.00155807 -0.0904294 0)
(-0.00381106 -0.0810131 -2.96371e-20)
(-0.00395272 -0.0495036 0)
(-0.00162211 -0.048446 0)
(-0.00508193 -0.0599173 0)
(0.000258514 0.00912231 -1.5309e-17)
(-0.00107814 -0.0434515 1.74357e-17)
(-0.0318112 -0.0728284 3.0376e-17)
(0.00758597 -0.0474578 0)
(-0.000138438 -0.0718818 -1.46179e-17)
(-0.00369106 -0.0362538 -2.33336e-19)
(0.000521826 -0.00396769 1.53316e-17)
(-0.00200837 -0.0663072 4.97923e-19)
(0.00711514 0.0270112 0)
(-0.00147165 -0.0922188 -1.51951e-17)
(0.00292109 -0.0281817 0)
(0.000625118 -0.00205275 -1.53339e-17)
(0.000972518 -0.0763296 -9.29169e-22)
(-0.000833903 0.0298005 0)
(-0.000252319 -0.0776716 0)
(0.000205633 0.01335 0)
(-0.00168108 -0.0919453 -3.16471e-17)
(-0.0438887 -0.017579 0)
(0.000707537 -0.118994 -3.0297e-17)
(0.00314592 -0.0412942 0)
(-0.00143665 0.000936239 0)
(-0.00171921 -0.0182761 1.03997e-17)
(-0.000896198 -0.0101145 0)
(-2.28727e-06 -0.00245548 0)
(0.00331425 0.0103871 0)
(0.0153314 -0.0546042 0)
(0.000264292 0.00792 0)
(-0.000552947 -0.0310097 -1.50569e-17)
(0.00542636 0.0195072 0)
(-0.00310847 -0.0261113 2.92954e-17)
(-0.00799937 -0.0605771 0)
(-0.00167518 -0.10969 -3.03298e-17)
(0.000400206 0.00380878 -1.53214e-17)
(-0.0291376 -0.000804694 0)
(0.000590195 0.00443173 1.53282e-17)
(-0.00445865 -0.0237989 0)
(-0.00114052 -0.10739 8.13773e-23)
(0.00104859 0.0276258 0)
(0.000649672 0.00172222 0)
(-0.000220592 0.0143435 0)
(0.00308234 -0.0954004 0)
(0.000335617 0.0238371 0)
(-0.00156535 -0.0229969 0)
(0.000249995 0.0122404 0)
(-0.00132365 -0.10367 7.37498e-23)
(0.0011951 0.0013109 0)
(0.000787442 0.0224985 1.52772e-17)
(0.00674391 -0.0559415 1.52476e-17)
(0.00137508 0.0299823 0)
(0.00661106 0.00163314 0)
(-0.000752477 -0.114322 8.91917e-23)
(0.000138695 -0.0320375 0)
(-0.00191284 -0.106492 0)
(0.00766874 -0.0257494 0)
(-0.0281016 -0.0418841 0)
(0.0111687 -0.0547386 -2.32621e-22)
(0.000818353 0.0319453 0)
(-0.0168004 -0.0522526 0)
(-0.00244355 -0.0948009 0)
(0.000384847 0.0102786 0)
(-0.00179458 -0.0897743 -1.52005e-17)
(-0.00510365 -0.00196533 0)
(-0.00343549 -0.0654037 -1.52319e-17)
(-0.00239572 0.00291362 -9.46544e-19)
(0.00341171 -0.0707122 0)
(0.00258163 -0.00325794 0)
(-0.00226045 -0.0920851 0)
(-0.00273975 -0.0427165 0)
(-0.0014412 -0.0999743 -1.51826e-17)
(-0.0014884 -0.112755 -1.51604e-17)
(0.000124297 0.0150854 0)
(-0.00105568 -0.0837184 0)
(0.000626566 0.00308315 0)
(4.38104e-05 -0.0521852 0)
(-0.000539103 -0.123933 9.6857e-23)
(-0.00146858 -0.0982208 5.24485e-23)
(-0.000328314 -0.0325869 0)
(0.00308624 -0.0426186 0)
(-0.000212773 0.0154712 1.47998e-17)
(-0.000101842 -0.079089 4.59924e-24)
(-0.00215096 0.022545 1.55832e-17)
(-0.0012325 -0.0194829 0)
(0.000408551 0.00296948 0)
(0.00111121 -0.0733379 -3.04513e-17)
(-0.00166123 -0.0921423 -4.67479e-19)
(-0.00323572 -0.0837266 1.51779e-17)
(-0.00113216 -0.122016 0)
(-0.00166404 -0.0591212 1.3258e-17)
(-0.000934858 -0.110964 8.56836e-23)
(-0.00312848 -0.0176531 1.51335e-17)
(-0.00016637 -0.00264771 -1.53224e-17)
(-0.000624852 -0.117439 9.27818e-23)
(-0.00518417 -0.0663453 0)
(-0.00147141 -0.0951297 3.14202e-23)
(0.000441335 -0.0778635 -3.04388e-17)
(-0.00028476 -0.0766911 0)
(-0.000543828 -0.121588 9.67151e-23)
(-0.00131917 -0.0861513 1.19085e-19)
(0.0114686 -0.0566019 0)
(0.000413374 0.0145052 0)
(0.00111929 0.0121049 0)
(-0.00110242 -0.0855811 0)
(-0.000584989 -0.118898 9.43834e-23)
(-0.00145652 -0.08909 0)
(-0.00157478 -0.04457 -1.5042e-17)
(0.000390058 0.0178041 0)
(-0.0138976 0.00133893 0)
(0.000487939 0.00697134 0)
(0.000342365 -0.0200043 0)
(-0.000206573 -0.0599537 1.48571e-17)
(-0.00167982 -0.0895922 -1.57682e-17)
(-0.00379196 -0.0354481 0)
(0.000542595 0.00573509 0)
(0.000154311 -0.0717733 0)
(0.0110588 -0.0141349 0)
(0.0157876 -0.0532146 0)
(-0.00114116 -0.0839887 0)
(-0.00155801 -0.0864846 0)
(-0.00409559 -0.0365639 0)
(0.00320479 -0.0358472 0)
(-6.97015e-05 -0.0737935 1.49051e-17)
(-0.00100862 -0.0810602 0)
(-0.00111698 -0.0329622 0)
(0.000398806 -0.0139338 -3.75935e-21)
(-7.64362e-05 -0.00444219 0)
(-0.000226122 -0.067106 -1.00009e-18)
(-0.00137942 -0.0843448 0)
(0.00110304 0.0478382 0)
(0.00270827 -0.0409533 0)
(-0.00341209 -0.0157552 0)
(-0.000117898 -0.0575889 1.53253e-17)
(-0.00178526 -0.0513834 -5.03057e-19)
(0.00394981 0.0443011 0)
(0.000426911 0.0185738 0)
(0.000381047 0.00460771 0)
(0.000131459 -0.00196722 -1.53232e-17)
(-0.00204527 -0.104839 1.51765e-17)
(-0.0016349 -0.0586673 -1.43096e-17)
(-0.045449 -0.0181858 0)
(-0.00124007 -0.123843 0)
(0.00323238 -0.0930214 0)
(-4.58676e-05 0.00052166 0)
(0.000265494 0.0103645 0)
(-0.00162053 -0.0881294 0)
(-0.0120672 -0.0550898 0)
(-0.0330501 -0.0126589 0)
(-0.00015356 -0.00662092 0)
(-0.000906462 -0.052393 0)
(-0.00214226 -0.0142195 0)
(-0.00274844 -0.0794448 -1.51981e-17)
(-0.00228741 -0.10145 1.51828e-17)
(-0.00388437 -0.0129537 0)
(-0.00337716 -0.155718 0)
(-0.000598593 -0.125914 9.3429e-23)
(0.0137743 -0.0539194 0)
(-0.000835071 -0.127568 8.60049e-23)
(-0.00356419 -0.0338229 -3.04586e-17)
(-0.000531523 0.0315406 -2.88554e-22)
(0.00330635 -0.0634544 0)
(-0.0128868 -0.117845 -3.03146e-17)
(-0.000253641 -0.0301706 -2.56809e-19)
(-0.00351673 -0.0321489 -1.50135e-17)
(-0.00353194 -0.0350818 -6.66066e-23)
(0.00879924 -0.0554207 0)
(0.000674735 -0.070687 0)
(-0.000470368 -0.110984 -3.03361e-17)
(-0.0407639 -0.0142446 0)
(-0.000310595 -0.114458 -3.03249e-17)
(0.00142795 -0.0707836 -4.38724e-23)
(-0.00207884 -0.0685909 0)
(-0.000385261 -0.112751 3.03304e-17)
(0.00266163 -0.0564819 -3.05013e-17)
(-0.0016385 -0.0917964 -1.51958e-17)
(-0.00244325 -0.0980326 0)
(0.00424007 -0.0533328 0)
(0.00011799 -0.0730187 0)
(0.000396641 -0.00455176 0)
(-0.000561087 -0.109161 3.03419e-17)
(-0.00304585 -0.0370861 0)
(-0.00169466 -0.0900932 -2.61644e-23)
(-0.003211 -0.027884 -4.53816e-19)
(0.002167 -0.0639434 -3.04791e-17)
(-0.00979706 -0.0429515 1.48837e-17)
(0.00300033 -0.0585716 0)
(0.000326916 0.00604879 0)
(-0.00283612 0.0184461 0)
(-0.000654074 -0.107289 -3.03476e-17)
(-0.00176211 -0.0883413 0)
(-0.0366084 -0.0353442 0)
(0.00215767 -0.0680814 0)
(0.000855203 -0.107418 0)
(-8.05305e-05 -0.0536533 1.46803e-17)
(-0.00166873 -0.0920562 1.51955e-17)
(0.00406933 -0.0613106 0)
(0.000618673 -0.0768015 -2.70187e-23)
(-0.00281272 -0.00751059 0)
(0.000403748 0.0134218 0)
(-0.000744778 -0.105384 3.03535e-17)
(-0.00170508 -0.091148 -3.03953e-17)
(0.0041499 -0.0607655 0)
(-0.00228917 0.0519595 -1.45949e-17)
(0.00367076 -0.0626331 0)
(0.00529853 -0.000104369 0)
(-9.16583e-05 -0.0781096 -1.38173e-17)
(-0.00286473 -0.0134052 0)
(0.00040538 0.00210423 0)
(-0.000829526 -0.103469 -3.03593e-17)
(-0.000189929 -0.0737897 0)
(0.000742219 -0.0350485 0)
(2.35856e-05 -0.0797371 -3.01094e-20)
(-0.00157612 -0.0894266 -1.19194e-19)
(0.0146749 -0.0532964 0)
(-0.00123804 -0.10554 -7.81041e-23)
(-0.00103737 -0.109202 -8.37279e-23)
(0.000891539 -0.0564132 -4.69332e-19)
(-0.00188554 -0.0393268 0)
(0.000786841 -0.0561453 -3.05054e-17)
(-0.0443007 -0.0254965 0)
(0.000918075 -0.0629421 1.55119e-17)
(-0.00311575 -0.0277314 -7.7196e-23)
(0.000599342 0.0203251 0)
(-0.00604977 -0.0769122 -1.52233e-17)
(0.000890478 -0.0770044 -9.52172e-22)
(0.00070111 -0.0657346 -1.50114e-17)
(-0.000838493 -0.112671 -8.74058e-23)
(0.0049902 -0.0563123 0)
(0.00916092 -0.0381968 0)
(0.00140683 -0.0755307 -1.52244e-17)
(-0.000186442 -0.0768496 0)
(-0.000554432 0.0472851 1.51673e-17)
(0.000201957 -0.0790776 -6.67154e-24)
(-0.000204838 -0.117674 -3.03145e-17)
(-0.0134996 -0.0528445 0)
(0.00513001 0.0135367 0)
(0.00380039 -0.0622961 0)
(-0.00319512 -0.0797439 0)
(-0.0247979 -0.0122109 0)
(-0.00364383 -0.0379574 1.50687e-17)
(-0.00134104 -0.0911169 1.88642e-23)
(-0.00244104 -0.102354 -1.51726e-17)
(-0.0369955 -0.00346249 0)
(0.0039656 -0.0617717 0)
(-0.00240129 -0.05533 0)
(-0.00179374 -0.0868002 0)
(0.00174679 -0.0320029 0)
(-0.00362728 -0.00918511 -1.79327e-22)
(0.00322115 -0.0406592 0)
(-0.00123821 -0.118418 -1.51514e-17)
(0.0058706 -0.0533495 -1.52489e-17)
(0.00206569 -0.0718713 -4.3006e-23)
(-0.0067179 -0.0527249 2.95226e-17)
(0.00660135 -0.164086 -1.50708e-17)
(-0.00372164 0.0453469 0)
(-0.00148099 -0.117797 0)
(-0.00233667 -0.071702 0)
(-0.000249466 -0.1161 3.03196e-17)
(-0.0125984 -0.159491 -3.01821e-17)
(-0.0131656 -0.0517563 0)
(-0.00302838 -0.0255075 1.46023e-20)
(-0.0102197 -0.012282 0)
(-0.00312402 -0.0172209 0)
(-0.0428273 -0.00874538 0)
(-0.00319898 -0.0106656 1.55196e-17)
(0.0123902 -0.0252914 0)
(0.00189945 -0.0144288 0)
(0.00373362 -0.206683 -3.00321e-17)
(-0.000973871 -0.0997252 1.51853e-17)