/*--------------------------------*- C++ -*----------------------------------*\
  =========                 |
  \\      /  F ield         | OpenFOAM: The Open Source CFD Toolbox
   \\    /   O peration     | Website:  https://openfoam.org
    \\  /    A nd           | Version:  9
     \\/     M anipulation  |
\*---------------------------------------------------------------------------*/
FoamFile
{
    format      ascii;
    class       volScalarField;
    location    "0.62";
    object      p;
}
// * * * * * * * * * * * * * * * * * * * * * * * * * * * * * * * * * * * * * //

dimensions      [0 2 -2 0 0 0 0];

internalField   nonuniform List<scalar> 
464
(
3.40419e-05
1.53653e-05
-9.16267e-05
-7.18253e-05
-1.3033e-05
-9.06661e-05
7.9527e-06
-6.87871e-05
-3.16826e-05
-4.66863e-06
2.4277e-05
9.95236e-05
2.84175e-06
9.14289e-05
0.000115715
0.000124176
6.11882e-05
5.55258e-05
-3.31681e-05
-5.11811e-05
-5.76098e-05
-0.000104194
-8.85768e-05
-7.65117e-05
-7.64985e-05
-8.17275e-05
0.000131956
-3.60349e-05
0.000131772
-0.000107348
-0.000103839
6.75745e-05
7.53895e-05
5.89229e-05
4.3935e-05
4.80296e-05
2.9751e-05
-1.93563e-05
-3.02535e-05
0.000103739
-3.79966e-05
-8.53839e-05
-8.96739e-05
7.88992e-05
5.55993e-05
0.000103705
-5.07278e-05
-3.8742e-05
-4.59134e-06
-4.16431e-05
-2.20605e-05
-2.7853e-05
9.50275e-06
-6.54876e-05
-6.42313e-05
-2.81981e-05
-4.17217e-05
-6.55964e-05
-7.11814e-05
3.23367e-06
-2.93157e-06
-5.8928e-05
-3.83524e-05
-6.07607e-05
-3.73986e-05
-6.805e-05
-7.23819e-05
1.21312e-06
3.2108e-05
-6.98509e-05
-7.98962e-05
-5.05379e-05
8.35989e-05
-3.37883e-05
-9.17738e-05
-2.86655e-05
-6.35277e-05
1.73017e-05
-5.35761e-05
0.000113624
-7.50363e-05
-0.000105641
-9.86647e-05
-0.000136091
-7.5396e-05
-6.00753e-05
-5.30388e-05
-0.000110018
-6.75835e-05
-6.58099e-05
-7.64112e-05
-5.17122e-05
-5.38272e-05
2.70264e-05
-6.405e-05
-5.50335e-05
-6.78315e-05
-9.13464e-05
-0.000155427
-2.39407e-05
-6.82352e-05
-4.38776e-05
-8.33326e-05
5.02746e-05
6.59464e-05
-8.62066e-05
-0.000122613
-5.82645e-05
-8.62385e-05
-5.97227e-05
-6.2557e-05
-4.38907e-05
-6.75838e-05
-9.93926e-05
-5.5399e-05
-6.66681e-05
-0.000127672
-0.000148675
-0.00014523
-0.000115822
-5.29909e-05
8.50247e-07
-3.91276e-05
3.22811e-05
-6.76679e-05
-4.90251e-05
-1.96457e-05
-8.18927e-05
3.68495e-05
-0.000111412
-0.00013882
0.000101443
-1.39197e-05
-7.90135e-05
-0.00011553
-0.000133081
-0.00015013
-4.8627e-05
-2.30144e-05
-0.000114118
-0.000146003
-5.03504e-05
-9.56427e-05
-6.77182e-05
-0.000155884
-9.71757e-05
-6.69684e-05
-0.000117212
-7.00531e-05
-0.000100376
-8.45693e-05
-7.58417e-05
2.36793e-05
-6.32986e-05
-0.000148593
-0.000123649
6.24157e-05
-6.71013e-05
-1.63627e-05
-8.9318e-05
-8.03914e-06
-7.64301e-05
-9.21647e-05
-7.84042e-05
-6.54712e-05
-0.000145019
2.279e-05
-6.1805e-05
7.85819e-05
-0.00012194
-0.000119813
-6.77485e-05
-0.000148807
-0.000109287
-0.000134317
-8.45368e-05
-6.81476e-05
-7.15199e-05
5.07315e-05
6.16206e-05
-6.75544e-05
-8.99459e-05
9.30995e-05
9.1981e-05
0.000119483
0.000105656
-0.000122043
-0.00011397
-0.000135018
-0.000112532
-5.66859e-05
-0.000114116
-2.83796e-05
-4.87985e-05
-7.96705e-05
-9.198e-05
-5.09941e-05
-6.04376e-05
0.000108195
-7.12277e-05
-6.4536e-05
-8.96641e-05
-6.38452e-05
-8.34529e-05
-0.000109325
-3.73733e-05
-7.67957e-05
-0.000100261
-0.000113878
-0.000145625
-0.000130348
-0.000119981
-2.64133e-06
4.66303e-05
-4.26611e-05
-0.000111753
0.000127757
-5.11912e-05
0.000144156
-0.000117823
8.47094e-05
-9.08444e-05
-7.84007e-05
-6.33369e-05
-6.8377e-05
-7.27486e-05
-6.4687e-05
-4.39811e-05
-5.12275e-05
-5.9348e-05
-4.65394e-05
-2.14138e-05
-2.76733e-05
-4.59546e-05
-1.11546e-05
-5.2381e-05
3.77796e-06
-1.502e-05
-3.13359e-05
1.41404e-05
-4.46869e-05
-5.83122e-06
-5.95377e-06
-2.04477e-05
-3.5791e-05
3.3919e-05
-1.0883e-05
-3.44347e-05
1.70586e-05
-2.4624e-05
-9.25888e-07
2.95742e-05
-2.69671e-05
-4.97789e-05
-2.87043e-05
-4.42639e-06
-6.69465e-05
-2.09963e-05
-2.23359e-05
7.77571e-06
3.70481e-06
-1.72313e-05
-1.66939e-05
5.26434e-05
7.20161e-06
2.77005e-05
-1.21687e-05
-5.10501e-05
9.04976e-05
2.31441e-05
-9.70051e-05
1.76703e-05
-7.38378e-06
6.93498e-05
9.59168e-06
-7.79365e-06
2.23158e-05
-9.60888e-05
-0.000127071
-9.59458e-05
-1.15556e-05
-5.36718e-05
-0.000128851
-2.77019e-05
6.68752e-05
-3.84509e-05
-0.000134068
-4.48001e-05
-4.79912e-05
-1.28733e-05
-4.12706e-05
-1.86292e-05
-5.46728e-05
-6.30515e-05
-4.86415e-05
-9.80602e-05
-0.00013073
-8.17146e-05
-8.5353e-05
-5.52718e-05
5.05478e-05
1.70213e-05
4.33291e-05
3.90959e-05
2.77741e-05
-4.39046e-05
-3.96629e-05
9.31864e-06
-9.64583e-05
-8.66012e-05
-7.01982e-05
-6.70686e-05
-3.27963e-05
1.34433e-05
-3.79019e-05
-3.74657e-05
-0.000128008
-7.02101e-05
-6.54812e-05
2.19758e-05
-0.000108794
-9.02988e-05
-9.58471e-05
-8.60905e-05
-1.52161e-05
-1.69723e-05
-1.87884e-06
3.45965e-05
-4.19893e-05
-5.41467e-05
-6.66745e-05
-1.60317e-05
-7.75865e-05
-2.18801e-05
-7.60786e-05
-6.76602e-05
-0.000100155
-7.46149e-05
-8.57453e-05
-7.75521e-05
-7.36489e-05
-1.11679e-05
-5.19846e-05
-6.89368e-05
-1.28997e-05
-5.65067e-05
-1.26854e-05
-7.68101e-05
-7.04971e-05
-7.12442e-05
-5.77852e-05
-8.2066e-05
-9.51922e-05
-9.4481e-05
-5.23748e-05
2.91141e-05
-0.000103395
-2.27189e-05
-0.000106748
-2.82501e-05
-8.08861e-05
-2.32411e-05
-0.00010259
-8.05109e-05
2.49244e-05
-3.63871e-05
-5.88935e-05
4.00903e-05
7.34578e-05
-0.000116926
-7.26498e-05
0.000137636
7.5809e-05
6.10966e-05
0.000134635
-8.36343e-05
6.28126e-05
-9.21183e-05
0.000164996
-0.000115133
0.000139866
7.58506e-05
6.29703e-05
3.0836e-05
2.08074e-05
3.98653e-05
2.25983e-05
-9.44366e-05
8.71903e-05
7.28868e-05
-5.72419e-06
1.68505e-05
3.33228e-05
2.87188e-05
-5.05339e-05
-8.25292e-05
-6.63108e-05
-9.16714e-05
-7.47403e-05
5.75964e-05
-4.90628e-06
-7.20369e-05
3.35273e-05
-6.12712e-05
1.77876e-05
-2.1867e-06
1.19389e-06
-4.49403e-05
-3.03003e-05
-4.9687e-05
9.81471e-06
-5.49257e-05
-9.33471e-05
-8.72969e-05
-8.16917e-05
-3.68269e-05
9.48125e-05
-4.66845e-05
-8.18071e-05
-5.37776e-05
-6.10291e-05
-7.24756e-05
4.05909e-05
0.000139726
-1.14352e-05
6.94232e-05
0.000152546
0.000164627
0.000154612
-6.61483e-05
-0.000118235
2.0691e-05
8.03423e-05
-0.000110417
8.21777e-06
8.5353e-05
7.92135e-05
-9.36056e-05
7.65734e-05
-0.000129731
6.49753e-06
3.95014e-05
-4.6391e-05
-5.32843e-05
-8.41592e-05
-7.1493e-05
-8.05169e-05
-8.8794e-05
-7.35183e-05
-2.87697e-05
8.73067e-05
-7.40405e-06
7.19528e-05
-9.09312e-05
-1.41996e-05
5.46718e-05
3.63141e-05
-4.43864e-05
-5.99265e-05
-5.37982e-05
-5.66538e-05
8.77815e-05
1.84059e-05
-8.96856e-05
)
;

boundaryField
{
    back
    {
        type            empty;
    }
    front
    {
        type            empty;
    }
    left
    {
        type            zeroGradient;
    }
    top
    {
        type            zeroGradient;
    }
    right
    {
        type            zeroGradient;
    }
    bottom
    {
        type            uniformFixedValue;
        uniformValue    
        {
            type            scale;
            scale           
            {
                type            squarePulse;
                start           0.3;
                duration        0.3;
            }
            xScale          
            {
                type            constant;
                value           1;
            }
            value           
            {
                type            constant;
                value           15.1;
            }
        }
        value           uniform 0;
    }
}


// ************************************************************************* //
