/*--------------------------------*- C++ -*----------------------------------*\
  =========                 |
  \\      /  F ield         | OpenFOAM: The Open Source CFD Toolbox
   \\    /   O peration     | Website:  https://openfoam.org
    \\  /    A nd           | Version:  9
     \\/     M anipulation  |
\*---------------------------------------------------------------------------*/
FoamFile
{
    format      ascii;
    class       surfaceScalarField;
    location    "0.62";
    object      phi;
}
// * * * * * * * * * * * * * * * * * * * * * * * * * * * * * * * * * * * * * //

dimensions      [0 3 -1 0 0 0 0];

internalField   nonuniform List<scalar> 
663
(
-2.22124e-10
3.11142e-11
1.9101e-10
1.86867e-10
1.30992e-10
-4.27401e-12
4.27401e-12
4.68905e-11
-2.54253e-11
-2.14652e-11
-6.2052e-11
2.48919e-10
-1.02756e-13
-4.17125e-12
-6.45713e-11
-1.57553e-10
1.4659e-11
3.22316e-11
-5.25341e-11
-6.15088e-12
5.8685e-11
1.41882e-10
-1.94416e-10
-2.7643e-10
3.07544e-10
1.81302e-10
-2.31615e-10
5.03132e-11
-7.07222e-11
2.15293e-10
-3.39918e-11
-5.45531e-11
1.14026e-10
-5.94733e-11
-6.82549e-11
1.37018e-11
4.84286e-11
-2.38919e-11
-2.45368e-11
4.62684e-11
2.16024e-12
2.39578e-12
-2.39578e-12
1.11537e-10
-1.21235e-10
9.69864e-12
-1.82748e-11
1.29811e-10
-5.29617e-11
-4.83099e-11
1.01272e-10
-1.07738e-10
5.47766e-11
-5.77692e-11
4.84907e-11
9.27847e-12
4.74074e-12
-3.01661e-11
-3.346e-11
-2.43092e-11
-1.58208e-10
1.69151e-10
-1.09436e-11
4.424e-11
-1.74654e-11
-2.67746e-11
-1.68408e-10
1.02005e-11
8.10179e-11
-7.15837e-11
-9.43419e-12
3.50525e-11
4.59654e-11
8.44518e-11
-5.1085e-11
-3.33668e-11
1.29669e-11
7.1485e-11
-4.62911e-11
2.71995e-11
1.90917e-11
-1.05776e-11
-3.57135e-11
2.71667e-11
1.91016e-11
8.07409e-11
-5.35742e-11
-6.92363e-12
9.31941e-12
9.84187e-12
3.43981e-11
4.47369e-11
3.68639e-12
-4.84233e-11
-5.82201e-11
-6.30151e-11
1.08575e-10
-1.30849e-10
2.22736e-11
8.37229e-13
1.28509e-10
4.06416e-11
-1.03105e-10
-2.3518e-11
-6.86955e-11
1.20353e-10
-5.16572e-11
-1.06536e-10
9.99179e-11
6.61813e-12
-1.91613e-11
1.91613e-11
-2.4389e-11
4.85049e-11
-1.06725e-10
5.7408e-11
8.76559e-12
-6.61736e-11
-1.14531e-10
2.17e-11
9.28306e-11
-1.80291e-13
-8.77897e-11
8.797e-11
1.28936e-10
-1.29116e-10
-2.70941e-11
8.45022e-11
-9.57896e-11
-6.11429e-11
-3.46449e-11
9.57878e-11
5.80398e-11
-1.19183e-10
-9.04831e-11
-2.40475e-11
-9.31941e-12
-2.3638e-10
2.69598e-10
-3.32176e-11
-8.17818e-11
9.08719e-13
8.08731e-11
5.56411e-11
-9.74807e-11
4.18396e-11
-3.70279e-11
1.7891e-10
-1.69072e-11
-7.08825e-11
-4.64875e-12
3.7829e-11
-3.31802e-11
2.79269e-11
-2.26116e-10
-6.69803e-12
1.35634e-10
9.62201e-11
-3.81803e-11
-2.73408e-10
-8.54559e-11
-8.29522e-11
-3.12777e-11
-7.52583e-11
4.71942e-11
-1.24309e-10
7.71151e-11
-3.17755e-11
6.26801e-11
-6.73289e-11
-3.18099e-11
2.2282e-10
-1.01106e-10
6.64616e-11
2.85705e-11
2.52108e-10
-1.74429e-11
-2.34666e-10
-2.25661e-11
2.1476e-11
1.09013e-12
6.09663e-12
-1.07785e-10
1.01688e-10
8.06257e-12
3.18388e-12
-1.12464e-11
2.58205e-10
-6.61398e-11
-1.5642e-11
6.84118e-11
2.01186e-10
-1.45035e-11
-6.58081e-11
5.40089e-11
1.17992e-11
1.25089e-10
-7.78948e-11
2.24987e-10
-2.90851e-10
-3.52708e-11
-1.07759e-11
4.60467e-11
-1.86689e-10
-1.12355e-11
1.97924e-10
-1.11318e-11
-2.4139e-11
6.35889e-11
-4.54654e-11
-4.99652e-12
2.64725e-11
1.77513e-11
-7.29798e-11
5.52285e-11
6.93961e-12
-7.76618e-11
-3.87826e-11
-2.70255e-11
-1.27393e-11
1.12657e-10
3.3903e-11
-7.26856e-11
6.2876e-12
-5.73726e-11
3.34871e-11
-1.07785e-10
3.18387e-12
-1.67442e-11
5.45731e-11
-1.18369e-11
2.36824e-10
-1.14334e-10
1.3668e-10
-2.23462e-11
-3.03281e-11
-2.6521e-11
5.68491e-11
8.9075e-11
-2.75201e-11
1.65334e-10
-1.47583e-10
9.38952e-13
5.307e-11
-3.60791e-11
6.99821e-11
-1.01688e-10
8.98515e-11
8.65961e-12
1.12464e-11
-1.99061e-11
-7.29798e-11
4.94443e-11
-4.07847e-11
-1.27074e-10
-8.5813e-11
9.27526e-11
1.6966e-10
-1.01248e-10
-2.18484e-10
6.09315e-11
3.00803e-11
-8.6173e-11
5.58449e-11
1.04506e-10
6.51539e-11
3.52817e-11
-6.18026e-11
3.34322e-11
-4.40098e-11
8.91775e-11
-8.91775e-11
3.15918e-11
-6.7671e-11
-1.34106e-11
-6.69647e-11
8.03753e-11
8.98515e-11
-1.99061e-11
1.973e-11
-4.65046e-11
-4.71604e-11
4.71604e-11
2.99426e-11
-4.33533e-11
4.57173e-11
-8.11451e-11
4.29648e-11
7.0921e-11
-2.99426e-11
1.00366e-11
-1.56867e-11
-1.08623e-10
-3.66187e-11
6.82105e-11
3.49408e-11
-7.43275e-11
-2.31532e-11
-5.15316e-11
4.37128e-12
2.4977e-11
-6.15956e-11
-8.71636e-11
1.94926e-11
1.79375e-10
-5.49365e-11
-1.24438e-10
-5.11604e-11
-3.50127e-11
1.68716e-11
4.33533e-11
3.80709e-12
-2.80299e-11
4.13806e-12
-3.26554e-11
5.76324e-11
1.86929e-11
4.84019e-11
1.88422e-10
2.97506e-11
-1.2296e-10
9.32092e-11
1.84381e-11
-5.10935e-11
-1.17757e-11
8.88908e-11
-5.15316e-11
6.79688e-12
-5.83285e-11
1.12567e-10
-8.28163e-11
-1.12133e-10
1.1893e-10
6.80864e-12
-4.2265e-11
3.54564e-11
2.77661e-11
-2.77661e-11
1.98416e-11
7.92447e-12
2.49588e-10
3.95418e-11
-5.52285e-11
-1.15275e-10
-3.95418e-11
-6.25508e-12
4.15367e-11
-2.24477e-11
4.08857e-11
-3.00001e-11
7.55245e-12
9.32387e-11
8.61362e-11
7.32263e-12
-3.98978e-12
-3.33285e-12
7.43581e-11
-1.04358e-10
-8.62197e-12
3.36889e-12
5.25309e-12
-3.88092e-13
3.88092e-13
6.93454e-12
-6.71201e-12
1.35206e-11
6.71201e-12
-6.32392e-12
-6.83303e-12
-1.78893e-12
-6.83303e-12
1.35865e-11
-1.98416e-11
-1.08997e-10
-7.56407e-12
1.16561e-10
-1.35865e-11
6.75351e-12
4.37889e-11
-4.37889e-11
3.65993e-12
-3.16926e-11
-8.74902e-11
-1.01738e-10
7.00451e-11
-1.30408e-10
-1.16372e-10
1.09674e-10
1.8944e-13
-9.34254e-11
-8.31219e-12
4.76382e-11
-4.74488e-11
-1.139e-10
2.04746e-11
4.74488e-11
4.76382e-11
4.34121e-11
-4.34121e-11
3.50999e-11
-1.78893e-12
2.79269e-11
-3.23345e-11
3.23345e-11
-5.83285e-11
1.35206e-11
5.94794e-11
-5.94794e-11
3.50999e-11
6.93454e-12
4.22615e-12
1.36425e-11
-9.35477e-12
-7.6712e-12
-1.68357e-12
5.97128e-12
-5.37561e-11
-4.87019e-11
1.02458e-10
-1.78593e-11
2.38305e-11
2.39803e-11
-2.97757e-11
-9.13251e-11
4.26232e-11
-7.00576e-11
-2.12674e-11
8.01458e-11
-8.81494e-11
1.30773e-10
3.66858e-11
-6.89848e-13
5.8949e-11
-5.82591e-11
7.64187e-11
-7.71085e-11
-3.33718e-11
-3.0732e-11
8.9681e-11
4.67741e-11
-7.41999e-11
1.59408e-11
5.51512e-11
-3.03345e-11
5.05386e-11
-5.52687e-11
-2.36613e-11
1.09276e-11
-1.41336e-10
-3.72585e-11
5.31993e-11
-4.74009e-11
-6.57852e-11
2.85267e-11
-2.06943e-12
6.27859e-11
-4.48293e-11
-1.79566e-11
7.39286e-11
4.96713e-11
-7.33327e-11
-1.61139e-11
-3.27092e-11
9.03416e-11
-4.74009e-11
4.66721e-11
-5.77197e-11
6.33111e-11
-5.59148e-12
-1.0116e-11
5.67881e-11
6.35231e-11
-1.62701e-11
-4.7253e-11
4.74213e-11
-5.75373e-11
4.65946e-11
-1.3071e-10
8.41157e-11
-1.02984e-11
1.59161e-10
5.32247e-11
7.27999e-11
-1.32083e-10
7.26093e-11
-8.92749e-11
-4.14354e-11
-1.11467e-10
-1.5639e-11
6.88637e-11
2.31635e-11
-1.0598e-10
-4.79669e-11
-1.25731e-10
6.61114e-11
-8.17504e-11
-1.11001e-11
-2.39998e-11
2.39998e-11
5.67119e-11
-1.0521e-10
-7.70217e-13
5.47652e-11
1.61558e-11
9.24385e-12
-1.04225e-10
1.76834e-10
-1.29584e-11
-9.22512e-11
1.17051e-11
1.22948e-11
1.58531e-10
-9.33773e-11
-4.10244e-11
-1.35918e-10
-3.54307e-11
-1.00487e-10
1.231e-10
-8.43664e-11
-9.32286e-11
9.74381e-12
5.46699e-11
-1.22948e-11
1.05059e-11
1.73977e-11
-2.41512e-11
1.56211e-10
-3.12293e-11
-7.80714e-11
2.6829e-10
-1.90219e-10
2.86045e-11
8.38496e-11
-3.10864e-12
2.80901e-11
2.94472e-11
-6.63353e-12
2.05294e-10
-5.38781e-11
1.12481e-10
1.10564e-10
-9.18712e-11
8.59195e-12
7.31584e-11
-5.77109e-11
2.13922e-10
-9.31678e-12
2.39757e-11
2.03803e-10
-3.13907e-11
-4.0193e-11
-2.79272e-11
-3.71707e-11
3.71707e-11
1.13434e-10
9.67416e-11
3.30697e-11
3.92794e-11
6.36381e-11
9.8589e-12
-9.8589e-12
1.32956e-10
-5.23429e-11
6.98809e-11
-1.45996e-11
1.45996e-11
-3.41075e-11
-5.28284e-12
5.28284e-12
-1.45907e-10
-1.52544e-10
-1.70146e-10
-4.40308e-11
-2.47378e-12
-3.72486e-11
3.79987e-11
-1.74213e-11
9.35318e-11
-1.02756e-13
9.35318e-11
-1.02756e-13
-1.66196e-10
2.97188e-10
5.63758e-12
-1.36357e-12
2.68751e-11
-3.08112e-12
1.42532e-11
2.96308e-10
1.81306e-13
-2.57709e-12
1.70432e-11
1.6389e-11
5.51857e-11
-5.02189e-11
1.08773e-12
4.1951e-12
-4.85358e-11
9.38822e-11
-1.37104e-11
-1.43195e-11
4.85358e-11
1.65185e-10
-8.91938e-11
-3.09089e-11
4.01823e-11
1.7207e-11
-8.77796e-12
1.51019e-11
5.93853e-12
-1.54831e-11
-7.48023e-11
-4.1305e-11
-3.84565e-11
1.10726e-11
-1.32328e-11
-9.1258e-11
3.61068e-11
2.57009e-11
-2.57009e-11
3.94429e-11
7.51953e-11
-7.12885e-11
-1.72827e-11
8.48226e-11
-1.80018e-10
1.24441e-10
5.63758e-12
1.50401e-10
1.08773e-12
6.61545e-11
7.02755e-11
8.37902e-11
-8.37902e-11
1.81307e-13
-5.57626e-11
1.81307e-13
-6.33679e-12
-1.88079e-10
1.61171e-11
-1.85909e-11
2.08876e-11
-2.51089e-11
4.22132e-12
-5.45452e-11
-1.81404e-11
5.51857e-11
-8.27192e-12
5.38487e-12
-1.42162e-10
-3.09089e-11
-1.7207e-11
-3.51573e-12
1.10726e-11
1.32328e-11
6.32734e-11
7.2972e-11
-7.88784e-11
-2.41018e-11
-4.24496e-11
-1.30805e-12
-1.26904e-12
9.57997e-12
)
;

boundaryField
{
    back
    {
        type            empty;
        value           nonuniform List<scalar> 0();
    }
    front
    {
        type            empty;
        value           nonuniform List<scalar> 0();
    }
    left
    {
        type            calculated;
        value           uniform 0;
    }
    top
    {
        type            calculated;
        value           uniform 0;
    }
    right
    {
        type            calculated;
        value           uniform 0;
    }
    bottom
    {
        type            calculated;
        value           nonuniform List<scalar> 8(-3.17859e-10 -1.02918e-10 2.98451e-10 -1.55584e-10 -2.90637e-10 1.39553e-10 2.92563e-10 1.3643e-10);
    }
}


// ************************************************************************* //
