/*--------------------------------*- C++ -*----------------------------------*\
  =========                 |
  \\      /  F ield         | OpenFOAM: The Open Source CFD Toolbox
   \\    /   O peration     | Website:  https://openfoam.org
    \\  /    A nd           | Version:  9
     \\/     M anipulation  |
\*---------------------------------------------------------------------------*/
FoamFile
{
    format      ascii;
    class       volVectorField;
    location    "0.62";
    object      U;
}
// * * * * * * * * * * * * * * * * * * * * * * * * * * * * * * * * * * * * * //

dimensions      [0 1 -1 0 0 0 0];

internalField   nonuniform List<vector> 
464
(
(-0.00101094 -0.00663394 1.36171e-22)
(-0.000684733 0.00855717 0)
(5.60146e-05 5.366e-05 0)
(0.00111606 -0.000100125 4.44487e-21)
(-0.000464687 0.00735377 0)
(4.8698e-05 5.86929e-05 -1.45514e-21)
(-0.00136143 -0.00516792 1.212e-21)
(0.00103529 -0.000264378 0)
(-0.00128494 7.38141e-05 -7.28929e-22)
(-0.00126619 0.00397864 -1.2039e-21)
(-0.000818077 -0.00814241 9.75017e-23)
(-0.00048278 -0.00699427 -1.31795e-22)
(-0.00150898 -0.00191516 -1.44768e-21)
(-0.000387563 -0.00594652 0)
(-0.000800855 -0.00304803 4.22778e-21)
(-0.000465771 -0.00208317 -6.99481e-21)
(-0.00046912 0.00114644 0)
(-0.000303671 0.0012148 1.37603e-21)
(4.84184e-05 -4.12264e-05 -1.60761e-21)
(-0.000280302 0.00368901 3.12366e-21)
(-4.75212e-05 0.0040532 -4.76224e-21)
(0.000879782 0.00305125 1.48081e-21)
(0.000960645 0.00307457 -6.78316e-22)
(0.00127028 0.000338117 0)
(0.000849965 1.69148e-06 -4.57127e-21)
(0.00123965 0.000597245 2.49709e-21)
(-0.000581286 -0.00457446 -3.565e-21)
(0.000547619 -0.000864453 -1.9952e-21)
(-0.000866367 -0.00513945 0)
(0.000962655 0.00189426 0)
(0.00121081 0.00158102 3.36468e-22)
(-0.00122618 -0.00177215 -2.66333e-23)
(-0.00106024 -0.00192503 5.50788e-22)
(-0.000720415 -0.000550526 2.83674e-21)
(-0.000905199 -0.00048567 -2.85888e-21)
(-0.000313191 0.00163368 -2.50258e-21)
(-0.000581755 0.0021703 2.19141e-21)
(0.000111464 -0.000214775 -2.20814e-22)
(0.000397538 -0.000999453 2.2733e-22)
(-0.000392099 -0.0014158 0)
(-0.000504654 0.00359998 3.03386e-21)
(0.00056081 0.00378808 0)
(0.000800301 0.00339687 -1.74669e-21)
(-0.000342702 -0.00517599 -3.80512e-21)
(-0.000660942 -0.00650159 3.83396e-21)
(-0.000644611 -0.00203036 3.41349e-22)
(0.00111338 -0.00257651 2.72566e-21)
(0.000298014 -0.0026732 2.97369e-22)
(8.27346e-05 -0.00036057 0)
(0.00030912 -0.000488235 2.1354e-22)
(-0.000497393 0.00377771 -1.73666e-21)
(0.000415188 -0.00159655 -4.87586e-23)
(-0.000206588 0.00290173 -3.3217e-23)
(4.19098e-05 -0.00274598 -3.67242e-21)
(3.34627e-05 -0.0036785 -1.19701e-22)
(0.000586727 -0.00215105 1.64043e-21)
(0.000982226 -0.00235851 0)
(-0.00166314 -0.0020664 0)
(-0.00132345 -0.00258109 -4.46079e-21)
(-0.000389862 0.00304401 0)
(0.000148053 -0.000521944 4.90329e-22)
(-0.00111505 0.00766706 6.55643e-21)
(-0.0019297 -0.00111417 5.6757e-21)
(-0.00101386 -0.00199492 -3.84485e-21)
(-0.00136023 0.00527587 -5.23474e-22)
(0.000391428 -0.00200421 -3.82821e-21)
(-0.00105128 -0.0006062 -3.88093e-21)
(0.000149829 -0.000878457 6.22784e-24)
(-0.000727375 -0.00791986 -1.09006e-21)
(-0.000196337 -0.00381331 4.12183e-21)
(-0.00117228 -0.0022312 4.46024e-21)
(-0.00106443 0.00752152 -3.30794e-21)
(-0.000981472 -0.0044549 0)
(0.000507613 -0.00276862 2.15423e-21)
(-0.000878373 0.00303299 -5.42222e-21)
(0.000624221 -0.00150095 1.74277e-21)
(-0.00135901 -0.0010656 -4.16412e-21)
(-0.000876476 -0.00551026 -1.48091e-21)
(-0.00159215 -0.00177554 -3.57548e-21)
(-0.000563266 -0.003328 3.22803e-21)
(-0.000458295 0.00798681 0)
(0.000353201 0.000357293 1.43122e-21)
(-0.000159564 0.00401248 -6.36911e-21)
(0.000121487 0.000266685 8.37298e-21)
(-0.000409544 0.00693089 0)
(-0.00181532 -0.00156368 2.27668e-22)
(-0.00159763 0.00673364 -3.27995e-21)
(0.000339645 0.00055308 0)
(0.00151081 -0.000544605 0)
(-0.00150333 0.00309309 -3.4056e-21)
(-0.000684634 0.00744751 4.75669e-21)
(-0.000687383 0.00842637 0)
(-0.000990897 0.000276491 3.5577e-21)
(-0.000422466 -0.00723199 -1.71371e-21)
(-0.000778042 0.0007333 -3.50456e-21)
(-0.00172494 -0.0010393 -2.76533e-21)
(-0.00124297 -0.00246953 3.58371e-21)
(0.000613344 0.000408438 -1.31244e-21)
(-0.000269645 0.00242611 -8.86855e-21)
(-0.00190899 -0.000207171 6.07422e-22)
(0.00161098 -6.51278e-05 0)
(0.000354619 -0.00324169 4.75097e-22)
(0.00172079 0.000249358 0)
(-0.00104791 -0.00131293 2.61206e-23)
(-0.000770196 -0.00099604 0)
(-9.35127e-05 0.00223574 -3.41474e-21)
(4.85575e-05 5.53961e-05 0)
(-0.0011664 -0.000351251 3.80616e-21)
(-0.000549792 0.00629813 -4.76986e-21)
(0.000513068 -0.00351108 0)
(-0.000854263 0.00136423 0)
(0.000841782 -0.00298811 -2.78192e-21)
(-0.000879711 0.000104272 0)
(-0.000746056 0.00427209 5.71821e-21)
(0.00152377 -0.000950268 1.0095e-22)
(0.00180579 -0.000109186 -6.40666e-23)
(-0.000198143 0.00364581 7.76829e-21)
(0.000148911 0.000614463 9.51779e-21)
(-0.00014993 0.00145469 7.14384e-21)
(0.000430192 0.00116575 -4.82015e-22)
(0.000592243 -0.00348891 2.95132e-21)
(-0.00228037 -0.00192883 -9.7468e-24)
(-0.0020274 0.00453596 1.72311e-21)
(-0.00154614 -0.00612239 -1.17887e-21)
(-0.00143696 -0.00183403 0)
(-0.00118626 0.00151694 3.32486e-21)
(-0.0025294 0.00282742 -1.73792e-21)
(-0.000471066 0.00143891 0)
(-0.000972949 -8.57714e-05 0)
(-9.54808e-05 0.00205192 4.94641e-21)
(7.87775e-05 0.00021965 -6.50415e-21)
(-8.89881e-05 -0.0019263 -5.54475e-21)
(6.98243e-05 -0.00016704 -4.04604e-22)
(0.00179703 0.000335336 0)
(0.000388336 0.00237334 0)
(-0.000127998 0.00179683 -6.17674e-21)
(8.26817e-05 0.000411921 -1.44226e-20)
(0.000931205 -0.000992321 -3.18583e-21)
(-0.00181683 0.00338195 1.74849e-21)
(4.58015e-05 0.000991035 5.10921e-21)
(0.000148289 0.00141687 0)
(-0.000967747 0.000865941 0)
(-0.000706898 -0.00194622 -5.87285e-23)
(0.00169581 -0.000880718 3.68801e-21)
(0.000153635 0.000996012 8.89943e-21)
(-0.00066152 0.00319005 -5.72556e-21)
(0.00173786 -0.000172656 0)
(0.000598773 0.000973048 0)
(-0.000625833 -0.00271828 -7.48741e-23)
(7.78283e-05 0.00196081 -1.14328e-20)
(0.0016138 0.000458796 1.55978e-22)
(0.00162881 0.00131391 4.79792e-21)
(-0.00284758 -0.00334747 2.28911e-21)
(-0.00112969 0.00211897 -3.3395e-21)
(-0.000258047 0.00308813 -7.09826e-24)
(0.000109201 0.0017581 -8.05271e-21)
(-0.000313273 0.000674424 0)
(0.00147483 -0.000171203 0)
(-0.00267913 -0.000348926 -8.43603e-23)
(-0.000943934 0.00656684 5.49643e-21)
(-0.0031362 -0.00040526 0)
(0.00128299 0.000543258 -4.43243e-21)
(-0.000502525 0.0022791 1.06995e-20)
(3.46584e-05 0.00109426 8.26073e-22)
(2.80314e-05 0.0021338 4.2657e-21)
(8.71827e-05 0.000633904 0)
(-0.00292296 -0.00125237 4.60072e-22)
(5.19273e-05 0.0035308 3.44025e-21)
(-0.000369275 -0.000952845 -4.32379e-21)
(-8.02294e-05 0.000551078 1.18733e-20)
(-0.000104635 0.000894452 -3.03501e-22)
(-0.00155203 0.00674577 -3.64709e-21)
(-0.000231262 0.00178463 -3.14913e-22)
(0.000567129 0.00303663 -1.46961e-21)
(-0.000165206 0.00126519 3.8925e-22)
(-0.000283424 0.00106551 -4.95304e-21)
(0.00105185 -0.000255836 4.39568e-21)
(0.000769405 0.000557931 -1.65417e-23)
(-0.00253452 -0.00452048 2.12712e-21)
(-0.000305145 8.3176e-05 -5.18598e-22)
(0.00070262 0.00229971 4.33292e-21)
(-0.00037246 4.30697e-05 5.22357e-21)
(-5.60866e-05 3.89142e-06 0)
(-9.05051e-05 9.69573e-05 5.69005e-21)
(-8.92125e-05 -0.00042222 7.01112e-22)
(-8.57509e-05 -0.0001538 1.68188e-22)
(-0.000125215 8.89064e-05 0)
(-6.45126e-05 0.000143799 -5.44315e-21)
(-0.00011545 0.000782686 -1.31732e-20)
(-7.89778e-05 0.000628658 1.14685e-23)
(0.000140875 -0.00350493 -3.37981e-24)
(-9.00004e-05 0.000384353 6.8041e-21)
(4.62757e-05 -0.000866846 -2.64273e-21)
(0.00017048 -0.00298485 -2.79334e-21)
(-0.000986125 -0.00298411 4.94309e-24)
(-0.000600108 -0.0026897 -4.96639e-24)
(-3.92651e-05 0.00398499 -3.16292e-21)
(0.000236547 -0.00378306 3.33831e-24)
(-5.45697e-05 -0.000130208 5.41757e-21)
(-0.000122312 -0.00352294 4.42225e-21)
(9.70275e-06 -0.00312591 0)
(-0.000340168 -0.00261848 0)
(3.3114e-06 -0.00180701 0)
(-0.000389106 -0.00324015 4.62052e-24)
(-5.2268e-05 0.000275814 0)
(6.40414e-05 -0.00172507 -6.3727e-22)
(-1.68665e-05 -0.000952056 0)
(-5.36879e-05 -0.000865798 -4.54953e-21)
(-0.000127126 -0.00149436 6.89053e-21)
(-0.000142844 0.00109662 7.0042e-21)
(7.69556e-05 0.000884208 6.01326e-21)
(-8.57191e-05 -2.6351e-05 0)
(7.67098e-05 -0.000543333 3.45839e-23)
(-8.60774e-05 0.000749907 1.83266e-21)
(-1.11857e-05 0.00119044 0)
(-5.67327e-05 0.000396274 -5.52222e-21)
(-6.32014e-05 -0.000281281 -5.81349e-21)
(1.85171e-05 -0.000947645 2.1085e-21)
(-0.000163053 -0.00127794 -7.24352e-22)
(-8.28861e-05 -0.000697932 -5.52034e-21)
(-6.64763e-05 0.000139285 -4.19741e-21)
(-6.45965e-05 -0.00173144 5.6839e-21)
(-0.000173943 -0.00300252 -4.42841e-21)
(-0.000308562 -0.00206437 7.7045e-21)
(0.000424492 -0.000300422 4.27954e-21)
(6.83813e-05 0.000595574 -4.06204e-21)
(-0.000317026 -0.000301306 0)
(-0.00119012 0.00202547 1.34854e-21)
(-0.000664841 0.000492631 -8.66175e-23)
(-0.00105477 -0.000421252 -3.21963e-21)
(-0.00137123 0.000378465 3.18807e-21)
(-0.00127427 0.00239308 -1.15348e-22)
(-0.0016251 0.00151464 0)
(-0.00190387 -0.00146881 -3.0784e-21)
(-0.000954393 0.00316233 8.02164e-22)
(-0.00167159 -0.000408324 0)
(-0.00161383 0.00104363 -2.88921e-22)
(-0.00179896 0.000951889 -2.90716e-22)
(-0.00183195 0.000214652 2.24071e-21)
(-0.00117289 0.00161022 -1.38111e-21)
(-0.00199706 -0.000463715 -2.28743e-21)
(-0.00172031 0.000429698 -4.16104e-23)
(-0.00157379 0.00170553 6.08625e-22)
(-0.00201122 -1.67248e-05 0)
(-0.00203369 -0.000497251 0)
(-0.000858089 0.00131031 -4.46183e-22)
(-0.00192819 -0.000230412 -1.54869e-23)
(-0.000130091 0.00355644 0)
(-0.0014294 0.000387984 0)
(-7.97114e-05 0.00206351 0)
(-0.00149645 -8.94548e-05 6.2642e-22)
(-0.00103135 0.000770461 3.66023e-21)
(-0.00148642 -0.000418319 -2.22575e-21)
(-0.00159597 0.0023341 3.41601e-21)
(-0.00184567 -0.000512794 0)
(-0.00168903 -0.000418224 0)
(0.00138614 -0.00155626 0)
(-9.36154e-05 0.00106384 2.30869e-22)
(-0.00157618 -0.000511113 -5.7521e-22)
(-0.00132082 -0.000935584 0)
(-0.00146254 -0.000572928 5.43113e-22)
(-0.00149409 0.000214477 3.32031e-21)
(-0.00144697 -0.000508657 2.87054e-22)
(-0.00211379 -0.00261609 2.09622e-21)
(-0.00148012 -0.000692525 -2.87063e-22)
(-0.00262613 -0.00264306 -4.66843e-21)
(-0.0016004 -0.000471977 -1.72774e-24)
(0.00120787 -0.00125795 -9.85321e-23)
(-0.00141389 -0.00348117 -3.03767e-21)
(-0.00209622 -0.00194518 -2.12433e-21)
(0.000340592 0.00304602 -5.02643e-21)
(-0.00177969 -0.000823588 0)
(-0.00269064 -0.000449005 -4.61432e-22)
(-0.00156439 -0.00285147 -1.69595e-21)
(-0.00205589 -0.00477262 -8.02296e-23)
(-0.00206413 -0.000456841 0)
(-0.00236016 -0.00101696 0)
(-0.000450043 -0.00202189 -5.6791e-21)
(-9.70175e-05 -0.000475461 0)
(-0.0010702 0.00416917 -6.51089e-23)
(-0.00252307 0.00108197 4.39792e-24)
(0.00156237 -0.00143827 -2.59441e-23)
(-0.00016608 -0.00112783 0)
(0.000366502 -0.00215175 -1.67396e-21)
(-0.00191408 -0.00415965 -2.49926e-21)
(-0.00257075 0.00215083 -1.47485e-21)
(-0.00017433 -0.000695568 -7.87872e-21)
(-0.00260081 0.00382552 0)
(0.00123645 -0.00192392 0)
(-0.0029509 0.0016704 1.51749e-21)
(-0.00280554 0.00299346 1.10388e-23)
(-0.00297083 0.00228294 -7.79396e-24)
(0.00141905 -0.00190351 -3.62653e-21)
(0.000650584 -0.00261074 7.78962e-21)
(-0.00149502 -0.000539369 2.28055e-21)
(-0.000480288 -0.0013057 1.15735e-20)
(-0.000158921 -0.000268393 0)
(-0.000430894 0.000871231 -4.62094e-23)
(-0.000503255 0.000294202 -5.22699e-21)
(-0.0020661 0.0057333 3.61437e-21)
(-0.00252567 -0.00355955 2.82912e-21)
(-0.00315975 -0.00147597 -3.14614e-23)
(-0.00161684 -0.00653161 -5.84296e-21)
(-0.000241212 -0.00605859 1.96789e-21)
(-0.000594462 0.00264986 -3.50437e-22)
(-0.00128741 -9.32406e-05 -2.01906e-21)
(-0.0012739 0.00033542 -3.53385e-21)
(-0.000356039 0.00243829 -6.06345e-22)
(-0.000701672 0.0053715 -1.1099e-20)
(-0.000355264 0.00159215 -5.11076e-21)
(-0.000506646 -0.00357577 -4.12275e-21)
(0.00163245 -0.00124878 3.1788e-23)
(-0.00174432 -0.000752235 0)
(-0.002917 -0.00172135 1.43437e-23)
(-0.00154921 0.000811152 -3.15429e-21)
(-0.00205855 0.00140099 0)
(-9.53763e-05 -0.000238586 6.25327e-21)
(-0.00182184 0.00556821 0)
(0.000679206 -0.000193264 0)
(-0.00264302 -0.00414461 -2.15625e-21)
(0.000916796 0.00233488 4.78776e-21)
(-0.00061795 -0.000371107 -1.89064e-23)
(-0.00110193 0.00541383 5.65488e-21)
(-0.000300556 0.000584332 4.99436e-21)
(-0.00313712 -0.000330951 1.70248e-23)
(0.000106547 -0.0015206 4.67532e-22)
(0.000137143 -0.00122186 -4.27097e-22)
(-0.00218554 -0.0054414 1.36805e-21)
(0.00103367 -0.00165113 0)
(-0.00221694 0.00456139 -3.63586e-21)
(0.000236343 0.0038817 -2.34592e-21)
(-0.000678115 0.00272988 1.94075e-22)
(0.000209173 1.3423e-05 -1.80681e-21)
(-0.00135382 -0.000111393 3.76593e-21)
(-0.000637356 -0.00353283 -4.5901e-24)
(0.000978931 -0.00183842 -3.83755e-21)
(0.00109912 0.00251877 -4.60711e-21)
(0.000266235 -3.28942e-05 -3.45734e-21)
(-0.00063977 0.00212348 -1.64558e-22)
(0.000330834 0.00400671 4.49257e-21)
(0.000113945 -4.21801e-05 1.92219e-21)
(-0.00063779 -0.008028 0)
(-0.00201573 0.00337562 -4.16254e-23)
(-0.0017911 0.00428869 3.62372e-21)
(-0.00193311 0.000593277 1.50358e-21)
(0.000969278 -0.000692974 1.49009e-21)
(6.82628e-05 -0.000730759 1.05336e-21)
(-0.00117853 -0.00140458 4.15208e-21)
(0.00047859 -1.14433e-05 4.23105e-21)
(-0.000992021 -0.00319243 0)
(0.00111022 -0.00230882 -1.02563e-22)
(0.000375693 -7.98777e-05 -2.18454e-21)
(-0.000445875 -0.000592343 0)
(-0.000701423 -0.00113656 -5.7172e-21)
(0.000881609 -0.00310883 -3.04316e-21)
(-0.000208791 0.00429626 -3.13961e-22)
(-8.88348e-06 7.88855e-06 0)
(-6.09715e-05 0.00202984 1.68525e-22)
(6.29389e-06 -6.97501e-06 -2.54262e-21)
(-0.000837073 0.00871711 0)
(0.000215784 0.000105834 -2.64408e-21)
(-0.000985849 -0.00169108 1.65686e-21)
(0.000150371 0.000153146 1.55578e-21)
(-0.000403531 0.00719466 0)
(-0.000653816 -0.00836287 4.73867e-23)
(3.23508e-05 -2.23556e-05 2.20536e-21)
(0.0012199 -0.000536239 0)
(-0.000792101 0.000203667 0)
(-0.000162563 -0.00317586 0)
(0.000587214 0.00160062 3.96872e-21)
(0.000140533 -6.96776e-05 0)
(-9.80396e-05 -0.00292089 1.15477e-20)
(-0.00171613 -0.00478756 -2.12193e-23)
(-0.000454851 0.000523779 0)
(-0.000275696 -0.00240057 -2.2828e-22)
(0.00142448 6.82697e-05 0)
(-0.00123612 -0.00703949 3.18674e-21)
(0.00037764 0.00349051 8.40393e-21)
(-0.000228757 -0.00187404 1.79051e-20)
(0.000545183 0.00225655 1.87964e-21)
(-0.000112391 -0.000707857 0)
(-0.000468185 -0.000830344 4.6132e-21)
(-0.000421247 -0.000232182 0)
(-0.00129728 -0.00118739 7.79159e-22)
(-0.00127697 -0.00022172 1.90516e-22)
(-0.0016591 -0.00181426 0)
(-0.00116632 -0.000747696 4.61358e-22)
(0.000913165 0.000651576 -2.88724e-21)
(-0.000106358 0.000376645 0)
(-0.000135712 0.000992124 0)
(-0.000925671 0.00290554 3.23218e-22)
(-0.00101954 0.00207577 0)
(-0.000105288 0.00133245 -1.7387e-21)
(-0.000119993 0.00162275 -1.62768e-21)
(-0.000829909 0.00260896 -1.34571e-21)
(0.000865685 0.00265292 -4.33264e-21)
(0.00037786 0.00294388 0)
(0.00143707 0.00189267 -1.06394e-20)
(0.000183227 0.00376348 0)
(-0.00142787 -0.00605531 3.14921e-21)
(-0.000928988 0.0078075 0)
(0.000120015 2.53405e-05 0)
(-0.000627735 -0.00854252 0)
(2.0349e-05 -2.73656e-05 -1.38135e-21)
(-0.000845969 -0.000569487 -3.11e-23)
(-0.000813853 -0.00631306 0)
(-0.000115184 -0.00190498 0)
(3.85358e-06 8.10848e-06 2.13809e-21)
(-0.000322284 -0.00383726 0)
(-8.43879e-06 -4.25513e-09 -2.81862e-21)
(-0.000965044 0.00573635 3.47486e-22)
(0.000670766 -0.000487055 1.79399e-21)
(0.000690386 0.000150493 0)
(0.0016006 0.000794837 2.72874e-21)
(0.000943758 0.000192396 0)
(-0.000743747 0.00819467 0)
(-3.81743e-05 -0.00143008 0)
(0.000379213 -0.000389177 9.6796e-23)
(0.000555149 0.000234574 2.37472e-21)
(-0.000881659 0.00532736 -3.45071e-22)
(0.000560917 -0.000279238 2.04352e-21)
(0.000351791 3.23358e-05 2.62058e-21)
(-0.00121492 -0.00731022 1.17162e-21)
(-8.45921e-05 -0.00119056 -6.46264e-21)
(-0.000574519 -0.00790286 -1.93353e-22)
(-0.00199519 -0.00529329 2.37006e-21)
(-0.000127632 -0.000756167 -7.48187e-21)
(-0.000177898 -0.00111142 5.1361e-21)
(-7.65137e-05 -0.000425126 -3.71368e-21)
(-0.000217541 0.00411534 4.95694e-21)
(4.20442e-05 4.22019e-05 3.78733e-21)
(-0.00162061 -0.00130429 -8.3661e-22)
(-0.000256761 -0.000379977 -1.89407e-22)
(0.0008798 0.00103181 5.86254e-21)
(-0.00132974 -0.00054918 -1.42094e-21)
(-5.35523e-05 0.000259116 0)
(-9.5468e-05 0.000600994 -1.17054e-21)
(0.00151248 0.00134898 -2.86041e-21)
(-5.57755e-05 0.000367804 0)
(0.000365904 0.00166722 -4.00504e-21)
(-0.00123437 0.0023246 0)
(-4.21705e-05 0.0006808 8.02968e-22)
(-0.000605558 0.00196088 1.55818e-22)
(-0.000242663 0.00272736 -1.73479e-21)
(0.00148493 0.0016448 7.78379e-21)
(7.76209e-05 0.00223992 -1.38763e-22)
(0.00124978 0.00223526 -2.76036e-21)
(0.000181109 0.00317417 -2.94392e-21)
(0.00117404 0.00183778 2.86874e-21)
(-0.000285071 0.00373284 3.42007e-22)
(-0.000626091 -0.00144869 0)
(-0.00087439 -0.00368748 -2.14562e-22)
(-0.00113842 -0.00236811 3.61741e-21)
(0.00141139 0.000842173 0)
(-0.000645191 0.00350639 -8.60332e-22)
(-0.000476495 0.000266191 0)
(-0.000792938 0.000570452 -2.31091e-21)
(7.49376e-05 -8.51254e-05 -1.55309e-21)
(0.000303185 -0.000165483 -1.16921e-22)
(0.00021651 -0.000208074 -2.52794e-22)
(8.7092e-06 -1.54603e-05 3.04046e-21)
(-8.81132e-05 -0.0032499 0)
(-0.000478534 -0.00647721 -2.49404e-22)
(0.00115776 0.0012448 -7.35663e-21)
)
;

boundaryField
{
    back
    {
        type            empty;
    }
    front
    {
        type            empty;
    }
    left
    {
        type            noSlip;
    }
    top
    {
        type            uniformFixedValue;
        uniformValue    
        {
            type            scale;
            scale           
            {
                type            squarePulse;
                start           0.3;
                duration        0.3;
            }
            xScale          
            {
                type            constant;
                value           1;
            }
            value           
            {
                type            constant;
                value           (0 -0.7 0);
            }
        }
        value           uniform (0 -0 0);
    }
    right
    {
        type            noSlip;
    }
    bottom
    {
        type            zeroGradient;
    }
}


// ************************************************************************* //
