/*--------------------------------*- C++ -*----------------------------------*\
  =========                 |
  \\      /  F ield         | OpenFOAM: The Open Source CFD Toolbox
   \\    /   O peration     | Website:  https://openfoam.org
    \\  /    A nd           | Version:  9
     \\/     M anipulation  |
\*---------------------------------------------------------------------------*/
FoamFile
{
    format      ascii;
    class       volScalarField;
    location    "0.85";
    object      p;
}
// * * * * * * * * * * * * * * * * * * * * * * * * * * * * * * * * * * * * * //

dimensions      [0 2 -2 0 0 0 0];

internalField   nonuniform List<scalar> 
578
(
-4.41538e-17
-9.08781e-17
-3.67665e-17
-2.20468e-17
-7.96213e-17
2.33053e-17
5.75213e-17
-6.47528e-17
-6.44224e-17
-1.2783e-16
2.48067e-18
-6.61802e-17
-2.52259e-17
-7.77814e-17
5.2213e-17
-2.04085e-17
-5.13007e-17
-4.68097e-17
-5.2881e-17
-4.88587e-17
-2.15955e-17
-1.68294e-17
-3.82738e-18
-4.9474e-18
-5.71343e-18
-4.74712e-17
-2.89756e-17
-3.3769e-17
-7.0742e-17
-1.76481e-17
-3.0266e-17
2.90037e-17
-3.90641e-17
-1.88891e-17
4.65332e-17
-4.13394e-17
-7.02733e-17
-6.10158e-17
-1.59701e-17
-8.99957e-17
-7.44578e-17
-5.85059e-17
-6.99057e-17
5.46405e-17
-3.43468e-17
7.22861e-17
5.26219e-17
-6.83185e-17
-1.73569e-17
-3.03496e-17
4.7275e-17
-2.52907e-17
4.79081e-17
-1.99402e-17
-2.64425e-17
-5.00763e-17
-4.67876e-18
-8.21037e-18
-3.39817e-17
-5.40584e-17
-4.94655e-17
-6.37742e-17
-6.14957e-17
-8.53361e-17
-2.68461e-17
4.91503e-17
-2.94354e-17
1.11118e-17
2.96001e-18
-4.67731e-17
-1.64633e-17
2.66856e-17
-2.65817e-17
-5.55043e-17
9.55564e-19
-9.05259e-17
-7.73514e-17
-6.66784e-17
-2.63015e-17
2.98825e-17
3.54884e-17
-7.15201e-17
6.19257e-17
5.77581e-17
4.40555e-19
4.18209e-17
5.85615e-17
-4.06043e-17
-5.42329e-17
3.77901e-17
-2.87131e-17
1.65197e-17
4.62589e-17
-2.39521e-17
8.29947e-18
2.91249e-17
-2.6683e-17
-2.64587e-17
-1.21886e-16
5.29851e-17
4.65232e-17
-5.21496e-17
-2.88019e-17
2.19025e-17
-2.76859e-17
-7.71257e-17
3.74859e-18
-9.08639e-17
4.9604e-17
-8.29517e-17
-3.87027e-17
-4.92338e-17
-5.31447e-17
1.88155e-17
2.29343e-17
-2.79751e-17
-2.28616e-17
-5.30639e-17
3.65813e-17
-2.71358e-17
-4.17038e-17
8.69902e-17
-5.89716e-17
-2.25075e-17
4.29458e-17
2.51315e-17
2.57166e-17
-1.89301e-17
4.45605e-17
6.82234e-18
4.59854e-17
2.23954e-17
-2.37736e-17
-4.46695e-17
4.11442e-17
3.81553e-17
-7.74718e-17
-2.78428e-17
5.85561e-18
4.62665e-17
5.06784e-17
1.43318e-17
4.48322e-17
-3.98277e-17
-5.15595e-17
3.96889e-18
1.72438e-17
-3.19226e-17
-5.87849e-17
-4.90141e-19
-6.98272e-17
1.05293e-17
-8.48571e-17
-4.07132e-17
5.23468e-17
-3.04163e-17
-5.87408e-17
-2.31515e-17
5.08061e-17
-7.12605e-17
-7.39285e-17
-7.30587e-17
5.33537e-17
-6.84004e-17
-5.0446e-17
1.49518e-17
-4.16491e-17
5.29292e-17
-2.14055e-17
-2.67081e-17
-6.42724e-17
-7.92864e-17
3.94693e-17
3.43956e-17
5.18388e-17
-2.73757e-17
-2.61927e-17
-5.06187e-17
-6.90838e-17
-6.59358e-17
5.74177e-17
-7.4294e-17
3.32907e-17
-2.61233e-17
3.96723e-17
-3.07187e-17
-2.12598e-17
5.96816e-17
5.05988e-17
-8.52295e-17
-7.32738e-17
-7.20837e-17
3.28064e-18
5.13725e-17
-1.02756e-16
-2.58323e-17
-1.87294e-17
-3.34335e-17
4.8008e-17
-7.27442e-17
-2.24897e-17
-2.52915e-17
9.19665e-17
-2.77299e-17
-2.67231e-17
-7.32689e-17
4.57698e-17
-1.58096e-17
-7.18463e-17
-6.18607e-18
9.22834e-18
4.63441e-17
3.93606e-17
-2.54069e-17
4.06043e-17
-2.33125e-17
5.03532e-17
-7.28697e-17
5.11216e-17
2.14454e-17
-7.16885e-17
5.1871e-17
-2.97337e-17
-7.42137e-17
5.66194e-17
2.47615e-17
-2.51048e-17
-2.03779e-17
-3.22877e-17
-7.16996e-17
-1.15308e-16
8.63545e-17
3.86053e-17
-2.55902e-17
2.47082e-17
-6.02392e-17
-7.51822e-17
5.35463e-17
-2.45494e-17
-1.11223e-17
5.59048e-17
-7.89249e-17
-2.64887e-17
5.67467e-17
-3.31138e-17
-5.26468e-17
4.71969e-17
-1.15775e-16
3.19712e-17
-2.42453e-17
-2.56892e-17
3.35446e-17
3.66313e-17
7.09528e-18
2.9829e-17
-1.58255e-17
-6.11417e-17
4.58949e-17
-6.49725e-17
7.4536e-17
-2.43404e-17
5.70425e-17
-1.86293e-17
-1.75458e-17
-7.48102e-17
-3.60485e-17
1.70811e-17
-1.23367e-17
-9.88234e-17
2.05584e-17
-2.09192e-17
1.94851e-17
8.89758e-18
-2.53632e-17
-2.47524e-17
-2.40633e-17
-2.7464e-17
1.06197e-17
5.12143e-17
-2.14785e-17
-7.64225e-17
-2.5732e-17
-2.51168e-17
-2.49857e-17
-2.36924e-17
4.4826e-17
-3.03368e-17
2.62618e-17
-1.46297e-17
-1.78378e-17
8.13722e-18
3.15876e-17
-2.81619e-17
4.51379e-17
-1.91781e-17
-1.79981e-17
-7.537e-17
-7.41673e-18
-2.8339e-17
-1.94586e-17
-2.32411e-17
-8.83889e-18
-2.48754e-17
-3.44483e-17
-1.81137e-17
-2.3232e-17
-4.70403e-19
-5.775e-17
-2.20318e-17
-2.32652e-17
-1.96104e-17
-2.72892e-17
-2.28386e-17
-1.00355e-17
-1.9197e-17
-2.48834e-17
2.90477e-17
-8.10785e-18
-1.76442e-17
-1.94074e-17
3.04846e-17
-2.50444e-17
-2.54725e-17
-1.1212e-17
-2.67209e-17
-2.71095e-17
4.53739e-17
5.18258e-17
-7.15393e-17
-2.75811e-17
-2.74505e-17
3.72054e-17
-2.49407e-17
-2.66444e-17
3.70558e-17
-1.55548e-17
-2.40548e-17
-2.62375e-17
-4.37676e-17
-2.81176e-17
-2.49718e-17
-2.49831e-17
-2.7151e-17
-5.12657e-17
-1.94278e-17
3.38462e-17
1.00989e-17
4.261e-17
-5.33155e-17
4.87127e-17
-6.03174e-17
-6.78643e-17
5.12873e-17
-4.14766e-17
-8.71152e-17
6.57856e-17
-1.44306e-17
6.10124e-17
-9.31916e-17
6.37557e-17
-2.2277e-17
-4.24262e-17
-1.64546e-17
-4.15787e-17
-2.21755e-17
-1.71114e-17
-2.67255e-17
2.68985e-17
-2.44501e-17
-1.98587e-17
-6.28535e-17
-6.68214e-17
7.0951e-18
1.14839e-17
7.72095e-18
6.04151e-17
-2.86079e-17
4.8172e-17
-6.24642e-17
-3.07553e-17
-2.7119e-17
-6.5065e-17
5.21406e-17
-9.19824e-18
-1.45503e-17
-2.15288e-17
-1.72737e-17
6.17578e-17
5.59895e-17
-4.85105e-17
-2.57967e-17
-7.47448e-18
-5.84227e-18
-1.70661e-17
-2.10648e-17
-1.25339e-17
3.24438e-17
-3.3675e-17
-9.71419e-18
-4.88849e-18
-1.49731e-17
1.82272e-17
-1.77147e-17
-5.63877e-17
-2.79028e-17
-2.7026e-17
1.56623e-17
-3.3577e-17
-1.65002e-18
1.55485e-17
-2.36455e-17
-6.61759e-17
-4.77042e-17
2.82619e-17
-3.57425e-17
2.29619e-18
-5.79603e-17
4.13001e-17
-7.34285e-17
-2.9839e-17
4.72773e-17
6.60976e-18
-6.2015e-17
5.63163e-17
3.72708e-17
-2.77582e-17
-4.13115e-17
-5.93717e-17
-5.19418e-17
-2.56084e-17
2.60279e-17
-1.07033e-17
-3.75207e-18
-2.56768e-17
3.29598e-17
-3.67065e-17
-6.40857e-17
-5.09794e-17
-3.4871e-17
-3.42016e-17
-4.5576e-17
-2.31917e-17
-2.26083e-17
-2.89261e-17
3.56567e-17
-3.29454e-17
-3.02582e-17
2.91132e-17
2.91871e-17
-2.85201e-17
4.85294e-17
-2.86585e-17
3.49441e-17
-2.47735e-17
4.71324e-17
-2.52074e-17
-8.91106e-17
-2.33466e-18
-9.76095e-18
-5.58054e-17
6.39689e-17
3.52428e-17
-5.20392e-17
-3.66574e-17
-3.33324e-17
-5.75757e-17
3.37863e-17
-8.21115e-17
-4.04046e-17
-3.48959e-17
-3.30269e-17
-3.47105e-17
2.41155e-17
-3.03206e-17
-3.57081e-17
-6.097e-17
-4.0464e-17
-5.69872e-17
-3.7852e-17
-5.20034e-17
-1.0662e-17
-2.02327e-18
-3.18914e-17
-3.1699e-17
-2.99905e-17
-3.21697e-17
-4.14373e-17
-2.97216e-17
-2.88004e-17
4.02353e-17
-2.35545e-17
2.51528e-17
-2.1902e-17
-2.35455e-17
-2.8173e-17
3.85278e-17
-2.65168e-17
4.4187e-17
-2.9433e-17
-2.38627e-17
-7.29e-17
-2.96847e-17
-3.57571e-17
-2.34479e-17
-4.90554e-17
-2.95336e-17
4.28534e-17
-2.17275e-17
3.02441e-17
-2.88566e-17
-2.92009e-17
3.94719e-17
-2.27479e-17
7.04839e-17
4.81492e-17
-2.82842e-17
-6.55568e-17
-8.66445e-17
1.4925e-17
-2.4194e-17
-4.01615e-18
6.85151e-18
-3.71445e-17
-4.92433e-17
-5.44306e-17
-2.42314e-17
-3.45128e-17
-2.13535e-17
-6.85301e-17
-7.04051e-17
-7.09913e-17
-6.52576e-17
-3.36746e-17
-2.94229e-17
2.92434e-17
2.82679e-17
1.06215e-17
4.07321e-17
2.66564e-17
-3.034e-17
-2.29647e-17
2.63077e-17
-4.50267e-17
-4.7758e-17
3.75177e-17
-1.69244e-17
-3.96373e-19
-5.03657e-17
-4.32968e-17
-4.33096e-17
1.25527e-17
5.18649e-17
-4.24801e-17
4.16356e-17
1.51368e-17
-4.15561e-17
-7.25018e-17
-3.05601e-17
-2.4544e-17
-2.96646e-17
-2.89098e-17
4.58539e-17
-5.72648e-17
-2.96813e-17
-2.35611e-17
1.0524e-17
-2.48713e-17
-5.18533e-17
-2.89878e-17
-2.43022e-17
4.54803e-17
-5.10401e-17
1.66116e-17
-6.85365e-17
-3.54864e-17
-9.4759e-19
1.43745e-17
6.40791e-18
)
;

boundaryField
{
    front
    {
        type            empty;
    }
    back
    {
        type            empty;
    }
    bottom
    {
        type            uniformFixedValue;
        uniformValue    
        {
            type            scale;
            scale           
            {
                type            squarePulse;
                start           0.3;
                duration        0.3;
            }
            xScale          
            {
                type            constant;
                value           1;
            }
            value           
            {
                type            constant;
                value           15.1;
            }
        }
        value           uniform 0;
    }
    left
    {
        type            zeroGradient;
    }
    top
    {
        type            zeroGradient;
    }
    right
    {
        type            zeroGradient;
    }
    inner_arc
    {
        type            zeroGradient;
    }
}


// ************************************************************************* //
