/*--------------------------------*- C++ -*----------------------------------*\
  =========                 |
  \\      /  F ield         | OpenFOAM: The Open Source CFD Toolbox
   \\    /   O peration     | Website:  https://openfoam.org
    \\  /    A nd           | Version:  9
     \\/     M anipulation  |
\*---------------------------------------------------------------------------*/
FoamFile
{
    format      ascii;
    class       surfaceScalarField;
    location    "0.85";
    object      phi;
}
// * * * * * * * * * * * * * * * * * * * * * * * * * * * * * * * * * * * * * //

dimensions      [0 3 -1 0 0 0 0];

internalField   nonuniform List<scalar> 
816
(
1.5213e-24
5.02299e-23
-5.17512e-23
-1.75231e-23
7.02522e-23
-5.27291e-23
-8.7371e-23
8.88923e-23
4.49732e-24
-6.10879e-24
1.61146e-24
4.92023e-23
-4.92023e-23
-2.74744e-23
3.41616e-23
-6.68728e-24
-5.14464e-23
5.14464e-23
-4.61911e-23
4.61911e-23
-1.04657e-22
3.15694e-25
1.04342e-22
1.27337e-23
-3.02568e-23
2.59693e-23
-5.34436e-23
1.22473e-22
-8.86695e-23
-3.38035e-23
1.82103e-24
-1.45072e-24
-3.70305e-25
1.18387e-22
-1.07261e-22
-1.11255e-23
-1.16903e-22
1.03181e-22
1.37219e-23
-8.98441e-23
1.47918e-22
-5.80742e-23
-5.617e-23
-1.59374e-23
7.21074e-23
1.07021e-22
-8.66164e-24
-9.83592e-23
1.43816e-23
1.08091e-22
4.91471e-23
-1.53805e-22
8.58923e-24
-4.09188e-24
1.11017e-23
-1.00946e-22
5.87185e-23
-2.46887e-23
-3.40297e-23
1.50175e-23
7.00686e-24
-2.20244e-23
1.74345e-23
-2.41703e-24
-1.00664e-22
2.46317e-23
7.60321e-23
6.87916e-24
-6.18645e-24
-6.92713e-25
2.1127e-24
-4.32981e-24
2.21712e-24
3.36771e-23
3.65751e-23
5.15064e-23
9.6412e-23
7.61429e-24
-5.5016e-24
1.03003e-23
2.38613e-23
1.56367e-22
-1.0486e-22
2.08888e-23
-1.45651e-23
-6.32372e-24
-1.15521e-23
-1.05351e-22
-2.53401e-23
1.21752e-22
1.08542e-23
1.07533e-22
-1.47335e-23
-8.59303e-23
1.52215e-22
-5.54293e-23
-9.67854e-23
3.05752e-23
1.8627e-23
-3.83481e-23
-3.18095e-23
3.14576e-23
1.03898e-22
-7.16724e-25
-5.29409e-23
-2.53529e-23
7.82938e-23
-3.09077e-23
-2.05387e-23
3.98944e-23
9.68719e-23
-9.65562e-23
6.48437e-23
2.22127e-24
4.65786e-24
-5.72155e-24
-1.51547e-24
7.23701e-24
1.52661e-24
2.94442e-25
4.28279e-23
1.58905e-23
1.22895e-23
8.59935e-24
-6.38682e-25
6.38682e-25
3.32834e-23
-1.01764e-23
-2.3107e-23
-2.46888e-23
-5.29409e-23
-1.21441e-22
6.52714e-23
4.17796e-23
-6.71197e-23
-1.44206e-23
1.99144e-23
-3.58518e-23
-4.45135e-23
3.58518e-23
-3.47622e-24
-1.03785e-22
2.30651e-24
-1.47327e-24
-8.33243e-25
1.0483e-22
-9.32115e-25
1.00156e-22
5.62106e-23
-4.33513e-23
6.93206e-23
-4.45184e-23
1.30213e-22
-8.56949e-23
2.36835e-23
8.68787e-23
-1.10562e-22
2.86935e-24
4.57878e-24
2.20947e-24
9.70373e-26
8.84011e-23
4.2625e-23
-1.31026e-22
2.44311e-23
-2.86293e-23
4.19826e-24
4.18243e-23
-4.18243e-23
-6.21129e-23
1.1126e-22
-8.39625e-23
2.18496e-23
7.58782e-25
-1.90325e-23
-3.27187e-23
5.17512e-23
-8.4374e-23
-3.3503e-23
1.17877e-22
5.02299e-23
3.7963e-23
-3.7963e-23
-5.6018e-23
5.6018e-23
-6.0357e-23
1.17646e-22
-5.72895e-23
3.01278e-23
9.26511e-24
-1.51546e-24
3.08086e-23
2.47479e-24
-2.61902e-24
-8.23085e-23
8.49275e-23
7.20465e-23
3.1214e-24
-7.51679e-23
1.42778e-24
4.30794e-23
-1.03436e-22
2.87937e-24
8.86246e-23
-9.1504e-23
3.9991e-24
-3.44985e-24
-5.49244e-25
-1.02593e-22
-1.12389e-24
9.33191e-23
-9.21952e-23
-5.41613e-25
2.68419e-25
1.27336e-23
8.25562e-24
-1.13606e-22
-1.30464e-24
1.06134e-22
-7.3336e-23
9.70195e-23
1.13263e-24
1.50905e-24
-2.64168e-24
-7.44618e-23
2.84579e-25
-2.84579e-25
-1.46473e-23
1.2218e-22
1.77438e-23
3.83481e-23
3.01278e-23
-3.87606e-24
-3.79483e-23
5.36482e-23
6.81038e-23
1.1151e-22
1.03716e-22
-1.28441e-22
2.47249e-23
1.73034e-24
-5.97721e-25
-4.54528e-24
-1.56349e-24
4.72437e-23
6.80818e-23
-1.15325e-22
-1.40292e-24
7.34494e-23
-2.57061e-25
5.41622e-25
-4.77393e-24
8.08061e-23
-6.36446e-23
7.62666e-24
2.21611e-23
7.30151e-24
1.28771e-24
-2.56817e-23
-9.47664e-23
1.02911e-22
-8.14455e-24
-1.58716e-23
-6.85024e-23
9.38701e-23
-6.59307e-23
-2.79394e-23
9.01753e-23
1.96694e-23
-1.07373e-22
6.17006e-25
1.06756e-22
-1.10477e-22
1.57104e-23
1.5241e-24
2.47503e-24
-2.66837e-23
2.66837e-23
-9.71074e-23
-1.02659e-23
-7.60384e-25
9.77527e-23
-9.69923e-23
-1.48948e-24
-8.71801e-23
-7.83722e-23
-5.00691e-23
-7.64489e-23
7.70659e-23
-1.32565e-24
2.89069e-23
-2.75813e-23
-2.03015e-23
-7.77745e-23
9.52533e-25
1.64977e-23
-1.74502e-23
-3.14576e-23
-1.11879e-24
-9.56666e-23
-1.10884e-23
-5.74392e-23
6.85276e-23
7.35403e-26
-5.70725e-25
4.97185e-25
9.8335e-23
-7.86656e-23
-1.19836e-22
-3.16966e-24
1.23006e-22
3.46191e-23
-3.46191e-23
4.17796e-23
4.67547e-24
2.20082e-23
1.15656e-23
1.09605e-22
-1.2117e-22
-9.53586e-25
3.17485e-24
-4.51514e-23
7.88286e-23
4.23102e-25
1.05543e-24
-1.47853e-24
-3.27187e-23
1.07894e-23
-1.30626e-22
-9.29959e-23
2.89069e-23
-9.39396e-23
9.07699e-23
-9.41554e-24
9.41555e-24
8.72466e-23
-8.46297e-24
-7.8761e-23
9.03267e-23
-6.17391e-26
4.84875e-25
8.93664e-24
-9.48445e-24
5.47811e-25
-8.96372e-24
-8.49758e-23
3.18095e-23
-3.3299e-23
3.58343e-23
-3.65947e-23
-3.21693e-24
2.47348e-23
-2.15178e-23
1.69338e-24
-8.04544e-23
3.27052e-24
-4.10376e-24
4.26438e-24
-9.93855e-25
1.12515e-22
-4.77705e-23
3.88068e-23
-5.49072e-24
-2.22538e-24
7.71611e-24
-3.15151e-23
3.32085e-23
-1.99731e-23
9.53166e-23
-7.53435e-23
-7.10302e-23
8.02954e-23
5.02316e-24
3.5694e-24
9.41832e-23
7.35365e-26
-6.71197e-23
4.55203e-23
4.83498e-23
1.12509e-22
5.35091e-24
-1.1786e-22
-7.40038e-24
1.90954e-24
-1.11881e-22
-5.37386e-24
1.17254e-22
9.43359e-23
-3.56599e-24
8.84336e-23
1.89312e-24
3.02568e-23
-5.10725e-24
-3.65001e-24
8.75726e-24
-4.84887e-25
1.50101e-24
-1.01612e-24
5.70743e-25
-1.52434e-24
9.22913e-23
-9.37844e-23
1.49316e-24
9.0904e-23
-8.89621e-23
-1.94188e-24
-6.17287e-26
1.57336e-24
-1.14865e-23
-2.64764e-23
3.82937e-24
5.66793e-24
-6.66176e-24
3.72395e-24
-4.70104e-24
7.76986e-23
4.07338e-24
-6.15126e-23
1.26231e-22
6.22109e-24
-1.03328e-22
1.32552e-25
5.53537e-24
-7.15535e-23
1.02159e-23
-2.91439e-24
-1.74445e-23
2.15179e-23
1.02607e-22
-7.44578e-23
-5.99662e-24
-6.51893e-23
6.98647e-23
3.52408e-23
-3.88068e-23
3.51016e-23
-3.32085e-23
6.53107e-23
-7.90415e-24
-1.32673e-24
9.23088e-24
-7.40026e-24
-1.14866e-23
2.47348e-23
-1.91114e-23
-7.21144e-23
-4.77705e-23
3.52408e-23
3.51016e-23
9.77417e-25
-4.45684e-24
6.21762e-23
-5.77194e-23
-3.15151e-23
-1.15542e-23
-2.60815e-24
-1.52434e-24
-2.75813e-23
-1.90961e-24
1.46433e-23
3.58343e-23
2.34981e-24
1.29297e-23
-1.52795e-23
8.8898e-24
9.46078e-24
9.34502e-23
1.3002e-23
1.08593e-23
5.41297e-24
-1.75514e-23
1.21384e-23
7.23704e-24
9.00597e-23
-1.09171e-22
2.01523e-24
-1.2153e-22
1.20598e-22
1.75514e-23
-2.20082e-23
1.50103e-24
3.11251e-24
4.25875e-23
1.56168e-23
-4.7663e-23
1.21678e-23
1.02957e-22
1.45133e-23
-1.19804e-23
1.06536e-23
7.10873e-24
-3.40153e-24
-8.57886e-24
1.00828e-23
-7.73301e-24
-1.74445e-23
3.65947e-23
1.28966e-23
2.9901e-24
-1.58867e-23
3.3299e-23
9.52815e-24
7.06891e-24
3.58471e-24
5.8309e-24
3.0589e-24
4.31772e-24
-2.84652e-24
6.09586e-24
-6.09586e-24
8.96517e-24
-7.81446e-23
-9.38677e-23
2.02606e-24
-1.15105e-23
-4.40025e-24
4.40025e-24
-3.11251e-24
-1.97675e-23
-8.07662e-24
8.46301e-24
-3.8639e-25
8.07659e-24
-3.67631e-24
1.38009e-23
8.96517e-24
-9.79121e-23
-1.90453e-23
1.68199e-23
4.37964e-24
-7.75461e-24
3.37497e-24
8.69738e-24
1.21454e-23
1.69002e-24
8.51382e-24
-1.02038e-23
-1.90219e-24
3.5922e-24
-4.77116e-23
4.26025e-24
-1.20148e-23
1.40355e-23
-6.96662e-24
9.08929e-24
-5.27674e-24
-1.16265e-23
7.44e-23
1.22821e-23
3.87739e-24
1.09434e-23
-1.48208e-23
-2.83239e-24
1.00568e-23
2.22524e-24
1.06331e-22
-1.47279e-24
1.15296e-23
-2.59471e-24
1.24167e-22
-1.24614e-23
1.46867e-23
-8.1375e-24
-5.03851e-24
1.08694e-23
1.57414e-24
1.703e-23
-5.32369e-25
-1.22898e-23
5.32314e-24
2.00569e-23
-1.15431e-23
-4.5453e-24
4.72088e-23
-1.05531e-22
5.8322e-23
2.57079e-23
-2.57079e-23
-2.35368e-23
2.35368e-23
-2.80283e-23
2.80283e-23
2.79562e-23
-2.79562e-23
3.05752e-23
-3.09077e-23
-6.64352e-24
-1.49438e-23
2.15873e-23
3.98944e-23
-1.61455e-23
1.16002e-23
-3.91777e-23
3.91777e-23
-3.79483e-23
-3.7873e-23
3.7873e-23
-8.3379e-24
6.09747e-23
-5.26368e-23
1.99144e-23
-3.91143e-24
-3.25149e-23
3.64264e-23
-2.40428e-23
2.40428e-23
-1.56348e-23
9.72728e-23
-8.1638e-23
-4.08528e-23
-1.11875e-22
2.07022e-24
-4.45135e-23
-4.2445e-23
8.507e-23
3.31851e-23
-6.46664e-23
1.16528e-22
4.28279e-23
-5.4271e-24
-2.32041e-24
4.41934e-24
6.23381e-23
9.76928e-24
-1.53282e-23
-6.40982e-23
7.94264e-23
4.56465e-23
-7.9733e-23
-4.77437e-24
-5.05981e-25
2.6842e-25
-3.8011e-23
-6.75197e-23
5.92617e-23
-8.57668e-23
-1.49713e-22
5.13536e-23
-2.34057e-23
-5.75637e-23
8.09694e-23
-1.0113e-23
-1.41502e-23
-6.11073e-25
1.47613e-23
-9.09255e-23
-8.51287e-24
8.51285e-24
-1.27581e-24
-1.99435e-24
3.85695e-23
-3.28753e-26
-2.51715e-25
2.81307e-24
-8.44511e-23
-9.58079e-23
8.81124e-23
-7.83431e-23
3.60751e-23
-9.53368e-23
3.06704e-23
1.10669e-22
7.21509e-23
3.41721e-23
-1.63554e-23
-6.59531e-23
2.739e-23
6.12346e-23
-4.77381e-23
-8.3288e-23
5.20564e-24
2.7864e-23
-9.37947e-23
-8.15416e-23
7.29104e-23
9.65716e-23
8.85848e-23
-1.05067e-22
1.64818e-23
-2.96077e-23
-9.65923e-24
-2.03651e-23
-2.7419e-24
-2.96077e-23
-2.05863e-23
-1.30119e-22
-1.16175e-23
1.41737e-22
7.79707e-24
3.3222e-23
4.50719e-23
8.98138e-27
2.59439e-25
-2.71108e-23
2.71108e-23
9.07363e-23
2.07741e-23
4.24824e-23
6.55178e-23
-8.17737e-23
-9.96899e-23
1.52388e-23
6.77754e-24
2.57956e-24
1.3581e-23
-1.73001e-23
3.71907e-24
-5.95168e-24
4.26113e-24
-5.68979e-23
1.31947e-23
-9.82061e-23
8.65887e-23
-4.02283e-24
-4.32986e-24
7.8817e-23
-3.28866e-26
-4.06959e-23
8.97569e-27
-7.28204e-23
1.32346e-23
-4.63529e-24
1.26489e-23
-4.69396e-23
1.05262e-22
1.57984e-23
-7.99165e-23
-3.5409e-23
-4.2348e-23
-3.18115e-23
-9.07172e-25
6.02331e-23
1.85956e-23
-5.56487e-24
-1.00442e-23
2.62841e-23
3.01699e-24
2.59208e-23
1.58588e-23
7.54718e-23
1.06353e-22
4.25554e-24
-1.84058e-23
2.21707e-24
-3.18115e-23
-9.80215e-25
1.4774e-24
-1.4229e-23
-7.14777e-25
7.48538e-23
4.73261e-23
-8.42925e-23
2.59209e-23
3.3222e-23
1.79502e-23
1.16197e-22
1.09186e-23
2.19463e-24
-6.52919e-23
-2.92717e-26
2.92715e-26
-8.49463e-25
1.00183e-22
2.8916e-26
-2.89157e-26
8.44471e-23
-5.01086e-25
-2.21465e-25
8.63056e-23
-2.92807e-26
2.89039e-26
9.96433e-23
-2.47895e-23
-7.08567e-23
1.21007e-23
-9.43371e-23
8.0884e-25
6.68549e-25
6.364e-23
-6.59604e-23
-4.06339e-26
-6.53962e-24
-1.07605e-23
1.18317e-23
-7.25292e-24
5.27924e-26
-5.53878e-25
9.77663e-25
-5.86357e-23
5.81298e-23
1.1734e-23
9.18631e-24
4.7263e-24
-1.01282e-22
-3.7832e-23
1.05559e-23
7.48902e-24
8.56814e-23
1.02802e-25
-9.06672e-26
3.14886e-23
-4.69017e-23
-1.14685e-23
-1.10752e-22
-1.2727e-23
-7.1083e-23
-3.25381e-24
5.51925e-23
-5.44231e-23
1.97316e-24
6.21676e-26
-3.78799e-26
1.04909e-23
-3.58276e-23
-2.18602e-23
-1.12196e-23
)
;

boundaryField
{
    front
    {
        type            empty;
        value           nonuniform List<scalar> 0();
    }
    back
    {
        type            empty;
        value           nonuniform List<scalar> 0();
    }
    bottom
    {
        type            calculated;
        value           nonuniform List<scalar> 
12
(
-3.93929e-23
-1.09845e-22
9.12259e-23
-9.13318e-23
5.30759e-23
1.21384e-23
-1.21678e-23
9.26579e-23
1.09827e-22
-9.24666e-23
-5.29884e-23
3.92669e-23
)
;
    }
    left
    {
        type            calculated;
        value           uniform 0;
    }
    top
    {
        type            calculated;
        value           uniform 0;
    }
    right
    {
        type            calculated;
        value           uniform 0;
    }
    inner_arc
    {
        type            calculated;
        value           uniform 0;
    }
}


// ************************************************************************* //
