/*--------------------------------*- C++ -*----------------------------------*\
  =========                 |
  \\      /  F ield         | OpenFOAM: The Open Source CFD Toolbox
   \\    /   O peration     | Website:  https://openfoam.org
    \\  /    A nd           | Version:  9
     \\/     M anipulation  |
\*---------------------------------------------------------------------------*/
FoamFile
{
    format      ascii;
    class       volScalarField;
    location    "0.78";
    object      p;
}
// * * * * * * * * * * * * * * * * * * * * * * * * * * * * * * * * * * * * * //

dimensions      [0 2 -2 0 0 0 0];

internalField   nonuniform List<scalar> 
90
(
-5.63755e-23
1.92841e-22
7.48342e-22
1.8615e-21
9.38528e-22
-8.56246e-22
1.57628e-23
-1.19852e-22
-3.10273e-23
-1.32859e-22
1.64751e-22
-1.45764e-22
-1.22584e-22
7.04702e-22
-2.59906e-22
-2.79545e-21
3.77166e-21
-4.43059e-22
-4.55909e-22
7.59383e-23
9.09816e-23
2.96939e-23
1.33239e-22
3.42211e-22
6.51223e-23
4.70071e-22
-2.42045e-22
2.59115e-22
8.17463e-22
-1.61844e-22
-6.85254e-23
7.30107e-22
5.62744e-22
3.65498e-22
5.00422e-22
-2.88294e-21
-3.96899e-23
5.65518e-21
6.265e-22
-8.11955e-23
-1.94538e-22
-2.81954e-22
7.08823e-22
-3.31905e-23
-7.78238e-24
8.29637e-22
-5.86395e-23
-1.24218e-21
-5.55744e-22
9.94525e-22
8.65572e-23
8.90104e-24
-2.45914e-22
6.82643e-22
-8.08422e-23
-8.35168e-22
3.17805e-24
1.70214e-22
-5.76544e-23
8.77209e-22
-1.02507e-22
8.38654e-22
1.22617e-21
2.55007e-23
-4.32418e-22
-8.25969e-23
7.88317e-22
9.39654e-22
4.73458e-21
4.95032e-22
-1.55721e-21
-1.42929e-22
5.01102e-22
-1.29675e-21
-2.69873e-21
-3.73981e-23
-1.4672e-22
5.69847e-22
2.08684e-22
1.52684e-23
5.42539e-21
-2.4906e-23
1.73106e-22
-2.72985e-21
1.75879e-22
1.24994e-21
-7.56955e-23
-1.15771e-22
-1.84932e-21
-2.44491e-22
)
;

boundaryField
{
    back
    {
        type            empty;
    }
    front
    {
        type            empty;
    }
    bottom
    {
        type            zeroGradient;
    }
    outer_arc
    {
        type            zeroGradient;
    }
    right
    {
        type            uniformFixedValue;
        uniformValue    
        {
            type            scale;
            scale           
            {
                type            squarePulse;
                start           0.3;
                duration        0.3;
            }
            xScale          
            {
                type            constant;
                value           1;
            }
            value           
            {
                type            constant;
                value           15.1;
            }
        }
        value           uniform 0;
    }
    inner_arc
    {
        type            zeroGradient;
    }
}


// ************************************************************************* //
