/*--------------------------------*- C++ -*----------------------------------*\
  =========                 |
  \\      /  F ield         | OpenFOAM: The Open Source CFD Toolbox
   \\    /   O peration     | Website:  https://openfoam.org
    \\  /    A nd           | Version:  9
     \\/     M anipulation  |
\*---------------------------------------------------------------------------*/
FoamFile
{
    format      ascii;
    class       surfaceScalarField;
    location    "0.78";
    object      phi;
}
// * * * * * * * * * * * * * * * * * * * * * * * * * * * * * * * * * * * * * //

dimensions      [0 3 -1 0 0 0 0];

internalField   nonuniform List<scalar> 
122
(
-7.94301e-30
1.4654e-30
-5.69257e-30
1.47147e-28
-3.54368e-29
-7.99572e-29
-1.53407e-28
1.68994e-28
1.0074e-28
-1.86383e-28
1.96971e-28
4.30309e-28
-4.30863e-28
9.48525e-30
-2.55218e-29
-3.10446e-30
2.15731e-30
7.62114e-29
-6.25398e-29
1.54597e-30
1.39241e-30
3.56772e-29
2.88903e-29
-6.96635e-29
-1.13876e-28
1.8594e-28
-6.8183e-29
1.83648e-28
-8.89794e-29
5.31131e-30
-1.91882e-28
-8.38612e-29
3.47319e-29
-4.6681e-29
-2.78663e-29
-6.53084e-30
1.79217e-29
4.89145e-29
-5.36332e-29
-2.74683e-29
1.42782e-29
-3.84452e-29
3.24289e-29
-2.2064e-29
-3.27361e-29
1.81875e-29
1.82377e-29
-3.22765e-29
-2.52858e-29
6.01188e-30
7.87631e-30
-3.50859e-29
4.35347e-29
-3.12917e-28
2.01655e-28
-1.91469e-29
-1.7305e-30
-3.03016e-29
-3.55019e-30
-1.55692e-29
-1.88123e-29
1.41175e-29
-3.72615e-29
-6.29246e-29
1.00098e-28
8.5873e-29
-1.7415e-29
1.38093e-29
-1.31833e-29
1.75926e-29
4.74083e-29
-1.2333e-29
1.49074e-29
5.40449e-30
-1.21071e-30
2.17717e-30
-2.31653e-30
-2.60647e-30
5.7525e-29
-3.07004e-29
-3.98506e-30
-2.21375e-29
-1.14643e-28
2.36168e-29
-1.28603e-29
-2.51351e-29
2.81999e-30
1.02484e-29
5.84633e-29
-8.94372e-29
-2.21754e-29
-3.25096e-30
1.05804e-30
-6.62312e-29
6.26825e-29
-2.65726e-30
5.30907e-30
-1.03685e-30
-2.60816e-30
-2.70227e-29
-2.16335e-29
4.69367e-29
4.04371e-29
-2.93187e-29
-1.45285e-29
8.72516e-29
-2.05392e-29
4.36256e-29
-2.79225e-29
-4.05898e-29
2.49147e-28
-2.51358e-28
-1.53207e-28
1.29011e-28
3.94377e-30
4.58871e-29
-1.607e-29
-7.78732e-30
2.94874e-30
-3.18471e-30
-7.01044e-29
4.46783e-30
)
;

boundaryField
{
    back
    {
        type            empty;
        value           nonuniform List<scalar> 0();
    }
    front
    {
        type            empty;
        value           nonuniform List<scalar> 0();
    }
    bottom
    {
        type            calculated;
        value           uniform 0;
    }
    outer_arc
    {
        type            calculated;
        value           uniform 0;
    }
    right
    {
        type            calculated;
        value           nonuniform List<scalar> 4(2.25067e-30 1.04322e-29 8.6107e-30 1.0185e-29);
    }
    inner_arc
    {
        type            calculated;
        value           uniform 0;
    }
}


// ************************************************************************* //
