/*--------------------------------*- C++ -*----------------------------------*\
  =========                 |
  \\      /  F ield         | OpenFOAM: The Open Source CFD Toolbox
   \\    /   O peration     | Website:  https://openfoam.org
    \\  /    A nd           | Version:  9
     \\/     M anipulation  |
\*---------------------------------------------------------------------------*/
FoamFile
{
    format      ascii;
    class       volVectorField;
    location    "0.78";
    object      U;
}
// * * * * * * * * * * * * * * * * * * * * * * * * * * * * * * * * * * * * * //

dimensions      [0 1 -1 0 0 0 0];

internalField   nonuniform List<vector> 
90
(
(-1.36641e-22 3.0894e-23 1.59912e-39)
(-2.54732e-21 -2.25181e-21 -3.6872e-38)
(3.84779e-21 2.36989e-21 6.78846e-38)
(4.38048e-21 -3.74847e-21 -6.72303e-38)
(-5.88458e-21 -8.433e-21 -1.60038e-37)
(-1.2853e-21 -1.18947e-21 2.92938e-38)
(-3.47705e-23 -7.21324e-23 -1.706e-39)
(4.29485e-22 3.49834e-22 -3.95479e-39)
(-5.07793e-23 1.97275e-21 0)
(1.52663e-22 3.74093e-23 0)
(1.6524e-21 -2.3459e-22 1.23286e-38)
(-6.41631e-22 5.5743e-21 -1.07894e-38)
(3.37482e-22 3.12407e-22 -1.53129e-39)
(1.08576e-21 7.04748e-22 3.22308e-39)
(-1.51503e-21 4.33491e-21 0)
(-4.57678e-21 -2.66293e-21 0)
(-2.74333e-21 -7.49355e-21 2.23101e-37)
(2.24882e-21 1.07099e-21 2.51419e-38)
(-4.18318e-23 -1.95406e-21 0)
(7.98639e-23 6.93112e-22 1.25854e-38)
(1.04987e-21 6.1978e-22 -1.64656e-41)
(-2.1778e-22 -4.55461e-22 -4.17581e-39)
(1.11404e-21 3.41693e-23 1.72948e-38)
(8.28164e-22 -1.11886e-22 -1.36022e-38)
(9.34809e-22 2.41581e-23 -4.53506e-40)
(3.87567e-22 -8.47126e-22 -1.47973e-38)
(6.97985e-22 2.00199e-22 4.68869e-39)
(-1.08811e-21 -5.74065e-22 -3.47369e-39)
(8.32811e-21 2.30874e-21 0)
(3.25915e-22 -1.38983e-22 6.8023e-39)
(6.12837e-22 3.13772e-22 -3.49423e-39)
(1.18666e-21 7.65333e-23 4.41557e-38)
(1.12626e-21 4.27623e-22 1.29345e-38)
(7.8489e-22 5.63373e-22 -2.92166e-38)
(9.34067e-22 2.95435e-22 8.95524e-39)
(-6.14196e-22 3.25599e-21 6.83757e-38)
(-1.61759e-21 -1.49443e-21 0)
(9.23229e-22 -1.60644e-21 0)
(3.37065e-22 1.78606e-22 -1.39956e-38)
(1.14649e-22 3.11902e-22 -1.64549e-39)
(-4.44032e-22 2.25127e-22 5.69874e-40)
(-2.38229e-22 1.03943e-21 1.81275e-38)
(6.63633e-22 1.41758e-22 4.31672e-39)
(-5.23147e-23 7.45724e-23 2.2602e-39)
(2.26465e-22 2.89326e-23 7.5489e-40)
(-6.0312e-22 -1.59657e-21 -3.08886e-38)
(2.53357e-22 -2.92144e-22 3.71403e-39)
(-1.38794e-21 2.54723e-21 -2.95195e-38)
(1.08221e-21 -5.0809e-23 2.86413e-38)
(-3.41449e-22 2.79477e-21 -4.23368e-39)
(1.38422e-22 1.29922e-22 0)
(-1.27542e-22 -1.53981e-22 1.715e-39)
(-5.27315e-22 2.25513e-21 9.85955e-42)
(-5.1236e-23 -3.56176e-22 0)
(-1.21405e-22 -1.55368e-22 -2.971e-39)
(-1.92984e-21 -4.09631e-22 3.19667e-40)
(1.56782e-22 6.26897e-23 -5.64947e-40)
(5.03237e-22 -6.59708e-22 0)
(6.43171e-23 4.89842e-23 0)
(1.01788e-21 -3.78084e-22 -4.98311e-38)
(-6.61475e-22 6.35202e-22 -1.17708e-38)
(-9.40086e-22 -1.34924e-21 0)
(1.73565e-22 -3.41108e-22 -5.73024e-38)
(-2.36562e-21 2.61585e-22 3.21619e-39)
(-1.20207e-21 -3.01903e-22 -3.10962e-38)
(1.99057e-21 3.84201e-22 -1.89114e-39)
(6.54243e-22 1.23801e-21 0)
(1.00443e-21 -8.46788e-22 0)
(6.9915e-21 -8.81002e-22 -2.0119e-38)
(9.94466e-21 -2.23485e-21 -3.63937e-38)
(-4.7787e-21 2.27354e-21 0)
(-2.75904e-23 -1.06046e-22 -6.35092e-39)
(-2.43034e-21 1.71002e-21 0)
(1.32102e-21 -2.48985e-21 -9.93817e-38)
(4.66645e-21 -6.51768e-23 3.67446e-38)
(-6.92345e-23 -5.56027e-22 1.90554e-39)
(-1.36062e-22 -5.72218e-23 1.3679e-39)
(-3.01052e-22 -3.99409e-22 0)
(-3.11677e-22 7.53242e-22 1.89531e-38)
(-3.9136e-23 -7.89948e-23 -3.2049e-39)
(4.75964e-21 -1.18998e-22 -2.25964e-37)
(1.8722e-22 7.83234e-23 -1.73141e-40)
(6.30942e-22 -1.09102e-21 -5.72405e-39)
(-2.47249e-21 4.46724e-22 -7.2023e-38)
(-2.04181e-23 -2.06841e-21 -5.26664e-39)
(1.05878e-22 -2.15824e-22 3.61833e-38)
(-1.95483e-23 8.2649e-23 -3.11299e-39)
(-1.24749e-22 7.73902e-23 5.27912e-40)
(-1.82953e-21 -1.96405e-21 1.74404e-37)
(-1.40802e-23 -1.6978e-23 6.15041e-39)
)
;

boundaryField
{
    back
    {
        type            empty;
    }
    front
    {
        type            empty;
    }
    bottom
    {
        type            uniformFixedValue;
        uniformValue    
        {
            type            scale;
            scale           
            {
                type            squarePulse;
                start           0.3;
                duration        0.3;
            }
            xScale          
            {
                type            constant;
                value           1;
            }
            value           
            {
                type            constant;
                value           (0 0.7 0);
            }
        }
        value           uniform (0 0 0);
    }
    outer_arc
    {
        type            noSlip;
    }
    right
    {
        type            zeroGradient;
    }
    inner_arc
    {
        type            noSlip;
    }
}


// ************************************************************************* //
