/*--------------------------------*- C++ -*----------------------------------*\
  =========                 |
  \\      /  F ield         | OpenFOAM: The Open Source CFD Toolbox
   \\    /   O peration     | Website:  https://openfoam.org
    \\  /    A nd           | Version:  9
     \\/     M anipulation  |
\*---------------------------------------------------------------------------*/
FoamFile
{
    format      ascii;
    class       volScalarField;
    location    "0.78";
    object      p;
}
// * * * * * * * * * * * * * * * * * * * * * * * * * * * * * * * * * * * * * //

dimensions      [0 2 -2 0 0 0 0];

internalField   nonuniform List<scalar> 
578
(
-1.21222e-13
-3.12079e-13
-9.00743e-14
1.07972e-14
-2.87343e-13
1.90373e-13
2.80373e-13
-2.43469e-13
-2.04542e-13
-4.70799e-13
9.98176e-14
-2.40713e-13
6.25216e-16
-2.71766e-13
2.622e-13
-8.99792e-15
-1.46844e-13
-1.33929e-13
-1.87806e-13
-1.36083e-13
1.20254e-14
7.30946e-15
6.20295e-14
7.38355e-14
7.11237e-14
-1.78769e-13
-1.89508e-14
-4.14241e-14
-2.24068e-13
1.75344e-15
-2.62602e-14
2.1512e-13
-9.06632e-14
1.71449e-14
2.35411e-13
-1.01056e-13
-2.42851e-13
-2.32609e-13
-5.96773e-15
-3.35683e-13
-2.61638e-13
-2.12538e-13
-2.69857e-13
2.74666e-13
-6.94082e-14
3.41526e-13
2.61518e-13
-2.20681e-13
-9.5877e-15
-2.36145e-14
2.9491e-13
-1.328e-16
2.84677e-13
1.46064e-14
-4.01612e-15
-1.27654e-13
5.68978e-14
4.37476e-14
-7.33673e-14
-1.55361e-13
-1.42862e-13
-2.01541e-13
-1.97371e-13
-3.01424e-13
-5.53902e-15
2.53727e-13
-5.06294e-14
1.35389e-13
9.20294e-14
-1.73342e-13
2.64672e-14
2.06429e-13
-4.58713e-15
-2.02097e-13
9.51583e-14
-3.21327e-13
-2.60542e-13
-2.13953e-13
-3.8899e-15
1.90151e-13
2.35985e-13
-2.35962e-13
3.50156e-13
3.28594e-13
5.65376e-14
1.81227e-13
3.42126e-13
-8.64511e-14
-1.92702e-13
1.75068e-13
-1.88539e-14
1.24284e-13
2.23922e-13
4.63263e-15
1.15585e-13
2.0705e-13
-4.73089e-15
-4.40238e-15
-4.4403e-13
2.61139e-13
2.44526e-13
-1.97968e-13
-1.39317e-14
1.55129e-13
-8.23185e-15
-2.74796e-13
1.07344e-13
-3.25614e-13
2.17507e-13
-2.86158e-13
-9.08427e-14
-1.87739e-13
-1.5328e-13
1.62478e-13
1.79773e-13
-9.86955e-15
8.02979e-15
-1.53215e-13
1.72143e-13
-6.12962e-15
-1.58253e-13
4.55231e-13
-2.19145e-13
6.98946e-15
2.67701e-13
1.15198e-13
1.95387e-13
-3.23033e-15
2.14375e-13
3.01566e-14
2.16815e-13
1.01427e-13
5.05186e-15
-1.74796e-13
1.933e-13
2.07243e-13
-2.84474e-13
-9.38119e-15
1.07487e-13
2.18378e-13
2.35095e-13
6.36905e-14
2.09754e-13
-7.64598e-14
-2.00242e-13
7.65257e-14
7.90113e-14
-2.75405e-14
-2.19714e-13
-3.74085e-16
-2.34358e-13
1.00001e-13
-2.88823e-13
-1.61699e-13
2.55319e-13
-2.26956e-14
-1.72001e-13
7.77427e-15
2.75429e-13
-2.38042e-13
-2.49591e-13
-2.43404e-13
2.49361e-13
-2.2837e-13
-1.24418e-13
6.84218e-14
-8.45908e-14
2.57891e-13
1.51812e-14
-8.53458e-15
-2.08282e-13
-2.92402e-13
2.13223e-13
1.55566e-13
2.50427e-13
-8.27968e-15
-3.89791e-15
-1.42693e-13
-2.2927e-13
-1.96702e-13
2.74557e-13
-2.44924e-13
1.45609e-13
-3.77264e-15
2.16114e-13
-2.17634e-14
-1.33916e-14
2.83365e-13
2.5306e-13
-2.80193e-13
-2.54878e-13
-2.46911e-13
9.32764e-14
2.53849e-13
-3.67136e-13
-5.18652e-15
2.60643e-14
-3.57949e-14
2.44625e-13
-2.56141e-13
1.07614e-14
-7.56391e-16
4.80891e-13
-1.24473e-14
-6.98611e-15
-2.62052e-13
2.37461e-13
-1.07906e-14
-2.45845e-13
3.87654e-14
4.30801e-14
2.37101e-13
1.83065e-13
-2.21872e-15
1.88786e-13
3.1092e-15
2.52146e-13
-2.53211e-13
2.52816e-13
9.61379e-14
-2.51235e-13
2.47956e-13
-1.15114e-13
-2.56085e-13
2.7649e-13
1.1371e-13
-4.2193e-15
1.92336e-14
-2.9755e-14
-2.20145e-13
-4.19124e-13
4.58376e-13
1.7601e-13
-1.08293e-13
1.07156e-13
-1.89253e-13
-2.63148e-13
2.6608e-13
2.51314e-15
-4.21417e-14
2.65532e-13
-2.95365e-13
-9.18534e-15
2.66452e-13
-3.5446e-14
-2.00529e-13
2.17697e-13
-4.15253e-13
1.83808e-13
-1.52556e-15
-4.44668e-15
1.54588e-13
2.46825e-13
3.20367e-14
2.21615e-13
-6.44319e-14
-1.72439e-13
2.40095e-13
-2.13798e-13
4.09315e-13
-9.81074e-14
2.75683e-13
2.62473e-14
3.03202e-14
-2.45095e-13
-1.38519e-13
7.41565e-14
-4.90032e-14
-3.41053e-13
8.86579e-14
-8.94701e-14
8.97693e-14
4.04188e-14
-6.6374e-15
5.88609e-16
-1.45046e-15
-1.46372e-14
4.82593e-14
2.58561e-13
7.55609e-15
-2.72022e-13
-7.57648e-15
-6.61503e-15
-2.36138e-15
-1.4248e-15
2.04911e-13
-1.20629e-13
1.18804e-13
3.44647e-14
2.16348e-14
3.60398e-14
1.46768e-13
-1.57554e-14
2.35101e-13
2.05601e-14
2.69923e-14
-2.71481e-13
-3.0458e-14
-2.32225e-14
1.83012e-14
1.23362e-15
-3.72742e-14
-6.5451e-15
-5.13409e-14
2.71088e-14
-8.8016e-17
8.11046e-16
-1.59208e-13
2.88797e-15
-7.28037e-16
-7.57763e-14
-2.3516e-14
-3.24438e-15
-4.16659e-14
1.44197e-14
-5.22674e-15
1.33585e-13
-3.37042e-14
-7.5189e-14
1.45382e-14
1.40302e-13
-7.82227e-15
-5.14353e-15
4.62481e-14
-7.09023e-15
-1.76236e-14
2.35543e-13
2.45059e-13
-2.54166e-13
-2.12878e-14
-8.70675e-15
2.0538e-13
-1.05647e-14
-1.50542e-14
1.71177e-13
2.82484e-14
1.96278e-15
-1.16512e-14
-9.52539e-14
-1.62255e-14
-4.2339e-15
-3.49266e-15
-2.42862e-14
-1.29748e-13
1.07683e-14
2.26589e-13
1.2518e-13
2.01286e-13
-2.0147e-13
2.32757e-13
-2.22799e-13
-2.45578e-13
2.48813e-13
-8.75582e-14
-3.12841e-13
3.20135e-13
3.08739e-14
3.04231e-13
-3.27999e-13
3.21138e-13
-8.19498e-15
-1.08067e-13
1.96053e-14
-1.60908e-13
-3.276e-15
9.59782e-15
-2.54057e-14
1.98264e-13
1.11369e-15
-2.20705e-14
-2.35688e-13
-2.17178e-13
9.03928e-14
1.32377e-13
9.21497e-14
3.3904e-13
-1.44287e-14
2.2799e-13
-2.36357e-13
-5.5941e-14
-6.309e-15
-2.38656e-13
2.49789e-13
4.66351e-14
2.51616e-14
-7.81674e-15
1.59217e-15
3.05104e-13
2.85177e-13
-1.85411e-13
-1.82084e-15
4.9725e-14
5.80828e-14
-6.61299e-14
-2.68284e-14
2.49178e-14
2.18722e-13
-4.87071e-14
3.83847e-14
7.56858e-14
-3.39408e-15
1.72569e-13
8.3081e-16
-1.60544e-13
-9.05257e-15
-3.47408e-14
1.47492e-13
-6.66547e-14
7.89122e-14
1.50991e-13
-2.1809e-14
-2.07758e-13
-1.15399e-13
1.28097e-13
-7.63092e-14
9.44141e-14
-2.04702e-13
2.04673e-13
-2.74343e-13
-2.10408e-14
2.24719e-13
1.24134e-13
-2.22359e-13
2.69867e-13
1.72762e-13
-1.07254e-13
-1.75047e-13
-1.6893e-13
-2.16674e-13
-1.01507e-13
1.62055e-13
4.44727e-14
6.07229e-14
-1.65996e-15
1.53863e-13
-1.38707e-13
-2.39265e-13
-1.4047e-13
-1.45513e-13
-6.58449e-14
-1.16798e-13
4.71346e-15
9.91612e-15
-2.44463e-14
2.00673e-13
-5.524e-14
-3.15404e-14
1.75377e-13
1.73504e-13
-1.93462e-14
2.30703e-13
-1.21958e-14
1.81363e-13
1.99353e-15
2.30552e-13
-6.28872e-15
-3.0008e-13
7.11213e-14
5.05933e-14
-1.67309e-13
3.60881e-13
2.05588e-13
-1.41041e-13
-1.44664e-13
-5.39719e-14
-1.77811e-13
1.54343e-13
-2.78301e-13
-9.07578e-14
-1.34795e-13
-4.49613e-14
-4.50668e-14
1.55437e-13
-2.056e-14
-6.04111e-14
-2.09599e-13
-1.56522e-13
-1.71709e-13
-8.66656e-14
-1.49187e-13
4.87262e-14
8.01879e-14
-7.16712e-14
-4.00926e-14
-2.00833e-14
-1.28178e-13
-8.45581e-14
-1.68716e-14
-1.31055e-14
2.2072e-13
6.6801e-15
1.60815e-13
-8.37345e-14
6.51768e-15
-1.28379e-14
1.81142e-13
-1.04776e-14
2.05834e-13
-1.55429e-14
5.49795e-15
-2.64236e-13
-4.30241e-14
-1.39717e-13
2.57391e-15
-1.40615e-13
-1.6781e-14
2.04569e-13
1.31726e-14
1.38973e-13
-1.34369e-14
-2.42374e-14
2.52607e-13
4.24922e-15
3.32986e-13
2.29793e-13
-2.05042e-14
-2.3701e-13
-3.22298e-13
1.56294e-13
4.05676e-15
7.56519e-14
1.08708e-13
-6.82916e-14
-1.88415e-13
-2.04828e-13
-1.28793e-15
-5.16505e-14
1.49666e-14
-2.20099e-13
-2.17341e-13
-2.30568e-13
-2.30698e-13
-3.89795e-14
-2.74832e-14
2.10917e-13
1.70566e-13
1.39679e-13
1.9308e-13
1.68071e-13
-1.9837e-14
8.97403e-15
2.00008e-13
-1.22136e-13
-1.77294e-13
2.491e-13
2.44105e-14
9.26425e-14
-1.43961e-13
-1.10406e-13
-1.66447e-13
1.34807e-13
2.47688e-13
-1.61617e-13
2.28672e-13
1.4592e-13
-9.26352e-14
-2.40769e-13
-3.71616e-14
-3.7747e-15
-1.85087e-14
-1.44744e-14
2.4772e-13
-2.14421e-13
-1.68498e-14
6.72331e-15
1.37155e-13
1.65693e-15
-1.38376e-13
-1.36427e-14
3.76829e-15
2.1335e-13
-1.49572e-13
1.52353e-13
-2.10461e-13
-8.46087e-14
8.88263e-14
1.17816e-13
8.43242e-14
)
;

boundaryField
{
    front
    {
        type            empty;
    }
    back
    {
        type            empty;
    }
    bottom
    {
        type            uniformFixedValue;
        uniformValue    
        {
            type            scale;
            scale           
            {
                type            squarePulse;
                start           0.3;
                duration        0.3;
            }
            xScale          
            {
                type            constant;
                value           1;
            }
            value           
            {
                type            constant;
                value           15.1;
            }
        }
        value           uniform 0;
    }
    left
    {
        type            zeroGradient;
    }
    top
    {
        type            zeroGradient;
    }
    right
    {
        type            zeroGradient;
    }
    inner_arc
    {
        type            zeroGradient;
    }
}


// ************************************************************************* //
