/*--------------------------------*- C++ -*----------------------------------*\
  =========                 |
  \\      /  F ield         | OpenFOAM: The Open Source CFD Toolbox
   \\    /   O peration     | Website:  https://openfoam.org
    \\  /    A nd           | Version:  9
     \\/     M anipulation  |
\*---------------------------------------------------------------------------*/
FoamFile
{
    format      ascii;
    class       surfaceScalarField;
    location    "0.78";
    object      phi;
}
// * * * * * * * * * * * * * * * * * * * * * * * * * * * * * * * * * * * * * //

dimensions      [0 3 -1 0 0 0 0];

internalField   nonuniform List<scalar> 
816
(
6.50538e-21
2.15526e-19
-2.22031e-19
-7.51945e-20
3.01618e-19
-2.26423e-19
-3.75173e-19
3.81679e-19
1.93557e-20
-2.62788e-20
6.92315e-21
2.11462e-19
-2.11462e-19
-1.17884e-19
1.46695e-19
-2.88114e-20
-2.20689e-19
2.20689e-19
-1.9853e-19
1.9853e-19
-4.49209e-19
1.40492e-21
4.47805e-19
5.46465e-20
-1.29841e-19
1.11565e-19
-2.29449e-19
5.25792e-19
-3.80666e-19
-1.45126e-19
7.84756e-21
-6.24348e-21
-1.60408e-21
5.08138e-19
-4.60369e-19
-4.77689e-20
-5.01879e-19
4.42979e-19
5.89008e-20
-3.85675e-19
6.34878e-19
-2.49203e-19
-2.41103e-19
-6.83592e-20
3.09463e-19
4.59368e-19
-3.7177e-20
-4.22191e-19
6.17582e-20
4.64034e-19
2.10904e-19
-6.60113e-19
3.69164e-20
-1.75608e-20
4.76409e-20
-4.33316e-19
2.52059e-19
-1.05938e-19
-1.46121e-19
6.45162e-20
2.99471e-20
-9.44634e-20
7.48268e-20
-1.03105e-20
-4.32168e-19
1.05776e-19
3.26392e-19
2.95689e-20
-2.66035e-20
-2.96539e-21
9.06641e-21
-1.85777e-20
9.51133e-21
1.44482e-19
1.57136e-19
2.21075e-19
4.13803e-19
3.27068e-20
-2.36404e-20
4.41296e-20
1.02566e-19
6.71177e-19
-4.50102e-19
8.96363e-20
-6.25025e-20
-2.71338e-20
-4.95573e-20
-4.52322e-19
-1.08778e-19
5.22581e-19
4.66812e-20
4.61456e-19
-6.33028e-20
-3.68865e-19
6.53652e-19
-2.3798e-19
-4.15673e-19
1.31465e-19
7.99976e-20
-1.64781e-19
-1.36772e-19
1.35228e-19
4.46063e-19
-3.08501e-21
-2.27313e-19
-1.08798e-19
3.36111e-19
-1.32554e-19
-8.81349e-20
1.71131e-19
4.1582e-19
-4.14415e-19
2.78479e-19
9.56459e-21
2.00043e-20
-2.45894e-20
-6.40666e-21
3.0996e-20
6.58357e-21
1.26399e-21
1.83902e-19
6.8157e-20
5.27197e-20
3.69166e-20
-2.77219e-21
2.77219e-21
1.4286e-19
-4.35556e-20
-9.93047e-20
-1.05938e-19
-2.27313e-19
-5.21286e-19
2.80183e-19
1.79429e-19
-2.88207e-19
-6.19187e-20
8.54143e-20
-1.53774e-19
-1.90951e-19
1.53774e-19
-1.49052e-20
-4.45464e-19
9.94328e-21
-6.34581e-21
-3.59747e-21
4.50064e-19
-4.00013e-21
4.29871e-19
2.41306e-19
-1.86025e-19
2.9759e-19
-1.91122e-19
5.58899e-19
-3.67778e-19
1.01671e-19
3.72827e-19
-4.74498e-19
1.23243e-20
1.95403e-20
9.52132e-21
4.21967e-22
3.79329e-19
1.82835e-19
-5.62164e-19
1.04942e-19
-1.22895e-19
1.79525e-20
1.79686e-19
-1.79686e-19
-2.66538e-19
4.77442e-19
-3.60392e-19
9.38535e-20
3.27783e-21
-8.17803e-20
-1.40251e-19
2.22031e-19
-3.62236e-19
-1.43755e-19
5.05991e-19
2.15526e-19
1.63098e-19
-1.63098e-19
-2.40567e-19
2.40567e-19
-2.59226e-19
5.05166e-19
-2.4594e-19
1.29236e-19
3.9739e-20
-6.40666e-21
1.32351e-19
1.05088e-20
-1.13273e-20
-3.53105e-19
3.64433e-19
3.09322e-19
1.33686e-20
-3.22691e-19
6.10333e-21
1.84889e-19
-4.44115e-19
1.23225e-20
3.80536e-19
-3.92859e-19
1.72075e-20
-1.48232e-20
-2.38426e-21
-4.40325e-19
-4.79267e-21
4.00553e-19
-3.95761e-19
-2.35023e-21
1.16811e-21
5.46465e-20
3.55161e-20
-4.87838e-19
-5.61486e-21
4.55678e-19
-3.1467e-19
4.16341e-19
4.88921e-21
6.48125e-21
-1.13705e-20
-3.1976e-19
1.23672e-21
-1.23672e-21
-6.278e-20
5.24237e-19
7.61311e-20
1.64781e-19
1.29236e-19
-1.66847e-20
-1.63002e-19
2.30242e-19
2.92338e-19
4.78603e-19
4.45118e-19
-5.51266e-19
1.06148e-19
7.45929e-21
-2.57008e-21
-1.95448e-20
-6.73406e-21
2.02824e-19
2.9236e-19
-4.95185e-19
-6.01822e-21
3.1534e-19
-1.11349e-21
2.35023e-21
-2.05324e-20
3.46924e-19
-2.73329e-19
3.27621e-20
9.51691e-20
3.13653e-20
5.55114e-21
-1.1023e-19
-4.06873e-19
4.41819e-19
-3.49457e-20
-6.82011e-20
-2.94035e-19
4.03053e-19
-2.83099e-19
-1.19953e-19
3.8716e-19
8.44277e-20
-4.60953e-19
2.61785e-21
4.58335e-19
-4.74304e-19
6.74304e-20
6.54448e-21
1.0663e-20
-1.14695e-19
1.14695e-19
-4.16914e-19
-4.40393e-20
-3.29984e-21
4.19699e-19
-4.164e-19
-6.36153e-21
-3.74305e-19
-3.36408e-19
-2.14858e-19
-3.28178e-19
3.30796e-19
-5.67299e-21
1.23978e-19
-1.18305e-19
-8.71435e-20
-3.33851e-19
4.07163e-21
7.07885e-20
-7.48601e-20
-1.35228e-19
-4.86233e-21
-4.1081e-19
-4.75847e-20
-2.46584e-19
2.94168e-19
3.08526e-22
-2.44065e-21
2.13213e-21
4.22162e-19
-3.37734e-19
-5.14267e-19
-1.35913e-20
5.27858e-19
1.48422e-19
-1.48422e-19
1.79429e-19
2.01053e-20
9.45898e-20
4.9685e-20
4.70566e-19
-5.20251e-19
-4.10531e-21
1.36699e-20
-1.93949e-19
3.38431e-19
1.81826e-21
4.5491e-21
-6.36736e-21
-1.40251e-19
4.63278e-20
-5.60595e-19
-3.99136e-19
1.23978e-19
-4.03156e-19
3.89564e-19
-4.04367e-20
4.04367e-20
3.74578e-19
-3.6365e-20
-3.3809e-19
3.87775e-19
-2.64033e-22
2.0823e-21
3.83837e-20
-4.07764e-20
2.39262e-21
-3.85036e-20
-3.64652e-19
1.36772e-19
-1.43134e-19
1.53643e-19
-1.56943e-19
-1.37938e-20
1.06104e-19
-9.231e-20
7.2726e-21
-3.45362e-19
1.406e-20
-1.76575e-20
1.83304e-20
-4.27039e-21
4.83007e-19
-2.05229e-19
1.66726e-19
-2.35753e-20
-9.46547e-21
3.30408e-20
-1.35158e-19
1.42431e-19
-8.56845e-20
4.09212e-19
-3.23528e-19
-3.04963e-19
3.44702e-19
2.16082e-20
1.53396e-20
4.0436e-19
3.08533e-22
-2.88207e-19
1.95437e-19
2.07616e-19
4.83102e-19
2.29803e-20
-5.06082e-19
-3.17888e-20
8.21346e-21
-4.80089e-19
-2.30043e-20
5.03094e-19
4.04864e-19
-1.52999e-20
3.79651e-19
8.12331e-21
1.29841e-19
-2.19131e-20
-1.56839e-20
3.7597e-20
-2.0823e-21
6.44182e-21
-4.35952e-21
2.44065e-21
-6.54596e-21
3.96243e-19
-4.02632e-19
6.3888e-21
3.90152e-19
-3.8186e-19
-8.29216e-21
-2.64029e-22
6.78499e-21
-4.94346e-20
-1.13664e-19
1.64706e-20
2.43542e-20
-2.86246e-20
1.58473e-20
-2.01568e-20
3.33311e-19
1.74706e-20
-2.64054e-19
5.42003e-19
2.66802e-20
-4.43594e-19
5.78725e-22
2.37755e-20
-3.07171e-19
4.38766e-20
-1.25113e-20
-7.48394e-20
9.231e-20
4.40314e-19
-3.19616e-19
-2.57465e-20
-2.79841e-19
2.99946e-19
1.51426e-19
-1.66726e-19
1.50554e-19
-1.42431e-19
2.80375e-19
-3.39003e-20
-5.70022e-21
3.96005e-20
-3.17887e-20
-4.94346e-20
1.06104e-19
-8.20561e-20
-3.09444e-19
-2.05229e-19
1.51426e-19
1.50554e-19
4.1993e-21
-1.91684e-20
2.66935e-19
-2.47767e-19
-1.35158e-19
-4.95842e-20
-1.11799e-20
-6.54595e-21
-1.18305e-19
-8.21348e-21
6.286e-20
1.53643e-19
1.01319e-20
5.54723e-20
-6.56041e-20
3.81758e-20
4.05831e-20
4.01236e-19
5.58412e-20
4.67246e-20
2.32792e-20
-7.54214e-20
5.21422e-20
3.0996e-20
3.86482e-19
-4.68538e-19
8.6479e-21
-5.21846e-19
5.17846e-19
7.54214e-20
-9.45898e-20
6.44182e-21
1.3365e-20
1.82789e-19
6.70832e-20
-2.04596e-19
5.22099e-20
4.42008e-19
6.23388e-20
-5.13763e-20
4.56761e-20
3.05605e-20
-1.45416e-20
-3.68347e-20
4.33265e-20
-3.31947e-20
-7.48394e-20
1.56943e-19
5.52887e-20
1.28844e-20
-6.81732e-20
1.43134e-19
4.09307e-20
3.02956e-20
1.53805e-20
2.5026e-20
1.31497e-20
1.8454e-20
-1.22012e-20
2.61719e-20
-2.61719e-20
3.84962e-20
-3.35381e-19
-4.03011e-19
8.65349e-21
-4.94299e-20
-1.89161e-20
1.89161e-20
-1.3365e-20
-8.48864e-20
-3.47085e-20
3.6365e-20
-1.65652e-21
3.47085e-20
-1.57925e-20
5.92295e-20
3.84962e-20
-4.20267e-19
-8.16697e-20
7.22042e-20
1.88021e-20
-3.31902e-20
1.43881e-20
3.72561e-20
5.21792e-20
7.34281e-21
3.64727e-20
-4.38155e-20
-8.15697e-21
1.54998e-20
-2.04825e-19
1.83474e-20
-5.15376e-20
6.02237e-20
-2.99281e-20
3.89973e-20
-2.26295e-20
-4.98257e-20
3.19372e-19
5.26365e-20
1.65326e-20
4.70124e-20
-6.3545e-20
-1.2154e-20
4.31618e-20
9.47478e-21
4.56161e-19
-6.23112e-21
4.93929e-20
-1.11762e-20
5.33185e-19
-5.3503e-20
6.29777e-20
-3.5005e-20
-2.16787e-20
4.67047e-20
6.72071e-21
7.30218e-20
-2.23327e-21
-5.27502e-20
2.28222e-20
8.61558e-20
-4.96832e-20
-1.95053e-20
2.02557e-19
-4.52909e-19
2.50351e-19
1.10284e-19
-1.10284e-19
-1.01119e-19
1.01119e-19
-1.20231e-19
1.20231e-19
1.20137e-19
-1.20137e-19
1.31465e-19
-1.32554e-19
-2.86486e-20
-6.40649e-20
9.27135e-20
1.71131e-19
-6.93761e-20
4.98708e-20
-1.68046e-19
1.68046e-19
-1.63002e-19
-1.62431e-19
1.62431e-19
-3.57533e-20
2.61733e-19
-2.2598e-19
8.54143e-20
-1.67798e-20
-1.39629e-19
1.56408e-19
-1.03292e-19
1.03292e-19
-6.70826e-20
4.17475e-19
-3.50393e-19
-1.75382e-19
-4.80163e-19
8.88177e-21
-1.90951e-19
-1.82171e-19
3.65006e-19
1.4236e-19
-2.77606e-19
5.00304e-19
1.83902e-19
-2.33303e-20
-9.9474e-21
1.90181e-20
2.67537e-19
4.19254e-20
-6.57972e-20
-2.75118e-19
3.40915e-19
1.95936e-19
-3.42201e-19
-2.05235e-20
-2.1729e-21
1.16811e-21
-1.63175e-19
-2.89734e-19
2.54301e-19
-3.68088e-19
-6.42664e-19
2.20474e-19
-1.00498e-19
-2.47014e-19
3.47512e-19
-4.34113e-20
-6.07207e-20
-2.55988e-21
6.32806e-20
-3.90232e-19
-3.64824e-20
3.64824e-20
-5.48639e-21
-8.48587e-21
1.65622e-19
-1.42909e-22
-1.09381e-21
1.2048e-20
-3.62441e-19
-4.11189e-19
3.78184e-19
-3.36259e-19
1.5489e-19
-4.09191e-19
1.31585e-19
4.7515e-19
3.09757e-19
1.46749e-19
-7.00699e-20
-2.83035e-19
1.17641e-19
2.62896e-19
-2.04763e-19
-3.57401e-19
2.23969e-20
1.19618e-19
-4.02717e-19
-3.49889e-19
3.13077e-19
4.14605e-19
3.80141e-19
-4.50901e-19
7.076e-20
-1.27194e-19
-4.14981e-20
-8.74149e-20
-1.18899e-20
-1.27194e-19
-8.83972e-20
-5.58759e-19
-4.98906e-20
6.08649e-19
3.35134e-20
1.42672e-19
1.9344e-19
4.51589e-23
1.12295e-21
-1.16302e-19
1.16302e-19
3.89402e-19
8.92013e-20
1.82261e-19
2.812e-19
-3.50942e-19
-4.27949e-19
6.55082e-20
2.9144e-20
1.10936e-20
5.82794e-20
-7.42597e-20
1.59803e-20
-2.55732e-20
1.82178e-20
-2.44197e-19
5.66228e-20
-4.21647e-19
3.71756e-19
-1.72868e-20
-1.85777e-20
3.38382e-19
-1.42903e-22
-1.74761e-19
4.51566e-23
-3.12635e-19
5.68351e-20
-1.99185e-20
5.43741e-20
-2.0139e-19
4.51742e-19
6.78233e-20
-3.43166e-19
-1.52018e-19
-1.81865e-19
-1.36356e-19
-3.89459e-21
2.58475e-19
7.99564e-20
-2.39014e-20
-4.30303e-20
1.1279e-19
1.29341e-20
1.11376e-19
6.80535e-20
3.23983e-19
4.56485e-19
1.82373e-20
-7.8958e-20
9.51134e-21
-1.36356e-19
-4.23302e-21
6.36516e-21
-6.10473e-20
-3.01753e-21
3.21199e-19
2.03038e-19
-3.617e-19
1.11376e-19
1.42672e-19
7.69595e-20
4.98952e-19
4.6833e-20
9.43687e-21
-2.80182e-19
-1.27643e-22
1.27643e-22
-3.66387e-21
4.30105e-19
1.23662e-22
-1.23662e-22
3.62709e-19
-2.16805e-21
-9.33369e-22
3.70565e-19
-1.27636e-22
1.23666e-22
4.27471e-19
-1.06272e-19
-3.04084e-19
5.19661e-20
-4.05085e-19
3.49822e-21
2.86694e-21
2.73241e-19
-2.83188e-19
-1.65647e-22
-2.80841e-20
-4.61755e-20
5.07224e-20
-3.11821e-20
2.18876e-22
-2.38693e-21
4.27836e-21
-2.51616e-19
2.49443e-19
5.03364e-20
3.94548e-20
2.03301e-20
-4.34745e-19
-1.62449e-19
4.5236e-20
3.21518e-20
3.67861e-19
4.36186e-22
-3.87697e-22
1.3514e-19
-2.01279e-19
-4.92274e-20
-4.75546e-19
-5.46409e-20
-3.05041e-19
-1.40094e-20
2.36884e-19
-2.33689e-19
8.50351e-21
2.70539e-22
-1.68823e-22
4.4949e-20
-1.53732e-19
-9.38674e-20
-4.81015e-20
)
;

boundaryField
{
    front
    {
        type            empty;
        value           nonuniform List<scalar> 0();
    }
    back
    {
        type            empty;
        value           nonuniform List<scalar> 0();
    }
    bottom
    {
        type            calculated;
        value           nonuniform List<scalar> 
12
(
-1.68975e-19
-4.71588e-19
3.915e-19
-3.92107e-19
2.27876e-19
5.21422e-20
-5.22099e-20
3.9772e-19
4.71369e-19
-3.96964e-19
-2.27454e-19
1.68692e-19
)
;
    }
    left
    {
        type            calculated;
        value           uniform 0;
    }
    top
    {
        type            calculated;
        value           uniform 0;
    }
    right
    {
        type            calculated;
        value           uniform 0;
    }
    inner_arc
    {
        type            calculated;
        value           uniform 0;
    }
}


// ************************************************************************* //
