/*--------------------------------*- C++ -*----------------------------------*\
  =========                 |
  \\      /  F ield         | OpenFOAM: The Open Source CFD Toolbox
   \\    /   O peration     | Website:  https://openfoam.org
    \\  /    A nd           | Version:  9
     \\/     M anipulation  |
\*---------------------------------------------------------------------------*/
FoamFile
{
    format      ascii;
    class       volVectorField;
    location    "0.78";
    object      U;
}
// * * * * * * * * * * * * * * * * * * * * * * * * * * * * * * * * * * * * * //

dimensions      [0 1 -1 0 0 0 0];

internalField   nonuniform List<vector> 
578
(
(5.50005e-12 6.77211e-12 0)
(4.34097e-12 5.41423e-12 -1.73769e-29)
(8.48308e-12 1.01803e-11 0)
(-2.75401e-13 -6.22951e-13 6.36561e-31)
(1.5779e-12 -3.37809e-12 0)
(3.57495e-12 -5.00645e-13 -7.72813e-30)
(1.62872e-12 3.47057e-12 -1.59327e-30)
(1.63506e-12 -2.98279e-12 -1.35539e-29)
(8.36474e-12 -1.36578e-11 0)
(2.20708e-12 3.27898e-12 2.15943e-29)
(5.65228e-12 -1.45006e-12 5.43447e-30)
(5.72626e-12 -1.09994e-11 -8.48861e-31)
(-1.80014e-13 -5.25499e-14 0)
(5.94202e-12 -1.21612e-11 1.68464e-29)
(5.9874e-12 1.21616e-11 0)
(1.06657e-11 -1.21807e-11 8.49409e-31)
(7.91049e-12 3.77519e-12 4.19705e-30)
(9.16769e-12 8.33912e-12 -1.33324e-29)
(5.12772e-12 -9.8642e-12 4.0524e-30)
(9.12308e-12 -1.3433e-11 8.50671e-30)
(-4.44787e-13 -8.87747e-13 -6.55422e-31)
(8.91169e-12 -1.11313e-11 2.78198e-30)
(4.89088e-12 -2.21031e-12 -5.93575e-30)
(-1.81831e-14 2.29217e-12 -5.35029e-31)
(-9.11566e-14 2.03367e-12 0)
(5.00396e-12 -1.01385e-11 8.85678e-31)
(-2.44806e-13 6.37192e-13 0)
(-1.15513e-13 5.70041e-13 -1.08933e-31)
(5.16926e-12 4.36052e-12 1.08849e-29)
(1.06201e-11 -1.23908e-11 0)
(-2.39358e-13 9.46475e-13 1.37611e-30)
(2.43768e-12 -4.756e-13 -1.16309e-30)
(1.06956e-11 -1.27577e-11 6.36282e-31)
(-4.47942e-13 2.12522e-12 -2.26879e-31)
(5.21159e-12 1.07806e-11 -1.44441e-29)
(9.12798e-12 -1.04039e-11 -2.70647e-30)
(5.17203e-12 -1.06934e-11 -1.47962e-29)
(4.77808e-12 -9.19871e-12 0)
(1.01819e-11 1.17825e-11 4.45326e-31)
(2.60758e-12 -5.46278e-12 0)
(2.73341e-12 -6.01677e-12 1.42372e-29)
(2.94248e-12 -5.13671e-12 7.45074e-30)
(2.62547e-12 -5.08677e-12 1.71004e-29)
(5.12898e-12 1.05317e-11 -5.0302e-31)
(6.30572e-12 -6.86916e-12 0)
(2.66351e-12 5.60367e-12 6.13871e-31)
(2.76307e-12 6.14429e-12 1.5968e-29)
(7.34087e-12 -1.21573e-11 6.40561e-30)
(1.03374e-11 1.19878e-11 -4.54391e-31)
(-3.30396e-13 5.63348e-13 0)
(3.32762e-13 7.80843e-13 4.58377e-31)
(-1.63087e-13 -7.8225e-14 1.06012e-32)
(5.49586e-12 -3.07238e-12 1.0521e-29)
(-5.34635e-13 1.92734e-12 2.24384e-31)
(-4.66635e-14 -5.05128e-15 0)
(3.29836e-12 -1.47629e-13 -3.33963e-30)
(2.15918e-12 -6.73172e-13 -6.72053e-31)
(3.57565e-12 -3.36753e-12 0)
(9.9868e-12 6.99731e-12 7.0445e-30)
(5.8573e-12 -6.57259e-12 -3.1893e-30)
(1.02835e-11 8.93407e-12 3.92442e-30)
(4.38302e-12 2.19974e-12 7.09556e-30)
(5.58142e-12 4.96953e-12 9.7729e-30)
(5.15579e-12 -1.06616e-11 -7.87124e-30)
(-2.74564e-13 3.80663e-14 -2.88521e-31)
(6.37927e-12 1.22913e-11 7.93465e-30)
(1.00401e-11 -1.28742e-11 -5.3815e-30)
(7.02119e-12 -2.69206e-12 0)
(1.0742e-11 -1.09474e-11 8.3261e-31)
(6.04373e-12 -1.27128e-11 -5.62042e-30)
(-2.6245e-13 1.98574e-12 0)
(1.03311e-12 7.57583e-13 -1.31342e-29)
(-2.27419e-13 -5.47857e-15 5.60803e-31)
(6.26645e-12 -1.27679e-11 -1.48756e-29)
(2.88635e-12 6.50544e-13 0)
(1.53414e-12 -3.2346e-12 -7.88297e-30)
(7.44915e-12 -1.14482e-11 -2.06337e-29)
(5.95828e-12 -9.13263e-12 1.15414e-29)
(-2.87413e-13 -5.97862e-14 -2.49504e-31)
(5.10101e-12 5.65586e-12 3.44637e-30)
(8.28276e-12 -8.14863e-12 -1.65534e-29)
(2.83174e-12 3.79963e-12 -2.61468e-29)
(2.00546e-12 -2.86946e-12 -2.71483e-29)
(2.75942e-12 -3.78793e-12 0)
(9.45692e-12 1.26724e-11 3.11501e-30)
(1.92729e-12 4.73565e-12 -1.59651e-29)
(3.32813e-13 1.9478e-13 0)
(4.64017e-12 2.44009e-13 -1.05633e-30)
(4.21541e-12 -8.94441e-12 1.21179e-29)
(4.33738e-12 9.88717e-12 7.37754e-32)
(-3.71877e-13 8.71352e-13 -1.35827e-30)
(7.85186e-12 1.11368e-11 2.94826e-32)
(4.21088e-12 9.08705e-12 1.22528e-29)
(-3.374e-13 -2.13332e-13 9.4153e-32)
(1.11173e-11 -1.17654e-11 -9.89482e-31)
(9.18075e-12 -1.05182e-11 0)
(-1.02698e-13 -1.78689e-17 -3.30346e-31)
(-7.77322e-14 -1.71533e-14 0)
(9.25187e-13 1.10053e-12 5.33678e-30)
(6.05252e-12 1.23096e-11 -1.44464e-29)
(5.7018e-12 1.0692e-11 -8.94658e-31)
(5.56842e-12 -1.21331e-11 -6.27637e-30)
(-2.70442e-13 1.52295e-13 0)
(7.97283e-12 8.82388e-12 0)
(-2.28844e-14 9.63899e-15 -2.11735e-31)
(6.01936e-12 -1.23299e-11 -1.46737e-29)
(2.58135e-12 6.81509e-13 0)
(2.75067e-12 -5.85012e-12 -9.46519e-30)
(8.96143e-13 2.45118e-12 9.90821e-30)
(3.01406e-12 -6.07509e-12 1.85575e-29)
(8.88574e-12 -1.11599e-11 -3.53359e-30)
(5.75872e-12 -1.21606e-11 -4.48947e-30)
(9.90749e-12 -1.32295e-11 -6.18413e-31)
(1.07447e-11 -9.63772e-12 1.26704e-30)
(1.06192e-11 -1.10458e-11 -1.25967e-30)
(-1.7356e-13 8.08656e-14 -5.98335e-31)
(-3.11923e-13 -5.24003e-13 0)
(1.04799e-11 9.27743e-12 2.76239e-30)
(3.71831e-12 8.26018e-12 0)
(-7.6028e-14 1.64391e-14 -4.04137e-31)
(4.00437e-12 -8.0751e-12 1.13809e-29)
(4.58924e-12 -6.30369e-12 0)
(5.79164e-12 -1.14195e-11 1.52158e-30)
(-3.10936e-13 -1.00234e-12 4.22243e-31)
(4.18895e-12 -5.49162e-12 0)
(4.88403e-12 1.20765e-11 3.59376e-30)
(6.74486e-12 -6.6931e-12 1.69029e-29)
(9.87342e-12 -1.09906e-11 -6.96261e-31)
(6.27455e-12 1.27815e-11 -1.34418e-29)
(4.39892e-12 1.23553e-11 0)
(6.10957e-12 1.21931e-11 1.59923e-29)
(4.88795e-12 1.24645e-11 0)
(-3.30252e-13 -3.10068e-13 2.69127e-31)
(9.92791e-13 -2.00455e-12 -8.96775e-30)
(6.08679e-12 1.26073e-11 -1.43858e-29)
(5.61513e-12 9.92623e-12 0)
(4.88398e-12 -9.01382e-12 1.7969e-29)
(-1.71198e-13 4.44047e-14 6.0596e-31)
(1.07957e-11 -8.6372e-12 -3.50766e-32)
(5.12981e-12 9.89593e-12 -1.33536e-29)
(2.30788e-12 4.28427e-12 0)
(4.40411e-12 1.21686e-11 0)
(4.2847e-12 8.19118e-12 0)
(-6.09605e-14 -2.11846e-12 0)
(2.16178e-12 -4.24983e-12 1.12686e-29)
(1.04099e-11 1.28458e-11 0)
(3.64077e-12 8.28823e-12 8.10313e-30)
(-2.99015e-14 5.03884e-14 -1.80258e-30)
(6.28553e-12 -1.26908e-11 0)
(4.21503e-12 1.14483e-11 0)
(7.17902e-12 -1.35101e-11 0)
(2.07661e-12 3.02498e-12 -1.07386e-30)
(2.40569e-12 -2.58261e-12 1.63235e-29)
(1.8327e-12 -3.70852e-12 8.15481e-30)
(6.59112e-12 1.29639e-11 -4.44904e-31)
(-1.70729e-13 3.335e-13 -1.30518e-30)
(7.85683e-12 5.16553e-12 -1.22606e-29)
(-9.04736e-14 -1.25581e-13 3.98483e-31)
(1.9927e-12 2.14432e-12 5.76767e-30)
(7.4435e-12 -1.37113e-11 0)
(6.36723e-12 -1.23076e-11 0)
(5.71797e-12 -1.06726e-11 0)
(1.20133e-12 2.23183e-12 0)
(6.35867e-12 -1.15771e-11 2.1032e-31)
(1.34892e-14 -8.3961e-13 0)
(4.42414e-12 1.0816e-11 -4.48961e-30)
(-6.32523e-14 -1.42641e-12 0)
(5.64961e-12 1.08359e-11 -1.23809e-31)
(-2.85665e-14 -4.55459e-14 0)
(-7.48325e-13 6.66949e-13 0)
(5.9226e-12 -1.01455e-11 1.31628e-29)
(2.66854e-12 -4.85889e-12 0)
(3.09663e-12 5.40314e-12 0)
(1.80089e-12 3.58774e-12 -1.57427e-31)
(4.75875e-12 8.96406e-12 0)
(-4.21765e-13 7.75212e-14 0)
(-5.43847e-13 8.0306e-15 2.34973e-31)
(1.07936e-11 7.6237e-12 -8.47405e-31)
(3.41918e-12 -5.90861e-12 -1.24158e-29)
(9.8092e-13 -7.92765e-13 0)
(2.63841e-12 4.85346e-12 1.30029e-31)
(6.67537e-12 8.85394e-12 1.80838e-29)
(3.20276e-12 8.78107e-12 0)
(-4.43175e-13 -8.98202e-14 -3.36837e-31)
(6.78637e-12 1.15134e-11 0)
(-1.04786e-14 2.13375e-15 9.5244e-31)
(3.60403e-12 -4.45526e-12 6.24573e-31)
(6.29366e-12 1.28932e-11 1.40904e-29)
(6.84416e-12 1.3288e-11 0)
(3.34095e-13 -7.85725e-13 0)
(6.81004e-12 -1.32589e-11 0)
(5.36243e-12 -9.87553e-12 1.5404e-29)
(5.82192e-12 -7.76411e-12 -2.99471e-30)
(5.05421e-12 9.47263e-12 1.21447e-31)
(3.92204e-12 5.71604e-12 1.71213e-29)
(-1.03115e-12 1.88022e-13 9.50493e-31)
(-5.91639e-14 -1.5926e-13 -1.45471e-30)
(-6.03771e-14 1.6446e-13 -2.21368e-30)
(5.3035e-12 9.79814e-12 0)
(5.0898e-12 -9.48672e-12 0)
(-1.0796e-14 -3.36324e-15 0)
(-4.7848e-13 -2.02864e-13 1.24794e-31)
(2.52406e-12 -3.46774e-12 2.45085e-29)
(-8.70519e-13 3.76597e-13 -9.27697e-31)
(-7.1237e-13 3.70228e-14 -2.13281e-31)
(5.81767e-12 -1.09292e-11 -3.22769e-29)
(6.2896e-12 1.16036e-11 0)
(5.21392e-12 6.79999e-12 3.65106e-31)
(6.91327e-12 -1.35968e-11 0)
(3.21335e-12 3.74289e-12 -4.721e-30)
(2.80185e-12 6.30849e-12 -3.71465e-30)
(6.95123e-12 1.36146e-11 0)
(5.69329e-12 1.1844e-11 0)
(-8.06958e-13 -1.42913e-13 2.43046e-32)
(4.79545e-12 9.57317e-12 0)
(-4.33397e-13 -1.31021e-12 -3.06421e-31)
(5.9633e-12 1.13116e-11 0)
(5.98261e-12 -1.13175e-11 -5.97402e-32)
(6.75398e-12 1.3403e-11 1.60342e-29)
(1.45658e-12 3.07424e-12 0)
(6.72046e-12 -1.33452e-11 1.6866e-29)
(5.37988e-12 1.03121e-11 1.47349e-29)
(3.42415e-12 -7.24159e-12 -1.61262e-29)
(2.96301e-12 -5.49286e-12 -1.51784e-29)
(2.78661e-12 5.11611e-12 0)
(3.39725e-12 7.10992e-12 9.18812e-32)
(-1.23348e-12 -7.49623e-14 -2.30717e-31)
(-2.36322e-14 -3.87886e-14 0)
(-2.39363e-14 4.27725e-14 1.36687e-30)
(1.23197e-13 -6.85327e-13 9.34071e-30)
(1.68195e-12 2.52909e-12 0)
(8.84201e-13 -1.00942e-12 2.082e-29)
(9.64202e-13 1.89866e-12 1.25712e-31)
(3.78422e-12 -1.04258e-11 0)
(3.79906e-12 1.04347e-11 0)
(1.99583e-12 -3.26967e-12 -6.99699e-30)
(1.48212e-12 -2.73868e-12 -1.2877e-29)
(1.48593e-12 2.71624e-12 -1.28795e-29)
(-2.12651e-13 -1.33161e-13 -1.45916e-31)
(2.80952e-12 -6.3614e-12 0)
(1.30916e-12 2.42897e-12 -1.26633e-29)
(1.36439e-12 -2.30665e-12 -1.45065e-29)
(-1.15748e-12 3.08701e-13 1.07668e-31)
(2.46765e-12 4.56706e-12 -2.50845e-31)
(-3.83133e-14 1.27039e-13 3.38529e-30)
(1.09777e-12 -2.25582e-12 -1.14053e-29)
(1.11617e-12 2.11039e-12 0)
(9.63567e-13 7.12433e-13 0)
(1.63652e-12 2.7025e-12 0)
(-8.841e-13 1.45862e-12 -1.33577e-31)
(-9.82346e-13 -1.47819e-13 0)
(5.4359e-12 1.24706e-11 1.29567e-31)
(2.43245e-12 -1.65428e-12 1.26811e-29)
(9.76956e-13 -2.60899e-12 0)
(1.05211e-13 6.90502e-13 0)
(4.36137e-12 -1.21569e-11 -2.77981e-30)
(8.70702e-14 -1.34711e-12 -1.2184e-29)
(7.4072e-12 1.37633e-11 -7.5775e-30)
(1.58247e-12 -2.90979e-12 -1.04637e-29)
(9.36155e-13 -6.70663e-13 -2.71061e-29)
(1.4634e-12 -3.10725e-12 4.41691e-30)
(1.39566e-12 2.56066e-12 -1.04159e-31)
(-4.35412e-14 -1.28279e-13 2.58442e-30)
(-1.01305e-13 -3.54952e-13 -3.54519e-30)
(6.97943e-12 8.02357e-12 -2.67083e-29)
(4.31417e-12 -9.27246e-12 6.62829e-30)
(2.0695e-12 -5.73252e-12 0)
(5.65409e-13 -1.3223e-12 -3.56588e-30)
(3.45486e-13 -1.82364e-13 -2.57268e-31)
(2.43396e-13 -1.19545e-12 0)
(2.46075e-13 1.19668e-12 0)
(4.95227e-12 1.19336e-11 0)
(2.89151e-12 -7.56497e-12 0)
(-1.27984e-12 4.76791e-15 1.20804e-31)
(-6.6976e-13 -2.96434e-13 -7.79167e-32)
(-1.2091e-12 6.72966e-13 -1.6433e-31)
(-6.73137e-13 1.37282e-12 -4.11013e-31)
(5.66738e-13 1.31336e-12 -1.72217e-34)
(2.93687e-12 5.35829e-12 0)
(-9.07124e-13 1.54767e-12 2.65183e-31)
(2.79197e-12 -5.14524e-12 1.27636e-31)
(-1.09942e-12 1.01846e-12 1.34596e-31)
(-1.2082e-12 -5.80392e-13 0)
(-1.00587e-12 -4.65108e-13 -1.04567e-32)
(-1.10476e-12 8.76415e-13 -2.13528e-32)
(2.08764e-12 3.99158e-12 0)
(7.93868e-13 -1.6862e-12 4.14735e-32)
(7.9333e-13 1.6582e-12 -5.76456e-30)
(-1.77386e-14 6.07222e-13 6.7767e-31)
(-1.23612e-13 1.21855e-12 -1.33638e-31)
(3.64605e-12 -1.02779e-11 1.47592e-30)
(5.59441e-12 1.22988e-11 0)
(-8.20746e-13 8.83909e-13 5.36026e-31)
(1.58807e-12 2.82355e-12 -1.13408e-29)
(-6.67315e-14 -3.97147e-13 5.74879e-31)
(-1.20665e-13 -6.10239e-13 -8.26321e-31)
(1.40445e-12 -2.60108e-12 0)
(4.35832e-12 -1.23497e-11 5.14421e-30)
(-1.41915e-13 -1.27963e-12 -2.92533e-30)
(-1.4982e-13 -9.59148e-13 -1.39353e-31)
(-8.3023e-13 1.72705e-12 -2.702e-31)
(3.66443e-12 1.02545e-11 0)
(-8.33106e-14 -6.7862e-13 7.07301e-31)
(-4.73758e-14 -7.47644e-13 1.83898e-30)
(-6.04545e-14 -2.66242e-13 1.34869e-30)
(-9.32243e-14 7.10579e-13 -5.43824e-31)
(4.17698e-12 -1.14685e-11 -2.02717e-30)
(1.01788e-12 -1.48377e-12 0)
(-6.79402e-13 4.24964e-13 -1.60984e-32)
(-1.01332e-12 2.75934e-13 8.07594e-32)
(3.63769e-12 -8.35931e-12 0)
(9.15461e-13 -8.20528e-13 0)
(3.68861e-13 -1.51365e-13 -1.10794e-31)
(2.89725e-12 7.53025e-12 -1.6419e-34)
(-4.65112e-13 1.26892e-12 -1.20715e-30)
(-1.11353e-12 -1.09196e-12 5.2486e-31)
(5.13127e-12 1.1423e-11 0)
(9.80368e-13 2.60019e-12 2.16113e-34)
(2.07527e-12 5.72062e-12 0)
(-6.61644e-13 1.75619e-12 1.44109e-30)
(4.2743e-12 9.01047e-12 0)
(-1.10246e-12 -5.48111e-13 7.54966e-31)
(-1.06867e-12 7.72403e-13 -6.10703e-31)
(2.13489e-13 1.94151e-12 9.39806e-31)
(-7.24914e-13 2.42853e-13 7.15157e-31)
(-8.4196e-13 -1.26411e-12 -6.9564e-31)
(7.18098e-12 1.35427e-11 0)
(4.52112e-12 8.49748e-12 0)
(6.61893e-12 -1.28563e-11 1.56499e-29)
(-4.95113e-13 -1.19919e-12 2.27239e-30)
(-4.1622e-13 1.74716e-13 1.76122e-31)
(7.84414e-12 1.35581e-11 0)
(-3.30879e-13 -2.97464e-13 -4.73694e-31)
(-8.25515e-13 -1.75062e-12 1.87798e-31)
(3.90226e-12 7.72751e-12 0)
(6.20625e-14 1.37091e-12 3.22301e-31)
(-7.93001e-13 -6.76572e-13 5.32805e-32)
(-9.21756e-13 -1.57299e-12 -4.9817e-31)
(1.87421e-13 -2.24137e-12 0)
(-6.41119e-13 1.06494e-12 0)
(-1.06028e-12 -9.6278e-13 0)
(-1.14439e-12 -5.31598e-13 2.30145e-31)
(1.94995e-12 -6.10909e-13 -3.15616e-30)
(3.79004e-13 -1.90538e-12 2.70159e-31)
(6.34548e-13 6.78519e-13 -5.12719e-31)
(8.12305e-12 -1.04337e-11 0)
(1.10611e-11 -5.11097e-12 -4.07723e-30)
(9.52546e-13 2.14923e-12 -4.40601e-30)
(9.36635e-13 -2.06635e-12 4.95178e-30)
(1.0594e-12 2.29036e-12 -5.65604e-30)
(1.09052e-12 -2.32179e-12 -8.28689e-30)
(1.15993e-12 -2.32266e-12 0)
(1.17998e-12 2.34459e-12 3.62406e-30)
(1.66232e-12 -1.41476e-12 0)
(1.28617e-12 -2.84882e-12 0)
(1.28395e-12 2.94658e-12 0)
(1.584e-12 6.53118e-13 -1.75413e-31)
(1.46161e-12 3.07192e-12 -5.6387e-30)
(1.77045e-12 -3.31887e-12 -1.32153e-29)
(1.73978e-12 3.26397e-12 -3.27363e-30)
(6.7743e-12 9.73535e-14 2.61687e-31)
(1.95613e-12 4.54219e-13 0)
(3.92957e-12 2.00986e-14 1.91437e-30)
(8.58385e-13 -2.1559e-12 0)
(2.493e-12 4.30261e-14 1.24378e-30)
(1.11763e-11 -2.24174e-13 0)
(5.00017e-12 -3.47594e-14 -2.52008e-31)
(1.01669e-11 -8.37441e-12 2.26894e-29)
(-6.33256e-13 -5.25368e-13 3.05769e-33)
(3.11664e-12 3.22214e-12 0)
(5.5049e-12 -1.15454e-11 1.30319e-29)
(2.95715e-12 2.08077e-12 -5.00596e-30)
(5.87388e-12 6.84184e-12 3.59994e-30)
(1.0601e-11 -6.54819e-12 -6.19307e-30)
(1.03249e-11 1.26779e-11 -2.36503e-30)
(3.06892e-12 -1.90817e-12 8.24751e-30)
(-5.47808e-13 2.85039e-13 -8.18023e-31)
(1.9818e-12 4.38125e-12 0)
(1.98326e-12 -4.3132e-12 -6.63437e-30)
(8.78354e-12 2.52119e-12 -5.24349e-30)
(-4.17571e-14 5.51129e-15 5.7958e-31)
(2.14623e-12 -4.67112e-12 3.65922e-30)
(2.16778e-12 4.66773e-12 0)
(9.0449e-12 -1.04696e-12 -7.46328e-31)
(7.40484e-12 -5.42164e-13 -3.09322e-30)
(1.00783e-11 3.30356e-14 -3.72533e-31)
(3.90135e-12 -5.76553e-14 8.6625e-31)
(2.69083e-12 5.83301e-12 0)
(2.94573e-12 5.88322e-12 -2.36143e-30)
(1.78069e-12 -4.10593e-12 0)
(-2.12601e-14 -9.76118e-15 0)
(1.13353e-11 -2.91603e-12 0)
(1.12036e-11 -2.33676e-12 -4.62365e-30)
(4.3795e-12 -1.08549e-11 0)
(1.05565e-11 1.14361e-11 8.56317e-31)
(9.10894e-12 -1.2258e-12 2.5447e-30)
(6.39603e-12 -5.11913e-12 0)
(-1.41977e-13 -2.14829e-12 2.02019e-30)
(1.08813e-11 -9.54729e-13 -4.91883e-31)
(-4.68348e-14 1.30582e-12 0)
(9.61937e-12 1.12871e-11 -3.32883e-30)
(3.58293e-14 1.32068e-12 0)
(7.39836e-12 4.39098e-13 -8.15164e-31)
(4.00679e-12 2.92146e-12 0)
(-2.96226e-14 1.72668e-14 2.70943e-31)
(1.14227e-11 1.60798e-12 4.32595e-31)
(9.53207e-12 -8.09619e-12 -5.3391e-30)
(1.06781e-11 3.28575e-12 -2.14338e-30)
(9.00667e-12 -2.49434e-12 6.01646e-31)
(9.71478e-12 -5.53299e-12 0)
(1.12602e-11 1.36948e-12 -4.34849e-31)
(9.18933e-12 8.34241e-12 4.02075e-30)
(1.91614e-12 -1.13703e-12 0)
(3.92366e-12 1.01626e-11 -3.65905e-30)
(1.10446e-11 5.67624e-12 2.17067e-30)
(1.02167e-11 -3.55631e-12 5.96561e-30)
(4.89351e-12 -1.02127e-11 -7.11406e-30)
(4.85663e-12 1.02808e-11 -7.81055e-30)
(6.42883e-12 -1.29521e-11 1.18633e-29)
(-5.12275e-13 5.81363e-13 0)
(5.84181e-12 1.21556e-11 1.55349e-29)
(-2.79011e-15 8.17903e-13 0)
(6.31294e-12 -1.25744e-11 -7.25869e-31)
(5.96102e-12 1.21259e-11 7.31466e-30)
(5.37529e-12 1.19707e-11 0)
(4.74416e-12 -1.19854e-11 2.7404e-30)
(1.90833e-12 -4.71848e-12 0)
(3.34602e-12 5.6046e-13 0)
(8.59569e-13 -2.43883e-12 -5.50152e-31)
(4.80278e-12 -1.24494e-11 -3.38075e-30)
(8.96038e-12 1.32479e-11 4.86559e-30)
(4.30675e-12 4.16213e-14 -1.91726e-30)
(5.46225e-12 -6.70951e-12 -6.50969e-31)
(-2.52062e-14 -1.66302e-14 0)
(9.44966e-13 2.3101e-12 0)
(5.52995e-12 -1.24032e-11 7.8136e-30)
(4.64359e-12 -9.74131e-12 -1.40996e-29)
(9.48713e-12 6.59319e-12 -3.82446e-30)
(3.18687e-12 -8.78646e-12 -3.32608e-32)
(1.08918e-11 3.48938e-12 5.59072e-30)
(1.07698e-11 5.47913e-12 -1.63662e-30)
(-6.9627e-13 -9.31499e-13 0)
(-1.77054e-13 -2.41649e-13 -1.23067e-31)
(-4.63281e-13 -2.00311e-12 -7.3064e-31)
(8.3462e-12 1.36927e-11 1.2257e-29)
(7.63997e-12 8.6184e-13 3.0302e-30)
(-2.63077e-13 -1.90666e-12 1.72056e-30)
(7.47395e-12 1.07527e-11 5.66313e-30)
(6.04084e-12 9.47725e-12 -1.06687e-29)
(-8.85377e-14 3.93083e-13 0)
(6.38307e-12 1.26865e-11 0)
(-1.00747e-15 6.17137e-15 0)
(5.46199e-12 1.17178e-11 -8.08056e-30)
(1.26675e-15 -4.69004e-15 7.07918e-32)
(6.5187e-12 1.31219e-11 -1.4918e-29)
(-3.29355e-13 1.52529e-12 0)
(1.88905e-12 1.40449e-12 7.94263e-30)
(1.0324e-11 -5.11915e-12 2.64463e-30)
(1.72102e-12 1.14236e-12 0)
(1.0458e-11 1.04196e-11 0)
(4.07158e-12 -4.84114e-12 -1.70143e-29)
(3.28708e-12 3.99881e-12 -1.78837e-29)
(8.1923e-12 3.59505e-12 -1.08356e-30)
(1.67031e-12 -4.55347e-12 5.21237e-30)
(4.11178e-12 -2.04151e-13 3.36142e-30)
(7.09002e-12 -1.18423e-11 7.16118e-30)
(1.79565e-12 4.72787e-12 4.45151e-30)
(3.35619e-12 -3.94678e-12 0)
(9.68095e-12 2.93095e-12 -4.14549e-30)
(5.09961e-12 -1.15544e-11 4.19599e-31)
(-3.3755e-13 -2.26448e-12 3.68099e-31)
(-4.05682e-14 2.21214e-13 1.006e-30)
(1.51235e-12 2.13647e-12 -7.44291e-30)
(-8.88526e-14 1.36806e-13 1.7868e-31)
(8.33182e-13 -1.76075e-12 -6.25626e-30)
(5.49429e-12 -1.17039e-11 -9.23212e-31)
(5.25976e-12 -1.23537e-11 -8.69184e-30)
(1.25774e-12 -1.75761e-12 -8.2347e-30)
(2.14191e-12 -3.00178e-12 4.13502e-31)
(6.78878e-12 -8.57521e-12 -1.06754e-30)
(-1.72198e-13 2.25001e-12 0)
(5.9237e-12 -6.2739e-13 6.05925e-30)
(1.09756e-11 1.22187e-11 0)
(-1.19241e-13 -1.64559e-12 -2.61824e-30)
(-1.91561e-13 2.73119e-13 1.22993e-30)
(3.79399e-12 -1.00482e-11 4.19018e-30)
(2.74112e-13 -2.13043e-12 2.35466e-30)
(4.70437e-16 -4.33443e-15 -1.1456e-30)
(-8.45621e-14 4.96709e-14 -4.18026e-31)
(7.22189e-12 1.22719e-11 -1.15751e-29)
(4.36644e-16 3.77936e-15 0)
(9.77286e-12 1.32972e-11 -1.45858e-30)
(4.88299e-12 -1.19786e-11 -4.17905e-31)
(-1.03983e-13 -9.7471e-14 -4.43893e-31)
(-4.56428e-13 3.97498e-13 0)
(1.88736e-12 4.33472e-12 1.20536e-29)
(-4.13578e-13 1.37908e-12 4.05057e-31)
(5.8798e-12 1.25023e-11 1.15242e-29)
(3.83988e-15 -9.37827e-16 7.55171e-31)
(3.66192e-15 1.31901e-15 5.30432e-32)
(6.31245e-12 -1.27749e-11 -7.16162e-30)
(9.33911e-12 1.30644e-12 2.60147e-30)
(3.2175e-12 -8.23726e-12 -9.0688e-30)
(-8.43031e-13 -1.15774e-12 0)
(1.09263e-11 1.0757e-11 -1.85432e-30)
(-1.13162e-13 1.14991e-13 -4.14023e-31)
(3.75745e-12 8.12989e-12 -5.59543e-30)
(-4.47659e-13 -4.81987e-13 -1.37861e-31)
(3.42694e-12 8.51688e-12 -4.59693e-30)
(-6.27643e-14 6.06791e-14 3.30339e-31)
(-4.86545e-13 -1.84016e-12 -1.85819e-31)
(7.50762e-12 -8.39863e-12 0)
(-2.90866e-13 -1.43413e-12 1.57877e-31)
(4.00603e-12 9.19704e-12 3.06545e-30)
(4.82249e-12 1.0219e-11 -1.75812e-29)
(-1.75765e-13 9.63395e-13 0)
(6.12077e-12 -1.22486e-11 6.78211e-30)
(4.07078e-12 -9.12914e-12 9.06196e-30)
(8.71568e-13 1.44526e-12 7.24006e-30)
(-5.08602e-14 -4.76015e-14 -2.51945e-31)
(8.53893e-13 1.77403e-12 -9.24735e-31)
(8.52763e-12 -2.95437e-12 -3.73139e-30)
(2.58886e-12 -7.84718e-13 3.80441e-30)
(3.35542e-12 -7.73861e-12 -7.2824e-31)
(5.22677e-12 -1.11279e-11 6.74185e-30)
(-7.02749e-13 -1.41548e-12 0)
(-2.33289e-13 -2.24259e-12 -4.07261e-31)
(-1.46982e-13 -3.11027e-13 -7.9615e-32)
(6.90904e-12 -1.05622e-11 -4.37547e-30)
(1.95017e-12 1.64375e-13 -8.4589e-30)
(3.8789e-12 -6.09803e-12 -2.43475e-30)
(6.55329e-12 -1.30459e-11 -7.44173e-30)
(-7.31903e-14 3.22824e-13 -3.82607e-30)
(-5.98045e-13 -2.11149e-12 -8.29782e-31)
(7.99924e-12 -5.55732e-12 6.91198e-30)
(3.19407e-12 4.96172e-12 0)
(2.41999e-13 1.77094e-12 -4.67181e-30)
(4.52483e-12 9.66917e-12 6.51092e-30)
(6.82688e-12 8.67047e-12 7.86353e-30)
(-3.0749e-15 -1.01938e-15 -7.22217e-31)
(-4.27901e-15 1.47392e-15 -2.5404e-31)
(6.38929e-12 -3.79243e-12 0)
(3.24468e-12 -5.10277e-12 1.22756e-29)
(4.04525e-12 -8.86594e-12 7.51372e-30)
(4.27122e-12 -3.30878e-12 0)
(-4.67862e-13 2.16619e-12 -6.4362e-31)
(2.36766e-13 2.17273e-12 6.61367e-31)
(8.9731e-12 1.05659e-11 -5.64814e-30)
(8.14236e-12 -1.08616e-11 2.7762e-30)
(3.94083e-12 -9.38288e-12 3.01412e-31)
(9.95258e-12 -7.95245e-12 4.87652e-30)
(6.22165e-12 1.21941e-11 -1.69343e-29)
(5.07077e-12 -1.16164e-11 0)
(6.65804e-12 1.06539e-11 0)
(1.0289e-11 -6.48721e-12 0)
(6.36976e-12 1.14919e-12 -2.27314e-30)
(7.86057e-12 -1.36287e-11 0)
(5.26678e-13 -1.42482e-12 2.31921e-30)
(-7.53344e-13 -1.67556e-12 -2.41432e-31)
(-3.01948e-13 3.02384e-13 1.66857e-31)
(-2.33127e-13 1.89914e-13 5.33668e-31)
(3.75192e-12 6.16344e-12 4.96605e-30)
(3.49496e-12 -7.59627e-12 9.34219e-31)
(-1.48372e-14 2.10454e-14 1.21855e-31)
(-1.29617e-14 -1.57942e-14 6.09427e-31)
(1.39441e-12 1.42396e-12 -2.37334e-30)
(-7.10317e-14 -4.0738e-14 -6.66937e-32)
(6.47453e-12 2.35514e-12 1.05198e-30)
(2.108e-15 3.11606e-15 -1.3325e-31)
(3.50566e-15 -9.20969e-16 -2.08138e-31)
(5.67165e-12 1.19056e-11 0)
(9.46936e-12 1.10898e-11 0)
(8.94262e-12 -5.77034e-12 -7.27761e-30)
(4.86861e-12 2.05512e-12 0)
(1.08578e-11 1.17979e-11 2.00009e-30)
(7.94368e-13 1.93891e-12 0)
(9.59653e-12 1.23637e-11 6.29313e-31)
(8.28309e-12 1.00818e-11 4.13911e-30)
)
;

boundaryField
{
    front
    {
        type            empty;
    }
    back
    {
        type            empty;
    }
    bottom
    {
        type            zeroGradient;
    }
    left
    {
        type            noSlip;
    }
    top
    {
        type            uniformFixedValue;
        uniformValue    
        {
            type            scale;
            scale           
            {
                type            squarePulse;
                start           0.3;
                duration        0.3;
            }
            xScale          
            {
                type            constant;
                value           1;
            }
            value           
            {
                type            constant;
                value           (0 -0.7 0);
            }
        }
        value           uniform (0 -0 0);
    }
    right
    {
        type            noSlip;
    }
    inner_arc
    {
        type            noSlip;
    }
}


// ************************************************************************* //
