/*--------------------------------*- C++ -*----------------------------------*\
  =========                 |
  \\      /  F ield         | OpenFOAM: The Open Source CFD Toolbox
   \\    /   O peration     | Website:  https://openfoam.org
    \\  /    A nd           | Version:  9
     \\/     M anipulation  |
\*---------------------------------------------------------------------------*/
FoamFile
{
    format      ascii;
    class       volVectorField;
    location    "0.78";
    object      U;
}
// * * * * * * * * * * * * * * * * * * * * * * * * * * * * * * * * * * * * * //

dimensions      [0 1 -1 0 0 0 0];

internalField   nonuniform List<vector> 
578
(
(-0.0362 -0.0431 0)
(-0.0193 -0.0653 2.88e-16)
(-0.0543 -0.064 -1.02e-16)
(0.00359 -0.0708 -2.44e-17)
(0.0118 -0.0263 -4.58e-17)
(0.00456 -0.0929 -9.03e-17)
(-0.0123 -0.0269 4.56e-17)
(0.0133 -0.0245 -1.98e-20)
(0.0597 -0.0899 -1.99e-16)
(-0.0114 -0.0409 4.27e-16)
(0.0058 -0.101 -1.34e-16)
(0.0385 -0.0749 0)
(0.00935 -0.0872 9.93e-17)
(0.0394 -0.0821 -7.71e-16)
(-0.0401 -0.0831 3.88e-16)
(0.07 -0.0751 -9.33e-17)
(-0.0456 -0.0415 4.16e-16)
(-0.0732 -0.0623 0)
(0.0353 -0.0685 0)
(0.0652 -0.0878 1.43e-16)
(0.00325 -0.0799 0)
(0.0558 -0.0689 0)
(0.0307 -0.0274 -4.94e-16)
(0.000227 -0.0739 0)
(-0.00101 -0.0587 0)
(0.0337 -0.0683 3.92e-16)
(-0.00329 -0.0677 -4.95e-17)
(-0.000244 -0.0337 2.67e-17)
(-0.0169 -0.0782 -4.75e-16)
(0.0721 -0.078 3.81e-16)
(-0.001 -0.0582 -4.57e-16)
(0.00427 -0.0765 9.8e-17)
(0.077 -0.0829 -3.67e-16)
(-0.00118 -0.0795 1.93e-16)
(-0.0351 -0.0748 -3.84e-16)
(0.0617 -0.0653 -5.77e-16)
(0.0345 -0.0734 7.55e-16)
(0.0325 -0.0632 0)
(-0.0695 -0.0756 -3.79e-16)
(0.019 -0.0404 0)
(0.0194 -0.0438 -3.74e-16)
(0.0222 -0.04 4.49e-16)
(0.0195 -0.0378 0)
(-0.0356 -0.0732 0)
(0.0542 -0.0527 4.91e-17)
(-0.0195 -0.0414 0)
(-0.0198 -0.045 3.74e-16)
(0.054 -0.0826 -4.93e-17)
(-0.0692 -0.0755 5.64e-16)
(-0.00569 -0.0806 -1.04e-16)
(0.000741 -0.0353 1.46e-17)
(0.0139 -0.0901 -4.19e-16)
(0.0459 -0.033 -2.04e-16)
(-0.00139 -0.0805 0)
(0.00151 -0.0811 3.42e-16)
(-0.0043 -0.0975 8.28e-16)
(0.012 -0.0105 7.91e-16)
(0.0363 -0.0301 -4.02e-16)
(-0.0598 -0.0594 -7.24e-16)
(0.0397 -0.0426 2.11e-16)
(-0.0706 -0.0674 3.82e-16)
(-0.0381 -0.0266 0)
(-0.0578 -0.0442 5.48e-17)
(0.0354 -0.0732 3.59e-16)
(-0.0046 -0.0892 9.55e-17)
(-0.0443 -0.0836 2.12e-16)
(0.0733 -0.0856 -4.41e-17)
(0.0102 -0.0978 3.16e-16)
(0.0786 -0.0736 -1.81e-16)
(0.0393 -0.0838 4.22e-16)
(0.000441 -0.0624 0)
(0.00133 -0.063 -1.37e-17)
(0.000163 -0.0862 -1.03e-16)
(0.0403 -0.0853 0)
(0.00159 -0.108 1.92e-16)
(0.0117 -0.0247 0)
(0.0527 -0.0762 2.54e-16)
(0.0433 -0.0619 -2.08e-16)
(0.00573 -0.0901 0)
(-0.0358 -0.0384 -1.11e-16)
(0.0362 -0.0741 -3.58e-16)
(-0.0178 -0.0256 -3.87e-16)
(0.0108 -0.0251 -1.76e-16)
(0.0178 -0.0252 1.78e-16)
(-0.0702 -0.0865 -5.12e-17)
(-0.0142 -0.041 0)
(0.000668 -0.0206 0)
(-0.00413 -0.107 -3.04e-16)
(0.0287 -0.0633 9.53e-21)
(-0.0306 -0.0702 3.41e-18)
(-0.0024 -0.0739 0)
(-0.0608 -0.0785 1.04e-16)
(-0.029 -0.0648 0)
(0.013 -0.0971 1.86e-16)
(0.0736 -0.0757 5.64e-16)
(0.0528 -0.0699 -4.83e-16)
(0.000143 -0.0822 1.02e-16)
(0.00526 -0.0826 -7.31e-16)
(-0.00391 -0.0246 -7.63e-16)
(-0.0399 -0.0833 0)
(-0.0418 -0.0747 0)
(0.0369 -0.0812 -6.66e-16)
(-0.0138 -0.0946 0)
(-0.0547 -0.0576 0)
(-0.00446 -0.0815 0)
(0.0392 -0.0824 -5.74e-16)
(0.00222 -0.0978 -2.02e-16)
(0.0197 -0.0426 0)
(-0.00836 -0.023 0)
(0.0222 -0.0444 -4.66e-16)
(0.0615 -0.0711 -1.55e-16)
(0.0376 -0.08 0)
(0.0697 -0.0846 4.28e-16)
(0.0606 -0.0722 -3.44e-16)
(0.0633 -0.0744 3.58e-16)
(-0.0138 -0.0905 4.14e-16)
(0.00603 -0.08 2.16e-16)
(-0.0499 -0.0771 -3.16e-16)
(-0.0269 -0.0608 5.49e-17)
(-0.00514 -0.0827 3.62e-16)
(0.0279 -0.0561 -3.74e-16)
(0.0279 -0.0422 -1.79e-21)
(0.0383 -0.0767 -4.08e-16)
(0.00167 -0.065 -5.47e-17)
(0.0235 -0.0406 0)
(-0.0324 -0.0819 4.21e-16)
(0.0244 -0.0752 -4e-16)
(0.0752 -0.0765 -2.04e-16)
(-0.0408 -0.0862 2.11e-16)
(-0.0266 -0.0819 0)
(-0.0403 -0.0819 0)
(-0.0317 -0.0833 0)
(0.0111 -0.0937 0)
(0.00809 -0.0163 3.96e-16)
(-0.0397 -0.0843 -3.94e-16)
(-0.0406 -0.0695 0)
(0.0339 -0.0634 0)
(-0.00834 -0.0866 -3.54e-16)
(0.0496 -0.0732 4.01e-16)
(-0.0351 -0.0686 0)
(-0.0182 -0.0343 4.83e-16)
(-0.0275 -0.0823 0)
(-0.0302 -0.0585 0)
(-0.000272 -0.0624 0)
(0.0159 -0.0311 0)
(-0.0733 -0.0827 8.45e-21)
(-0.0247 -0.0573 4.43e-16)
(-0.00658 -0.0514 0)
(0.0406 -0.0838 4.26e-16)
(-0.0264 -0.0763 0)
(0.0486 -0.0902 0)
(-0.0186 -0.0262 0)
(0.018 -0.0178 0)
(0.014 -0.0283 4.73e-16)
(-0.0437 -0.0877 -3.96e-16)
(-0.00577 -0.0704 -2.19e-16)
(-0.0197 -0.0884 4.26e-16)
(0.0116 -0.0792 -9.77e-17)
(-0.0154 -0.0153 -9.53e-17)
(0.0512 -0.091 -3.37e-16)
(0.044 -0.0831 4.74e-16)
(0.0413 -0.0735 4.93e-16)
(-0.0099 -0.0188 -6.05e-18)
(0.0445 -0.08 0)
(-0.000113 -0.019 2.05e-20)
(-0.0287 -0.0726 4.9e-21)
(-0.000212 -0.0349 -4.76e-16)
(-0.0392 -0.0755 0)
(0.00766 -0.0527 -1.07e-16)
(-0.00557 -0.103 -1.75e-16)
(0.0428 -0.0708 0)
(0.0203 -0.0366 0)
(-0.0244 -0.0417 0)
(-0.014 -0.0283 -4.77e-16)
(-0.0341 -0.0644 0)
(-0.0052 -0.095 -9.8e-17)
(-0.000275 -0.0985 -9.92e-17)
(-0.048 -0.0729 3.65e-16)
(0.0267 -0.0451 5.36e-17)
(-0.00216 -0.0638 2.25e-16)
(-0.021 -0.0375 0)
(-0.0367 -0.0643 0)
(-0.0215 -0.0661 0)
(0.00528 -0.0958 7.35e-16)
(-0.0486 -0.0782 2.68e-16)
(-0.00495 -0.038 -3.55e-16)
(0.0249 -0.03 -1.8e-16)
(-0.0417 -0.0865 9.54e-17)
(-0.0459 -0.0902 4.13e-16)
(-0.00105 -0.0362 -4.8e-16)
(0.0448 -0.089 -4.1e-16)
(0.0379 -0.0706 0)
(0.0381 -0.0492 4.55e-16)
(-0.0361 -0.0682 0)
(-0.0241 -0.0417 0)
(-0.00143 -0.111 1.89e-16)
(0.00287 -0.0419 9.08e-16)
(-0.00284 -0.0414 -7.26e-16)
(-0.0381 -0.071 0)
(0.0355 -0.0674 0)
(0.00588 -0.0396 -3.5e-16)
(0.00903 -0.0992 -9.29e-16)
(0.0137 -0.0422 -2.25e-16)
(-0.00409 -0.108 0)
(-0.000972 -0.104 -2.99e-16)
(0.039 -0.075 0)
(-0.0442 -0.0803 0)
(-0.0451 -0.0536 0)
(0.0459 -0.0907 4.21e-16)
(-0.0224 -0.0255 0)
(-0.0196 -0.0457 4.49e-16)
(-0.0468 -0.092 -4.06e-16)
(-0.0375 -0.0796 -1.32e-17)
(0.00246 -0.107 9.77e-17)
(-0.0328 -0.0664 -2.24e-16)
(0.00134 -0.0726 0)
(-0.0416 -0.0799 -4.28e-16)
(0.0409 -0.0789 4.29e-16)
(-0.0446 -0.0904 4.19e-16)
(-0.0111 -0.0239 -4.89e-16)
(0.0436 -0.0893 2.14e-16)
(-0.0372 -0.0722 0)
(0.0238 -0.0503 -4.42e-16)
(0.0227 -0.0428 0)
(-0.0222 -0.0413 0)
(-0.024 -0.0504 8.89e-16)
(4.1e-05 -0.115 -9.56e-17)
(0.00263 -0.0253 3.93e-20)
(-0.00207 -0.025 1.88e-16)
(-0.000315 -0.0191 3.79e-16)
(-0.00942 -0.0231 -3.84e-16)
(0.00466 -0.0225 -1.94e-16)
(-0.00806 -0.0163 -3.94e-16)
(0.023 -0.0726 0)
(-0.0234 -0.0738 0)
(0.0164 -0.0263 1.36e-16)
(0.0124 -0.0237 0)
(-0.0127 -0.0238 0)
(0.0158 -0.0938 1.55e-16)
(0.0194 -0.0454 0)
(-0.0112 -0.0204 0)
(0.0112 -0.0194 0)
(-0.00139 -0.113 -3.87e-16)
(-0.0191 -0.0357 0)
(-0.00136 -0.0218 7.37e-16)
(0.00901 -0.018 0)
(-0.0096 -0.0181 -3.81e-16)
(-0.00357 -0.0403 8.91e-16)
(-0.0135 -0.0218 0)
(-0.00185 -0.0998 -9.67e-17)
(0.00143 -0.11 9.57e-17)
(-0.0359 -0.0834 0)
(0.00677 -0.0668 0)
(0.007 -0.0203 -3.82e-18)
(0.000585 -0.0182 0)
(0.0269 -0.081 4.2e-16)
(-0.000415 -0.0357 4.74e-16)
(-0.0516 -0.0921 -6.48e-16)
(0.0132 -0.024 0)
(0.00404 -0.0397 4.78e-16)
(0.0111 -0.0238 4.85e-16)
(-0.0118 -0.0211 3.86e-16)
(0.00076 -0.0217 -7.53e-16)
(0.00109 -0.039 5.08e-16)
(-0.0329 -0.0719 3.24e-16)
(0.0293 -0.063 8.02e-16)
(0.0138 -0.0405 0)
(0.00487 -0.0116 -3.92e-16)
(-0.000918 -0.0201 -3.86e-16)
(0.00209 -0.00916 0)
(-0.00212 -0.00924 0)
(-0.0323 -0.0796 -4.09e-16)
(0.0188 -0.0521 0)
(-0.000227 -0.117 -2.81e-16)
(0.00635 -0.104 -2.06e-16)
(-0.00104 -0.115 -5.66e-16)
(-0.00235 -0.089 2.19e-16)
(-0.00492 -0.0116 0)
(-0.0229 -0.042 0)
(-0.000927 -0.107 -4.96e-16)
(0.0216 -0.0408 0)
(-0.00187 -0.11 8.54e-16)
(0.000319 -0.116 0)
(0.00287 -0.11 -9.59e-17)
(-0.000803 -0.115 1.92e-16)
(-0.0161 -0.0312 -4.65e-16)
(0.00674 -0.0137 -7.75e-16)
(-0.00678 -0.0137 3.91e-16)
(-0.000492 -0.0149 0)
(0.000222 -0.0345 -4.75e-16)
(0.0225 -0.0677 0)
(-0.0367 -0.0822 1.3e-17)
(-0.00391 -0.102 1.75e-16)
(-0.0132 -0.023 0)
(0.000395 -0.018 0)
(0.000933 -0.0363 5.87e-17)
(0.0115 -0.0209 -3.87e-16)
(0.0261 -0.0807 -1.04e-15)
(-0.000171 -0.0364 1.08e-16)
(0.000304 -0.0368 -4.23e-16)
(-0.00123 -0.0979 5.09e-16)
(-0.023 -0.069 0)
(-5.57e-06 -0.0212 3.76e-16)
(-4.26e-05 -0.018 0)
(0.000634 -0.0209 0)
(1.43e-05 -0.0222 7.13e-16)
(0.0259 -0.0751 4.13e-16)
(-0.00187 -0.0764 -9.8e-16)
(-0.000433 -0.118 -3.72e-16)
(-0.00043 -0.118 0)
(0.0244 -0.057 2.24e-16)
(-0.000864 -0.116 2.81e-16)
(-0.000398 -0.119 -5.92e-16)
(-0.0191 -0.0526 0)
(-0.000568 -0.114 3.85e-16)
(0.00118 -0.11 3.97e-16)
(-0.034 -0.0766 0)
(-0.00711 -0.0205 0)
(-0.014 -0.0408 0)
(-0.000866 -0.106 -4.76e-16)
(-0.0294 -0.0624 -4.48e-16)
(4.6e-05 -0.117 7.72e-16)
(-0.00264 -0.11 9.88e-17)
(0.000547 -0.103 -3.08e-16)
(-0.00501 -0.105 3.92e-16)
(0.000387 -0.113 -1.82e-16)
(-0.0493 -0.0914 3.88e-16)
(-0.032 -0.061 0)
(0.043 -0.0865 0)
(8.75e-05 -0.114 7.13e-16)
(-0.00989 -0.0975 1.01e-16)
(-0.0556 -0.0905 -1.55e-16)
(-0.000261 -0.118 1.89e-16)
(0.000711 -0.104 -3.87e-16)
(-0.0277 -0.0554 6.66e-16)
(-5.56e-05 -0.113 1.95e-16)
(0.00516 -0.104 -1.8e-16)
(0.000886 -0.103 -4.03e-16)
(-0.000472 -0.0763 0)
(-0.00236 -0.0903 0)
(0.00197 -0.108 -1.96e-16)
(0.00181 -0.112 2.9e-16)
(-0.00086 -0.116 2.8e-16)
(-0.000787 -0.0659 4e-16)
(-0.000165 -0.117 2.84e-16)
(0.0497 -0.0664 -1.14e-16)
(0.0275 -0.0774 2.25e-16)
(-0.00807 -0.0185 -3.89e-16)
(0.00768 -0.0176 9.87e-17)
(-0.00894 -0.0201 3.84e-16)
(0.00901 -0.0199 0)
(0.00919 -0.0191 3.92e-16)
(-0.00937 -0.0194 1.96e-16)
(-0.0017 -0.103 -1.92e-16)
(0.00986 -0.0224 0)
(-0.0101 -0.0234 0)
(4.58e-05 -0.116 -2.83e-16)
(-0.0116 -0.0243 -3.79e-16)
(0.0142 -0.0261 0)
(-0.0143 -0.0266 0)
(-0.00136 -0.113 -3.06e-16)
(-0.0118 -0.0111 0)
(-8.62e-05 -0.116 9.54e-17)
(0.00783 -0.0192 4.35e-16)
(-0.00036 -0.117 -9.86e-17)
(0.000502 -0.096 -4.15e-16)
(-0.00136 -0.115 9.83e-17)
(0.0396 -0.0781 4.13e-16)
(0.00727 -0.101 1.73e-16)
(-0.0326 -0.0299 0)
(0.0361 -0.0786 0)
(-0.0331 -0.0218 -4.8e-17)
(-0.0524 -0.0539 4e-16)
(0.0303 -0.0828 -2.08e-16)
(-0.0764 -0.0851 -2.14e-16)
(0.0329 -0.0202 3.67e-16)
(-0.00873 -0.101 -9.93e-17)
(-0.0156 -0.0356 -4.93e-16)
(0.0154 -0.0345 3.52e-16)
(-0.0257 -0.0499 -4.56e-16)
(-0.00127 -0.081 -3.52e-16)
(0.0161 -0.0362 -2.46e-16)
(-0.0163 -0.0367 0)
(0.00341 -0.107 -4.82e-16)
(0.00145 -0.111 2.84e-16)
(-0.000997 -0.104 5.86e-16)
(-0.00157 -0.0193 -5.04e-16)
(-0.02 -0.0434 4.58e-16)
(-0.0225 -0.0443 0)
(0.0141 -0.0333 -3.03e-16)
(0.00422 -0.0812 1.75e-16)
(0.0151 -0.0812 0)
(0.00975 -0.0916 4.13e-16)
(0.0282 -0.0719 -2.01e-16)
(-0.0797 -0.0775 3.62e-16)
(0.0102 -0.0534 2.12e-16)
(0.0618 -0.0446 3.59e-18)
(-0.000326 -0.0986 5.2e-16)
(0.00541 -0.0715 4.42e-16)
(-0.00104 -0.0314 4.93e-16)
(-0.0748 -0.0793 -7.15e-16)
(0.00111 -0.0335 -4.49e-16)
(-0.00616 -0.0369 2.36e-16)
(-0.0106 -0.0784 3.21e-16)
(-0.0126 -0.0847 0)
(-0.00817 -0.0895 0)
(0.0729 -0.0603 0)
(-0.0236 -0.0679 6.48e-16)
(0.00873 -0.101 -4.99e-16)
(0.0221 -0.0889 -4.07e-16)
(-0.00835 -0.0778 -8.34e-16)
(-0.0372 -0.0799 1.03e-16)
(-0.00286 -0.094 5.09e-21)
(-0.0274 -0.073 -8.55e-16)
(-0.0338 -0.0765 -1.04e-16)
(0.0143 -0.0953 1e-16)
(0.0323 -0.0705 -4.54e-16)
(-0.0327 -0.0718 -2.28e-16)
(0.0411 -0.0861 0)
(-0.00774 -0.0955 9.86e-17)
(-0.0379 -0.0827 5.34e-17)
(0.000136 -0.0177 -1.69e-20)
(0.0413 -0.0841 0)
(-0.0399 -0.0821 5.55e-16)
(-0.0358 -0.0811 0)
(0.0313 -0.0804 -2.15e-16)
(0.0138 -0.0404 6.06e-16)
(-0.0062 -0.089 -4.6e-16)
(0.00785 -0.0223 -3.62e-16)
(0.0307 -0.082 0)
(-0.065 -0.0874 0)
(0.00127 -0.113 -1.91e-16)
(0.047 -0.0524 -1.09e-16)
(0.0114 -0.0837 0)
(-0.00874 -0.0205 -1.9e-16)
(0.0362 -0.0816 -2.09e-16)
(0.0316 -0.0688 0)
(-0.0281 -0.0862 -4.08e-16)
(0.0209 -0.0648 0)
(-0.0155 -0.0929 4.16e-16)
(-0.0258 -0.0864 -3.19e-16)
(0.00357 -0.0957 0)
(0.00992 -0.0829 2.23e-16)
(0.000246 -0.0774 0)
(-0.0601 -0.0912 0)
(-0.00448 -0.109 4.02e-16)
(-0.000541 -0.062 -3.42e-16)
(-0.0542 -0.0718 -4.08e-16)
(-0.0444 -0.0655 5.79e-16)
(0.000747 -0.0173 0)
(-0.042 -0.0852 1.09e-16)
(-0.0109 -0.082 0)
(-0.0369 -0.0807 6.59e-22)
(0.00967 -0.0814 1.69e-16)
(-0.0432 -0.0888 -3.96e-16)
(-0.00142 -0.0643 0)
(-0.00556 -0.064 -7.09e-18)
(0.0362 -0.0648 2.06e-16)
(0.000506 -0.109 6.13e-16)
(-0.0584 -0.0756 0)
(0.0173 -0.0642 4.42e-16)
(-0.0251 -0.0281 2.27e-16)
(-0.0141 -0.0968 -1.56e-16)
(0.0143 -0.0382 -2.76e-16)
(-0.00222 -0.113 9.89e-17)
(0.0508 -0.0797 -1.14e-20)
(-0.0153 -0.0399 0)
(0.0249 -0.0268 -2.32e-16)
(-0.0117 -0.0991 2.08e-16)
(0.0335 -0.0761 -6.42e-16)
(0.000481 -0.0911 -4.56e-16)
(-0.00114 -0.0179 0)
(-0.0125 -0.0166 0)
(-0.0099 -0.0756 2.16e-16)
(-0.000633 -0.102 -4.23e-16)
(0.0361 -0.0794 2.04e-16)
(0.0348 -0.0819 4.29e-16)
(0.0104 -0.0135 1.89e-16)
(0.0194 -0.0257 9.32e-17)
(0.0485 -0.0566 1.83e-16)
(0.000498 -0.0932 0)
(0.00309 -0.11 2e-16)
(-0.0758 -0.0791 -3.07e-16)
(-0.000817 -0.11 -9.46e-16)
(-0.00913 -0.0815 1.73e-16)
(0.0262 -0.0712 2.21e-16)
(-5.89e-05 -0.0929 3.21e-16)
(-0.00211 -0.0407 0)
(-0.0164 -0.0885 0)
(-0.0531 -0.0841 -2.04e-16)
(0.00222 -0.041 -1.74e-16)
(-0.0698 -0.087 5.05e-17)
(0.0315 -0.0786 2.56e-17)
(0.0174 -0.0906 5.34e-17)
(-0.00996 -0.0982 -2.05e-16)
(-0.015 -0.0352 4.8e-16)
(-0.00152 -0.0714 2.26e-16)
(-0.0387 -0.084 2.05e-16)
(-0.00672 -0.0782 1.68e-16)
(0.00638 -0.0788 0)
(0.0406 -0.0853 -2.16e-16)
(-0.00568 -0.105 -4.07e-16)
(0.0239 -0.0608 0)
(0.00256 -0.0991 6.07e-16)
(-0.0691 -0.0739 1.16e-16)
(-0.0157 -0.0897 0)
(-0.0267 -0.0598 2.37e-16)
(0.00914 -0.0936 0)
(-0.0254 -0.063 4.45e-16)
(-0.02 -0.0895 0)
(0.00103 -0.0769 4.13e-16)
(0.0391 -0.0649 0)
(0.00134 -0.0616 -4.49e-16)
(-0.0279 -0.0647 -2.46e-16)
(-0.0328 -0.072 -5.74e-17)
(0.000241 -0.0362 -4.48e-16)
(0.0396 -0.0824 2.21e-16)
(0.0277 -0.0636 0)
(0.000848 -0.071 0)
(0.0212 -0.0895 4.24e-16)
(0.000559 -0.101 -3.01e-16)
(0.027 -0.0494 -3.58e-16)
(-0.00146 -0.112 9.95e-17)
(0.0248 -0.0571 0)
(0.035 -0.0763 2.35e-16)
(0.0013 -0.0896 -5.74e-16)
(-2.39e-05 -0.0723 2.94e-16)
(0.00559 -0.0687 -2.31e-16)
(0.0531 -0.0742 1.06e-16)
(-0.00469 -0.0735 2.34e-16)
(0.0313 -0.0471 0)
(0.0427 -0.0873 0)
(-0.00218 -0.036 -4.4e-16)
(0.000285 -0.0938 0)
(0.0214 -0.0863 4.92e-16)
(-0.0248 -0.0373 -2.44e-16)
(0.000925 -0.058 0)
(-0.031 -0.0687 -2.9e-16)
(-0.0489 -0.0576 -2.8e-17)
(-0.0119 -0.0661 4.71e-16)
(0.013 -0.0672 8.71e-20)
(0.0147 -0.0884 -2.72e-17)
(0.0256 -0.0382 0)
(0.0285 -0.064 2.46e-16)
(0.0125 -0.0749 0)
(-0.000866 -0.0952 -2.17e-16)
(0.000421 -0.0722 0)
(-0.0515 -0.0713 0)
(0.0631 -0.0761 -1.05e-16)
(0.0284 -0.0672 2.29e-16)
(0.0673 -0.061 2.97e-17)
(-0.0415 -0.0829 -1.19e-16)
(0.0342 -0.0787 -2.06e-16)
(-0.0514 -0.0753 1.08e-16)
(0.0479 -0.0632 -1.18e-16)
(-0.00624 -0.106 -1.01e-16)
(0.055 -0.0898 -2.77e-16)
(-0.000875 -0.111 1.16e-16)
(0.00102 -0.0918 1.14e-16)
(-0.0121 -0.0929 5.98e-17)
(-0.0148 -0.0942 0)
(-0.0305 -0.0482 0)
(0.025 -0.0559 -5.16e-16)
(-0.0208 -0.0858 0)
(0.0217 -0.0863 -2.22e-16)
(0.000848 -0.0872 0)
(0.016 -0.0873 2.26e-16)
(-0.00993 -0.0986 1.52e-16)
(-0.023 -0.0871 -2.42e-16)
(0.0225 -0.087 -2.43e-16)
(-0.0374 -0.0812 2.24e-16)
(-0.0583 -0.0718 0)
(0.057 -0.0503 -1.65e-16)
(-0.00978 -0.0908 -4.74e-16)
(-0.0706 -0.0768 1.18e-16)
(0.000691 -0.0891 0)
(-0.0676 -0.0802 2.45e-16)
(-0.058 -0.0655 0)
)
;

boundaryField
{
    front
    {
        type            empty;
    }
    back
    {
        type            empty;
    }
    bottom
    {
        type            zeroGradient;
    }
    left
    {
        type            noSlip;
    }
    top
    {
        type            uniformFixedValue;
        uniformValue    
        {
            type            table;
            format          csv;
            file            "inlet_v.csv";
            nHeaderLine     1;
            refColumn       0;
            componentColumns List<label> 3(1 2 3);
            separator       ",";
            mergeSeparators 0;
        }
        value           uniform (0 -0.08 0);
    }
    right
    {
        type            noSlip;
    }
    inner_arc
    {
        type            noSlip;
    }
}


// ************************************************************************* //
