/*--------------------------------*- C++ -*----------------------------------*\
  =========                 |
  \\      /  F ield         | OpenFOAM: The Open Source CFD Toolbox
   \\    /   O peration     | Website:  https://openfoam.org
    \\  /    A nd           | Version:  9
     \\/     M anipulation  |
\*---------------------------------------------------------------------------*/
FoamFile
{
    format      ascii;
    class       volScalarField;
    location    "0.89";
    object      p;
}
// * * * * * * * * * * * * * * * * * * * * * * * * * * * * * * * * * * * * * //

dimensions      [0 2 -2 0 0 0 0];

internalField   nonuniform List<scalar> 
464
(
2.07855e-20
-4.35046e-20
4.46891e-21
4.33141e-21
-5.15141e-20
4.86989e-21
9.17541e-21
4.25313e-21
-7.41869e-21
-5.56879e-21
2.10067e-20
4.87311e-20
6.4527e-21
4.99574e-20
1.18799e-20
8.398e-21
-1.81203e-21
-1.46588e-21
4.33697e-21
4.02107e-21
4.29483e-21
4.73228e-21
4.61841e-21
4.40524e-21
4.41291e-21
4.30191e-21
3.3175e-20
4.22939e-21
2.87655e-20
4.57016e-21
4.33782e-21
1.10693e-21
1.31901e-21
-1.54762e-21
-1.23626e-21
-2.81204e-22
2.50249e-22
4.42284e-21
4.0389e-21
3.54552e-21
3.81498e-21
4.65124e-21
4.75484e-21
4.44713e-20
3.831e-20
4.76076e-21
4.14715e-21
3.86425e-21
3.99893e-21
4.56107e-21
3.7865e-21
4.03985e-21
2.93432e-21
4.15185e-21
4.19242e-21
4.0237e-21
4.0921e-21
4.92868e-21
5.22453e-21
2.76952e-21
4.04811e-21
-2.83458e-20
4.52251e-21
4.27458e-21
-1.78413e-20
4.25491e-21
7.60244e-21
4.01511e-21
3.0445e-20
4.25585e-21
5.94972e-21
-2.43717e-20
2.16969e-20
3.93339e-21
-4.03252e-21
4.05424e-21
6.45879e-21
9.69155e-21
4.30929e-21
1.9689e-20
-4.33752e-20
4.38633e-21
-6.84219e-20
4.4863e-21
-4.4181e-20
5.37296e-21
-1.97757e-20
4.05642e-21
4.2519e-21
-2.96465e-21
-3.81749e-20
-3.2294e-20
6.58771e-21
4.38214e-20
7.33475e-21
5.93885e-21
4.50955e-21
4.53241e-21
-2.33259e-20
-5.18131e-21
4.38763e-21
3.91043e-21
4.44902e-21
3.35686e-23
-2.20635e-21
-6.86329e-20
4.82893e-21
6.85072e-21
-3.75798e-20
4.1103e-21
5.36474e-21
4.03621e-21
7.94367e-21
-1.78542e-20
4.27814e-21
4.38771e-21
-5.60592e-20
4.60594e-21
-3.07619e-20
4.43681e-21
4.02062e-21
6.14289e-21
-1.51246e-20
2.01011e-20
5.76792e-21
3.22524e-21
-5.15672e-21
6.88946e-21
-1.09135e-21
-6.13815e-20
4.66219e-21
5.76575e-20
4.06796e-21
4.40073e-21
4.83915e-21
-4.68122e-20
4.72906e-21
4.19074e-21
-6.44937e-21
5.21378e-21
4.97053e-21
5.51855e-21
6.66054e-21
4.40707e-21
4.84814e-21
-8.26536e-21
4.31272e-21
4.03588e-21
4.32753e-21
5.20935e-21
4.36547e-21
4.36297e-21
5.84717e-21
2.02475e-21
-3.97375e-20
5.24913e-21
-4.24983e-21
4.29145e-21
-3.3894e-21
-3.143e-20
-4.93715e-22
4.40814e-21
-5.25492e-22
5.04249e-21
4.8799e-21
4.54672e-21
2.57124e-21
4.53392e-21
-6.38437e-24
4.87076e-21
9.01445e-21
-2.34146e-20
-9.50777e-21
4.83322e-21
1.29803e-21
8.48058e-21
4.23055e-21
4.33384e-21
1.18842e-20
-3.48534e-21
4.28872e-21
9.68744e-21
-7.66029e-21
-7.78902e-21
-4.9676e-21
-8.10244e-21
1.29901e-20
1.30518e-20
-4.31066e-21
1.27117e-20
3.98668e-21
1.37695e-20
3.56819e-21
3.93474e-21
5.22091e-21
5.66538e-21
4.3081e-21
4.09644e-21
-6.2661e-21
4.20265e-21
4.08235e-21
5.1913e-21
3.71232e-21
4.69206e-21
1.30402e-20
3.60176e-21
3.88912e-21
4.80637e-21
5.51621e-21
-1.56581e-20
5.26452e-21
1.18569e-20
3.87798e-21
4.41127e-22
4.48524e-21
1.06472e-20
-2.45842e-21
3.74192e-21
3.08265e-20
6.2504e-21
-6.51084e-21
4.17713e-21
4.40806e-21
4.27391e-21
4.2078e-21
4.27224e-21
4.17619e-21
3.78319e-21
4.05663e-21
4.22073e-21
3.92422e-21
3.27065e-21
3.46603e-21
4.42809e-21
3.01405e-21
4.24137e-21
1.84847e-21
3.01987e-21
3.64971e-21
1.24273e-21
4.32299e-21
2.76264e-21
2.45194e-21
3.27955e-21
4.37203e-21
1.16442e-22
2.90563e-21
3.86294e-21
1.22019e-21
4.15191e-21
2.83147e-21
7.5332e-22
4.39712e-21
-4.07481e-22
4.4173e-21
2.74568e-21
4.30618e-21
3.72866e-21
4.22157e-21
2.68589e-21
1.94547e-21
2.88193e-21
3.95241e-21
3.88818e-21
2.16427e-21
3.75695e-21
3.31486e-21
4.13858e-21
9.28815e-21
2.79217e-21
4.70742e-21
1.64823e-21
1.10092e-21
5.10363e-21
7.95545e-21
2.16458e-21
1.88338e-21
6.31813e-21
7.89662e-21
-1.22085e-20
-3.1279e-22
4.24378e-21
7.07323e-21
3.96334e-21
1.03676e-20
-3.09729e-21
8.92824e-21
-1.15733e-20
4.14963e-21
-2.05219e-21
-7.34755e-21
-3.9429e-21
4.24499e-21
4.14469e-21
6.24511e-21
7.2943e-21
1.11295e-20
9.1646e-21
9.64558e-21
-1.53113e-20
7.7791e-21
3.87713e-21
1.75111e-20
4.97878e-20
1.64123e-21
6.01084e-21
5.0195e-21
1.95978e-21
-2.82926e-20
5.39907e-21
4.39803e-21
4.37741e-21
4.65085e-21
4.72006e-21
3.21138e-21
2.24799e-22
9.98505e-21
-1.63543e-20
4.34985e-21
6.75868e-21
4.70881e-21
8.95196e-21
-2.1902e-20
9.88232e-21
-2.04714e-21
3.52419e-21
3.70748e-21
1.48611e-20
4.08694e-21
-1.0061e-20
4.44187e-21
-1.45136e-20
4.12259e-21
3.855e-21
4.61029e-21
4.25443e-21
4.44412e-21
4.36538e-21
2.77807e-21
4.63067e-21
4.02013e-21
3.00147e-20
-4.68011e-21
-9.27846e-21
1.28525e-21
4.30716e-21
3.61837e-21
6.76845e-21
4.45935e-21
4.68498e-21
4.10687e-21
4.29473e-21
8.5884e-21
7.78441e-21
4.06596e-21
-2.83741e-20
4.79799e-21
-6.34196e-20
4.81137e-21
-4.25559e-20
4.06008e-21
2.75184e-21
4.75438e-21
-4.42287e-20
2.63752e-20
4.17119e-21
4.10848e-21
-3.28994e-21
6.61678e-20
4.98254e-21
4.03909e-21
5.72642e-20
1.49578e-20
-2.71609e-21
4.1477e-20
4.43551e-21
2.54998e-20
4.73007e-21
2.37391e-20
5.00391e-21
1.42178e-21
-1.81822e-21
-3.23663e-21
1.64393e-21
1.41064e-21
1.54678e-21
3.63999e-22
4.20745e-21
-6.65678e-21
-9.6692e-22
2.41611e-21
1.27427e-21
1.41698e-21
2.85489e-21
3.87749e-21
4.558e-21
4.36276e-21
4.3924e-21
4.63621e-21
2.12396e-20
-2.38983e-20
3.69628e-21
4.18981e-20
3.35765e-21
1.43958e-21
1.91206e-20
5.67651e-20
3.64478e-21
2.97597e-20
3.42071e-21
-1.22961e-20
4.5942e-21
4.35988e-21
4.42497e-21
4.44504e-21
-2.27811e-20
7.64974e-20
4.70663e-21
4.71021e-21
-2.93301e-20
4.50671e-21
3.95957e-21
2.57137e-20
5.11476e-20
2.61457e-20
1.58284e-20
1.76972e-20
9.72452e-21
5.09623e-21
-6.97648e-20
4.7559e-21
1.88443e-21
-4.15638e-21
4.08737e-21
1.60316e-21
-5.01876e-21
-3.6576e-21
4.49713e-21
-2.51622e-21
5.10891e-21
1.97177e-21
2.03655e-21
4.00139e-21
4.06293e-21
4.32395e-21
4.22911e-21
4.44425e-21
4.85833e-21
4.44557e-21
3.65909e-21
8.87581e-22
6.24148e-21
3.97754e-21
4.40132e-21
3.23177e-21
-3.04538e-21
1.53792e-22
4.31377e-21
4.72612e-21
4.84206e-21
3.48175e-21
7.30094e-20
4.86021e-20
4.22219e-21
)
;

boundaryField
{
    back
    {
        type            empty;
    }
    front
    {
        type            empty;
    }
    left
    {
        type            zeroGradient;
    }
    top
    {
        type            zeroGradient;
    }
    right
    {
        type            zeroGradient;
    }
    bottom
    {
        type            uniformFixedValue;
        uniformValue    
        {
            type            scale;
            scale           
            {
                type            squarePulse;
                start           0.3;
                duration        0.3;
            }
            xScale          
            {
                type            constant;
                value           1;
            }
            value           
            {
                type            constant;
                value           15.1;
            }
        }
        value           uniform 0;
    }
}


// ************************************************************************* //
