/*--------------------------------*- C++ -*----------------------------------*\
  =========                 |
  \\      /  F ield         | OpenFOAM: The Open Source CFD Toolbox
   \\    /   O peration     | Website:  https://openfoam.org
    \\  /    A nd           | Version:  9
     \\/     M anipulation  |
\*---------------------------------------------------------------------------*/
FoamFile
{
    format      ascii;
    class       surfaceScalarField;
    location    "0.89";
    object      phi;
}
// * * * * * * * * * * * * * * * * * * * * * * * * * * * * * * * * * * * * * //

dimensions      [0 3 -1 0 0 0 0];

internalField   nonuniform List<scalar> 
663
(
-4.1783e-26
5.13248e-26
-9.56255e-27
1.00197e-26
5.33974e-26
-5.03909e-29
4.84999e-29
7.19592e-29
-6.80001e-29
-2.64624e-30
-2.35291e-26
3.35362e-26
9.26309e-30
2.65349e-30
-5.38579e-26
1.21068e-26
-3.28189e-30
7.42335e-29
-6.39935e-26
2.69154e-26
3.71008e-26
-8.2028e-27
-5.58004e-26
-9.51846e-27
6.08986e-26
2.89047e-26
-9.80619e-27
-1.91218e-26
-2.69704e-26
2.52904e-26
3.65377e-27
1.23259e-26
-1.33692e-26
1.05045e-27
1.31506e-26
-8.1844e-28
-3.9749e-28
-1.50735e-27
1.90543e-27
-6.33012e-29
-3.41691e-28
1.56895e-29
-1.15919e-29
-6.1929e-28
1.28433e-27
-6.66266e-28
6.25927e-28
-1.23141e-27
-3.16736e-29
3.67912e-28
-3.35204e-28
5.13589e-28
-5.27215e-28
-7.36077e-30
3.87032e-29
-2.52736e-29
-4.44344e-30
-5.1741e-29
-2.40041e-29
1.83599e-29
4.67294e-28
-4.13752e-27
3.67163e-27
7.8942e-29
-9.32172e-29
1.27074e-29
1.16207e-26
-1.11941e-26
-1.13534e-28
1.04377e-28
1.00175e-29
-1.10463e-28
-3.59734e-29
-1.3616e-26
1.16829e-26
1.92979e-27
4.61318e-28
-1.40997e-26
1.16465e-26
-9.64307e-27
-2.00133e-27
6.03728e-27
5.60308e-27
3.30494e-28
-3.83463e-28
-9.08201e-28
1.26045e-27
-2.25164e-29
6.86309e-29
-1.55156e-29
7.66994e-29
-1.23129e-26
6.38382e-28
1.16754e-26
1.07307e-27
2.19725e-28
-9.89152e-28
8.2543e-28
1.62812e-28
-4.51006e-28
-8.56238e-27
4.42517e-27
-1.83066e-26
8.29298e-28
-7.57369e-29
-3.60671e-28
4.36527e-28
3.62218e-28
-2.43252e-28
-1.1914e-28
-3.78487e-29
3.64758e-29
-7.41811e-29
-2.29988e-28
1.31282e-27
5.07122e-29
-5.1624e-29
2.55372e-31
1.38023e-27
-1.94956e-28
-1.18421e-27
-7.03083e-28
7.9909e-28
-9.59236e-29
-1.18233e-27
4.86299e-28
1.97897e-28
-1.35204e-28
1.3275e-28
1.16504e-27
-1.55781e-28
-1.00995e-27
-5.0764e-30
1.16923e-27
1.22515e-27
1.67382e-28
-3.9895e-29
1.60618e-27
2.0062e-26
-2.16543e-26
1.21759e-27
2.9746e-27
-4.1896e-27
-5.05713e-28
3.52614e-28
1.53959e-28
-4.1625e-26
3.34251e-26
9.16541e-28
-1.1002e-28
-3.83935e-27
9.5547e-28
2.88285e-27
1.59876e-29
-2.8495e-26
-3.893e-28
-7.86009e-28
-9.82073e-28
9.76302e-28
-4.01274e-26
1.29448e-26
-1.29668e-27
3.29847e-28
4.47426e-29
-1.61917e-27
1.57572e-26
-1.4143e-26
9.10038e-29
-4.16461e-27
3.31292e-28
-5.18302e-26
4.23053e-26
6.8486e-28
-8.41744e-28
-4.59106e-28
1.19088e-26
2.78395e-26
-3.97275e-26
1.31177e-29
2.61392e-29
-4.33678e-29
8.1937e-27
-1.0263e-26
2.10246e-27
5.73878e-29
-2.31853e-29
-3.29837e-29
1.991e-26
2.53115e-27
-1.31921e-27
3.06083e-26
-1.0614e-26
1.15643e-30
3.91992e-30
2.3785e-29
-2.9306e-29
-1.6649e-26
1.50695e-26
-1.77858e-27
-1.23325e-26
1.02386e-26
-3.08463e-27
-7.15419e-27
-1.47198e-26
-2.50465e-26
3.97879e-26
5.71678e-27
4.52839e-27
-1.17986e-27
1.76072e-28
4.84233e-29
4.55174e-30
1.10581e-27
6.44503e-27
-7.54283e-27
2.12218e-26
-4.81679e-26
7.83166e-29
-5.21482e-29
4.01816e-28
-6.31418e-28
-9.5011e-30
9.53203e-29
2.23398e-27
9.4375e-27
-7.42549e-27
-1.03636e-26
1.70181e-29
6.92796e-27
-5.96327e-27
-5.40816e-27
3.62643e-27
2.29327e-28
-9.70864e-28
7.41444e-28
8.94219e-27
4.62201e-27
-1.35676e-26
-1.82255e-29
3.85913e-27
-1.35395e-26
1.46378e-26
1.077e-28
-6.50399e-29
1.84386e-28
-1.87325e-28
-2.04866e-27
-3.37028e-27
1.27266e-29
-1.77226e-30
-1.02382e-29
6.41789e-27
3.75147e-29
-3.54658e-29
6.43307e-28
-1.69678e-26
3.81396e-26
1.58072e-26
1.4779e-26
-2.41971e-26
3.63219e-26
1.54407e-27
1.60288e-26
-7.05618e-27
3.02644e-26
-1.44953e-26
-8.19346e-27
1.28488e-26
-1.22088e-27
7.26181e-27
2.55488e-27
-2.53984e-27
-8.82882e-29
2.69826e-28
8.77397e-29
1.13035e-28
-2.02906e-28
-3.46251e-27
-2.01202e-30
8.1389e-29
-7.47295e-29
2.23559e-28
-2.22018e-28
-1.16948e-29
8.94237e-29
-7.81323e-27
9.997e-28
-1.9021e-29
-5.93513e-29
5.83432e-29
-6.09135e-29
2.80087e-28
1.55174e-26
3.37776e-28
-4.19162e-28
-5.18566e-31
7.89998e-28
-4.31589e-28
3.58092e-28
-1.36125e-28
-1.77952e-28
5.15067e-28
3.00895e-28
-2.6991e-29
-1.85672e-27
1.22675e-26
-1.04045e-26
1.23345e-26
3.71494e-27
2.96462e-27
-1.32789e-28
-7.90981e-29
-2.39059e-28
-1.25938e-27
4.96049e-28
-6.59294e-28
1.33272e-26
1.38951e-26
-1.03297e-26
2.59291e-27
-5.63059e-27
3.04102e-27
-2.49354e-28
7.47905e-28
1.11637e-27
-1.52431e-26
3.67875e-28
-1.93723e-28
5.60454e-28
1.16857e-27
1.41682e-27
7.76231e-28
-9.63278e-28
-1.14311e-27
1.32172e-26
-1.20766e-26
-6.11162e-27
6.10635e-27
-4.58724e-27
-1.46066e-27
3.24925e-27
-7.21826e-27
7.4848e-27
4.99104e-28
7.24091e-27
1.5169e-27
-9.7029e-27
6.1225e-28
-8.56235e-28
8.77675e-28
-2.59919e-28
-1.38285e-26
1.1961e-26
-1.20368e-27
-5.09161e-27
6.29701e-27
-2.24739e-28
1.10804e-27
1.03457e-27
2.5821e-27
-3.61421e-27
2.64e-27
-2.63853e-27
1.4452e-27
3.99272e-27
-5.14429e-27
-3.962e-27
1.31623e-27
1.67586e-27
-6.36461e-28
1.67781e-27
-3.04299e-27
4.5647e-27
4.65358e-28
4.63623e-28
-9.27448e-28
3.01367e-27
-1.34169e-27
-1.73794e-28
1.74161e-28
-1.51223e-28
2.87154e-28
8.83294e-28
1.15954e-27
-8.63825e-28
1.41585e-27
7.58829e-28
-1.14485e-27
-1.52329e-28
1.18333e-27
-3.57967e-29
-4.46992e-28
2.95275e-28
1.02344e-27
1.47964e-28
-3.10729e-28
-4.5417e-28
-5.82165e-28
5.81947e-28
-5.90907e-28
-6.30847e-28
1.68058e-29
5.23766e-28
-5.2528e-28
5.67495e-28
-5.1429e-27
-5.90748e-27
5.91282e-27
-5.88528e-28
1.44492e-27
1.13226e-28
7.10273e-28
6.67699e-28
-1.38688e-28
8.05956e-28
5.80549e-28
2.79152e-28
8.07337e-28
-1.08607e-27
8.61593e-29
4.94945e-28
2.59193e-28
5.53131e-28
1.27851e-27
-4.651e-28
1.43804e-27
-1.48529e-28
-2.31978e-27
1.03166e-27
-1.49656e-27
-2.80361e-28
1.61962e-27
-2.92413e-27
1.3059e-27
-1.4368e-27
3.06147e-27
1.17237e-27
-1.96985e-27
-9.48574e-28
-1.14789e-27
5.06124e-27
-3.74656e-27
-1.59161e-27
1.92685e-27
-2.26964e-27
-2.23353e-29
2.79506e-27
2.03179e-29
1.39604e-27
1.08894e-27
-4.82785e-27
5.93886e-28
7.20432e-27
-6.12543e-27
-4.83971e-27
-8.20595e-27
8.29344e-28
7.37907e-27
-4.32047e-27
-3.49243e-27
6.28355e-27
3.70907e-27
-2.3096e-28
-4.22994e-28
5.9372e-28
-4.49545e-27
9.44412e-27
-1.13931e-26
1.94352e-27
4.20985e-27
-8.7055e-27
-9.33977e-27
-1.89697e-27
1.12362e-26
-5.24492e-27
9.45331e-27
-1.03468e-26
1.31643e-26
-2.81606e-27
4.21119e-27
-9.20016e-27
-5.09399e-27
1.10173e-29
1.60921e-26
-1.50158e-26
4.79607e-27
8.33448e-27
4.08387e-28
3.23956e-27
-8.33259e-27
-8.81686e-28
2.28983e-27
1.32716e-26
1.39291e-26
-3.93004e-27
7.15258e-27
1.50655e-28
4.38929e-28
-4.36865e-28
2.00298e-27
9.32437e-27
-7.03524e-27
-2.3417e-28
1.74968e-28
-7.56742e-29
-3.06621e-27
-1.19737e-26
1.01276e-26
-7.79853e-28
-3.78497e-28
-7.29247e-29
3.91572e-27
-1.84127e-26
-1.01823e-28
4.48139e-27
1.28314e-26
-8.34159e-27
1.66941e-26
2.25772e-28
6.48478e-28
-5.11749e-27
-4.28683e-28
4.43604e-29
-6.78425e-28
-5.13083e-27
6.45106e-27
-1.51782e-26
-7.37017e-27
-2.28106e-26
1.04183e-26
1.24088e-26
1.07298e-26
-1.14689e-27
2.47716e-28
2.38594e-28
-9.69474e-27
9.8362e-29
-7.41006e-27
1.14398e-26
-1.20966e-27
2.26627e-26
-9.3476e-27
4.20769e-27
-1.13607e-26
-7.19691e-27
-7.97155e-27
-3.14658e-29
4.965e-29
8.8338e-27
-1.86846e-29
1.25302e-28
-7.38188e-28
5.91865e-29
-5.84156e-29
-1.63284e-26
-3.23244e-28
-9.04361e-28
6.0164e-26
-3.87554e-26
9.08257e-30
-1.22158e-29
-1.05203e-27
-2.02774e-28
-3.72813e-28
-4.22419e-29
4.39321e-29
5.18994e-28
-2.96707e-29
2.29341e-29
1.31002e-26
-6.7651e-26
1.43214e-26
-1.22133e-29
-5.15315e-29
1.8662e-27
-6.24562e-28
-1.43643e-27
1.66611e-26
-4.4505e-30
1.67176e-26
-2.58884e-30
2.04821e-27
5.133e-26
3.00689e-29
-4.0497e-29
-1.47002e-26
-1.28869e-29
-6.35003e-27
3.59333e-26
1.3365e-29
-3.80445e-29
-3.5299e-27
2.31311e-27
6.21505e-27
5.40195e-29
4.93189e-29
-3.23935e-29
2.04743e-27
-1.32318e-26
-2.75223e-27
2.51981e-27
-2.04829e-27
-7.85322e-27
5.72953e-28
5.38008e-27
-3.93838e-29
-4.53613e-27
5.76994e-27
-7.09104e-27
-1.9458e-27
1.15285e-27
1.02601e-26
7.54299e-27
5.04304e-30
1.91527e-28
1.45635e-28
1.28541e-27
3.08798e-28
-4.06993e-28
4.0705e-28
-8.55419e-28
-6.66672e-28
2.12049e-28
-7.58823e-29
-4.40892e-28
1.26545e-27
5.56652e-26
4.59149e-30
4.89939e-26
2.54511e-30
4.54292e-26
-2.53153e-26
1.6926e-26
-1.69712e-26
7.50231e-30
-2.46379e-26
1.06713e-30
-3.89031e-26
-1.69307e-26
1.72008e-29
-4.29053e-29
4.84682e-29
-7.3258e-29
2.40035e-29
9.40209e-29
1.26251e-30
6.17953e-27
-5.34644e-29
-1.69122e-29
-1.51517e-26
5.37477e-27
4.5371e-27
-1.26545e-30
1.90754e-28
-1.45033e-28
-3.62317e-28
-1.02066e-27
4.39931e-28
-8.71332e-29
3.67848e-29
-3.84763e-29
3.57796e-29
2.90531e-29
)
;

boundaryField
{
    back
    {
        type            empty;
        value           nonuniform List<scalar> 0();
    }
    front
    {
        type            empty;
        value           nonuniform List<scalar> 0();
    }
    left
    {
        type            calculated;
        value           uniform 0;
    }
    top
    {
        type            calculated;
        value           uniform 0;
    }
    right
    {
        type            calculated;
        value           uniform 0;
    }
    bottom
    {
        type            calculated;
        value           nonuniform List<scalar> 8(-6.32395e-26 -2.1372e-26 5.44354e-26 -4.00977e-26 -5.35609e-26 4.1538e-26 6.40464e-26 2.00834e-26);
    }
}


// ************************************************************************* //
