/*--------------------------------*- C++ -*----------------------------------*\
  =========                 |
  \\      /  F ield         | OpenFOAM: The Open Source CFD Toolbox
   \\    /   O peration     | Website:  https://openfoam.org
    \\  /    A nd           | Version:  9
     \\/     M anipulation  |
\*---------------------------------------------------------------------------*/
FoamFile
{
    format      ascii;
    class       volVectorField;
    location    "0.89";
    object      U;
}
// * * * * * * * * * * * * * * * * * * * * * * * * * * * * * * * * * * * * * //

dimensions      [0 1 -1 0 0 0 0];

internalField   nonuniform List<vector> 
464
(
(-1.30855e-18 -6.61667e-19 -8.01627e-38)
(-8.45839e-19 1.62802e-18 0)
(1.34534e-21 1.28063e-22 0)
(1.79322e-21 -9.09122e-22 -2.62991e-37)
(-6.12906e-19 1.2943e-18 0)
(2.85712e-22 4.29035e-22 7.24561e-38)
(-1.23659e-18 -3.55702e-19 8.91994e-37)
(1.51399e-21 -1.3416e-21 0)
(-1.52844e-18 5.58543e-20 -8.09708e-38)
(-1.44454e-18 4.28166e-19 -6.74042e-37)
(-1.04233e-18 -8.74316e-19 7.13161e-38)
(-4.46124e-19 -4.48102e-19 -7.53552e-38)
(-1.3417e-18 -1.07673e-19 2.39868e-38)
(-3.1713e-19 -5.19008e-19 0)
(-9.67705e-21 4.44053e-19 1.91638e-37)
(9.43342e-21 3.89141e-19 -5.84196e-37)
(3.30345e-20 2.72508e-20 0)
(1.69221e-20 5.73143e-21 -4.58264e-38)
(-3.11989e-23 -1.13496e-22 1.94329e-37)
(-1.19322e-20 -3.66133e-20 -2.40127e-37)
(-1.18337e-20 -3.62287e-20 3.57644e-37)
(-8.26473e-21 -9.68325e-21 -6.69133e-38)
(-1.19918e-20 -1.25419e-20 3.59827e-38)
(8.67352e-22 -8.55779e-22 0)
(1.77035e-21 -5.56647e-22 2.70106e-37)
(3.63922e-22 -3.43236e-22 -1.2085e-37)
(-1.04207e-19 2.00716e-19 -1.01069e-36)
(-3.07028e-22 -2.64934e-21 2.49399e-37)
(-1.50164e-19 2.79143e-19 0)
(-1.48903e-21 -2.13326e-21 0)
(-2.37447e-21 -1.28764e-21 -1.51319e-38)
(1.44358e-19 3.7711e-19 -2.65775e-40)
(1.09999e-19 4.25117e-19 2.03289e-38)
(1.32597e-19 2.44739e-19 -7.71116e-38)
(1.60797e-19 2.04069e-19 7.77158e-38)
(1.22836e-20 -1.22796e-20 7.37448e-39)
(1.82933e-20 -1.92929e-20 5.25013e-40)
(8.50068e-22 -1.43863e-21 3.24312e-38)
(-3.33525e-22 -2.0639e-21 -7.11777e-39)
(3.73337e-20 3.62053e-19 0)
(-7.29274e-21 -3.95823e-20 -3.35756e-37)
(-1.21608e-20 -2.08161e-20 0)
(-1.4212e-20 -1.75012e-20 9.63305e-38)
(-1.71006e-19 2.5633e-20 -2.34905e-36)
(-3.3637e-19 -1.30491e-19 2.39423e-36)
(3.80025e-20 4.26411e-19 1.71023e-38)
(-9.54608e-21 3.03802e-21 -2.38314e-37)
(-4.89317e-21 7.99069e-21 6.85641e-40)
(-1.02881e-22 -8.09334e-22 0)
(4.86531e-22 -2.16705e-21 -3.13994e-38)
(-4.48294e-21 -4.33006e-20 2.26476e-37)
(-1.92057e-21 -7.09833e-22 1.48802e-38)
(-1.01281e-21 -3.68921e-20 1.29013e-37)
(-1.93912e-20 1.43832e-20 2.42143e-37)
(-1.60279e-20 2.29275e-20 7.78406e-39)
(-3.645e-21 9.14465e-22 -2.36022e-37)
(-6.26833e-21 1.31411e-21 0)
(3.2336e-20 1.0773e-20 0)
(2.42704e-20 1.96297e-20 3.33246e-37)
(1.90737e-21 -4.00299e-20 0)
(-2.32649e-22 -1.38357e-21 -2.38178e-37)
(-6.83152e-19 2.93703e-19 3.05713e-36)
(9.9354e-20 -1.44756e-20 -6.06718e-37)
(-4.26074e-21 1.1379e-20 2.54958e-37)
(-1.1805e-18 3.86556e-19 -2.24795e-38)
(-2.2012e-20 7.19149e-21 2.47152e-37)
(9.04677e-20 -7.31348e-20 4.30668e-37)
(-5.73745e-22 -9.90771e-22 2.19726e-37)
(-7.60725e-19 -6.13434e-19 -8.48781e-37)
(-1.1787e-20 2.87569e-20 -2.57596e-37)
(3.11216e-20 1.28337e-20 -3.32555e-37)
(-9.43863e-19 5.14556e-19 -1.63109e-36)
(-1.00618e-19 3.80754e-19 0)
(-6.14249e-21 5.66291e-21 -2.3398e-37)
(3.55218e-20 -4.6238e-19 -1.35804e-37)
(-1.64384e-21 -1.39979e-21 -2.40768e-37)
(9.00459e-20 -4.33229e-20 3.94759e-37)
(-1.4965e-18 -6.42408e-19 -8.91653e-37)
(1.93246e-20 9.11035e-21 2.61882e-37)
(-3.92405e-20 3.77584e-19 4.49295e-37)
(-5.89682e-19 7.84317e-19 0)
(5.73361e-22 -6.80961e-22 -6.45912e-38)
(-1.36155e-19 2.32253e-19 -3.9838e-36)
(1.51007e-21 2.16452e-22 -2.78847e-37)
(-3.52053e-19 4.33369e-19 0)
(7.0117e-20 -5.71021e-21 2.64849e-39)
(-6.68644e-19 9.13643e-20 -1.44423e-36)
(8.37246e-22 -1.24393e-22 0)
(-1.8135e-22 -1.28233e-21 0)
(4.73463e-20 -4.62815e-19 -1.00203e-37)
(-4.20328e-19 2.5575e-19 2.26474e-36)
(-8.98094e-19 8.32882e-19 0)
(1.58676e-19 -1.80101e-19 -4.2235e-37)
(-6.15171e-19 -1.12883e-18 -2.24844e-36)
(1.40601e-19 -2.36147e-19 4.15207e-37)
(1.152e-19 -3.4192e-20 3.11481e-37)
(5.26911e-21 1.74962e-20 -2.6249e-37)
(8.84206e-22 -7.18328e-22 5.92386e-38)
(-1.34704e-20 -2.61774e-19 -1.60659e-36)
(-1.16142e-18 6.88338e-21 -4.06643e-38)
(-2.02711e-22 -1.48965e-21 0)
(-8.26896e-21 1.28709e-20 -1.69e-38)
(-2.20618e-21 -1.5996e-21 0)
(1.58879e-19 3.22708e-19 2.60066e-40)
(1.34024e-19 3.11707e-19 0)
(-9.04067e-20 2.23293e-19 -3.19352e-36)
(3.07621e-22 -1.44437e-22 0)
(1.27578e-19 -1.03032e-19 -4.22224e-37)
(-2.26807e-19 2.7759e-20 -2.26716e-36)
(-1.66379e-20 1.56742e-20 0)
(1.42035e-19 -3.31743e-19 0)
(-1.0133e-20 6.00268e-21 2.43284e-37)
(1.20453e-19 -1.46915e-19 0)
(-4.99627e-20 -3.86718e-19 8.92061e-37)
(-1.97689e-21 -1.5021e-21 -8.01651e-39)
(-4.73624e-21 -2.00281e-21 4.21836e-39)
(-8.09705e-20 -2.62752e-20 3.09407e-36)
(4.48047e-22 -1.23335e-23 -2.9934e-37)
(-1.58319e-20 -1.36277e-19 1.29212e-36)
(6.25616e-23 1.17236e-21 1.65283e-38)
(-1.33235e-20 1.31081e-20 -2.28033e-37)
(-9.57209e-19 -3.09744e-20 -1.3174e-38)
(-8.44119e-19 7.37134e-20 6.01915e-37)
(-9.70116e-19 -2.64225e-19 -8.05058e-37)
(5.39097e-20 -3.19971e-21 0)
(1.56878e-19 -3.52873e-19 -1.56363e-37)
(-7.27567e-19 -2.8626e-20 -6.0716e-37)
(8.87883e-20 -3.20432e-19 0)
(1.41058e-19 1.50389e-19 0)
(-5.8996e-20 3.94115e-20 3.08622e-36)
(1.29472e-22 4.50932e-22 2.1656e-37)
(-6.79396e-20 -4.82567e-20 -2.65293e-36)
(2.09352e-22 -1.16426e-21 1.94849e-37)
(-7.33619e-21 -2.61346e-21 0)
(-3.19105e-21 -5.93434e-21 0)
(-3.41989e-20 -7.58431e-20 -2.45377e-36)
(1.57766e-23 3.42946e-22 4.51619e-37)
(-2.01643e-22 -1.9786e-21 2.58041e-37)
(-1.09395e-18 1.58974e-19 7.17598e-37)
(-1.06431e-21 -4.64332e-21 -2.49106e-37)
(-1.16418e-21 -1.8937e-21 0)
(1.72212e-19 -2.67883e-19 0)
(1.75393e-20 1.72163e-20 2.92027e-38)
(-4.37662e-21 -1.48921e-21 -2.63812e-37)
(-1.28278e-21 -1.00863e-21 -2.7922e-37)
(5.98446e-21 -4.28417e-19 -6.13283e-37)
(-1.05044e-20 -2.48172e-21 0)
(5.45231e-22 4.44359e-22 0)
(-1.15714e-20 1.78948e-20 -1.411e-40)
(-2.11466e-21 -1.14649e-20 6.03735e-37)
(-1.34677e-20 -4.08962e-21 -8.07306e-39)
(-6.23885e-21 -3.68646e-21 -2.53559e-37)
(-2.44333e-19 2.17887e-19 4.34192e-37)
(1.13751e-19 -4.15447e-19 1.57056e-37)
(-4.2216e-20 -1.85644e-19 -1.98594e-39)
(-1.36971e-21 -6.79101e-21 3.36305e-37)
(3.08872e-20 5.62227e-20 0)
(-1.66985e-20 -2.88735e-21 0)
(-7.74162e-19 -8.52655e-21 4.08407e-38)
(-2.61025e-19 -1.19797e-19 1.80456e-36)
(-1.41065e-19 -1.83961e-20 0)
(-1.91382e-20 -6.01014e-21 2.65889e-37)
(4.12646e-20 -4.00333e-19 6.83601e-38)
(-1.24722e-21 -7.78764e-21 -7.81271e-39)
(-2.43879e-21 -1.77361e-20 -2.95329e-37)
(-7.11021e-22 -7.6918e-22 0)
(-3.13907e-20 7.96807e-20 1.10235e-37)
(-5.69826e-21 -2.82418e-20 -2.70921e-37)
(5.79464e-20 3.23542e-19 5.55988e-38)
(1.13206e-20 -1.25623e-19 -4.79204e-37)
(2.41047e-20 -2.00104e-19 -1.72518e-37)
(-4.40323e-19 -8.69542e-20 -1.1737e-36)
(6.70627e-21 -2.74798e-19 -3.38492e-37)
(-5.58149e-21 -9.785e-21 6.64795e-38)
(1.88136e-20 -2.49496e-19 2.74087e-37)
(6.095e-20 -2.43028e-19 5.27641e-37)
(-2.16355e-20 -3.35785e-21 -2.63654e-37)
(-2.27047e-20 -8.00167e-21 1.02725e-39)
(-3.47674e-19 2.186e-19 5.53178e-37)
(5.70308e-20 1.47974e-19 3.81507e-38)
(-2.0422e-20 -1.70559e-20 -2.56e-37)
(4.25632e-20 -8.38291e-20 -5.76515e-37)
(1.17337e-20 5.49094e-20 0)
(2.08932e-20 8.0253e-20 -4.56424e-37)
(1.80853e-20 1.84228e-19 1.15014e-37)
(2.18776e-20 1.31882e-19 -1.08797e-38)
(1.55999e-20 -4.34331e-20 0)
(1.00045e-20 -3.33658e-20 6.40422e-37)
(6.72205e-21 -1.4942e-19 -4.0221e-37)
(2.36422e-20 -1.42499e-19 -1.23551e-39)
(-8.99382e-21 2.10796e-20 2.35561e-40)
(2.06811e-20 -8.79732e-20 -8.01108e-37)
(-1.0964e-21 3.47045e-21 3.40205e-37)
(-6.09876e-21 1.50614e-20 2.38763e-37)
(9.714e-21 2.89683e-20 -3.16608e-40)
(4.74684e-21 3.19613e-20 3.17611e-40)
(-8.03633e-21 -3.63898e-20 2.49105e-37)
(-1.42966e-20 2.11934e-20 -2.33055e-40)
(1.10485e-20 8.5581e-20 -2.66678e-37)
(-7.83626e-21 2.91652e-20 -2.56941e-37)
(-6.04587e-21 2.31052e-20 0)
(-4.65922e-22 3.20577e-20 0)
(-2.4855e-21 1.38941e-20 0)
(-3.52862e-21 3.42473e-20 -2.71942e-40)
(1.19921e-20 -6.1176e-20 0)
(-2.3619e-21 8.96145e-21 1.66743e-39)
(-1.11931e-21 9.28179e-21 0)
(-6.32972e-22 1.21704e-20 2.14477e-37)
(-7.67573e-22 2.18529e-20 -3.5118e-37)
(-3.10949e-21 -1.56581e-19 6.00728e-37)
(-5.00193e-22 -2.28271e-21 -2.49716e-37)
(7.19371e-21 -1.20007e-20 0)
(-4.5498e-22 -4.37114e-22 -1.88756e-37)
(2.10725e-21 -1.29467e-20 4.43551e-38)
(-1.13371e-21 -1.17383e-20 0)
(1.27233e-20 -9.32852e-20 4.6954e-37)
(7.02432e-21 1.15009e-19 1.75566e-37)
(-1.39398e-21 6.17463e-21 -1.75379e-37)
(-1.7781e-20 1.35839e-19 4.33821e-37)
(4.03443e-22 1.24826e-20 2.80987e-37)
(1.14221e-20 3.07435e-20 3.39692e-37)
(-2.11072e-21 1.93169e-20 -2.68241e-37)
(-4.22846e-21 2.96425e-20 2.5725e-37)
(-1.74409e-20 1.02399e-20 -5.04042e-37)
(-2.30017e-20 -3.86438e-21 -2.57535e-37)
(-2.12698e-20 -1.04937e-20 2.44394e-37)
(-1.80924e-20 -4.47891e-21 0)
(4.75747e-21 -2.74039e-20 -1.09531e-37)
(-1.23936e-20 -1.17223e-20 7.21659e-39)
(-4.08438e-21 -4.13042e-21 2.48307e-37)
(6.86689e-21 -1.21013e-20 -2.46114e-37)
(1.4525e-20 -3.06773e-20 2.2428e-38)
(3.25708e-20 -2.05867e-20 0)
(5.4362e-20 1.0881e-21 2.86681e-37)
(9.91258e-21 -3.94053e-20 -1.90475e-37)
(2.113e-20 -4.83499e-21 0)
(8.38123e-20 1.16574e-20 8.70072e-39)
(7.0666e-20 -3.37554e-21 1.81476e-38)
(3.74224e-20 -9.93935e-21 -2.36446e-37)
(6.02015e-20 1.14631e-20 -3.9103e-38)
(5.80304e-20 -4.70229e-21 2.41235e-37)
(1.16938e-19 2.5424e-20 1.32673e-37)
(4.50678e-20 -1.63627e-20 -1.592e-37)
(7.94563e-20 -3.84079e-21 0)
(1.05764e-19 -4.65652e-21 0)
(5.88221e-20 3.3795e-20 1.41515e-38)
(1.30749e-19 6.04808e-21 5.28425e-39)
(-4.61245e-21 -3.69919e-20 0)
(1.28457e-19 5.65079e-20 0)
(-1.51646e-21 -2.26288e-20 0)
(1.66255e-19 6.58133e-20 1.17568e-37)
(9.58651e-20 6.72559e-20 4.52452e-38)
(1.96098e-19 -7.51942e-20 3.14871e-37)
(9.96724e-20 -4.15829e-19 1.00513e-37)
(1.59286e-19 -5.42965e-21 0)
(1.83753e-19 1.70811e-20 0)
(-1.59139e-20 1.04646e-21 0)
(-4.48309e-23 -1.36362e-20 1.5442e-37)
(2.07672e-19 -1.01889e-20 1.89639e-37)
(2.21603e-19 1.69975e-19 0)
(2.24337e-19 3.07242e-20 -1.80651e-37)
(2.24617e-19 -1.6189e-19 -4.17168e-37)
(2.39495e-19 -1.15519e-20 -1.85731e-37)
(5.93672e-20 3.50248e-19 1.87817e-37)
(2.42915e-19 4.73686e-20 1.85736e-37)
(-2.34401e-20 2.72434e-19 -6.97563e-37)
(2.36994e-19 -1.75072e-20 3.67834e-40)
(-1.42757e-21 -1.82726e-21 7.8355e-39)
(-8.68629e-21 4.69316e-19 -2.86222e-37)
(1.2285e-19 2.65599e-19 -1.90362e-37)
(-4.57268e-21 -1.2239e-20 2.55806e-37)
(2.15095e-19 6.0622e-20 0)
(5.85821e-20 -1.82645e-20 -1.09259e-37)
(5.09521e-20 4.54853e-19 -4.54046e-38)
(-8.74307e-19 -8.1712e-20 1.62321e-37)
(1.81285e-19 -2.02074e-20 0)
(1.27394e-19 7.56315e-20 0)
(6.72122e-21 2.55239e-20 3.87008e-37)
(2.17359e-21 9.56981e-21 0)
(-3.16599e-20 -4.54556e-19 -2.86336e-37)
(5.9033e-20 -2.18009e-19 -1.83738e-40)
(-6.38663e-21 -8.18613e-22 9.61957e-40)
(1.86813e-21 1.92668e-20 0)
(-3.18311e-21 2.47101e-21 2.41277e-37)
(-8.60364e-20 4.25501e-19 -4.45729e-37)
(-2.18552e-20 -3.00425e-19 -1.49999e-37)
(5.10187e-21 9.55018e-21 5.69585e-37)
(-5.13747e-19 -1.32596e-19 0)
(-5.13068e-21 -2.39243e-22 0)
(-1.30181e-19 -2.06678e-19 1.54118e-37)
(-2.33364e-19 -2.54029e-19 2.03698e-39)
(-3.96222e-19 -1.47434e-19 -1.39503e-39)
(-1.20662e-20 1.24484e-21 2.58715e-37)
(-2.05353e-20 9.62591e-21 -5.03875e-37)
(1.6161e-19 -7.65833e-20 -3.21893e-37)
(1.68152e-20 6.31657e-21 -8.73519e-37)
(9.87871e-21 -1.10813e-20 0)
(8.6412e-20 -2.24195e-19 4.18185e-38)
(7.27491e-20 -1.35174e-19 5.77809e-37)
(-3.99849e-19 -2.01905e-19 1.16193e-36)
(-1.0897e-19 3.25469e-19 3.44846e-37)
(-2.69292e-19 6.23984e-20 3.44819e-38)
(-4.80635e-19 6.39289e-20 -2.35263e-36)
(-3.72787e-19 -8.15084e-19 2.84942e-36)
(1.19927e-20 -3.32853e-20 -6.15042e-38)
(1.99379e-19 -1.30411e-19 3.02843e-37)
(2.14542e-19 -1.91723e-19 5.02405e-37)
(4.80496e-21 -3.37322e-20 -4.63589e-38)
(-1.27336e-19 -2.43596e-19 -3.28416e-36)
(5.75177e-20 -3.29832e-19 2.43578e-37)
(-1.00053e-20 2.85072e-20 2.57653e-37)
(-1.00063e-20 -5.41547e-22 -5.94608e-41)
(1.49681e-19 -3.99136e-20 0)
(-5.89402e-19 2.54822e-20 3.40107e-38)
(1.92322e-19 -2.50653e-19 3.16847e-37)
(1.18019e-19 -2.91933e-19 0)
(4.33434e-21 2.07255e-21 -4.51637e-37)
(-2.30644e-19 -3.29007e-19 0)
(1.09367e-21 -9.21333e-22 0)
(-5.35201e-19 1.03504e-19 -5.60972e-37)
(-3.67786e-21 -4.05614e-21 -2.11448e-37)
(5.38433e-20 -6.3662e-20 1.92936e-39)
(-1.30774e-19 -3.50938e-19 1.50198e-36)
(5.45786e-20 -1.57007e-19 -5.68158e-37)
(-4.24229e-19 -1.83496e-20 -1.32892e-37)
(-1.8887e-21 4.27325e-21 1.49344e-39)
(-1.09918e-21 7.49021e-22 2.16118e-37)
(-6.43149e-19 3.30297e-20 7.13624e-37)
(-2.80493e-21 -1.29062e-21 0)
(-1.76075e-19 -3.69704e-19 -5.82401e-37)
(-1.47908e-20 -2.96214e-20 1.34707e-37)
(-1.5948e-18 5.48309e-19 -4.21589e-37)
(2.10121e-22 -1.59859e-23 9.75431e-38)
(2.26422e-19 -1.17065e-19 -5.56691e-37)
(-4.10303e-21 3.25183e-20 2.70598e-40)
(-2.06725e-20 4.11847e-21 2.48542e-37)
(-6.29146e-21 -6.10533e-21 2.00153e-37)
(8.6936e-22 -2.48733e-22 2.10777e-37)
(7.40273e-20 -4.08368e-19 -1.76672e-37)
(-1.2224e-20 -2.68239e-20 -2.84428e-37)
(4.8303e-22 -2.61748e-22 -1.02928e-37)
(-1.32428e-18 -1.40254e-18 0)
(-8.76149e-21 -4.31513e-19 -3.63129e-39)
(-6.7133e-20 -4.45579e-19 5.77991e-37)
(1.73291e-19 -1.99375e-19 -1.34005e-37)
(1.75777e-22 -2.22224e-21 -1.21144e-37)
(-7.78476e-22 1.10123e-21 -3.45194e-37)
(5.90551e-20 -1.99831e-20 -3.93611e-37)
(9.37771e-22 2.68908e-23 -2.58005e-37)
(2.87243e-21 2.88024e-20 0)
(-1.73493e-20 4.89615e-21 7.66917e-39)
(1.43381e-21 -7.38778e-24 1.17072e-37)
(2.90687e-20 -2.91521e-20 0)
(3.43956e-20 -1.31288e-20 4.49634e-37)
(-1.41517e-20 8.48885e-21 2.3636e-37)
(-2.8451e-19 1.0758e-18 3.79367e-36)
(-4.29229e-23 6.14665e-23 0)
(-8.12516e-20 4.51082e-19 -2.04851e-36)
(1.21832e-22 6.7027e-24 1.07602e-37)
(-1.08598e-18 1.40109e-18 0)
(1.19616e-21 9.9338e-22 1.41905e-37)
(-1.61225e-18 -1.46889e-19 1.06927e-37)
(9.32176e-22 -4.02613e-22 -7.74687e-38)
(-4.76148e-19 9.33685e-19 0)
(-9.62411e-19 -1.15375e-18 6.71115e-38)
(5.95344e-22 -1.57133e-22 -2.66605e-37)
(6.06225e-22 -1.42173e-21 0)
(1.13248e-19 1.31712e-19 0)
(-1.21561e-19 -2.17456e-19 0)
(-8.48837e-22 -6.17114e-22 -1.62861e-37)
(1.48493e-21 1.34935e-21 0)
(-7.8761e-20 1.698e-20 5.16673e-36)
(-1.4501e-19 3.9525e-19 -8.15148e-38)
(5.67535e-20 9.2919e-20 0)
(-3.49907e-20 1.6403e-19 3.49222e-37)
(8.44953e-22 -8.26314e-22 0)
(-5.11662e-19 -8.7943e-20 1.32124e-36)
(-7.33223e-21 -1.71699e-20 -4.32994e-37)
(-1.36182e-20 2.40178e-19 2.74781e-36)
(-2.29817e-21 -4.07799e-21 -8.21717e-38)
(1.17698e-20 2.14385e-19 0)
(8.68238e-20 3.10408e-19 -5.80552e-38)
(8.09161e-20 2.08285e-19 0)
(2.01005e-19 2.35676e-19 5.45537e-38)
(1.7241e-19 1.0581e-19 -3.32048e-38)
(1.58358e-19 2.98428e-19 0)
(2.01454e-19 1.72188e-19 3.16766e-38)
(8.38682e-22 -7.01968e-22 1.39584e-37)
(1.49592e-20 3.19198e-20 0)
(4.28442e-21 -1.37887e-20 0)
(1.73015e-20 -3.47588e-20 6.47886e-38)
(3.86104e-20 -8.29441e-21 0)
(1.33435e-21 -2.15592e-20 -7.33509e-39)
(-2.35018e-22 -2.27545e-20 -3.13993e-37)
(-4.5191e-21 -3.16175e-20 1.15734e-37)
(-1.77883e-20 -1.61203e-20 2.65589e-37)
(-1.88845e-20 -2.34594e-20 0)
(-8.37079e-21 -5.35105e-21 5.40485e-37)
(-7.77118e-21 -2.61482e-20 0)
(-3.08932e-19 2.04587e-19 1.22442e-36)
(-1.3299e-18 1.4046e-18 0)
(3.88408e-22 2.22554e-22 0)
(-1.12752e-18 -1.45734e-18 0)
(6.57602e-22 5.39698e-23 8.08312e-38)
(-1.64488e-18 3.07298e-21 4.9238e-37)
(-1.48948e-18 -9.29568e-19 0)
(-1.006e-19 -4.83536e-19 0)
(7.00709e-23 4.83133e-22 -1.59089e-37)
(-3.08835e-19 -1.10005e-18 0)
(-3.57102e-23 -4.29502e-23 2.03645e-37)
(-1.43312e-18 7.25593e-19 3.28707e-37)
(6.7273e-22 -1.51774e-21 -1.43355e-37)
(1.89688e-21 4.15952e-22 0)
(-1.93237e-21 -1.41232e-21 -1.35459e-37)
(1.45678e-21 -5.68374e-22 0)
(-1.12891e-18 1.01747e-18 0)
(-5.41101e-20 -1.67072e-19 0)
(4.53547e-22 -1.78358e-21 -8.81145e-39)
(1.08477e-21 7.03439e-22 -1.27667e-37)
(-1.51792e-18 8.66141e-19 -3.26278e-37)
(9.06775e-22 -1.11408e-21 -1.56525e-37)
(4.89523e-22 4.61648e-22 -1.4152e-37)
(-7.79148e-19 -3.22365e-19 9.09612e-37)
(-2.36377e-20 5.28057e-20 -2.36268e-36)
(-8.56963e-19 -1.69335e-18 -1.85874e-36)
(-2.70863e-19 2.92443e-19 5.11643e-37)
(-1.61393e-21 1.31097e-19 -9.68724e-37)
(6.82662e-21 2.30824e-19 2.39484e-37)
(3.74155e-21 1.15399e-19 -1.72871e-37)
(-1.89849e-19 5.7605e-19 4.65072e-36)
(1.80482e-22 4.02027e-22 -1.60327e-37)
(2.01634e-19 1.99171e-19 -5.86615e-38)
(5.37599e-20 2.21929e-19 1.22621e-38)
(-2.60767e-22 -3.61997e-22 -2.48286e-37)
(2.08129e-19 1.01407e-19 -1.34054e-37)
(5.81017e-21 5.6792e-21 0)
(5.44942e-21 1.31711e-22 4.58601e-38)
(-3.96724e-21 -2.41295e-21 1.41802e-37)
(2.19848e-21 -4.49917e-21 0)
(-1.40891e-21 -1.68497e-21 1.64359e-37)
(3.43663e-20 -2.17028e-20 0)
(1.74092e-22 -1.08975e-20 5.6138e-38)
(-1.17957e-20 -2.42147e-20 -1.12971e-38)
(-1.57012e-20 -2.82431e-20 1.41128e-37)
(-1.22861e-20 -6.44801e-21 -3.992e-37)
(-1.95244e-20 -2.19926e-20 8.23179e-39)
(-1.404e-20 -9.65224e-21 1.48634e-37)
(-4.97289e-21 -1.88173e-20 1.57752e-37)
(-1.77078e-20 -1.04119e-20 -1.6782e-37)
(-4.40644e-21 -4.19781e-20 -1.04427e-37)
(7.55442e-20 3.92507e-19 0)
(-1.62327e-18 -5.29424e-19 -2.05425e-37)
(7.16973e-20 4.58024e-19 2.47151e-37)
(-9.04193e-22 -9.54601e-22 0)
(2.16692e-21 -4.31962e-20 2.10503e-37)
(7.64981e-20 1.3197e-19 0)
(9.12743e-20 9.22576e-20 -2.54836e-38)
(1.1107e-21 7.5284e-22 1.44812e-37)
(1.29394e-22 -2.11124e-22 -5.46431e-39)
(1.19151e-21 -9.06334e-22 6.46103e-39)
(-3.26847e-22 7.6047e-22 -1.83722e-37)
(-1.49214e-19 -5.29418e-19 0)
(-5.97268e-19 -1.37797e-18 5.25752e-37)
(-1.1728e-21 -7.65736e-22 3.1302e-37)
)
;

boundaryField
{
    back
    {
        type            empty;
    }
    front
    {
        type            empty;
    }
    left
    {
        type            noSlip;
    }
    top
    {
        type            uniformFixedValue;
        uniformValue    
        {
            type            scale;
            scale           
            {
                type            squarePulse;
                start           0.3;
                duration        0.3;
            }
            xScale          
            {
                type            constant;
                value           1;
            }
            value           
            {
                type            constant;
                value           (0 -0.7 0);
            }
        }
        value           uniform (0 -0 0);
    }
    right
    {
        type            noSlip;
    }
    bottom
    {
        type            zeroGradient;
    }
}


// ************************************************************************* //
