/*--------------------------------*- C++ -*----------------------------------*\
  =========                 |
  \\      /  F ield         | OpenFOAM: The Open Source CFD Toolbox
   \\    /   O peration     | Website:  https://openfoam.org
    \\  /    A nd           | Version:  9
     \\/     M anipulation  |
\*---------------------------------------------------------------------------*/
FoamFile
{
    format      ascii;
    class       volVectorField;
    location    "0.34";
    object      U;
}
// * * * * * * * * * * * * * * * * * * * * * * * * * * * * * * * * * * * * * //

dimensions      [0 1 -1 0 0 0 0];

internalField   nonuniform List<vector> 
578
(
(-0.00804 -0.00923 0)
(-0.00458 -0.0132 4.02e-16)
(-0.0128 -0.0147 -1.42e-16)
(0.000793 -0.014 -3.48e-17)
(0.00253 -0.00516 -6.11e-17)
(0.000971 -0.0209 -1.31e-16)
(-0.00249 -0.00533 6.1e-17)
(0.00246 -0.00436 -1.04e-21)
(0.0134 -0.0211 -2.87e-16)
(-0.00241 -0.00684 5.65e-16)
(0.00152 -0.0235 -2.02e-16)
(0.00876 -0.0171 0)
(0.0034 -0.0205 1.42e-16)
(0.00917 -0.0191 -1.13e-15)
(-0.00944 -0.0196 5.69e-16)
(0.0168 -0.0177 -1.39e-16)
(-0.0104 -0.00864 5.72e-16)
(-0.0162 -0.0137 0)
(0.00796 -0.0151 0)
(0.0146 -0.0206 2.18e-16)
(0.000576 -0.0166 0)
(0.0134 -0.0159 0)
(0.00642 -0.00549 -6.75e-16)
(9.88e-05 -0.0151 0)
(-0.000327 -0.0112 0)
(0.00767 -0.0154 5.63e-16)
(-0.000702 -0.0132 -7.08e-17)
(-7.05e-06 -0.00532 3.46e-17)
(-0.00418 -0.0166 -6.86e-16)
(0.0169 -0.0183 5.69e-16)
(-0.000189 -0.0109 -6.23e-16)
(0.000881 -0.0157 1.39e-16)
(0.0175 -0.0193 -5.59e-16)
(-0.000248 -0.0167 2.82e-16)
(-0.00825 -0.0174 -5.61e-16)
(0.0141 -0.0152 -8.39e-16)
(0.00798 -0.0168 1.1e-15)
(0.00745 -0.0138 0)
(-0.0168 -0.0182 -5.72e-16)
(0.00391 -0.00843 0)
(0.00402 -0.00938 -5.05e-16)
(0.00456 -0.00778 6.09e-16)
(0.00374 -0.00756 0)
(-0.00816 -0.0169 0)
(0.0111 -0.0112 6.96e-17)
(-0.00413 -0.00871 0)
(-0.00426 -0.0097 5.06e-16)
(0.0117 -0.0188 -7.11e-17)
(-0.0168 -0.0182 8.51e-16)
(-0.00132 -0.0167 -1.47e-16)
(0.000107 -0.00544 1.92e-17)
(0.00462 -0.021 -6.01e-16)
(0.00951 -0.00646 -2.79e-16)
(-0.000303 -0.0171 0)
(0.000723 -0.0188 4.79e-16)
(-0.000942 -0.0225 1.21e-15)
(0.0023 -0.00204 1e-15)
(0.00681 -0.0059 -5.48e-16)
(-0.0145 -0.0133 -1.06e-15)
(0.00871 -0.00939 2.88e-16)
(-0.0168 -0.0153 5.58e-16)
(-0.0075 -0.0051 0)
(-0.0111 -0.00913 7.51e-17)
(0.00801 -0.0166 5.22e-16)
(-0.0016 -0.0216 1.4e-16)
(-0.0103 -0.0197 3.08e-16)
(0.0165 -0.0198 -6.67e-17)
(0.00276 -0.0229 4.77e-16)
(0.0182 -0.017 -2.67e-16)
(0.0095 -0.0199 6.16e-16)
(0.000178 -0.0121 0)
(0.000219 -0.012 -1.92e-17)
(3e-05 -0.0205 -1.5e-16)
(0.00968 -0.0204 0)
(0.000276 -0.0258 2.85e-16)
(0.00236 -0.00488 0)
(0.0118 -0.0179 3.69e-16)
(0.00948 -0.0143 -2.93e-16)
(0.00198 -0.0219 0)
(-0.00785 -0.00859 -1.49e-16)
(0.00922 -0.0161 -5.15e-16)
(-0.00378 -0.00486 -5.13e-16)
(0.00244 -0.00423 -2.33e-16)
(0.00351 -0.00488 2.37e-16)
(-0.0157 -0.0204 -7.52e-17)
(-0.00308 -0.00842 0)
(9.02e-05 -0.00275 0)
(-0.00106 -0.0256 -4.49e-16)
(0.00645 -0.0142 1.29e-21)
(-0.00699 -0.0161 4.78e-18)
(-0.000435 -0.0149 0)
(-0.0132 -0.018 1.51e-16)
(-0.00671 -0.0146 0)
(0.00356 -0.0225 2.73e-16)
(0.0178 -0.0177 8.15e-16)
(0.013 -0.016 -6.79e-16)
(3.33e-05 -0.0193 1.47e-16)
(0.00231 -0.0193 -1.06e-15)
(-0.000837 -0.0035 -1e-15)
(-0.00958 -0.0197 0)
(-0.00909 -0.0173 0)
(0.00868 -0.0192 -9.57e-16)
(-0.00414 -0.0221 0)
(-0.0124 -0.0135 0)
(-0.00187 -0.0187 0)
(0.00931 -0.0194 -8.39e-16)
(0.000454 -0.0224 -2.98e-16)
(0.00416 -0.009 0)
(-0.00146 -0.00437 0)
(0.00447 -0.0092 -6.25e-16)
(0.014 -0.0168 -2.28e-16)
(0.00893 -0.0186 0)
(0.0159 -0.0201 6.49e-16)
(0.0152 -0.0164 -5.07e-16)
(0.0159 -0.0173 5.1e-16)
(-0.00453 -0.0211 6.04e-16)
(0.00146 -0.0165 3.13e-16)
(-0.0134 -0.0179 -4.57e-16)
(-0.00606 -0.0134 7.71e-17)
(-0.00211 -0.0192 5.26e-16)
(0.00621 -0.0121 -5.29e-16)
(0.00619 -0.00829 -2.07e-21)
(0.00888 -0.0178 -5.92e-16)
(0.000319 -0.0126 -7.72e-17)
(0.00524 -0.00778 0)
(-0.00766 -0.0193 6.09e-16)
(0.00637 -0.0162 -5.86e-16)
(0.0167 -0.0171 -3.09e-16)
(-0.00986 -0.0206 3.02e-16)
(-0.00645 -0.0194 0)
(-0.00962 -0.0192 0)
(-0.00749 -0.0198 0)
(0.0029 -0.0208 0)
(0.0015 -0.00288 5.15e-16)
(-0.00952 -0.0199 -5.68e-16)
(-0.00917 -0.0158 0)
(0.00715 -0.0138 0)
(-0.00303 -0.0203 -5.14e-16)
(0.013 -0.0168 5.91e-16)
(-0.00798 -0.0155 0)
(-0.0037 -0.00689 6.39e-16)
(-0.00652 -0.0194 0)
(-0.00688 -0.013 0)
(8.24e-05 -0.0121 0)
(0.00302 -0.00606 0)
(-0.0171 -0.0202 -2.95e-21)
(-0.00554 -0.013 6.15e-16)
(-0.00157 -0.00947 0)
(0.00966 -0.0197 6.22e-16)
(-0.00626 -0.018 0)
(0.0111 -0.0211 0)
(-0.00369 -0.00498 0)
(0.00361 -0.00362 0)
(0.00259 -0.00544 6.22e-16)
(-0.0103 -0.0208 -5.82e-16)
(-0.00138 -0.0139 -3.11e-16)
(-0.00546 -0.0202 6.25e-16)
(0.003 -0.0162 -1.4e-16)
(-0.00305 -0.00314 -1.24e-16)
(0.0116 -0.0213 -4.96e-16)
(0.00994 -0.0192 6.88e-16)
(0.00894 -0.0165 7.12e-16)
(-0.0019 -0.00352 -7.91e-18)
(0.00996 -0.0184 0)
(2.47e-05 -0.00259 -6.42e-21)
(-0.00674 -0.0169 -1.1e-21)
(-6.49e-05 -0.00554 -6.27e-16)
(-0.00873 -0.0173 0)
(0.00189 -0.00974 -1.47e-16)
(-0.00119 -0.0241 -2.64e-16)
(0.00949 -0.0161 0)
(0.0039 -0.00704 0)
(-0.005 -0.00865 0)
(-0.00278 -0.00577 -6.25e-16)
(-0.00753 -0.0143 0)
(-0.0016 -0.0234 -1.44e-16)
(-0.000101 -0.0247 -1.47e-16)
(-0.0127 -0.0166 5.24e-16)
(0.00538 -0.00952 7.25e-17)
(-0.000412 -0.0123 3.15e-16)
(-0.00413 -0.00756 0)
(-0.00891 -0.0139 0)
(-0.00485 -0.0147 0)
(0.0017 -0.0237 1.08e-15)
(-0.0111 -0.0185 3.86e-16)
(-0.00136 -0.00698 -4.74e-16)
(0.00526 -0.00624 -2.42e-16)
(-0.00989 -0.021 1.35e-16)
(-0.0109 -0.0215 6.09e-16)
(-0.000202 -0.00564 -6.33e-16)
(0.0104 -0.0209 -6.02e-16)
(0.00827 -0.0157 0)
(0.00837 -0.0106 6.27e-16)
(-0.00805 -0.0153 0)
(-0.00521 -0.00799 0)
(-0.000335 -0.028 2.85e-16)
(0.000662 -0.00711 1.21e-15)
(-0.000603 -0.00707 -9.67e-16)
(-0.00855 -0.016 0)
(0.00758 -0.0149 0)
(0.00151 -0.00728 -4.7e-16)
(0.00258 -0.0242 -1.37e-15)
(0.0027 -0.00729 -3.02e-16)
(-0.000921 -0.0266 0)
(-0.000295 -0.0262 -4.45e-16)
(0.00859 -0.017 0)
(-0.0101 -0.0187 0)
(-0.00894 -0.011 0)
(0.0106 -0.0214 6.24e-16)
(-0.00472 -0.00529 0)
(-0.0044 -0.00998 6.18e-16)
(-0.011 -0.022 -6.04e-16)
(-0.00903 -0.0186 -1.91e-17)
(0.000555 -0.0268 1.47e-16)
(-0.00756 -0.0152 -3.15e-16)
(0.000206 -0.0148 0)
(-0.00953 -0.0185 -6.17e-16)
(0.00922 -0.0181 6.18e-16)
(-0.0105 -0.0216 6.19e-16)
(-0.00216 -0.00481 -6.37e-16)
(0.0101 -0.0212 3.17e-16)
(-0.0085 -0.0165 0)
(0.00525 -0.0107 -6.14e-16)
(0.00456 -0.00868 0)
(-0.00445 -0.00844 0)
(-0.00537 -0.0111 1.23e-15)
(-4.65e-05 -0.0289 -1.46e-16)
(0.000597 -0.00402 -6.75e-21)
(-0.000545 -0.00398 2.46e-16)
(-1.09e-05 -0.00256 4.93e-16)
(-0.0019 -0.00368 -5.02e-16)
(0.000819 -0.00323 -2.54e-16)
(-0.00157 -0.00306 -5.12e-16)
(0.00562 -0.0167 0)
(-0.00564 -0.017 0)
(0.00314 -0.00528 1.82e-16)
(0.00226 -0.00449 0)
(-0.00244 -0.00461 0)
(0.00466 -0.0215 2.33e-16)
(0.00431 -0.00963 0)
(-0.00208 -0.00379 0)
(0.00202 -0.00357 0)
(-0.000319 -0.0283 -5.87e-16)
(-0.00381 -0.00712 0)
(-0.00028 -0.00321 9.62e-16)
(0.0017 -0.00322 0)
(-0.00188 -0.00339 -4.98e-16)
(-0.000679 -0.00646 1.18e-15)
(-0.00266 -0.00436 0)
(-0.000288 -0.023 -1.43e-16)
(0.000276 -0.0278 1.44e-16)
(-0.00853 -0.0198 0)
(0.00157 -0.013 0)
(0.00131 -0.00387 -4.95e-18)
(3.71e-05 -0.00235 0)
(0.00647 -0.019 6.12e-16)
(-7.94e-05 -0.00562 6.25e-16)
(-0.0119 -0.0221 -9.64e-16)
(0.00254 -0.00462 0)
(0.000755 -0.00619 6.33e-16)
(0.00204 -0.00451 6.32e-16)
(-0.00222 -0.00402 5.07e-16)
(0.000206 -0.00316 -9.85e-16)
(0.000231 -0.00643 6.73e-16)
(-0.00841 -0.0157 4.63e-16)
(0.00653 -0.0141 1.14e-15)
(0.00317 -0.00851 0)
(0.000925 -0.00197 -5.04e-16)
(-0.000201 -0.00262 -5.03e-16)
(0.000408 -0.00169 0)
(-0.000407 -0.00181 0)
(-0.00757 -0.0188 -5.92e-16)
(0.00421 -0.0114 0)
(-9.54e-05 -0.0291 -4.26e-16)
(0.00161 -0.0255 -3.09e-16)
(-0.000212 -0.0283 -8.58e-16)
(-0.000496 -0.0195 3.19e-16)
(-0.000946 -0.00216 0)
(-0.00467 -0.00861 0)
(-0.000197 -0.0256 -7.47e-16)
(0.00425 -0.00812 0)
(-0.000383 -0.0264 1.29e-15)
(-2.23e-06 -0.0286 0)
(0.000626 -0.0271 -1.45e-16)
(-0.000171 -0.0282 2.93e-16)
(-0.00325 -0.00635 -6.13e-16)
(0.00122 -0.00237 -1e-15)
(-0.00127 -0.00256 5.05e-16)
(-9.39e-05 -0.00196 0)
(8.18e-05 -0.00559 -6.34e-16)
(0.00545 -0.0155 0)
(-0.00878 -0.0195 1.88e-17)
(-0.000846 -0.0237 2.64e-16)
(-0.00256 -0.00449 0)
(5.77e-05 -0.00243 0)
(0.000207 -0.00592 7.77e-17)
(0.00202 -0.0039 -5.07e-16)
(0.00647 -0.019 -1.58e-15)
(-0.000107 -0.00592 1.43e-16)
(0.000132 -0.00596 -5.58e-16)
(-0.000228 -0.0223 7.6e-16)
(-0.00549 -0.016 0)
(4.9e-05 -0.00297 4.93e-16)
(6.11e-05 -0.00243 0)
(0.000125 -0.00296 0)
(-1.78e-05 -0.00321 9.36e-16)
(0.0061 -0.0175 5.93e-16)
(-0.000435 -0.0159 -1.39e-15)
(-0.000115 -0.0291 -5.66e-16)
(-8.96e-05 -0.0292 0)
(0.00538 -0.0126 3.11e-16)
(-0.000265 -0.0286 4.26e-16)
(-0.000173 -0.0294 -9.05e-16)
(-0.00434 -0.0118 0)
(-0.000102 -0.0276 5.81e-16)
(0.000168 -0.0266 5.95e-16)
(-0.00805 -0.0179 0)
(-0.00142 -0.00409 0)
(-0.00321 -0.00884 0)
(-0.000184 -0.0251 -7.1e-16)
(-0.00669 -0.0142 -6.27e-16)
(-2.38e-05 -0.0289 1.18e-15)
(-0.000576 -0.0267 1.5e-16)
(0.000169 -0.0239 -4.57e-16)
(-0.00127 -0.0261 5.88e-16)
(4.88e-05 -0.0274 -2.76e-16)
(-0.0116 -0.0217 5.75e-16)
(-0.00714 -0.0135 0)
(0.00989 -0.0202 0)
(2.05e-05 -0.0279 1.08e-15)
(-0.00285 -0.0236 1.49e-16)
(-0.013 -0.0218 -2.31e-16)
(-4.74e-05 -0.0292 2.85e-16)
(0.000212 -0.0244 -5.7e-16)
(-0.00627 -0.0123 9.33e-16)
(-3e-05 -0.0272 2.95e-16)
(0.00109 -0.0244 -2.72e-16)
(9.31e-05 -0.0241 -5.98e-16)
(4.1e-05 -0.016 0)
(-0.000326 -0.0199 0)
(0.000308 -0.0261 -2.94e-16)
(0.000336 -0.0278 4.4e-16)
(-0.000171 -0.0286 4.26e-16)
(-5.99e-05 -0.013 5.69e-16)
(-4.47e-05 -0.0287 4.32e-16)
(0.0118 -0.0149 -1.64e-16)
(0.00753 -0.0177 3.23e-16)
(-0.00141 -0.00341 -5.07e-16)
(0.00133 -0.003 1.28e-16)
(-0.00156 -0.00369 5.02e-16)
(0.00145 -0.0035 0)
(0.00166 -0.00354 5.13e-16)
(-0.00169 -0.00353 2.56e-16)
(-0.000385 -0.0241 -2.83e-16)
(0.0021 -0.0044 0)
(-0.00212 -0.00472 0)
(-9.32e-05 -0.0284 -4.31e-16)
(-0.00234 -0.00488 -5.01e-16)
(0.00282 -0.005 0)
(-0.00289 -0.00505 0)
(-0.000377 -0.0281 -4.62e-16)
(-0.0022 -0.00209 0)
(-0.000142 -0.0289 1.44e-16)
(0.00139 -0.00345 5.67e-16)
(-0.000106 -0.0291 -1.5e-16)
(0.000144 -0.0233 -6.19e-16)
(-0.000399 -0.0286 1.47e-16)
(0.0106 -0.0178 5.93e-16)
(0.00165 -0.0238 2.6e-16)
(-0.00608 -0.00569 0)
(0.00816 -0.0186 0)
(-0.00628 -0.00412 -6.44e-17)
(-0.0104 -0.0114 5.68e-16)
(0.00836 -0.0191 -3.06e-16)
(-0.0176 -0.0201 -3.2e-16)
(0.00637 -0.00392 4.96e-16)
(-0.00232 -0.0244 -1.47e-16)
(-0.0032 -0.00707 -6.53e-16)
(0.00306 -0.00667 4.65e-16)
(-0.00644 -0.0107 -6.34e-16)
(-0.000556 -0.0187 -4.95e-16)
(0.00311 -0.00708 -3.25e-16)
(-0.00321 -0.00733 0)
(0.000987 -0.0263 -7.27e-16)
(0.000354 -0.0275 4.27e-16)
(-0.000274 -0.0255 8.63e-16)
(-0.000274 -0.00383 -6.64e-16)
(-0.00423 -0.00928 6.13e-16)
(-0.00455 -0.00934 0)
(0.00267 -0.00636 -3.99e-16)
(0.00183 -0.0187 2.45e-16)
(0.00421 -0.019 0)
(0.00281 -0.0219 6.04e-16)
(0.00672 -0.0166 -2.88e-16)
(-0.0183 -0.0181 5.49e-16)
(0.00242 -0.0115 2.97e-16)
(0.0126 -0.0092 5.02e-18)
(-0.000228 -0.0228 7.46e-16)
(0.00139 -0.0162 6.23e-16)
(-0.00037 -0.00482 6.46e-16)
(-0.0165 -0.0181 -1.08e-15)
(0.000235 -0.00517 -5.87e-16)
(-0.00146 -0.00758 3.1e-16)
(-0.00265 -0.0168 4.73e-16)
(-0.00437 -0.0194 0)
(-0.00239 -0.0214 0)
(0.0165 -0.0133 0)
(-0.00637 -0.0153 8.97e-16)
(0.00239 -0.0244 -7.43e-16)
(0.00619 -0.0207 -5.97e-16)
(-0.00244 -0.0181 -1.21e-15)
(-0.0101 -0.0181 1.46e-16)
(-0.000576 -0.0212 -3.58e-21)
(-0.00624 -0.0168 -1.21e-15)
(-0.00933 -0.0177 -1.48e-16)
(0.00409 -0.0228 1.49e-16)
(0.00717 -0.0169 -6.46e-16)
(-0.0077 -0.0168 -3.29e-16)
(0.00996 -0.0212 0)
(-0.00173 -0.0215 1.44e-16)
(-0.00923 -0.0197 7.67e-17)
(-9.67e-05 -0.00236 8.6e-21)
(0.00946 -0.0199 0)
(-0.0095 -0.0196 7.74e-16)
(-0.00858 -0.0191 0)
(0.00744 -0.0189 -3.11e-16)
(0.00291 -0.00815 8.39e-16)
(-0.00156 -0.0198 -6.59e-16)
(0.00134 -0.00406 -4.75e-16)
(0.00738 -0.0194 0)
(-0.0147 -0.0211 0)
(0.000247 -0.0276 -2.87e-16)
(0.00948 -0.0108 -1.57e-16)
(0.00419 -0.0191 0)
(-0.00154 -0.00391 -2.48e-16)
(0.00868 -0.0192 -3.05e-16)
(0.0072 -0.0159 0)
(-0.00784 -0.02 -5.94e-16)
(0.00477 -0.0142 0)
(-0.00446 -0.0223 6.13e-16)
(-0.00738 -0.0203 -4.59e-16)
(0.00072 -0.0216 0)
(0.00249 -0.0171 3.25e-16)
(4.5e-05 -0.0162 0)
(-0.0136 -0.022 0)
(-0.00123 -0.0269 5.95e-16)
(-9.6e-05 -0.012 -4.73e-16)
(-0.0125 -0.0171 -5.92e-16)
(-0.0101 -0.0152 8.35e-16)
(-3.02e-05 -0.00241 0)
(-0.01 -0.0201 1.6e-16)
(-0.0037 -0.0187 0)
(-0.00864 -0.0192 -1.83e-21)
(0.00337 -0.0185 2.37e-16)
(-0.0102 -0.0209 -5.83e-16)
(-0.000277 -0.0126 0)
(-0.00108 -0.0124 -9.81e-18)
(0.00935 -0.0145 2.91e-16)
(8.49e-05 -0.0263 9.21e-16)
(-0.0152 -0.0175 0)
(0.00399 -0.0129 6.17e-16)
(-0.00523 -0.00611 3e-16)
(-0.00389 -0.0229 -2.31e-16)
(0.00267 -0.0077 -3.67e-16)
(-0.000577 -0.0276 1.48e-16)
(0.0114 -0.0188 -3e-21)
(-0.00308 -0.0082 0)
(0.00508 -0.00592 -3.09e-16)
(-0.00331 -0.0239 3.06e-16)
(0.00794 -0.0177 -9.33e-16)
(0.000132 -0.0204 -6.63e-16)
(-0.000132 -0.0025 0)
(-0.00252 -0.00342 0)
(-0.00246 -0.0153 3.03e-16)
(-8.47e-05 -0.024 -6.34e-16)
(0.00838 -0.0189 3.02e-16)
(0.0083 -0.0194 6.22e-16)
(0.00198 -0.00268 2.45e-16)
(0.00382 -0.00491 1.22e-16)
(0.0107 -0.0131 2.62e-16)
(0.000106 -0.0208 0)
(0.000703 -0.0268 3.03e-16)
(-0.0181 -0.0187 -4.49e-16)
(-0.000148 -0.0263 -1.38e-15)
(-0.00237 -0.0168 2.46e-16)
(0.00603 -0.0164 3.14e-16)
(6.21e-05 -0.0209 4.62e-16)
(-0.000773 -0.00843 0)
(-0.00522 -0.02 0)
(-0.0118 -0.0197 -2.94e-16)
(0.000781 -0.0085 -2.31e-16)
(-0.0164 -0.0211 7.75e-17)
(0.00739 -0.0184 3.72e-17)
(0.00479 -0.0195 7.82e-17)
(-0.0024 -0.0225 -3.03e-16)
(-0.00304 -0.00699 6.36e-16)
(-0.000286 -0.0144 3.24e-16)
(-0.00913 -0.0199 2.92e-16)
(-0.00205 -0.0172 2.35e-16)
(0.00196 -0.0174 0)
(0.00959 -0.0203 -3.14e-16)
(-0.0016 -0.0259 -6.04e-16)
(0.00526 -0.0134 0)
(0.000495 -0.0228 8.97e-16)
(-0.0173 -0.0173 1.67e-16)
(-0.0042 -0.0192 0)
(-0.00595 -0.0134 3.31e-16)
(0.00222 -0.0209 0)
(-0.00563 -0.014 6.25e-16)
(-0.00554 -0.0195 0)
(0.000182 -0.016 5.97e-16)
(0.00961 -0.0138 0)
(0.000326 -0.0119 -6.19e-16)
(-0.00635 -0.0145 -3.42e-16)
(-0.00771 -0.0167 -8.28e-17)
(3.86e-05 -0.00593 -5.96e-16)
(0.0093 -0.0199 3.21e-16)
(0.0063 -0.0145 0)
(4.81e-05 -0.0144 0)
(0.006 -0.0197 6.2e-16)
(-1.08e-05 -0.0235 -4.45e-16)
(0.00644 -0.0103 -4.88e-16)
(-0.000369 -0.0272 1.49e-16)
(0.00542 -0.0124 0)
(0.00831 -0.018 3.36e-16)
(0.00022 -0.0198 -8.29e-16)
(7.74e-05 -0.0148 4.16e-16)
(0.00134 -0.0134 -3.23e-16)
(0.0114 -0.0165 1.55e-16)
(-0.00104 -0.0152 3.3e-16)
(0.00633 -0.0096 0)
(0.00976 -0.0211 0)
(-0.000363 -0.00588 -5.85e-16)
(0.000119 -0.0212 0)
(0.00567 -0.0197 7.21e-16)
(-0.0052 -0.0079 -3.26e-16)
(0.000115 -0.0108 0)
(-0.0071 -0.0158 -4.1e-16)
(-0.011 -0.0136 -3.97e-17)
(-0.00327 -0.0134 6.45e-16)
(0.00354 -0.0137 1.59e-20)
(0.00392 -0.0198 -3.94e-17)
(0.00525 -0.00805 0)
(0.00644 -0.0146 3.42e-16)
(0.00305 -0.0157 0)
(-0.00022 -0.0216 -3.18e-16)
(-6.02e-06 -0.0146 0)
(-0.013 -0.0164 0)
(0.0136 -0.017 -1.54e-16)
(0.00644 -0.0153 3.21e-16)
(0.0159 -0.0139 4.37e-17)
(-0.00969 -0.0193 -1.68e-16)
(0.00816 -0.0184 -2.95e-16)
(-0.011 -0.0173 1.58e-16)
(0.0122 -0.0141 -1.68e-16)
(-0.00165 -0.0256 -1.5e-16)
(0.0124 -0.0213 -4.19e-16)
(-0.000113 -0.0268 1.73e-16)
(0.000168 -0.0205 1.65e-16)
(-0.00305 -0.0206 8.59e-17)
(-0.00411 -0.0211 0)
(-0.00609 -0.0101 0)
(0.0053 -0.0122 -7.04e-16)
(-0.00553 -0.0184 0)
(0.0059 -0.0187 -3.17e-16)
(5.46e-05 -0.0192 0)
(0.00528 -0.0198 3.32e-16)
(-0.0027 -0.0232 2.23e-16)
(-0.00659 -0.0194 -3.47e-16)
(0.0065 -0.0194 -3.52e-16)
(-0.0091 -0.0192 3.24e-16)
(-0.0146 -0.0168 0)
(0.0134 -0.011 -2.33e-16)
(-0.00254 -0.0206 -6.81e-16)
(-0.0175 -0.0183 1.78e-16)
(-3.17e-05 -0.0197 0)
(-0.0157 -0.0196 3.6e-16)
(-0.0137 -0.0157 0)
)
;

boundaryField
{
    front
    {
        type            empty;
    }
    back
    {
        type            empty;
    }
    bottom
    {
        type            zeroGradient;
    }
    left
    {
        type            noSlip;
    }
    top
    {
        type            uniformFixedValue;
        uniformValue    
        {
            type            table;
            format          csv;
            file            "inlet_v.csv";
            nHeaderLine     1;
            refColumn       0;
            componentColumns List<label> 3(1 2 3);
            separator       ",";
            mergeSeparators 0;
        }
        value           uniform (0 -0.018 0);
    }
    right
    {
        type            noSlip;
    }
    inner_arc
    {
        type            noSlip;
    }
}


// ************************************************************************* //
