/*--------------------------------*- C++ -*----------------------------------*\
  =========                 |
  \\      /  F ield         | OpenFOAM: The Open Source CFD Toolbox
   \\    /   O peration     | Website:  https://openfoam.org
    \\  /    A nd           | Version:  9
     \\/     M anipulation  |
\*---------------------------------------------------------------------------*/
FoamFile
{
    format      ascii;
    class       volVectorField;
    location    "0.34";
    object      U;
}
// * * * * * * * * * * * * * * * * * * * * * * * * * * * * * * * * * * * * * //

dimensions      [0 1 -1 0 0 0 0];

internalField   nonuniform List<vector> 
578
(
(-0.249834 -0.348256 0)
(-0.153547 -0.640013 2.39245e-16)
(-0.384848 -0.530596 0)
(0.0472911 -0.74755 2.81261e-16)
(0.102426 -0.205587 0)
(0.0376897 -0.823906 -2.70921e-16)
(-0.108006 -0.216971 -5.04848e-17)
(0.116355 -0.208286 5.03727e-16)
(0.574257 -0.77934 0)
(-0.106966 -0.429272 -4.46813e-16)
(0.0395877 -0.839049 1.19888e-16)
(0.35377 -0.662421 1.61656e-17)
(0.0169415 -0.712726 0)
(0.443943 -0.762179 -2.75212e-16)
(-0.448861 -0.775189 0)
(0.480029 -0.604034 6.8564e-17)
(-0.351005 -0.431548 -1.9982e-16)
(-0.608226 -0.611077 4.21878e-16)
(0.320458 -0.599772 -9.87616e-17)
(0.548907 -0.70433 -2.51829e-16)
(0.0482054 -0.807658 -2.83937e-16)
(0.38052 -0.56229 3.50666e-16)
(0.270268 -0.293214 -2.75718e-16)
(-0.0128514 -0.731311 -3.35006e-17)
(-0.0189244 -0.62845 0)
(0.315861 -0.627438 4.47512e-20)
(-0.0462745 -0.729636 0)
(-0.0201288 -0.437725 2.93432e-17)
(-0.127619 -0.740238 -2.79112e-16)
(0.512026 -0.627919 0)
(-0.0331093 -0.67501 -3.87164e-16)
(0.0381098 -0.74543 2.37321e-19)
(0.60157 -0.70766 -5.92738e-17)
(-0.0316436 -0.792479 -6.59387e-17)
(-0.387325 -0.701782 -2.67782e-16)
(0.426486 -0.504661 1.56997e-16)
(0.379237 -0.683311 2.74935e-16)
(0.292931 -0.574945 0)
(-0.488646 -0.594061 -2.69478e-16)
(0.156403 -0.295348 0)
(0.177172 -0.364975 -4.60409e-16)
(0.195987 -0.340591 -2.28881e-16)
(0.164364 -0.329491 -5.6473e-16)
(-0.421736 -0.707966 -8.72136e-18)
(0.632525 -0.582958 0)
(-0.166614 -0.306683 -3.73656e-20)
(-0.182258 -0.381045 5.02589e-16)
(0.593764 -0.808367 -1.36219e-16)
(-0.485397 -0.60449 2.71139e-16)
(-0.0533134 -0.807804 0)
(0.0164422 -0.400177 1.57687e-17)
(0.0257687 -0.712371 -1.09368e-19)
(0.465091 -0.405235 3.60905e-16)
(-0.034163 -0.786906 6.57184e-17)
(0.00203442 -0.70086 0)
(-0.0285758 -0.848414 1.50373e-16)
(0.131448 -0.0888725 -3.10208e-16)
(0.502846 -0.384928 0)
(-0.421948 -0.548936 -3.34068e-16)
(0.241206 -0.303292 1.10851e-16)
(-0.510367 -0.609105 -1.40939e-16)
(-0.416109 -0.336148 -1.91485e-16)
(-0.673706 -0.530072 -3.42844e-16)
(0.419438 -0.697588 1.36902e-16)
(-0.00911036 -0.716203 2.91534e-16)
(-0.513207 -0.801855 1.4208e-16)
(0.617171 -0.753442 2.61927e-16)
(0.0696734 -0.826795 0)
(0.597189 -0.642795 3.20115e-17)
(0.38126 -0.775186 1.48157e-16)
(-0.014137 -0.672171 0)
(0.0121704 -0.647648 -3.58332e-16)
(-0.000145026 -0.709927 -6.33987e-16)
(0.392269 -0.78844 3.10734e-16)
(0.00662302 -0.88005 0)
(0.141624 -0.245013 2.06246e-16)
(0.418942 -0.564901 4.90297e-16)
(0.313483 -0.428307 -2.99087e-16)
(0.010801 -0.71804 2.86404e-16)
(-0.20389 -0.257478 2.56145e-16)
(0.252434 -0.688888 -4.00762e-16)
(-0.133937 -0.230389 8.70682e-16)
(0.0867174 -0.269294 -5.88191e-16)
(0.135334 -0.215878 0)
(-0.627306 -0.779011 1.76986e-16)
(-0.108433 -0.237816 -6.64529e-16)
(0.00662468 -0.236257 0)
(-0.0245339 -0.863556 1.48203e-16)
(0.25252 -0.5426 -3.3767e-16)
(-0.267905 -0.589345 2.97371e-18)
(-0.0460496 -0.7794 2.85403e-16)
(-0.643977 -0.783383 2.12758e-18)
(-0.259433 -0.555044 3.16019e-16)
(0.0423113 -0.755147 1.43676e-16)
(0.513522 -0.655477 -8.66235e-17)
(0.370351 -0.632205 0)
(0.000171893 -0.703238 3.15857e-16)
(0.00870757 -0.704967 0)
(-0.0318748 -0.277829 -1.0386e-16)
(-0.420036 -0.759607 -2.74141e-16)
(-0.491758 -0.736383 -1.67889e-17)
(0.34182 -0.725448 1.63894e-16)
(-0.0367137 -0.735193 0)
(-0.368835 -0.427498 0)
(-0.00690797 -0.701247 1.48358e-16)
(0.414075 -0.745935 2.63769e-16)
(0.00848207 -0.847242 0)
(0.208734 -0.379013 2.30361e-16)
(-0.0567212 -0.135221 5.25702e-16)
(0.273208 -0.458007 -4.36825e-16)
(0.440537 -0.540662 1.2121e-16)
(0.364725 -0.73766 1.09927e-16)
(0.553565 -0.687412 -3.15977e-17)
(0.402925 -0.649079 3.74455e-17)
(0.438466 -0.65477 -4.20498e-17)
(-0.0276206 -0.718751 3.24143e-16)
(0.0552929 -0.79715 0)
(-0.33159 -0.683529 -8.23446e-17)
(-0.223181 -0.501089 0)
(-0.00924566 -0.704769 3.30601e-16)
(0.261913 -0.51519 -3.94904e-16)
(0.217029 -0.378327 0)
(0.353924 -0.69169 -3.71645e-17)
(0.0388565 -0.717333 3.60694e-16)
(0.174929 -0.379955 0)
(-0.32932 -0.712459 1.51702e-16)
(0.171344 -0.696571 2.79009e-16)
(0.629649 -0.713964 6.64193e-17)
(-0.404314 -0.799242 -3.22045e-16)
(-0.335379 -0.722743 0)
(-0.384055 -0.749028 3.68699e-16)
(-0.345178 -0.739366 0)
(0.0531952 -0.783908 1.61066e-16)
(0.0718879 -0.141151 4.96524e-16)
(-0.384848 -0.778607 -3.64296e-16)
(-0.33673 -0.506284 0)
(0.302985 -0.542995 -3.66894e-16)
(-0.0157312 -0.712132 -3.29746e-16)
(0.319554 -0.649809 -1.18216e-18)
(-0.320808 -0.613791 -3.66878e-16)
(-0.148456 -0.279778 0)
(-0.323436 -0.708453 0)
(-0.272334 -0.516858 0)
(0.00754166 -0.658944 0)
(0.139039 -0.275582 -5.48423e-16)
(-0.549284 -0.669678 0)
(-0.273116 -0.547627 7.51882e-16)
(-0.0477797 -0.638775 4.14356e-16)
(0.38786 -0.770196 0)
(-0.339453 -0.717963 0)
(0.479864 -0.750149 0)
(-0.284404 -0.361243 -1.87479e-16)
(0.110053 -0.130886 -6.19913e-16)
(0.125908 -0.246696 -5.72919e-16)
(-0.418786 -0.765737 -8.62428e-18)
(-0.055489 -0.746352 3.27933e-16)
(-0.135189 -0.775058 3.03627e-16)
(0.066308 -0.771618 3.00251e-16)
(-0.0831498 -0.0966594 2.71132e-16)
(0.517767 -0.776223 0)
(0.514657 -0.795866 0)
(0.49489 -0.730802 0)
(-0.0826576 -0.155171 0)
(0.391593 -0.612909 -5.46457e-18)
(2.69286e-05 -0.223959 0)
(-0.33563 -0.692235 -3.09028e-16)
(0.000450966 -0.397522 0)
(-0.349292 -0.638047 -2.70923e-18)
(0.0510649 -0.649155 0)
(-0.0419105 -0.80581 0)
(0.346262 -0.510521 -3.5946e-16)
(0.174341 -0.317916 0)
(-0.187092 -0.287908 0)
(-0.12488 -0.239132 -9.41159e-18)
(-0.294575 -0.545068 0)
(-0.0120652 -0.728445 0)
(-0.00101937 -0.735947 -3.02795e-16)
(-0.303469 -0.646999 4.31229e-17)
(0.195398 -0.299979 5.08352e-16)
(-0.0150088 -0.657324 0)
(-0.17044 -0.317186 4.22476e-18)
(-0.272281 -0.591106 -4.9394e-16)
(-0.215347 -0.494912 0)
(0.01104 -0.729909 5.61215e-16)
(-0.401179 -0.577839 0)
(-0.0266573 -0.460787 -3.36067e-16)
(0.170545 -0.234332 -3.99737e-16)
(-0.41587 -0.791422 3.09532e-16)
(-0.448848 -0.769889 0)
(-0.0140862 -0.402809 0)
(0.448675 -0.763715 0)
(0.332519 -0.536843 -3.49386e-16)
(0.270405 -0.387479 -4.64976e-16)
(-0.314184 -0.552884 2.68987e-18)
(-0.202232 -0.38639 -4.76182e-16)
(-0.00737563 -0.780185 -5.00616e-16)
(0.036953 -0.56134 -3.95226e-16)
(-0.0370351 -0.55062 4.37431e-16)
(-0.326727 -0.537933 0)
(0.316142 -0.549459 0)
(0.0295246 -0.471855 0)
(0.0259775 -0.746922 -2.91226e-16)
(0.126126 -0.450486 4.47412e-16)
(-0.0198685 -0.774816 5.15505e-16)
(-0.00333909 -0.750067 1.50791e-16)
(0.357877 -0.643533 6.87223e-16)
(-0.387843 -0.6164 0)
(-0.599033 -0.641877 -2.46894e-18)
(0.474436 -0.78719 0)
(-0.14443 -0.191808 -6.85601e-16)
(-0.222937 -0.443084 -3.88274e-16)
(-0.476998 -0.796381 0)
(-0.364713 -0.734389 0)
(0.00874451 -0.762564 -1.45861e-16)
(-0.307175 -0.600328 0)
(0.0368539 -0.76635 -3.24304e-16)
(-0.370402 -0.636824 0)
(0.374892 -0.635677 1.35014e-18)
(-0.444964 -0.799172 2.90275e-16)
(-0.110745 -0.218107 0)
(0.44267 -0.788858 -2.95612e-16)
(-0.333049 -0.628873 3.58202e-16)
(0.241947 -0.478581 7.48976e-16)
(0.18777 -0.31782 5.39817e-16)
(-0.181326 -0.325003 0)
(-0.240597 -0.469041 5.92869e-18)
(0.00222875 -0.805489 2.78254e-16)
(0.0280757 -0.372446 0)
(-0.0242219 -0.36564 -3.8468e-16)
(-0.00210287 -0.220899 -4.51609e-16)
(-0.0750322 -0.240761 0)
(0.0352585 -0.255505 4.4017e-16)
(-0.0689012 -0.131647 8.07467e-18)
(0.243128 -0.547915 0)
(-0.250276 -0.557704 0)
(0.101653 -0.1546 4.48912e-16)
(0.101528 -0.175409 4.75537e-16)
(-0.102659 -0.177377 -4.69472e-16)
(0.0458249 -0.745986 -3.00514e-16)
(0.223694 -0.447123 0)
(-0.0910492 -0.170624 -4.71647e-16)
(0.0936315 -0.157568 4.80804e-16)
(-0.00970685 -0.794773 -7.14416e-17)
(-0.158109 -0.298719 -8.59349e-18)
(-0.0207631 -0.327874 -7.79335e-16)
(0.0777051 -0.163237 4.81264e-16)
(-0.0769278 -0.145476 0)
(-0.0467267 -0.444216 0)
(-0.0916616 -0.129307 0)
(-0.0351936 -0.837345 1.38529e-16)
(0.00648622 -0.776216 0)
(-0.353586 -0.749536 4.89851e-18)
(0.055039 -0.670399 3.0209e-16)
(0.093977 -0.197446 0)
(0.00657279 -0.210978 0)
(0.314537 -0.696129 2.97983e-16)
(-0.00286767 -0.398293 5.29917e-16)
(-0.515701 -0.786882 -1.36649e-16)
(0.103051 -0.164495 4.75776e-16)
(0.0417104 -0.440607 -5.11441e-16)
(0.110796 -0.219122 -6.1192e-16)
(-0.0984719 -0.177636 -3.68423e-18)
(0.0160996 -0.326547 7.85901e-16)
(0.0263483 -0.514234 -8.99246e-16)
(-0.240377 -0.672277 5.92837e-16)
(0.291979 -0.587167 -3.07343e-16)
(0.206051 -0.448141 0)
(0.052441 -0.102876 5.46594e-16)
(-0.00837731 -0.227095 7.08778e-18)
(0.0368045 -0.113112 0)
(-0.0375018 -0.114031 0)
(-0.356547 -0.73947 0)
(0.250141 -0.518687 0)
(-0.000145291 -0.818003 -1.39001e-16)
(0.0228155 -0.762623 -1.51903e-16)
(-0.014258 -0.832142 2.73257e-16)
(-0.04078 -0.819191 1.58128e-16)
(-0.0525991 -0.10265 -2.672e-19)
(-0.187451 -0.318419 0)
(-0.0218688 -0.854396 2.7413e-16)
(0.18088 -0.322883 -4.24272e-18)
(-0.0246 -0.832242 -1.3789e-16)
(0.0101569 -0.83252 0)
(0.0185433 -0.796152 1.41456e-16)
(-0.0142985 -0.844865 1.36243e-16)
(-0.136481 -0.260536 0)
(0.0615749 -0.121521 -4.12094e-18)
(-0.061781 -0.119146 -5.30386e-16)
(-0.00530782 -0.189371 2.51617e-16)
(-0.0109002 -0.403498 2.24736e-16)
(0.316571 -0.679052 3.44644e-16)
(-0.369195 -0.757492 0)
(-0.0389582 -0.823351 -2.42144e-16)
(-0.102666 -0.163095 -4.76206e-16)
(0.0110687 -0.248917 2.20504e-16)
(0.0260961 -0.467392 -2.77292e-16)
(0.0982715 -0.177351 0)
(0.326433 -0.711147 -6.73325e-16)
(0.0113087 -0.426101 8.85161e-16)
(0.011509 -0.453604 -1.10328e-16)
(-0.0293201 -0.845864 -2.80066e-16)
(-0.321389 -0.683975 0)
(0.00657273 -0.26911 -4.08437e-16)
(0.00495809 -0.221174 -4.56578e-16)
(0.01651 -0.303841 3.93668e-16)
(-0.00550646 -0.282908 -3.84333e-16)
(0.333571 -0.712262 -7.79713e-20)
(-0.0102747 -0.751054 0)
(-0.00540284 -0.85823 -6.71274e-17)
(-0.00485317 -0.848138 -2.01879e-16)
(0.272579 -0.551853 0)
(0.00153319 -0.875239 0)
(0.000229318 -0.871817 -1.37984e-16)
(-0.251016 -0.516949 -1.52265e-18)
(-0.0144938 -0.868505 -3.41188e-16)
(0.0213041 -0.83937 -2.88579e-16)
(-0.35037 -0.712028 0)
(-0.0947796 -0.197685 3.14982e-19)
(-0.206664 -0.447238 0)
(-0.0204763 -0.863178 4.07933e-16)
(-0.290009 -0.573577 0)
(0.00711239 -0.842869 -2.72158e-16)
(-0.0253999 -0.817443 2.77973e-16)
(-0.0121137 -0.867158 7.17883e-17)
(-0.018003 -0.757436 -3.67017e-16)
(0.0150598 -0.855618 2.53018e-16)
(-0.480936 -0.759467 0)
(-0.280993 -0.528837 0)
(0.420607 -0.763534 -3.05652e-16)
(0.0117073 -0.865706 -3.81259e-16)
(-0.0259367 -0.736268 -7.62689e-17)
(-0.511218 -0.733687 0)
(0.00166891 -0.864663 1.37019e-16)
(0.0222524 -0.856499 -7.05435e-17)
(-0.256035 -0.495603 0)
(-0.0115387 -0.876171 6.80373e-17)
(0.0371278 -0.807754 5.29452e-20)
(0.0256255 -0.845494 2.16489e-16)
(0.0051254 -0.760296 0)
(-0.0402512 -0.818281 0)
(0.0249304 -0.826892 0)
(0.0152453 -0.808097 -2.8077e-16)
(-0.000997345 -0.878289 3.9185e-16)
(0.000143662 -0.675183 -9.36361e-18)
(-0.00627921 -0.877147 1.95468e-20)
(0.36335 -0.580421 0)
(0.170745 -0.66483 -1.76292e-16)
(-0.0491416 -0.118977 -2.69427e-16)
(0.0491863 -0.112202 -2.7872e-16)
(-0.0526235 -0.124582 -2.64685e-16)
(0.0541507 -0.127239 3.99783e-16)
(0.0686526 -0.123173 0)
(-0.0734987 -0.126908 1.30874e-16)
(-0.00176798 -0.87226 0)
(0.0916003 -0.179489 0)
(-0.0911361 -0.187477 0)
(-0.00351208 -0.881127 -1.31536e-16)
(-0.134569 -0.234232 -1.58221e-16)
(0.206012 -0.313957 3.41223e-16)
(-0.200484 -0.307649 -9.74409e-17)
(-0.00734603 -0.859819 -7.29992e-17)
(-0.138393 -0.11093 0)
(-0.000487484 -0.877985 2.7211e-16)
(0.0462005 -0.117906 0)
(-0.00313864 -0.880038 1.37306e-16)
(0.00456417 -0.758278 0)
(-0.00790345 -0.872364 7.21639e-17)
(0.264716 -0.691148 6.38902e-16)
(0.0422739 -0.790732 1.24604e-16)
(-0.479971 -0.389549 0)
(0.332094 -0.704546 -3.3944e-16)
(-0.386739 -0.261728 1.79674e-16)
(-0.628713 -0.594314 4.04879e-16)
(0.195076 -0.716734 -1.51276e-16)
(-0.623324 -0.742415 -1.43112e-16)
(0.375354 -0.249287 1.69854e-16)
(-0.0305021 -0.754403 3.78472e-16)
(-0.104647 -0.24887 0)
(0.105329 -0.240257 3.0501e-16)
(-0.178852 -0.473715 1.98166e-16)
(-0.0019508 -0.70074 -5.94505e-16)
(0.107427 -0.252316 -1.55746e-16)
(-0.111465 -0.253178 0)
(0.0234648 -0.831703 1.37232e-16)
(0.00805206 -0.855171 -2.69535e-16)
(-0.00664403 -0.804052 -4.47342e-16)
(-0.0318547 -0.225261 1.39168e-16)
(-0.206865 -0.386247 0)
(-0.265059 -0.445746 -5.70969e-17)
(0.0952431 -0.234292 0)
(0.00659884 -0.700762 0)
(0.0967739 -0.67504 0)
(0.0578618 -0.739903 -3.12343e-16)
(0.330853 -0.688609 0)
(-0.62295 -0.673463 -2.29248e-16)
(0.0689416 -0.495249 2.81569e-16)
(0.672479 -0.516214 0)
(0.0187591 -0.857753 -1.58869e-16)
(0.0330476 -0.603854 -9.4996e-17)
(-0.0116979 -0.366465 0)
(-0.639679 -0.733874 1.01559e-18)
(0.00932492 -0.381614 0)
(-0.05114 -0.358911 4.04613e-16)
(-0.0779868 -0.738678 0)
(-0.0201992 -0.703179 -1.64391e-16)
(-0.0504378 -0.716695 -8.28681e-17)
(0.580335 -0.58778 -2.01932e-16)
(-0.148724 -0.587388 1.94317e-16)
(0.0544209 -0.817898 7.12319e-17)
(0.144846 -0.759434 0)
(-0.0501754 -0.644306 8.30185e-17)
(-0.251572 -0.716052 -8.02779e-17)
(-0.014181 -0.836383 0)
(-0.258559 -0.580732 -1.88035e-16)
(-0.215362 -0.653698 -1.67722e-16)
(0.090079 -0.781934 3.55583e-16)
(0.305698 -0.628764 1.817e-16)
(-0.315266 -0.64592 -1.73093e-16)
(0.402221 -0.786016 -1.9754e-16)
(-0.0544421 -0.809195 0)
(-0.361826 -0.755541 3.69213e-16)
(-0.00342031 -0.208429 0)
(0.399615 -0.778686 -8.56403e-20)
(-0.405093 -0.766508 1.84057e-16)
(-0.339201 -0.721256 0)
(0.317457 -0.694905 -1.37495e-16)
(0.105623 -0.236943 0)
(-0.0422584 -0.808227 0)
(0.0530452 -0.132074 3.29258e-17)
(0.335745 -0.726732 1.63459e-16)
(-0.538781 -0.697375 1.29109e-16)
(0.00438239 -0.878773 -2.72925e-16)
(0.614217 -0.636209 1.53476e-16)
(0.0165709 -0.699745 0)
(-0.0531279 -0.131377 0)
(0.364304 -0.753941 -2.56096e-16)
(0.276005 -0.589156 3.51254e-16)
(-0.189689 -0.751316 1.50143e-16)
(0.208058 -0.486416 1.48987e-18)
(-0.0952105 -0.751446 -3.09214e-16)
(-0.163658 -0.722122 1.67714e-16)
(0.0412861 -0.819556 0)
(0.0647901 -0.798766 -7.87842e-17)
(0.02713 -0.783169 1.07865e-16)
(-0.558066 -0.76781 2.7096e-16)
(-0.0283467 -0.845312 -2.26178e-16)
(0.0128554 -0.669119 -3.72857e-16)
(-0.406918 -0.526429 1.7929e-16)
(-0.336262 -0.452856 -3.54339e-16)
(0.00390372 -0.227455 0)
(-0.400824 -0.780746 0)
(-0.0175304 -0.702326 0)
(-0.392009 -0.748943 -1.41336e-16)
(0.0149633 -0.700217 1.46745e-16)
(-0.420491 -0.793778 -2.68471e-16)
(-0.0320857 -0.706789 0)
(-0.055547 -0.653148 -1.93078e-16)
(0.239241 -0.587524 1.72648e-16)
(-0.00611429 -0.880462 0)
(-0.388576 -0.669347 0)
(0.139547 -0.643806 -3.65909e-16)
(-0.147314 -0.166047 -9.34905e-16)
(-0.0960951 -0.812292 3.72772e-17)
(0.0997859 -0.252005 -3.53008e-16)
(-0.0114692 -0.876086 -2.12645e-16)
(0.420835 -0.599729 -1.69399e-16)
(-0.109226 -0.264011 3.02005e-16)
(0.147734 -0.162671 0)
(-0.0746398 -0.794767 3.09504e-16)
(0.346656 -0.711217 -1.87719e-17)
(0.0223649 -0.833335 -3.73803e-17)
(-0.0246931 -0.268202 -2.23328e-16)
(-0.0648606 -0.0776962 -5.39979e-16)
(-0.0656658 -0.764048 -4.37532e-17)
(0.00764443 -0.863382 4.2961e-16)
(0.387452 -0.733347 -1.32496e-19)
(0.338799 -0.728311 2.94605e-16)
(0.0550179 -0.0592927 5.67934e-16)
(0.291382 -0.366514 -1.92312e-16)
(0.341318 -0.409082 5.34793e-17)
(-0.0159254 -0.845073 0)
(0.0204142 -0.868061 4.1383e-16)
(-0.534968 -0.671694 0)
(0.010396 -0.868365 4.08946e-16)
(-0.0616834 -0.796143 -3.00529e-16)
(0.246163 -0.563977 -1.91863e-16)
(0.0126994 -0.843461 -1.64836e-16)
(0.00145493 -0.441976 5.61011e-16)
(-0.0334578 -0.71797 1.64699e-16)
(-0.586861 -0.817507 -2.49504e-16)
(-0.00157073 -0.442087 0)
(-0.570239 -0.715099 -5.01044e-17)
(0.350454 -0.733282 1.87473e-17)
(0.0743322 -0.793442 -3.11175e-16)
(-0.0520252 -0.790024 0)
(-0.102487 -0.254603 6.28702e-16)
(-0.034368 -0.753776 -1.59475e-16)
(-0.366238 -0.764747 3.16157e-16)
(-0.0233599 -0.729708 -2.93425e-16)
(0.0225076 -0.730878 7.31438e-17)
(0.412457 -0.778693 1.4984e-16)
(-0.0350031 -0.818087 -7.60833e-17)
(0.200512 -0.468583 4.20159e-16)
(0.0360761 -0.832061 0)
(-0.473147 -0.654462 9.4692e-17)
(-0.0745965 -0.797866 1.27464e-16)
(-0.226877 -0.504849 -1.82648e-16)
(0.0547892 -0.79666 -7.89403e-17)
(-0.218533 -0.495194 -1.95274e-16)
(-0.0783257 -0.773203 -1.2575e-16)
(0.0312063 -0.770896 3.5922e-17)
(0.282131 -0.619606 0)
(0.0320437 -0.695009 9.48977e-17)
(-0.26557 -0.562239 1.08428e-16)
(-0.293696 -0.62764 -4.02505e-16)
(-0.0018431 -0.44528 0)
(0.394487 -0.75526 -1.51173e-16)
(0.268339 -0.556707 -2.09951e-16)
(0.00701745 -0.714958 2.68899e-16)
(0.079101 -0.77012 -1.5593e-16)
(-0.00627332 -0.867086 -7.1434e-17)
(0.196799 -0.498416 -3.38947e-16)
(-0.00431687 -0.876812 -3.55434e-16)
(0.197245 -0.456658 2.78117e-17)
(0.314288 -0.668843 -1.81338e-16)
(0.0334359 -0.81798 0)
(0.0133101 -0.741967 4.47678e-17)
(0.0565344 -0.745011 -2.29631e-17)
(0.584357 -0.753607 6.98144e-17)
(-0.0352361 -0.724141 1.81661e-16)
(0.385956 -0.548892 5.91592e-17)
(0.420142 -0.783309 1.56793e-16)
(-0.037355 -0.481021 6.95167e-16)
(0.0236538 -0.842042 1.52046e-16)
(0.154854 -0.766531 1.65571e-16)
(-0.171209 -0.231654 0)
(0.00305278 -0.621864 -2.06708e-16)
(-0.272119 -0.592809 1.95803e-16)
(-0.338813 -0.40462 2.00919e-16)
(-0.0504202 -0.701885 1.91675e-16)
(0.0518851 -0.70496 -1.87009e-16)
(0.100698 -0.78546 0)
(0.17026 -0.243284 -6.78231e-16)
(0.242769 -0.538469 -2.58399e-16)
(0.0916376 -0.722798 0)
(-0.0279148 -0.844943 -1.54693e-16)
(-0.00763684 -0.726977 3.58786e-17)
(-0.349564 -0.616917 1.65285e-16)
(0.654451 -0.764813 -2.2553e-16)
(0.243086 -0.551385 -1.26901e-17)
(0.48806 -0.566992 1.67409e-16)
(-0.392093 -0.747207 -3.80977e-16)
(0.31766 -0.687881 0)
(-0.571655 -0.761798 0)
(0.314544 -0.589679 0)
(-0.0392755 -0.85424 1.47927e-16)
(0.518119 -0.738098 0)
(0.00442162 -0.874038 -2.52753e-16)
(0.0294922 -0.831765 1.69185e-16)
(-0.062356 -0.794955 -4.75193e-17)
(-0.0588277 -0.777579 -1.89875e-16)
(-0.374919 -0.541502 1.17948e-16)
(0.207034 -0.461495 1.03999e-19)
(-0.0956884 -0.788756 -4.51131e-17)
(0.0939158 -0.784785 5.45231e-16)
(0.00318085 -0.803542 -8.30425e-17)
(0.0311061 -0.713408 -9.02641e-20)
(-0.0662785 -0.830946 -3.69302e-17)
(-0.0828098 -0.76565 4.65514e-17)
(0.0794986 -0.761503 -2.95199e-16)
(-0.34817 -0.732352 0)
(-0.403323 -0.618292 0)
(0.431712 -0.501348 -2.275e-16)
(-0.0758083 -0.815905 0)
(-0.486083 -0.65447 -8.38672e-17)
(-0.0039026 -0.812442 0)
(-0.502965 -0.631078 2.40192e-17)
(-0.410491 -0.494594 2.08734e-16)
)
;

boundaryField
{
    front
    {
        type            empty;
    }
    back
    {
        type            empty;
    }
    bottom
    {
        type            zeroGradient;
    }
    left
    {
        type            noSlip;
    }
    top
    {
        type            uniformFixedValue;
        uniformValue    
        {
            type            scale;
            scale           
            {
                type            squarePulse;
                start           0.3;
                duration        0.3;
            }
            xScale          
            {
                type            constant;
                value           1;
            }
            value           
            {
                type            constant;
                value           (0 -0.7 0);
            }
        }
        value           uniform (0 -0.7 0);
    }
    right
    {
        type            noSlip;
    }
    inner_arc
    {
        type            noSlip;
    }
}


// ************************************************************************* //
