/*--------------------------------*- C++ -*----------------------------------*\
  =========                 |
  \\      /  F ield         | OpenFOAM: The Open Source CFD Toolbox
   \\    /   O peration     | Website:  https://openfoam.org
    \\  /    A nd           | Version:  9
     \\/     M anipulation  |
\*---------------------------------------------------------------------------*/
FoamFile
{
    format      ascii;
    class       volScalarField;
    location    "0.61";
    object      p;
}
// * * * * * * * * * * * * * * * * * * * * * * * * * * * * * * * * * * * * * //

dimensions      [0 2 -2 0 0 0 0];

internalField   nonuniform List<scalar> 
90
(
-9.24655e-05
7.4452e-05
-0.000463009
-0.000484922
-0.000537874
0.000106884
-5.40822e-05
-2.59507e-05
-0.000255087
-1.68445e-05
-7.74498e-05
-0.000173147
-8.23308e-05
-9.80467e-05
-0.000332895
-0.000389162
-0.000539265
-0.000546361
-0.00031703
1.38115e-05
3.03556e-05
-5.02764e-06
-1.63318e-05
0.000114882
-9.9034e-06
-1.4521e-05
2.02664e-05
-7.0591e-05
-0.000614673
-6.9105e-05
-4.10129e-05
-6.73569e-05
-5.73804e-06
-2.05405e-05
-6.14878e-05
-0.000337529
-0.000154335
-0.000610987
1.91131e-05
-8.70651e-06
-8.34542e-05
-0.000178484
-0.000160924
-6.45162e-05
-4.26981e-06
0.000153946
0.000222858
-0.000456695
-0.000320256
-0.000115372
6.16991e-05
0.000157399
-9.06776e-05
-5.33937e-05
0.000195287
-0.000123839
-2.45073e-05
0.000186172
2.80403e-05
-4.51748e-05
-0.000144755
-6.90347e-05
-4.54758e-05
-0.000354833
-0.000250517
-0.000404196
-4.7368e-05
7.77907e-05
-0.000640869
-0.000540835
-0.000386894
1.98832e-05
-0.000263172
-0.000277246
-0.000513557
0.000200442
8.63062e-05
-0.000203836
-2.9718e-05
2.27663e-05
-0.000621024
-3.77135e-05
0.000141306
-0.000427406
-3.96982e-05
-3.01363e-05
-4.01831e-05
-6.49297e-05
-0.000242547
6.54125e-05
)
;

boundaryField
{
    back
    {
        type            empty;
    }
    front
    {
        type            empty;
    }
    bottom
    {
        type            zeroGradient;
    }
    outer_arc
    {
        type            zeroGradient;
    }
    right
    {
        type            uniformFixedValue;
        uniformValue    
        {
            type            scale;
            scale           
            {
                type            squarePulse;
                start           0.3;
                duration        0.3;
            }
            xScale          
            {
                type            constant;
                value           1;
            }
            value           
            {
                type            constant;
                value           15.1;
            }
        }
        value           uniform 0;
    }
    inner_arc
    {
        type            zeroGradient;
    }
}


// ************************************************************************* //
