/*--------------------------------*- C++ -*----------------------------------*\
  =========                 |
  \\      /  F ield         | OpenFOAM: The Open Source CFD Toolbox
   \\    /   O peration     | Website:  https://openfoam.org
    \\  /    A nd           | Version:  9
     \\/     M anipulation  |
\*---------------------------------------------------------------------------*/
FoamFile
{
    format      ascii;
    class       surfaceScalarField;
    location    "0.61";
    object      phi;
}
// * * * * * * * * * * * * * * * * * * * * * * * * * * * * * * * * * * * * * //

dimensions      [0 3 -1 0 0 0 0];

internalField   nonuniform List<scalar> 
122
(
-6.39778e-12
-3.38936e-12
9.78714e-12
8.20791e-18
1.54098e-11
-1.54098e-11
-3.17583e-11
1.8877e-11
1.28813e-11
-1.30077e-11
-1.87505e-11
-4.96925e-11
4.96925e-11
-4.80377e-12
1.03299e-11
-5.52613e-12
1.27256e-11
-5.45283e-12
-7.27278e-12
1.14144e-11
-1.62182e-11
3.38936e-12
4.70466e-12
-8.09403e-12
-1.54098e-11
2.51191e-11
-9.70929e-12
2.45734e-11
-1.18478e-11
-2.51191e-11
3.66847e-11
-9.27597e-12
2.81529e-11
-2.42033e-11
3.85915e-11
-1.70633e-11
-2.15282e-11
-4.77146e-12
4.77146e-12
-3.17364e-11
3.17364e-11
-1.30936e-12
1.2139e-12
9.54674e-14
2.75622e-11
1.10293e-11
5.79341e-12
4.53649e-12
5.3383e-12
-6.64765e-12
1.02201e-12
-2.84324e-11
-3.30406e-12
-2.84223e-11
1.91464e-11
4.31221e-12
3.92416e-13
-8.09405e-12
-5.93319e-12
1.07047e-11
8.81302e-12
-4.27652e-12
2.87985e-12
1.12653e-12
-1.12653e-12
3.66847e-11
1.07046e-11
-2.27114e-11
2.27114e-11
9.02497e-12
-3.67066e-11
4.57315e-11
-1.71498e-11
2.00296e-11
-5.17692e-13
1.03048e-11
8.73352e-12
-1.11121e-11
-1.18429e-11
-3.56701e-12
-1.66774e-11
1.66774e-11
2.48276e-11
3.32543e-12
-2.38252e-11
-2.1557e-11
5.64807e-12
5.64807e-12
-4.67025e-12
4.89208e-13
4.18104e-12
-1.77277e-11
5.64807e-12
8.27691e-12
-1.29471e-11
1.6633e-11
-1.18428e-11
-6.86035e-12
1.55939e-11
-2.75574e-12
2.75572e-12
-1.6292e-12
2.71293e-11
-2.30181e-12
-3.51865e-12
3.51865e-12
2.02895e-11
-4.83458e-12
2.51241e-11
8.26239e-12
4.74373e-12
-8.26239e-12
1.66605e-11
-1.33351e-11
4.55408e-12
2.39215e-12
2.38901e-11
5.57609e-12
-5.57609e-12
5.52095e-12
1.0555e-11
-1.06972e-11
)
;

boundaryField
{
    back
    {
        type            empty;
        value           nonuniform List<scalar> 0();
    }
    front
    {
        type            empty;
        value           nonuniform List<scalar> 0();
    }
    bottom
    {
        type            calculated;
        value           uniform 0;
    }
    outer_arc
    {
        type            calculated;
        value           uniform 0;
    }
    right
    {
        type            calculated;
        value           nonuniform List<scalar> 4(-6.39779e-12 2.37854e-12 -1.71507e-11 2.117e-11);
    }
    inner_arc
    {
        type            calculated;
        value           uniform 0;
    }
}


// ************************************************************************* //
