/*--------------------------------*- C++ -*----------------------------------*\
  =========                 |
  \\      /  F ield         | OpenFOAM: The Open Source CFD Toolbox
   \\    /   O peration     | Website:  https://openfoam.org
    \\  /    A nd           | Version:  9
     \\/     M anipulation  |
\*---------------------------------------------------------------------------*/
FoamFile
{
    format      ascii;
    class       volVectorField;
    location    "0.61";
    object      U;
}
// * * * * * * * * * * * * * * * * * * * * * * * * * * * * * * * * * * * * * //

dimensions      [0 1 -1 0 0 0 0];

internalField   nonuniform List<vector> 
90
(
(-4.35905e-05 -0.00012668 6.92236e-21)
(-0.000186495 0.000312518 9.14188e-21)
(0.000592028 0.000258391 -2.50434e-20)
(0.000439149 0.000827868 2.48029e-20)
(0.000335928 0.00102153 2.43047e-20)
(-8.20091e-05 8.34804e-05 -7.26482e-21)
(-0.00014289 -9.02272e-05 -8.23288e-21)
(-0.000132571 -0.000300351 -1.99461e-21)
(-0.00058318 0.000588378 0)
(-5.47589e-05 -0.000419657 0)
(0.000194604 -4.11961e-06 -1.95956e-21)
(-2.58691e-05 0.000827892 7.18871e-21)
(0.000111736 -2.57888e-05 -1.02764e-21)
(-5.81795e-05 0.00040261 -5.44233e-21)
(-0.00011888 0.0010439 0)
(0.000284285 0.0012772 0)
(0.000921698 0.0011016 -5.3452e-20)
(0.000871752 0.000302359 1.366e-20)
(-0.000419761 0.00040179 0)
(-0.000852614 -0.000610769 3.4611e-21)
(-5.73481e-06 -7.1412e-05 1.26599e-21)
(-0.000375645 -0.00052172 -2.15987e-21)
(1.3257e-05 1.28967e-05 -4.58598e-22)
(-0.000762729 -0.000256995 -4.21562e-21)
(-6.13465e-05 -0.000212311 1.27458e-21)
(0.000190483 0.000120761 5.14989e-22)
(-2.21149e-05 -0.000190342 -1.3596e-21)
(-0.000315459 -0.000833179 -4.77484e-21)
(0.000930478 0.000400295 0)
(3.36616e-05 -0.000145984 3.25527e-21)
(3.77761e-05 -0.000149514 -2.68914e-21)
(0.000165394 6.60376e-05 -2.4238e-21)
(-0.000187639 -0.000244995 2.48837e-23)
(-0.000191179 -0.000192955 2.697e-21)
(-9.40444e-05 -0.000308914 -4.21102e-22)
(7.27935e-05 0.000632423 7.99173e-21)
(-2.70232e-05 1.03416e-05 0)
(0.000490986 0.000598944 0)
(-0.000141734 -0.000232565 -1.49454e-22)
(-0.000410983 -0.000425773 -5.56929e-22)
(-0.000613975 -0.00100775 -2.95876e-22)
(-0.000819839 -0.000928317 1.31968e-20)
(2.42952e-05 -0.00048043 -7.84882e-22)
(-0.000305341 -0.000264005 1.83743e-21)
(5.85483e-05 -0.000591194 9.89751e-22)
(-0.000373551 0.000266716 -1.40853e-21)
(-0.000346432 4.63137e-05 8.01013e-21)
(0.000722155 -0.000226684 -1.60311e-20)
(-0.00021037 -0.00086605 1.64623e-20)
(-0.000348363 0.00072963 1.18852e-21)
(-0.000375693 -0.000405812 0)
(-0.000177455 -6.5248e-05 -6.33701e-21)
(0.000124663 -6.36391e-05 5.61125e-23)
(-0.000284445 -0.000639314 0)
(-1.32161e-05 -5.01494e-05 1.29348e-20)
(0.000363204 9.98036e-05 4.354e-23)
(-0.000468121 -0.000457514 -1.47828e-21)
(-0.000187481 4.89238e-05 0)
(0.000362909 -0.000402172 0)
(0.000173144 0.00014833 3.34863e-21)
(-0.00086401 -0.000567557 -9.582e-21)
(6.28984e-05 3.85413e-05 0)
(4.86882e-05 6.93745e-05 2.12389e-21)
(0.000257014 -0.000771668 5.17461e-21)
(-0.000212544 -0.000850324 -1.7884e-20)
(5.25266e-05 -1.83393e-05 -1.77172e-20)
(-0.000802764 6.06296e-05 0)
(-0.000778761 0.000164896 0)
(0.000814457 0.000496702 2.46452e-21)
(0.000261877 8.92509e-05 -1.77491e-20)
(0.000620392 -8.64738e-05 0)
(0.000180647 -0.000373421 1.38487e-21)
(0.000391997 -0.000248054 0)
(7.0924e-05 1.61545e-05 -1.70709e-20)
(0.000694776 0.000250126 1.78988e-20)
(-0.000449287 -0.000239153 -6.63291e-21)
(0.000200492 -2.48092e-05 -1.17257e-21)
(2.35257e-05 -0.000684983 0)
(9.14801e-05 -8.29437e-05 -1.75189e-21)
(0.000592718 -0.000223105 2.73815e-21)
(0.000200056 0.000106859 2.57197e-20)
(-0.000247846 -0.000560703 3.22348e-22)
(-0.000526527 -2.8739e-05 -1.2338e-20)
(0.000690229 0.000109545 -1.05256e-20)
(0.000142126 0.000185503 4.74566e-22)
(-0.000572236 0.000367794 1.64438e-21)
(-0.00012165 -0.00051596 -1.70385e-21)
(-7.88703e-05 -0.000297551 -4.29841e-22)
(0.000334967 0.000112248 2.71937e-20)
(0.000135883 -0.000113301 -1.34179e-21)
)
;

boundaryField
{
    back
    {
        type            empty;
    }
    front
    {
        type            empty;
    }
    bottom
    {
        type            uniformFixedValue;
        uniformValue    
        {
            type            scale;
            scale           
            {
                type            squarePulse;
                start           0.3;
                duration        0.3;
            }
            xScale          
            {
                type            constant;
                value           1;
            }
            value           
            {
                type            constant;
                value           (0 0.7 0);
            }
        }
        value           uniform (0 0 0);
    }
    outer_arc
    {
        type            noSlip;
    }
    right
    {
        type            zeroGradient;
    }
    inner_arc
    {
        type            noSlip;
    }
}


// ************************************************************************* //
