/*--------------------------------*- C++ -*----------------------------------*\
  =========                 |
  \\      /  F ield         | OpenFOAM: The Open Source CFD Toolbox
   \\    /   O peration     | Website:  https://openfoam.org
    \\  /    A nd           | Version:  9
     \\/     M anipulation  |
\*---------------------------------------------------------------------------*/
FoamFile
{
    format      ascii;
    class       volScalarField;
    location    "0.9";
    object      p;
}
// * * * * * * * * * * * * * * * * * * * * * * * * * * * * * * * * * * * * * //

dimensions      [0 2 -2 0 0 0 0];

internalField   nonuniform List<scalar> 
464
(
1.07522e-20
-2.45151e-20
1.56761e-21
1.42558e-21
-2.82237e-20
1.52968e-21
4.49768e-21
1.47443e-21
-3.93529e-21
-2.25679e-21
1.01235e-20
2.4963e-20
3.61177e-21
2.54486e-20
5.53056e-21
4.01451e-21
-1.67599e-21
-1.46386e-21
1.30611e-21
1.02781e-21
1.11343e-21
1.56639e-21
1.38243e-21
1.49509e-21
1.41445e-21
1.53899e-21
1.58937e-20
1.26814e-21
1.47627e-20
1.51123e-21
1.65064e-21
5.19295e-22
6.17314e-22
-8.97785e-22
-8.86351e-22
-1.0677e-21
-8.64366e-22
1.31104e-21
1.32981e-21
1.79896e-21
9.39219e-22
1.40271e-21
1.36197e-21
2.20529e-20
1.95748e-20
1.7442e-21
1.18709e-21
1.07627e-21
1.14471e-21
1.19478e-21
8.55264e-22
1.12994e-21
3.06731e-22
1.31937e-21
1.40601e-21
1.13355e-21
1.20553e-21
1.94855e-21
2.19194e-21
2.54372e-22
1.32162e-21
-1.39647e-20
1.61478e-21
1.4917e-21
-8.84727e-21
1.33077e-21
3.17085e-21
1.00952e-21
1.49939e-20
1.51721e-21
2.62801e-21
-1.18261e-20
1.0752e-20
1.07487e-21
-2.28511e-21
1.24548e-21
2.64451e-21
4.99714e-21
1.58777e-21
1.01935e-20
-2.1783e-20
1.59613e-21
-3.54911e-20
1.62483e-21
-2.18036e-20
2.2311e-21
-9.57177e-21
1.76863e-21
1.3885e-21
-1.84417e-21
-1.89129e-20
-1.59708e-20
2.42375e-21
2.2373e-20
2.78373e-21
2.28244e-21
1.79585e-21
1.51039e-21
-1.17115e-20
-2.76985e-21
1.40239e-21
1.09992e-21
1.41706e-21
-4.14375e-23
-1.21541e-21
-3.58101e-20
1.52447e-21
2.58118e-21
-1.85182e-20
1.26062e-21
1.84794e-21
1.15454e-21
3.11195e-21
-8.76613e-21
1.33961e-21
1.33891e-21
-2.86317e-20
1.6341e-21
-1.50585e-20
1.61399e-21
1.18783e-21
3.28868e-21
-7.48493e-21
1.01868e-20
2.53706e-21
8.99856e-22
-2.2379e-21
2.44606e-21
-9.80903e-22
-3.16145e-20
1.63373e-21
2.87738e-20
1.41395e-21
1.39827e-21
1.62754e-21
-2.32805e-20
1.71341e-21
1.33034e-21
-2.79176e-21
1.65647e-21
1.83294e-21
1.9377e-21
3.00956e-21
1.31563e-21
1.73474e-21
-4.31907e-21
1.27844e-21
1.75291e-21
1.51047e-21
1.74241e-21
1.36255e-21
1.435e-21
2.66668e-21
3.27976e-22
-1.97436e-20
1.68175e-21
-2.78623e-21
1.23974e-21
-1.79718e-21
-1.54335e-20
-3.9802e-22
1.32986e-21
-7.00316e-22
1.48007e-21
1.40072e-21
2.07875e-21
1.16223e-21
1.24951e-21
2.87052e-22
2.02497e-21
3.56584e-21
-1.15839e-20
-4.72926e-21
1.67609e-21
7.02704e-22
3.30472e-21
1.24805e-21
1.28178e-21
5.67793e-21
-1.90593e-21
1.19624e-21
4.12727e-21
-4.12751e-21
-4.20583e-21
-2.49028e-21
-4.40856e-21
5.9567e-21
5.88885e-21
-1.84277e-21
5.64826e-21
1.22838e-21
6.19225e-21
9.08546e-22
1.12242e-21
2.18137e-21
2.35215e-21
1.07611e-21
1.3055e-21
-3.47498e-21
1.56402e-21
1.36798e-21
2.22606e-21
1.19599e-21
2.03897e-21
5.78964e-21
8.73962e-22
1.58577e-21
1.97968e-21
2.17133e-21
-8.25523e-21
1.52093e-21
5.36589e-21
9.48492e-22
-8.25356e-22
1.13788e-21
4.49141e-21
-7.50418e-22
9.62289e-22
1.47655e-20
2.55057e-21
-3.6018e-21
1.81797e-21
1.82986e-21
1.37419e-21
1.26014e-21
1.28864e-21
1.2556e-21
1.029e-21
1.20082e-21
1.31959e-21
1.12902e-21
7.77129e-22
9.19273e-22
1.60831e-21
5.7862e-22
1.36129e-21
1.68797e-22
8.07794e-22
9.93535e-22
-1.58045e-22
1.45747e-21
7.22416e-22
5.09896e-22
8.93012e-22
1.59148e-21
-8.3433e-22
7.6347e-22
8.0938e-22
-4.04229e-23
9.61482e-22
1.00048e-21
-3.16397e-22
1.44993e-21
-4.43867e-22
1.59325e-21
8.21344e-22
1.25914e-21
7.37914e-22
1.59778e-21
1.12764e-21
4.12751e-22
8.22472e-22
1.48079e-21
1.66887e-21
5.69592e-22
1.77081e-21
1.14576e-21
1.36994e-21
4.04702e-21
1.34669e-21
1.64305e-21
4.26677e-22
3.50817e-22
2.01651e-21
3.66925e-21
8.24892e-22
7.10791e-22
2.63401e-21
3.55729e-21
-6.38607e-21
-3.3553e-22
1.22646e-21
3.07234e-21
1.04946e-21
4.84261e-21
-1.85305e-21
4.27268e-21
-5.71628e-21
1.26072e-21
-1.06518e-21
-3.76753e-21
-1.61025e-21
1.18023e-21
1.24291e-21
2.35734e-21
3.60411e-21
5.14736e-21
3.57579e-21
3.93929e-21
-7.46046e-21
3.77573e-21
2.04347e-21
8.19413e-21
2.49539e-20
-2.39233e-22
2.34171e-21
1.83159e-21
-1.71834e-22
-1.35829e-20
1.5844e-21
1.63317e-21
1.2545e-21
1.51606e-21
2.42587e-21
1.11196e-21
-7.1445e-23
4.38728e-21
-8.04848e-21
1.44246e-21
2.88482e-21
1.57156e-21
4.07671e-21
-1.05189e-20
3.92831e-21
-1.00573e-21
9.41866e-22
9.07396e-22
7.01697e-21
1.26474e-21
-5.17121e-21
1.27016e-21
-8.19451e-21
1.4774e-21
1.24893e-21
1.83782e-21
1.29291e-21
1.60654e-21
1.44838e-21
3.63749e-22
1.37517e-21
1.44947e-21
1.7058e-20
-2.69318e-21
-4.90147e-21
3.18619e-22
1.32015e-21
9.34112e-22
3.05968e-21
1.30052e-21
1.94577e-21
1.21086e-21
1.61091e-21
4.03523e-21
3.6839e-21
1.19307e-21
-1.62048e-20
1.5558e-21
-3.53633e-20
1.53366e-21
-2.32469e-20
1.66659e-21
1.5062e-21
1.55927e-21
-2.24275e-20
1.34113e-20
1.38529e-21
1.45561e-21
-2.22731e-21
3.4981e-20
1.4545e-21
1.30384e-21
2.78664e-20
6.96543e-21
-1.98659e-21
1.92563e-20
1.48665e-21
1.27394e-20
1.61323e-21
1.26313e-20
1.49253e-21
1.18316e-21
-8.09994e-22
-1.7462e-21
6.74231e-22
2.64226e-22
6.72146e-22
-1.623e-22
1.63398e-21
-3.90535e-21
-1.4526e-21
3.14511e-22
-1.66826e-22
-4.8067e-22
2.64609e-22
1.07592e-21
1.27892e-21
1.29073e-21
1.51216e-21
1.39565e-21
1.04388e-20
-1.35e-20
1.80544e-21
2.33635e-20
1.62884e-21
9.30441e-22
1.06241e-20
3.12917e-20
1.52765e-21
1.66998e-20
1.55682e-21
-5.9158e-21
1.2212e-21
1.54193e-21
1.46564e-21
1.56116e-21
-1.09017e-20
4.10936e-20
1.19352e-21
1.44087e-21
-1.63563e-20
1.27339e-21
1.75177e-21
1.2903e-20
2.41789e-20
1.4792e-20
7.65406e-21
9.49289e-21
5.17504e-21
2.98475e-21
-3.6995e-20
1.53108e-21
6.84371e-22
-2.05656e-21
1.67589e-21
3.65466e-22
-3.14581e-21
-2.59606e-21
1.50117e-21
-2.10643e-21
1.43056e-21
1.97807e-22
-1.64392e-22
1.17195e-21
1.14413e-21
1.39717e-21
1.24309e-21
1.37101e-21
1.59671e-21
1.3079e-21
7.43178e-22
7.6034e-22
3.58247e-21
1.46532e-21
1.51184e-21
5.60638e-22
-1.88347e-21
-4.2362e-22
1.32207e-21
1.13666e-21
1.11948e-21
1.5928e-21
3.88644e-20
2.6845e-20
1.59489e-21
)
;

boundaryField
{
    back
    {
        type            empty;
    }
    front
    {
        type            empty;
    }
    left
    {
        type            zeroGradient;
    }
    top
    {
        type            zeroGradient;
    }
    right
    {
        type            zeroGradient;
    }
    bottom
    {
        type            uniformFixedValue;
        uniformValue    
        {
            type            scale;
            scale           
            {
                type            squarePulse;
                start           0.3;
                duration        0.3;
            }
            xScale          
            {
                type            constant;
                value           1;
            }
            value           
            {
                type            constant;
                value           15.1;
            }
        }
        value           uniform 0;
    }
}


// ************************************************************************* //
