/*--------------------------------*- C++ -*----------------------------------*\
  =========                 |
  \\      /  F ield         | OpenFOAM: The Open Source CFD Toolbox
   \\    /   O peration     | Website:  https://openfoam.org
    \\  /    A nd           | Version:  9
     \\/     M anipulation  |
\*---------------------------------------------------------------------------*/
FoamFile
{
    format      ascii;
    class       surfaceScalarField;
    location    "0.9";
    object      phi;
}
// * * * * * * * * * * * * * * * * * * * * * * * * * * * * * * * * * * * * * //

dimensions      [0 3 -1 0 0 0 0];

internalField   nonuniform List<scalar> 
663
(
-2.27567e-26
2.77545e-26
-4.95618e-27
5.36821e-27
2.8775e-26
-4.50736e-30
3.47041e-30
2.66186e-29
-4.00776e-29
1.42574e-29
-1.26992e-26
1.79811e-26
-3.02222e-30
-4.56949e-30
-2.91117e-26
6.34509e-27
-7.80608e-30
4.8378e-29
-3.46149e-26
1.4329e-26
2.02403e-26
-4.59037e-27
-2.99687e-26
-5.34911e-27
3.30621e-26
1.56566e-26
-5.42425e-27
-1.02123e-26
-1.47354e-26
1.38096e-26
1.84477e-27
6.58415e-27
-7.23924e-27
6.20992e-28
7.09753e-27
-4.90705e-28
-2.71203e-28
-7.68907e-28
1.03788e-27
-7.85808e-29
-1.81148e-28
1.80922e-29
-2.23785e-29
-4.14465e-28
7.99983e-28
-3.85209e-28
3.52696e-28
-7.6256e-28
4.74936e-29
1.95755e-28
-2.43458e-28
3.54507e-28
-3.01885e-28
2.81444e-30
2.41896e-29
-2.97028e-29
-2.1515e-30
-2.71913e-29
-2.70462e-29
3.90481e-29
1.38623e-28
-2.19217e-27
2.03629e-27
4.0098e-29
-4.64686e-29
8.88364e-30
6.24436e-27
-5.92564e-27
-1.08811e-28
9.13977e-29
1.64687e-29
-3.21534e-29
-4.93301e-29
-7.33906e-27
6.23626e-27
1.11251e-27
2.05189e-28
-7.54606e-27
6.25143e-27
-5.15078e-27
-1.09862e-27
3.176e-27
3.06838e-27
1.30977e-28
-2.18913e-28
-5.71597e-28
6.93964e-28
6.75947e-30
1.82823e-29
-1.2365e-29
7.15953e-29
-6.566e-27
2.88566e-28
6.27471e-27
6.52668e-28
1.53226e-28
-5.74162e-28
5.27016e-28
4.92959e-29
-2.1815e-28
-4.5978e-27
2.44329e-27
-9.83425e-27
4.74215e-28
-8.35637e-29
-1.70051e-28
2.52642e-28
1.86338e-28
-1.14427e-28
-7.32562e-29
-3.91571e-29
3.95884e-29
-3.7789e-29
-1.4822e-28
8.0223e-28
5.09807e-29
-2.59857e-29
-2.41471e-29
8.23301e-28
-1.1697e-28
-7.08497e-28
-3.93781e-28
3.82179e-28
1.17505e-29
-6.23103e-28
2.35403e-28
1.15508e-28
-5.44357e-29
4.62141e-29
6.15833e-28
-1.53629e-28
-4.56948e-28
3.11714e-29
5.91706e-28
7.36255e-28
9.36778e-29
-3.69347e-29
9.80737e-28
1.06502e-26
-1.16353e-26
5.47312e-28
1.71047e-27
-2.25971e-27
-2.24926e-28
1.26687e-28
9.82262e-29
-2.24744e-26
1.7853e-26
5.06139e-28
-1.18431e-28
-2.15463e-27
6.27621e-28
1.52919e-27
1.5693e-29
-1.5506e-26
-2.23648e-28
-3.9898e-28
-4.78244e-28
5.18077e-28
-2.15167e-26
6.87472e-27
-6.40814e-28
1.84588e-28
6.33588e-30
-9.04573e-28
8.62737e-27
-7.71957e-27
6.07186e-29
-2.23212e-27
8.72852e-29
-2.80163e-26
2.30428e-26
2.89849e-28
-4.34981e-28
-3.12592e-28
6.36334e-27
1.50075e-26
-2.13894e-26
-1.77028e-29
3.01287e-29
-8.90301e-30
4.33297e-27
-5.49314e-27
1.12187e-27
1.83741e-30
5.22119e-30
-8.5547e-30
1.06231e-26
1.35245e-27
-7.86836e-28
1.64744e-26
-5.85313e-27
1.64279e-29
1.39951e-29
4.17371e-29
-5.53273e-29
-9.18607e-27
8.26975e-27
-1.04277e-27
-6.56901e-27
5.66158e-27
-1.78937e-27
-3.87776e-27
-8.07713e-27
-1.35359e-26
2.15614e-26
3.22083e-27
2.45301e-27
-5.13904e-28
8.49907e-29
1.9456e-29
8.40241e-30
5.57852e-28
3.46577e-27
-4.03263e-27
1.12391e-26
-2.60097e-26
7.97842e-29
-5.85994e-29
2.25026e-28
-3.35767e-28
3.12196e-29
5.37304e-29
1.13906e-27
5.10601e-27
-4.01897e-27
-5.55212e-27
4.62051e-30
3.84756e-27
-3.2189e-27
-2.84156e-27
1.82165e-27
9.06671e-29
-5.05251e-28
4.13497e-28
4.9649e-27
2.51596e-27
-7.48397e-27
2.63918e-29
2.08068e-27
-7.39841e-27
7.94505e-27
1.04017e-28
-5.5017e-29
1.43915e-28
-1.09699e-28
-1.02679e-27
-1.86787e-27
2.95436e-30
-4.96613e-30
-1.95698e-30
3.46591e-27
-2.23043e-29
3.75203e-29
3.23739e-28
-9.31206e-27
2.05683e-26
8.30458e-27
8.13165e-27
-1.32161e-26
1.95726e-26
8.89874e-28
8.82733e-27
-3.85453e-27
1.62985e-26
-7.9677e-27
-4.53532e-27
7.05445e-27
-7.12134e-28
3.89344e-27
1.31558e-27
-1.35091e-27
2.05503e-30
1.48608e-28
3.21886e-29
9.82377e-29
-1.26658e-28
-1.8961e-27
1.05195e-29
6.72313e-29
-4.84517e-29
1.38258e-28
-1.42365e-28
-5.01822e-29
9.65844e-29
-4.23831e-27
5.42651e-28
-1.93965e-29
-2.89546e-31
5.77522e-30
6.71517e-30
1.62374e-28
8.46616e-27
2.37802e-28
-2.33169e-28
1.30122e-29
3.79157e-28
-2.46563e-28
2.28443e-28
-7.36196e-29
-3.32181e-29
2.77973e-28
2.13449e-28
-5.89688e-29
-8.92162e-28
6.44927e-27
-5.56455e-27
6.77154e-27
2.05464e-27
1.55588e-27
-8.25017e-29
-5.69237e-29
-8.30792e-29
-6.87151e-28
3.37787e-28
-3.69229e-28
6.97099e-27
7.45042e-27
-5.67564e-27
1.19532e-27
-2.96509e-27
1.7677e-27
-7.05054e-29
4.16102e-28
5.77851e-28
-8.30196e-27
2.26607e-28
-1.07477e-28
3.36436e-28
5.59824e-28
6.39873e-28
4.9027e-28
-5.90469e-28
-6.0752e-28
7.13866e-27
-6.50286e-27
-3.29076e-27
3.29035e-27
-2.52344e-27
-7.85304e-28
1.55167e-27
-3.92878e-27
4.09566e-27
3.16475e-28
3.91505e-27
8.03069e-28
-5.32807e-27
4.09743e-28
-4.75559e-28
4.83165e-28
-6.99488e-29
-7.27282e-27
6.38421e-27
-6.46399e-28
-2.7109e-27
3.36346e-27
-2.07927e-28
6.94241e-28
5.45634e-28
1.47673e-27
-2.02899e-27
1.42832e-27
-1.43015e-27
7.79228e-28
2.18354e-27
-2.80498e-27
-2.14523e-27
6.90238e-28
9.35568e-28
-3.66804e-28
9.45574e-28
-1.68344e-27
2.5031e-27
2.48282e-28
2.57069e-28
-5.08955e-28
1.65865e-27
-7.03918e-28
-9.00681e-29
8.93994e-29
-8.04406e-29
1.55553e-28
4.45113e-28
6.14387e-28
-4.61677e-28
8.48805e-28
4.17656e-28
-6.34759e-28
-8.86677e-29
6.37016e-28
-3.67955e-30
-2.7114e-28
1.825e-28
5.56972e-28
9.77666e-29
-1.73456e-28
-2.59859e-28
-3.11517e-28
3.13754e-28
-3.28406e-28
-3.61391e-28
1.42597e-29
2.99733e-28
-2.98548e-28
3.39064e-28
-2.76668e-27
-3.09276e-27
3.07808e-27
-3.33071e-28
7.84769e-28
7.4468e-29
3.95669e-28
4.44989e-28
6.88586e-30
4.37883e-28
4.05444e-28
1.52157e-28
5.56431e-28
-7.11062e-28
1.33713e-28
2.70981e-28
2.37967e-28
3.95447e-28
8.03892e-28
-2.38373e-28
7.76141e-28
2.89505e-29
-1.23819e-27
6.68782e-28
-9.01118e-28
-3.90917e-29
7.53993e-28
-1.58117e-27
8.23636e-28
-8.93658e-28
1.65406e-27
7.32359e-28
-9.48755e-28
-6.24843e-28
-5.03401e-28
2.72973e-27
-1.90085e-27
-8.51752e-28
1.14773e-27
-1.09591e-27
6.96185e-29
1.63138e-27
4.5864e-30
8.41724e-28
6.97959e-28
-2.60127e-27
3.48956e-28
3.89142e-27
-3.17669e-27
-2.53119e-27
-4.44768e-27
3.1862e-28
4.12237e-27
-2.38594e-27
-1.763e-27
3.40021e-27
2.13295e-27
-1.76688e-28
-1.88202e-28
3.48456e-28
-2.29454e-27
5.138e-27
-6.05441e-27
9.25972e-28
2.41937e-27
-4.71571e-27
-5.07501e-27
-1.17415e-27
6.24272e-27
-2.69995e-27
5.12601e-27
-5.44951e-27
7.00141e-27
-1.54648e-27
2.43532e-27
-4.86526e-27
-2.63109e-27
3.26343e-29
8.63509e-27
-8.02934e-27
2.66238e-27
4.36286e-27
2.8517e-28
1.91232e-27
-4.54581e-27
-6.66695e-28
1.30313e-27
7.09195e-27
7.34462e-27
-1.99876e-27
3.91411e-27
7.46555e-29
2.45756e-28
-2.48367e-28
1.01874e-27
5.2569e-27
-3.94664e-27
-1.46824e-28
1.4617e-28
-4.47715e-29
-1.61762e-27
-6.39483e-27
5.59256e-27
-3.4787e-28
-2.13887e-28
-9.66482e-30
1.87406e-27
-9.86784e-27
-9.33077e-29
2.64307e-27
7.04839e-27
-4.41807e-27
8.95083e-27
8.24822e-29
3.01382e-28
-2.87951e-27
-1.91776e-28
2.37868e-29
-3.78838e-28
-2.86273e-27
3.56884e-27
-8.3167e-27
-3.76112e-27
-1.22472e-26
5.68777e-27
6.52175e-27
5.73223e-27
-6.68963e-28
9.44739e-29
2.77933e-28
-5.40319e-27
6.83366e-29
-4.11256e-27
6.2785e-27
-6.3741e-28
1.21859e-26
-5.19721e-27
2.41104e-27
-6.32566e-27
-3.84322e-27
-4.4758e-27
-3.78966e-29
3.65058e-29
4.89355e-27
1.19704e-29
8.75643e-29
-4.53966e-28
3.07985e-29
-3.15493e-29
-8.93135e-27
-2.48434e-28
-5.09942e-28
3.23717e-26
-2.09915e-26
2.61157e-29
-2.48503e-29
-5.42588e-28
-1.6874e-28
-2.02225e-28
-7.6565e-30
9.21337e-30
2.90984e-28
-1.28139e-29
1.8124e-29
6.93026e-27
-3.66268e-26
7.91683e-27
-1.83989e-29
-2.56409e-29
9.9308e-28
-3.49917e-28
-8.06022e-28
9.0274e-27
2.22199e-31
8.93554e-27
-3.56025e-31
1.14894e-27
2.75295e-26
-8.0741e-31
2.19287e-29
-7.74985e-27
-6.56224e-30
-3.37541e-27
1.95573e-26
-1.0882e-29
-7.25041e-30
-1.90107e-27
1.17939e-27
3.35287e-27
4.61591e-29
-1.48457e-29
2.76931e-29
1.11393e-27
-7.0437e-27
-1.44728e-27
1.34557e-27
-1.08717e-27
-4.09048e-27
3.55897e-28
2.89233e-27
-3.45846e-29
-2.44423e-27
3.1055e-27
-3.8184e-27
-9.40038e-28
7.1782e-28
5.48347e-27
3.99286e-27
9.95297e-30
9.604e-29
8.53653e-29
7.729e-28
7.71573e-29
-2.37726e-28
2.38126e-28
-5.43391e-28
-4.26006e-28
2.00524e-28
1.7795e-29
-2.91832e-28
6.42392e-28
3.00128e-26
1.33247e-29
2.65938e-26
7.86426e-30
2.46374e-26
-1.35437e-26
9.22137e-27
-9.1679e-27
-3.45414e-30
-1.33579e-26
7.09503e-31
-2.10272e-26
-8.92153e-27
9.19626e-30
-3.78079e-29
3.45058e-29
-1.87336e-29
-1.69222e-29
8.29431e-29
-2.33774e-29
3.39531e-27
-2.50326e-29
5.09337e-31
-8.32678e-27
2.90479e-27
2.43122e-27
2.71383e-29
9.98346e-29
-8.59121e-29
-2.6587e-28
-6.42669e-28
3.04071e-28
6.66942e-30
1.92078e-29
1.76986e-29
-2.2266e-29
1.97161e-29
)
;

boundaryField
{
    back
    {
        type            empty;
        value           nonuniform List<scalar> 0();
    }
    front
    {
        type            empty;
        value           nonuniform List<scalar> 0();
    }
    left
    {
        type            calculated;
        value           uniform 0;
    }
    top
    {
        type            calculated;
        value           uniform 0;
    }
    right
    {
        type            calculated;
        value           uniform 0;
    }
    bottom
    {
        type            calculated;
        value           nonuniform List<scalar> 8(-3.43815e-26 -1.14551e-26 2.98721e-26 -2.18774e-26 -2.90188e-26 2.27451e-26 3.5074e-26 1.11376e-26);
    }
}


// ************************************************************************* //
