/*--------------------------------*- C++ -*----------------------------------*\
  =========                 |
  \\      /  F ield         | OpenFOAM: The Open Source CFD Toolbox
   \\    /   O peration     | Website:  https://openfoam.org
    \\  /    A nd           | Version:  9
     \\/     M anipulation  |
\*---------------------------------------------------------------------------*/
FoamFile
{
    format      ascii;
    class       volVectorField;
    location    "0.9";
    object      U;
}
// * * * * * * * * * * * * * * * * * * * * * * * * * * * * * * * * * * * * * //

dimensions      [0 1 -1 0 0 0 0];

internalField   nonuniform List<vector> 
464
(
(-7.07485e-19 -3.63348e-19 -3.34015e-38)
(-4.56505e-19 8.82596e-19 0)
(6.09658e-23 -4.7225e-23 0)
(6.70503e-22 -7.14893e-22 -8.53943e-38)
(-3.3152e-19 6.96112e-19 0)
(1.40837e-22 6.6551e-23 2.32587e-38)
(-6.67895e-19 -1.97551e-19 4.53486e-37)
(6.01231e-22 -1.00731e-21 0)
(-8.26078e-19 2.46026e-20 -4.69497e-38)
(-7.80446e-19 2.25952e-19 -3.20502e-37)
(-5.63041e-19 -4.77382e-19 3.56433e-38)
(-2.39152e-19 -2.46434e-19 -3.8558e-38)
(-7.24581e-19 -6.3965e-20 2.35962e-38)
(-1.69216e-19 -2.8453e-19 0)
(-3.50993e-21 2.39525e-19 7.68865e-38)
(6.67593e-21 2.09902e-19 -2.7529e-37)
(1.81641e-20 1.28313e-20 0)
(9.22203e-21 1.74481e-21 -3.98753e-38)
(3.32234e-23 -3.94795e-22 6.20247e-38)
(-6.61543e-21 -2.29049e-20 -6.18742e-38)
(-6.48995e-21 -2.25344e-20 9.39434e-38)
(-4.25455e-21 -7.27396e-21 -2.26649e-38)
(-6.39669e-21 -9.07645e-21 1.0551e-38)
(5.90908e-22 -9.82032e-22 0)
(9.55064e-22 -4.22592e-22 8.77047e-38)
(3.8947e-22 -9.46677e-22 -4.51243e-38)
(-5.81291e-20 1.06591e-19 -4.74759e-37)
(-2.46342e-22 -1.35204e-21 7.82713e-38)
(-8.06202e-20 1.48372e-19 0)
(-1.50301e-21 -2.19069e-21 0)
(-1.29535e-21 -1.98956e-21 -5.73373e-39)
(7.88673e-20 2.01429e-19 -1.12125e-40)
(6.01908e-20 2.27465e-19 7.96587e-39)
(7.19491e-20 1.30492e-19 -4.9538e-38)
(8.72692e-20 1.078e-19 4.99261e-38)
(6.73019e-21 -8.15149e-21 6.21534e-38)
(9.73161e-21 -1.2726e-20 -5.43482e-38)
(-9.34166e-23 -6.5077e-22 9.04014e-39)
(-5.13173e-22 -1.4954e-21 -1.24819e-39)
(2.14883e-20 1.94321e-19 0)
(-4.13594e-21 -2.46567e-20 -8.21611e-38)
(-6.18038e-21 -1.35693e-20 0)
(-7.54638e-21 -1.18391e-20 2.69866e-38)
(-9.32242e-20 1.27824e-20 -1.18068e-36)
(-1.80928e-19 -7.27788e-20 1.20455e-36)
(2.18482e-20 2.29258e-19 6.2818e-39)
(-5.5864e-21 6.3718e-22 -6.8192e-38)
(-2.89e-21 4.01406e-21 -7.44149e-40)
(-7.9086e-23 -8.99634e-22 0)
(-5.10542e-23 -1.03298e-21 -8.75255e-39)
(-2.53045e-21 -2.65376e-20 5.32826e-38)
(-1.01641e-21 -1.03403e-21 3.95156e-39)
(-5.81576e-22 -2.19711e-20 1.84786e-38)
(-1.07969e-20 6.31761e-21 7.73559e-38)
(-8.96985e-21 1.16229e-20 2.54269e-39)
(-2.06891e-21 -1.59833e-22 -6.44786e-38)
(-3.66272e-21 -1.93392e-22 0)
(1.71124e-20 3.76057e-21 0)
(1.28433e-20 9.32819e-21 1.43743e-37)
(9.41027e-22 -2.40247e-20 0)
(-1.60484e-22 -1.31549e-21 -8.02993e-38)
(-3.67395e-19 1.54394e-19 1.49549e-36)
(5.34582e-20 -1.10456e-20 -2.30753e-37)
(-2.73792e-21 4.3702e-21 8.89813e-38)
(-6.3705e-19 2.03932e-19 -1.39014e-38)
(-1.2179e-20 2.19016e-21 7.57143e-38)
(4.8201e-20 -4.21244e-20 1.71386e-37)
(-3.30782e-22 -9.971e-22 5.42406e-38)
(-4.09678e-19 -3.36675e-19 -4.21937e-37)
(-6.67439e-21 1.5103e-20 -9.37751e-38)
(1.65432e-20 5.95439e-21 -1.43445e-37)
(-5.08789e-19 2.73532e-19 -7.97933e-37)
(-5.19781e-20 2.04352e-19 0)
(-3.48851e-21 2.59078e-21 -6.45377e-38)
(1.97897e-20 -2.52881e-19 -8.89459e-38)
(-1.11527e-21 -1.56223e-21 -7.65897e-38)
(4.81353e-20 -2.60676e-20 1.70217e-37)
(-8.08608e-19 -3.52182e-19 -4.60687e-37)
(9.97049e-21 2.59339e-21 1.00491e-37)
(-1.89634e-20 2.03311e-19 2.23877e-37)
(-3.17319e-19 4.2126e-19 0)
(6.39988e-22 2.13538e-22 -2.25552e-38)
(-7.16347e-20 1.24146e-19 -2.05972e-36)
(4.01778e-23 2.32897e-22 -9.93654e-38)
(-1.88008e-19 2.31356e-19 0)
(3.74088e-20 -5.54815e-21 8.24218e-41)
(-3.59501e-19 4.46357e-20 -7.06459e-37)
(2.92146e-22 6.89836e-23 0)
(-5.06073e-22 -1.78298e-21 0)
(2.67906e-20 -2.54585e-19 -6.80205e-38)
(-2.25417e-19 1.34729e-19 1.11903e-36)
(-4.84046e-19 4.46486e-19 0)
(8.59177e-20 -1.01096e-19 -1.57993e-37)
(-3.3235e-19 -6.13197e-19 -1.11679e-36)
(7.61657e-20 -1.31241e-19 1.55296e-37)
(6.18643e-20 -2.16148e-20 1.16039e-37)
(2.45823e-21 7.79923e-21 -1.00725e-37)
(7.16452e-22 -1.23714e-22 2.06861e-38)
(-6.50317e-21 -1.40654e-19 -7.95124e-37)
(-6.26548e-19 -1.87759e-21 -2.65457e-38)
(-3.29319e-22 -1.72042e-21 0)
(-4.6398e-21 6.56521e-21 -5.64333e-39)
(-1.24973e-21 -1.96744e-21 0)
(8.64836e-20 1.7207e-19 1.09716e-40)
(7.29265e-20 1.66759e-19 0)
(-4.88006e-20 1.19463e-19 -1.68209e-36)
(1.44717e-23 1.28153e-22 0)
(6.86634e-20 -5.89121e-20 -1.68228e-37)
(-1.20567e-19 1.20111e-20 -1.12024e-36)
(-9.2909e-21 7.61099e-21 0)
(7.73048e-20 -1.83343e-19 0)
(-5.7317e-21 2.44864e-21 6.9614e-38)
(6.49568e-20 -8.25034e-20 0)
(-2.58077e-20 -2.1024e-19 4.49666e-37)
(-1.48695e-21 -1.86212e-21 -2.57958e-39)
(-2.68192e-21 -2.28457e-21 1.27341e-39)
(-4.2239e-20 -1.65712e-20 1.56151e-36)
(1.58269e-22 -1.68704e-22 -1.07361e-37)
(-8.36615e-21 -7.31154e-20 6.39499e-37)
(-2.64333e-23 -8.13014e-22 5.93602e-39)
(-7.41336e-21 6.34912e-21 -6.72259e-38)
(-5.15745e-19 -2.2191e-20 -6.49717e-39)
(-4.54145e-19 3.44293e-20 2.88397e-37)
(-5.2303e-19 -1.4795e-19 -3.97418e-37)
(2.881e-20 -3.49028e-21 0)
(8.57034e-20 -1.95049e-19 -3.65434e-38)
(-3.91224e-19 -2.10009e-20 -2.9091e-37)
(4.82085e-20 -1.76586e-19 0)
(7.61953e-20 7.85349e-20 0)
(-3.10038e-20 2.02762e-20 1.59565e-36)
(7.99987e-23 9.69156e-23 7.717e-38)
(-3.70422e-20 -2.45426e-20 -1.30641e-36)
(-1.26869e-22 -5.57823e-22 6.56773e-38)
(-4.02459e-21 -2.87206e-21 0)
(-1.32384e-21 -3.99278e-21 0)
(-1.81935e-20 -4.16763e-20 -1.23837e-36)
(1.26525e-22 4.65928e-23 1.62285e-37)
(-2.30779e-22 -1.46896e-21 8.04385e-38)
(-5.89943e-19 8.04863e-20 3.44309e-37)
(-6.78599e-22 -2.89735e-21 -8.12347e-38)
(-3.40709e-22 -2.5419e-21 0)
(9.34027e-20 -1.48977e-19 0)
(9.2352e-21 9.34036e-21 2.90164e-38)
(-2.69436e-21 -2.00889e-21 -7.75674e-38)
(4.02026e-22 -3.64969e-22 -1.00529e-37)
(3.78786e-21 -2.34117e-19 -3.20667e-37)
(-5.76483e-21 -2.8999e-21 0)
(3.12078e-22 -6.15434e-22 0)
(-6.58302e-21 8.24743e-21 -3.535e-39)
(-1.31548e-21 -7.24034e-21 1.93341e-37)
(-7.31366e-21 -4.03906e-21 -2.56623e-39)
(-3.35124e-21 -3.3407e-21 -8.5266e-38)
(-1.30304e-19 1.12947e-19 2.05289e-37)
(6.28834e-20 -2.28353e-19 3.67054e-38)
(-2.20198e-20 -1.00946e-19 -9.72844e-40)
(-1.15463e-21 -4.31359e-21 1.03052e-37)
(1.69654e-20 2.90275e-20 0)
(-9.22332e-21 -3.45207e-21 0)
(-4.16703e-19 -1.01841e-20 1.9333e-38)
(-1.3982e-19 -6.84281e-20 8.76873e-37)
(-7.41712e-20 -1.49542e-20 0)
(-1.05828e-20 -5.34037e-21 7.9321e-38)
(2.18818e-20 -2.18083e-19 9.88761e-38)
(-7.7581e-22 -4.88935e-21 -8.12877e-39)
(-1.35143e-21 -1.07951e-20 -8.57577e-38)
(2.15758e-22 -6.24762e-22 0)
(-1.4997e-20 3.85638e-20 4.54376e-38)
(-3.04081e-21 -1.73893e-20 -7.15415e-38)
(3.13546e-20 1.74945e-19 1.72771e-38)
(6.03654e-21 -6.73544e-20 -1.98769e-37)
(1.24542e-20 -1.08927e-19 -7.36618e-38)
(-2.36101e-19 -5.15289e-20 -5.77201e-37)
(3.94103e-21 -1.50019e-19 -1.91281e-37)
(-2.85536e-21 -6.65975e-21 2.2518e-38)
(9.74774e-21 -1.34911e-19 1.15457e-37)
(3.25533e-20 -1.33902e-19 2.05787e-37)
(-1.19894e-20 -3.92328e-21 -7.86705e-38)
(-1.25413e-20 -6.65674e-21 2.95579e-40)
(-1.859e-19 1.13817e-19 2.54179e-37)
(3.08389e-20 7.91185e-20 2.06802e-38)
(-1.11819e-20 -1.1745e-20 -7.16513e-38)
(2.27881e-20 -4.73691e-20 -2.40544e-37)
(6.26324e-21 2.97027e-20 0)
(1.12941e-20 4.3363e-20 -2.49074e-37)
(9.49504e-21 1.00348e-19 8.29789e-38)
(1.13987e-20 7.13908e-20 -5.71273e-39)
(8.27298e-21 -2.45035e-20 0)
(5.29496e-21 -1.87367e-20 2.88466e-37)
(3.52055e-21 -8.09647e-20 -1.84309e-37)
(1.24394e-20 -7.84341e-20 -5.21983e-40)
(-4.99722e-21 1.13629e-20 7.38307e-41)
(1.07301e-20 -4.88281e-20 -3.60844e-37)
(-6.27398e-22 1.774e-21 8.66564e-38)
(-3.30894e-21 8.07559e-21 6.75724e-38)
(5.19057e-21 1.47824e-20 -1.31848e-40)
(2.56433e-21 1.6894e-20 1.32266e-40)
(-4.33415e-21 -2.22302e-20 6.57805e-38)
(-7.92855e-21 1.09233e-20 -7.30453e-41)
(5.72888e-21 4.67536e-20 -1.41493e-37)
(-4.53018e-21 1.6011e-20 -1.01284e-37)
(-3.42183e-21 1.28369e-20 0)
(-8.44362e-23 1.71857e-20 0)
(-1.46893e-21 8.3564e-21 0)
(-2.15421e-21 1.84626e-20 -1.13355e-40)
(6.34332e-21 -3.37564e-20 0)
(-1.28345e-21 4.84976e-21 6.76319e-40)
(-7.4708e-22 5.5872e-21 0)
(-3.45811e-22 6.49702e-21 9.06683e-38)
(-2.34e-22 1.19084e-20 -1.40927e-37)
(-8.34127e-22 -8.44952e-20 3.09938e-37)
(-5.94678e-22 -1.95511e-21 -7.61167e-38)
(3.92101e-21 -6.91328e-21 0)
(-2.57674e-22 -3.48935e-22 -4.68207e-38)
(1.17899e-21 -7.2656e-21 -2.98355e-38)
(-6.18088e-22 -7.00911e-21 0)
(6.73929e-21 -5.12496e-20 1.92416e-37)
(4.06771e-21 6.25828e-20 7.68052e-38)
(-6.77072e-22 3.71924e-21 -4.3853e-38)
(-9.73886e-21 7.04229e-20 1.62933e-37)
(2.59799e-22 7.05195e-21 1.12759e-37)
(6.26238e-21 1.67746e-20 1.85494e-37)
(-1.2311e-21 1.06842e-20 -1.13397e-37)
(-2.61541e-21 1.63858e-20 1.01406e-37)
(-9.74639e-21 3.78266e-21 -1.65136e-37)
(-1.26847e-20 -4.35456e-21 -7.74051e-38)
(-1.16394e-20 -8.27352e-21 7.34789e-38)
(-9.96938e-21 -4.85847e-21 0)
(2.5504e-21 -1.81697e-20 -3.01277e-38)
(-6.76241e-21 -9.1134e-21 2.12307e-39)
(-2.50499e-21 -4.85391e-21 7.46848e-38)
(3.55014e-21 -9.53781e-21 -7.40251e-38)
(7.77151e-21 -2.00049e-20 4.83762e-39)
(1.76803e-20 -1.44514e-20 0)
(2.894e-20 -1.91148e-21 1.12495e-37)
(5.18102e-21 -2.44093e-20 -3.50922e-38)
(1.10093e-20 -5.49527e-21 0)
(4.51377e-20 2.73376e-21 3.10957e-39)
(3.81803e-20 -5.43388e-21 1.02608e-38)
(2.00656e-20 -8.53484e-21 -7.26655e-38)
(3.23417e-20 2.86949e-21 2.87669e-38)
(3.10278e-20 -5.50601e-21 7.4312e-38)
(6.30706e-20 1.02301e-20 2.51168e-38)
(2.43344e-20 -1.23214e-20 -3.83882e-38)
(4.27994e-20 -5.38644e-21 0)
(5.6956e-20 -5.84319e-21 0)
(3.17354e-20 1.552e-20 4.53997e-39)
(7.05067e-20 -4.03043e-22 1.38522e-39)
(-2.49157e-21 -2.21646e-20 0)
(6.9162e-20 2.7287e-20 0)
(-7.79108e-22 -1.34136e-20 0)
(8.97649e-20 3.21363e-20 3.41836e-38)
(5.16517e-20 3.37133e-20 -5.38004e-38)
(1.0613e-19 -4.45446e-20 1.12585e-37)
(5.535e-20 -2.29028e-19 6.82308e-38)
(8.6187e-20 -6.44717e-21 0)
(9.94212e-20 5.51292e-21 0)
(-8.93256e-21 -8.60447e-22 0)
(-2.02912e-24 -7.97788e-21 2.31762e-38)
(1.1247e-19 -9.52355e-21 6.18794e-38)
(1.20458e-19 8.83648e-20 0)
(1.21467e-19 1.24349e-20 -5.88917e-38)
(1.2194e-19 -9.20631e-20 -1.36766e-37)
(1.29841e-19 -1.06238e-20 -6.22625e-38)
(3.28227e-20 1.8602e-19 8.49081e-38)
(1.32041e-19 2.13592e-20 6.22639e-38)
(-1.11728e-20 1.4326e-19 -3.3537e-37)
(1.28934e-19 -1.39225e-20 1.17045e-40)
(-1.12581e-21 -1.76147e-21 2.52133e-39)
(-3.73187e-21 2.51976e-19 -1.23032e-37)
(6.75773e-20 1.39643e-19 -8.60587e-38)
(-2.63466e-21 -8.06135e-21 8.83789e-38)
(1.17254e-19 2.86961e-20 0)
(3.33848e-20 -1.47277e-20 -4.51073e-38)
(2.80275e-20 2.43406e-19 -9.11901e-39)
(-4.71181e-19 -4.9139e-20 9.74762e-38)
(9.91593e-20 -1.54617e-20 0)
(7.0428e-20 3.646e-20 0)
(3.55798e-21 1.39346e-20 1.68288e-37)
(1.26707e-21 5.44445e-21 0)
(-1.60939e-20 -2.48298e-19 -1.32814e-37)
(3.35684e-20 -1.22923e-19 -3.18073e-42)
(-3.90133e-21 -1.61491e-21 1.86382e-39)
(9.80296e-22 1.08313e-20 0)
(-1.80366e-21 8.70585e-22 6.58979e-38)
(-4.55735e-20 2.27122e-19 -2.0836e-37)
(-9.66289e-21 -1.67426e-19 -8.49239e-38)
(3.27167e-21 4.87952e-21 2.609e-37)
(-2.75151e-19 -7.71548e-20 0)
(-3.21006e-21 -1.12252e-21 0)
(-6.81293e-20 -1.16469e-19 8.73227e-38)
(-1.23534e-19 -1.42211e-19 1.04593e-39)
(-2.11821e-19 -8.48383e-20 -6.09711e-40)
(-6.88898e-21 -5.80546e-22 7.30536e-38)
(-1.13734e-20 3.76261e-21 -1.53244e-37)
(8.72109e-20 -4.48248e-20 -1.15208e-37)
(8.88277e-21 3.11938e-21 -4.18331e-37)
(5.7415e-21 -6.39891e-21 0)
(4.66181e-20 -1.23908e-19 1.8604e-38)
(3.91606e-20 -7.5655e-20 2.41084e-37)
(-2.14091e-19 -1.13936e-19 5.71405e-37)
(-5.74642e-20 1.72019e-19 1.6876e-37)
(-1.43636e-19 2.88048e-20 2.1161e-38)
(-2.57017e-19 3.08424e-20 -1.14064e-36)
(-1.99548e-19 -4.43865e-19 1.44108e-36)
(6.14966e-21 -2.044e-20 -4.65851e-40)
(1.07925e-19 -7.4577e-20 1.10348e-37)
(1.16372e-19 -1.08212e-19 1.71743e-37)
(2.42781e-21 -2.019e-20 9.29714e-39)
(-6.77056e-20 -1.34245e-19 -1.58711e-36)
(3.11687e-20 -1.80988e-19 5.79842e-38)
(-5.73246e-21 1.4662e-20 9.37956e-38)
(-5.66062e-21 -1.66936e-21 1.36426e-39)
(8.08032e-20 -2.50786e-20 0)
(-3.16813e-19 8.32657e-21 2.08039e-38)
(1.04936e-19 -1.40026e-19 1.0067e-37)
(6.50701e-20 -1.6271e-19 0)
(2.6673e-21 7.6774e-22 -2.0679e-37)
(-1.23157e-19 -1.81741e-19 0)
(8.08541e-22 -8.38162e-22 0)
(-2.87473e-19 5.07559e-20 -2.57746e-37)
(-2.4011e-21 -3.28359e-21 -7.55049e-38)
(2.87323e-20 -3.64743e-20 8.44664e-40)
(-6.95289e-20 -1.92045e-19 7.21199e-37)
(2.91399e-20 -8.70944e-20 -2.23843e-37)
(-2.27385e-19 -1.54814e-20 -7.27519e-38)
(-1.11179e-21 2.1834e-21 7.65659e-40)
(-6.70714e-22 2.76703e-22 5.43245e-38)
(-3.45766e-19 1.35257e-20 3.34307e-37)
(-1.78455e-21 -1.5927e-21 0)
(-9.32204e-20 -2.03867e-19 -3.03303e-37)
(-8.05608e-21 -1.89104e-20 4.17422e-38)
(-8.60146e-19 2.92963e-19 -2.33242e-37)
(6.91169e-22 -8.59057e-23 3.94667e-38)
(1.22683e-19 -6.78207e-20 -1.98224e-37)
(-2.58064e-21 1.71116e-20 1.12795e-40)
(-1.1483e-20 5.5603e-22 7.50386e-38)
(-3.50765e-21 -4.87342e-21 6.8728e-38)
(7.20691e-23 -1.24429e-22 6.54952e-38)
(4.04158e-20 -2.23286e-19 -6.81367e-38)
(-6.47435e-21 -1.70367e-20 -8.30795e-38)
(3.6341e-22 -2.10518e-22 -3.77979e-38)
(-7.1462e-19 -7.68042e-19 0)
(-3.10087e-21 -2.37678e-19 -2.12267e-39)
(-3.45013e-20 -2.44818e-19 3.01021e-37)
(9.47628e-20 -1.12329e-19 -4.26272e-38)
(3.34735e-22 -1.33827e-21 -4.1667e-38)
(-4.61209e-22 6.2146e-22 -8.86988e-38)
(3.1398e-20 -1.27021e-20 -1.69722e-37)
(6.39037e-22 -1.92483e-22 -8.01703e-38)
(1.41093e-21 1.45833e-20 0)
(-9.70649e-21 1.28786e-21 2.25578e-39)
(5.2479e-22 -3.33305e-22 4.29919e-38)
(1.57459e-20 -1.68045e-20 0)
(1.81968e-20 -8.24074e-21 2.17341e-37)
(-7.93667e-21 3.61722e-21 6.95915e-38)
(-1.53176e-19 5.85384e-19 2.1317e-36)
(4.26001e-23 -1.54467e-23 0)
(-4.31933e-20 2.4213e-19 -1.15108e-36)
(1.58157e-23 -1.47039e-23 3.44834e-38)
(-5.84886e-19 7.52826e-19 0)
(1.88662e-22 -3.55266e-22 5.08154e-38)
(-8.71207e-19 -8.51824e-20 5.51147e-38)
(3.43588e-22 6.72115e-23 -2.48677e-38)
(-2.55978e-19 5.01444e-19 0)
(-5.20078e-19 -6.27355e-19 3.42183e-38)
(-2.49729e-23 -6.34864e-22 -8.50932e-38)
(2.24959e-22 -1.41974e-21 0)
(6.11324e-20 6.86932e-20 0)
(-6.44213e-20 -1.17021e-19 0)
(-5.5105e-22 -1.50214e-21 -4.65202e-38)
(1.48396e-22 -6.68371e-22 0)
(-4.33644e-20 9.47713e-21 2.52296e-36)
(-7.64804e-20 2.11241e-19 -4.25503e-38)
(3.0625e-20 4.85058e-20 0)
(-1.93301e-20 8.66639e-20 1.63278e-37)
(3.41866e-22 -1.20607e-21 0)
(-2.73853e-19 -5.08336e-20 6.44177e-37)
(-3.70887e-21 -1.12689e-20 -1.4773e-37)
(-7.44515e-21 1.27646e-19 1.41696e-36)
(-1.44126e-21 -2.84081e-21 -2.58401e-38)
(7.20729e-21 1.1532e-19 0)
(4.71385e-20 1.6731e-19 -1.76932e-38)
(4.38266e-20 1.11617e-19 0)
(1.0946e-19 1.24181e-19 2.09265e-38)
(9.32119e-20 5.37465e-20 -1.71577e-38)
(8.67983e-20 1.58164e-19 0)
(1.093e-19 8.98296e-20 3.66375e-39)
(5.83246e-22 -4.95892e-22 5.21192e-38)
(8.4326e-21 1.70846e-20 0)
(2.3363e-21 -8.05734e-21 0)
(9.05987e-21 -2.18667e-20 1.57724e-39)
(2.0549e-20 -7.56111e-21 0)
(7.94494e-22 -1.24946e-20 2.9011e-38)
(-1.06107e-22 -1.33546e-20 -3.49225e-38)
(-2.5658e-21 -2.04147e-20 2.8991e-38)
(-9.74689e-21 -1.1208e-20 7.49321e-38)
(-1.02883e-20 -1.54762e-20 0)
(-4.33167e-21 -4.52053e-21 1.819e-37)
(-4.09547e-21 -1.6392e-20 0)
(-1.63998e-19 1.07296e-19 5.90054e-37)
(-7.18022e-19 7.59319e-19 0)
(1.7639e-22 -1.8626e-22 0)
(-6.09653e-19 -7.92961e-19 0)
(-1.0351e-22 -4.20952e-22 3.79037e-38)
(-8.87677e-19 -3.59987e-21 2.76602e-37)
(-8.03645e-19 -5.08012e-19 0)
(-5.42843e-20 -2.61416e-19 0)
(-2.36614e-23 -1.41693e-22 -6.95729e-38)
(-1.67124e-19 -6.01297e-19 0)
(8.06315e-23 -1.03339e-22 8.98222e-38)
(-7.74227e-19 3.86292e-19 1.76054e-37)
(5.30179e-22 -1.02526e-21 -4.07477e-38)
(6.78797e-22 -6.1942e-22 0)
(-1.02771e-21 -1.88682e-21 -4.50416e-38)
(7.89738e-22 -6.57557e-22 0)
(-6.09008e-19 5.44662e-19 0)
(-2.86491e-20 -9.08657e-20 0)
(1.69313e-22 -9.03896e-22 -2.29208e-39)
(5.61727e-22 -4.41017e-22 -4.57168e-38)
(-8.19626e-19 4.62681e-19 -1.74753e-37)
(8.65796e-22 -8.67874e-22 -4.07439e-38)
(7.29879e-22 -2.97307e-22 -5.72601e-38)
(-4.19489e-19 -1.78945e-19 4.52177e-37)
(-1.29278e-20 2.83456e-20 -1.12169e-36)
(-4.6289e-19 -9.25914e-19 -1.03493e-36)
(-1.44355e-19 1.54782e-19 2.43056e-37)
(-7.03602e-22 7.05576e-20 -5.17424e-37)
(4.65494e-21 1.24427e-19 1.31818e-37)
(2.23362e-21 6.19475e-20 -9.51528e-38)
(-1.01142e-19 3.08498e-19 2.44963e-36)
(8.93608e-23 8.60875e-23 -5.13803e-38)
(1.10141e-19 1.0399e-19 -2.25022e-38)
(2.87819e-20 1.19554e-19 6.43856e-39)
(2.6322e-22 -8.21663e-22 -9.71867e-38)
(1.12771e-19 5.1153e-20 -2.49835e-38)
(3.22082e-21 3.07822e-21 0)
(3.01957e-21 -2.62484e-22 3.57351e-38)
(-1.92587e-21 -2.60194e-21 4.71507e-38)
(1.23462e-21 -2.57478e-21 0)
(-2.42345e-22 -1.40902e-21 4.69481e-38)
(1.83655e-20 -1.5038e-20 0)
(9.3915e-23 -6.34844e-21 7.52673e-40)
(-6.44843e-21 -1.61957e-20 -3.43053e-39)
(-8.65175e-21 -1.83715e-20 4.05113e-38)
(-6.64372e-21 -5.54062e-21 -1.3047e-37)
(-1.063e-20 -1.48264e-20 2.4497e-39)
(-7.7465e-21 -7.50344e-21 4.68101e-38)
(-2.65987e-21 -1.19709e-20 5.27295e-38)
(-9.74881e-21 -8.01535e-21 -4.85008e-38)
(-2.46821e-21 -2.52448e-20 -1.69943e-38)
(4.14354e-20 2.10776e-19 0)
(-8.76394e-19 -2.93228e-19 -1.20381e-37)
(3.93375e-20 2.45441e-19 9.40855e-38)
(-2.94747e-22 -1.40855e-21 0)
(1.01221e-21 -2.62815e-20 3.79557e-38)
(4.15732e-20 7.00518e-20 0)
(4.91954e-20 4.73521e-20 2.62869e-38)
(-8.71598e-23 -8.33531e-22 3.85685e-38)
(3.96046e-22 -7.92236e-22 2.5157e-39)
(6.61127e-23 -8.1483e-22 -2.93686e-39)
(3.10192e-23 -5.44976e-22 -8.53812e-38)
(-7.84664e-20 -2.87136e-19 0)
(-3.22167e-19 -7.47952e-19 3.11437e-37)
(-3.41742e-22 -1.32232e-21 1.2229e-37)
)
;

boundaryField
{
    back
    {
        type            empty;
    }
    front
    {
        type            empty;
    }
    left
    {
        type            noSlip;
    }
    top
    {
        type            uniformFixedValue;
        uniformValue    
        {
            type            scale;
            scale           
            {
                type            squarePulse;
                start           0.3;
                duration        0.3;
            }
            xScale          
            {
                type            constant;
                value           1;
            }
            value           
            {
                type            constant;
                value           (0 -0.7 0);
            }
        }
        value           uniform (0 -0 0);
    }
    right
    {
        type            noSlip;
    }
    bottom
    {
        type            zeroGradient;
    }
}


// ************************************************************************* //
