/*--------------------------------*- C++ -*----------------------------------*\
  =========                 |
  \\      /  F ield         | OpenFOAM: The Open Source CFD Toolbox
   \\    /   O peration     | Website:  https://openfoam.org
    \\  /    A nd           | Version:  9
     \\/     M anipulation  |
\*---------------------------------------------------------------------------*/
FoamFile
{
    format      ascii;
    class       surfaceScalarField;
    location    "1";
    object      phi;
}
// * * * * * * * * * * * * * * * * * * * * * * * * * * * * * * * * * * * * * //

dimensions      [0 3 -1 0 0 0 0];

internalField   nonuniform List<scalar> 
1363
(
-5.03375e-07
3.23314e-07
1.80061e-07
-3.30302e-07
2.43912e-07
8.63899e-08
7.09257e-07
-5.67887e-07
-1.4137e-07
-1.55241e-07
4.63409e-07
-3.08168e-07
6.57441e-07
5.18161e-08
3.40509e-07
-4.88258e-09
-3.35626e-07
-1.33139e-07
1.33139e-07
3.16968e-07
2.35405e-08
-2.94518e-07
3.03422e-07
-8.90406e-09
1.46e-08
-3.09118e-07
-2.8089e-07
1.46367e-07
1.34523e-07
5.10925e-07
-6.46482e-07
1.35557e-07
3.4057e-07
-4.95811e-07
-5.55923e-07
5.04557e-07
5.13656e-08
9.86382e-08
4.12287e-07
-3.19835e-07
-1.04672e-08
2.93341e-07
2.28957e-07
-5.22298e-07
-2.5409e-07
-2.49285e-07
-7.05988e-07
4.46728e-08
6.61315e-07
-1.51345e-07
1.51345e-07
3.33452e-07
-4.01104e-08
-2.49028e-07
-3.97454e-07
-1.48445e-07
-2.0811e-08
1.69256e-07
6.84831e-08
-2.49004e-08
-4.35827e-08
-3.26521e-07
4.56313e-08
1.60592e-07
-9.2109e-08
5.71339e-07
-5.70459e-07
-8.79609e-10
-2.21538e-07
7.30928e-08
-1.48913e-08
-1.09956e-07
1.24847e-07
-2.08228e-08
-3.5476e-07
3.75582e-07
-1.39816e-07
-6.01609e-08
1.99977e-07
5.16395e-09
5.66175e-07
-7.84918e-08
6.36005e-08
-5.1047e-07
1.03005e-07
4.07465e-07
5.81153e-07
-6.35083e-07
5.39301e-08
1.83681e-08
1.20557e-07
-1.38926e-07
-4.83511e-07
1.98182e-07
2.85329e-07
2.9848e-07
-1.27681e-07
-1.70799e-07
-2.54682e-07
-2.28829e-07
-4.55669e-08
2.06665e-08
3.23254e-08
-4.82034e-07
4.49709e-07
4.35187e-07
-4.16578e-07
-1.86089e-08
1.12408e-07
-1.57974e-07
-3.24309e-08
-1.00708e-07
6.40508e-08
6.90885e-08
-3.47229e-07
-8.35479e-08
4.30777e-07
1.32452e-07
3.18445e-07
-4.50898e-07
2.87964e-08
-5.39266e-07
-3.52241e-07
3.84566e-07
-3.12164e-07
-2.4376e-07
-5.09311e-07
-1.96676e-07
5.06899e-08
-7.15009e-08
6.99236e-08
-5.15555e-08
8.94813e-08
-6.76185e-08
-2.18628e-08
4.10992e-07
-3.96392e-07
-2.77358e-07
3.10617e-07
-3.32587e-08
1.94178e-07
-1.94178e-07
-6.73513e-10
4.11666e-07
1.35212e-07
5.8966e-08
6.59291e-07
-4.52758e-08
-6.14016e-07
-2.08577e-07
1.87755e-07
5.95535e-07
-6.04623e-07
9.08874e-09
-1.72389e-07
2.75394e-07
-8.64949e-08
4.09809e-07
1.96491e-07
1.01989e-07
3.88952e-07
-3.18765e-07
-7.01862e-08
2.50751e-08
4.24617e-07
2.27818e-07
-6.52435e-07
-1.63861e-07
-1.13497e-07
2.80504e-07
-2.04371e-07
-7.6133e-08
2.41342e-07
2.56996e-09
-2.26355e-07
2.11003e-07
1.53524e-08
1.15227e-07
-1.15227e-07
-2.48145e-08
-3.29945e-07
5.58896e-10
8.89224e-08
1.1377e-07
-2.65114e-07
-9.81802e-09
1.61163e-07
-2.34706e-08
-1.61011e-07
2.11956e-08
-3.64282e-07
4.44468e-08
-1.12574e-08
8.6221e-08
-7.49636e-08
1.00431e-07
7.15346e-08
1.12184e-07
-1.83718e-07
2.46699e-08
-3.4829e-07
2.95247e-08
-6.88804e-07
6.55021e-07
3.37829e-08
4.15783e-07
2.43509e-07
3.30364e-07
5.7698e-08
-3.88062e-07
4.43119e-09
5.00126e-07
-1.36501e-07
2.08036e-07
4.02274e-07
3.29127e-08
2.75825e-07
3.76677e-08
-3.13493e-07
-4.17111e-07
4.16438e-07
4.25182e-07
-1.14565e-07
1.41254e-07
-1.74512e-07
1.49568e-07
-2.7057e-07
1.21001e-07
-5.09323e-08
-3.65645e-07
-3.6327e-08
3.66691e-07
-1.85021e-07
1.73764e-07
-1.20861e-08
2.15348e-07
-1.14332e-09
-2.14205e-07
3.91005e-08
-4.56212e-07
-3.76859e-07
2.48074e-07
-2.19293e-07
3.60547e-07
4.71706e-09
1.83037e-07
1.74831e-07
-5.2206e-07
-4.8664e-08
-3.10862e-07
3.59526e-07
2.73649e-07
1.50968e-07
3.13619e-07
-8.58008e-08
-5.3668e-08
-1.10193e-07
-1.90538e-07
7.70412e-08
-2.36652e-07
-9.59742e-08
-1.30381e-07
-1.92252e-07
3.38619e-07
2.75825e-07
7.88667e-07
-7.33953e-07
-5.47146e-08
3.86334e-07
7.70756e-08
-7.887e-08
6.67839e-08
-3.73572e-08
-4.03551e-07
4.40908e-07
-6.67839e-08
7.15009e-08
1.28256e-07
1.03654e-08
-1.38621e-07
1.12408e-07
1.0476e-07
-9.0557e-08
-9.14006e-08
-6.96105e-08
5.06899e-08
-2.36466e-07
1.57974e-07
2.36466e-07
-2.47745e-07
1.12789e-08
6.99236e-08
4.11198e-07
-3.66526e-07
-4.11198e-07
3.79957e-07
3.12412e-08
3.66526e-07
-4.808e-08
-5.39188e-07
5.67984e-07
5.39188e-07
-2.65538e-07
-3.79957e-07
2.96409e-07
-8.0289e-08
2.6621e-08
4.808e-08
2.65538e-07
-1.63917e-07
-2.6621e-08
1.63917e-07
-5.16158e-07
-5.67984e-07
5.16158e-07
5.18259e-08
-2.96409e-07
2.47745e-07
5.52015e-07
3.04726e-08
-1.21873e-07
3.05218e-07
1.17505e-08
8.4267e-08
2.44888e-08
-2.2886e-07
6.05519e-08
1.50451e-07
6.71286e-08
-2.64121e-07
1.96993e-07
-2.27753e-07
-4.61051e-07
3.97944e-08
2.65423e-07
2.90637e-07
-4.23376e-07
1.32739e-07
6.68546e-07
-6.30878e-07
-1.83098e-07
2.02243e-07
-1.91448e-08
-6.19538e-07
-1.55449e-08
1.46606e-08
-2.69343e-07
-2.74111e-07
-7.41793e-08
-7.44038e-09
5.99774e-08
-5.25371e-08
-7.79228e-07
2.63338e-07
-3.41862e-07
6.77514e-08
2.55126e-07
-2.40466e-07
-4.87085e-07
1.78916e-07
3.2456e-07
2.07466e-08
-3.45307e-07
3.2883e-07
-3.81931e-08
-2.77882e-08
-6.64125e-07
6.91913e-07
7.82365e-08
1.37111e-07
3.30015e-07
-8.1941e-08
1.19914e-07
-5.36699e-07
-3.88298e-07
4.61608e-07
1.8063e-08
-3.85005e-08
9.96634e-08
5.55358e-07
-3.73198e-07
2.74748e-07
9.84505e-08
-2.61156e-08
-2.44454e-07
-1.53027e-07
-2.20171e-07
4.84139e-07
-5.89572e-08
-4.23411e-07
3.09156e-07
1.14255e-07
-1.89717e-07
6.61924e-09
-1.68063e-07
5.81074e-08
2.6531e-07
-1.48663e-07
-2.78904e-07
1.84698e-07
-1.29885e-07
-6.20472e-07
7.50357e-07
-3.62471e-07
-1.98171e-08
3.82288e-07
5.21501e-07
-7.49254e-07
4.38619e-07
-1.29463e-07
7.58306e-07
-8.07382e-07
4.90757e-08
3.39243e-07
9.93757e-08
-2.89087e-07
2.50587e-07
7.79502e-08
1.22026e-07
7.68059e-09
-3.70151e-07
5.18213e-07
-1.77643e-07
3.36691e-07
-3.37952e-07
1.26083e-09
-4.59291e-07
-2.27438e-08
-6.93838e-08
6.93838e-08
-7.887e-08
2.06821e-07
3.11393e-07
-6.26046e-08
7.02852e-08
3.48871e-07
1.53165e-08
3.47043e-07
-1.56449e-07
-6.54455e-07
6.34638e-07
4.30238e-08
-3.34599e-08
-2.39374e-07
4.46195e-07
-2.07447e-07
4.13555e-07
-2.06107e-07
-7.82443e-07
7.91532e-07
-3.2132e-08
-2.1262e-07
4.88392e-07
-2.75772e-07
-2.33107e-07
7.54608e-07
7.19769e-07
-4.7992e-07
-2.39849e-07
-3.09626e-07
-2.83265e-08
-2.81372e-07
-2.82536e-08
-3.29622e-07
4.81529e-07
-1.51906e-07
3.0165e-07
-5.14271e-07
-1.05607e-07
4.4485e-07
4.62695e-07
-2.45523e-07
-2.17173e-07
7.53299e-08
-7.53299e-08
2.67048e-07
-2.67048e-07
6.57283e-08
-8.48171e-07
-3.50416e-07
4.73265e-07
-1.22848e-07
-4.00211e-08
1.10305e-07
-7.02843e-08
1.15753e-07
6.89453e-08
-6.07255e-07
-4.72006e-08
2.36809e-07
-2.36809e-07
-6.95909e-08
6.95909e-08
1.5877e-07
2.04979e-07
-4.44353e-07
6.44083e-07
7.56861e-08
1.31112e-07
3.79291e-08
-3.00701e-07
1.93287e-08
-1.90396e-07
1.20629e-07
2.09386e-07
-1.03989e-07
-3.72445e-07
4.76434e-07
3.07703e-07
-2.09253e-07
-2.4634e-07
3.60594e-07
-3.08711e-08
-3.69276e-07
-9.21401e-08
4.61416e-07
1.86923e-07
9.67556e-09
8.24034e-07
-2.29514e-07
5.76556e-07
-5.24486e-08
-7.54933e-07
-2.84461e-07
3.83837e-07
2.00672e-07
-4.78051e-07
7.16255e-08
3.73224e-07
-1.43811e-07
-3.79291e-07
5.23102e-07
6.13637e-08
-4.81711e-07
3.29805e-07
3.5586e-07
-4.9967e-07
-7.94241e-07
-3.01896e-07
3.73521e-07
-4.16746e-07
3.24606e-07
5.25783e-08
3.99573e-07
-4.52151e-07
2.37779e-07
3.79146e-07
8.22699e-08
5.09284e-07
-1.30138e-07
-7.51817e-07
8.27577e-07
-7.57599e-08
2.20195e-07
3.2136e-08
7.59396e-07
-6.40714e-07
-3.25482e-07
6.81341e-07
-3.78658e-07
-1.48795e-08
3.93537e-07
-5.62813e-07
6.11889e-07
-8.65596e-10
5.15555e-08
1.36384e-07
-1.58268e-08
1.47921e-07
-1.48786e-07
-3.72182e-07
-6.47515e-09
3.83246e-07
-6.64355e-07
2.81109e-07
-8.98071e-07
1.18843e-07
-2.86594e-08
4.00884e-07
-3.72224e-07
-4.49868e-07
4.21209e-07
3.39242e-07
3.42793e-08
3.91821e-07
5.79752e-07
-1.96506e-07
-1.15872e-07
3.36067e-07
-7.13275e-07
3.87793e-07
8.64931e-10
3.376e-07
-3.38465e-07
-2.85746e-07
2.70866e-07
-5.5273e-07
6.57966e-07
-1.05236e-07
3.29659e-07
-8.70796e-07
5.41136e-07
-5.68412e-07
-2.18597e-07
-6.52198e-07
-7.45553e-07
8.64396e-07
7.61378e-07
-5.70108e-07
-1.91269e-07
2.87013e-08
-9.39198e-07
3.46438e-07
5.92761e-07
-6.0932e-07
6.63055e-07
-5.37352e-08
4.39975e-07
3.21403e-07
3.97507e-07
7.89267e-08
-4.57751e-07
5.17096e-07
-5.93448e-08
1.45171e-07
-1.45171e-07
-2.65114e-07
-3.13493e-07
-1.00708e-07
8.17708e-08
-8.17708e-08
-1.17767e-07
1.17767e-07
1.0476e-07
4.14911e-07
-4.27322e-07
1.24115e-08
-4.11821e-07
4.11821e-07
-7.88322e-08
7.88322e-08
1.35212e-07
-2.54113e-07
2.54113e-07
-1.42389e-07
1.42389e-07
-9.81802e-09
3.54919e-07
-3.54919e-07
6.40508e-08
-9.0557e-08
1.36779e-07
-2.5265e-07
4.09125e-07
3.25943e-08
-4.41719e-07
2.10107e-07
-2.10107e-07
4.16733e-07
-4.15868e-07
-4.49737e-07
4.31128e-07
1.19272e-07
-1.19272e-07
-5.0001e-07
-1.64346e-07
4.29905e-07
-4.81111e-07
5.12056e-08
-4.32156e-08
-4.29399e-07
4.72615e-07
-3.18719e-07
-6.20479e-07
-4.41323e-07
3.98108e-07
-5.81484e-07
8.14748e-08
-1.5165e-08
-5.94155e-07
4.91253e-07
-7.7346e-07
2.82206e-07
-6.14763e-08
8.0289e-08
7.71672e-07
-3.31697e-07
2.88611e-07
-1.61371e-07
-1.2724e-07
-5.54769e-08
6.42961e-07
-4.42533e-07
-2.00428e-07
-1.00367e-06
2.58121e-07
4.9362e-07
-9.05385e-07
1.8956e-07
7.15825e-07
-3.48262e-08
-5.02952e-08
4.34006e-07
-1.00242e-06
6.44782e-07
-8.63379e-07
-1.05892e-08
8.04316e-07
-7.13483e-07
-9.08334e-08
-3.29139e-07
-4.4432e-07
-3.6537e-07
-7.59535e-08
-8.00676e-07
2.30568e-07
1.40371e-08
3.4669e-07
-6.70129e-07
3.23439e-07
3.07982e-07
-1.93707e-08
9.25395e-07
-5.78957e-07
3.50052e-07
1.48331e-07
-4.98383e-07
-2.25919e-07
6.95903e-07
-4.69985e-07
2.81732e-08
8.75972e-07
-2.12917e-07
-4.11676e-07
-3.04189e-07
7.15865e-07
2.17088e-07
-5.45268e-07
3.28181e-07
5.94328e-07
-7.72323e-08
1.02025e-07
-2.63396e-07
9.94215e-08
4.95731e-07
-6.46029e-08
-6.68092e-07
4.67665e-07
-5.69668e-07
-6.47264e-07
4.57655e-07
-4.29482e-07
-3.57636e-07
-5.90633e-08
5.57253e-07
4.27388e-07
-6.53307e-07
-6.11116e-07
2.11912e-07
4.21648e-07
9.81026e-08
-7.62511e-07
6.64408e-07
-7.3074e-08
4.83161e-07
-4.10087e-07
6.25822e-07
-4.08735e-07
4.39778e-07
-4.74604e-07
2.84227e-07
-1.95216e-07
5.79163e-07
-5.19939e-07
6.01414e-07
-8.995e-09
-4.39561e-07
4.40254e-07
5.42673e-07
-8.46862e-07
-4.32321e-07
5.80652e-07
-9.69016e-07
3.90059e-07
-7.54654e-07
5.41737e-07
4.35933e-07
2.17215e-08
4.4997e-07
-4.37703e-07
-1.02544e-07
5.40247e-07
-3.76361e-07
6.5747e-07
-5.02306e-07
-3.80617e-07
-1.17766e-07
-5.4818e-07
4.70947e-07
3.48574e-07
3.11917e-08
-4.60591e-07
-1.75491e-07
-4.11763e-07
-5.22745e-08
-6.239e-09
6.93737e-07
2.38994e-07
-9.32731e-07
6.40891e-07
-5.42788e-07
5.65585e-07
-2.81357e-07
9.05649e-07
5.23517e-07
1.92348e-07
-8.87493e-08
1.38257e-07
-4.95075e-08
-9.29101e-07
5.71465e-07
6.2528e-08
-1.07926e-07
3.76795e-07
-8.51261e-07
2.03997e-07
-7.03883e-08
7.34796e-07
4.4293e-07
-1.74405e-07
4.97843e-07
-2.53974e-07
-6.76517e-09
2.60739e-07
4.43412e-07
-4.54002e-07
1.69904e-07
-6.09465e-07
-1.31492e-07
2.39838e-08
1.07508e-07
-9.49883e-08
-4.28379e-07
2.25053e-07
4.45569e-07
5.17977e-07
-4.31587e-07
-4.03143e-09
-8.35261e-07
7.76198e-07
-9.30538e-07
3.6087e-07
1.93792e-07
-2.58474e-07
-2.81154e-07
5.17842e-07
-2.36689e-07
2.81672e-08
-1.52903e-07
-5.97458e-07
2.13708e-07
3.8375e-07
-3.59073e-07
4.90391e-07
-6.92604e-07
2.02213e-07
-8.31237e-07
4.19474e-07
2.9039e-07
3.67081e-07
-3.0415e-07
6.42864e-07
-1.71917e-07
4.67403e-07
-4.86773e-07
-2.89499e-07
2.98599e-07
4.79777e-07
5.88988e-07
-7.53179e-07
1.42063e-07
-2.30377e-07
4.67373e-07
5.65272e-07
-3.40219e-07
-5.49181e-07
-3.2008e-07
5.33787e-07
-4.91653e-07
2.29079e-07
2.62574e-07
-1.0535e-07
3.66089e-07
-1.07902e-07
-4.67076e-07
3.34895e-07
2.01422e-07
4.32424e-07
-4.36455e-07
-2.28111e-07
2.52095e-07
2.68909e-07
1.78149e-07
-5.11171e-07
3.33022e-07
4.25022e-07
-3.22997e-07
-3.35679e-07
-4.36124e-08
6.17517e-08
-6.10933e-07
2.86219e-07
2.31758e-07
-2.34483e-07
-2.42805e-07
4.77288e-07
1.61706e-07
-5.93294e-07
8.44168e-07
-2.55417e-07
5.24326e-07
4.80733e-08
-4.89793e-07
2.62425e-07
-2.65487e-07
4.94566e-07
-4.71132e-07
5.19206e-07
-3.11644e-07
-4.06385e-07
1.63904e-07
-3.98387e-07
-5.54669e-07
-7.65457e-07
2.12682e-07
-6.03751e-07
7.56654e-07
-2.18575e-08
-1.37978e-07
4.72872e-07
-4.69733e-07
1.34054e-07
-4.0872e-07
3.6497e-07
-5.43484e-07
-2.48746e-07
-3.70177e-07
3.26565e-07
1.88329e-07
4.94507e-08
-4.80983e-07
9.85023e-09
-8.4669e-07
1.12205e-07
2.97604e-07
2.68301e-07
-4.79494e-07
1.95961e-08
4.17278e-07
-2.53374e-07
1.18044e-07
2.28542e-07
1.18074e-07
1.9409e-07
-3.12163e-07
2.36118e-07
-2.4119e-07
-1.19684e-07
5.50626e-07
-4.30942e-07
1.76088e-07
7.66882e-07
5.71523e-08
-3.10079e-07
-5.58076e-09
2.57676e-07
7.99018e-07
3.59389e-07
2.83253e-07
-3.46939e-07
7.39614e-08
2.52603e-07
-7.47791e-07
-7.14188e-09
-2.0706e-07
2.56511e-07
5.56526e-08
-3.09027e-07
-1.32677e-08
-7.48997e-07
1.20542e-09
1.91058e-07
2.22497e-07
4.66295e-07
-2.79371e-07
5.83562e-07
-1.04914e-07
-5.35856e-07
7.97682e-07
-7.96476e-07
4.90081e-08
-3.35035e-07
3.68752e-07
-3.37169e-08
-6.15099e-07
-7.50799e-08
2.08772e-07
2.28028e-07
-4.76402e-07
-3.17632e-07
-4.23424e-08
-3.03277e-07
3.96037e-07
-2.70225e-07
2.65505e-07
2.09695e-07
-3.11169e-08
-4.90202e-08
4.2091e-08
3.66633e-08
1.72031e-07
1.87969e-07
8.67811e-08
3.51498e-08
-3.07924e-07
2.52505e-07
5.5419e-08
-6.61627e-07
-2.11673e-07
4.32398e-07
-2.31726e-07
1.29449e-07
1.15351e-07
8.80597e-08
3.06476e-09
-6.18929e-07
-2.60999e-07
1.36738e-07
1.08062e-07
-2.00922e-07
-1.08104e-07
1.64311e-07
-2.1419e-07
-3.34394e-07
1.10961e-07
2.2249e-07
-7.36706e-07
-6.92922e-09
1.23444e-07
-2.55287e-07
-5.26374e-08
5.70704e-07
5.2211e-08
-4.55762e-07
-5.48847e-07
4.42009e-07
3.0148e-07
1.2321e-07
-5.74515e-11
-8.30602e-07
-1.37821e-07
-7.30939e-07
6.67513e-08
-4.01581e-08
-2.74605e-08
2.64623e-08
-1.54143e-07
-2.27956e-07
-1.08844e-07
-8.53338e-08
-1.26467e-07
1.26409e-07
1.21175e-07
-3.19161e-07
-9.75852e-08
-2.82896e-07
1.91196e-07
5.01462e-08
-1.6172e-07
-3.88201e-07
1.6803e-07
-1.56784e-07
-2.22336e-07
6.40997e-07
-4.1866e-07
-7.62196e-08
-1.4479e-07
3.46959e-08
-3.36358e-08
-3.63818e-07
-2.88922e-07
-7.62196e-08
-2.2389e-07
2.88726e-07
-1.77765e-07
3.56378e-08
-1.8762e-07
7.13764e-07
-7.68479e-07
4.22954e-07
-1.42337e-08
-3.08763e-07
7.58516e-07
2.02742e-07
-4.03189e-07
2.1378e-07
1.89409e-07
-1.7238e-07
-2.2158e-07
-2.1522e-07
-4.56711e-07
-1.67497e-07
-6.12284e-08
-1.11161e-07
8.94328e-07
3.53234e-07
-1.56341e-08
3.05675e-07
-3.86262e-08
5.83879e-07
-2.61885e-07
7.07342e-08
4.59565e-09
2.61885e-07
-7.07342e-08
2.38795e-07
3.05675e-07
2.05559e-07
-4.25426e-07
-1.68729e-07
7.84753e-07
-7.09067e-07
3.36534e-07
-3.56333e-07
-5.54885e-08
3.04967e-07
-9.48598e-08
1.93954e-07
-2.9123e-07
-3.25724e-07
1.22314e-08
-3.56333e-07
7.5584e-08
-1.57355e-07
-1.2614e-07
8.37239e-09
3.84033e-07
-7.067e-08
-8.16222e-09
-1.93954e-07
-6.01585e-08
2.9123e-07
-3.7117e-08
3.25724e-07
2.91955e-08
-3.84033e-07
2.91134e-08
7.067e-08
-7.5584e-08
3.04967e-07
-1.2614e-07
1.75319e-08
-3.02313e-07
-5.99196e-07
-5.30352e-07
7.31773e-07
4.66594e-08
1.56083e-07
1.30681e-07
1.14389e-07
-1.17232e-08
6.82756e-07
-6.39477e-08
5.12984e-08
-6.42602e-07
1.14389e-07
4.5351e-07
-2.57003e-07
-4.22626e-07
4.53867e-07
3.88369e-07
1.21643e-07
-3.87553e-09
-1.21643e-07
-1.9408e-07
2.11959e-07
-1.78784e-08
-5.68268e-07
2.38689e-07
1.85956e-07
-3.27327e-07
3.92697e-07
9.59168e-08
-8.11741e-07
1.08842e-07
-1.33427e-09
-2.23707e-09
-1.45518e-07
2.6028e-07
3.08064e-08
-2.15827e-07
3.62691e-07
-3.47466e-07
-3.39458e-07
3.39458e-07
-3.58967e-07
-2.5494e-07
-2.83002e-07
2.6028e-07
2.46267e-07
-7.28792e-08
2.83049e-07
-2.19487e-07
-4.44638e-07
2.82688e-07
-4.75037e-07
6.10293e-07
-5.19459e-07
6.10323e-08
-6.10323e-08
-1.09661e-07
-2.28184e-07
-5.24076e-08
5.24076e-08
2.92257e-08
-2.92257e-08
-2.47016e-07
3.87924e-08
2.43957e-08
1.7785e-07
3.31638e-09
-1.81166e-07
3.12668e-07
-3.12668e-07
8.6221e-08
2.41733e-07
4.5018e-07
5.99774e-08
-4.99678e-07
-2.306e-07
-1.38537e-08
-2.67717e-07
-3.21148e-07
-5.23637e-07
6.7303e-08
2.28794e-09
-1.55046e-07
-5.91583e-08
6.49549e-08
-6.23849e-08
-3.25568e-08
9.75117e-08
-7.13037e-07
-2.3669e-08
-1.74349e-07
-1.61277e-07
-6.29527e-07
9.91749e-08
-1.08844e-07
-2.95442e-07
1.11723e-07
6.64975e-08
-1.46725e-07
-8.97519e-08
8.97519e-08
2.05638e-08
2.50303e-07
-6.3037e-07
-7.49636e-08
4.23748e-08
-4.23748e-08
-6.61221e-07
1.75612e-07
-1.13511e-08
4.42189e-09
-4.84771e-07
3.12708e-07
1.19695e-07
-4.32403e-07
-1.50591e-07
7.77938e-08
7.27972e-08
-5.25371e-08
-1.93035e-09
1.48438e-07
-1.59789e-07
1.71106e-07
-4.67495e-08
4.67495e-08
1.01347e-07
3.3387e-07
1.50268e-07
2.51062e-07
-2.66696e-07
2.17765e-07
-4.52703e-07
4.44505e-08
-4.92441e-08
6.22003e-07
-3.09295e-07
5.20895e-07
1.98336e-07
5.22514e-08
8.91659e-09
-1.76413e-07
-4.40795e-08
7.42003e-08
-3.2009e-07
9.21336e-08
-6.7303e-08
2.73796e-07
-3.30507e-08
2.71428e-07
4.69113e-08
2.26884e-07
5.14327e-08
2.19996e-07
2.70603e-07
3.49856e-07
3.0159e-07
3.34502e-07
2.5595e-07
3.43607e-08
-3.03703e-07
2.5227e-07
1.94327e-07
1.32208e-07
1.04828e-07
-3.45428e-08
1.1984e-07
2.44117e-07
-2.24521e-07
3.17514e-07
-3.86862e-09
-1.91631e-08
-5.49611e-08
2.26238e-07
1.39399e-07
-2.11438e-07
2.88513e-07
2.27064e-08
-2.43665e-07
2.04701e-08
5.78468e-07
-4.79293e-07
6.07664e-07
-4.78024e-07
1.52513e-07
2.6338e-07
-1.82354e-07
-5.82147e-07
3.70138e-08
1.44154e-07
1.22298e-07
2.67893e-08
7.86222e-08
2.23009e-07
1.47877e-07
-6.81926e-08
-1.81259e-07
2.73393e-07
5.78756e-09
-5.51172e-09
)
;

boundaryField
{
    back
    {
        type            empty;
        value           nonuniform List<scalar> 0();
    }
    front
    {
        type            empty;
        value           nonuniform List<scalar> 0();
    }
    top
    {
        type            calculated;
        value           nonuniform List<scalar> 10(-4.368e-07 -4.752e-07 -3.6e-07 -2.448e-07 -2.448e-07 -3.6e-07 -4.368e-07 -9.12e-08 -9.12e-08 -4.752e-07);
    }
    outer_arc
    {
        type            calculated;
        value           uniform 0;
    }
    bottom
    {
        type            calculated;
        value           nonuniform List<scalar> 10(6.90178e-07 3.4562e-07 8.01371e-08 -7.87543e-08 -1.21931e-07 8.733e-07 -9.11245e-08 8.79928e-07 4.82999e-09 6.33816e-07);
    }
    inner_arc
    {
        type            calculated;
        value           uniform 0;
    }
}


// ************************************************************************* //
