/*--------------------------------*- C++ -*----------------------------------*\
  =========                 |
  \\      /  F ield         | OpenFOAM: The Open Source CFD Toolbox
   \\    /   O peration     | Website:  https://openfoam.org
    \\  /    A nd           | Version:  9
     \\/     M anipulation  |
\*---------------------------------------------------------------------------*/
FoamFile
{
    format      ascii;
    class       surfaceScalarField;
    location    "1";
    object      phi;
}
// * * * * * * * * * * * * * * * * * * * * * * * * * * * * * * * * * * * * * //

dimensions      [0 3 -1 0 0 0 0];

internalField   nonuniform List<scalar> 
2420
(
3.2091e-08
-1.0812e-07
7.6029e-08
6.64161e-09
-6.64161e-09
1.17165e-06
-5.31411e-07
-6.40237e-07
-5.48244e-07
5.48244e-07
-6.34488e-07
2.67173e-07
3.67315e-07
-1.94843e-07
1.53135e-07
4.17079e-08
7.2432e-07
4.47328e-07
-4.02106e-07
3.44053e-08
3.67701e-07
8.82426e-07
-9.57637e-07
7.52108e-08
-4.87792e-07
-1.46696e-07
-5.16357e-07
3.31227e-07
1.8513e-07
-1.26479e-07
-3.89878e-07
-4.02106e-07
-9.46412e-08
-7.67817e-08
1.71423e-07
5.98101e-08
-3.89927e-07
3.30117e-07
-4.68147e-08
3.09177e-08
1.58969e-08
1.57472e-07
1.89886e-07
-3.47358e-07
1.54612e-07
-1.9522e-07
4.0608e-08
1.22456e-07
-6.22182e-08
-6.02379e-08
-1.26931e-07
3.22902e-08
-7.20629e-08
2.15607e-07
-1.43544e-07
2.63124e-08
-4.298e-07
4.72113e-07
-4.23127e-08
-4.89917e-07
6.01168e-08
-1.07805e-07
1.39896e-07
3.28253e-08
1.24647e-07
-1.68667e-08
-2.9948e-08
-2.88467e-07
-6.03366e-07
8.91833e-07
-6.87373e-07
3.98906e-07
1.93071e-07
-8.76743e-08
-1.05397e-07
-9.9031e-07
-2.81801e-07
1.27211e-06
9.19381e-07
-9.94057e-08
-8.19976e-07
-4.36902e-07
4.35179e-07
1.72281e-09
2.43249e-07
7.32539e-07
-9.75788e-07
-2.73147e-08
1.81927e-07
7.01247e-07
-4.57998e-07
-1.18704e-07
-7.61385e-08
1.3541e-08
-6.89937e-09
-3.3809e-08
-4.03093e-07
-1.29196e-08
6.27797e-09
4.54404e-08
-1.17503e-07
4.15237e-07
1.79756e-07
-5.94993e-07
3.36175e-07
-3.69984e-07
-2.54031e-08
1.20358e-07
-9.49548e-08
1.60954e-08
-3.21108e-08
1.60155e-08
-1.57663e-07
-3.90581e-07
3.06876e-07
2.41368e-07
3.14358e-08
-1.53404e-08
2.18119e-08
2.09062e-07
-2.30874e-07
-4.43902e-08
3.80565e-07
1.68003e-07
-1.48677e-08
3.8797e-07
-3.50059e-07
4.09869e-07
-6.17941e-07
-3.39696e-07
2.62975e-07
-5.56168e-08
-2.07358e-07
-9.34256e-08
-5.29439e-08
1.4637e-07
3.14518e-08
-8.74701e-09
-2.27048e-08
3.36278e-07
-5.05107e-09
-4.8102e-07
6.80528e-07
-1.99508e-07
2.1204e-07
-3.05465e-07
1.83102e-07
-1.17341e-06
-1.61714e-07
1.846e-07
-2.28863e-08
1.10502e-07
-2.18622e-07
-5.33636e-07
5.68042e-07
-4.90505e-07
2.08825e-07
2.8168e-07
-1.10065e-06
8.1885e-07
6.18153e-07
-8.55741e-07
2.37588e-07
-2.36467e-07
4.62648e-07
-2.26181e-07
1.29202e-07
-1.56517e-07
-7.46797e-08
9.98109e-08
-3.7633e-07
1.70185e-07
-2.42934e-07
7.27488e-08
-1.69466e-07
-2.20461e-07
-2.09267e-07
4.09978e-07
-2.00711e-07
2.23977e-10
7.93306e-08
-7.95546e-08
-6.67339e-07
-2.0034e-08
1.53036e-08
1.13899e-07
7.68923e-08
7.4431e-08
1.1864e-07
-2.95555e-07
-1.9495e-07
2.91474e-08
-2.89234e-08
2.66095e-07
-3.1195e-09
1.54208e-07
-1.79612e-07
1.0698e-07
1.68503e-07
-2.75483e-07
-1.45857e-08
9.48676e-09
5.09889e-09
3.47874e-07
-5.57141e-07
2.15373e-07
-4.51881e-08
-8.72484e-08
-2.28691e-08
1.10117e-07
2.07862e-07
-5.97371e-08
-1.48125e-07
3.75701e-08
1.70292e-07
2.1515e-07
-8.55387e-07
1.4281e-07
-2.03539e-08
8.34484e-08
-6.16366e-08
3.05268e-10
-5.88803e-08
5.8575e-08
7.73245e-08
-1.39543e-07
7.45561e-07
-1.27408e-07
-5.86202e-07
1.05183e-07
-9.48229e-07
8.48824e-07
-4.67062e-07
1.78493e-07
2.88568e-07
7.14012e-07
-4.98863e-07
4.77754e-07
-5.31592e-07
5.38382e-08
2.3615e-08
1.85447e-07
4.09683e-07
6.80711e-08
4.1659e-08
-9.50011e-08
5.33421e-08
-7.96872e-09
-1.53745e-07
-7.41563e-07
2.24917e-07
5.16647e-07
1.77324e-08
-1.05407e-07
-1.94448e-07
-2.72614e-07
-2.24508e-07
1.71564e-07
-1.27304e-08
-3.30269e-07
3.42999e-07
1.50677e-07
-2.77156e-07
-3.04353e-07
7.98452e-08
3.13099e-07
-2.06118e-07
7.62417e-07
-2.45775e-07
-5.16642e-07
2.29845e-08
-5.53846e-07
-1.87717e-07
5.22865e-07
1.16052e-07
-2.033e-07
4.78667e-08
-6.20776e-09
-3.20897e-08
-2.72264e-07
2.98766e-07
5.14004e-08
-3.50166e-07
3.35803e-07
-1.06189e-06
7.26084e-07
-7.17603e-08
-8.77257e-07
9.49017e-07
3.97696e-07
3.47864e-07
-5.7989e-07
1.94007e-07
3.85883e-07
-3.22334e-07
2.77943e-07
1.05631e-07
-1.05326e-07
1.15146e-08
1.94031e-08
1.7492e-07
-3.72e-07
1.9708e-07
3.22102e-08
-1.9412e-07
1.6191e-07
-3.41235e-07
3.28505e-07
-6.9309e-07
1.59454e-07
-3.37936e-07
-2.41954e-07
-5.27986e-08
5.27986e-08
4.22497e-08
3.78073e-08
-8.0057e-08
-3.39175e-07
-2.43818e-07
5.82993e-07
-3.50059e-07
-8.74701e-09
-5.28349e-07
-3.27392e-07
2.1204e-07
-3.95715e-08
2.27048e-08
3.95715e-08
-2.65958e-08
-1.29757e-08
-2.07733e-07
-2.00437e-07
4.08171e-07
2.23947e-07
3.47358e-07
-5.71305e-07
2.00437e-07
9.83284e-08
1.05489e-07
-4.08171e-07
3.02682e-07
-3.37555e-07
3.05465e-07
-3.48731e-08
3.37555e-07
-3.02682e-07
-1.02721e-06
9.66343e-07
6.08679e-08
1.02721e-06
-8.44109e-07
-9.66343e-07
5.71305e-07
3.95038e-07
-9.83284e-08
5.08306e-07
-5.08306e-07
8.44109e-07
1.43955e-07
-1.34468e-07
-2.51014e-08
-2.97232e-07
-1.03843e-07
3.12668e-07
4.60032e-07
-6.5698e-07
1.96948e-07
2.0857e-07
1.14128e-07
5.65521e-07
-1.66296e-07
-2.28493e-07
3.94789e-07
-7.78774e-07
1.60833e-07
-2.08091e-07
-4.48889e-07
-4.15824e-07
-2.22328e-07
-3.63874e-07
-9.43062e-07
4.44565e-07
-6.9034e-07
-1.33896e-07
2.97299e-08
-1.44262e-08
5.13397e-07
-3.23511e-07
-3.1446e-07
-1.18006e-07
4.32466e-07
3.56949e-07
-3.91823e-07
-7.6534e-07
1.81124e-07
5.84215e-07
-5.40423e-07
1.53993e-07
-1.21783e-07
1.16003e-07
-8.62729e-08
1.04397e-07
2.64922e-07
-3.69319e-07
-1.07421e-07
-1.95109e-08
8.66325e-08
-3.76786e-07
6.23265e-08
-2.91693e-09
1.7092e-07
-7.38535e-07
6.66775e-07
4.85815e-08
-2.94974e-08
-1.9084e-08
-4.28959e-07
8.75756e-08
3.41383e-07
-3.87028e-08
6.78502e-08
-3.24562e-07
3.17327e-08
1.03151e-07
-1.34884e-07
-2.42842e-07
-1.33944e-07
-2.87974e-08
-3.31338e-09
9.63432e-08
8.82568e-08
-2.39014e-08
6.53936e-08
-4.14922e-08
-4.93707e-07
8.81677e-07
-4.54022e-07
6.19756e-08
3.92046e-07
-3.50662e-08
7.83133e-09
-3.66446e-07
-1.15758e-07
9.28887e-08
-3.26549e-07
8.37073e-08
1.84539e-07
-6.6849e-07
4.83951e-07
-3.98725e-07
5.83264e-07
-3.16251e-08
3.76421e-07
-3.44796e-07
6.4738e-08
1.50869e-07
-4.25718e-07
3.43245e-07
8.24728e-08
3.19652e-08
3.34284e-08
-2.20903e-07
3.95823e-07
1.81662e-07
5.50877e-07
6.43137e-07
-2.97546e-07
-3.45591e-07
-5.75433e-07
8.17268e-08
2.93301e-08
6.38571e-07
1.15534e-08
-1.18974e-07
2.00997e-07
-7.29345e-07
3.64424e-07
3.36823e-07
-1.60865e-07
-5.43069e-09
-1.02516e-07
2.53657e-07
-1.51141e-07
-1.51177e-07
-1.75373e-07
-7.26702e-09
7.18291e-08
3.2109e-07
1.14089e-07
-2.86153e-07
4.84941e-07
-1.98788e-07
-1.04628e-07
4.37936e-07
-4.73081e-07
3.51449e-08
-3.87637e-08
4.76699e-07
1.38667e-07
-2.45806e-08
1.54244e-07
-1.29663e-07
-3.90983e-07
3.66402e-07
-3.30016e-07
4.15589e-07
-8.55733e-08
1.58333e-07
5.9214e-07
-7.50472e-07
-7.5304e-07
9.11373e-07
-2.6289e-08
1.40188e-07
4.30231e-07
-8.69857e-08
-3.60288e-07
3.02717e-08
-4.11105e-07
-9.64021e-08
1.28367e-07
-4.52504e-07
4.13741e-07
1.65383e-07
8.26926e-07
-9.92309e-07
9.17314e-08
4.54369e-08
3.14456e-09
8.69688e-07
-7.04305e-07
2.45785e-08
2.822e-08
-4.46343e-07
1.60189e-07
-1.43218e-07
9.80303e-08
1.1842e-06
-6.51675e-07
-5.32525e-07
-5.66016e-07
-2.12758e-07
-6.04581e-08
3.33765e-07
-6.64817e-08
1.8684e-07
-9.95673e-08
-3.92354e-07
4.91922e-07
6.77034e-08
4.91571e-08
3.81074e-07
-4.00062e-07
1.36989e-07
3.4647e-07
-4.83459e-07
-2.6374e-07
-1.82603e-07
2.12449e-07
-9.64462e-08
3.80595e-07
-2.66505e-07
2.45202e-07
-5.24145e-07
2.78943e-07
3.64279e-07
-9.93572e-08
4.64099e-07
1.26003e-08
3.35383e-07
2.3841e-07
-3.37978e-07
7.52536e-07
-5.31853e-07
-2.20683e-07
3.01395e-07
7.92e-08
1.81378e-07
-2.06479e-07
3.34607e-07
-4.39235e-07
2.52904e-07
-7.74678e-08
-1.75436e-07
4.09869e-07
1.31522e-07
-1.57811e-07
1.66395e-08
7.65893e-08
2.8769e-07
1.29424e-08
1.27245e-07
2.02479e-07
-7.09568e-08
4.78105e-07
7.06095e-07
1.34969e-07
-3.98709e-07
-1.38324e-08
5.72819e-08
-4.34495e-08
7.28922e-07
-2.1085e-07
-5.18072e-07
6.00109e-09
1.61908e-07
-1.67909e-07
7.60111e-07
-5.51518e-07
-2.08593e-07
1.54065e-07
4.84147e-08
-1.55702e-07
-1.94357e-07
-2.45178e-07
8.94756e-08
-1.60695e-07
8.97384e-08
8.42013e-08
-1.25693e-07
4.63407e-07
-3.09332e-07
-1.54076e-07
3.83867e-07
2.41157e-08
-1.27267e-07
-1.9473e-08
7.00672e-08
2.44468e-07
-3.14535e-07
4.36999e-07
-5.55006e-07
-1.02295e-07
5.8931e-09
4.62208e-07
-5.63836e-08
-4.05824e-07
3.67701e-07
3.10322e-09
2.822e-08
4.31149e-07
-2.64686e-07
-1.66463e-07
-3.38049e-07
4.71077e-07
-1.33028e-07
8.65231e-08
-3.07461e-09
8.65231e-08
-4.39699e-07
4.69304e-07
-2.96051e-08
4.81277e-07
-1.71779e-08
-3.86342e-07
4.72153e-07
-8.58105e-08
-4.17973e-07
3.57515e-07
-2.66014e-08
1.38721e-07
-1.1212e-07
4.90617e-07
-9.33981e-09
1.76311e-07
-2.08855e-07
3.25448e-08
-5.64164e-07
7.8811e-07
-4.39772e-07
6.84974e-07
2.35894e-07
-1.28897e-07
2.24234e-07
4.906e-07
1.64525e-11
-3.34102e-07
4.71091e-07
-1.76122e-07
2.46189e-07
1.25358e-07
2.25094e-08
8.47351e-08
-2.85398e-07
3.90581e-07
-2.85398e-07
2.28258e-07
-1.06587e-07
4.53057e-07
5.18949e-07
1.92821e-07
-7.1177e-07
-3.36694e-07
3.85851e-07
-1.198e-07
-6.57324e-08
6.57324e-08
4.10879e-07
-5.33645e-08
-9.25014e-09
1.47972e-07
4.51649e-07
-3.79084e-08
-1.2148e-07
6.40429e-07
3.23668e-07
-4.77088e-07
4.89689e-07
1.19117e-07
-4.6713e-07
-4.74637e-07
-5.00656e-09
4.79644e-07
1.67007e-07
8.63258e-08
-4.77309e-07
-1.94357e-07
-5.33377e-09
4.15769e-07
3.85281e-07
3.55119e-07
-6.74296e-08
2.58458e-07
-2.58458e-07
1.0728e-07
2.69141e-07
6.78465e-07
-3.72979e-07
4.57715e-07
4.81722e-07
-5.88781e-07
1.0706e-07
-2.78694e-08
5.1847e-07
-4.82095e-07
5.06736e-07
-1.70475e-08
9.4241e-08
1.28911e-07
-2.23152e-07
4.67842e-07
-4.57386e-07
-1.04557e-08
1.76831e-08
4.71733e-08
-1.51638e-07
6.33359e-07
5.65694e-07
-6.94973e-07
1.2928e-07
4.92889e-08
-4.92889e-08
1.09414e-07
-2.43345e-07
2.43345e-07
-2.95173e-07
4.25847e-07
4.34996e-08
-4.69347e-07
3.3325e-08
-3.3325e-08
-4.59965e-07
-1.07175e-08
1.07175e-08
5.34951e-07
-4.97396e-07
-3.75551e-08
2.57908e-07
-2.57908e-07
-1.7879e-08
7.42615e-07
-8.93921e-07
1.51306e-07
4.50855e-07
3.50605e-07
6.49839e-08
-4.4695e-07
2.23638e-07
-3.09211e-07
7.61134e-07
-1.95441e-07
4.73902e-07
-6.94585e-07
-5.43223e-07
-1.5175e-07
-6.07861e-08
4.76555e-07
-1.51782e-07
5.07082e-07
2.6388e-07
2.24725e-07
4.34471e-07
4.69443e-08
-4.30785e-07
5.38065e-07
9.58837e-07
-2.16222e-07
-3.87514e-07
-1.67492e-07
5.07323e-07
-2.76791e-08
5.63033e-07
-5.59515e-08
5.0254e-07
1.59299e-08
-7.17654e-07
1.42646e-07
-5.36293e-07
3.93647e-07
2.63002e-07
-2.34909e-07
-2.80932e-08
1.67749e-07
5.93385e-07
-7.63962e-07
2.12444e-07
8.65179e-07
-1.5587e-07
-7.09309e-07
4.32964e-07
-5.18901e-08
-5.21458e-07
9.49326e-08
-5.25718e-07
1.3541e-08
-1.75105e-07
-7.18817e-07
-2.4437e-07
2.4437e-07
-7.65644e-07
1.3729e-07
6.28354e-07
-6.38676e-07
9.54531e-08
6.90075e-07
4.17544e-07
1.54203e-08
-7.54637e-07
6.48633e-07
1.06004e-07
-1.87694e-07
1.88268e-07
-9.41308e-07
-5.28831e-07
-1.09845e-07
4.64347e-08
5.16599e-07
3.51042e-07
-2.08396e-07
-5.97894e-07
-2.11859e-07
-4.90482e-07
7.02341e-07
5.48975e-07
8.01917e-08
-5.90988e-07
5.10797e-07
-3.08979e-07
8.54904e-07
-5.45925e-07
1.01519e-06
4.90276e-07
3.72971e-07
6.36346e-07
6.34748e-07
-1.27109e-06
-4.71891e-07
8.06092e-07
-5.32763e-07
-2.73329e-07
5.9679e-07
2.59186e-07
-8.15307e-09
-2.51033e-07
-6.17347e-07
-6.51886e-07
-2.41418e-07
8.93304e-07
-8.16275e-08
5.07475e-07
1.82459e-08
-3.63042e-07
-1.3188e-07
1.3188e-07
-1.83029e-07
8.31662e-07
6.06484e-07
-6.87937e-08
-5.37691e-07
7.2193e-07
-6.26997e-07
5.17651e-07
3.13232e-08
-5.40332e-07
6.35785e-07
-8.34915e-07
-5.62722e-07
-2.78201e-07
8.40923e-07
8.82896e-07
-1.0637e-06
5.00978e-07
1.4571e-07
-7.02195e-07
1.33854e-06
5.26498e-07
6.22096e-07
-1.14859e-06
-7.59924e-07
1.44111e-06
-6.81186e-07
-5.66991e-07
6.96271e-07
-1.46212e-06
-5.79238e-07
-9.83768e-08
6.77615e-07
4.18934e-07
-4.18867e-07
-6.77893e-11
-5.85611e-07
4.52788e-08
-4.28952e-07
5.94233e-07
-5.33482e-07
7.87058e-07
-2.53576e-07
2.72463e-08
-5.75225e-07
1.10172e-06
1.76399e-07
1.74643e-07
-2.16437e-07
-6.79594e-08
6.31224e-07
-6.02682e-08
-5.70956e-07
5.53365e-07
2.33693e-07
8.27243e-07
-2.73878e-07
4.51435e-07
-1.0083e-07
5.6606e-07
8.06959e-07
5.03556e-07
-1.31052e-06
5.68158e-07
2.59086e-07
8.16848e-07
-2.48691e-07
-6.59725e-07
-2.64379e-07
9.24104e-07
6.54613e-07
-7.34097e-08
-5.81203e-07
-5.30463e-07
-4.18018e-07
9.4848e-07
4.83772e-07
-7.2077e-07
1.95302e-09
6.21176e-07
1.00482e-08
8.68687e-07
5.72424e-07
-6.38184e-07
-2.57732e-07
8.95916e-07
-1.06323e-06
1.17518e-06
-7.90419e-07
-3.84764e-07
3.47603e-08
-7.4407e-07
6.2627e-08
-5.50961e-07
4.88334e-07
-5.52747e-07
1.35971e-06
-5.58298e-07
8.47682e-07
-2.89384e-07
7.2718e-07
1.11808e-06
-1.11324e-06
-4.83869e-09
-4.19538e-07
9.58168e-07
-5.3863e-07
-8.79602e-07
-6.5773e-07
8.17901e-07
-1.6017e-07
7.57165e-07
2.33579e-07
9.15974e-08
1.02648e-06
-1.10195e-06
1.85036e-07
9.1691e-07
5.59116e-07
3.26947e-07
-1.23055e-06
9.03606e-07
-3.01262e-07
8.07603e-07
-5.06341e-07
7.74999e-07
2.45189e-07
-1.02019e-06
1.32126e-06
-4.52576e-07
-9.94764e-07
-1.30833e-06
5.1791e-07
5.59491e-07
1.898e-07
-7.49291e-07
6.45461e-07
3.12707e-07
-6.76803e-07
2.90155e-07
3.86648e-07
6.31537e-07
9.36498e-07
-8.33502e-07
-2.79737e-07
7.26997e-07
3.74727e-07
5.74174e-07
3.75947e-07
-9.50121e-07
-9.57393e-07
2.99662e-07
8.08614e-07
1.02359e-08
5.70189e-07
2.65697e-07
-8.35886e-07
9.63633e-07
7.346e-08
-1.03709e-06
4.28958e-07
-7.02836e-07
-1.48779e-07
-7.26899e-07
6.98821e-07
2.80778e-08
-6.73737e-07
9.18925e-07
9.61748e-07
-3.87574e-07
5.25342e-07
-1.30878e-07
-3.94464e-07
-7.7297e-07
9.58006e-07
5.45316e-07
-1.10361e-06
-2.61702e-07
2.61702e-07
3.46093e-07
-3.46093e-07
2.30503e-07
-2.30503e-07
6.27797e-09
-3.07461e-09
5.88116e-08
-5.88116e-08
1.85722e-07
-1.85722e-07
7.2308e-08
-7.2308e-08
5.05347e-07
-1.83832e-07
1.83832e-07
3.06876e-07
-1.53913e-07
1.53913e-07
1.91712e-07
-1.91712e-07
-2.76473e-07
2.76473e-07
3.93188e-07
-3.93188e-07
-2.71367e-07
9.13487e-07
-6.42121e-07
1.96007e-07
-1.96007e-07
-8.68141e-08
8.68141e-08
-4.93079e-07
9.3572e-07
-4.42641e-07
8.91974e-07
-5.79267e-07
4.68669e-07
5.16639e-07
8.58975e-07
-2.27439e-07
3.10124e-07
-1.14363e-06
-7.35904e-07
-6.8842e-07
7.42598e-07
3.03704e-07
-1.0463e-06
-7.22862e-08
-7.99686e-07
4.54095e-07
1.28357e-07
-6.16698e-08
-6.66868e-08
-5.97441e-07
6.07676e-07
-4.695e-07
-6.79094e-07
8.52751e-07
-1.30533e-06
1.2528e-07
-6.50893e-07
4.02203e-07
7.15829e-07
-1.39702e-06
-4.46644e-07
-2.30158e-07
-1.45299e-07
-6.54388e-07
-9.95595e-07
5.26095e-07
3.9709e-07
2.69643e-08
-6.53961e-07
-3.65513e-07
6.65175e-07
8.27077e-07
2.18237e-07
1.45955e-07
-1.17359e-07
-9.20937e-08
1.05272e-06
8.95787e-08
8.68427e-07
-2.58507e-07
1.11126e-06
-2.49532e-07
1.21316e-06
-1.2278e-06
3.64619e-07
8.63184e-07
1.05421e-06
-1.78341e-07
-8.75867e-07
5.87609e-07
-3.63626e-07
1.19104e-06
-8.27412e-07
-4.84989e-07
1.05518e-06
-6.09565e-07
8.50304e-07
-2.40739e-07
8.61317e-07
-1.62496e-07
2.42164e-07
-2.21935e-07
-7.32448e-07
6.0157e-07
-5.89498e-07
-8.50654e-07
3.21546e-07
5.29108e-07
-7.52272e-07
5.56044e-07
-9.43618e-07
-9.07537e-07
4.64896e-07
-2.65958e-08
-9.44015e-07
9.07753e-07
3.62611e-08
-1.27816e-07
6.44454e-07
-8.72934e-07
2.93667e-07
6.54894e-07
2.4329e-07
5.37359e-07
8.04676e-07
1.09158e-07
6.14912e-07
-7.2407e-07
-1.01078e-06
6.82976e-07
-6.10227e-07
9.13931e-07
8.49538e-07
7.06049e-07
4.45612e-07
-1.3854e-07
-1.08926e-06
1.67753e-07
6.63908e-07
1.23315e-06
-8.68533e-07
1.17856e-07
-7.69509e-07
7.59179e-08
6.93591e-07
-4.75844e-07
-2.49084e-07
-5.82018e-07
8.00255e-07
4.87859e-07
-7.10187e-07
-3.51493e-07
-6.19648e-07
3.38364e-07
-7.62185e-07
4.23821e-07
-2.18623e-07
-2.06561e-07
7.81526e-07
8.0326e-07
-9.6442e-09
1.86043e-07
3.23285e-07
5.90202e-07
-6.7993e-07
-9.20819e-07
-1.84588e-07
1.10541e-06
1.31149e-07
3.82248e-07
-6.22468e-07
-1.87207e-07
7.46324e-07
-2.69169e-07
9.52145e-07
6.20332e-07
3.17764e-07
-9.38096e-07
2.81983e-07
1.58682e-07
-6.74029e-07
5.15346e-07
6.32357e-07
-9.01526e-07
-8.2795e-07
-5.69066e-07
-4.58079e-07
1.30762e-06
1.21518e-07
4.15841e-07
7.62455e-07
-5.49849e-07
-5.93777e-07
8.22647e-07
5.56684e-07
-1.14618e-06
9.01885e-07
-6.64297e-07
3.27416e-07
7.46291e-07
1.02576e-06
-9.07907e-07
-3.14025e-07
9.8675e-07
-6.72726e-07
-5.35786e-07
8.0016e-07
-2.64374e-07
-5.5235e-07
-4.93952e-07
9.76362e-07
-1.1149e-06
-7.58118e-07
-5.12975e-07
2.20412e-07
1.16389e-07
-3.368e-07
-5.87861e-07
9.35725e-07
-8.34514e-07
-6.27605e-07
-1.21168e-06
3.83727e-07
1.21711e-06
-3.53928e-07
6.60151e-07
1.20056e-06
-6.23335e-07
-5.77221e-07
7.53612e-07
-3.82771e-07
-5.07472e-07
-9.89154e-07
-2.22523e-07
-9.52893e-07
-1.1022e-06
-2.33508e-07
1.5941e-07
7.4098e-08
-1.13748e-06
-2.64157e-07
8.54359e-07
-1.40358e-06
4.82134e-07
-5.02866e-07
-2.5932e-07
-2.41375e-07
-5.18616e-07
3.31409e-07
-5.21959e-07
-9.96761e-08
6.21635e-07
-5.0769e-07
7.51303e-08
4.3256e-07
4.92798e-07
-3.32498e-07
1.13717e-06
-9.74481e-07
-4.29099e-07
-6.02636e-07
9.2119e-07
-3.06277e-07
-4.23273e-09
1.11471e-06
-1.11047e-06
8.35326e-08
-6.86009e-07
-2.96184e-07
6.91418e-07
-3.95234e-07
3.87729e-07
-9.30683e-07
5.42954e-07
8.97487e-07
2.72298e-07
-1.41149e-07
4.81549e-07
-1.10402e-06
1.197e-06
-1.67628e-07
2.00173e-07
6.56112e-07
-1.84982e-07
-5.7898e-07
-3.67851e-07
-5.11403e-07
8.79254e-07
-1.38572e-06
5.30096e-07
-7.64942e-07
2.34846e-07
-9.0641e-07
-1.9171e-07
5.73958e-07
-1.69865e-07
-1.75752e-08
1.87441e-07
-9.64738e-07
-6.55932e-07
1.27238e-07
-1.17135e-07
-1.01028e-08
2.86503e-07
-7.33147e-07
1.13074e-06
-1.54376e-07
1.33022e-06
-3.03744e-07
3.25389e-07
-9.98115e-07
5.22326e-07
3.98863e-07
1.18712e-07
-5.18885e-07
-1.55144e-07
-6.42062e-07
2.74211e-07
6.10833e-07
-1.12381e-06
4.13612e-07
5.22113e-07
7.76809e-07
-3.53905e-07
3.67658e-07
2.62721e-07
-6.3038e-07
2.45441e-07
2.68572e-08
6.21452e-07
-8.13162e-07
3.46134e-07
-1.25723e-07
2.03051e-07
-5.34058e-07
3.31007e-07
-7.36079e-07
-6.20516e-07
-1.0627e-07
-7.04985e-07
8.1768e-07
-1.12695e-07
-6.07366e-07
1.44466e-07
2.01669e-07
-7.36749e-07
5.22135e-07
2.14614e-07
-6.4418e-07
-7.34787e-07
4.70413e-07
-5.72107e-07
4.59412e-07
-3.89593e-07
-3.39585e-07
-3.97164e-07
6.19198e-07
1.02153e-06
-1.16414e-07
-4.84597e-07
-9.01126e-07
-1.2001e-06
3.3157e-07
-8.53967e-08
8.33109e-07
-4.79204e-07
-2.55583e-07
-1.36953e-07
7.72447e-07
-1.47131e-07
-2.27343e-08
-1.22068e-06
-1.21811e-06
3.10205e-07
5.5103e-07
-4.34641e-07
1.85099e-09
-6.57331e-08
6.17272e-07
-5.51539e-07
-1.9872e-07
4.54097e-07
-2.55377e-07
1.32525e-06
-7.17105e-07
-1.3471e-07
-1.61437e-07
-6.03505e-07
-1.0976e-07
-2.49497e-08
-2.70066e-07
-1.44663e-07
-1.2547e-07
2.70133e-07
-7.725e-07
-4.12987e-07
4.88117e-07
1.83234e-07
2.80904e-09
1.54468e-07
1.82651e-07
-3.37119e-07
3.27473e-08
-4.28501e-08
-1.41527e-07
-3.77418e-07
5.18945e-07
-4.02214e-08
-3.65526e-07
4.05747e-07
-3.39395e-08
-3.4497e-07
7.12628e-07
-2.39885e-07
3.94354e-07
-3.43384e-07
4.13925e-07
-5.50878e-07
2.47292e-07
-1.17466e-06
3.42446e-07
-2.68348e-07
-6.84555e-07
1.37469e-07
4.57653e-08
1.28686e-06
-3.83251e-07
-6.48153e-07
6.50106e-07
5.5784e-07
1.54788e-07
9.37816e-10
7.93856e-07
1.20074e-07
-1.59265e-07
3.52306e-08
1.14202e-06
-2.25111e-07
-1.75704e-07
-3.75174e-07
-7.53206e-07
9.88052e-07
-6.8158e-07
8.32887e-07
6.30758e-07
-2.4411e-07
5.71524e-07
-1.38965e-07
-9.67439e-08
-5.03872e-08
5.49945e-08
9.97727e-07
-8.98272e-08
-4.39583e-08
-6.58022e-08
-1.21694e-07
2.32741e-07
5.16324e-08
-1.4146e-07
5.29784e-07
1.61634e-07
1.11248e-07
-3.09002e-07
1.97753e-07
-5.80208e-07
3.14741e-08
5.48734e-07
-8.76804e-07
-3.43872e-07
3.01755e-07
6.76923e-07
-2.24057e-07
-4.24096e-07
-4.44051e-07
8.68084e-08
3.1904e-08
1.54553e-07
-4.44356e-08
-3.47467e-07
5.55902e-07
-1.12703e-07
9.8113e-07
6.54276e-07
-3.91555e-07
2.29613e-08
-2.92448e-07
5.25635e-08
1.8766e-07
-9.40866e-07
1.69373e-07
-1.18055e-06
4.95011e-07
-1.90998e-07
1.85068e-07
-9.16462e-07
7.31395e-07
5.66512e-07
-7.51494e-07
1.02932e-06
2.65802e-07
-1.06368e-07
1.19197e-07
-1.28292e-08
-9.76454e-07
1.28666e-06
1.22936e-07
-1.32925e-07
9.98851e-09
7.23605e-07
-1.57093e-07
4.45154e-08
-1.76581e-08
5.74353e-07
-1.17681e-07
3.05121e-07
1.06175e-06
2.15411e-07
-3.33092e-07
-9.92889e-07
-6.15094e-07
-5.88586e-07
7.73654e-07
2.34659e-08
5.70338e-07
-5.93804e-07
1.34984e-07
8.66104e-08
8.48851e-07
4.00313e-08
-4.0304e-07
3.63009e-07
-4.98327e-07
5.60954e-07
-4.90481e-08
-1.74104e-07
7.10906e-07
1.21981e-07
-1.7305e-07
5.04057e-07
-6.85608e-08
-1.90842e-07
2.05556e-07
7.53281e-07
6.49858e-07
-3.79574e-07
3.36588e-07
-1.34919e-07
-1.89804e-07
-2.40816e-07
9.69442e-08
2.59921e-08
5.15012e-07
-1.47768e-07
7.07259e-07
5.36148e-07
-4.96765e-07
-3.9383e-08
-1.59067e-07
9.12348e-07
-1.02724e-08
1.65019e-08
-6.22951e-09
1.63538e-07
-5.72649e-08
5.89712e-07
2.75595e-08
-3.57903e-07
6.0227e-07
-2.44367e-07
2.452e-07
-4.8931e-07
1.76185e-07
5.83964e-07
-1.98851e-07
-2.75944e-07
-1.22765e-07
-3.31332e-07
6.5127e-07
-8.10337e-07
-1.40758e-07
-6.10736e-07
5.52082e-07
-4.09369e-07
-1.42713e-07
3.27102e-07
-1.03464e-07
-2.90516e-07
4.76264e-07
-1.85748e-07
-3.49356e-07
7.42806e-07
-3.9345e-07
4.2257e-07
7.02871e-08
-1.38848e-07
-9.20153e-08
-6.9552e-07
-5.05002e-07
-8.59862e-08
-4.8451e-07
-2.73899e-07
-2.81038e-07
-7.05945e-07
-2.84669e-08
-6.01913e-07
1.23793e-06
5.90274e-07
1.12067e-07
3.69808e-07
-4.70611e-07
-2.47109e-07
7.1772e-07
-1.19444e-07
3.68e-08
8.26443e-08
-1.35222e-08
-5.57434e-07
1.98157e-07
-6.32714e-08
1.09259e-06
4.16937e-07
3.70442e-07
2.61566e-07
-3.04612e-08
6.81731e-07
3.41472e-08
-1.67072e-07
7.84217e-09
-4.6544e-08
3.87018e-08
-2.23116e-08
3.76345e-07
9.50597e-09
-4.5737e-07
-1.69554e-07
4.68214e-07
-4.95893e-07
4.5662e-08
-4.80303e-07
-6.79309e-07
5.38551e-07
1.31659e-07
2.76745e-07
4.69233e-08
-6.25645e-07
6.1934e-07
6.30423e-09
-1.92288e-07
-4.95697e-07
6.69046e-07
-1.73348e-07
-1.97676e-07
2.60969e-07
-6.32927e-08
4.40053e-07
-2.55045e-07
3.64286e-07
7.04532e-08
-4.3474e-07
-5.65767e-07
-1.18788e-07
5.05687e-07
4.23194e-07
5.307e-08
3.23383e-08
-1.88507e-07
1.56169e-07
6.66674e-07
-3.56133e-07
-2.61045e-07
9.63181e-08
-2.90125e-07
3.50798e-08
4.0559e-07
-3.09272e-07
-1.43663e-07
-7.18306e-07
5.61214e-07
-5.8135e-07
-9.7959e-08
4.3401e-08
-3.60158e-07
9.91139e-08
2.19842e-07
-1.07769e-07
7.27109e-07
-6.40702e-08
-1.59868e-08
-3.24992e-07
-4.57727e-07
4.52393e-07
2.26272e-07
4.483e-07
5.91746e-08
-6.89119e-07
1.16374e-07
3.83388e-08
2.24663e-07
-1.79573e-07
3.25273e-07
-1.05431e-07
3.96625e-07
5.26172e-07
-7.78717e-08
3.21176e-07
7.54492e-08
-6.8292e-07
1.82395e-07
5.00524e-07
1.54083e-08
-5.53099e-07
3.08266e-08
-7.38014e-07
1.59034e-07
4.56993e-07
6.91789e-08
-4.22037e-07
1.7674e-08
4.04363e-07
-6.21641e-07
8.00323e-08
-1.40149e-07
6.01171e-08
2.80365e-10
-3.89829e-08
-5.94041e-07
1.02135e-07
4.91906e-07
-1.39959e-07
-2.2936e-07
-2.55978e-07
5.27388e-07
-3.21949e-07
3.23918e-07
2.48246e-07
-2.35204e-08
-1.87872e-08
-1.00657e-07
3.06304e-07
-3.00681e-07
3.24296e-07
-2.54744e-07
5.75514e-08
1.97192e-07
-4.34213e-07
2.61941e-08
4.08019e-07
6.90076e-08
-2.03927e-07
-2.42236e-07
5.27446e-07
-3.91765e-07
-5.23885e-07
-1.96565e-08
-5.35882e-07
-2.21052e-07
-3.36917e-08
-2.9735e-07
4.13716e-08
-2.47491e-07
2.01119e-07
4.63714e-08
-3.77188e-07
3.97225e-07
-5.1999e-07
-6.53312e-08
7.19436e-07
-5.58602e-07
2.04919e-09
-1.66255e-07
2.2341e-07
2.48057e-07
-1.23281e-07
-1.46108e-09
4.71486e-07
4.5506e-07
-8.52523e-08
-5.54374e-07
7.84942e-07
-5.95142e-07
5.7962e-07
2.2092e-07
-7.23303e-07
5.02383e-07
-3.40198e-07
7.31691e-07
-3.91492e-07
3.97017e-07
1.92364e-07
5.38253e-08
4.23475e-07
-2.50712e-07
-4.6638e-08
-5.14676e-07
6.85594e-09
5.0782e-07
3.72564e-07
-4.11947e-07
8.04839e-08
1.67762e-07
-2.28988e-08
-6.70103e-07
6.76408e-07
6.1494e-07
-2.17923e-07
5.36529e-07
-6.88311e-07
-2.98011e-07
4.72991e-08
4.16152e-07
2.75974e-09
1.97413e-07
9.52471e-08
1.09567e-07
1.8322e-07
2.62647e-07
2.7521e-07
2.33273e-07
5.76169e-08
-2.9089e-07
9.65152e-08
-6.204e-07
3.60287e-08
-2.33705e-07
5.65634e-07
-5.12564e-07
5.93988e-07
-7.28954e-07
1.34965e-07
9.99734e-08
9.33078e-08
-8.68556e-09
4.7813e-08
-3.91275e-08
-6.25714e-08
-1.91311e-07
-6.37072e-07
4.49378e-07
7.34422e-08
9.20204e-09
3.65589e-07
-1.90946e-07
-6.5785e-07
4.90358e-07
7.12968e-07
-4.31398e-07
-2.71438e-07
-5.58342e-07
-1.11761e-07
-4.81782e-07
1.74278e-07
-2.39287e-07
1.58539e-08
2.23433e-07
4.56063e-08
3.62759e-07
-7.02957e-07
-1.73893e-07
2.12594e-07
-2.08472e-07
-3.26392e-07
-6.50623e-07
-6.57957e-07
1.97953e-07
-7.38376e-07
-1.35763e-07
-6.62272e-07
5.19559e-07
6.321e-07
-3.91361e-07
5.47667e-08
1.69016e-07
1.7445e-07
-6.88364e-08
8.15797e-08
4.45867e-07
-4.95046e-07
1.13627e-07
7.30259e-08
-9.09049e-08
8.81635e-07
-1.5024e-07
-3.5579e-07
3.59372e-07
1.09471e-07
1.84257e-10
1.55538e-07
5.73902e-07
-1.80255e-07
-7.94345e-08
-1.12354e-08
9.84833e-07
-1.57421e-07
-5.33694e-08
-5.69914e-07
4.83928e-07
4.15052e-08
-6.24325e-07
1.94592e-08
1.42628e-07
-1.26774e-07
1.3813e-07
1.28536e-07
1.86657e-07
1.5681e-07
-3.34631e-07
-4.18982e-07
1.63029e-07
8.97765e-07
-2.18986e-08
-1.09953e-06
8.80905e-07
1.83398e-07
-7.7854e-07
7.81567e-07
-7.62108e-07
1.85661e-08
-5.93446e-07
7.38278e-07
9.41938e-08
7.86062e-08
1.35555e-07
7.4608e-07
-3.1983e-07
-3.12443e-07
4.13222e-07
-4.02514e-08
-5.1325e-07
6.69822e-07
-1.56572e-07
3.28253e-08
-1.69493e-07
3.02725e-09
-3.8165e-07
1.38676e-07
-5.16094e-07
-6.23095e-07
5.29806e-07
-3.1912e-07
3.66419e-07
3.90324e-07
-1.33014e-07
-2.84179e-07
-1.14753e-08
3.82956e-07
-5.93399e-07
6.49198e-07
-1.67063e-07
1.97813e-07
5.21316e-07
-4.83353e-07
-2.07647e-07
-1.94459e-07
1.99389e-08
-3.85465e-07
8.0235e-08
9.2565e-08
1.92554e-07
-4.6902e-07
5.71155e-07
-4.21943e-07
4.11487e-07
6.14641e-07
-4.75965e-07
-5.03994e-07
5.30188e-07
-3.16194e-08
3.348e-07
-7.49107e-07
3.07147e-07
9.23564e-08
-4.48132e-08
-7.77715e-07
2.34778e-07
2.11089e-07
-1.04336e-07
5.88263e-07
1.38347e-07
-5.17921e-07
-3.12625e-07
3.76849e-07
1.51175e-07
3.76171e-07
4.1698e-07
-4.82542e-07
6.23279e-08
-4.57632e-07
4.64488e-07
-4.84898e-07
2.40531e-07
2.2273e-07
2.57864e-08
3.50385e-07
-1.94792e-07
7.17657e-07
-4.88585e-07
2.85808e-07
-8.4548e-08
-4.99931e-07
7.45232e-08
6.761e-07
1.17333e-07
4.37274e-07
2.40977e-08
-4.37693e-07
4.58069e-07
-1.12298e-07
9.64328e-08
-1.80981e-07
6.05464e-07
-7.51419e-07
7.1489e-08
4.19106e-10
1.63882e-07
1.74953e-08
4.58187e-07
-5.92572e-07
2.22417e-08
7.08835e-09
9.87735e-08
-7.75153e-07
3.66176e-08
2.85241e-07
-2.60547e-08
1.72853e-07
-1.16606e-07
7.51771e-07
-3.52865e-07
6.14787e-08
1.55589e-07
5.79463e-10
-4.5739e-07
4.83702e-07
4.37943e-07
1.15507e-07
-5.5345e-07
1.10759e-07
-7.01514e-08
-1.58149e-07
-6.32091e-08
-2.56616e-08
-1.17335e-08
-1.82592e-07
2.20988e-07
-1.54505e-07
8.8703e-08
5.41355e-07
-2.74182e-07
2.02179e-07
-2.58084e-07
1.4167e-07
4.19121e-07
-5.18069e-08
7.47568e-08
2.57067e-07
2.15046e-07
3.83414e-07
-2.64645e-08
1.48997e-07
-1.75304e-07
3.67867e-07
-1.92563e-07
3.72899e-07
-5.19825e-09
8.67771e-07
4.34444e-07
-8.15617e-08
3.73766e-07
-4.23574e-08
3.17242e-07
4.34529e-07
-8.99568e-07
-4.89352e-07
-5.90807e-07
2.03474e-07
7.94641e-07
3.72899e-07
4.09722e-08
1.68756e-08
-2.19873e-07
-4.43314e-07
-3.6989e-08
3.16952e-07
-3.14903e-07
-1.83327e-07
-8.73142e-07
-1.45276e-08
8.68357e-08
1.09482e-07
8.65244e-08
1.6203e-07
-1.03218e-07
2.06718e-07
2.37847e-08
-2.3342e-07
2.9985e-07
9.18651e-08
-1.32546e-07
-2.06718e-07
2.3342e-07
1.32546e-07
5.12859e-08
-2.38059e-07
-3.84146e-08
-2.9985e-07
-9.18651e-08
-1.45276e-08
1.09482e-07
1.6203e-07
-2.38059e-07
-6.68434e-07
2.7127e-07
2.6578e-07
6.81305e-07
2.13741e-07
-1.83228e-07
1.83228e-07
2.6578e-07
-3.46077e-07
-2.19061e-07
2.00476e-07
4.1674e-07
-2.0565e-07
3.48563e-07
-2.59757e-07
3.39603e-07
-2.80015e-07
1.83132e-08
2.80015e-07
-3.54209e-09
-5.64625e-07
-3.78438e-07
1.1406e-07
-7.22992e-08
-8.31625e-08
5.21105e-07
-1.21335e-07
-4.15686e-08
-1.61731e-07
1.75763e-07
-7.77383e-07
-1.9755e-07
-4.59577e-07
1.9489e-07
4.07541e-07
1.83156e-08
-5.09857e-07
2.05054e-08
-8.52302e-08
1.95837e-07
1.41198e-07
-3.34422e-08
-6.11171e-08
3.2413e-07
-3.53995e-07
2.98654e-08
3.60825e-07
-1.03758e-07
5.29531e-08
-5.29531e-08
-1.93167e-07
-4.24409e-08
-4.35101e-07
7.61326e-08
1.86172e-07
-1.67858e-07
-1.21767e-07
4.45897e-07
5.18901e-07
-4.52246e-07
1.42915e-07
7.20878e-08
4.82933e-07
-2.93916e-08
2.8649e-07
-2.6374e-07
-1.29662e-07
-3.39328e-07
-5.35879e-08
-1.27393e-07
-7.2939e-08
4.64599e-07
1.86625e-07
4.84715e-08
-1.02059e-07
-5.88803e-08
-2.88637e-07
-5.08114e-08
4.36695e-07
-3.64286e-07
1.79846e-08
-1.79846e-08
1.95482e-07
6.62206e-08
-1.95482e-07
3.1083e-08
1.82058e-08
-1.82058e-08
-3.75479e-07
-4.77064e-07
-9.70881e-09
-1.18905e-07
-4.73501e-08
-6.08951e-07
-1.28581e-08
1.55486e-07
9.27733e-08
3.43657e-08
-2.27486e-07
-4.39853e-07
4.31702e-08
-3.02928e-07
5.90184e-07
-2.26726e-07
4.4134e-07
-3.50662e-08
-1.40423e-07
4.39734e-07
-4.39734e-07
4.43538e-07
-1.31884e-07
4.5956e-08
-4.86939e-07
-2.45888e-07
-8.19202e-09
2.5408e-07
1.18872e-07
4.90315e-08
-1.2517e-07
-1.26244e-07
-1.4268e-07
-7.8126e-08
2.68005e-08
-1.61718e-07
1.34386e-08
-1.40213e-07
-3.48582e-08
3.48582e-08
1.83133e-07
1.84734e-07
2.07647e-07
5.24231e-07
-1.49743e-07
-3.74487e-07
1.96838e-07
2.70084e-08
-1.66855e-08
-1.86625e-07
-2.38785e-08
1.66855e-08
-1.57336e-07
1.06844e-07
5.04923e-08
7.41576e-08
2.8111e-08
2.42092e-07
5.8575e-08
-7.51686e-07
4.31098e-07
3.20588e-07
-3.34422e-08
-1.39587e-07
-1.92563e-07
1.39587e-07
1.38545e-07
5.61574e-08
3.61989e-08
-2.50364e-08
-1.05825e-07
2.50364e-08
1.05825e-07
1.96349e-07
-1.96349e-07
-2.18213e-07
3.81553e-08
-3.57043e-07
-2.3795e-07
6.07635e-08
1.25408e-07
-1.2238e-07
-2.23713e-07
2.23713e-07
-3.52865e-07
-4.88082e-08
1.4268e-07
-1.09247e-07
6.85208e-09
1.31884e-07
-2.44667e-08
-2.0054e-07
-2.84464e-08
1.38765e-07
4.83909e-07
5.51147e-08
-9.74721e-08
1.1115e-07
-8.74341e-07
-9.70881e-09
-1.22024e-07
2.34394e-08
-2.41244e-08
-3.12081e-07
-8.8971e-08
-2.59834e-08