/*--------------------------------*- C++ -*----------------------------------*\
  =========                 |
  \\      /  F ield         | OpenFOAM: The Open Source CFD Toolbox
   \\    /   O peration     | Website:  https://openfoam.org
    \\  /    A nd           | Version:  9
     \\/     M anipulation  |
\*---------------------------------------------------------------------------*/
FoamFile
{
    format      ascii;
    class       volVectorField;
    location    "1";
    object      U;
}
// * * * * * * * * * * * * * * * * * * * * * * * * * * * * * * * * * * * * * //

dimensions      [0 1 -1 0 0 0 0];

internalField   nonuniform List<vector> 
1655
(
(-0.00789945 -0.013564 -3.58925e-18)
(0.00179694 -0.00176067 2.36797e-17)
(-0.123147 0.104947 1.90232e-17)
(0.0566965 -0.0148295 -1.14161e-17)
(0.0580949 0.0665699 0)
(-0.0191051 -0.024389 7.20503e-18)
(-0.146485 0.0847279 0)
(0.0217149 0.0781071 -1.28091e-17)
(0.0536116 0.130245 0)
(0.059516 0.0571623 -6.2407e-18)
(0.0547814 -0.0523812 2.85841e-17)
(0.0497985 -0.0587705 -2.81608e-17)
(0.0140688 0.0453662 -2.38182e-22)
(0.00290919 -0.0290908 -1.48754e-17)
(-0.00707128 0.0702399 1.47039e-17)
(0.0017536 -0.00801351 0)
(-0.0449378 -0.00454109 2.57005e-17)
(-0.00113658 -0.0330304 7.70008e-18)
(-0.0203903 0.00705565 -2.87733e-17)
(0.0020611 -0.0222252 -8.26276e-18)
(0.00424613 -0.0321497 3.36348e-18)
(0.0525566 0.141778 0)
(0.0348408 0.0806776 -1.54351e-17)
(0.0309842 0.0721939 7.16368e-18)
(0.00834494 -0.0418627 -4.51411e-18)
(-0.0276995 -0.00646312 -3.05378e-17)
(-0.00108633 -0.00504577 -1.33256e-17)
(0.0402262 0.129 -1.54308e-17)
(0.0330665 0.12161 2.08505e-17)
(0.00283211 -0.028262 -1.48706e-17)
(-0.18695 0.0373223 3.6844e-17)
(-0.0698922 0.138467 -3.93518e-18)
(0.00663107 -0.0716757 -5.46325e-18)
(-0.0272392 0.137751 0)
(-0.00569068 -0.0306559 0)
(0.00400148 0.123108 0)
(-0.0110628 -0.0240342 -1.93819e-17)
(-0.00223394 0.00328546 0)
(0.00505712 -0.0696463 -7.47636e-18)
(-0.00485355 5.71307e-05 -2.55629e-17)
(0.000879891 -0.0207103 1.44297e-17)
(0.0386301 0.0815865 1.24536e-17)
(0.00482403 -0.0629373 -7.81611e-18)
(0.0057839 0.0239785 2.27913e-17)
(-0.00110787 0.00485337 0)
(0.0825904 -0.0221967 0)
(0.0858269 -0.0159263 3.55035e-17)
(-0.00124859 0.00530026 0)
(0.0342806 -0.0049784 1.39394e-17)
(0.00486164 -0.0597676 1.90322e-18)
(-0.0202769 -0.0186365 2.14271e-17)
(-0.0989567 0.111402 -1.41773e-17)
(0.00853455 0.0873817 -1.57325e-17)
(0.0517152 0.128709 1.37957e-17)
(0.0277366 0.0439118 -1.79024e-17)
(0.0290318 0.0121904 0)
(-0.00360031 0.000795647 -6.99084e-18)
(0.0438924 -0.0412798 0)
(0.102262 -0.0390075 0)
(0.0363 0.0306186 1.5138e-17)
(-0.188669 0.0480376 -3.67958e-17)
(-0.0306155 -0.008505 0)
(0.000355348 -0.0286497 0)
(0.0299286 0.0941225 -3.54418e-18)
(0.0619532 0.0293445 0)
(-0.161626 0.0465399 0)
(0.133158 0.0135109 3.29806e-17)
(0.0703568 -0.0469216 -1.63917e-17)
(-0.0062354 -0.0287833 0)
(0.0344378 0.0708926 -1.42556e-17)
(0.0521336 -0.0381534 1.82313e-17)
(-0.145578 0.0595544 -8.64347e-19)
(0.00684547 -0.041717 -9.25005e-19)
(-0.0158768 0.0572324 1.34931e-17)
(-0.0552674 0.0567118 -1.71675e-17)
(0.0128586 -0.00450158 8.11205e-18)
(0.0286382 0.108979 -4.72899e-18)
(-0.00820205 -0.0185905 0)
(-0.000524351 -0.0111171 0)
(0.00335851 -0.028769 0)
(0.0779358 0.0238924 1.82333e-17)
(0.00796932 -0.00161706 -8.25572e-18)
(0.0264356 0.0377852 1.82988e-17)
(0.011657 0.0318691 9.18613e-18)
(0.00579761 -0.0458858 0)
(-0.00405054 0.00676621 0)
(-0.0897937 0.0766732 -1.03514e-17)
(0.00549796 -0.035734 0)
(0.00109117 0.0196039 -7.18193e-18)
(0.0327096 -0.00684135 0)
(0.0293791 -0.00956218 0)
(-0.117489 0.123888 8.96177e-18)
(-0.0149094 0.015303 1.76099e-17)
(0.0159237 -0.0062191 0)
(0.00314011 -0.0145063 0)
(-0.0210899 0.00837307 2.93138e-17)
(0.117275 0.0183306 -2.79719e-17)
(0.0873308 -0.0367102 0)
(-0.0745496 0.163229 -8.40896e-18)
(0.00910137 -0.0790588 1.80413e-17)
(-0.112702 0.110759 -5.6415e-17)
(0.0893452 0.0183564 -1.84781e-17)
(0.0372441 0.00579892 -1.82026e-17)
(0.0938482 0.0211275 1.94016e-17)
(0.0117894 -0.00917321 0)
(-0.0279831 -0.00672096 -1.12516e-18)
(0.0436267 0.112427 -1.56502e-17)
(0.00134068 -0.0208072 0)
(0.00633614 -0.0787756 0)
(0.0390526 0.00682784 -1.60108e-17)
(0.00342662 -0.0794129 1.25765e-17)
(0.0226032 -0.0356515 1.45744e-17)
(0.0451848 0.0131704 9.67636e-18)
(0.00744952 -0.0533309 1.65601e-17)
(0.0420447 0.112945 1.48528e-17)
(0.0066952 -0.000648237 -9.43216e-18)
(0.0418835 0.109753 -1.59084e-17)
(0.101827 -0.0318181 0)
(-0.00135364 0.0262721 1.42134e-17)
(0.0101301 -0.00515686 -3.19117e-17)
(0.0472354 0.0327228 -2.73177e-17)
(0.000816287 0.0671943 2.79385e-17)
(-0.145502 0.0654224 -2.19025e-17)
(0.173051 -0.0125965 2.04589e-17)
(0.125181 0.0298731 7.17658e-18)
(0.0310953 0.0847854 0)
(0.00355002 -0.0521119 -1.79813e-17)
(0.00429834 -0.0199454 1.62077e-17)
(0.00224943 -0.0018949 -2.25244e-18)
(0.00439394 -0.0629515 -2.15452e-18)
(0.0134099 -0.0272131 4.1212e-18)
(0.00337774 -0.0802918 2.21946e-17)
(0.0343347 0.0986309 1.37376e-17)
(0.0311842 0.0823193 1.44356e-17)
(1.82456e-05 -0.00716583 0)
(-0.00111523 0.0116805 0)
(0.0530482 0.0781326 -8.39611e-18)
(0.00736156 0.0496235 1.42764e-17)
(-0.00150008 -0.00246783 7.64044e-18)
(0.126034 0.0028795 -7.47273e-18)
(0.0194171 0.021936 9.88454e-18)
(-0.00433781 0.00470849 1.36767e-17)
(-0.00429449 0.00429493 0)
(0.0620742 0.0405931 0)
(-0.106468 0.0121008 -8.44991e-18)
(0.00402099 0.0413362 0)
(0.0712679 0.040234 -2.93628e-17)
(0.0485077 0.042121 2.35905e-17)
(0.0568088 0.0432633 1.52294e-17)
(-0.225683 0.0285811 0)
(-0.219104 0.0261245 1.43572e-17)
(-0.185055 0.0249123 -7.74999e-18)
(-0.0716701 0.0350383 1.51363e-17)
(-0.162085 0.0309329 1.31309e-17)
(-0.0223773 0.0153034 0)
(0.00258028 -0.0493655 2.90077e-17)
(0.0502248 0.0229404 1.85036e-18)
(0.088778 0.0591881 7.76968e-18)
(0.04345 0.11422 0)
(0.0721234 0.0091472 -1.9704e-17)
(0.0861641 0.0483452 2.21925e-17)
(0.0518481 -0.0371833 0)
(0.0535992 0.12068 -2.24711e-22)
(0.0722701 0.0675784 0)
(0.0567715 0.0556973 0)
(0.0872741 -0.0439658 -7.58364e-18)
(0.0462162 0.127696 0)
(0.0401371 0.105664 -2.99353e-17)
(0.0964161 0.0234796 4.55031e-18)
(-0.00739613 0.000488971 0)
(-0.08573 -0.0274553 0)
(0.0337932 0.068537 0)
(0.071524 0.0460482 9.13758e-18)
(0.0482932 0.116585 1.58205e-17)
(0.00508471 -0.0391367 9.66851e-19)
(0.0459998 0.115044 1.57598e-17)
(0.022372 -0.0215126 4.13912e-18)
(-0.0125729 0.0154542 0)
(0.0115142 -0.0651469 -1.71916e-17)
(0.00168231 -0.0223938 1.35102e-17)
(0.0200325 0.00426846 1.96617e-17)
(0.0257269 0.054243 1.2356e-17)
(-0.0270849 -0.0197287 -2.62132e-17)
(0.15698 -0.0103385 -4.47423e-18)
(-0.00710622 0.000297838 -8.66995e-18)
(0.0163236 -0.0717174 0)
(0.00683387 0.00279641 0)
(0.0133698 -0.0699963 0)
(-0.00466766 -0.0193973 0)
(0.0239822 0.061287 -1.20054e-17)
(-0.00375553 0.0055477 -1.56066e-17)
(-0.0253694 -0.00211076 0)
(-0.00464772 0.000424412 -1.61131e-17)
(-0.0912164 0.0847843 1.99587e-17)
(0.0217173 -0.077081 0)
(0.000706967 -0.0113283 -9.77722e-18)
(-0.00279317 -0.00705497 0)
(0.0184223 -0.0754869 0)
(-0.00865358 0.0286281 1.86228e-17)
(0.0148008 0.0473111 0)
(0.124935 -0.0181562 1.02323e-17)
(0.116403 -0.0150954 -4.59109e-18)
(-0.116296 0.0892171 1.6721e-17)
(-0.161826 0.0611524 3.73145e-17)
(0.0543304 -0.0189712 -1.42772e-17)
(0.00646502 -0.0374316 1.13732e-17)
(0.0141534 -0.0710272 0)
(-0.0151517 -0.0067215 0)
(0.00587962 -0.0674861 5.10342e-17)
(-0.0341462 0.121778 0)
(0.00803642 0.100455 2.69411e-17)
(-0.0502472 0.0811694 -7.42375e-18)
(-0.00231678 0.00648539 0)
(0.0362919 0.0972221 1.56763e-17)
(0.0032664 -0.0259519 -1.60644e-18)
(0.133962 -0.0040879 3.48185e-17)
(0.0216298 0.0985482 -8.73246e-18)
(0.0281793 -0.00365468 0)
(0.00950577 0.0374273 1.53992e-17)
(0.0139802 0.0556642 0)
(-0.000708803 0.00642623 0)
(0.00706338 -0.0394547 -3.28676e-17)
(0.00890429 -0.0696056 2.31135e-17)
(0.0219133 0.0793527 1.60056e-17)
(0.0113222 -0.0722914 -1.66856e-17)
(0.0274183 -0.0810576 1.6048e-17)
(0.0282428 -0.0803981 -1.5992e-17)
(0.0356497 -0.0147751 0)
(0.0140669 -0.0264305 1.95559e-17)
(0.0321842 -0.0608244 1.56264e-17)
(0.0360417 -0.056571 0)
(0.0205687 -0.12861 -1.94754e-17)
(0.0430887 -0.149736 1.94382e-17)
(-0.0165677 -0.0144898 -3.09368e-17)
(0.016884 -0.0736386 -1.64811e-17)
(0.0319279 -0.0603061 1.61062e-17)
(0.0239322 -0.0796965 0)
(-0.0163959 -0.000111369 0)
(0.0256574 -0.0773771 1.9927e-17)
(0.0320607 -0.167468 1.55879e-17)
(0.00529407 0.00994788 -1.50333e-17)
(-0.00691451 0.00482353 2.85723e-17)
(0.045036 -0.148493 -1.95381e-17)
(0.000293899 -0.00918696 1.36563e-17)
(0.0165633 0.0674313 4.00567e-18)
(0.00304682 -0.025015 -2.0257e-17)
(-0.186383 0.0146534 1.18845e-17)
(0.0515828 0.118987 0)
(0.0222856 -0.0753107 -3.99557e-18)
(0.021909 0.0728977 0)
(-0.00228776 0.028 -1.30194e-17)
(0.00286336 -0.0211902 3.2453e-18)
(0.0748545 -0.0280548 -1.57369e-17)
(-0.0304279 0.108548 -1.12569e-17)
(0.020185 -0.0722143 1.62015e-17)
(0.0260545 0.0645559 -1.92947e-17)
(0.0131875 -0.0779577 -1.66357e-17)
(0.0195497 0.0731903 -3.98947e-18)
(-0.00627509 0.0391734 2.13306e-17)
(0.00899343 -0.064448 1.52536e-17)
(0.0675778 -0.0614702 1.18571e-17)
(0.0117086 -0.0611539 1.64488e-17)
(0.0317243 -0.0821219 1.59284e-17)
(-0.033795 0.0458825 1.55174e-17)
(0.0549555 -0.0213803 1.58094e-17)
(0.0427144 0.116576 1.58414e-17)
(0.0113279 -0.0623733 0)
(0.00282777 -0.0385759 -2.24526e-17)
(0.011015 -0.0756219 8.71519e-18)
(0.00399999 -0.0401663 0)
(0.00960268 0.0673023 -1.68745e-17)
(-0.0203963 -0.0216152 1.21653e-17)
(-0.00575533 0.00832632 8.37693e-18)
(0.0143633 -0.0633272 0)
(-0.0241218 -0.00196714 9.64519e-23)
(-0.0264127 -0.0160477 -1.22403e-17)
(-0.179302 0.00737051 0)
(0.0171919 0.0600437 1.99535e-17)
(0.00584342 -0.00182293 -2.02997e-17)
(0.0728307 -0.0922347 3.89126e-18)
(0.0117528 0.0215586 1.64268e-17)
(0.0452141 0.118687 3.97174e-18)
(-0.0346919 -0.00703437 1.62335e-17)
(0.00801256 0.0561862 1.42495e-17)
(-0.00883139 0.0450117 -2.68829e-17)
(-0.0263946 -0.0150021 -1.62892e-17)
(-0.000543764 0.0147098 1.61983e-17)
(0.00927794 -0.0795492 1.44819e-17)
(0.0142012 -0.0660051 0)
(-0.0122733 -0.027353 0)
(-0.0162157 -0.0167959 1.59331e-17)
(0.00153871 -0.0182628 1.55553e-17)
(0.00831421 -0.0515151 3.36394e-17)
(0.038481 0.0844849 0)
(-0.0135955 0.0133198 -1.61746e-17)
(0.0242793 -0.0794029 4.0574e-18)
(0.0127083 0.0483786 0)
(0.0271342 -0.000380836 -2.73018e-17)
(-0.000417343 -0.00493267 -1.58424e-17)
(0.00990239 -0.071765 -4.0105e-17)
(0.0141735 -0.0799511 -1.68617e-17)
(0.00417689 -0.00840347 0)
(-0.00871854 -0.0169613 2.44687e-17)
(0.0299042 -0.0808445 -4.03086e-18)
(0.0322275 -0.0815845 -3.18408e-17)
(0.00603123 0.00559248 -1.72769e-17)
(0.0193718 -0.0804277 -4.08588e-18)
(0.0197441 -0.0710441 3.98997e-18)
(-0.0151012 0.0161672 -4.02381e-18)
(0.0357463 -0.0836025 -1.58593e-17)
(-0.0376174 -0.00415991 0)
(-0.135502 -0.00554915 8.48686e-18)
(0.0166691 -0.0688184 -4.01703e-18)
(0.074521 -0.0772207 -3.95246e-18)
(0.0431343 0.117109 0)
(-0.00990044 0.0223141 0)
(-0.000316824 -0.00410498 -1.58311e-17)
(0.0205017 0.0361105 -1.61732e-17)
(0.0359818 -0.0832662 2.48319e-22)
(0.0146648 -0.0795908 1.76429e-17)
(0.0106582 0.0304272 0)
(0.00697003 -0.0436616 -1.69365e-17)
(0.0122833 -0.079316 2.22878e-18)
(0.0279115 -0.0791901 -4.0462e-18)
(0.0174498 -0.0799367 -1.64096e-17)
(0.0692114 -0.0248852 2.27009e-17)
(0.0347205 -0.0158967 7.78688e-18)
(0.0436922 0.118921 -2.00048e-17)
(0.0143376 -0.0761718 0)
(0.114173 -0.0434196 -1.56606e-17)
(0.0203652 -0.067297 0)
(-0.00140324 0.0270049 1.61582e-17)
(0.00106438 -0.00842795 7.21399e-18)
(0.0196953 -0.0683988 -1.60746e-17)
(-0.025849 0.00622818 1.61091e-17)
(0.0258632 -0.0757811 -1.19854e-17)
(0.099814 -0.0355329 1.17822e-17)
(0.0110076 -0.0560112 -1.68326e-17)
(0.0341533 -0.083619 0)
(-0.0269798 -0.00273618 0)
(0.0130469 -0.0802986 1.73908e-17)
(0.0350712 -0.082712 1.60138e-17)
(-0.0315243 0.00372529 0)
(0.0158272 -0.0838833 -1.94324e-17)
(0.0121622 0.0296322 0)
(0.0334474 -0.0810655 -2.81207e-17)
(0.00417441 -0.0378924 0)
(0.0228766 -0.0806391 4.06843e-18)
(0.0178989 -0.0801774 0)
(0.0140284 -0.0596285 0)
(0.0126924 0.0340914 0)
(0.06243 -0.0241687 1.56486e-17)
(0.0378956 -0.111563 0)
(0.0185707 -0.0783633 1.63669e-17)
(0.0458077 0.091967 0)
(0.0396365 -0.0854686 0)
(0.0330499 -0.0831345 0)
(0.0374698 -0.0848306 -2.78733e-22)
(0.00676316 0.0326126 -1.59907e-17)
(0.0323015 -0.0788966 1.98615e-17)
(0.0174019 0.0338866 -1.36691e-17)
(0.0170752 -0.0637083 0)
(0.0497927 0.103091 -4.28549e-18)
(0.0667224 -0.0997799 1.56515e-17)
(0.0052026 -0.00769448 1.65013e-17)
(0.008479 0.0211522 -1.38766e-17)
(0.0126789 -0.0728948 4.21194e-18)
(0.012688 0.033058 -1.5712e-17)
(0.00580259 0.0431337 0)
(0.0406705 -0.075141 0)
(-0.00286944 0.00315034 0)
(0.0163137 -0.0768005 1.63797e-17)
(0.000247237 0.00128649 0)
(0.0415728 -0.0866125 0)
(0.0171017 0.0333181 0)
(-0.0050867 0.0217965 4.0086e-18)
(0.149459 -0.0486603 1.17071e-17)
(0.0379242 0.100814 -2.81342e-22)
(0.0401693 -0.0640831 3.98721e-18)
(0.0295818 -0.0821786 -1.60684e-17)
(0.0351394 -0.0461181 -4.09664e-18)
(0.0734331 -0.100949 0)
(0.0424379 0.112091 -1.6437e-17)
(0.0645181 -0.0963582 -1.95398e-17)
(0.0245949 -0.0811046 -4.04069e-18)
(0.0440037 0.0951108 0)
(0.0423188 -0.0871981 0)
(0.00673473 0.0452747 -3.64817e-22)
(-0.0385129 4.74432e-05 0)
(0.0293239 -0.0782798 -3.98368e-18)
(-0.000549762 -0.0127635 1.50574e-17)
(0.0815087 -0.0290718 -1.56467e-17)
(0.150413 -0.0534695 -1.56072e-17)
(0.0364294 0.0889713 0)
(0.0383282 -0.0832905 0)
(0.0457682 -0.0884125 -1.5751e-17)
(0.039715 -0.0854938 1.57726e-17)
(-0.0300465 -0.00753507 0)
(0.051071 0.112564 0)
(0.078341 -0.033855 0)
(0.0383196 -0.0853145 -1.58587e-17)
(0.02031 -0.0390801 3.34837e-17)
(0.0760358 -0.105146 3.89934e-18)
(0.0467558 0.118707 -1.98181e-17)
(0.136181 -0.0412654 -3.90181e-18)
(0.0229437 -0.0748442 -1.62496e-17)
(0.0299807 0.078286 1.61168e-17)
(0.0925967 -0.0271618 -1.96353e-17)
(-0.000862546 0.000774091 0)
(0.143046 -0.0419509 0)
(0.0217522 0.025918 0)
(0.072958 -0.109657 3.89823e-18)
(0.0584489 -0.0952897 3.92612e-18)
(0.145036 -0.0499954 0)
(0.0266208 -0.0736606 0)
(0.0687738 -0.112054 -1.55964e-17)
(0.0284878 0.0839946 0)
(0.0289463 -0.159772 0)
(0.0568034 -0.0928906 -1.17985e-17)
(0.0466184 -0.0893022 1.5735e-17)
(0.0526433 -0.0293215 1.57228e-17)
(0.070782 -0.106449 -3.8997e-18)
(0.043161 0.117319 3.93922e-18)
(0.0437627 -0.0878367 0)
(0.0525427 -0.0899032 1.57367e-17)
(-0.155081 -0.0291099 -9.91444e-18)
(0.0472473 -0.170448 0)
(0.0395977 -0.084768 1.19454e-17)
(0.02291 -0.0711828 1.60323e-17)
(0.0332564 0.199166 1.93587e-17)
(0.022779 -0.0804135 0)
(0.038185 0.133306 3.67374e-22)
(0.0506537 -0.0903818 0)
(0.0480662 0.0362158 -5.14608e-18)
(0.0665213 -0.10964 1.17002e-17)
(0.0887232 -0.116935 -1.16751e-17)
(0.0433756 -0.0746445 1.59377e-17)
(0.0628651 -0.0162447 6.75872e-18)
(0.0144712 0.0118657 0)
(0.0771663 -0.115499 0)
(-0.00344709 0.00566824 1.37993e-17)
(0.0497681 -0.0957297 0)
(0.114667 -0.0302966 1.95701e-17)
(0.0438091 -0.0884569 0)
(0.0545808 -0.0950892 0)
(0.0830543 -0.114965 -1.94762e-17)
(0.0386529 0.135526 1.55883e-17)
(0.135885 -0.0505079 0)
(0.0331663 0.162386 -6.73191e-22)
(0.0875597 -0.03279 1.56543e-17)
(0.0254799 0.216242 -3.87078e-18)
(0.15027 -0.112147 -1.54958e-17)
(0.0179574 0.231725 -3.85298e-18)
(0.0620486 -0.100377 3.90709e-18)
(0.0297745 0.233791 -3.08691e-17)
(0.0572177 -0.102516 1.95359e-17)
(0.0743447 -0.0113347 0)
(0.0488005 -0.0923896 0)
(0.0326651 0.171236 0)
(0.050624 0.115144 0)
(0.0816992 -0.0951601 -3.89926e-18)
(0.0494685 -0.0978432 -3.9123e-18)
(0.0768311 -0.0975841 3.90224e-18)
(0.14603 -0.0962338 -1.55119e-17)
(0.0398717 -0.0335232 -1.57277e-17)
(0.039796 0.103817 3.16515e-17)
(0.0552136 -0.0974507 -3.9118e-18)
(0.0485848 -0.090957 0)
(0.0499008 -0.102186 3.94259e-18)
(0.0858994 -0.102001 0)
(0.08734 -0.0982743 -1.56009e-17)
(0.0412018 -0.0601137 1.19258e-17)
(0.0633566 -0.103461 3.90628e-18)
(0.121732 -0.0408892 3.9078e-18)
(0.181839 -0.113403 1.54542e-17)
(0.0912921 -0.105715 -3.89678e-18)
(0.0857057 -0.0990972 -2.72767e-17)
(0.0947082 -0.118134 -1.16684e-17)
(0.0429065 -0.109983 1.17921e-17)
(0.0069562 0.160114 -7.47307e-18)
(0.0361966 -0.0821196 -1.98204e-17)
(0.133761 -0.0245373 0)
(0.0507988 -0.103775 -3.90501e-18)
(0.0052712 0.230375 3.85954e-18)
(0.0919248 -0.113452 -3.89123e-18)
(0.0579045 -0.105123 -1.17181e-17)
(0.0217846 0.160656 -1.54474e-17)
(-0.0150953 0.200507 0)
(0.138026 -0.0289732 0)
(0.0476365 -0.0862312 -3.95878e-18)
(0.190619 -0.108102 -3.47471e-17)
(0.0379242 0.138803 -1.55828e-17)
(0.0608833 -0.109754 3.90081e-18)
(0.124472 0.153453 -3.87913e-18)
(0.131962 -0.0809671 -1.55475e-17)
(0.0924712 -0.115258 3.89249e-18)
(-0.139012 -0.0315341 -2.2081e-19)
(-0.0112832 0.18233 0)
(0.0922167 -0.118103 1.16738e-17)
(0.109703 0.178129 1.93954e-17)
(0.175091 -0.0577648 0)
(0.0888751 -0.105454 1.55845e-17)
(0.0187575 0.139386 7.84769e-18)
(0.183897 -0.0839922 1.93527e-17)
(-0.114568 -0.0713855 0)
(0.154317 -0.064063 1.16518e-17)
(-0.0132647 0.219803 -1.5484e-17)
(0.171708 -0.0671266 -3.88044e-18)
(0.13285 -0.0884965 -1.34882e-21)
(0.00443279 0.204573 -1.16141e-17)
(0.129487 0.00850709 1.17924e-17)
(0.136802 -0.0713974 -1.94327e-17)
(0.0278899 0.107789 -3.90757e-18)
(0.0950015 -0.115851 -3.89113e-18)
(-0.0232404 0.211427 0)
(0.143621 0.127633 1.55133e-17)
(0.155872 -0.0870649 0)
(0.110358 -0.108727 1.16613e-17)
(-0.140133 -0.0215316 1.40028e-17)
(-0.14611 0.0148096 0)
(0.0932713 -0.101842 -1.55541e-17)
(0.0908297 -0.170645 0)
(0.0839987 -0.0856007 3.13567e-17)
(0.174258 -0.0945231 0)
(-0.156858 0.00609099 -1.49599e-17)
(0.0642925 -0.121763 1.9506e-17)
(0.146849 -0.0536841 -1.17325e-17)
(0.149507 -0.0735036 9.0888e-22)
(0.113124 -0.104863 3.88645e-18)
(0.086787 0.0135782 -1.9483e-17)
(0.16195 -0.0451454 1.56432e-17)
(0.0276787 0.16785 1.55261e-17)
(-0.0332577 0.0294436 -8.72338e-18)
(0.0532959 -0.00386884 1.47997e-17)
(-0.0289028 -0.0195089 9.82062e-19)
(0.00328659 -0.00179442 1.87262e-18)
(-0.00232949 -0.00375282 3.20025e-22)
(-0.0193197 -0.000752237 -3.19797e-17)
(0.0256844 0.00281226 0)
(0.0447323 -0.0156044 -1.37957e-17)
(-0.0097501 0.000738154 -2.31667e-17)
(-0.11045 0.0610304 -4.05572e-17)
(-0.0249218 -0.0108889 -1.56956e-17)
(0.0479134 -0.00777655 0)
(-0.0113604 0.0214505 2.29925e-17)
(-0.0217439 -0.0210781 1.57911e-17)
(-0.0411875 0.0231456 1.70897e-17)
(0.0548772 0.00381633 0)
(0.0965801 -0.114075 1.16712e-17)
(0.0301088 0.0138191 -2.43656e-17)
(0.00623459 -0.00717649 0)
(0.11903 -0.0917432 -3.88832e-18)
(-0.0568566 0.00220346 0)
(0.132842 -0.0639816 -1.16736e-17)
(0.119805 -0.0975932 3.88667e-18)
(-0.11655 -0.059926 0)
(0.0213664 0.0233377 0)
(0.0881421 -0.11026 3.89303e-18)
(0.152547 0.104211 -1.55116e-17)
(0.00642654 0.216386 -3.86976e-18)
(0.165301 -0.123298 1.15972e-17)
(0.140659 0.0917384 -2.71989e-17)
(0.0543895 -0.112711 3.93031e-18)
(0.0266695 0.12849 -1.15527e-17)
(0.019049 -0.0125565 0)
(-0.110943 0.00745017 1.15048e-21)
(0.13486 -0.118838 1.93751e-17)
(0.0518143 -0.091876 -3.92245e-18)
(-0.00838727 0.211041 6.15217e-21)
(0.067835 0.0517973 -1.16269e-17)
(0.0756911 -0.0817603 -3.94686e-18)
(0.0277592 0.225026 3.08736e-17)
(0.0511446 0.0284427 1.43294e-17)
(0.0276409 0.102569 3.51675e-17)
(0.0624735 0.117086 -1.93366e-17)
(0.123337 -0.104641 -1.16508e-17)
(0.124397 -0.0832665 1.94412e-17)
(0.124915 -0.0232482 -3.13314e-17)
(-0.103588 -0.0420111 1.56111e-17)
(0.0824552 -0.106342 -1.94855e-17)
(0.135161 -0.0549856 1.56107e-17)
(0.147662 -0.0455035 4.46541e-22)
(0.0893557 -0.0275883 0)
(-0.0956514 0.0288556 2.64515e-17)
(0.138838 0.114299 1.16535e-17)
(0.160671 -0.0381137 1.58272e-17)
(-0.0306234 0.19046 3.05772e-17)
(0.109414 -0.165284 1.55019e-17)
(0.204686 0.0268237 3.87123e-18)
(0.0887006 -0.147017 -1.1665e-17)
(0.0911449 -0.110507 -1.55735e-17)
(0.123125 -0.148803 3.87333e-18)
(0.127919 -0.110037 0)
(0.128384 -0.0581119 -3.88706e-18)
(0.0747531 -0.120251 -3.89621e-18)
(-0.0931748 -0.0236476 -1.56169e-17)
(0.072312 -0.0722961 3.12791e-17)
(0.0379328 0.0315014 -1.45479e-17)
(0.125412 0.00163845 -1.16774e-17)
(0.013304 0.208786 -1.54543e-17)
(0.119069 0.0651935 -1.16498e-17)
(-0.157617 0.021485 3.87951e-18)
(-0.0434975 0.139361 1.12857e-17)
(0.014872 0.178076 1.55433e-17)
(-0.148951 0.0228337 7.64514e-18)
(-0.105638 0.0137555 0)
(-0.0271036 0.00529346 -8.40059e-18)
(0.0330621 0.028362 -2.67397e-17)
(-0.00279697 0.00273987 3.18656e-17)
(-0.078787 0.0155514 3.63725e-18)
(0.109993 -0.106364 -1.55532e-17)
(0.112033 -0.0932425 3.89086e-18)
(-0.00347617 0.00229999 0)
(-0.130513 0.0179284 -3.20899e-17)
(0.0424639 0.0258854 0)
(0.108693 0.126625 -1.94049e-17)
(-0.0842703 -0.0819555 1.56306e-17)
(0.123206 -0.0670046 1.55698e-17)
(0.0644153 -0.112037 -1.55965e-17)
(-0.0524879 0.0197075 1.9484e-17)
(-0.0820338 -0.0698494 -1.56125e-17)
(0.109872 -0.151011 0)
(-0.0649752 -0.117726 -3.12518e-17)
(-0.0202716 0.166081 -1.86327e-17)
(0.0875125 -0.124015 1.94957e-17)
(0.124958 0.0946045 1.55746e-17)
(0.132191 -0.160473 -1.16255e-17)
(0.142621 -0.134173 0)
(0.145349 -0.0898449 3.87881e-18)
(0.21035 -0.00163372 -7.74016e-18)
(0.0811118 -0.116798 -3.89437e-18)
(0.197241 0.0401528 1.16031e-17)
(0.143311 -0.0346861 0)
(0.143138 -0.0257837 1.71535e-17)
(0.119659 -0.0757425 -1.94613e-17)
(0.138013 0.0269751 3.49463e-17)
(0.12719 -0.0471981 0)
(0.100451 -0.0570437 7.77701e-18)
(0.106862 -0.100057 0)
(0.112814 -0.110691 3.88417e-18)
(0.0910977 -0.0805293 -1.94916e-17)
(-0.0368195 0.16464 -1.34085e-17)
(0.0801353 -0.112392 1.16862e-17)
(0.114208 -0.0574299 0)
(0.105224 -0.0839828 -2.05258e-17)
(0.0191269 -0.0314554 1.57643e-17)
(0.100822 -0.110867 -3.89034e-18)
(0.147279 -0.030108 -1.70282e-17)
(0.13711 0.141275 -1.5501e-17)
(-0.0768804 -0.0376181 -3.9616e-18)
(0.128579 0.0903719 0)
(0.0757486 -0.0948488 0)
(0.095361 -0.119098 -3.88852e-18)
(0.103353 -0.114649 0)
(0.0985903 -0.117265 1.94492e-17)
(0.0580259 -0.081562 0)
(0.0968604 -0.115403 3.89189e-18)
(0.0498833 0.215591 0)
(0.142879 -0.148241 1.15943e-17)
(-0.041538 -0.0880785 0)
(0.104397 -0.111543 1.55532e-17)
(0.075771 0.142397 3.87622e-18)
(0.167625 0.0771244 2.71393e-17)
(0.10277 -0.113726 -1.9437e-17)
(0.0744489 -0.115841 0)
(0.0274083 0.184509 0)
(0.144187 0.0146964 1.52522e-17)
(0.109602 -0.0767353 2.40581e-17)
(0.115797 -0.0495264 0)
(0.0789311 -0.0994807 0)
(0.0817303 0.0797736 2.71625e-17)
(0.176071 -0.0439551 1.55033e-17)
(0.154791 0.0343788 -3.95104e-18)
(0.037065 0.126748 0)
(0.153661 0.0683426 1.55389e-17)
(0.201443 -0.00534534 7.75259e-18)
(0.0389129 0.201376 -3.87151e-18)
(0.0197641 0.0577274 0)
(0.0103627 0.160694 3.86134e-18)
(0.138769 0.0367748 -6.98475e-18)
(0.0429841 0.228985 0)
(0.0670245 0.193036 0)
(0.193849 0.0394091 -7.7394e-18)
(0.0807536 -0.116638 3.89535e-18)
(0.17374 0.0882802 -7.74252e-18)
(-0.0612111 -0.107231 3.90782e-18)
(0.0984674 -0.0653688 7.75831e-18)
(0.0828604 -0.0168888 7.3286e-18)
(0.0939078 0.177018 0)
(0.114086 0.147383 7.75427e-18)
(0.156081 0.118505 -3.87628e-21)
(0.166493 0.0591137 3.88009e-18)
(0.0130571 0.0359136 0)
(0.141477 0.127366 3.87283e-17)
(0.0934947 -0.1036 1.94685e-17)
(0.0563257 0.225772 -3.86125e-18)
(0.147027 0.0289794 -1.15782e-17)
(0.0570034 0.173945 0)
(0.0824285 -0.0975245 -2.02462e-17)
(0.0863783 -0.086419 2.74871e-17)
(0.0892448 -0.117433 -3.89126e-18)
(0.0977409 -0.0983248 3.89404e-18)
(0.059831 -0.0727973 1.66564e-17)
(0.182632 0.0682524 -2.32331e-17)
(0.0499793 0.0980418 0)
(0.0623311 0.0665325 -1.95967e-17)
(0.149113 0.0540802 0)
(0.11524 -0.137139 -1.55058e-17)
(0.0759853 0.210358 3.47498e-17)
(0.0248737 0.181127 -1.44575e-21)
(-0.0423369 -0.13677 1.55856e-17)
(0.20797 -0.0291411 1.93657e-17)
(-0.0939996 -0.0955313 0)
(0.108027 -0.117404 -3.88839e-18)
(0.13498 -0.135077 1.16285e-17)
(0.127379 -0.0152445 0)
(0.106563 0.0604668 4.11288e-18)
(0.0406634 0.146511 1.557e-17)
(0.0881652 -0.118631 -1.16722e-17)
(-0.0385856 -0.0271286 0)
(0.159951 0.073441 0)
(0.116918 0.168969 0)
(-0.0359188 0.00250021 0)
(0.0932742 -0.117991 1.55653e-17)
(0.0505668 0.117573 1.97738e-17)
(-0.0207229 -0.133311 -1.56784e-17)
(0.0469764 0.221699 -3.86435e-18)
(0.0481167 0.123413 -1.56103e-17)
(0.125219 -0.0971604 1.16538e-17)
(0.126913 0.073746 0)
(-0.0794395 -0.0676964 3.91097e-18)
(-0.0134053 0.0291541 3.54199e-17)
(0.0354603 0.148167 0)
(0.161032 0.0936813 -1.93622e-17)
(-0.0101742 0.0191784 -3.93892e-18)
(0.0362099 0.116558 -1.17125e-17)
(0.0416687 0.11969 0)
(0.191493 0.00466588 -1.8831e-21)
(0.0899704 0.194642 -3.09416e-17)
(0.164391 0.0261341 -3.95458e-18)
(-0.0124747 -0.154165 0)
(0.00643972 -0.0208175 0)
(0.0567143 -0.0822898 -1.2911e-17)
(-0.0134893 -0.109291 -2.99439e-21)
(0.0950213 0.189914 -1.54873e-17)
(0.182607 0.0741759 -1.1606e-17)
(0.0400463 0.17589 -1.55223e-17)
(0.0781073 -0.0995327 0)
(0.135086 0.0484413 1.82009e-17)
(0.188679 0.027368 7.82938e-18)
(0.0358354 0.152238 -6.52565e-22)
(0.139175 0.0619285 -3.96219e-18)
(0.0891963 0.054458 0)
(-0.0284765 -0.0235239 -2.74515e-17)
(-0.105374 -0.0747966 -3.14861e-17)
(0.0136346 0.0501216 0)
(0.0283103 0.0857724 1.56641e-17)
(0.0455988 0.17463 1.55243e-17)
(0.0894995 -0.111314 0)
(0.000437099 0.0366373 -1.57319e-17)
(-0.066517 -0.112436 -1.55904e-17)
(-0.0876748 -0.101527 1.60892e-17)
(0.0504236 0.0882055 1.17381e-17)
(0.0170923 0.0587229 0)
(0.115223 0.0207277 -1.53821e-17)
(0.0439354 0.141968 -1.55713e-17)
(0.174953 0.0358938 3.95392e-18)
(-0.0435911 -0.137591 0)
(0.036458 0.112491 0)
(0.0207342 0.209727 -1.1603e-17)
(-0.0497838 -0.100287 1.56567e-17)
(0.0382978 0.110142 -3.90418e-18)
(0.0286153 0.0790786 0)
(0.113434 0.0366441 0)
(0.164359 -0.140481 -2.70501e-17)
(0.186633 -0.0221638 -3.87681e-18)
(0.057909 -0.0653894 4.19298e-18)
(0.058898 0.212511 1.93267e-17)
(0.200473 0.0225063 1.16078e-17)
(0.210835 -0.010828 -2.70809e-17)
(0.0336618 0.128786 -1.94917e-17)
(0.0316193 0.11431 -1.56171e-17)
(0.0415093 0.0948628 1.95606e-17)
(0.0339919 0.129858 3.50851e-17)
(0.171417 0.0137681 1.16294e-17)
(0.177587 0.0362429 -1.16122e-17)
(-0.0117884 0.0282437 -4.00749e-18)
(0.0977465 -0.117671 0)
(0.0556197 0.194782 -3.10008e-17)
(0.188436 -0.0749865 -1.54626e-17)
(0.0356735 0.0779015 -1.56604e-17)
(-0.0616169 -0.0700389 1.5658e-17)
(0.0744258 0.214542 -1.54644e-17)
(0.0555345 0.09818 0)
(0.0678323 0.0203017 0)
(0.0220507 -0.0778076 0)
(0.163713 -0.13178 1.54518e-17)
(0.129235 -0.0169211 0)
(-0.0133887 0.020763 -1.18151e-17)
(0.0508063 0.110388 0)
(-0.0220871 0.00523359 0)
(0.0397972 -0.0154458 0)
(0.0393268 0.0142103 -3.93165e-18)
(0.0359648 0.0902211 0)
(0.0852831 -0.110798 1.55822e-17)
(0.173834 -0.0943139 -3.86505e-18)
(0.0597199 0.0555197 0)
(0.00875932 -0.0298078 -1.9914e-17)
(-0.00848844 -0.0595479 -1.57853e-17)
(-0.00354634 0.00570376 0)
(0.181957 -0.116863 3.86248e-18)
(0.0525361 -0.062045 0)
(0.0207427 -0.0653583 1.19221e-17)
(0.00852533 0.00379275 0)
(0.10551 0.0401564 0)
(0.00332592 -0.0591109 -1.58171e-17)
(0.0497381 0.0281216 0)
(0.0373358 0.0830586 -1.56617e-17)
(0.0208419 0.0177775 3.93746e-18)
(-0.0286387 -0.0482099 0)
(0.215701 -0.0154821 1.16213e-17)
(0.0236143 0.0526857 3.92673e-18)
(0.10305 0.0501012 0)
(-0.00157848 -0.0293188 -1.07088e-17)
(0.199306 -0.0806577 -1.93393e-17)
(-0.0302453 -0.090959 1.41304e-21)
(0.119855 -0.00799415 -1.5659e-17)
(0.117472 0.0157298 1.56412e-17)
(0.0464091 0.0632574 -1.56933e-17)
(0.107392 0.103151 0)
(0.123734 0.0040251 -1.17334e-17)
(0.0831921 -0.000621463 0)
(0.191738 -0.0547315 -1.55227e-17)
(0.0271925 0.0853204 0)
(0.0607366 0.145571 3.89009e-18)
(0.137416 -0.0360092 3.90564e-18)
(0.021578 0.0964888 0)
(0.0735094 0.0552321 3.91653e-18)
(-0.0183962 0.00999348 1.37606e-17)
(0.0387478 0.048701 1.17812e-17)
(-0.0125936 -0.022299 0)
(0.1207 0.133937 -1.1656e-17)
(-0.0181113 -0.0442686 0)
(-0.0177949 -0.00420636 0)
(-0.0194332 0.00570974 -1.41835e-17)
(0.0739513 0.0329472 0)
(0.00161763 -0.026653 0)
(0.087611 0.0636685 -4.07514e-18)
(0.045217 -0.0325046 1.97705e-17)
(0.106073 -0.002005 -1.56727e-17)
(0.0654342 0.183577 -1.55019e-17)
(0.016857 -0.0625674 1.64174e-17)
(0.122673 0.00504339 1.58777e-17)
(0.102371 0.0165956 0)
(0.019012 0.0700546 -3.92166e-18)
(-0.0047665 -0.0181715 0)
(0.0153759 0.0128512 -8.16007e-18)
(0.0887687 0.0210374 -1.41666e-22)
(0.0585078 0.0876176 0)
(0.174633 -0.0352619 -1.97598e-17)
(-0.0145046 -0.00626585 0)
(0.0921664 0.0449585 -3.91376e-18)
(0.117169 -0.00777524 1.2405e-17)
(0.0118656 -0.05169 1.58269e-17)
(0.122206 -0.0168581 1.565e-17)
(0.0760166 0.152078 1.16784e-17)
(-0.0128791 -0.0229572 -6.59104e-18)
(0.0815373 0.19085 3.10177e-17)
(0.0896425 0.0311927 1.56705e-17)
(0.108357 0.0186524 -3.91425e-18)
(0.112795 0.00949434 0)
(0.145734 -0.0502583 0)
(0.0522794 0.117458 1.57992e-17)
(0.0546578 0.157868 1.16678e-17)
(0.191356 -0.0454718 1.97346e-17)
(0.0385961 -0.0134421 -3.91948e-18)
(0.0265455 0.0997216 0)
(0.0200716 -0.00383549 0)
(0.204783 -0.0747086 0)
(0.00838878 -0.0196114 -1.58039e-17)
(0.108622 -0.0399241 0)
(0.0476924 0.113661 -1.60697e-17)
(-0.00538502 -0.00902003 2.78788e-17)
(0.0464537 0.123315 3.11578e-17)
(-0.00463312 0.0474303 -1.57186e-17)
(0.205434 -0.0682659 0)
(0.00189654 0.0566746 -1.57142e-17)
(0.0928642 0.169072 0)
(0.0995747 0.0253278 0)
(0.126359 -0.0437508 0)
(0.101112 -0.0118895 1.18559e-17)
(0.00237225 0.0385487 0)
(0.0174938 -0.0773353 0)
(0.101333 0.128279 0)
(0.0641522 -0.010698 0)
(0.0463528 -0.0872602 -3.95961e-18)
(0.0165258 0.0357301 0)
(0.203968 -0.0938352 1.93073e-17)
(0.138299 -0.0422609 -3.90617e-18)
(0.00786557 0.0511214 0)
(0.0196999 0.0748175 -1.56742e-17)
(0.11224 0.160597 -3.88847e-18)
(0.0137009 -0.00891952 4.08414e-18)
(0.0519731 -0.00454764 0)
(0.0447877 -0.013235 -1.53305e-17)
(0.155009 -0.0547381 -1.56352e-17)
(0.0862702 0.0882864 3.9858e-18)
(0.077386 -0.0176728 -1.18518e-17)
(0.0107086 0.0500874 2.00159e-17)
(0.0348112 -0.0268665 -1.57613e-17)
(0.147672 -0.0495004 0)
(0.0100031 -0.0447248 0)
(0.00694381 -0.0224943 0)
(0.0461676 0.116614 0)
(0.115051 0.0168912 -1.18147e-17)
(0.091343 -0.0207486 -3.94473e-18)
(0.149116 -0.0471374 1.56578e-17)
(0.000756406 -0.0105502 9.46452e-18)
(0.0102491 0.0569444 -3.96315e-18)
(0.0143357 0.00209449 1.64687e-17)
(0.0651124 0.0848734 0)