/*--------------------------------*- C++ -*----------------------------------*\
  =========                 |
  \\      /  F ield         | OpenFOAM: The Open Source CFD Toolbox
   \\    /   O peration     | Website:  https://openfoam.org
    \\  /    A nd           | Version:  9
     \\/     M anipulation  |
\*---------------------------------------------------------------------------*/
FoamFile
{
    format      ascii;
    class       volVectorField;
    location    "1";
    object      U;
}
// * * * * * * * * * * * * * * * * * * * * * * * * * * * * * * * * * * * * * //

dimensions      [0 1 -1 0 0 0 0];

internalField   nonuniform List<vector> 
942
(
(0.0221568 -0.0693915 0)
(0.0433378 0.0158131 2.45719e-17)
(0.0366569 0.104828 0)
(0.00968581 -0.0787628 -1.2999e-17)
(0.0401235 0.114288 7.80493e-18)
(0.0364885 -0.032884 1.37495e-17)
(0.0084475 -0.0123328 3.61455e-17)
(0.0443101 -0.0376476 0)
(0.00416417 -0.0484329 -2.84706e-17)
(0.00500085 -0.0530846 2.90203e-17)
(0.0462124 -0.00514103 0)
(0.0869352 -0.0349284 0)
(0.00918312 -0.0801477 1.21229e-17)
(0.0746347 0.0410941 0)
(0.0975939 -0.037276 0)
(0.0451379 0.0055628 -2.67002e-17)
(0.071675 0.0122152 -1.05106e-17)
(0.0192368 -0.0693878 0)
(0.0880697 0.0586767 -3.13792e-18)
(-0.0211559 0.00528061 4.82985e-18)
(0.0722023 0.00193284 1.79151e-17)
(0.0880699 -0.0380574 1.44262e-17)
(0.0141205 -0.0264718 0)
(0.00652202 -0.00860767 -2.86076e-17)
(0.0423401 -0.0235193 0)
(0.00118731 -0.0238725 2.14825e-17)
(0.0345905 0.104644 0)
(0.0162843 -0.0350639 1.82238e-17)
(0.0205939 -0.00203758 0)
(0.0151847 -0.0509729 1.15098e-17)
(-0.00473804 -0.0342186 1.44633e-17)
(0.029756 0.0919617 0)
(0.0149685 0.00697506 1.36439e-17)
(-0.0882827 0.00768926 1.59402e-17)
(0.0365732 0.111021 -1.56663e-17)
(0.0176875 -0.0180085 3.00725e-17)
(0.037388 -0.0536659 1.01506e-18)
(0.00574077 -0.0412011 0)
(0.0364542 -0.0553045 -5.18393e-19)
(0.00806762 0.00301308 2.04218e-17)
(-0.0731262 -0.0353752 -2.8546e-17)
(0.0471891 -0.0505632 0)
(0.0157152 0.0230079 -1.4077e-17)
(0.0116315 -0.0201489 -1.20504e-17)
(0.0116935 -0.017005 -3.04832e-17)
(0.0696682 0.0408196 6.86946e-18)
(0.0451539 0.071019 -1.39283e-17)
(-0.0916351 0.0265872 -1.31279e-17)
(-0.0716268 -0.0319378 1.47072e-17)
(0.0746822 0.0235848 1.71462e-17)
(0.0793101 0.0681284 0)
(0.00666666 -0.0128218 0)
(0.0118048 -0.0090881 -2.028e-17)
(0.00602423 -0.012393 1.62111e-17)
(0.00512239 -0.0656367 0)
(-0.00118433 -0.0452927 -1.07527e-17)
(0.0230993 -0.00217251 -2.71063e-17)
(0.0064439 -0.0687421 -1.94434e-18)
(0.0357564 -0.0023307 3.47255e-17)
(0.0474053 0.102838 1.49971e-17)
(0.0117261 -0.0379511 -1.43077e-17)
(0.0343859 0.105141 -3.69107e-17)
(-0.0497205 0.00472885 1.71944e-17)
(0.022511 -0.0633417 -1.4023e-17)
(0.00789203 -0.0418413 1.32975e-17)
(0.0740524 0.00619871 1.02108e-17)
(0.0298599 0.0898634 2.88631e-17)
(-0.01421 0.078181 -1.31493e-17)
(-0.00832178 -0.0344133 1.3631e-17)
(0.0213005 -0.0418572 3.73776e-18)
(0.0306202 0.0205673 0)
(0.0059679 -0.0333989 0)
(0.0135559 0.00168167 -1.77423e-18)
(0.0145968 -0.0571663 3.45095e-18)
(0.00698664 -0.0142142 -1.53596e-17)
(-0.0453011 0.00235286 9.52575e-23)
(-0.0221218 0.0101241 1.78017e-18)
(0.0312644 0.0921098 1.59295e-17)
(-0.00406675 -0.0241217 -1.73184e-17)
(0.0631197 0.012295 -3.49691e-18)
(0.01552 -0.0165564 2.07443e-17)
(0.00021586 -0.0291244 -7.47976e-18)
(-0.00563675 -0.0347907 -1.88812e-18)
(0.0591991 0.00284557 7.69141e-18)
(0.0586211 0.00157415 0)
(0.029554 0.107437 0)
(0.01416 0.0934005 -1.56787e-17)
(0.0708692 -0.0201941 4.33349e-18)
(0.0822487 0.0505125 0)
(-0.0118417 -0.0376937 2.15978e-17)
(0.0437089 -0.0580929 -1.10047e-17)
(0.026304 0.0615599 4.96617e-19)
(0.00644743 -0.0748697 2.18798e-18)
(-0.00541199 -0.0670495 0)
(0.0160628 -0.0328608 -4.25402e-18)
(-0.0403045 0.00906987 7.81797e-18)
(0.0424872 -0.0487239 1.34955e-17)
(0.0603292 -0.0181668 -1.25926e-17)
(0.0254915 -0.0280287 -1.87074e-17)
(0.00752124 -0.0330353 -2.67095e-17)
(0.00950479 -0.0331216 -8.02787e-18)
(0.00554877 -0.0769382 9.05891e-18)
(0.0672595 0.0802735 0)
(0.0206674 -0.0367433 1.02833e-17)
(0.0244647 -0.0418558 -1.62645e-17)
(0.0104992 -0.0311861 -2.62158e-17)
(0.0852667 0.0340319 -9.2114e-18)
(0.047428 0.0362457 0)
(-0.0596587 0.0525151 1.42252e-17)
(-0.00635945 0.0555104 0)
(0.0142444 -0.0203528 0)
(-0.0217167 -0.0340476 -1.43995e-17)
(0.00966776 0.0952492 2.85532e-17)
(0.00568718 -0.0376504 0)
(0.059828 -0.00258238 0)
(0.0145927 0.0335529 1.93803e-18)
(0.0576368 0.127502 -1.53791e-17)
(0.0127212 -0.0774587 1.64269e-17)
(0.00436726 -0.0167123 5.03308e-23)
(0.063743 -0.0373411 -1.88342e-18)
(0.00585327 -0.015862 6.25559e-18)
(0.0204766 -0.0123213 -1.61643e-17)
(0.00781365 0.0183468 0)
(0.0242042 -0.00069271 1.42385e-17)
(0.024183 -0.00218103 1.15311e-17)
(-0.00297778 -0.0290005 -3.07215e-17)
(0.00326749 -0.00592142 1.62215e-17)
(0.0257844 0.0293844 -1.54773e-17)
(0.0346462 0.0378668 2.83031e-17)
(0.00681222 -0.00526886 1.48104e-17)
(0.0867336 0.0485402 -7.59992e-18)
(0.0857852 0.0415956 -1.75855e-17)
(0.0443206 0.0480529 0)
(-0.134842 0.00817149 0)
(-0.0959903 0.0214328 -1.57641e-17)
(0.063682 0.0416522 -1.09964e-17)
(0.0097109 -0.0119966 9.64672e-19)
(-0.0213213 0.0377369 0)
(-0.0196443 -0.0087288 1.97139e-17)
(-0.0815915 -0.00379947 -6.71337e-18)
(-0.12475 0.00103518 1.57834e-17)
(0.0459444 0.0433749 0)
(0.0380536 0.119038 -1.56788e-17)
(-0.000186346 -0.0188092 1.70679e-17)
(0.0397825 -0.0304768 -3.97825e-18)
(0.011173 -0.00462874 -7.22849e-18)
(0.0158913 -0.0334598 0)
(0.00745178 -0.0388177 -9.54586e-18)
(0.0287122 -0.0367949 2.40907e-17)
(0.0340904 0.112938 0)
(0.0484549 -0.0341862 4.30134e-18)
(0.0847103 0.0200769 4.75495e-18)
(0.0420734 0.103834 0)
(0.0256231 -0.0361503 8.94177e-18)
(0.0351847 0.0978018 -1.55742e-17)
(0.0316559 -0.0504647 0)
(0.0624189 0.00194121 1.75352e-17)
(0.00187089 -0.0158798 0)
(0.0624268 0.127129 0)
(-0.0391566 0.0124146 6.49328e-18)
(0.0762188 -0.000100697 -2.26782e-17)
(0.0269126 -0.0424793 0)
(0.00664403 -0.0767971 0)
(0.0535346 -0.0255044 8.01202e-18)
(0.0536483 0.0259906 0)
(0.0791546 0.0863958 -2.37068e-17)
(0.0115423 -0.0373316 0)
(0.0259971 -0.0444884 0)
(0.0586927 0.0337831 1.40337e-17)
(0.0308995 0.0884203 1.66681e-17)
(-0.0573543 0.0404957 -1.3903e-17)
(-0.0498395 -0.0405602 -1.84654e-18)
(0.0192043 -0.0171733 -9.71534e-23)
(0.0148753 -0.0365511 8.98907e-18)
(0.0336679 0.122107 0)
(0.0215525 -0.0607915 -1.74507e-17)
(-0.0489523 -0.00960797 -1.65333e-17)
(0.0199464 -0.0623139 0)
(0.00345584 -0.0739432 5.73459e-19)
(0.0265221 -0.0632294 0)
(0.0203604 -0.0300735 -1.04974e-17)
(0.0254027 0.00576527 0)
(0.0345809 -0.0446814 -2.05971e-17)
(0.0246764 -0.0652712 2.33156e-22)
(0.0166787 -0.0654264 -1.03924e-17)
(0.00284143 -0.0252209 0)
(0.07788 0.12207 -8.17097e-18)
(0.0260154 0.0739966 1.64436e-17)
(0.041772 0.130351 2.33628e-17)
(0.0301217 -0.0669352 7.8596e-18)
(0.0405402 0.137733 3.15039e-17)
(0.0319704 -0.0649506 -7.87706e-18)
(0.0188372 -0.0485139 -9.97997e-18)
(0.000901636 -0.0314221 -1.51177e-17)
(0.0199225 0.0574141 8.32837e-18)
(0.0113235 -0.0786002 -7.48086e-18)
(0.0181585 0.0505616 0)
(0.0185026 -0.0537496 2.67391e-17)
(-0.0805187 -0.0196129 -1.92684e-17)
(0.00453088 0.0102108 1.45719e-17)
(0.000930419 -0.0101408 0)
(0.0142029 -0.0783366 7.59439e-18)
(0.00821785 0.0226073 0)
(0.0571974 0.0190756 -1.76416e-17)
(0.042776 0.109891 1.66629e-17)
(-0.0317779 -0.0735091 0)
(0.020226 -0.0186505 1.66745e-17)
(0.0353622 0.107979 -3.62267e-17)
(0.0105801 0.0164141 -1.407e-17)
(0.00641622 -0.00281624 1.39519e-17)
(0.0230889 0.0721728 -8.07967e-18)
(0.015283 -0.0752775 3.51982e-22)
(0.0079946 -0.0586857 1.28922e-17)
(0.0401356 0.131623 7.67422e-18)
(0.00213596 -0.00161891 0)
(0.0250892 -0.0761623 -7.8991e-23)
(0.0450158 0.137152 -1.9183e-17)
(0.0706603 0.0938196 1.61253e-17)
(0.0217429 0.0664103 1.60258e-17)
(0.0199546 0.0422495 -1.28522e-22)
(0.0298474 -0.0743875 0)
(0.02373 -0.0762441 -1.54481e-17)
(0.0353803 -0.0675999 0)
(0.0202409 -0.0765044 0)
(0.00170559 -0.00940731 -1.61291e-17)
(0.00978717 0.0327403 1.60534e-17)
(0.0416363 0.141204 -1.1296e-17)
(0.0343187 -0.0717354 -1.58723e-17)
(0.00245643 -0.00849183 2.364e-17)
(0.0200302 0.0011415 0)
(0.0077222 -0.0313946 -1.47708e-17)
(0.0370958 0.119963 -2.83353e-17)
(0.0101784 0.0278658 1.55426e-17)
(0.00274477 -0.00889619 -8.49899e-18)
(0.0280687 -0.075542 -7.98329e-18)
(0.0131125 -0.0721756 2.80891e-22)
(0.0644185 0.116884 -1.67312e-17)
(0.0329059 -0.0738134 1.59455e-17)
(0.00930828 -0.00998273 -1.53552e-17)
(0.0265297 0.0564807 1.5874e-17)
(0.0287103 0.0305944 0)
(0.026756 -0.0417819 -3.8897e-18)
(0.0383787 -0.0712908 7.86421e-18)
(0.0196879 -0.0528876 -8.88829e-18)
(0.0244719 -0.0554274 -1.57289e-17)
(0.00516814 0.0132491 -1.59534e-17)
(0.038354 -0.0686814 7.91344e-18)
(0.0231675 -0.076114 -8.57522e-18)
(0.0374036 -0.0713526 -1.58784e-17)
(0.0081357 0.00790169 3.92963e-18)
(0.0411263 0.143203 -3.97894e-18)
(-0.024348 -0.0795249 -1.46132e-17)
(0.0437926 0.140592 0)
(0.000357806 -0.00385793 1.18616e-17)
(0.0299127 -0.0579265 1.56275e-17)
(0.0180721 -0.0747688 1.7366e-17)
(0.0361058 -0.0714039 0)
(0.0372088 -0.0654643 0)
(0.0738671 0.0336499 -7.9118e-18)
(0.0203707 -0.0494056 8.85399e-18)
(0.0280982 -0.073087 -7.81192e-18)
(0.0795809 0.0406058 7.78292e-18)
(0.0413046 0.136012 -1.94222e-17)
(0.0350435 -0.0595088 -4.13083e-18)
(0.0358532 -0.0653614 8.22035e-18)
(0.00684059 -0.0496369 0)
(0.0254602 -0.0527179 0)
(0.0420088 -0.0652031 0)
(0.00539085 -0.0364452 1.49805e-17)
(0.0416891 -0.0686013 8.00287e-18)
(0.0419374 -0.065262 1.51458e-17)
(0.0458007 0.141483 -1.4495e-17)
(-0.0444341 -0.0614256 1.70629e-17)
(0.0423919 0.137151 -7.64751e-18)
(0.0314978 0.105634 1.60909e-17)
(0.0815265 0.0711715 -1.60565e-17)
(0.0229616 0.0267499 0)
(0.046836 -0.0544459 0)
(0.0344126 0.111217 -7.94017e-18)
(0.00813408 -0.00999656 -1.64767e-17)
(0.0305565 -0.0553311 0)
(0.0210139 -0.01867 -1.35469e-18)
(0.0152492 -0.0226232 1.67235e-17)
(0.0479231 -0.0584282 0)
(0.105829 -0.0256308 3.11494e-17)
(0.08921 0.126373 -1.54112e-17)
(0.0439118 -0.0594686 2.3497e-17)
(0.0462637 -0.0642018 1.5621e-17)
(0.0355792 -0.0564487 4.04668e-18)
(0.0399126 -0.0600503 4.02259e-18)
(0.094875 -0.0254658 -1.58167e-17)
(-0.0116195 -0.0563037 1.86091e-17)
(0.0848084 0.0780263 -7.18458e-18)
(0.0449574 -0.0544766 1.76069e-17)
(0.0404802 -0.0464401 4.45377e-18)
(0.104592 0.011504 -1.42613e-17)
(0.100348 0.0877397 0)
(0.100727 0.113112 7.98896e-18)
(0.118159 0.0612254 7.44898e-18)
(0.0898185 0.137618 0)
(0.0815445 0.111076 0)
(0.0436095 -0.0560729 -8.03903e-18)
(0.137006 -0.0452616 -3.60497e-18)
(0.0940644 -0.0956719 -2.51197e-17)
(0.0871222 0.0942018 -2.49168e-17)
(0.0408926 -0.0701751 7.84266e-18)
(0.0576896 -0.0730513 -2.49973e-17)
(0.0187689 -0.00507685 0)
(-0.0357277 -0.00885098 -7.22857e-18)
(0.01923 0.0387401 1.51442e-17)
(0.00449168 -0.0102026 1.22873e-17)
(-0.00905794 -0.019416 -9.16962e-22)
(0.0142064 -0.00830562 -2.17547e-18)
(0.0140515 0.0034741 -1.51573e-17)
(0.0519902 -0.0579576 2.61102e-22)
(0.042069 0.0433519 2.43111e-17)
(0.00611646 -0.00819415 -1.66062e-17)
(0.0204568 0.00161727 4.6769e-23)
(-0.0346759 -0.0223481 -4.28318e-18)
(0.0181195 -0.00726053 0)
(-0.00114721 0.00922396 -4.45083e-18)
(0.0297261 0.0457304 0)
(0.00433295 -0.00608241 1.74201e-17)
(0.00962757 0.000470413 -3.11558e-17)
(-0.0183926 -0.0316293 -1.96089e-17)
(0.0838639 0.0230657 -1.6029e-17)
(0.0253543 0.00980162 0)
(0.0488799 -0.0599734 -8.10835e-18)
(0.0553724 -0.0574686 0)
(0.0112297 -0.0107697 0)
(0.106457 -0.0114553 -3.12195e-17)
(0.0455503 -0.0624261 -1.38193e-17)
(0.0579031 -0.0575681 7.87654e-18)
(0.121157 -0.0677298 -1.41448e-17)
(0.0541882 -0.0525053 0)
(0.107077 0.00518794 1.56354e-17)
(0.0757378 -0.0986316 8.97477e-18)
(0.100964 0.048981 -4.59638e-19)
(0.107728 0.0268316 0)
(0.0148371 -0.00943278 -1.55667e-17)
(0.0878553 0.0919295 2.2904e-17)
(-0.00334776 0.0411736 -1.57315e-17)
(0.0538131 -0.0615514 -4.09879e-18)
(0.098725 0.0495494 -3.89888e-17)
(0.102558 0.128944 -1.58247e-17)
(0.103856 -0.00579465 0)
(0.0858809 0.127607 1.61187e-17)
(0.0560985 -0.0589966 1.57064e-17)
(0.0449504 -0.0662577 1.56178e-17)
(0.123306 0.107263 -7.78663e-18)
(0.104006 0.0291268 1.56255e-17)
(0.14133 0.0656197 9.88179e-22)
(0.0526238 -0.0606928 -3.99168e-17)
(0.154057 0.0139483 -8.21061e-18)
(0.0962882 0.0659165 -1.3921e-17)
(0.0495955 -0.0510183 0)
(0.0788814 0.107548 1.58814e-17)
(0.0491331 -0.0629869 0)
(0.0785014 0.0689591 7.8074e-18)
(0.0192827 0.0554743 1.57761e-17)
(0.153388 -0.0330919 1.99767e-17)
(0.0740958 -0.0504833 0)
(0.103105 -0.0296642 -2.2084e-18)
(0.0449874 -0.0653275 1.33339e-17)
(0.11108 -0.088093 -1.58278e-17)
(0.120702 -0.0247191 8.26867e-18)
(0.0792886 -0.0422977 -7.99337e-18)
(0.0606611 0.0308322 3.60681e-17)
(0.0688984 -0.0729152 2.36771e-17)
(-0.00437826 0.0493641 -4.10256e-18)
(0.0240426 -0.0201293 0)
(0.0942563 0.0726193 1.54161e-17)
(0.0436166 0.0311546 -7.84824e-18)
(0.0601458 -0.0584945 -1.52246e-17)
(0.0937441 0.0505487 7.8884e-18)
(0.110511 0.117463 7.79346e-18)
(0.0866733 0.0714976 7.90234e-18)
(0.0887386 0.127155 1.61601e-17)
(0.0470468 -0.0671493 7.70598e-18)
(0.134276 0.084724 7.76998e-18)
(0.0147703 0.0237398 1.77066e-17)
(0.00319267 -0.00873528 0)
(-0.0853741 0.0144548 1.57423e-17)
(0.00895199 -0.00858721 0)
(0.0535699 0.0272432 3.92254e-18)
(0.153319 0.0363201 2.4593e-17)
(0.132185 -0.0755479 3.11879e-17)
(0.115603 -0.0394007 2.41669e-18)
(0.0755677 0.117383 -3.2272e-17)
(0.16069 -0.0113587 -3.29198e-17)
(-0.00530758 0.0134429 -8.06295e-18)
(-0.0336164 -0.0118109 -4.02197e-18)
(0.0525846 -0.047631 0)
(0.131671 -0.00180833 1.61298e-17)
(-0.0960704 0.0101571 4.19917e-18)
(0.0623825 -0.0544112 0)
(0.0848951 -0.0495751 1.54972e-17)
(-0.0480043 0.0171652 4.11752e-18)
(0.0390787 0.0296476 8.12473e-18)
(-8.43996e-05 -0.0128567 -1.03007e-18)
(-0.0757879 0.000843326 -7.05005e-18)
(0.0588917 -0.0611082 -2.3368e-17)
(0.102939 -0.024686 0)
(0.073183 -0.0441307 7.42441e-18)
(0.0818026 -0.080522 0)
(0.100095 0.00346528 0)
(0.0256847 -0.0357371 0)
(0.0715921 0.0865629 0)
(0.0622189 -0.059987 7.81559e-18)
(0.00405461 -0.0051663 2.37725e-17)
(0.0312998 0.0301361 -1.69483e-17)
(0.134163 -0.0346298 7.8294e-18)
(0.0761752 -0.0554436 0)
(0.153528 -0.0463759 2.34447e-17)
(0.11108 -0.0746166 0)
(0.0494635 -0.0662181 -7.8643e-18)
(0.0509628 -0.0648691 7.87529e-18)
(0.0682303 -0.05841 7.79539e-18)
(0.100755 -0.0321444 1.56609e-17)
(0.0643816 -0.0602649 7.79795e-18)
(0.0677821 -0.0501487 1.63638e-17)
(0.0750735 -0.0637656 -3.14244e-17)
(0.0583182 -0.0490438 0)
(0.0571308 -0.0605638 -7.76828e-18)
(0.0933306 -0.0760001 1.5648e-17)
(0.139413 -0.0615756 -1.5607e-17)
(0.0934585 0.0246237 0)
(-0.0177024 0.0203017 1.64756e-17)
(0.152571 -0.0194372 1.5722e-17)
(0.1098 0.00257546 -2.91292e-17)
(0.0838066 -0.0177896 0)
(0.159127 -0.00298599 1.57102e-17)
(0.120466 -0.0171112 0)
(0.0137611 0.019376 0)
(0.0191871 -0.0246987 0)
(0.0674591 -0.0548734 0)
(0.137179 0.0762855 2.33648e-17)
(0.0617336 -0.0580408 0)
(0.0689911 -0.0602923 7.87939e-18)
(0.136192 -0.01005 -1.64687e-17)
(0.0621313 -0.0600315 7.77947e-18)
(0.0935921 -0.0467776 -1.43451e-17)
(0.0855433 0.11278 -1.56703e-17)
(0.139276 0.0147284 0)
(0.0490818 -0.0647367 -1.56401e-17)
(0.148287 -0.0327406 -2.34383e-17)
(0.0728308 0.0424536 0)
(0.0478334 0.0106421 0)
(0.0729242 -0.0588131 0)
(0.0547511 -0.062726 1.56416e-17)
(0.0594923 0.0785957 -1.22442e-21)
(0.0145988 -0.0168441 -1.36707e-21)
(-0.00965827 0.0107952 -1.62787e-17)
(0.0574598 -0.0617449 0)
(0.0562594 0.0362009 0)
(0.0993281 -0.0189162 0)
(0.081382 0.0219442 0)
(0.0718088 0.0340796 0)
(0.0533426 -0.0639668 -7.83672e-18)
(0.0256358 0.00408189 -1.6034e-17)
(0.154598 0.0370533 2.34814e-17)
(0.111394 0.103573 -7.80434e-18)
(0.0131146 -0.0246257 1.58043e-17)
(0.0475075 0.0535204 -7.8292e-18)
(0.0778564 -0.0268605 7.96223e-18)
(0.026911 0.0431676 -7.8617e-18)
(0.051165 -0.0562823 0)
(0.155659 0.0123585 -1.56965e-17)
(0.143444 0.0509478 -3.11246e-17)
(0.0820119 -0.0480585 0)
(0.119185 0.0848244 -1.55792e-17)
(0.0781347 0.0848145 -1.58671e-17)
(0.0903632 0.103422 0)
(0.131443 -0.0561915 0)
(0.0970417 -0.0404567 1.00755e-21)
(0.0866252 0.053048 7.12942e-18)
(0.082738 -0.0612637 0)
(0.036579 0.0771221 -2.3515e-17)
(0.116537 -0.0638538 0)
(0.0889565 -0.0277599 0)
(0.0429092 -0.0693931 -1.55452e-17)
(0.0892597 -0.0376259 -1.56736e-17)
(0.0684032 0.106819 0)
(0.0866158 -0.0479073 -1.56544e-17)
(0.0936631 -0.0624816 -7.84032e-18)
(0.0864962 -0.023109 1.56485e-17)
(0.127775 -0.044388 -1.60167e-17)
(0.0669935 0.107828 1.56817e-17)
(0.0836592 -0.0550259 0)
(0.0800036 -0.0406109 -7.83315e-18)
(0.064115 -0.0421721 -2.77304e-17)
(0.0589137 -0.00826504 0)
(0.0682141 -0.0512525 0)
(0.0534176 0.0906466 2.34497e-17)
(0.0452843 -0.0683597 -1.52786e-17)
(0.0825225 0.0158523 0)
(0.0829304 -0.0396537 1.56599e-17)
(0.076728 0.0975605 3.29119e-17)
(0.0774336 -0.00295186 -1.56705e-17)
(0.0530647 -0.0628326 0)
(0.031793 -0.0321293 3.34168e-17)
(0.0851154 -0.034895 7.81976e-18)
(0.0540786 -0.060329 0)
(0.0802865 -0.0177298 1.56712e-17)
(0.0141352 0.0651211 -8.59276e-18)
(0.0702741 0.00736812 0)
(0.0534744 0.0913558 0)
(0.0649262 0.0495475 0)
(0.0665501 -0.0293982 1.38138e-17)
(0.0924806 0.0380002 -7.56159e-18)
(0.098221 -0.0550254 -1.9078e-17)
(0.0800896 -0.0297864 0)
(0.0827068 0.00327513 8.05479e-18)
(0.0786582 -0.0266857 -1.56692e-17)
(0.0684163 -0.0303998 2.64575e-17)
(0.050256 -0.0625129 0)
(0.0818395 0.0123706 -6.80607e-18)
(0.0800159 -0.0137064 0)
(0.0846042 0.0702851 0)
(0.0602367 -0.0301003 0)
(0.107566 -0.0444429 0)
(0.03304 0.0818585 7.87787e-18)
(0.107186 0.0699978 0)
(0.0796762 -0.0215939 0)
(0.112085 0.0503262 -7.89145e-18)
(0.128632 0.0231829 -7.75882e-18)
(0.0651255 -0.0444794 0)
(0.0751485 -0.0118533 0)
(0.0525237 -0.0287619 0)
(0.128948 0.0445486 3.11711e-17)
(0.0559834 0.0839483 2.37539e-17)
(0.0599418 -0.0506055 0)
(0.108719 -0.0519517 1.34987e-17)
(0.0342858 0.0906007 -1.58137e-17)
(0.0764335 -0.0276135 1.56752e-17)
(0.0618941 0.000468372 -1.57338e-17)
(0.0168911 -0.0371122 -1.47338e-21)
(0.0785159 -0.00231602 0)
(0.0404308 -0.0672411 0)
(0.0443448 0.144482 1.51227e-17)
(0.0260923 -0.0642771 0)
(0.0766597 -0.030553 0)
(0.0697298 -0.0204939 -1.39629e-17)
(0.0398837 -0.0567724 -1.98338e-17)
(0.0554375 -0.0372156 0)
(0.0251261 -0.0193433 -1.57157e-17)
(0.0771161 -0.0210464 0)
(0.0730051 -0.028794 -1.56895e-17)
(0.0436678 -0.0267778 -7.86515e-18)
(0.0369909 -0.00968096 3.15023e-17)
(0.0694933 -0.0269166 0)
(0.0790632 -0.00593904 -1.56689e-17)
(0.0447967 0.0746234 7.88253e-18)
(0.0612274 -0.0303225 0)
(0.0404353 0.139615 1.96782e-17)
(0.0554504 -0.0207817 -7.86659e-18)
(0.0387496 0.0418408 -1.57945e-17)
(0.0214819 -0.0433443 -1.47266e-17)
(0.0426725 0.142399 -7.92319e-18)
(0.0386295 -0.0522538 0)
(0.0683534 0.0615952 -1.58333e-17)
(0.0335554 -0.0726416 0)
(0.0248041 -0.0731963 2.32978e-17)
(0.055127 0.0244577 2.36425e-17)
(0.0462196 0.129861 1.57263e-17)
(0.0238527 -0.0362279 3.1676e-17)
(0.0456035 -0.0354853 -8.37446e-18)
(0.0225927 -0.0323413 -1.59721e-17)
(0.0521549 0.13195 0)
(0.0105228 -0.0581209 0)
(0.0411885 0.0998741 -1.57964e-17)
(0.0434574 0.138754 3.27608e-17)
(0.0373671 -0.0383106 0)
(0.0444483 0.0158917 -2.36523e-17)
(0.023248 -0.0723996 -3.2408e-22)
(0.0301659 0.100583 7.95923e-18)
(0.0575217 0.114753 0)
(0.0535843 0.0825453 7.99959e-18)
(0.051768 0.142421 -2.36335e-17)
(0.0414449 0.116864 0)
(0.0189266 -0.0761049 1.80274e-17)
(0.0410045 0.114391 -3.39858e-17)
(0.00161539 -0.0729371 0)
(0.059461 0.0543314 0)
(0.0309813 -0.0718401 -1.57335e-17)
(0.0284391 -0.0731239 0)
(0.0465082 0.138527 1.57259e-17)
(0.0227925 0.0572537 4.59055e-19)
(0.0134447 -0.0658601 -1.7232e-17)
(0.0339429 0.117146 -1.59844e-17)
(0.0357634 -0.0381015 -1.29329e-17)
(0.0257215 -0.0712073 1.58e-17)
(0.00196359 -0.0794173 0)
(0.00701142 0.0132498 0)
(0.000762832 -0.0131541 5.45411e-17)
(0.00150352 -0.060056 -3.50815e-17)
(0.00499493 -0.0204293 -3.45926e-17)
(0.0548322 -0.0189482 0)
(0.0469949 0.144769 1.6856e-17)
(0.0178969 -0.0700307 -2.46592e-17)
(0.0203159 -0.0689414 2.48059e-17)
(0.000967286 -0.0406113 0)
(0.00777147 -0.0153275 -1.73549e-17)
(0.0398285 0.145978 -5.21594e-17)
(0.00112138 -0.0408233 -1.64372e-17)
(0.0409426 -0.0297481 -4.13839e-22)
(0.0363306 0.103289 1.469e-17)
(0.015435 -0.0655136 -1.69247e-17)
(0.0302652 -0.0239722 8.16881e-18)
(0.0192816 0.0438527 0)
(0.0593011 -0.00501543 -1.8663e-17)
(0.0466322 0.139022 3.80836e-17)
(0.00621806 -0.00141789 -1.8405e-17)
(0.00349537 -0.020086 1.24995e-22)
(0.0532319 -0.0225882 2.56639e-17)
(0.0999745 0.00707487 -7.78952e-22)
(0.0649994 -0.0622167 3.09735e-17)
(0.0931233 0.0227599 1.1239e-17)
(0.0289553 -0.0692816 0)
(0.00264041 -0.0511345 1.76198e-17)
(0.00480227 -0.0200681 0)
(-0.0246529 0.0298165 -1.03918e-17)
(0.0442323 0.143845 -5.45574e-19)
(0.00254971 -0.0284962 0)
(0.0425858 0.137249 5.02038e-19)
(0.0407389 0.121694 1.75839e-17)
(0.00781672 -0.00419269 -2.05311e-17)
(0.00280328 -0.0303569 -4.97016e-18)
(0.010706 -0.0533513 4.19499e-18)
(0.0377616 -0.00508429 2.43655e-17)
(-0.0143538 0.0329114 1.83702e-17)
(0.0041465 -0.039695 -1.94399e-17)
(-0.107521 -0.00181618 1.50778e-17)
(0.0325008 -0.0651302 0)
(0.0654997 -0.00909281 9.13203e-18)
(0.0232789 0.0359312 0)
(0.000333102 -0.0274237 1.46423e-17)
(0.0164544 -0.0557992 0)
(0.0313374 0.0237754 -3.48198e-17)
(0.0804787 0.0972271 -1.872e-17)
(0.108987 0.0214652 -1.53116e-17)
(0.00898765 -0.0186707 -1.31878e-17)
(0.0914585 -0.0279078 0)
(-0.0240301 0.0599467 8.61753e-19)
(-0.0194487 0.0209245 0)
(0.078323 -0.0331035 -2.72553e-17)
(0.0620399 -0.023007 -1.28895e-17)
(0.0671371 -0.0250187 -4.52434e-18)
(0.00324049 -0.00882501 3.3534e-17)
(0.021095 -0.0332917 0)
(0.0145947 -0.0575864 1.44544e-17)
(0.0580492 -0.00753124 0)
(0.0593888 -0.0288774 -2.46411e-17)
(0.00214263 -0.0678247 -1.86931e-17)
(0.0711316 0.137708 1.72896e-17)
(0.0442908 0.0508333 0)
(0.0173646 0.0636657 -4.53735e-18)
(0.0413019 0.128432 0)
(0.0445686 0.0247629 1.72145e-17)
(0.00618025 -0.067542 5.52638e-19)
(0.00136569 -0.0507388 3.6931e-17)
(0.0322593 -0.0692913 0)
(0.00351233 -0.0770127 1.60394e-17)
(0.00312303 -0.0674285 1.71355e-17)
(0.00567117 -0.0796821 9.04648e-18)
(0.0167521 -0.0385506 -8.02353e-23)
(-0.0180851 0.0217796 -2.39367e-17)
(0.0454615 0.136987 0)
(0.0425023 -0.0496688 0)
(0.0174665 0.0662328 -8.72037e-18)
(0.0712092 0.128849 1.77742e-17)
(0.0179123 0.058829 0)
(0.00453171 -0.0175888 8.59505e-18)
(0.0184407 0.0549109 -1.45308e-17)
(0.00498211 -0.0171462 0)
(0.00971913 -0.0765302 0)
(0.0100043 0.0397708 -5.18369e-23)
(0.0108681 0.0304316 1.51044e-17)
(0.00245501 -0.00919514 8.39688e-18)
(0.00862829 -0.0668998 -8.80846e-18)
(0.0560372 -0.0972589 0)
(0.0630504 0.133274 1.7073e-17)
(0.0423197 -0.0568282 -8.81561e-18)
(0.0635121 0.0643289 -8.56693e-18)
(0.0522845 0.0297593 0)
(-0.0179616 -0.0260205 0)
(-0.0572445 -0.0128087 7.68791e-18)
(0.03287 0.0672914 -1.64899e-17)
(0.039992 0.0353051 0)
(0.0145487 -0.0140279 1.44203e-17)
(0.0266475 -0.0157757 0)
(0.0581971 0.0759125 8.47217e-18)
(0.0116113 -0.0155475 -1.64791e-17)
(-0.0444564 -0.0306804 2.19492e-18)
(-0.0571286 -0.0241669 1.31779e-17)
(0.0404669 0.0724182 -1.74371e-17)
(0.0491616 0.07553 -1.76061e-17)
(0.0111845 -0.0136379 0)
(0.0363341 0.00935849 1.61149e-17)
(0.0359397 0.0226153 0)
(-0.023074 -0.0239954 -2.07452e-18)
(-0.0399998 -0.0181836 0)
(0.0236273 0.0417835 0)
(0.0352466 0.0476065 -8.51402e-18)
(0.0144493 -0.00990421 4.82299e-23)
(0.00535164 -0.0073881 0)
(0.0094456 -0.00480863 -1.36128e-17)
(0.086692 -0.0173564 -9.17955e-18)
(0.0748517 0.00479625 -1.69027e-17)
(0.0674647 0.10147 0)
(0.000649138 -0.060117 -1.77697e-22)
(0.0747294 0.117613 -2.7365e-17)
(0.0443258 0.00536029 -1.99954e-17)
(0.00550369 -0.0520925 0)
(0.0230452 -0.0176511 -3.34987e-17)
(0.0560165 0.135783 -8.33677e-18)
(0.0439839 0.13455 0)
(0.0494896 -0.0367964 1.70709e-17)
(0.0154196 -0.0780288 -9.58882e-18)
(0.0497141 0.121408 1.9004e-17)
(0.0125243 -0.00952112 1.69731e-17)
(0.0915396 -0.00765742 9.13308e-18)
(0.070342 -0.0132161 2.66602e-17)
(0.0934375 0.0442215 9.50574e-18)
(0.0568895 -0.0437316 0)
(0.0276693 -0.0141033 -3.33855e-17)
(0.0299191 -0.0137772 -4.08075e-18)
(0.0276379 -0.0357487 2.55806e-17)
(0.00158924 -0.0729545 -1.7814e-17)
(0.0926102 -0.0760011 -2.88276e-17)
(0.0991635 0.0515732 1.41373e-17)
(0.0285045 0.0745705 -2.33863e-17)
(0.00832403 -0.0720977 4.52572e-18)
(0.0840997 0.138518 1.72688e-17)
(0.0824784 0.124719 -2.59731e-17)
(-0.00523388 -0.0192597 3.64292e-17)
(0.0220717 -0.0152781 0)
(0.0207169 -0.0764203 -1.86483e-17)
(0.0217314 0.0563148 2.91515e-17)
(0.0290434 -0.0340838 -1.70082e-17)
(0.0163046 -0.078607 1.00967e-17)
(0.0817336 0.0171314 -4.4998e-18)
(0.00928541 0.049165 0)
(0.038918 0.0659776 -8.76568e-18)
(0.0390914 -0.0616029 -1.86037e-17)
(0.0362766 -0.0443136 1.72504e-17)
(0.0190027 -0.0738175 1.12089e-17)
(0.01235 0.0306969 -1.88348e-17)
(0.0148638 -0.0486634 1.00019e-17)
(0.0632541 0.0841789 -1.39666e-17)
(0.00962854 -0.0511408 0)
(0.0855018 0.0766887 3.20551e-17)
(0.0837535 -0.0131858 -1.7651e-17)
(0.0979178 -0.0042849 2.24156e-17)
(0.0143173 -0.0079182 2.1308e-17)
(0.127865 -0.0216893 4.47314e-18)
(0.116227 0.0327104 -9.57081e-18)
(0.0253567 -3.80137e-05 -1.98451e-17)
(0.0229393 0.00205876 1.89039e-17)
(0.0554957 -0.0231811 0)
(0.0606037 0.050185 0)
(0.00248425 -0.0765681 -1.96129e-17)
(0.00101775 -0.00693609 -9.57782e-18)
(0.00322101 0.00655084 -1.91629e-17)
(0.0031956 -0.0799285 1.10875e-22)
(0.0218946 -0.0297267 8.75356e-18)
(0.0244447 -0.017245 -1.76528e-17)
(0.000780289 -0.0159136 0)
(0.00269189 0.000767458 0)
(0.0290842 -0.0299064 3.21912e-17)
(0.00333925 0.0588691 -3.17257e-17)
(0.00775323 -0.00903175 -8.94621e-18)
(0.0812214 0.0994352 1.031e-17)
(0.000325074 -0.00822821 1.80872e-17)
(0.0280699 0.0943038 2.06784e-17)
(-0.0419271 -0.0128123 0)
(0.0656581 -0.0152113 0)
(-0.0466305 -0.026413 -9.25503e-18)
(0.0176949 0.105446 1.08386e-17)
(0.0856998 0.0595214 -8.41873e-18)
(0.00619993 -0.0166764 -1.385e-17)
(0.00999533 -0.0381252 9.2296e-18)
(0.0176684 0.0089466 -2.2944e-18)
(0.00795005 0.0146919 -3.16445e-17)
(0.0478579 0.140462 -2.21454e-17)
(0.0384356 -0.037468 5.36284e-18)
(0.0772917 0.112689 2.26635e-17)
(0.012592 -0.00586815 -7.67188e-23)
(0.0472288 -0.0514898 1.59749e-17)
(0.0312345 -0.0100894 1.86564e-17)
(0.019637 -0.042295 -8.97046e-18)
(0.034012 0.104446 -3.01563e-17)
(0.00220903 -0.035775 1.95654e-17)
(0.0318237 -0.00896763 -9.19631e-18)
(0.0285828 -0.0117057 -1.83924e-17)
(0.0384358 -0.0423425 1.59714e-17)
(0.0508699 0.106686 -2.17465e-18)
(0.00685686 -0.00776227 4.50722e-18)
(0.0187292 0.0531906 4.02043e-18)
(0.0183445 0.00480555 0)
(0.0063067 0.00587598 6.14774e-18)
(0.0472194 0.135475 9.86607e-18)
(0.0264069 -0.0221821 2.17111e-17)
(0.0040997 0.00320826 0)
(0.0639284 -0.0139931 -3.82121e-18)
(0.0499285 -0.0854195 2.18603e-17)
(0.0260957 -0.0941799 1.21727e-17)
(0.00202147 -0.0259561 0)
(0.000618382 -0.00767652 -1.8954e-17)
(0.0411402 -0.0527404 9.99148e-18)
(0.00527934 -0.000871441 -2.5399e-18)
(0.00852738 0.021804 -1.32453e-18)
(0.0511663 0.00438256 4.8268e-18)
(-3.68826e-05 -0.00666117 2.07859e-17)
(0.0053308 -0.0219648 0)
(0.0173619 -0.0905006 0)
(0.0377322 -0.0412072 0)
(0.0452291 -0.00158808 -1.0713e-17)
(0.0832469 0.0337187 0)
(0.0969355 0.0135613 1.7646e-17)
(0.0106724 -0.0721365 -1.03393e-17)
(0.000132226 -0.0153632 -1.06107e-17)
(0.00463919 -0.0245997 0)
(0.048607 -0.100912 -5.36471e-18)
(0.0630194 0.0211575 0)
(0.10105 0.0422879 6.01004e-19)
(0.00618153 0.00918384 1.02149e-17)
(0.00180052 -0.0170638 1.4968e-17)
(0.0227391 -0.0516297 0)
(0.0124303 -0.0304984 1.9347e-17)
(0.00178299 -0.0228053 0)
(0.00387885 -0.0229369 0)
(0.0104643 -0.061595 1.29374e-18)
(0.0228631 -0.0727405 -1.88735e-17)
(0.00719502 -0.0170053 -1.10454e-18)
(0.0432759 -0.0277024 0)
(0.0881461 0.0782173 3.68691e-17)
(0.0039062 -0.0248603 1.05623e-18)
(0.0176908 0.0773253 -9.37354e-18)
(0.0189386 -0.0182669 0)
(0.0311712 -0.0465414 -8.29365e-18)
(0.0210256 -0.0450746 -2.25362e-17)
(0.051223 -0.0306984 2.06918e-17)
(0.0826444 0.0986533 9.8519e-18)
(0.0243664 -0.0467555 9.12362e-18)
(0.0891615 -0.0136079 -9.85148e-18)
(0.00258758 -0.0171979 -1.99271e-17)
(0.0628357 -0.0440531 -1.88106e-17)
(0.0231218 -0.0225994 0)
(0.0760288 -0.0394544 1.32572e-17)
(0.0259622 -0.0592092 4.57571e-18)
(0.0800009 -0.100632 1.77429e-17)
(0.0423977 0.126611 4.78071e-18)
(0.047734 0.140674 0)
(0.023017 -0.0557604 1.7523e-17)
(0.0373491 -0.0610868 2.83124e-17)
(0.040493 0.0521642 0)
(0.0319733 -0.0558146 2.91048e-18)
(0.00303936 -0.00848773 -1.30523e-17)
(0.0145187 0.00668621 0)
(0.00729854 -0.0601617 -1.23366e-18)
(0.0817385 0.106889 -1.76768e-17)
(-0.0224297 -0.00942864 -4.50505e-22)
(0.0820973 0.134024 1.18133e-21)
(0.0292222 -0.0600248 -4.71432e-18)
(0.0314088 -0.0337273 -2.12686e-17)
(-0.00117431 0.0221053 2.35917e-17)
(0.00713833 0.00511281 4.21655e-17)
(-0.0186512 -0.0319318 -2.16738e-17)
(0.011158 -0.00585846 3.12801e-17)
(-0.0105218 0.0423599 4.46987e-18)
(0.00646821 -0.0305724 1.04513e-17)
(0.0191923 0.0497501 2.08448e-17)
(0.0351838 -0.048821 0)
(0.0609766 -0.0390814 -2.91225e-17)
(0.0239657 -0.0301036 -1.82406e-17)
(0.0786832 0.0671776 5.03595e-18)
(0.0326763 -0.0342392 0)
(0.0116256 0.0346419 -2.23467e-17)
(0.0339577 -0.0449191 -2.13755e-17)
(0.0613664 0.116852 0)
(0.00975338 -0.0291181 1.16465e-17)
(0.0135402 -0.0742021 1.30894e-17)
(0.0357397 -0.0617163 -1.07709e-17)
(0.0387583 -0.0487677 1.30503e-18)
(0.0121164 -0.0506024 0)
(0.000966737 -0.0793658 2.23534e-22)
(0.0674782 0.127009 0)
(0.0132804 -0.015489 1.87599e-17)
(0.0313052 -0.0452378 -2.66203e-18)
(0.0342215 -0.0076699 1.09e-17)
(0.00198118 -0.0323811 0)
(0.00457641 -0.0088125 2.32318e-17)
(-0.0516119 -0.0237308 2.15354e-17)
(0.0435704 -0.0434759 -5.38409e-18)
(0.0267925 -0.0241245 -1.76458e-17)
(0.0176141 -0.0291721 -3.67536e-17)
(0.0231759 0.0654227 0)
(0.104706 -0.0106721 0)
(0.06988 0.111354 -2.23617e-17)
(0.0609882 0.104774 2.9e-17)
(0.0443977 -0.103448 9.2564e-18)
(0.140225 0.0101266 1.05264e-17)
(0.0323594 -0.0480115 7.6251e-18)
(0.000873027 -0.0316253 -1.15542e-17)
(0.0459265 0.13915 0)
(0.0600664 0.119496 0)
(0.0371297 -0.0456433 0)