/*--------------------------------*- C++ -*----------------------------------*\
  =========                 |
  \\      /  F ield         | OpenFOAM: The Open Source CFD Toolbox
   \\    /   O peration     | Website:  https://openfoam.org
    \\  /    A nd           | Version:  9
     \\/     M anipulation  |
\*---------------------------------------------------------------------------*/
FoamFile
{
    format      ascii;
    class       surfaceScalarField;
    location    "1.37";
    object      phi;
}
// * * * * * * * * * * * * * * * * * * * * * * * * * * * * * * * * * * * * * //

dimensions      [0 3 -1 0 0 0 0];

internalField   nonuniform List<scalar> 
2420
(
1.99996e-07
-2.11514e-07
1.15176e-08
4.11567e-07
-4.11567e-07
6.37847e-07
-5.91851e-08
-5.78662e-07
4.97277e-08
-4.97277e-08
-7.43112e-07
2.79133e-07
4.63979e-07
1.87348e-07
-2.1089e-07
2.35424e-08
6.13088e-07
2.47584e-08
-8.43421e-07
8.4605e-08
7.58816e-07
1.50932e-06
-1.69596e-06
1.86648e-07
-5.59008e-07
-1.84104e-07
-3.81595e-07
1.5062e-07
2.30975e-07
-1.97125e-07
-1.84471e-07
-8.43421e-07
-1.2555e-07
1.08909e-07
1.66414e-08
2.03592e-07
1.27481e-06
-1.4784e-06
1.02118e-06
-1.829e-06
8.07822e-07
2.44377e-06
-6.77e-07
-1.76677e-06
-2.59833e-07
-2.52165e-07
5.11998e-07
-1.48297e-07
1.37202e-07
1.10954e-08
8.50835e-08
-2.10634e-07
-4.13309e-07
-4.663e-07
8.79608e-07
-2.96366e-08
-6.57416e-07
8.42139e-07
-1.84722e-07
-8.12081e-07
1.54664e-07
7.53586e-08
1.24638e-07
1.29967e-06
1.1441e-06
-5.47844e-07
1.56902e-06
-6.05561e-07
-1.06176e-06
1.66732e-06
-1.3801e-06
7.74537e-07
-2.65652e-07
-2.04891e-07
4.70543e-07
-1.27495e-06
-2.7249e-07
1.54744e-06
1.32849e-07
7.64906e-08
-2.09339e-07
-4.90598e-07
4.84124e-07
6.47349e-09
-5.72742e-07
5.29723e-07
4.30191e-08
-4.72414e-07
2.12582e-07
-3.55717e-07
-2.17025e-07
3.1379e-08
1.55969e-07
3.08785e-07
1.02782e-07
-1.07255e-07
-3.83343e-07
-6.8853e-08
-3.42714e-07
-1.17973e-06
7.6642e-07
7.38335e-07
1.18138e-07
-8.56473e-07
2.67704e-07
-3.74959e-07
-1.71382e-07
1.70778e-07
6.04107e-10
1.80482e-07
-6.36733e-08
-1.16809e-07
-3.00835e-08
7.98113e-08
-1.3005e-07
8.03227e-08
2.40031e-07
-5.95492e-08
-2.49666e-07
4.39902e-07
-1.90236e-07
-2.18794e-07
4.86497e-07
-1.05943e-07
-1.04947e-07
7.36637e-08
1.51479e-06
-1.3112e-06
-1.05864e-06
-6.37323e-07
1.12806e-06
-1.06329e-07
-1.02173e-06
-7.84467e-08
1.03818e-06
-9.59733e-07
2.41496e-07
6.99539e-07
-9.41036e-07
1.25166e-07
2.54539e-08
-2.31315e-07
3.1496e-07
-8.3645e-08
-1.43652e-06
1.35807e-06
9.24418e-08
-1.36739e-06
1.06332e-07
-1.24253e-07
1.7921e-08
-9.73536e-08
-1.1416e-07
-1.07675e-06
1.16135e-06
-4.0276e-07
2.22544e-07
1.80216e-07
-7.99894e-07
5.27404e-07
2.62175e-07
-3.87709e-07
1.25534e-07
-1.18295e-07
1.95045e-07
-7.67496e-08
2.75188e-07
-7.47603e-07
-7.37462e-08
6.87087e-09
-1.86806e-07
-7.3435e-07
1.73662e-08
7.16984e-07
1.55723e-07
1.11908e-06
7.67239e-07
2.83228e-07
-1.05047e-06
-1.37021e-07
-1.98578e-08
1.56879e-07
-1.32143e-06
-5.86638e-08
-6.22275e-07
8.97463e-07
-9.38233e-07
5.01514e-07
-7.67166e-07
-2.12512e-07
-1.90248e-07
-1.55008e-07
1.79866e-08
1.09482e-06
3.32435e-08
-6.1526e-08
-1.09856e-07
8.21764e-07
-5.1888e-07
-3.02883e-07
7.03577e-07
-9.8809e-07
2.84512e-07
1.04602e-06
-2.78782e-07
-3.60049e-07
-3.74301e-07
1.39373e-07
4.34749e-08
-1.82847e-07
-3.58976e-07
-5.34052e-07
8.93028e-07
-5.86578e-07
2.27602e-07
-2.75445e-07
-3.03217e-07
-5.4604e-08
-9.36932e-08
5.62296e-08
-3.05895e-07
3.9089e-09
4.42328e-07
-4.46237e-07
6.77289e-08
6.94729e-08
3.15887e-07
-5.37124e-08
-2.6034e-07
2.90252e-08
-4.02367e-08
1.16727e-07
-5.29137e-07
4.39355e-07
8.97814e-08
2.17267e-07
-4.92712e-07
1.79309e-07
-1.7461e-07
-4.69888e-09
2.23667e-07
2.16235e-07
1.69111e-07
1.01983e-08
-7.46846e-07
-1.43413e-07
8.90259e-07
3.1545e-08
7.47874e-08
-1.20806e-06
2.87066e-07
9.2099e-07
-2.45953e-07
4.10627e-08
-3.62481e-07
-1.66656e-07
1.30303e-06
-2.64853e-07
-6.59777e-08
-2.98794e-07
3.64771e-07
-1.24652e-08
-1.84659e-07
9.59716e-07
3.43316e-07
5.01487e-07
3.20276e-07
1.11832e-06
-2.27733e-07
-8.90587e-07
1.16999e-07
-9.57452e-07
-2.50605e-07
2.84876e-07
5.93818e-08
7.99907e-08
5.05774e-08
-7.97423e-07
-6.22938e-08
1.02201e-06
5.06629e-08
-1.25913e-06
1.20847e-06
-7.93453e-08
-1.26329e-06
1.34263e-06
-7.28748e-08
-6.0233e-07
6.75204e-07
1.75045e-07
1.40842e-07
-1.11818e-06
3.02308e-07
8.15877e-07
-4.84524e-07
2.6573e-07
-1.55782e-07
1.59691e-07
-1.31208e-06
-5.16922e-07
6.11467e-07
-4.24547e-07
-1.8692e-07
4.08031e-07
-2.0355e-07
-2.04481e-07
-3.41475e-07
2.75498e-07
-1.3604e-06
2.83651e-07
-6.87374e-07
-4.3081e-07
3.24493e-07
-3.24493e-07
-3.86699e-08
2.14141e-08
1.72559e-08
-4.87736e-07
-2.75298e-07
7.63034e-07
1.51479e-06
6.99539e-07
-2.76039e-07
-1.1167e-07
-1.43652e-06
-1.48888e-06
9.41036e-07
1.48888e-06
-1.35796e-06
-1.30924e-07
2.16977e-07
1.26582e-06
-1.4828e-06
-2.52955e-07
1.76677e-06
-1.51382e-06
-1.26582e-06
1.31649e-06
-3.07991e-07
1.4828e-06
-1.17481e-06
1.29578e-06
-1.35807e-06
1.20968e-07
-1.29578e-06
1.17481e-06
-1.61281e-06
1.71426e-06
-1.01454e-07
1.61281e-06
-1.52037e-06
-1.71426e-06
1.51382e-06
2.00448e-07
-1.31649e-06
1.59971e-06
-1.59971e-06
1.52037e-06
-7.65207e-07
-2.22882e-07
-2.08557e-07
-2.75967e-07
-6.27899e-09
2.28823e-07
-8.54971e-07
1.15611e-06
-3.01136e-07
1.60868e-07
-4.34013e-08
-1.16296e-06
-1.82329e-07
-4.85958e-07
6.68287e-07
-1.35878e-06
3.00135e-07
8.01513e-07
3.54594e-07
1.01849e-06
-8.61554e-08
-1.74185e-07
-1.69908e-06
8.27285e-07
-1.05502e-06
4.34983e-10
6.76894e-07
-1.29917e-06
9.00652e-07
-1.57765e-06
-1.0694e-06
-1.10856e-07
1.18026e-06
-8.39877e-07
9.60845e-07
-1.23532e-06
2.31103e-07
1.00422e-06
-9.48257e-07
1.38833e-07
2.69198e-07
-4.93314e-07
1.17021e-06
8.15588e-07
-1.18122e-07
-6.97466e-07
1.22761e-07
-3.76775e-08
-1.49379e-06
-1.10024e-06
3.08407e-08
2.40289e-08
-1.29972e-07
-4.78022e-07
4.05148e-07
1.57055e-07
-6.00986e-08
-9.6956e-08
-8.63514e-07
7.2411e-07
1.39404e-07
-1.62751e-07
7.74277e-09
-4.79259e-08
1.99431e-07
-8.15094e-07
6.15663e-07
-1.06115e-06
-3.90927e-08
-4.43516e-08
-1.93217e-08
-6.45506e-08
-5.97027e-08
7.13232e-07
-8.74504e-07
1.61273e-07
-1.75399e-07
2.49063e-07
-9.25474e-07
5.93906e-07
3.31568e-07
7.85396e-08
9.12662e-07
-2.01364e-07
-9.56261e-08
1.39101e-07
-1.00496e-06
-5.61889e-08
7.99092e-08
-3.75183e-07
2.95273e-07
-1.56635e-07
2.36544e-07
-2.39318e-07
2.14554e-07
2.47639e-08
5.60554e-07
-1.02685e-06
-5.768e-07
4.5577e-07
1.21031e-07
-5.88574e-07
-2.85931e-07
7.09344e-08
5.40532e-07
6.87728e-07
-1.58005e-07
2.45191e-07
-7.07709e-07
4.62519e-07
1.86763e-07
-3.62162e-07
-1.07523e-07
1.12959e-06
2.05853e-07
-8.30923e-08
1.26131e-07
-4.0217e-07
2.40645e-07
-5.96362e-07
-4.35974e-07
2.53645e-07
4.72038e-07
1.94716e-07
-6.66754e-07
3.44531e-08
-1.03941e-06
7.72808e-08
5.19559e-07
4.15685e-07
6.84396e-08
-1.03704e-06
1.00956e-06
2.74849e-08
-1.61116e-07
5.08216e-07
-9.71461e-07
4.63245e-07
-5.35141e-07
1.04336e-06
-1.17159e-08
-6.41644e-07
4.99796e-07
1.41848e-07
-5.57969e-07
-8.36754e-08
-6.97462e-07
6.1806e-07
7.9402e-08
-6.3217e-07
6.37411e-07
-5.24077e-09
-7.42674e-07
1.10504e-07
5.65052e-07
3.32411e-07
6.80832e-07
-2.25063e-07
-5.64395e-07
-1.33067e-07
-3.77555e-07
2.08006e-07
-7.96579e-07
-1.00788e-06
4.72734e-07
-6.29148e-07
8.60605e-07
-2.31457e-07
-1.20927e-06
1.7665e-07
-1.95949e-08
3.5572e-07
-9.84868e-07
1.73651e-07
-4.98143e-07
-9.47178e-07
-8.98643e-08
5.93516e-07
-9.67816e-07
1.56413e-06
-7.30078e-07
-8.3405e-07
-1.00213e-06
-3.56645e-07
-6.76307e-07
1.04401e-06
9.10221e-08
7.97557e-08
3.66332e-07
-6.49834e-07
2.83502e-07
4.31954e-07
1.65443e-07
5.15389e-07
-2.35671e-07
5.38351e-07
1.40502e-07
-6.78852e-07
-1.0359e-06
8.87237e-08
-1.33935e-06
8.46039e-07
5.27376e-07
-4.58937e-07
3.15789e-07
-9.28875e-07
6.13086e-07
7.58419e-07
-8.76541e-07
6.47803e-07
3.95554e-07
-1.67446e-07
6.23494e-07
-2.57162e-07
9.90505e-07
-8.96521e-07
-9.39842e-08
4.92677e-07
3.46995e-08
6.56454e-08
-2.74202e-07
3.54705e-07
-5.15821e-07
2.82408e-07
1.36715e-07
-4.19123e-07
-1.3112e-06
2.9746e-07
2.67592e-07
1.32298e-07
7.94682e-07
-3.62627e-08
8.63482e-07
-5.31071e-07
-1.06288e-07
4.03748e-07
1.02267e-06
5.41455e-07
-1.44118e-07
-8.91784e-07
-8.01926e-07
9.06439e-07
-1.04513e-07
1.24522e-06
-3.53827e-07
-8.91389e-07
-1.10737e-07
1.0596e-06
-9.48859e-07
9.12567e-07
-9.02102e-07
-1.04655e-08
-4.64818e-07
3.58531e-07
2.55728e-07
1.25907e-06
1.35117e-06
-1.09544e-06
6.20851e-07
-2.17103e-07
1.00505e-06
-8.43775e-07
5.44757e-07
-2.36239e-07
-3.08518e-07
6.13707e-07
4.80173e-07
3.3492e-07
-2.01396e-07
-4.06641e-08
4.7067e-07
-4.30005e-07
1.02041e-06
-1.13127e-06
-7.49352e-07
9.57358e-07
8.5362e-07
-3.73387e-07
-4.80233e-07
7.58816e-07
-1.66958e-07
-4.98143e-07
6.99044e-07
1.98433e-08
-7.18887e-07
-2.65336e-07
6.78552e-07
-4.13216e-07
3.61057e-08
2.01239e-08
3.61057e-08
-5.70001e-07
9.45913e-07
-3.75913e-07
1.07234e-06
-4.24535e-07
-3.44089e-07
8.02765e-07
-4.58676e-07
-9.34086e-07
2.57779e-07
9.12446e-07
-2.38812e-07
-6.73634e-07
7.85849e-07
2.86489e-07
-3.93152e-07
5.22694e-07
-1.29543e-07
-1.46312e-06
1.21017e-06
-7.78023e-07
1.09381e-06
9.99181e-08
1.63094e-07
1.09044e-06
1.07204e-06
-2.86195e-07
-1.95101e-07
7.33452e-07
-3.91317e-07
3.50652e-07
2.79421e-07
2.83619e-07
3.34463e-07
1.08836e-07
-7.98113e-08
1.08836e-07
1.60465e-08
-6.51118e-07
7.91619e-07
8.89555e-07
-5.89509e-07
-3.00046e-07
-5.32671e-07
6.98114e-07
1.13582e-07
4.61142e-07
-4.61142e-07
9.27734e-07
-6.69955e-07
4.90988e-07
-7.298e-07
1.0315e-06
-5.58766e-07
5.75842e-07
3.13714e-07
5.05369e-07
-6.65807e-07
1.06136e-06
-3.05591e-07
-6.08317e-07
-6.76644e-07
-3.38379e-07
1.01502e-06
3.98664e-07
-6.3524e-07
7.7271e-08
1.25907e-06
2.6927e-07
4.29378e-07
2.74776e-07
6.83635e-07
-7.19898e-07
5.08957e-07
-5.08957e-07
-1.16392e-07
3.30946e-07
2.17052e-09
-4.09064e-07
7.43526e-07
1.00959e-06
-1.17732e-06
1.67728e-07
1.56525e-07
9.15519e-07
-1.00419e-06
7.98024e-07
2.63337e-07
-2.0247e-07
9.96721e-07
-7.94251e-07
9.94594e-07
-7.37507e-07
-2.57086e-07
-1.7745e-07
8.10363e-08
-2.30224e-07
1.23982e-06
8.80109e-07
-1.27852e-06
3.98408e-07
-4.70484e-07
4.70484e-07
-1.38672e-06
-4.01346e-07
4.01346e-07
-9.25832e-07
8.89592e-07
-1.75014e-07
-7.14579e-07
4.21488e-07
-4.21488e-07
-6.34126e-07
-4.3922e-07
4.3922e-07
9.24941e-07
-1.08451e-06
1.59573e-07
3.20428e-07
-3.20428e-07
-8.76104e-07
1.05837e-06
-3.65683e-07
-6.92689e-07
8.78988e-07
7.44967e-07
-1.26907e-07
-5.40942e-07
5.21017e-07
-4.41615e-07
1.31239e-06
-4.32284e-07
8.17039e-07
-9.11024e-07
-9.49109e-07
-3.29408e-07
-4.87476e-07
9.16854e-07
-1.5691e-07
1.08147e-06
8.52603e-07
-3.46206e-08
6.06965e-07
6.30787e-07
-3.70038e-07
2.53646e-07
3.6517e-07
6.93202e-07
-1.03806e-06
-9.32109e-08
7.91551e-07
2.23472e-07
1.03827e-06
4.3191e-08
1.04757e-06
-1.32054e-07
-1.23236e-06
-5.70724e-07
-3.6545e-07
9.36174e-07
4.07193e-07
-4.38583e-07
3.13896e-08
5.11892e-07
8.00501e-07
-8.55656e-07
-4.64464e-08
3.18534e-07
4.384e-07
-7.56934e-07
7.78683e-07
-2.63293e-07
-1.07715e-06
-1.65751e-07
-2.04287e-07
3.08785e-07
6.09574e-07
-9.75257e-07
-2.08025e-07
2.08025e-07
-1.33684e-06
5.89457e-07
7.47383e-07
-1.21728e-06
2.68171e-07
9.28108e-07
5.83955e-07
1.94728e-07
-1.32421e-06
6.65166e-07
6.59042e-07
-3.31389e-08
-6.35925e-07
-1.06748e-07
-1.01067e-06
-2.06609e-07
-1.59955e-08
1.05427e-06
3.2927e-07
-8.99994e-07
-8.24947e-07
-4.50695e-08
1.47155e-07
-1.02086e-07
1.03158e-06
8.41154e-08
-1.10411e-06
1.01999e-06
2.39999e-07
6.87556e-07
-9.27555e-07
2.2468e-07
1.05489e-06
3.68969e-07
-5.00034e-07
1.06416e-06
-5.64125e-07
-8.65031e-07
1.84059e-07
-3.49723e-07
1.65665e-07
1.13839e-06
3.04467e-07
4.81822e-08
-3.52649e-07
-7.34752e-07
-6.61104e-07
-6.56072e-07
1.31718e-06
1.02617e-07
7.86975e-07
1.93068e-07
-1.68304e-07
-8.76623e-08
8.76623e-08
-6.85975e-07
1.35114e-06
1.17662e-06
-3.29468e-07
-8.47147e-07
2.57834e-07
-4.23585e-07
1.00484e-06
2.67376e-08
-9.55204e-07
1.22338e-06
-1.34708e-06
-9.74088e-07
4.34345e-07
5.39743e-07
3.38599e-07
-5.6503e-07
-4.09058e-07
-3.96188e-07
-9.98576e-07
4.98543e-07
1.70583e-07
1.0543e-06
-1.22488e-06
4.92186e-07
4.28537e-07
-9.20724e-07
-8.93907e-07
1.29232e-06
-5.0639e-07
-7.97641e-07
-4.67368e-07
1.26501e-06
1.02192e-06
-3.94618e-07
-6.27298e-07
-1.13256e-06
1.77351e-07
4.99129e-07
1.38989e-07
-8.12932e-07
1.22664e-06
-4.13706e-07
3.78974e-07
-9.68638e-07
1.13922e-06
-4.4072e-07
7.6999e-07
-2.37979e-07
-1.27714e-07
1.1961e-06
-5.30257e-07
-6.65846e-07
7.19275e-07
5.07363e-07
1.16742e-06
-4.48149e-07
6.70272e-07
7.46951e-08
6.96234e-07
1.09627e-06
7.94637e-08
-1.17573e-06
6.12928e-07
5.54497e-07
1.05971e-06
-4.46783e-07
-5.67277e-07
-6.71554e-07
1.23883e-06
4.86134e-07
6.12226e-07
-1.09836e-06
5.17815e-08
-1.21651e-07
6.98698e-08
8.62539e-07
-3.43504e-07
-6.31753e-07
6.20696e-07
5.75407e-07
-3.21547e-07
7.50085e-07
-6.06593e-07
-5.62527e-07
1.16912e-06
-2.97942e-07
2.13789e-07
1.78041e-07
-3.9183e-07
-4.87703e-07
-2.69231e-07
-5.60311e-08
-9.48295e-07
1.00433e-06
-2.1103e-08
1.11737e-06
-7.19669e-07
3.92877e-07
3.26791e-07
1.27974e-06
4.16572e-07
-1.09174e-06
6.75167e-07
-1.96795e-07
1.00113e-06
-8.04337e-07
-1.26266e-06
-7.6203e-07
3.7593e-07
3.86101e-07
9.21377e-08
7.49899e-07
-7.30871e-07
1.14744e-06
-9.46861e-07
2.04528e-08
9.26408e-07
4.97184e-07
4.43333e-08
-1.09757e-06
1.05323e-06
-5.35169e-07
2.75168e-07
2.60001e-07
9.02528e-07
8.07552e-08
-9.83283e-07
3.06545e-07
-6.28093e-07
-1.16543e-06
-3.79481e-07
5.57522e-07
2.74493e-07
6.04133e-07
-8.78627e-07
8.62164e-07
1.38968e-07
-5.23334e-07
-5.0324e-07
1.02657e-06
4.97565e-07
-8.52848e-08
-3.33354e-07
-7.58384e-07
1.0181e-06
1.21119e-07
3.43309e-07
9.35918e-07
-1.27923e-06
-6.01619e-07
-1.60412e-07
7.19762e-07
-1.92357e-07
-1.63067e-08
8.60894e-07
-8.44587e-07
2.01601e-07
8.19628e-07
-1.02123e-06
5.77922e-07
-1.02607e-06
1.18143e-07
-1.20496e-06
4.42145e-07
7.62819e-07
-6.89703e-07
7.70458e-07
1.17194e-06
-8.28633e-07
9.18435e-07
-1.96862e-07
-7.21573e-07
-7.19534e-07
7.39987e-07
-2.5958e-07
-4.60089e-07
-2.27421e-07
2.27421e-07
-1.58612e-07
1.58612e-07
1.65869e-07
-1.65869e-07
-3.42714e-07
2.01239e-08
1.49556e-07
-1.49556e-07
-1.93684e-07
1.93684e-07
2.30065e-07
-2.30065e-07
6.22568e-08
-2.092e-07
2.092e-07
-1.3005e-07
-3.03684e-07
3.03684e-07
1.18297e-07
-1.18297e-07
-1.97859e-07
1.97859e-07
-1.35707e-07
1.35707e-07
-6.37133e-07
1.10531e-06
-4.68173e-07
-2.43364e-07
2.43364e-07
1.36567e-07
-1.36567e-07
-2.66505e-07
9.98404e-07
-7.319e-07
7.85081e-07
-6.46113e-07
9.05438e-07
-1.5924e-07
1.01985e-06
-5.22284e-07
6.54971e-07
-9.88325e-07
3.70604e-07
-1.21436e-07
2.6797e-07
5.18407e-07
-7.86377e-07
-7.18831e-07
-3.07554e-07
7.70073e-07
3.1193e-07
5.3778e-07
-8.4971e-07
-2.32946e-07
4.05888e-08
-1.00104e-06
-2.23834e-07
-2.66756e-07
-3.61337e-07
6.82764e-07
-8.99765e-07
4.52982e-07
-4.78997e-07
-4.41726e-07
-9.63683e-07
4.40349e-07
6.53185e-07
-9.60739e-07
-1.26104e-06
2.59995e-07
1.94067e-07
-2.56046e-07
-1.67539e-07
-1.83695e-07
2.32831e-08
1.30786e-06
9.53779e-08
5.09238e-08
6.56466e-07
-1.70689e-07
9.22941e-07
9.96202e-09
7.30025e-07
-5.27377e-07
2.60621e-07
-9.31387e-07
1.13299e-06
-1.06647e-06
2.3793e-07
8.28536e-07
1.20762e-06
-8.85632e-07
-3.2199e-07
3.82716e-07
-9.6873e-07
1.05645e-06
-8.77154e-08
-1.00023e-06
9.8392e-07
-1.02934e-06
9.18031e-07
1.11313e-07
1.27358e-06
-8.3143e-07
-1.43106e-07
-3.21842e-07
-1.05768e-06
8.60819e-07
-8.40334e-07
-1.08771e-06
8.09736e-07
2.77975e-07
2.22614e-07
3.24797e-07
-1.15343e-06
-9.69452e-07
2.37553e-07
-1.35796e-06
-1.11606e-06
3.52939e-07
7.63121e-07
-1.1859e-07
-4.065e-08
-7.77832e-07
1.31719e-07
5.60907e-07
-3.38136e-07
-9.53068e-08
2.76234e-07
1.41046e-08
-1.25742e-07
1.11638e-07
-3.04762e-07
3.87943e-07
-2.17349e-07
7.35756e-07
1.64258e-07
5.6219e-08
-4.54241e-08
-1.58607e-07
-9.07858e-07
7.64054e-07
5.87088e-07
1.15092e-06
-9.12994e-07
-1.39651e-07
-4.99407e-07
2.2e-08
4.77407e-07
-5.83765e-07
-2.26892e-07
-4.592e-07
5.54578e-07
4.11126e-07
-4.97282e-07
-6.44655e-07
-3.25122e-07
4.80979e-07
-6.89268e-07
2.08289e-07
1.35157e-07
-5.99697e-07
5.42845e-07
7.18532e-07
-7.12043e-07
2.71323e-07
7.38804e-07
3.66502e-07
-4.89445e-07
-3.72553e-07
-7.96965e-07
1.16952e-06
1.35966e-06
-4.59012e-07
-3.06323e-07
-4.03031e-07
9.00215e-07
-9.07324e-07
1.29527e-06
4.14627e-07
8.58988e-07
-1.27362e-06
7.70659e-07
4.20374e-07
-7.83555e-07
3.63182e-07
4.20238e-07
-1.32756e-06
-1.05378e-06
6.12055e-07
-1.02254e-06
1.1868e-06
2.62122e-07
-3.57429e-07
1.00612e-06
-2.44641e-07
-7.43684e-07
1.32496e-06
-4.6531e-07
-3.75024e-07
5.3471e-07
-4.09176e-07
1.34767e-07
8.03089e-07
9.89403e-07
-1.12905e-06
-1.39965e-07
6.48228e-07
-5.08264e-07
-1.10723e-06
6.19862e-07
4.87368e-07
-5.96698e-07
-1.8968e-07
7.60873e-07
-9.1948e-07
-1.12806e-06
5.63937e-07
6.23642e-07
-3.28297e-07
-2.95346e-07
-3.94745e-07
5.35587e-07
-1.09722e-06
5.90833e-07
-4.22681e-07
-6.311e-07
1.03711e-06
-2.08578e-07
4.93531e-07
1.13094e-06
-2.93429e-07
-8.37508e-07
-2.65454e-08
-3.62514e-07
-1.1219e-08
-1.1406e-06
7.17917e-07
-3.77477e-07
-8.41339e-07
-5.5277e-07
9.45768e-07
-3.92998e-07
-1.17444e-06
-5.44898e-07
9.114e-07
-4.85168e-07
2.58191e-07
-2.66745e-07
-4.22523e-07
-8.3403e-07
-6.99685e-07
2.96654e-07
-1.05421e-06
4.44608e-07
6.09599e-07
-1.09909e-06
4.3932e-07
6.5977e-07
4.58549e-07
-9.70144e-07
1.24638e-06
-1.15656e-06
6.71394e-07
-8.69147e-07
7.60501e-08
-2.01792e-07
1.62248e-07
9.84956e-07
-1.1472e-06
3.86806e-07
-8.31207e-07
-3.87567e-07
5.96738e-07
-2.09171e-07
-5.64377e-07
-5.26914e-07
1.09129e-06
1.33699e-06
6.97241e-07
6.62423e-07
8.61026e-07
-1.16735e-06
4.38646e-07
3.21924e-07
-4.51467e-07
5.02957e-07
4.58804e-08
-9.01536e-07
-4.11011e-07
2.04413e-07
2.06598e-07
-5.37228e-07
8.8476e-07
-3.79743e-07
-5.05017e-07
-6.04915e-07
-8.36832e-07
3.7782e-07
-3.97202e-07
7.22867e-07
-3.25665e-07
-6.08101e-07
-3.13416e-07
-3.39632e-07
-4.51639e-07
7.9127e-07
-5.10726e-07
-4.52957e-07
8.83e-07
-1.22127e-07
4.86526e-07
6.60917e-07
1.66916e-07
-6.7518e-07
4.95963e-07
-4.19913e-07
-4.00113e-07
-3.77931e-07
-4.05625e-07
-1.55949e-07
-2.55062e-07
1.1372e-06
-5.73262e-07
1.46367e-07
3.89221e-07
6.74422e-07
5.29097e-07
1.85352e-07
2.10895e-07
-3.96247e-07
-3.01782e-07
9.99024e-07
-2.56761e-07
-5.80071e-07
3.11333e-07
3.1231e-07
-4.31803e-07
-3.97387e-07
8.29189e-07
-1.13764e-06
-7.08168e-07
-8.92401e-07
-1.30045e-07
-2.62074e-09
1.32665e-07
-6.54481e-07
-3.53434e-07
6.64767e-07
2.52568e-07
6.75141e-08
-3.20082e-07
-1.03764e-06
-6.30954e-07
1.11832e-06
1.2291e-07
9.75526e-09
-7.50821e-07
1.04858e-07
1.47711e-07
1.06537e-06
1.15165e-06
-2.46703e-07
6.20692e-07
-1.15792e-06
-1.15558e-06
2.42589e-07
-1.70627e-07
5.88051e-07
-1.11715e-06
4.86195e-07
4.63841e-07
9.2476e-07
2.39094e-07
-6.36296e-07
-5.16946e-07
-1.05506e-06
-7.39955e-08
3.34836e-07
-6.63133e-07
5.0073e-07
3.76345e-07
4.90189e-07
-8.66535e-07
-6.55082e-07
1.07579e-06
-4.20712e-07
1.12159e-06
-5.25276e-07
2.71228e-07
4.15985e-07
-7.95728e-07
5.52143e-07
-2.80915e-07
-3.62215e-07
-3.95694e-07
-5.93818e-07
9.89512e-07
-1.10048e-06
-6.64487e-07
1.10381e-06
-2.72267e-07
5.4359e-07
-8.93588e-08
1.46194e-07
-5.68351e-08
4.9776e-07
2.9351e-07
-1.8354e-07
-7.92326e-07
9.75866e-07
-8.13709e-09
-5.58391e-07
5.66528e-07
-3.5195e-07
-5.48448e-08
2.40197e-07
-4.35839e-07
3.4648e-07
-1.05078e-06
1.09576e-06
-6.31918e-07
1.98947e-07
-1.07848e-06
6.19504e-07
-1.0125e-06
5.00127e-08
-5.38654e-07
2.66387e-07
1.04342e-06
9.80948e-09
-1.02194e-06
3.90185e-07
1.85693e-07
5.45038e-08
4.31272e-07
2.84835e-07
4.5092e-07
-3.39583e-07
6.81176e-07
8.961e-07
3.03079e-08
4.38685e-07
-1.0706e-06
-9.56019e-07
4.51002e-07
-1.08126e-06
3.88571e-07
5.84409e-07
4.42165e-07
1.06508e-06
-4.05306e-07
5.28024e-07
-2.8893e-07
5.66302e-07
3.56639e-07
1.42112e-07
3.55777e-07
1.96366e-07
2.47109e-07
6.83094e-07
3.92759e-08
1.02836e-07
2.43517e-07
3.53221e-07
4.85877e-07
-7.0503e-07
2.19152e-07
-1.09756e-06
6.91075e-07
4.06489e-07
-1.10358e-06
5.86639e-07
1.36795e-08
1.22018e-07
-6.50606e-07
-3.71332e-07
-5.73817e-07
-6.49288e-07
2.49175e-07
1.09554e-07
-2.92401e-07
-4.14469e-07
9.85944e-07
2.86466e-08
7.01379e-07
6.32716e-07
-4.21822e-07
-4.55213e-08
-3.05734e-07
-1.30105e-07
-5.89138e-07
-3.66881e-07
-2.89479e-07
-4.42668e-07
2.93133e-07
-5.38074e-07
-6.81399e-07
-3.73007e-07
1.05441e-06
8.34613e-07
-7.88732e-07
9.24747e-07
5.95431e-07
-3.93176e-07
1.22475e-07
2.70701e-07
-1.12718e-06
1.05319e-06
-1.81189e-07
7.10596e-07
-5.29406e-07
8.36681e-07
-2.06845e-09
2.57935e-07
7.41089e-07
5.58542e-07
-8.30272e-07
5.04607e-07
1.07373e-06
-3.80294e-07
-4.49978e-07
-1.03181e-06
-9.09406e-07
-1.04292e-06
3.61519e-07
-4.3226e-07
7.20771e-07
-2.88511e-07
1.0157e-06
5.90255e-07
8.51137e-07
-3.23675e-07
-2.45549e-07
5.69224e-07
-1.06437e-06
1.00833e-06
1.91241e-07
-9.85492e-07
1.08978e-06
-7.01212e-07
3.69797e-07
4.59392e-07
-3.71762e-07
-5.13911e-07
-7.16776e-07
1.08195e-06
6.94438e-07
-6.7781e-07
3.84605e-07
2.80162e-07
-5.82555e-07
-2.66458e-07
-3.60771e-07
1.79582e-07
8.26216e-07
-4.82959e-07
7.57452e-07
3.05575e-07
-1.00808e-06
7.02508e-07
7.32128e-07
3.49818e-07
1.74824e-06
-1.80652e-06
5.82843e-08
7.54402e-07
-2.17001e-08
7.50588e-07
-2.60399e-07
-2.23233e-07
6.30798e-07
-4.07565e-07
9.61612e-07
-5.19446e-07
-9.40187e-08
1.08766e-06
3.87794e-07
-1.03509e-06
1.43307e-07
-7.66095e-07
1.06956e-06
-3.37431e-07
3.75948e-08
-8.26327e-07
1.04559e-06
-2.82248e-07
-7.63344e-07
4.7681e-07
4.42072e-08
-7.95853e-07
1.03633e-06
-2.40477e-07
-5.34219e-07
7.8519e-07
-2.50972e-07
2.37812e-07
1.10959e-07
-4.82721e-07
4.84256e-07
-3.11471e-07
-1.05153e-06
-5.25808e-08
-5.67402e-08
-8.99741e-07
-2.74595e-07
-3.86453e-07
-9.81041e-08
-2.98143e-07
9.79712e-07
-3.43854e-07
2.41768e-07
7.72889e-07
-5.39158e-07
-2.28783e-07
7.67941e-07
-2.8567e-07
-3.51436e-07
6.37106e-07
4.24383e-07
-1.09023e-06
3.28767e-07
9.87724e-08
8.25974e-07
5.80639e-07
8.59344e-07
2.49739e-07
7.51652e-07
3.17907e-07
4.33646e-07
2.7695e-07
1.52845e-07
3.13224e-07
-4.66069e-07
-9.35059e-08
5.82165e-07
1.15949e-07
-1.0237e-06
3.04425e-07
9.87642e-07
-7.6417e-07
-3.82966e-07
-2.80166e-07
-7.37501e-07
7.75096e-07
9.16394e-08
4.94122e-07
1.12472e-08
-6.2014e-07
7.72935e-07
-1.52795e-07
-3.31872e-07
-5.56408e-07
7.61372e-07
-2.04964e-07
-2.62388e-07
9.80776e-07
-7.18388e-07
8.67573e-07
-9.5013e-08
7.58084e-07
-3.6259e-10
-7.57721e-07
-4.0885e-08
9.08977e-08
1.05723e-06
8.33222e-07
2.03108e-07
2.28105e-08
-5.11307e-07
4.88496e-07
1.0318e-06
-4.67369e-07
-6.55135e-07
7.7498e-07
-2.8441e-07
1.89397e-07
1.04632e-06
-2.71342e-07
6.94369e-07
-8.93234e-07
8.91166e-07
-7.54662e-07
1.71613e-08
1.41232e-07
-7.86681e-07
1.31546e-07
8.05845e-07
5.4092e-08
7.18843e-07
-5.04618e-08
6.77177e-08
-8.4385e-07
-6.69914e-07
9.39184e-07
5.51505e-07
9.16127e-07
-1.29151e-07
-7.0057e-07
-1.07484e-07
-7.38077e-08
4.81001e-07
-8.48079e-08
1.03742e-06
-2.31572e-07
7.80894e-07
8.5673e-07
5.93973e-08
7.15395e-07
6.5499e-08
-8.67028e-07
-9.59904e-08
9.63019e-07
2.32083e-07
-1.07923e-06
2.69844e-07
-7.9613e-07
-1.05406e-07
9.1702e-07
-6.02906e-08
-6.43827e-07
-1.97659e-07
8.41486e-07
-9.03613e-07
-5.31252e-08
-2.48674e-07
3.01799e-07
1.93567e-07
-7.1286e-08
-3.71627e-07
-4.45787e-07
8.17413e-07
-8.75821e-07
1.78355e-07
1.49237e-07
8.58491e-07
-6.38203e-07
5.75158e-07
-4.40787e-07
4.06167e-07
4.62424e-08
-3.31912e-07
4.9838e-07
-2.40793e-07
4.6446e-07
-5.12043e-07
-1.46154e-08
5.26658e-07
-5.55629e-07
-2.68936e-07
8.24565e-07
6.17623e-07
-3.37461e-07
-4.81413e-07
9.16658e-07
-7.76893e-07
-9.72435e-07
-4.07875e-07
-9.04793e-07
-5.5833e-07
4.62869e-08
-2.47508e-07
3.96744e-07
5.29666e-07
-1.33968e-06
8.10011e-07
-7.72336e-07
1.01915e-06
-8.75839e-07
3.59466e-07
1.38849e-06
-1.08835e-06
-5.82583e-08
-1.05584e-06
1.71326e-07
2.65441e-07
2.85752e-07
-1.443e-06
-2.52956e-07
7.12939e-07
5.99498e-08
-9.25353e-07
8.92216e-07
-2.88083e-07
9.23156e-07
2.36759e-08
-9.69988e-07
9.46312e-07
-2.5194e-07
8.93184e-07
-6.41244e-07
1.01188e-06
3.73843e-07
-2.31904e-08
1.02679e-06
4.41198e-07
-6.88705e-07
-9.77398e-07
7.5519e-08
9.01879e-07
9.8973e-07
-2.87222e-07
-9.2833e-07
4.87543e-07
-4.16737e-07
-8.96765e-07
7.4397e-07
9.7451e-07
3.7369e-08
1.00125e-06
-1.15816e-06
-1.0787e-07
5.49068e-07
1.002e-06
-5.80961e-08
-3.93371e-07
-2.64275e-07
3.89946e-07
1.70209e-07
2.42842e-07
2.72058e-07
-4.52684e-07
5.94275e-07
-1.41591e-07
-1.5095e-07
-8.21485e-07
5.81792e-07
-8.44179e-07
9.81128e-07
-7.7802e-07
8.52104e-07
-3.29392e-07
-5.22713e-07
5.1644e-07
1.86028e-07
-1.53512e-08
2.27306e-07
-2.11955e-07
3.0137e-07
3.4004e-07
-1.02567e-06
9.92532e-07
2.72685e-07
3.64422e-07
2.88448e-07
4.81542e-07
-1.08256e-06
9.89354e-07
9.16572e-07
-6.80105e-07
-3.45967e-07
-6.8822e-07
-2.08545e-07
-1.00859e-06
6.28488e-07
-3.8509e-07
-5.88679e-10
3.85679e-07
-1.50095e-07
7.36826e-07
-9.88766e-07
-1.27955e-08
-4.53273e-07
-9.00327e-08
-7.09722e-07
-1.13185e-06
-1.23358e-06
1.68809e-07
-1.11707e-06
-3.55532e-08
-1.05094e-06
2.87595e-07
7.77218e-07
-8.88531e-07
-1.59643e-07
-9.23224e-09
3.2742e-07
7.3784e-08
2.26206e-08
8.94037e-07
-9.53941e-07
-1.96287e-07
-2.57916e-07
-6.18188e-07
3.4893e-07
7.05475e-07
3.39393e-07
6.07954e-07
8.54476e-07
5.63594e-07
7.49204e-07
3.35206e-07
6.00968e-07
1.01394e-06
6.95295e-07
9.30132e-07
-8.42417e-07
6.65792e-07
-1.02695e-06
9.74366e-07
-5.72122e-07
-9.86565e-07
-7.33033e-07
1.33739e-07
-1.34328e-07
3.8467e-07
-1.3763e-07
2.14568e-07
1.03619e-07
-3.6267e-07
3.89215e-07
2.20384e-07
1.11854e-06
-7.96549e-07
-1.35099e-07
2.70256e-07
7.01171e-07
-9.89253e-07
3.2226e-07
-1.05529e-06
2.36288e-07
-6.5137e-07
1.04623e-06
3.36997e-07
-1.76916e-07
-6.33096e-07
9.82026e-07
-6.26689e-07
-5.22254e-07
9.02804e-07
-5.33836e-07
-9.64202e-07
1.2208e-06
-2.56595e-07
1.29967e-06
-2.58128e-07
-6.66993e-07
-6.85734e-07
1.8848e-07
-9.80807e-07
-1.17081e-06
9.56197e-07
-7.41184e-08
6.23186e-07
4.86067e-07
3.25413e-07
1.0256e-06
-5.29043e-08
8.16748e-07
-9.62487e-07
6.06993e-07
-3.48802e-07
-3.96066e-07
9.59536e-07
-9.5066e-07
-4.17558e-07
-4.25863e-07
3.75967e-08
-5.95987e-07
1.99509e-07
-3.94275e-08
2.66144e-07
-9.6874e-07
5.22953e-07
-8.80078e-07
6.22992e-07
1.1223e-06
-9.33821e-07
-9.80191e-07
7.11255e-07
-3.94011e-07
2.29175e-07
-3.15033e-07
3.75438e-07
-1.67062e-07
-3.76592e-07
-3.72641e-07
2.72859e-07
1.40192e-07
-1.10275e-07
1.08464e-06
-3.83774e-07
-2.94035e-07
-2.44714e-07
1.07393e-06
-1.08477e-06
6.2592e-07
8.49261e-07
-5.44357e-07
3.28431e-07
-7.91796e-07
8.67315e-07
-5.66243e-07
1.58679e-07
1.99367e-07
2.19329e-07
4.06591e-07
-9.58475e-08
3.80724e-07
-7.48108e-07
-4.44772e-07
3.93861e-08
-8.31925e-07
-2.80209e-07
1.20464e-06
6.6991e-07
8.4232e-07
-1.19206e-07
-7.54199e-07
8.65707e-07
-1.5082e-07
2.16581e-07
-1.77195e-07
4.5873e-07
-5.09654e-07
2.02094e-08
-8.81214e-08
2.1327e-07
-1.47624e-07
4.44185e-07
-3.53183e-07
4.4932e-08
-1.52455e-07
2.08601e-08
-4.8295e-07
4.92766e-09
3.47982e-07
-4.35155e-08
3.46445e-07
-4.37789e-07
1.46775e-06
-6.9321e-07
1.54901e-07
5.09075e-07
-2.05789e-08
-8.80609e-07
8.50972e-07
1.28073e-07
7.98769e-08
-2.0795e-07
2.51166e-08
4.86881e-07
3.67026e-07
-5.61574e-07
-6.03874e-07
3.05239e-07
-3.56872e-07
2.18839e-07
3.94426e-07
-1.9806e-07
6.2014e-07
-3.41007e-07
1.32404e-07
-5.37e-07
2.90296e-07
5.17449e-07
-5.34705e-08
1.51466e-07
5.38422e-07
3.03717e-07
-1.01176e-06
1.71885e-07
7.42465e-07
-2.42151e-07
3.96705e-07
-1.54555e-07
7.51873e-07
6.94236e-09
5.31279e-07
7.86709e-07
-5.54311e-09
5.19785e-07
-2.2313e-07
6.28442e-07
8.39304e-07
-6.95836e-07
-1.17856e-06
-8.31533e-07
1.22103e-07
5.53077e-07
7.51873e-07
6.39137e-07
6.8702e-08
-2.13134e-07
-5.33437e-07
2.5327e-07
1.17272e-06
-1.23098e-06
-1.6039e-07
-1.22312e-06
2.27394e-07
2.67113e-09
-2.27998e-07
-1.53659e-08
1.79273e-07
-2.97165e-08
1.91279e-07
-2.54098e-08
-1.4184e-07
-2.37085e-07
-1.62021e-07
-2.1897e-07
-1.91279e-07
1.4184e-07
2.1897e-07
-9.77015e-09
-1.9079e-07
-7.06842e-09
2.37085e-07
1.62021e-07
2.27394e-07
-2.27998e-07
1.79273e-07
-1.9079e-07
5.54092e-07
-4.06381e-07
-1.8942e-07
7.15907e-07
-3.75054e-07
-2.46682e-07
2.46682e-07
-1.8942e-07
-5.55544e-07
3.77968e-07
4.02445e-07
4.1659e-07
-2.76398e-07
9.47557e-07
8.03187e-07
-4.59871e-07
-2.19611e-07
-7.80985e-09
2.19611e-07
-2.17524e-08
-9.70449e-07
-7.28632e-07
2.75604e-08
-2.40931e-07
2.18408e-08
1.06232e-07
-7.21619e-08
6.44051e-08
1.55856e-08
1.96724e-07
-1.32709e-06
-9.71268e-08
-5.69228e-07
5.89071e-07
4.3854e-07
1.67208e-07
-1.25696e-06
7.84074e-08
-1.90555e-07
4.87524e-07
1.37973e-07
2.50508e-07
-3.92065e-07
-1.20863e-06
1.10734e-06
1.01292e-07
7.04948e-07
-1.66526e-07
-2.12831e-07
2.12831e-07
-3.22874e-07
-2.31277e-07
-1.1055e-06
1.8499e-07
-6.68185e-08
5.90086e-08
2.25556e-07
-1.43419e-06
7.06443e-07
-4.4168e-07
2.0544e-07
-1.04422e-07
8.81768e-07
1.04633e-06
3.4193e-07
-8.17036e-08
2.78654e-07
-6.21635e-07
9.79014e-09
-1.86986e-07
2.97766e-07
-3.67486e-07
-1.29696e-07
-1.43602e-07
1.53392e-07
4.42328e-07
-1.68962e-07
-9.13993e-08
9.07276e-07
-4.19187e-07
3.61939e-07
-3.61939e-07
2.39279e-07
-1.18577e-08
-2.39279e-07
-1.32775e-08
-4.57206e-07
4.57206e-07
4.08945e-07
-2.73306e-07
-2.74997e-07
-1.05896e-06
3.12427e-09
-4.39264e-07
-2.18568e-08
1.55596e-07
-1.77639e-07
-6.15671e-07
-4.11908e-07
-9.09526e-07
3.24955e-07
4.78232e-07
3.99419e-07
-5.18673e-08
-2.68215e-07
7.85396e-08
-1.72347e-07
-1.20991e-06
1.20991e-06
4.26934e-07
1.88985e-07
-3.53481e-07
-5.68166e-07
1.88613e-07
8.00761e-07
-9.89374e-07
2.74137e-07
3.9675e-08
1.16294e-07
-7.46928e-08
-7.86224e-08
6.76155e-07
1.35853e-07
4.08591e-07
-5.56582e-08
-7.86697e-08
4.38244e-08
-4.38244e-08
2.03036e-07
1.93669e-07
4.17558e-07
9.0763e-08
4.3812e-08
-1.34575e-07
-2.09074e-08
1.01138e-07
-2.8919e-07
1.29696e-07
-3.71056e-07
2.8919e-07
-2.46346e-07
9.76497e-08
1.48697e-07
9.75141e-07
-3.01114e-08
-7.00539e-07
-4.46237e-07
-1.41515e-06
8.38951e-07
5.762e-07
2.50508e-07
-2.3482e-07
-1.54555e-07
2.3482e-07
1.63878e-07
4.25168e-08
-2.09579e-07
9.98747e-09
-4.41467e-08
-9.98747e-09
4.41467e-08
-1.148e-07
1.148e-07
1.0716e-06
2.08058e-07
-5.64715e-07
-2.91758e-07
-6.47019e-08
-2.11657e-09
5.04024e-08
1.0821e-07
-1.0821e-07
-6.9321e-07
-1.36161e-07
7.86224e-08
-7.69084e-08
-1.8814e-08
-1.88985e-07
-2.55257e-07
-2.03952e-07
6.69391e-08
1.03197e-07
1.24166e-06
8.13272e-08
-3.04458e-07
1.02484e-08
-8.37663e-08
-2.74997e-07
-1.02572e-06
6.28175e-07
6.4078e-07
-1.27627e-07