/*--------------------------------*- C++ -*----------------------------------*\
  =========                 |
  \\      /  F ield         | OpenFOAM: The Open Source CFD Toolbox
   \\    /   O peration     | Website:  https://openfoam.org
    \\  /    A nd           | Version:  9
     \\/     M anipulation  |
\*---------------------------------------------------------------------------*/
FoamFile
{
    format      ascii;
    class       volScalarField;
    location    "0.91";
    object      p;
}
// * * * * * * * * * * * * * * * * * * * * * * * * * * * * * * * * * * * * * //

dimensions      [0 2 -2 0 0 0 0];

internalField   nonuniform List<scalar> 
578
(
-1.91063e-20
-5.74625e-20
-1.16577e-20
3.52026e-21
-5.71829e-20
5.37776e-20
6.13539e-20
-4.15594e-20
-3.60311e-20
-9.34305e-20
3.47134e-20
-4.15984e-20
-3.45827e-21
-5.16236e-20
5.6427e-20
1.31776e-20
-1.88185e-20
-1.64317e-20
-3.03664e-20
-2.00645e-20
4.59464e-21
1.76773e-20
2.66687e-20
2.34482e-20
2.19537e-20
-2.97201e-20
-4.95298e-21
-8.84419e-21
-3.85033e-20
1.60081e-20
-5.45979e-21
5.9218e-20
-6.73805e-21
8.45869e-21
5.22474e-20
-9.28871e-21
-4.71729e-20
-4.04776e-20
5.49909e-21
-6.76976e-20
-5.01201e-20
-3.48975e-20
-4.80387e-20
5.92124e-20
-3.57986e-21
7.47978e-20
5.59011e-20
-3.86464e-20
7.07578e-21
-6.77225e-21
7.44687e-20
-3.42321e-21
7.63862e-20
6.97884e-21
-4.9615e-21
-1.52788e-20
2.65006e-20
2.26667e-20
-1.67313e-21
-2.07859e-20
-1.75954e-20
-3.03023e-20
-2.97836e-20
-5.75499e-20
-5.07253e-21
5.44997e-20
2.24832e-22
4.35815e-20
3.53776e-20
-2.78926e-20
1.08226e-20
5.55148e-20
-4.98098e-21
-3.26039e-20
3.21676e-20
-6.24185e-20
-4.78001e-20
-3.65536e-20
-4.38748e-21
4.7549e-20
6.66597e-20
-4.3263e-20
9.54422e-20
8.98415e-20
1.81684e-20
3.9543e-20
8.62453e-20
-5.9647e-21
-3.3494e-20
3.25846e-20
-4.13412e-21
3.27403e-20
4.365e-20
-1.16926e-21
4.20742e-20
5.83869e-20
-5.19453e-21
-4.9206e-21
-8.74418e-20
5.75479e-20
5.33787e-20
-3.42673e-20
-6.7235e-21
4.05264e-20
-6.29943e-21
-5.50921e-20
3.51239e-20
-6.34947e-20
4.62948e-20
-5.38996e-20
-8.86186e-21
-3.17849e-20
-2.47266e-20
4.93135e-20
5.39116e-20
-6.28483e-21
1.786e-21
-1.87677e-20
3.14778e-20
-5.73314e-21
-2.51599e-20
1.16524e-19
-3.84411e-20
5.19609e-21
7.56911e-20
2.15679e-20
5.80877e-20
1.33606e-20
3.98315e-20
5.23698e-21
3.87828e-20
1.88917e-20
-4.8348e-22
-2.85023e-20
3.42782e-20
4.32459e-20
-5.23754e-20
-6.23664e-21
3.6381e-20
3.94537e-20
4.32798e-20
1.18661e-20
3.78539e-20
-6.36599e-21
-3.33523e-20
2.44462e-20
1.33222e-20
-9.70864e-21
-3.78821e-20
-2.49793e-21
-4.19691e-20
2.9776e-20
-5.1774e-20
-2.66821e-20
5.46593e-20
-7.55565e-21
-2.57623e-20
-5.22294e-22
6.35902e-20
-4.17987e-20
-4.53731e-20
-4.37479e-20
4.64606e-20
-4.04285e-20
-1.59381e-20
1.15206e-20
-7.51945e-21
5.43256e-20
1.14464e-21
-2.46136e-21
-3.53312e-20
-5.43345e-20
4.4138e-20
2.8379e-20
5.17318e-20
-5.20194e-21
-3.59402e-21
-1.69182e-20
-4.11152e-20
-3.15394e-20
5.70523e-20
-4.2602e-20
3.0559e-20
-3.58478e-21
4.54407e-20
-8.84402e-21
1.30473e-20
5.68393e-20
5.47015e-20
-5.00664e-20
-4.90311e-20
-4.63743e-20
3.72083e-20
5.36919e-20
-7.16027e-20
-9.90562e-22
5.11402e-21
-1.0384e-20
5.23866e-20
-4.8195e-20
-3.36545e-22
-2.37208e-21
1.2293e-19
-3.52436e-21
-3.3526e-21
-4.96218e-20
5.02055e-20
6.64466e-21
-4.53761e-20
1.52909e-20
6.21063e-21
5.03695e-20
3.32091e-20
-1.41264e-21
3.43886e-20
4.95635e-21
5.38306e-20
-4.80866e-20
5.44613e-20
1.73019e-20
-4.88814e-20
4.91896e-20
-1.74373e-20
-4.8877e-20
5.92395e-20
1.97173e-20
1.21233e-21
2.76824e-21
-9.90594e-21
-3.6775e-20
-8.26552e-20
1.16278e-19
3.18626e-20
-2.26592e-20
2.28161e-20
-3.10807e-20
-5.03549e-20
5.67561e-20
-2.29906e-21
-3.97008e-21
5.3359e-20
-5.37036e-20
-8.63818e-22
5.16081e-20
-9.69678e-21
-3.28289e-20
3.94944e-20
-8.11273e-20
3.68447e-20
2.14167e-21
-9.226e-22
2.8836e-20
6.7266e-20
1.0002e-20
5.74218e-20
-1.14365e-20
-2.6265e-20
5.08993e-20
-3.86371e-20
1.03118e-19
-1.53337e-20
5.82945e-20
6.05642e-21
7.96049e-21
-4.28944e-20
-2.20699e-20
1.81399e-20
-5.87561e-21
-6.39393e-20
2.1183e-20
-2.0875e-20
1.58347e-20
1.23637e-20
1.69439e-21
-9.23564e-22
3.01877e-21
-1.72004e-21
7.91473e-21
5.53204e-20
6.40721e-21
-5.20497e-20
6.61817e-22
2.69346e-21
5.51597e-22
4.07803e-21
3.76538e-20
-1.86154e-20
2.1211e-20
1.25185e-20
9.01814e-21
9.9731e-21
2.65977e-20
-3.15693e-21
4.9334e-20
9.98556e-21
9.56309e-21
-5.02922e-20
-4.96199e-21
4.12757e-21
1.06868e-20
3.79013e-21
-9.57407e-21
6.65625e-21
-1.14889e-21
8.52822e-21
3.32218e-21
3.48278e-21
-2.316e-20
7.1213e-21
5.23372e-21
-1.03739e-20
4.61472e-21
7.88573e-21
-1.15547e-20
1.0081e-20
2.88759e-21
2.41329e-20
-9.29167e-21
-1.76633e-20
9.10401e-21
2.52656e-20
3.47555e-21
1.37141e-22
1.86964e-20
-3.24857e-21
2.46811e-21
5.03031e-20
4.65708e-20
-4.91376e-20
2.41633e-21
-5.11405e-21
4.29739e-20
5.13453e-21
3.02408e-21
3.08929e-20
1.4389e-20
1.23699e-21
2.64401e-21
-1.01829e-20
-3.02275e-21
2.05339e-21
1.26593e-21
5.15483e-21
-1.71161e-20
1.16098e-20
6.55412e-20
4.12859e-20
3.70263e-20
-3.59286e-20
4.58098e-20
-4.02465e-20
-4.71069e-20
5.31776e-20
-7.90714e-21
-6.15377e-20
6.92583e-20
1.71672e-20
6.62713e-20
-6.31998e-20
7.2061e-20
1.13581e-20
-8.65363e-21
1.65698e-20
-2.9259e-20
1.06329e-20
1.56399e-20
7.45889e-21
5.85185e-20
9.86276e-23
7.94181e-21
-4.22601e-20
-3.41929e-20
3.16032e-20
4.31844e-20
2.91579e-20
8.81787e-20
-5.64688e-21
4.32644e-20
-4.33244e-20
1.02949e-21
-5.72708e-21
-4.41038e-20
5.10805e-20
2.4045e-20
1.88357e-20
1.18717e-20
1.5321e-20
6.54513e-20
6.28696e-20
-3.34957e-20
-4.17779e-21
2.45304e-20
2.60676e-20
-9.39153e-21
5.24715e-21
1.88688e-20
6.23913e-20
-1.75058e-21
2.22787e-20
2.29665e-20
1.03075e-20
4.58657e-20
1.41469e-20
-2.40573e-20
-6.52424e-21
6.05405e-21
4.79211e-20
-7.77141e-22
3.0595e-20
4.69306e-20
8.79356e-21
-3.25721e-20
-1.35805e-20
2.48802e-20
-2.65539e-21
3.46465e-20
-3.64409e-20
3.95418e-20
-4.83188e-20
-6.23678e-21
4.10947e-20
3.43355e-20
-3.86075e-20
5.51658e-20
3.18195e-20
-1.7999e-20
-3.7819e-20
-2.47372e-20
-4.5346e-20
-1.7593e-20
3.35656e-20
2.22855e-20
2.38229e-20
-4.09213e-21
2.84877e-20
-2.23177e-20
-4.34127e-20
-1.81243e-20
-2.97997e-20
-1.02586e-21
-1.19683e-20
3.01419e-21
5.55429e-22
2.02819e-21
4.3122e-20
2.04995e-21
1.96138e-21
3.75764e-20
3.58452e-20
-3.31833e-21
4.19944e-20
-7.25883e-21
3.925e-20
-3.2618e-21
4.65073e-20
1.01183e-21
-5.49623e-20
2.71909e-20
2.21404e-20
-2.3055e-20
9.53371e-20
4.56592e-20
-1.84456e-20
-2.72249e-20
7.5216e-22
-2.79451e-20
2.95433e-20
-5.00624e-20
-6.273e-21
-2.21359e-20
-1.19232e-21
-1.02688e-20
3.30229e-20
-8.31405e-21
-2.81533e-21
-4.14393e-20
-2.69846e-20
-2.65243e-20
-9.62395e-21
-2.21159e-20
1.77585e-20
3.10042e-20
-6.8632e-21
-5.07944e-22
-7.47045e-21
-2.38841e-20
-8.09756e-21
-8.18915e-21
-7.26043e-21
4.73543e-20
-1.84169e-21
3.76797e-20
-1.26762e-20
-1.29075e-21
-5.18432e-21
3.31534e-20
-9.0064e-22
3.77108e-20
-7.98242e-21
-2.27072e-21
-5.09993e-20
3.74923e-21
-2.52134e-20
3.52945e-21
-1.75691e-20
-7.69582e-21
3.80643e-20
2.33763e-21
2.66982e-20
-7.20185e-21
1.00447e-21
7.09636e-20
7.15304e-21
7.20733e-20
4.29474e-20
-2.16389e-21
-4.31425e-20
-6.54107e-20
4.41348e-20
-2.33235e-21
2.59824e-20
3.7398e-20
-3.88404e-21
-3.3078e-20
-3.52387e-20
3.88792e-21
-2.03264e-21
2.52871e-21
-3.79533e-20
-3.60351e-20
-4.11312e-20
-4.23923e-20
-9.78117e-21
1.11564e-21
6.1006e-20
3.46907e-20
3.9364e-20
3.45993e-20
3.69299e-20
-8.57335e-21
-1.0867e-21
5.79512e-20
-1.58507e-20
-3.04316e-20
6.90346e-20
1.15245e-20
2.92801e-20
-1.97184e-20
-1.3815e-20
-2.94923e-20
4.35484e-20
4.96149e-20
-2.71929e-20
5.17443e-20
4.57918e-20
-6.70041e-21
-4.18573e-20
1.11802e-21
4.42395e-21
-7.15737e-21
-6.84885e-21
5.59243e-20
-3.7545e-20
-8.05794e-21
-1.84257e-21
3.98885e-20
-3.21585e-21
-1.70418e-20
-7.52159e-21
-2.74765e-21
3.84225e-20
-2.39593e-20
4.5265e-20
-3.42138e-20
-7.80941e-21
2.89658e-20
2.86809e-20
2.0321e-20
)
;

boundaryField
{
    front
    {
        type            empty;
    }
    back
    {
        type            empty;
    }
    bottom
    {
        type            uniformFixedValue;
        uniformValue    
        {
            type            scale;
            scale           
            {
                type            squarePulse;
                start           0.3;
                duration        0.3;
            }
            xScale          
            {
                type            constant;
                value           1;
            }
            value           
            {
                type            constant;
                value           15.1;
            }
        }
        value           uniform 0;
    }
    left
    {
        type            zeroGradient;
    }
    top
    {
        type            zeroGradient;
    }
    right
    {
        type            zeroGradient;
    }
    inner_arc
    {
        type            zeroGradient;
    }
}


// ************************************************************************* //
