/*--------------------------------*- C++ -*----------------------------------*\
  =========                 |
  \\      /  F ield         | OpenFOAM: The Open Source CFD Toolbox
   \\    /   O peration     | Website:  https://openfoam.org
    \\  /    A nd           | Version:  9
     \\/     M anipulation  |
\*---------------------------------------------------------------------------*/
FoamFile
{
    format      ascii;
    class       volScalarField;
    location    "2.08";
    object      p;
}
// * * * * * * * * * * * * * * * * * * * * * * * * * * * * * * * * * * * * * //

dimensions      [0 2 -2 0 0 0 0];

internalField   nonuniform List<scalar> 
942
(
12.0637
12.0261
11.9348
12.0792
11.9331
12.0644
12.0875
12.0625
12.1076
12.1078
11.9898
12.0455
12.085
11.9825
12.0432
12.0281
11.9577
12.0643
11.96
12.0199
11.9615
12.0461
12.0446
11.9336
11.9919
11.9382
11.9534
12.0464
11.9385
12.0535
11.9447
11.9518
11.9344
11.9983
11.9623
12.0338
12.0496
12.0514
12.0517
11.9328
12.0079
12.0418
11.9262
12.0891
12.085
11.9509
11.9699
11.9931
12.0078
11.9833
11.9634
12.0425
12.0287
11.9301
12.1029
12.0238
12.0414
12.0998
12.0393
11.9966
12.0489
11.9584
12.0029
12.0586
12.0518
12.0321
11.9572
11.9849
12.0194
12.0894
12.0256
12.1055
12.0313
12.0563
11.932
12.0176
12.0218
11.9613
11.9443
12.0292
12.0726
11.9415
12.0007
12.031
12.0339
11.9413
11.9934
12.0449
11.9806
12.0034
12.0383
11.9707
12.0983
12.023
12.0285
12.0148
12.0413
12.0444
12.0721
12.0498
12.1014
12.0978
11.9678
12.0876
12.0326
12.0473
11.9531
11.9448
11.9868
11.979
12.0209
12.0137
11.9877
12.106
11.9868
11.9701
11.9883
12.077
12.0485
12.0155
12.046
12.0253
11.92
12.0292
12.0321
11.941
12.0385
11.9275
11.9335
12.0208
11.9609
11.9542
11.9671
11.9879
11.9815
11.9475
12.0151
11.9751
12.0082
12.0014
11.9944
11.9397
11.9848
11.9408
12.062
11.9364
12.092
12.1034
12.0414
11.944
12.0598
12.0117
11.9684
12.08
11.9651
12.0501
12.0364
12.1079
11.9947
12.0173
12.0367
12.046
12.0761
12.0529
12.0078
11.9778
12.0991
12.0847
11.9495
11.9759
11.9919
12.0132
12.0256
12.0474
11.9372
12.0924
12.0141
12.0942
12.0272
12.0881
12.0822
11.9411
12.0449
12.0893
12.061
11.9414
11.9802
11.9393
11.9421
12.0842
11.9556
12.0829
12.0519
11.9482
11.9411
12.0892
11.9461
12.054
12.0035
11.9203
12.0491
12.0879
11.9407
11.9545
11.9783
12.0181
12.0294
11.9405
11.9236
11.9299
11.9446
12.0914
12.1027
11.9552
11.942
12.0794
11.9394
11.9683
11.9495
11.9509
12.0737
12.075
12.079
12.0858
12.1061
11.954
11.9564
12.0688
12.0472
11.9537
11.9449
11.944
11.9636
12.1015
12.0786
12.0963
11.9672
12.0734
11.9504
11.954
11.9553
12.0831
12.072
12.0935
12.0899
11.9451
12.064
12.0845
12.0685
11.9494
11.9543
12.0179
11.9591
11.9463
12.0848
12.0903
12.0763
12.078
11.9674
12.0926
12.0691
11.9703
11.9598
12.0802
12.0603
12.1045
12.0881
12.0734
11.9484
12.0638
12.0595
11.9438
12.013
11.9514
11.9455
11.9718
11.9241
12.0673
11.9542
12.0364
12.0834
12.0333
12.0396
12.068
11.9747
11.9987
12.0717
12.0692
12.079
12.0757
11.9719
12.0141
11.9743
12.0485
12.0691
11.9652
12.0056
12.0043
12.011
11.9973
11.9876
12.071
12.0227
12.0298
11.9834
12.0715
12.0374
12.0472
12.0171
11.9726
12.0916
11.999
12.059
12.0286
12.0489
11.9806
12.0778
12.039
12.0098
12.0531
12.0237
11.9771
12.0851
12.0336
12.0105
11.9735
11.9891
12.0523
12.0461
12.0679
11.9727
12.0552
12.0591
12.0249
12.0615
11.9754
12.0322
11.9645
11.9676
12.0211
11.9763
12.0136
12.04
11.9756
12.0024
11.9673
11.9977
12.0494
12.0698
12.0081
11.973
12.0139
12.0524
12.0197
11.9669
12.0642
11.9943
12.0558
11.9925
12.011
12.0253
12.0518
12.0405
12.0593
12.0314
12.0362
12.0499
11.9554
12.0387
12.016
12.0113
11.9729
11.9621
12.0469
11.9823
12.0074
11.9856
12.0024
12.0631
12.013
11.9214
12.0434
11.9817
12.0151
11.9482
12.0184
12.0291
12.0389
11.9986
12.0238
11.9694
12.0015
12.0611
12.0302
11.9868
12.0563
12.0475
11.976
11.9402
12.0074
11.9936
12.0529
12.0391
12.052
12.036
11.9815
12.0425
11.9964
12.044
12.0306
11.9329
12.0345
12.049
12.0292
12.0353
12.0628
12.0593
12.0509
11.9796
12.0504
12.054
12.0424
12.0587
12.0591
12.0375
12.031
11.9849
12.0134
12.0297
12.0319
12.0396
12.026
12.0347
12.0082
12.0382
12.0538
12.0165
12.0562
12.045
12.0315
12.0532
12.0451
12.0081
12.0272
12.0659
12.0312
11.9948
12.0011
12.0483
12.0559
12.0024
12.0045
12.0106
12.056
12.0003
11.9832
11.9911
12.0244
12.0592
12.0049
12.0211
12.0122
11.9451
12.0038
11.9705
12.0079
12.0646
12.0248
12.0203
11.9847
12.0159
12.0161
12.0118
12.0345
11.9805
11.9749
12.0434
12.0104
12.0367
11.9731
12.0673
11.977
12.0047
11.9846
12.041
11.9883
12.0359
12.0084
12.0467
11.9811
11.9875
11.9972
11.9879
12.0059
12.0669
11.971
11.9889
11.9706
11.9924
12.0623
12.0005
11.9776
12.0621
11.9707
12.0161
11.9659
12.013
12.022
11.9646
12.0249
12.0421
11.9748
11.9749
11.9715
11.9846
12.0655
11.9778
11.9737
12.019
11.9608
12.0413
12.0133
12.0195
11.9755
12.0224
12.0263
11.9929
11.9666
11.9973
12.0231
12.0159
11.9924
12.0403
11.9555
11.9694
11.963
11.9519
11.9791
12.0742
11.9609
12.0596
11.9813
11.967
12.0748
11.9601
11.9543
11.9784
11.9663
11.9582
11.9575
11.9651
11.9695
11.96
11.9622
11.9507
11.9612
11.9584
11.9998
11.9492
11.9957
11.9668
12.077
12.069
11.9624
11.9603
11.9523
11.957
11.9489
11.9634
12.1018
11.9587
11.9455
11.9557
11.9593
12.0878
11.9506
11.9645
11.9629
11.965
11.9659
12.0739
11.9297
12.1068
11.9639
12.0815
12.0824
11.964
11.93
12.0981
11.9492
12.0368
12.0868
12.0889
11.9298
11.9298
12.0646
11.9295
12.0476
11.9299
12.0932
12.0922
12.0551
11.9275
11.9296
12.1111
11.9539
11.9305
12.0962
11.9494
11.9305
11.9616
11.9313
11.9308
11.9311
12.0502
12.0311
12.0188
12.0276
12.0644
12.0575
11.93
12.0177
11.9314
12.1073
11.9348
11.9389
11.9265
12.0498
12.0552
12.0431
12.0197
12.0022
11.999
12.0605
12.0383
12.0231
11.9387
12.0976
11.9394
11.9711
12.0285
12.0932
12.043
11.995
12.0216
12.0481
12.0506
12.0457
12.0953
12.0836
12.0978
11.9586
12.0509
12.1073
11.9866
12.0215
12.0183
11.95
11.9433
12.0649
12.1093
12.0647
12.0805
12.0681
12.0904
12.0936
12.0036
11.9398
12.0448
11.9501
11.9806
11.9553
12.1044
11.9604
12.1023
12.0946
11.9479
11.9583
12.1036
12.1019
12.031
11.9687
12.0512
11.9814
11.9867
12.0012
12.0149
11.9734
11.9829
11.9956
12.0599
11.9794
12.0793
12.0066
12.011
11.9756
11.9778
12.0832
11.9907
11.9855
12.0046
12.0139
11.9751
11.979
12.0618
12.0817
11.9938
12.0161
11.9818
11.9717
12.1106
11.9719
11.9475
12.0558
12.0658
11.9678
11.9465
11.9906
12.0793
11.9693
12.0648
11.9652
11.9656
11.9562
12.0585
12.0571
12.0542
12.0765
12.0768
12.023
11.9597
11.9348
12.0692
11.9915
11.9863
12.0069
12.0291
12.0773
11.9679
12.0731
12.0833
11.958
11.9408
12.0188
12.0561
12.0716
12.0693
11.9669
12.0985
12.0026
12.1032
11.9784
12.0382
12.0343
12.056
12.0185
12.0132
12.0373
12.0351
11.9582
11.9837
12.1014
12.05
11.9218
12.0928
12.0788
12.063
12.0514
11.9239
12.0376
11.9326
12.0709
11.9766
12.1069
11.9478
12.0114
11.9849
12.0105
11.9257
11.9772
12.0998
12.1021
12.0258
12.0243
11.9343
12.0661
11.9739
12.0449
12.0451
12.0454
11.997
11.9489
12.1067
12.0487
12.0511
12.0685
11.9716
12.0749
11.9645
12.0266
12.0252
11.9357
12.0341
11.9334
12.042
12.0337
12.0215
11.9363
12.1086
12.0484
12.0366
11.9338
11.9543
12.1095
11.9315
12.0278
12.0408
11.9517
11.979
11.9611
12.0979
12.1104
11.9337
12.0251
11.9857
11.9618
11.9228
12.0496
12.0525
12.0959
11.938
11.9335
12.0596
12.0182
12.0968
12.059
11.9674
11.9356
11.9435
12.0691
11.9953
12.0496
12.0572
11.9754
12.0494
11.9676
12.1063
12.0561
11.9948
12.0503
12.056
12.026
11.9453
11.9386
12.0321
12.0344
12.0036
12.0532
12.0986
12.0077
12.0589
11.9749
12.0102
11.9915
12.0565
12.0697
12.0224
11.9375
12.0064
12.0503
12.0002
12.1037
11.9328
12.0765
12.0559
12.0751
11.9804
12.0371
11.9366
12.0754
11.9768
12.099
12.0714
12.0566
12.0727
12.1003
12.0998
11.971
12.0759
12.0791
11.9459
12.0518
11.9285
12.0062
12.066
12.0333
12.0428
11.9366
12.0361
11.9749
11.974
12.0274
12.0177
12.0804
12.11
11.9366
11.9722
12.0444
12.0829
12.026
12.0199
11.9319
12.0959
12.0213
12.0538
11.9359
11.9551
12.041
11.9344
11.9373
12.022
12.0563
12.0062
12.0972
11.9552
11.9354
12.0543
11.9768
12.0631
12.0529
12.0078
12.1079
12.0376
12.0682
12.0685
12.0252
12.0324
12.0464
12.1088
11.9602
12.0638
12.069
)
;

boundaryField
{
    back
    {
        type            empty;
    }
    front
    {
        type            empty;
    }
    top
    {
        type            zeroGradient;
    }
    outer_arc
    {
        type            zeroGradient;
    }
    bottom
    {
        type            uniformFixedValue;
        uniformValue    
        {
            type            table;
            format          csv;
            file            "outlet_p.csv";
            nHeaderLine     1;
            refColumn       0;
            componentColumns List<label> 1(1);
            separator       ",";
            mergeSeparators 0;
        }
        value           uniform 11.9285;
    }
    inner_arc
    {
        type            zeroGradient;
    }
}


// ************************************************************************* //
