/*--------------------------------*- C++ -*----------------------------------*\
  =========                 |
  \\      /  F ield         | OpenFOAM: The Open Source CFD Toolbox
   \\    /   O peration     | Website:  https://openfoam.org
    \\  /    A nd           | Version:  9
     \\/     M anipulation  |
\*---------------------------------------------------------------------------*/
FoamFile
{
    format      ascii;
    class       surfaceScalarField;
    location    "2.08";
    object      phi;
}
// * * * * * * * * * * * * * * * * * * * * * * * * * * * * * * * * * * * * * //

dimensions      [0 3 -1 0 0 0 0];

internalField   nonuniform List<scalar> 
2420
(
7.71206e-07
-7.06363e-07
-6.48428e-08
-9.20831e-07
9.20831e-07
-1.20706e-06
4.49274e-07
7.57783e-07
-1.02551e-06
1.02551e-06
-1.10394e-06
2.47484e-07
8.56452e-07
9.2151e-07
-8.28338e-07
-9.31713e-08
-6.28821e-07
-5.78237e-07
-2.7347e-06
3.70837e-07
2.36386e-06
3.02041e-06
-3.99669e-06
9.76275e-07
-8.42813e-07
-2.61122e-07
-1.02405e-06
4.85416e-07
5.38631e-07
-5.97011e-07
-4.27035e-07
-2.7347e-06
-3.54007e-07
-4.84809e-07
8.38816e-07
4.6875e-07
1.87782e-06
-2.34657e-06
-1.09436e-06
1.77275e-06
-6.78388e-07
-2.03304e-06
7.17699e-07
1.31534e-06
-2.27442e-06
1.22524e-06
1.04919e-06
-1.24578e-06
1.31624e-06
-7.04587e-08
-6.13432e-07
2.59425e-07
4.44839e-07
9.48413e-07
-1.39325e-06
-5.13599e-07
-1.38413e-06
2.01131e-06
-6.27184e-07
-1.91125e-06
5.2712e-07
3.02081e-07
4.69125e-07
-1.15553e-06
-8.7751e-07
3.93825e-07
-1.48819e-06
-1.64593e-06
-2.22219e-06
3.86813e-06
-3.45351e-06
1.80757e-06
9.59805e-07
-3.09989e-07
-6.49816e-07
8.84455e-07
6.79207e-07
-1.56366e-06
-1.18169e-06
8.28013e-07
3.53674e-07
-1.91434e-06
1.95514e-06
-4.07929e-08
9.40505e-07
-4.35652e-07
-5.04853e-07
-9.88189e-07
-1.28624e-06
7.6091e-07
1.79595e-07
3.79161e-07
5.42349e-07
-6.79327e-07
-2.41504e-07
-9.095e-08
-1.82339e-06
2.48351e-07
6.7248e-07
1.17228e-06
-7.27438e-07
1.79878e-06
-8.05345e-08
-1.71824e-06
1.57488e-06
-1.66583e-06
-1.31506e-06
1.27938e-06
3.56803e-08
-7.64472e-07
9.69303e-07
-2.04831e-07
-3.11075e-07
-7.14439e-07
6.30022e-07
3.95492e-07
-9.62636e-07
1.98165e-07
-6.47015e-07
7.13393e-07
-6.6378e-08
-1.17927e-07
1.69281e-06
-8.30822e-07
2.48368e-09
-7.32413e-07
-9.6747e-07
1.43622e-06
-2.12838e-06
-1.86831e-06
2.12877e-06
-3.03501e-07
-1.82527e-06
-1.73442e-07
-1.2757e-06
1.44914e-06
-2.3274e-07
-8.31964e-07
1.0647e-06
6.54713e-07
-1.69297e-07
-8.1593e-07
1.17478e-06
-3.5885e-07
1.44469e-06
-1.61813e-06
-2.78082e-07
1.16254e-06
1.13095e-06
-1.01985e-06
-1.11101e-07
-6.02497e-07
-1.03866e-07
-2.64968e-06
3.02052e-06
-1.51126e-06
1.04208e-06
4.69174e-07
1.46977e-06
-7.90567e-07
1.25325e-06
-1.53093e-06
2.77687e-07
-5.21331e-07
8.03991e-07
-2.8266e-07
-2.49239e-06
1.5042e-06
-1.12472e-07
1.33382e-07
8.40953e-07
1.29503e-06
-1.11323e-06
-1.81798e-07
1.08838e-06
7.8944e-07
-2.03501e-07
-1.97538e-07
4.01039e-07
8.99656e-07
-5.83964e-08
-8.41259e-07
-3.19141e-06
-2.62095e-07
-1.50902e-06
-9.83368e-07
9.39537e-07
3.63386e-08
9.23466e-07
-8.49921e-07
-6.61335e-07
8.99831e-07
-1.75395e-10
1.89216e-06
2.36611e-07
-3.90387e-07
-9.24675e-07
1.68962e-07
1.07689e-06
-1.24585e-06
-4.76804e-07
1.64515e-06
-1.16835e-06
-4.4766e-07
2.44158e-07
1.04063e-06
2.54401e-07
8.93133e-07
-3.8809e-07
-5.05043e-07
1.3502e-06
4.65912e-07
-1.81611e-06
1.53932e-06
-1.89116e-07
7.33437e-08
6.8444e-07
-3.13736e-07
-9.32042e-07
1.14318e-08
-6.58446e-07
-5.30022e-08
-5.23324e-07
5.76326e-07
4.23703e-07
8.92534e-07
1.34265e-06
-8.94e-08
-9.97275e-07
1.81345e-07
9.28005e-07
-9.99919e-08
-2.07086e-06
7.18546e-07
1.35231e-06
-3.98378e-07
4.71722e-07
1.04022e-06
-1.22901e-06
1.88789e-07
4.44802e-07
2.68591e-07
1.1155e-06
-7.52792e-08
-1.01876e-06
-2.60667e-07
1.27943e-06
4.44597e-07
6.86354e-07
-2.98146e-06
7.96197e-07
2.18526e-06
1.92862e-07
-5.02851e-07
-8.16259e-07
-1.2546e-06
-1.86362e-06
5.87921e-07
-5.06193e-08
-1.48982e-06
1.54044e-06
9.65929e-08
-6.93604e-07
-1.24181e-06
-6.21807e-07
1.34432e-06
-1.17536e-06
2.6929e-06
-3.79675e-07
-2.31323e-06
1.06251e-06
-2.37045e-06
-6.11004e-07
8.63706e-07
3.11532e-07
5.816e-07
3.9782e-07
-1.41658e-06
3.05788e-07
-1.5476e-06
4.71484e-09
4.66294e-07
-4.71008e-07
-2.61738e-07
8.46037e-07
-5.843e-07
-6.50657e-08
-1.41611e-06
1.48118e-06
9.94343e-07
3.48303e-07
-2.82876e-06
6.96556e-07
2.13221e-06
-1.40672e-06
1.2888e-06
6.76677e-07
-7.29679e-07
1.07821e-06
6.94543e-07
6.4768e-07
-1.66946e-06
1.02178e-06
7.19437e-07
-2.29572e-08
-6.9648e-07
-1.53668e-06
1.48606e-06
-3.45669e-06
8.07006e-07
-1.72094e-06
-1.10782e-06
-3.81535e-07
3.81535e-07
-8.84512e-07
2.59153e-07
6.25359e-07
-9.92448e-07
-3.47772e-07
1.34022e-06
-9.6747e-07
-8.31964e-07
-9.90104e-07
-5.40829e-07
1.44469e-06
1.45853e-06
-1.0647e-06
-1.45853e-06
1.23728e-06
2.21248e-07
-2.84474e-07
-3.8733e-07
6.71803e-07
2.31498e-07
-1.31534e-06
1.08385e-06
3.8733e-07
-3.82615e-07
-1.66593e-07
-6.71803e-07
8.38396e-07
-1.31234e-06
1.61813e-06
-4.73944e-07
1.31234e-06
-8.38396e-07
1.11997e-06
-1.21824e-06
9.82635e-08
-1.11997e-06
8.4189e-07
1.21824e-06
-1.08385e-06
-1.3439e-07
3.82615e-07
-5.80153e-07
5.80153e-07
-8.4189e-07
8.83152e-08
1.55684e-06
-5.52116e-08
-1.35151e-06
-2.65061e-07
1.30714e-06
1.02879e-06
-9.59258e-07
-6.95269e-08
3.22448e-07
2.65579e-07
8.62192e-07
-4.12159e-07
-6.3768e-07
1.04984e-06
-3.29875e-06
1.17037e-06
-2.73674e-07
-6.85585e-07
-5.58147e-07
-3.34577e-07
-6.62698e-07
-4.0905e-06
2.05658e-06
-2.43625e-06
-2.34667e-07
-1.67273e-06
1.63713e-07
-1.072e-06
1.7897e-06
-2.17516e-06
-2.50261e-07
2.42542e-06
5.80281e-07
-1.05422e-06
-3.11209e-06
8.1594e-07
2.29615e-06
-2.31589e-06
1.45163e-08
7.04921e-07
-2.57083e-06
8.981e-07
1.22775e-07
1.43321e-06
-1.55598e-06
-5.87492e-07
-2.59399e-08
1.91505e-06
-1.57744e-06
-5.97722e-07
-3.00307e-08
-8.00791e-07
-1.24299e-06
1.17792e-06
-6.9035e-07
-4.15396e-08
7.31889e-07
-1.7272e-06
1.62812e-08
1.71092e-06
8.06675e-07
9.31564e-08
-1.60442e-06
1.16196e-06
-2.78282e-06
1.62085e-06
-2.23296e-06
6.55521e-07
6.14852e-07
3.54451e-07
-1.38477e-07
-8.81373e-07
9.44523e-07
-2.66481e-06
1.72029e-06
7.42514e-07
-1.47493e-06
-1.73835e-06
-8.19277e-08
1.82028e-06
-1.88673e-07
2.10649e-06
-1.72207e-06
2.70475e-07
-6.58565e-07
-8.83644e-07
-1.34932e-06
3.56338e-07
-1.20816e-06
8.51824e-07
-7.20924e-07
1.07726e-06
1.76795e-06
1.76523e-07
-1.94447e-06
-6.00054e-07
1.54847e-06
-1.87183e-06
1.37709e-06
4.94739e-07
-5.44869e-07
-2.11994e-06
-1.09735e-06
1.74503e-06
-5.05621e-07
6.99692e-08
-4.83176e-07
-1.11627e-06
1.59945e-06
1.47753e-06
-7.35017e-07
-6.36161e-07
2.75313e-06
-3.71397e-08
-5.50352e-07
3.12174e-07
-1.30228e-06
9.18538e-08
6.69056e-07
-9.14964e-07
5.02805e-07
1.68443e-06
-7.67385e-07
-9.1704e-07
1.40712e-06
-2.29076e-06
-1.55962e-07
-3.52627e-07
1.34361e-06
6.11525e-07
-2.27828e-06
1.0295e-06
1.24878e-06
-5.28221e-07
1.85125e-06
-1.70845e-06
-1.42793e-07
2.99636e-07
1.55161e-06
1.57883e-06
-8.39928e-07
1.70239e-06
-8.62466e-07
-1.66178e-06
8.21855e-07
-1.34142e-06
1.23117e-06
1.10243e-07
-9.99388e-07
1.5897e-06
-5.90308e-07
-1.6043e-06
6.04915e-07
1.93767e-06
-2.92104e-06
1.82505e-06
-4.4796e-07
-1.15037e-06
-1.91045e-07
-1.79038e-06
2.14373e-06
-2.6886e-06
-1.58269e-06
1.88233e-06
-9.61506e-07
1.67871e-06
-7.17202e-07
7.46699e-07
-8.46223e-07
1.55873e-07
7.5838e-07
-1.71989e-06
-1.54339e-07
5.35875e-07
-5.15703e-07
-1.76258e-06
-7.69127e-07
1.02353e-06
-1.80743e-06
7.33843e-07
1.07359e-06
-2.13217e-06
-1.16658e-06
2.37584e-07
2.43662e-06
1.01026e-06
2.69119e-07
1.49595e-06
-1.79877e-06
3.02819e-07
9.94355e-07
3.7227e-07
1.45278e-06
5.68153e-07
4.55196e-07
1.62541e-06
-2.0806e-06
-2.06542e-06
1.54972e-06
-3.46463e-06
8.93797e-07
1.69263e-06
-1.08111e-06
5.48112e-07
-1.32011e-06
7.71994e-07
1.44789e-06
-1.4689e-08
1.87422e-06
-3.22612e-07
-1.5024e-06
1.88736e-06
-3.91408e-07
2.22772e-06
-2.36357e-06
1.35848e-07
1.1835e-06
5.09138e-07
8.71094e-07
-9.26305e-07
1.42319e-06
-1.95141e-06
1.16294e-06
-4.66363e-07
-6.96572e-07
1.43622e-06
-1.18188e-06
3.11955e-06
-2.3137e-07
-1.47208e-07
1.5951e-06
-6.78551e-07
-2.24249e-06
-3.22841e-06
2.04653e-06
-1.10653e-06
-7.00901e-07
-1.67597e-06
-3.89455e-07
-9.68906e-07
1.65566e-06
-6.86755e-07
1.6081e-06
-6.22913e-07
-9.8519e-07
-1.13758e-06
2.04e-06
-9.02415e-07
1.80233e-06
-2.30059e-06
4.98253e-07
-2.03826e-06
-1.19015e-06
-2.00481e-07
-7.66989e-07
-2.67304e-07
6.68227e-08
3.06944e-06
-1.02291e-06
2.25173e-06
-5.31443e-07
2.03294e-06
-1.3691e-06
-6.6384e-07
1.67823e-06
1.83332e-06
9.49498e-07
2.96089e-07
4.7818e-07
9.55956e-07
-1.43414e-06
2.3116e-06
-2.56186e-06
-2.89657e-07
2.43339e-06
1.77679e-06
-1.78446e-07
-1.59835e-06
2.36386e-06
7.85354e-07
5.35875e-07
1.83365e-06
-1.29801e-06
-5.35642e-07
-1.47434e-06
1.99364e-06
-5.19297e-07
-4.77296e-07
4.88728e-07
-4.77296e-07
-1.64721e-06
1.64814e-06
-9.26469e-10
1.39903e-06
4.75194e-07
-1.6448e-06
1.89154e-06
-2.46731e-07
-1.56371e-06
1.80129e-06
2.2141e-06
-1.64169e-06
-5.72412e-07
1.84317e-06
-4.44141e-07
-1.63077e-06
2.9321e-06
-1.30133e-06
1.51734e-06
-1.28584e-06
-9.03103e-07
1.45122e-06
-8.55063e-08
1.92444e-06
1.44227e-06
1.28837e-06
5.54797e-07
-1.50765e-06
1.96284e-06
-6.78126e-07
1.15631e-06
5.586e-07
1.2958e-07
3.48836e-07
-5.33094e-07
7.14439e-07
-5.33094e-07
-5.61234e-07
-2.29224e-07
1.85463e-06
1.73619e-06
-1.64984e-06
-8.63477e-08
-1.25234e-06
1.62461e-06
1.90194e-06
-5.44227e-07
5.44227e-07
1.38469e-06
4.16607e-07
7.79407e-07
-2.4211e-06
1.41164e-06
4.70688e-07
1.47656e-06
2.59627e-07
1.46509e-06
-1.80156e-06
1.47895e-06
-1.90919e-06
-2.02694e-06
-1.68513e-06
1.73896e-07
1.51123e-06
-2.71681e-06
-9.07822e-07
-7.53961e-07
-7.66989e-07
-3.69896e-08
1.71309e-06
1.71611e-06
1.29555e-06
2.99555e-07
1.91705e-06
-1.91705e-06
-1.68096e-06
1.85748e-06
6.81875e-07
-1.53383e-06
1.88267e-06
2.13081e-06
-3.0201e-06
8.89286e-07
-5.08815e-07
1.79719e-06
-1.62766e-06
1.79038e-06
-3.11433e-07
-1.38801e-06
1.90291e-06
-5.149e-07
1.20455e-06
-1.84184e-06
6.37286e-07
6.77697e-07
4.25895e-07
-1.01178e-06
3.14259e-06
9.74422e-07
-1.67797e-06
7.03549e-07
6.69565e-07
-6.69565e-07
1.4244e-06
-1.56871e-06
1.56871e-06
-3.88816e-07
1.33664e-06
6.22804e-08
-1.39892e-06
-7.54824e-07
7.54824e-07
-1.98179e-06
7.12621e-07
-7.12621e-07
1.75589e-06
-1.34624e-06
-4.09654e-07
1.15407e-06
-1.15407e-06
-1.96043e-06
1.67876e-06
4.82084e-08
-1.72697e-06
2.14213e-06
1.27268e-06
-4.15087e-08
-1.77046e-06
1.15229e-06
-1.04205e-06
1.66167e-06
-6.87245e-07
2.06716e-06
-1.93131e-06
-1.03407e-06
-6.43903e-07
-5.82935e-08
1.77138e-06
-7.08498e-07
1.24708e-06
2.2695e-07
-2.82092e-06
1.88684e-06
-5.48651e-07
-1.7866e-06
1.05639e-07
8.23498e-08
1.59641e-06
-2.44802e-06
-1.13842e-07
1.6927e-06
-1.81463e-07
1.7267e-06
-4.79618e-07
1.20496e-06
5.92227e-07
-3.14395e-06
-1.26586e-06
-1.05626e-08
1.27642e-06
9.29256e-07
-1.19506e-06
2.65802e-07
7.51258e-07
9.10409e-07
-1.41622e-06
-8.84369e-07
-8.4518e-08
1.87064e-06
-1.78612e-06
1.73711e-06
-2.84322e-07
-1.7925e-06
-1.84882e-06
6.22271e-08
-6.79327e-07
1.81975e-06
-1.77154e-06
-6.54486e-07
6.54486e-07
-1.69918e-06
8.1369e-07
8.85486e-07
-1.69033e-06
6.56262e-07
1.73523e-06
1.49652e-06
2.40586e-07
-1.72416e-06
8.54339e-07
8.69816e-07
6.4412e-07
-1.00965e-06
-5.94653e-07
-1.1005e-06
-5.89831e-07
5.59495e-07
1.1672e-06
3.13556e-08
-1.29721e-06
-9.47918e-07
4.68398e-08
-1.16455e-06
1.11771e-06
1.76446e-06
5.41489e-07
-1.65962e-06
1.11814e-06
-2.76416e-07
-1.11605e-06
1.39247e-06
6.69057e-07
1.38126e-06
1.85538e-06
-8.77397e-07
2.26246e-06
-1.38506e-06
-1.84868e-06
1.41879e-06
-1.55503e-06
1.36238e-07
1.70869e-06
4.69096e-07
7.07481e-08
-5.39844e-07
-9.10465e-07
-8.22481e-07
-8.53579e-07
1.67606e-06
-9.5783e-08
1.43242e-06
-1.88142e-06
-6.30472e-08
-4.46513e-07
4.46513e-07
-8.63112e-07
1.71745e-06
1.73775e-06
-7.18726e-07
-1.01902e-06
-9.11582e-08
-1.75767e-06
1.13308e-06
6.31374e-07
-1.07195e-06
1.72821e-06
-1.68559e-06
-2.14229e-06
3.88213e-07
1.75407e-06
8.53895e-08
-1.58815e-06
-5.54139e-07
-1.69313e-06
-2.16123e-06
1.28383e-06
5.69236e-07
1.15982e-06
-1.72905e-06
1.08975e-06
8.50218e-07
-1.93996e-06
-1.00949e-06
1.71304e-06
-1.07149e-06
-9.69214e-07
-7.6512e-07
1.73433e-06
1.46078e-06
-2.16668e-08
-1.43911e-06
-1.74128e-06
6.69322e-07
6.74309e-07
1.46563e-06
-9.20858e-07
1.56432e-06
-6.43465e-07
7.68535e-07
-1.14929e-06
1.71852e-06
-1.06079e-06
1.09215e-06
-3.69092e-07
-6.08192e-07
1.73705e-06
-8.23869e-07
-9.13186e-07
8.38266e-07
7.26057e-07
1.51232e-06
-6.74055e-07
1.28492e-06
-1.22407e-08
1.77948e-06
1.23018e-06
4.84172e-07
-1.71436e-06
7.38632e-07
7.73689e-07
1.45035e-06
-7.11716e-07
-7.60886e-07
-9.04856e-07
1.66574e-06
8.06885e-07
9.22611e-07
-1.7295e-06
3.10079e-07
-1.29504e-06
9.8496e-07
1.79678e-06
1.75717e-07
-1.94726e-06
8.66938e-07
8.70117e-07
-9.52232e-07
1.80245e-06
-7.56469e-07
-8.22394e-07
1.57886e-06
-1.24495e-06
7.5402e-07
6.12029e-07
-1.36605e-06
-2.0044e-06
2.18282e-07
3.94027e-07
-1.57734e-06
1.18331e-06
-5.04116e-07
1.7343e-06
-1.89922e-06
1.64511e-06
2.54109e-07
1.73675e-06
6.96447e-07
-2.08853e-06
1.39208e-06
-5.78056e-07
1.68334e-06
-1.10528e-06
-1.61005e-06
1.73811e-06
-1.04654e-06
-6.91568e-07
-5.41019e-07
9.15174e-07
-1.56449e-06
2.26094e-06
-1.66348e-06
3.11335e-07
1.35214e-06
6.27954e-07
4.0209e-07
-1.70191e-06
1.29982e-06
1.50066e-06
-1.05091e-06
-4.49751e-07
1.26139e-06
4.1964e-07
-1.68103e-06
5.60374e-07
-1.51261e-06
-1.72734e-06
-1.05276e-06
1.66479e-06
2.9633e-07
9.23094e-07
-1.21942e-06
1.18025e-06
5.03094e-07
-1.18476e-06
-7.61801e-07
1.94656e-06
6.74007e-07
-8.05675e-07
-5.10296e-07
-1.57823e-06
1.21774e-06
5.0078e-07
6.79943e-07
1.05331e-06
-1.73325e-06
1.17801e-06
5.60092e-07
-1.52005e-06
7.29482e-07
6.98053e-07
1.0035e-06
-1.70155e-06
6.38975e-07
1.02987e-06
-1.66884e-06
7.06028e-07
-1.38008e-06
-3.42035e-07
-1.72881e-06
7.68138e-07
9.60671e-07
-1.17011e-06
1.58975e-06
1.72185e-06
-1.04191e-06
1.26967e-06
6.02701e-07
-1.87237e-06
-1.26648e-06
1.57781e-06
-4.19836e-07
-1.47939e-06
5.48936e-07
-5.48936e-07
7.58736e-07
-7.58736e-07
-7.23101e-07
7.23101e-07
6.7248e-07
4.88728e-07
-3.31122e-07
3.31122e-07
8.03669e-07
-8.03669e-07
-9.20383e-07
9.20383e-07
-6.33974e-07
8.61085e-07
-8.61085e-07
6.30022e-07
6.54053e-07
-6.54053e-07
-5.99899e-07
5.99899e-07
4.62944e-07
-4.62944e-07
9.38946e-07
-9.38946e-07
-9.32738e-07
1.63505e-06
-7.02308e-07
8.04186e-07
-8.04186e-07
-2.58419e-07
2.58419e-07
-6.30104e-07
1.66691e-06
-1.03681e-06
1.58443e-06
-1.08134e-06
1.09175e-06
4.5412e-07
1.52244e-06
-8.48433e-07
1.39122e-06
-1.90151e-06
7.49691e-07
-5.54538e-07
5.35006e-07
1.25441e-06
-1.78941e-06
-9.21923e-07
2.17894e-07
1.38155e-06
1.07931e-07
1.22835e-06
-1.33628e-06
1.45716e-06
-7.27675e-07
-1.10232e-06
-6.2673e-07
-1.14254e-06
-3.7007e-07
1.83783e-06
-1.28328e-06
5.71569e-07
-1.28921e-06
-6.50753e-07
-1.91774e-06
7.32979e-07
1.73894e-06
-1.52105e-06
-1.73792e-06
6.35597e-07
5.61629e-07
-1.97765e-06
2.19987e-07
1.49378e-06
-9.33689e-07
1.63647e-06
4.14329e-07
3.23265e-07
1.45022e-06
8.23183e-07
1.92622e-06
2.14904e-07
1.36291e-06
-1.27137e-06
1.28836e-07
-1.04766e-06
1.68664e-06
-1.6945e-06
5.79119e-08
1.63659e-06
1.72334e-06
-1.00408e-06
-7.19265e-07
5.89702e-07
-1.08123e-06
1.69633e-06
-6.15104e-07
-1.11158e-06
1.80963e-06
-1.19974e-06
1.93808e-06
-7.38337e-07
1.73307e-06
-9.64928e-07
7.66106e-07
-5.77256e-07
-1.37859e-06
1.98129e-06
-1.65928e-06
-1.61741e-06
1.93419e-06
-3.16781e-07
1.34803e-06
6.54612e-07
-1.69652e-06
-1.62372e-06
5.86914e-07
1.23728e-06
-1.8706e-06
5.22163e-08
1.81838e-06
1.5141e-06
-1.05998e-06
-1.54781e-06
4.66474e-07
8.14831e-07
-6.7922e-07
5.80406e-07
6.7568e-07
1.57371e-06
-1.02886e-06
-5.44845e-07
7.66571e-08
7.28988e-07
-5.22548e-07
1.77695e-06
6.05412e-07
5.84749e-07
6.09895e-07
7.20597e-10
-1.69522e-06
9.17243e-07
8.00208e-07
1.88016e-06
-1.82225e-06
5.59489e-07
-1.34768e-06
1.90391e-07
1.15729e-06
-9.86184e-07
3.6388e-07
-1.0034e-06
1.41773e-06
8.95773e-07
-1.23035e-06
-9.69112e-07
-6.84612e-07
8.35881e-07
-1.37365e-06
5.3777e-07
-1.04587e-06
-8.00107e-07
1.36225e-06
1.4228e-06
-1.12437e-06
6.35802e-08
9.92353e-07
6.42692e-07
-1.13278e-06
-4.41749e-07
-1.76005e-06
2.2018e-06
-1.83026e-06
7.58262e-07
6.35886e-08
-7.41128e-07
1.36908e-06
-1.00855e-06
1.73753e-06
7.04165e-07
1.0098e-06
-1.71396e-06
9.63434e-07
7.83662e-07
-1.41721e-06
6.33551e-07
7.23453e-07
-1.732e-06
-2.05276e-06
1.40201e-06
-1.10187e-06
1.70728e-06
1.52954e-06
-9.49135e-07
1.79116e-06
-3.70372e-07
-1.53114e-06
1.73207e-06
-1.45821e-06
-2.01068e-07
1.53154e-06
-1.25386e-06
4.36611e-07
1.37336e-06
1.94409e-06
-1.38461e-06
-3.08589e-07
1.65794e-06
-1.34935e-06
-2.21592e-06
1.71733e-06
4.98589e-07
-1.37993e-06
-4.09483e-07
1.56695e-06
-1.56623e-06
-2.34224e-06
9.57183e-07
1.71027e-06
-8.97175e-07
-8.131e-07
-1.22295e-06
1.57126e-06
-2.25558e-06
1.1841e-06
-4.62674e-07
-1.59009e-06
1.82131e-06
-1.84724e-07
7.67145e-07
2.01998e-06
-2.90168e-07
-1.72981e-06
5.13734e-07
-7.9374e-07
-1.8192e-06
-2.10834e-06
1.64567e-06
-2.89963e-07
-1.7503e-06
-1.369e-06
1.56793e-06
-1.98931e-07
-2.05001e-06
-8.96123e-07
1.53882e-06
-8.53574e-07
4.77241e-07
-5.69703e-07
-8.03947e-07
-9.64854e-07
-1.12614e-06
3.85009e-07
-2.10554e-06
2.47744e-07
1.8578e-06
-1.99289e-06
1.00868e-07
1.89202e-06
1.24845e-06
-1.05292e-06
1.7286e-06
-2.28298e-06
1.42941e-06
-2.03352e-06
6.407e-07
-1.66956e-06
-3.42776e-07
1.84098e-06
-1.4982e-06
-1.59575e-06
-1.82869e-06
-1.06762e-06
1.56055e-06
-4.92929e-07
-9.64107e-07
-1.17498e-06
2.13909e-06
1.71538e-06
-1.09915e-06
-7.31119e-07
1.89966e-06
-1.83608e-06
6.37311e-07
1.21581e-06
-2.51714e-06
7.50528e-07
7.01439e-07
-2.11766e-06
-1.72042e-06
9.51215e-07
7.69203e-07
-1.15815e-06
1.86317e-06
-8.3925e-07
-1.02392e-06
-1.59017e-06
1.67469e-06
-9.16433e-07
-1.04164e-06
1.39898e-06
-3.57333e-07
-1.54161e-06
-1.5035e-07
-2.33408e-07
-1.14489e-06
1.3783e-06
-9.19606e-07
-9.98131e-07
1.66028e-06
-9.33228e-08
9.21102e-07
1.33983e-06
2.74749e-07
-1.6241e-06
1.62036e-06
-9.79663e-07
-1.01644e-06
-5.20649e-07
-8.96564e-07
-8.28621e-07
-8.91796e-07
2.28942e-06
-1.33223e-06
3.41715e-07
1.22954e-06
1.47555e-06
7.47807e-07
1.85046e-06
-1.57414e-07
-1.69304e-06
8.61029e-07
-1.96017e-06
6.12753e-07
1.06194e-06
7.1793e-07
9.92344e-07
-8.6504e-07
-8.62149e-07
1.72719e-06
-2.29634e-06
-8.36359e-07
-1.60241e-06
9.82998e-07
7.18349e-07
-1.70135e-06
-1.74514e-06
-8.20444e-07
1.53837e-06
-1.43272e-06
-3.43672e-07
1.77639e-06
-2.09459e-06
-1.56983e-06
2.06842e-06
-7.93681e-07
-9.07666e-07
-1.68259e-06
-1.63267e-06
1.99955e-07
1.15275e-06
1.60132e-06
-5.54568e-07
1.19237e-06
-2.35051e-06
-1.69313e-06
-1.29124e-07
1.47852e-07
1.37728e-06
-2.12509e-06
5.55265e-07
3.23272e-07
1.9652e-06
3.4238e-07
-1.38402e-06
-1.10398e-06
-1.84327e-06
4.58668e-07
7.28893e-07
-1.62607e-06
-1.71011e-06
1.33564e-07
1.87462e-06
-2.00818e-06
-1.65062e-06
1.66646e-06
-1.58491e-08
1.73749e-06
-1.75937e-06
2.54087e-07
9.537e-07
-1.79295e-06
1.15595e-06
-9.01861e-07
-6.88635e-08
-8.67331e-08
-1.42124e-06
1.50798e-06
-1.23338e-06
-1.75847e-06
1.85934e-06
-8.50031e-07
9.13611e-07
-8.40983e-07
1.73629e-06
-8.95304e-07
1.18959e-06
1.88703e-07
-4.55415e-07
-9.53574e-07
1.40899e-06
7.46875e-07
-1.75676e-06
1.00989e-06
-1.46685e-07
2.02536e-07
1.64792e-06
-1.74405e-06
9.0307e-07
-1.73735e-06
1.91501e-06
-1.59174e-06
-8.49085e-07
-1.54737e-06
1.58081e-06
-1.77974e-06
-1.43014e-06
-1.14633e-06
2.96297e-07
1.69736e-06
-3.97533e-07
-1.83752e-06
-1.09741e-07
-2.50314e-07
1.89824e-06
1.56536e-07
6.52748e-07
1.1242e-06
-2.00969e-06
1.6448e-06
1.64114e-06
-2.88999e-07
3.52902e-07
-1.94464e-06
-2.00157e-06
9.77653e-07
-1.71273e-06
-1.42408e-08
1.38938e-06
5.57184e-07
1.91407e-06
-2.20472e-08
1.36046e-06
-1.01808e-06
1.23764e-06
6.88582e-07
-1.74439e-06
9.8617e-07
1.69779e-07
4.58594e-07
1.84349e-06
-7.93344e-07
-9.51046e-07
5.60259e-07
1.00029e-06
6.98293e-07
-1.14863e-06
4.50341e-07
-1.78296e-06
1.82247e-06
-3.95149e-08
-2.22091e-06
1.11693e-06
1.71215e-06
1.55456e-06
-1.9746e-06
1.37088e-07
-1.42684e-06
-1.17487e-06
1.58429e-07
3.43157e-07
-8.482e-07
6.05371e-08
1.99136e-06
-1.98433e-07
1.56134e-06
1.80368e-06
-1.9611e-06
1.77455e-06
-9.57964e-07
-7.8609e-07
-1.19959e-06
-8.01987e-07
-9.87899e-07
-8.81074e-07
-2.06001e-07
-2.03469e-06
-1.4243e-06
-6.13603e-08
1.48567e-06
1.96695e-06
-1.26551e-06
1.44271e-06
1.04145e-06
-9.45007e-07
3.52505e-07
5.92503e-07
-1.33677e-06
1.79543e-06
9.97238e-07
-1.706e-06
7.08766e-07
1.54742e-06
4.19531e-07
-7.8429e-07
-1.17588e-06
1.78135e-06
-1.60255e-06
1.24522e-06
1.40836e-06
-5.35392e-07
-1.06716e-06
-2.08066e-06
-1.8976e-06
-1.45211e-06
2.78093e-08
-8.23711e-07
9.60251e-07
-1.36539e-07
2.15139e-06
1.32563e-07
1.89039e-06
-6.83699e-07
-7.27603e-08
7.5646e-07
-1.26926e-06
1.66328e-06
1.19464e-06
-1.70954e-06
1.58915e-06
-1.60339e-06
6.97932e-07
1.02926e-06
-6.85855e-07
-7.50077e-07
-1.52779e-06
1.61014e-06
1.68446e-06
-8.96472e-07
8.77674e-07
6.60701e-07
-7.9613e-07
-1.75131e-06
1.73534e-06
-7.38098e-07
2.04568e-06
-7.79955e-07
1.07628e-06
4.31389e-07
-1.70832e-06
1.27693e-06
1.41402e-06
1.96114e-07
-1.52688e-06
1.60863e-06
-8.17486e-08
1.57561e-06
-2.55697e-07
1.88938e-06
-1.4765e-08
-3.2631e-07
9.22063e-07
-5.95753e-07
1.78403e-06
-1.22685e-06
2.97233e-07
1.60528e-06
3.57187e-07
-1.81304e-06
1.42359e-06
-1.25155e-06
1.64713e-06
-2.3311e-07
5.27284e-07
-1.7928e-06
1.70447e-06
-6.19085e-07
-1.08539e-06
1.10076e-06
5.15299e-08
-9.34719e-07
1.79978e-06
-8.65059e-07
-7.49975e-07
1.22079e-06
-4.70818e-07
1.80296e-07
3.78363e-07
-1.06422e-06
1.0884e-06
-7.04546e-07
-1.18367e-06
-4.75958e-07
-4.46453e-08
-1.76224e-06
-1.00443e-06
-1.89582e-09
7.35424e-08
-1.76659e-06
1.70559e-06
1.10119e-06
1.65284e-08
1.18914e-06
-7.06764e-07
-5.14741e-07
1.22151e-06
-6.39644e-07
-1.3312e-06
1.97084e-06
8.26535e-07
-1.73972e-06
-7.17153e-08
-1.58223e-07
1.60093e-06
1.96931e-06
1.77938e-06
7.69756e-07
1.26926e-06
3.77873e-07
-6.99112e-07
-1.00689e-06
-2.11991e-06
8.14675e-07
1.30523e-06
3.46977e-08
1.30365e-06
3.20963e-07
-1.28704e-06
5.08446e-07
1.38269e-06
-1.56415e-06
-9.79917e-07
-6.46151e-07
-1.18142e-06
1.7087e-06
2.15299e-07
1.02397e-06
4.41127e-07
-7.78244e-07
1.52084e-06
-7.42592e-07
-8.75579e-07
-7.06051e-07
1.32993e-06
-6.23876e-07
-6.47888e-07
1.74132e-06
-1.09344e-06
1.6261e-06
-1.74253e-06
1.02887e-06
3.22199e-07
-1.35107e-06
-1.53917e-06
1.09036e-07
1.70065e-06
7.91102e-07
1.00868e-06
3.24836e-07
-1.13341e-06
8.08572e-07
1.6818e-06
-6.27514e-07
-8.73183e-07
1.08156e-06
-1.02852e-06
-7.14007e-07
1.75711e-06
-6.75544e-07
1.44869e-06
-1.62817e-06
2.0477e-06
-1.55034e-06
3.68921e-07
5.51684e-07
-1.32399e-06
4.50811e-07
8.92048e-07
5.22115e-07
9.98721e-07
7.66558e-07
-1.41198e-07
-6.184e-07
-1.53886e-06
1.50187e-06
1.08852e-06
1.24283e-06
1.89587e-07
-1.02822e-06
-7.94077e-07
-2.51106e-07
1.18036e-06
1.14363e-07
1.71979e-06
-8.27738e-07
1.3537e-06
1.45799e-06
-2.15158e-07
9.48195e-07
4.0551e-07
-1.10548e-06
-1.27026e-06
2.37573e-06
7.29611e-07
-1.74863e-06
-1.05739e-06
-1.10949e-06
-1.00817e-06
1.15528e-06
3.02708e-07
-1.35319e-06
-8.7239e-08
1.44043e-06
-1.90356e-06
4.23755e-08
-1.09111e-06
1.04874e-06
1.10139e-06
-3.75799e-07
-8.45528e-07
-8.79408e-07
1.72494e-06
-3.46596e-07
-1.20938e-06
-1.72764e-06
1.57227e-06
-1.40148e-06
1.44986e-06
-1.72195e-06
-1.09897e-06
1.34787e-06
-1.98751e-06
1.1309e-06
-1.76611e-07
6.21413e-07
-1.1505e-06
2.51104e-07
8.99395e-07
-9.65573e-07
-7.80934e-07
1.74651e-06
1.60843e-06
-9.47727e-07
-1.31456e-06
1.47748e-06
-1.54423e-06
-2.11365e-06
-1.20529e-06
-1.67891e-06
-1.00491e-06
-1.45584e-07
-1.02449e-06
-7.03147e-07
2.03617e-06
-6.35428e-07
-1.40074e-06
-1.09996e-06
2.12681e-06
-7.0322e-07
2.16254e-06
3.33154e-06
-2.16117e-06
-7.63148e-07
-1.63661e-06
1.02939e-06
1.10472e-06
7.32849e-07
1.29946e-06
1.21022e-06
1.31512e-06
-1.25982e-07
-2.09003e-06
1.33376e-06
-4.10664e-07
8.5655e-07
-5.97784e-07
-2.00471e-06
2.60249e-06
-6.11394e-07
1.47434e-06
-8.62941e-07
2.40627e-06
7.22211e-07
4.34094e-07
1.89249e-06
-1.70995e-06
6.85464e-07
-1.76844e-06
6.89131e-07
1.07931e-06
1.76898e-06
-4.92048e-07
6.80645e-07
-2.40259e-06
5.99796e-07
-1.67053e-06
9.27934e-07
1.33169e-06
1.07458e-06
2.32801e-06
-3.0365e-06
-1.02658e-06
-6.83375e-07
2.58047e-06
-1.36732e-06
-1.14982e-06
-1.19842e-06
4.33454e-07
8.41645e-07
1.17658e-06
5.56165e-07
1.62663e-06
-5.31875e-07
-1.09476e-06
-1.18927e-06
-9.24379e-07
1.19561e-06
-1.8435e-06
1.90001e-06
-8.91334e-07
1.12685e-06
-7.75726e-08
-1.04928e-06
-2.68184e-08
-1.12867e-06
2.34013e-07
8.1876e-07
-1.05277e-06
7.95223e-07
8.90654e-07
-1.98268e-06
2.6268e-06
6.32846e-07
1.33799e-06
1.60982e-08
1.07605e-06
-2.6214e-06
2.50756e-06
1.49136e-06
-8.0775e-07
-5.72333e-07
-8.50459e-07
-8.20067e-07
-1.27463e-06
9.06752e-07
-1.16334e-06
3.37627e-07
8.25712e-07
2.97647e-07
9.41645e-07
-1.55304e-06
2.24879e-06
-9.4356e-07
5.40609e-09
-8.69765e-07
-1.52602e-06
-2.329e-06
5.28948e-07
-2.84484e-06
1.15709e-06
-1.60411e-06
5.18717e-07
1.82536e-06
-1.08702e-06
-9.7563e-07
8.1806e-07
7.36653e-07
1.46607e-06
3.98975e-07
1.07851e-06
-2.56594e-06
-1.54169e-06
-9.27927e-07
-1.0325e-06
1.42387e-07
1.34328e-06
7.7558e-07
1.18028e-06
1.82846e-06
9.90311e-07
9.13586e-07
8.10181e-09
1.26832e-06
9.00304e-07
-1.80566e-08
1.63478e-06
-1.01968e-06
2.13322e-06
-1.58228e-06
1.10633e-06
-1.28733e-06
-1.7114e-06
-1.22623e-06
9.0176e-07
-5.64134e-07
5.68156e-07
6.38919e-07
8.22484e-07
7.32228e-07
-1.53944e-06
1.02571e-06
1.05684e-06
1.71905e-06
-9.99786e-07
-2.51166e-07
-7.94707e-07
1.03432e-06
-1.44499e-06
3.13159e-07
-1.53939e-06
7.95956e-07
-1.69686e-06
2.51699e-06
3.70702e-07
4.11483e-07
-1.21855e-06
1.36094e-06
-1.73732e-06
-1.08051e-06
1.24607e-06
6.09304e-07
-1.05233e-06
1.62909e-06
-5.76766e-07
-1.15553e-06
-5.21438e-07
-1.13183e-06
-1.75166e-06
5.10052e-07
-1.46363e-06
-1.64216e-06
2.52239e-06
-1.78958e-06
1.10621e-06
1.84587e-06
2.56433e-06
4.49379e-06
-3.69347e-07
1.08415e-06
-1.29613e-06
1.23098e-06
-7.53742e-07
9.99816e-07
1.48402e-06
-1.13707e-06
-1.58997e-06
-1.14473e-06
-7.08623e-07
-1.04814e-06
3.38514e-07
4.4367e-07
5.39225e-07
-1.73879e-06
8.5938e-07
-1.16819e-06
1.80548e-06
1.56356e-06
-1.0535e-06
-1.75212e-06
9.71185e-07
6.77679e-07
1.78389e-06
-2.29113e-07
1.38622e-06
-6.4393e-07
-6.03432e-07
-7.97275e-07
1.03424e-06
9.83991e-07
-4.71201e-07
1.57753e-06
-8.61596e-07
-3.48754e-08
-4.51562e-08
2.12192e-06
1.68528e-06
1.08074e-06
1.01282e-06
-9.12253e-07
5.79848e-07
-1.07515e-06
1.76428e-06
-7.60144e-07
1.64391e-07
1.00962e-06
-6.81406e-07
1.76215e-06
-4.02739e-07
1.26644e-06
-1.02251e-06
-9.27661e-07
1.38314e-07
-1.21001e-06
-8.34254e-07
2.99227e-06
3.59805e-07
1.12407e-06
-7.41775e-07
-1.78378e-06
9.86791e-07
-5.24022e-07
1.00482e-06
-8.6651e-07
1.01499e-06
-1.33825e-06
2.05472e-07
6.59707e-07
7.33711e-07
1.37382e-07
2.06363e-06
-1.01777e-06
3.22295e-07
-9.58456e-07
1.41293e-07
-1.33722e-06
9.42327e-08
5.88643e-07
-1.19547e-07
4.72582e-07
-7.41922e-07
3.76978e-06
-1.96221e-06
1.00254e-06
1.11772e-06
-3.09149e-07
-2.18395e-06
1.67035e-06
8.49637e-07
1.45457e-07
-9.95094e-07
-1.50777e-07
1.19997e-06
-8.86046e-07
3.75528e-07
1.45656e-07
-2.27425e-07
-1.20349e-06
4.38019e-07
9.85415e-07
-8.15637e-07
9.52579e-07
-7.05095e-07
-3.98695e-08
-1.01807e-06
4.63507e-07
9.02766e-07
-4.63145e-08
9.81425e-07
1.45616e-06
5.55155e-07
1.2137e-06
-6.33422e-07
5.00169e-07
-5.54995e-07
1.16317e-06
-6.08172e-07
2.2243e-06
1.39559e-07
1.4901e-06
1.68418e-06
-1.7993e-07
1.00043e-06
-6.15422e-07
1.68524e-06
2.08454e-06
-1.38141e-06
-2.15334e-06
8.32106e-07
2.36242e-07
1.38785e-06
2.2243e-06
-1.34439e-06
-3.82996e-07
-9.81748e-07
-1.46947e-06
8.23315e-07
2.04286e-06
-2.80601e-06
-8.43349e-07
1.24092e-06
-8.42162e-07
-7.82213e-08
8.06482e-07
-2.29537e-09
-3.73712e-07
4.25894e-08
-7.49984e-07
2.68828e-08
6.9307e-07
1.06925e-06
4.27715e-07
8.49925e-07
7.49984e-07
-6.9307e-07
-8.49925e-07
-1.11603e-08
4.38555e-07
2.4389e-08
-1.06925e-06
-4.27715e-07
-8.42162e-07
8.06482e-07
-3.73712e-07
4.38555e-07
-1.1407e-06
1.34065e-06
8.49546e-07
-7.31555e-07
1.32963e-06
-1.04159e-06
1.04159e-06
8.49546e-07
-1.52195e-06
-1.44738e-06
8.22433e-07
1.87628e-06
-8.92288e-07
-1.5658e-06
-1.91305e-06
1.29124e-06
5.10855e-07
3.80808e-08
-5.10855e-07
4.79117e-08
-2.10428e-06
-1.98622e-06
6.11703e-07
-9.97957e-07
-1.38563e-07
9.88201e-07
5.10861e-07
-1.23748e-07
7.05348e-07
9.46427e-07
-3.27086e-06
-9.32809e-07
-2.0263e-06
7.28292e-07
9.35632e-07
7.77221e-07
-3.07879e-06
9.2545e-07
-5.45492e-07
7.78933e-07
6.44288e-07
-2.84802e-07
-1.26146e-06
-3.36632e-06
2.46879e-06
8.97532e-07
1.93528e-06
-4.79126e-07
3.10742e-07
-3.10742e-07
-9.74711e-07
-6.98323e-07
-2.09736e-06
8.43907e-07
-6.4403e-07
6.82111e-07
9.63807e-07
-4.33013e-06
1.42051e-06
-2.02344e-06
6.54331e-07
-5.78108e-07
2.01756e-06
-1.40331e-06
1.14783e-06
-1.24737e-06
9.03191e-07
-1.53488e-06
1.16901e-07
-9.83411e-07
6.75458e-07
5.03863e-07
3.918e-07
8.84491e-07
-7.67591e-07
-5.23324e-07
-1.3084e-06
-3.27083e-07
2.45929e-06
-5.56766e-07
-5.56659e-07
5.56659e-07
-5.30305e-07
-1.8631e-08
5.30305e-07
-4.32321e-08
7.12797e-07
-7.12797e-07
-2.61463e-07
-8.72314e-07
5.31282e-07
-1.9071e-06
2.70488e-07
-1.0764e-06
1.84152e-07
7.17608e-07
8.60829e-07
-1.00016e-06
-8.2303e-07
-2.36838e-06
-1.01726e-06
-8.95787e-07
1.15426e-06
7.14486e-07
1.06191e-06
-1.88673e-07
-6.19284e-07
2.33375e-06
-2.33375e-06
5.1641e-07
-6.1488e-07
-1.15655e-06
-1.06809e-06
1.78931e-06
-1.24541e-06
-5.43906e-07
8.27462e-07
-8.33561e-08
6.25705e-07
-5.87791e-07
5.16543e-07
-6.1328e-07
9.13681e-08
-1.63667e-07
1.9813e-07
-7.62264e-07
-1.76634e-07
1.76634e-07
7.1578e-07
4.47387e-07
1.58997e-06
9.99944e-07
-2.78904e-07
-7.2104e-07
4.59115e-07
1.03408e-07
5.23454e-07
-3.918e-07
1.22216e-07
-5.23454e-07
-4.91018e-07
1.80213e-07
3.10805e-07
1.27267e-06
-2.22427e-07
-1.97982e-06
5.76326e-07
-3.36942e-06
2.13209e-06
1.23733e-06
-2.84802e-07
-1.08959e-06
-6.08172e-07
1.08959e-06
3.2752e-07
-3.92473e-08
-6.04683e-07
-2.663e-07
-3.26966e-07
2.663e-07
3.26966e-07
4.79832e-07
-4.79832e-07
1.8576e-06
-3.83578e-07
-1.16831e-06
-5.49934e-07
-1.47708e-07
-4.96323e-07
-2.67277e-07
-4.91459e-07
4.91459e-07
-1.96221e-06
-9.13848e-07
-5.16543e-07
-4.82996e-07
2.09028e-08
6.1488e-07
-6.932e-07
-2.29039e-07
-1.47704e-07
6.36057e-07
3.01121e-06
1.07279e-07
-7.22701e-07
-3.33897e-07
2.10259e-07
5.31282e-07
-1.67049e-06