/*--------------------------------*- C++ -*----------------------------------*\
  =========                 |
  \\      /  F ield         | OpenFOAM: The Open Source CFD Toolbox
   \\    /   O peration     | Website:  https://openfoam.org
    \\  /    A nd           | Version:  9
     \\/     M anipulation  |
\*---------------------------------------------------------------------------*/
FoamFile
{
    format      ascii;
    class       volScalarField;
    location    "0.72";
    object      p;
}
// * * * * * * * * * * * * * * * * * * * * * * * * * * * * * * * * * * * * * //

dimensions      [0 2 -2 0 0 0 0];

internalField   nonuniform List<scalar> 
578
(
-1.56745e-10
-4.04842e-10
-1.16332e-10
1.39311e-11
-3.73544e-10
2.48107e-10
3.64518e-10
-3.16484e-10
-2.6595e-10
-6.11073e-10
1.29824e-10
-3.12985e-10
9.60194e-13
-3.53326e-10
3.40952e-10
-1.20438e-11
-1.91198e-10
-1.74321e-10
-2.44118e-10
-1.76865e-10
1.54662e-11
8.82361e-12
8.0821e-11
9.70335e-11
9.38462e-11
-2.32361e-10
-2.43394e-11
-5.29776e-11
-2.91037e-10
2.40072e-12
-3.34247e-11
2.79988e-10
-1.18383e-10
2.32766e-11
3.06094e-10
-1.31558e-10
-3.15706e-10
-3.02389e-10
-7.49664e-12
-4.36486e-10
-3.40144e-10
-2.76237e-10
-3.50888e-10
3.57186e-10
-9.06258e-11
4.4411e-10
3.40032e-10
-2.86901e-10
-1.19232e-11
-3.05654e-11
3.84475e-10
-1.01061e-13
3.70969e-10
1.9863e-11
-5.20034e-12
-1.6613e-10
7.48466e-11
5.7104e-11
-9.51357e-11
-2.0224e-10
-1.85513e-10
-2.62769e-10
-2.573e-10
-3.91907e-10
-7.00445e-12
3.29973e-10
-6.57032e-11
1.76139e-10
1.19703e-10
-2.25315e-10
3.57937e-11
2.68857e-10
-5.811e-12
-2.6266e-10
1.24121e-10
-4.17765e-10
-3.38881e-10
-2.78224e-10
-5.0007e-12
2.4756e-10
3.06705e-10
-3.05568e-10
4.53868e-10
4.2608e-10
7.35532e-11
2.36108e-10
4.45322e-10
-1.12463e-10
-2.50483e-10
2.2761e-10
-2.3986e-11
1.61759e-10
2.91162e-10
6.20346e-12
1.50304e-10
2.68745e-10
-6.01336e-12
-5.89611e-12
-5.76353e-10
3.39722e-10
3.18013e-10
-2.57393e-10
-1.80505e-11
2.02065e-10
-1.03138e-11
-3.5739e-10
1.39784e-10
-4.23355e-10
2.8263e-10
-3.72033e-10
-1.18075e-10
-2.44095e-10
-1.99536e-10
2.11152e-10
2.33393e-10
-1.2635e-11
1.05083e-11
-1.98946e-10
2.2382e-10
-7.58086e-12
-2.05674e-10
5.91964e-10
-2.84901e-10
8.699e-12
3.46149e-10
1.498e-10
2.53464e-10
-4.14772e-12
2.78722e-10
3.92265e-11
2.81892e-10
1.31898e-10
6.70624e-12
-2.272e-10
2.51311e-10
2.69543e-10
-3.69863e-10
-1.20469e-11
1.39854e-10
2.83915e-10
3.05627e-10
8.26532e-11
2.72687e-10
-1.00404e-10
-2.60321e-10
9.97973e-11
1.02708e-10
-3.62137e-11
-2.8565e-10
-4.99356e-13
-3.04716e-10
1.30017e-10
-3.75599e-10
-2.10203e-10
3.32011e-10
-2.94409e-11
-2.2334e-10
1.0348e-11
3.58305e-10
-3.09524e-10
-3.24514e-10
-3.16458e-10
3.24181e-10
-2.96936e-10
-1.63362e-10
8.89843e-11
-1.11843e-10
3.35348e-10
2.03409e-11
-1.08278e-11
-2.70814e-10
-3.80151e-10
2.7732e-10
2.02222e-10
3.25619e-10
-1.06468e-11
-4.95141e-12
-1.8539e-10
-2.98119e-10
-2.5606e-10
3.57001e-10
-3.17468e-10
1.8895e-10
-4.85404e-12
2.81131e-10
-2.85108e-11
-1.7845e-11
3.68481e-10
3.29056e-10
-3.65101e-10
-3.31368e-10
-3.21019e-10
1.20589e-10
3.30087e-10
-4.76061e-10
-6.59003e-12
3.44432e-11
-4.67956e-11
3.18124e-10
-3.33014e-10
1.44189e-11
-8.53552e-13
6.24441e-10
-1.59789e-11
-8.98486e-12
-3.40706e-10
3.08826e-10
-1.44408e-11
-3.19625e-10
5.09593e-11
5.59738e-11
3.08302e-10
2.38001e-10
-2.78116e-12
2.45426e-10
3.50457e-12
3.27888e-10
-3.29209e-10
3.28756e-10
1.24973e-10
-3.2664e-10
3.22391e-10
-1.49596e-10
-3.32945e-10
3.59535e-10
1.47783e-10
-5.3994e-12
2.55762e-11
-3.8976e-11
-2.87316e-10
-5.43482e-10
5.95129e-10
2.28778e-10
-1.40966e-10
1.395e-10
-2.46137e-10
-3.42128e-10
3.46002e-10
3.3176e-12
-5.47493e-11
3.45239e-10
-3.84014e-10
-1.17536e-11
3.46423e-10
-4.60969e-11
-2.60608e-10
2.82991e-10
-5.39703e-10
2.39094e-10
-1.45662e-12
-5.6873e-12
2.00988e-10
3.20725e-10
4.13173e-11
2.89385e-10
-8.36222e-11
-2.25718e-10
3.1226e-10
-2.77925e-10
5.32328e-10
-1.27537e-10
3.58465e-10
3.43451e-11
3.94943e-11
-3.17884e-10
-1.80043e-10
9.66787e-11
-6.37628e-11
-4.4355e-10
1.15382e-10
-1.16433e-10
1.16729e-10
5.25462e-11
-8.48027e-12
8.56697e-13
-1.65539e-12
-1.83855e-11
6.27934e-11
3.36241e-10
1.0325e-11
-3.53664e-10
-9.44276e-12
-8.62201e-12
-3.01524e-12
-1.46837e-12
2.66378e-10
-1.56747e-10
1.54382e-10
4.69311e-11
3.00431e-11
4.68613e-11
1.90803e-10
-2.01775e-11
3.05749e-10
2.58016e-11
3.45287e-11
-3.52945e-10
-3.96146e-11
-3.20649e-11
2.24914e-11
2.32167e-12
-4.84686e-11
-9.97172e-12
-6.8519e-11
3.49972e-11
1.40301e-12
1.06834e-12
-2.07569e-10
4.04201e-12
-8.27604e-13
-9.84942e-11
-3.07794e-11
-4.08779e-12
-5.41639e-11
1.91346e-11
-6.94912e-12
1.73671e-10
-4.34861e-11
-9.80196e-11
1.95887e-11
1.82379e-10
-1.01298e-11
-6.44826e-12
6.07574e-11
-9.05854e-12
-2.31821e-11
3.06311e-10
3.18608e-10
-3.30454e-10
-2.77076e-11
-1.11508e-11
2.67127e-10
-1.36994e-11
-2.01767e-11
2.22515e-10
3.72468e-11
2.5378e-12
-1.55685e-11
-1.24743e-10
-2.06944e-11
-5.61003e-12
-4.52058e-12
-3.15262e-11
-1.69364e-10
1.42037e-11
2.93934e-10
1.62802e-10
2.61727e-10
-2.61937e-10
3.02646e-10
-2.89664e-10
-3.19218e-10
3.23442e-10
-1.13985e-10
-4.0676e-10
4.16316e-10
4.05091e-11
3.95616e-10
-4.26493e-10
4.17632e-10
-1.05413e-11
-1.40803e-10
2.56024e-11
-2.09236e-10
-4.16231e-12
1.2559e-11
-3.29791e-11
2.57681e-10
1.47937e-12
-2.88259e-11
-3.06445e-10
-2.83002e-10
1.1819e-10
1.72113e-10
1.20024e-10
4.41427e-10
-1.86482e-11
2.96453e-10
-3.07307e-10
-7.27659e-11
-8.00538e-12
-3.10306e-10
3.24773e-10
6.06966e-11
3.28642e-11
-9.99869e-12
2.09624e-12
3.96759e-10
3.70853e-10
-2.41076e-10
-2.49139e-12
6.4672e-11
7.55976e-11
-8.60013e-11
-3.46893e-11
3.24625e-11
2.8499e-10
-6.38437e-11
5.00526e-11
1.00493e-10
-4.58897e-12
2.26151e-10
1.21721e-12
-2.08095e-10
-1.13039e-11
-4.50185e-11
1.91967e-10
-8.65543e-11
1.02684e-10
1.96181e-10
-2.8297e-11
-2.69652e-10
-1.5048e-10
1.66467e-10
-9.89947e-11
1.2277e-10
-2.66134e-10
2.66112e-10
-3.56714e-10
-2.71792e-11
2.92186e-10
1.63175e-10
-2.89035e-10
3.50889e-10
2.24619e-10
-1.39451e-10
-2.27988e-10
-2.19752e-10
-2.81546e-10
-1.31994e-10
2.10821e-10
5.78897e-11
7.9873e-11
-2.42469e-12
2.0009e-10
-1.803e-10
-3.11075e-10
-1.82288e-10
-1.88889e-10
-8.54499e-11
-1.51593e-10
6.03672e-12
1.31084e-11
-3.23842e-11
2.61041e-10
-7.16767e-11
-4.22172e-11
2.28192e-10
2.25728e-10
-2.3782e-11
2.99963e-10
-1.55561e-11
2.35629e-10
2.51733e-12
2.9975e-10
-7.08652e-12
-3.9e-10
9.24589e-11
6.61771e-11
-2.17116e-10
4.68795e-10
2.67464e-10
-1.83202e-10
-1.88011e-10
-7.01583e-11
-2.31143e-10
2.00634e-10
-3.62059e-10
-1.17844e-10
-1.75239e-10
-5.909e-11
-5.82298e-11
2.02257e-10
-2.68314e-11
-7.87799e-11
-2.72356e-10
-2.03514e-10
-2.23255e-10
-1.12565e-10
-1.93912e-10
6.42173e-11
1.04508e-10
-9.29676e-11
-5.24535e-11
-2.60908e-11
-1.66571e-10
-1.10729e-10
-2.19426e-11
-1.68918e-11
2.87063e-10
8.93815e-12
2.09279e-10
-1.08867e-10
8.68112e-12
-1.65211e-11
2.35547e-10
-1.29015e-11
2.67622e-10
-2.01258e-11
7.30931e-12
-3.43546e-10
-5.57912e-11
-1.81617e-10
3.15506e-12
-1.82637e-10
-2.17377e-11
2.65981e-10
1.72696e-11
1.80658e-10
-1.72817e-11
-3.19992e-11
3.27702e-10
4.63719e-12
4.33179e-10
2.98791e-10
-2.51062e-11
-3.08149e-10
-4.19138e-10
2.03954e-10
5.37748e-12
9.9094e-11
1.41656e-10
-8.88218e-11
-2.44964e-10
-2.66314e-10
-2.02778e-12
-6.8081e-11
1.97304e-11
-2.86279e-10
-2.82618e-10
-2.9986e-10
-2.99902e-10
-5.05165e-11
-3.63248e-11
2.73996e-10
2.21894e-10
1.82894e-10
2.51038e-10
2.18735e-10
-2.60034e-11
1.20882e-11
2.59944e-10
-1.58635e-10
-2.30481e-10
3.23668e-10
3.26049e-11
1.2137e-10
-1.8654e-10
-1.43666e-10
-2.16381e-10
1.75339e-10
3.22047e-10
-2.10117e-10
2.97472e-10
1.89603e-10
-1.20309e-10
-3.13088e-10
-4.87482e-11
-5.54073e-12
-2.39787e-11
-1.87858e-11
3.22207e-10
-2.78755e-10
-2.19343e-11
9.01693e-12
1.78933e-10
2.16036e-12
-1.79727e-10
-1.7489e-11
4.89961e-12
2.77405e-10
-1.94048e-10
1.98423e-10
-2.73464e-10
-1.09609e-10
1.16411e-10
1.53438e-10
1.09845e-10
)
;

boundaryField
{
    front
    {
        type            empty;
    }
    back
    {
        type            empty;
    }
    bottom
    {
        type            uniformFixedValue;
        uniformValue    
        {
            type            scale;
            scale           
            {
                type            squarePulse;
                start           0.3;
                duration        0.3;
            }
            xScale          
            {
                type            constant;
                value           1;
            }
            value           
            {
                type            constant;
                value           15.1;
            }
        }
        value           uniform 0;
    }
    left
    {
        type            zeroGradient;
    }
    top
    {
        type            zeroGradient;
    }
    right
    {
        type            zeroGradient;
    }
    inner_arc
    {
        type            zeroGradient;
    }
}


// ************************************************************************* //
