/*--------------------------------*- C++ -*----------------------------------*\
  =========                 |
  \\      /  F ield         | OpenFOAM: The Open Source CFD Toolbox
   \\    /   O peration     | Website:  https://openfoam.org
    \\  /    A nd           | Version:  9
     \\/     M anipulation  |
\*---------------------------------------------------------------------------*/
FoamFile
{
    format      ascii;
    class       surfaceScalarField;
    location    "0.72";
    object      phi;
}
// * * * * * * * * * * * * * * * * * * * * * * * * * * * * * * * * * * * * * //

dimensions      [0 3 -1 0 0 0 0];

internalField   nonuniform List<scalar> 
816
(
8.36061e-18
2.8017e-16
-2.88531e-16
-9.72367e-17
3.92784e-16
-2.95548e-16
-4.87671e-16
4.96031e-16
2.62014e-17
-3.53085e-17
9.10702e-18
2.74841e-16
-2.74841e-16
-1.51644e-16
1.91107e-16
-3.94634e-17
-2.8683e-16
2.8683e-16
-2.58035e-16
2.58035e-16
-5.83833e-16
1.79666e-18
5.82036e-16
7.18636e-17
-1.691e-16
1.47115e-16
-2.98759e-16
6.83387e-16
-4.94769e-16
-1.88618e-16
1.0919e-17
-8.6688e-18
-2.25023e-18
6.6044e-16
-5.9836e-16
-6.20791e-17
-6.52307e-16
5.7576e-16
7.65471e-17
-5.01391e-16
8.25154e-16
-3.23763e-16
-3.12361e-16
-8.91212e-17
4.01482e-16
5.97149e-16
-4.85256e-17
-5.48624e-16
8.02665e-17
6.0312e-16
2.74125e-16
-8.57957e-16
4.88657e-17
-2.26643e-17
6.18639e-17
-5.63255e-16
3.26904e-16
-1.37097e-16
-1.89807e-16
8.39551e-17
3.77615e-17
-1.21717e-16
9.70599e-17
-1.31048e-17
-5.61702e-16
1.37465e-16
4.24237e-16
3.95525e-17
-3.57124e-17
-3.84011e-18
1.17383e-17
-2.44944e-17
1.27561e-17
1.8654e-16
2.06244e-16
2.8734e-16
5.37814e-16
4.3244e-17
-3.15056e-17
5.59257e-17
1.35181e-16
8.72358e-16
-5.85018e-16
1.16806e-16
-8.07459e-17
-3.606e-17
-6.44023e-17
-5.87905e-16
-1.41357e-16
6.79171e-16
6.06685e-17
5.99771e-16
-8.22715e-17
-4.79431e-16
8.49551e-16
-3.09296e-16
-5.40254e-16
1.70874e-16
1.03966e-16
-2.14172e-16
-1.77768e-16
1.75763e-16
5.79768e-16
-4.00783e-18
-2.95469e-16
-1.41459e-16
4.36928e-16
-1.72291e-16
-1.14539e-16
2.22427e-16
5.40461e-16
-5.38664e-16
3.6188e-16
1.30805e-17
2.6472e-17
-3.21132e-17
-7.55483e-18
3.9668e-17
9.12734e-18
1.79168e-18
2.38855e-16
8.80493e-17
6.79659e-17
4.884e-17
-3.95476e-18
3.95476e-18
1.8558e-16
-5.50699e-17
-1.3051e-16
-1.37097e-16
-2.95469e-16
-6.77098e-16
3.64737e-16
2.33184e-16
-3.74541e-16
-7.99488e-17
1.10583e-16
-1.99704e-16
-2.48229e-16
1.99704e-16
-1.93762e-17
-5.78984e-16
1.37667e-17
-8.81244e-18
-4.95431e-18
5.84978e-16
-5.21025e-18
5.58751e-16
3.13607e-16
-2.40389e-16
3.87504e-16
-2.48699e-16
7.26477e-16
-4.77778e-16
1.3213e-16
4.84594e-16
-6.16723e-16
1.6314e-17
2.38125e-17
1.31641e-17
6.02642e-19
4.93034e-16
2.37636e-16
-7.3067e-16
1.37748e-16
-1.59714e-16
2.19659e-17
2.33548e-16
-2.33548e-16
-3.46412e-16
6.20537e-16
-4.68403e-16
1.21991e-16
4.49531e-18
-1.06267e-16
-1.82264e-16
2.88531e-16
-4.72203e-16
-1.85674e-16
6.57876e-16
2.8017e-16
2.12449e-16
-2.12449e-16
-3.12677e-16
3.12677e-16
-3.36914e-16
6.56604e-16
-3.1969e-16
1.67946e-16
5.15524e-17
-7.55483e-18
1.73279e-16
1.23011e-17
-1.47281e-17
-4.58942e-16
4.7367e-16
4.02037e-16
1.73527e-17
-4.1939e-16
7.53157e-18
2.40341e-16
-5.77255e-16
1.60213e-17
4.94592e-16
-5.10614e-16
2.33317e-17
-1.99842e-17
-3.34756e-18
-5.72462e-16
-5.60702e-18
5.20462e-16
-5.14855e-16
-3.35213e-18
1.70453e-18
7.18637e-17
4.61667e-17
-6.34071e-16
-7.29127e-18
5.92269e-16
-4.08995e-16
5.41125e-16
6.76669e-18
8.76054e-18
-1.55272e-17
-4.15563e-16
1.7933e-18
-1.7933e-18
-8.16015e-17
6.81373e-16
9.82851e-17
2.14172e-16
1.67946e-16
-2.16772e-17
-2.11871e-16
2.99206e-16
3.79964e-16
6.22058e-16
5.78069e-16
-7.16483e-16
1.38415e-16
1.03712e-17
-3.60455e-18
-2.60541e-17
-9.25438e-18
2.62521e-16
3.81032e-16
-6.43553e-16
-7.81649e-18
4.09853e-16
-1.55882e-18
3.35212e-18
-2.66848e-17
4.50922e-16
-3.5547e-16
4.27925e-17
1.23689e-16
4.17617e-17
7.10395e-18
-1.43021e-16
-5.28856e-16
5.74239e-16
-4.53826e-17
-9.00077e-17
-3.82195e-16
5.23865e-16
-3.67954e-16
-1.55911e-16
5.03281e-16
1.09686e-16
-5.99117e-16
3.39715e-18
5.9572e-16
-6.16465e-16
8.76088e-17
8.76633e-18
1.45654e-17
-1.49079e-16
1.49079e-16
-5.41893e-16
-5.72244e-17
-4.29359e-18
5.45496e-16
-5.41203e-16
-8.26885e-18
-4.865e-16
-4.38074e-16
-2.7841e-16
-4.26549e-16
4.29947e-16
-7.37066e-18
1.61137e-16
-1.53766e-16
-1.13184e-16
-4.3392e-16
4.97136e-18
9.16962e-17
-9.66675e-17
-1.75763e-16
-6.31434e-18
-5.3394e-16
-6.18229e-17
-3.20537e-16
3.8236e-16
4.98335e-19
-3.42382e-18
2.92549e-18
5.4872e-16
-4.39034e-16
-6.68417e-16
-1.76541e-17
6.86071e-16
1.92929e-16
-1.92929e-16
2.33184e-16
2.61227e-17
1.22956e-16
6.45835e-17
6.11609e-16
-6.76193e-16
-5.49216e-18
1.85727e-17
-2.53681e-16
4.40222e-16
2.50446e-18
6.33273e-18
-8.83719e-18
-1.82264e-16
6.02008e-17
-7.28617e-16
-5.18783e-16
1.61137e-16
-5.23989e-16
5.06335e-16
-5.21522e-17
5.21522e-17
4.86898e-16
-4.71809e-17
-4.39425e-16
5.04009e-16
-4.38818e-19
2.94328e-18
5.05691e-17
-5.42652e-17
3.69608e-18
-5.00339e-17
-4.73955e-16
1.77768e-16
-1.86037e-16
1.9969e-16
-2.03983e-16
-1.79209e-17
1.37912e-16
-1.19992e-16
9.45513e-18
-4.4888e-16
1.90118e-17
-2.39662e-17
2.47595e-17
-5.74769e-18
6.27258e-16
-2.66737e-16
2.16703e-16
-3.07753e-17
-1.06859e-17
4.14612e-17
-1.75667e-16
1.85122e-16
-1.1107e-16
5.32186e-16
-4.21116e-16
-3.96429e-16
4.47981e-16
2.92549e-17
1.99515e-17
5.25545e-16
4.9834e-19
-3.74541e-16
2.54018e-16
2.69847e-16
6.27909e-16
2.98665e-17
-6.57776e-16
-4.06545e-17
9.87917e-18
-6.23992e-16
-2.98997e-17
6.53891e-16
5.26221e-16
-1.98861e-17
4.93449e-16
1.05597e-17
1.691e-16
-2.85061e-17
-2.06935e-17
4.91997e-17
-2.9433e-18
8.78799e-18
-5.8447e-18
3.42383e-18
-8.91599e-18
5.15014e-16
-5.23316e-16
8.30169e-18
5.07101e-16
-4.96321e-16
-1.07796e-17
-4.3881e-19
9.27067e-18
-6.4972e-17
-1.47477e-16
2.20629e-17
3.23491e-17
-3.80968e-17
2.06012e-17
-2.61888e-17
4.3327e-16
2.26871e-17
-3.43224e-16
7.04457e-16
3.46657e-17
-5.76558e-16
9.05849e-19
3.14433e-17
-3.99254e-16
5.75755e-17
-1.58138e-17
-9.73044e-17
1.19992e-16
5.7229e-16
-4.15417e-16
-3.34635e-17
-3.63749e-16
3.89872e-16
1.96817e-16
-2.16703e-16
1.95681e-16
-1.85122e-16
3.64439e-16
-4.37212e-17
-7.26984e-18
5.09911e-17
-4.06545e-17
-6.49719e-17
1.37912e-16
-1.06572e-16
-4.02242e-16
-2.66737e-16
1.96817e-16
1.95681e-16
5.77978e-18
-2.48929e-17
3.46972e-16
-3.22079e-16
-1.75667e-16
-6.44148e-17
-1.45297e-17
-8.91599e-18
-1.53766e-16
-9.87919e-18
8.17429e-17
1.9969e-16
1.41577e-17
7.17321e-17
-8.58898e-17
5.01055e-17
5.27207e-17
5.21518e-16
7.25268e-17
6.26546e-17
3.02678e-17
-9.80629e-17
6.77951e-17
3.9668e-17
5.02395e-16
-6.08967e-16
1.14977e-17
-6.78268e-16
6.73057e-16
9.80629e-17
-1.22956e-16
8.788e-18
1.7895e-17
2.36639e-16
8.71733e-17
-2.65988e-16
6.78812e-17
5.74506e-16
8.09843e-17
-6.58644e-17
5.85946e-17
4.0714e-17
-1.78625e-17
-4.80019e-17
5.72787e-17
-4.31211e-17
-9.73044e-17
2.03983e-16
7.06336e-17
1.79239e-17
-8.85575e-17
1.86037e-16
5.38696e-17
3.81988e-17
2.03957e-17
3.24234e-17
1.76821e-17
2.26316e-17
-1.58539e-17
3.39672e-17
-3.39672e-17
5.02811e-17
-4.35976e-16
-5.23838e-16
1.05451e-17
-6.48103e-17
-2.49989e-17
2.49989e-17
-1.7895e-17
-1.10282e-16
-4.53818e-17
4.71809e-17
-1.79908e-18
4.53818e-17
-2.03828e-17
7.69438e-17
5.02811e-17
-5.46258e-16
-1.04907e-16
9.42212e-17
2.41836e-17
-4.13039e-17
1.71203e-17
4.68152e-17
6.77928e-17
1.11154e-17
4.7141e-17
-5.82564e-17
-1.09305e-17
2.20459e-17
-2.66281e-16
2.51044e-17
-6.64083e-17
7.78937e-17
-3.96948e-17
5.06688e-17
-2.94232e-17
-6.3453e-17
4.15108e-16
6.72109e-17
1.97467e-17
6.17515e-17
-8.14982e-17
-1.60339e-17
5.65311e-17
1.06798e-17
5.92891e-16
-6.1898e-18
6.27209e-17
-1.52056e-17
6.93009e-16
-7.01694e-17
8.08492e-17
-4.66616e-17
-2.92253e-17
6.16487e-17
7.72427e-18
9.34094e-17
-1.71319e-18
-6.86732e-17
2.89784e-17
1.1334e-16
-6.61988e-17
-2.46157e-17
2.61847e-16
-5.87572e-16
3.25725e-16
1.43338e-16
-1.43338e-16
-1.31428e-16
1.31428e-16
-1.5627e-16
1.5627e-16
1.56146e-16
-1.56146e-16
1.70874e-16
-1.72291e-16
-3.91513e-17
-8.21998e-17
1.21351e-16
2.22427e-16
-9.1171e-17
6.65552e-17
-2.1842e-16
2.1842e-16
-2.11871e-16
-2.11128e-16
2.11128e-16
-4.6234e-17
3.40187e-16
-2.93953e-16
1.10583e-16
-2.21689e-17
-1.82197e-16
2.04366e-16
-1.34246e-16
1.34246e-16
-8.70393e-17
5.41423e-16
-4.54384e-16
-2.28431e-16
-6.23748e-16
1.14887e-17
-2.48229e-16
-2.36777e-16
4.74413e-16
1.85041e-16
-3.61901e-16
6.50289e-16
2.38855e-16
-3.12395e-17
-1.29315e-17
2.47186e-17
3.46437e-16
5.50448e-17
-8.60795e-17
-3.56744e-16
4.42824e-16
2.54107e-16
-4.43783e-16
-2.65144e-17
-2.81854e-18
1.70453e-18
-2.12436e-16
-3.75136e-16
3.28987e-16
-4.78465e-16
-8.3533e-16
2.86707e-16
-1.30497e-16
-3.19923e-16
4.5042e-16
-5.66139e-17
-7.94484e-17
-1.87553e-18
8.1324e-17
-5.05633e-16
-4.7072e-17
4.70719e-17
-7.40395e-18
-9.70891e-18
2.15953e-16
-2.46244e-19
-1.54704e-18
1.51281e-17
-4.69512e-16
-5.34392e-16
4.90505e-16
-4.3546e-16
2.02434e-16
-5.31421e-16
1.69521e-16
6.1767e-16
4.02598e-16
1.91798e-16
-9.10762e-17
-3.67866e-16
1.52905e-16
3.41687e-16
-2.66143e-16
-4.64527e-16
3.0168e-17
1.55474e-16
-5.23428e-16
-4.54761e-16
4.06923e-16
5.38871e-16
4.94109e-16
-5.86039e-16
9.19298e-17
-1.65289e-16
-5.38507e-17
-1.13495e-16
-1.70147e-17
-1.65289e-16
-1.14858e-16
-7.26222e-16
-6.48704e-17
7.91093e-16
4.46516e-17
1.85464e-16
2.51464e-16
1.09596e-19
1.59494e-18
-1.51155e-16
1.51155e-16
5.0615e-16
1.15909e-16
2.36893e-16
3.63989e-16
-4.56092e-16
-5.55788e-16
8.62753e-17
3.89844e-17
1.50991e-17
7.55359e-17
-9.70659e-17
2.153e-17
-3.32135e-17
2.28711e-17
-3.16824e-16
7.37368e-17
-5.48021e-16
4.83151e-16
-2.24762e-17
-2.44944e-17
4.39809e-16
-2.46238e-19
-2.27148e-16
1.09595e-19
-4.06346e-16
7.46267e-17
-2.57867e-17
7.20339e-17
-2.60613e-16
5.86338e-16
8.85211e-17
-4.46403e-16
-1.9715e-16
-2.37485e-16
-1.77213e-16
-5.05009e-18
3.34637e-16
1.05585e-16
-3.10423e-17
-5.51524e-17
1.46581e-16
1.67912e-17
1.44745e-16
8.84388e-17
4.20912e-16
5.93323e-16
2.29307e-17
-1.02379e-16
1.27561e-17
-1.77213e-16
-5.86452e-18
8.79001e-18
-7.96108e-17
-2.58904e-18
4.17473e-16
2.639e-16
-4.70131e-16
1.44745e-16
1.85464e-16
9.9513e-17
6.48586e-16
6.08454e-17
1.27082e-17
-3.64163e-16
-1.61027e-19
1.61027e-19
-5.15158e-18
5.59056e-16
1.5614e-19
-1.5614e-19
4.71403e-16
-3.0574e-18
-1.07151e-18
4.81646e-16
-1.6102e-19
1.56147e-19
5.55603e-16
-1.3813e-16
-3.95205e-16
6.79627e-17
-5.26352e-16
4.89946e-18
3.89056e-18
3.5514e-16
-3.68072e-16
-2.52118e-19
-3.71927e-17
-5.98732e-17
6.5126e-17
-4.13134e-17
3.29214e-19
-3.38661e-18
7.02289e-18
-3.27029e-16
3.2421e-16
6.54172e-17
5.2149e-17
2.64069e-17
-5.65071e-16
-2.12674e-16
5.7722e-17
4.17817e-17
4.78101e-16
6.59376e-19
-5.94954e-19
1.7483e-16
-2.61612e-16
-6.39946e-17
-6.18266e-16
-7.09945e-17
-3.95978e-16
-1.81993e-17
3.07928e-16
-3.04523e-16
1.16367e-17
4.07257e-19
-2.65741e-19
5.69717e-17
-1.98938e-16
-1.22235e-16
-6.25372e-17
)
;

boundaryField
{
    front
    {
        type            empty;
        value           nonuniform List<scalar> 0();
    }
    back
    {
        type            empty;
        value           nonuniform List<scalar> 0();
    }
    bottom
    {
        type            calculated;
        value           nonuniform List<scalar> 
12
(
-2.19498e-16
-6.12967e-16
5.08814e-16
-5.09612e-16
2.96255e-16
6.77951e-17
-6.78812e-17
5.16961e-16
6.12677e-16
-5.15978e-16
-2.95704e-16
2.19139e-16
)
;
    }
    left
    {
        type            calculated;
        value           uniform 0;
    }
    top
    {
        type            calculated;
        value           uniform 0;
    }
    right
    {
        type            calculated;
        value           uniform 0;
    }
    inner_arc
    {
        type            calculated;
        value           uniform 0;
    }
}


// ************************************************************************* //
