/*--------------------------------*- C++ -*----------------------------------*\
  =========                 |
  \\      /  F ield         | OpenFOAM: The Open Source CFD Toolbox
   \\    /   O peration     | Website:  https://openfoam.org
    \\  /    A nd           | Version:  9
     \\/     M anipulation  |
\*---------------------------------------------------------------------------*/
FoamFile
{
    format      ascii;
    class       surfaceScalarField;
    location    "1.63";
    object      phi;
}
// * * * * * * * * * * * * * * * * * * * * * * * * * * * * * * * * * * * * * //

dimensions      [0 3 -1 0 0 0 0];

internalField   nonuniform List<scalar> 
1363
(
-4.52657e-07
3.39469e-07
1.13188e-07
-1.2496e-07
2.6313e-07
-1.3817e-07
9.17391e-07
-6.31114e-07
-2.86277e-07
-1.8291e-07
4.68438e-07
-2.85528e-07
7.91745e-07
1.25646e-07
9.88888e-07
-1.08081e-07
-8.80807e-07
-2.78245e-07
2.78245e-07
5.93775e-07
3.95113e-07
-2.92396e-07
2.98297e-07
-5.90091e-09
1.49022e-08
-3.07298e-07
-3.69135e-07
3.30668e-07
3.84678e-08
3.62462e-07
-3.24422e-07
-3.80399e-08
3.17379e-07
-5.00289e-07
-4.50546e-07
4.26472e-07
2.40734e-08
2.30042e-07
1.3242e-07
-1.86374e-07
6.14139e-08
1.03907e-07
-2.88328e-07
1.84421e-07
-1.78452e-07
-2.74205e-07
3.30005e-07
1.19151e-07
-4.49156e-07
-9.26968e-09
9.26968e-09
1.17148e-07
-1.32416e-08
7.4316e-08
-3.98738e-07
-2.62805e-08
-1.57563e-07
1.83844e-07
-9.41686e-08
3.74601e-07
-2.80433e-07
-1.98357e-07
-1.70778e-07
2.71723e-07
-3.65892e-07
8.00816e-07
-7.29146e-07
-7.16703e-08
-2.66857e-07
2.40576e-07
-3.19676e-07
5.07789e-07
-1.88113e-07
8.53561e-08
-4.27459e-07
3.42103e-07
-2.32735e-07
1.26609e-07
1.06126e-07
2.01642e-08
7.80652e-07
1.29323e-07
-4.48999e-07
-4.70206e-07
5.10463e-08
4.1916e-07
7.20618e-07
-6.2853e-07
-9.20885e-08
-4.48384e-07
-1.83636e-07
6.3202e-07
8.97916e-08
-6.33251e-07
5.4346e-07
3.05239e-07
-1.01279e-07
-2.0396e-07
-5.31805e-07
6.21596e-07
9.91887e-08
2.75413e-07
5.19807e-07
-3.74951e-07
-1.44856e-07
8.29141e-07
-1.74189e-07
-6.54951e-07
-1.21748e-07
2.20936e-07
-1.5836e-07
-1.19885e-07
2.09331e-07
6.89139e-08
4.15924e-07
-4.29975e-08
-3.72927e-07
-4.90019e-07
8.45354e-08
4.05483e-07
-1.3044e-08
-4.57162e-07
5.53382e-08
4.64469e-07
-1.95394e-07
-2.55152e-07
4.06324e-07
-7.63195e-08
8.60571e-08
-2.4362e-07
-6.40886e-07
1.92502e-07
4.19957e-07
-1.69049e-07
-2.50908e-07
4.10207e-07
-3.95305e-07
2.00391e-07
-4.24892e-07
2.245e-07
-2.75996e-07
2.75996e-07
6.13797e-09
4.04069e-07
-2.223e-07
-5.3696e-08
-9.02118e-08
4.44491e-07
-3.54279e-07
-2.17807e-07
3.03163e-07
8.02247e-07
-6.94654e-07
-1.07592e-07
7.32957e-08
-2.22494e-08
-1.87878e-08
3.58257e-07
2.78785e-07
2.6454e-08
9.16427e-08
5.71181e-08
-1.48761e-07
7.31007e-08
4.6484e-07
-4.53673e-07
-1.11677e-08
8.09232e-07
-6.08841e-07
4.47625e-07
-2.12349e-07
-2.35276e-07
1.48285e-07
1.14845e-07
-2.18649e-07
2.18847e-07
-1.97825e-10
-1.82811e-07
1.82811e-07
-1.21682e-07
-3.05777e-07
3.18208e-07
1.01749e-07
2.01487e-08
-2.94183e-08
2.56425e-08
-1.63729e-08
2.59637e-08
-2.04704e-07
-2.80306e-08
-5.43297e-08
-1.32044e-07
2.48517e-08
3.24929e-07
-3.4978e-07
3.98332e-07
-2.4202e-07
2.07119e-08
2.21308e-07
3.7313e-08
9.461e-08
-3.74918e-08
-9.7002e-07
9.31573e-07
3.8447e-08
-2.12318e-08
-6.898e-08
-1.20727e-07
1.07428e-07
1.3299e-08
1.03113e-07
3.2336e-07
-1.38475e-07
-1.03545e-07
2.38624e-08
8.05278e-07
3.01719e-07
-4.01686e-08
-2.61551e-07
-4.10488e-07
4.16626e-07
-4.42483e-07
1.75914e-08
-2.02859e-07
4.27359e-07
-2.32588e-07
1.72762e-07
5.98264e-08
2.11734e-07
-3.85923e-07
3.18189e-09
-1.23909e-07
-5.94868e-07
6.1972e-07
6.09777e-08
2.18048e-07
-2.28405e-08
-1.95208e-07
4.61485e-08
-4.56636e-07
-8.36944e-08
2.89265e-07
-1.03143e-07
-9.97159e-08
7.22772e-08
2.30886e-07
4.38267e-08
3.72098e-07
-2.91956e-08
4.84747e-07
-4.55551e-07
2.03723e-08
4.44468e-07
2.67037e-08
-4.80376e-07
2.74515e-08
7.8178e-07
9.2607e-08
-7.01447e-07
-3.23995e-08
-8.42302e-08
-1.34419e-07
5.77944e-08
2.72873e-07
3.01719e-07
-1.9219e-09
-3.35068e-07
3.3699e-07
3.45448e-07
1.2299e-07
-1.10365e-07
1.71343e-07
2.34584e-07
-9.36137e-07
7.01553e-07
-1.71343e-07
2.4362e-07
-7.1865e-07
-1.35107e-07
8.53757e-07
-1.21748e-07
-1.21398e-07
2.20125e-07
-1.7239e-07
-3.2314e-08
8.60571e-08
3.5026e-07
-2.20936e-07
-3.5026e-07
2.77326e-07
7.29337e-08
-6.40886e-07
-1.84805e-07
3.03956e-07
1.84805e-07
-2.05133e-07
2.03279e-08
-3.03956e-07
3.88491e-07
-4.35567e-07
4.22523e-07
4.35567e-07
-4.15195e-07
2.05133e-07
-2.4813e-07
7.75993e-07
-7.48542e-07
-3.88491e-07
4.15195e-07
-6.55935e-07
7.48542e-07
6.55935e-07
-6.00596e-07
-4.22523e-07
6.00596e-07
-1.78073e-07
2.4813e-07
-2.77326e-07
-3.43214e-08
9.16382e-08
-2.64029e-07
6.44047e-07
-5.02714e-08
-1.73587e-07
9.94151e-08
-3.11764e-07
8.93006e-08
1.29546e-07
6.87795e-07
3.46608e-09
-6.91261e-07
-3.10874e-07
-6.59145e-07
3.30261e-07
3.13786e-07
1.3141e-07
-6.85626e-07
5.54216e-07
5.63761e-07
-6.03929e-07
-3.67007e-07
5.7584e-07
-2.08833e-07
-6.83664e-07
5.51346e-08
-8.52692e-07
3.20887e-07
5.4943e-08
3.9667e-08
1.27351e-10
5.98285e-08
-5.99558e-08
1.09423e-07
-2.1244e-07
5.47951e-08
1.47857e-10
-6.37975e-07
-2.14717e-07
-4.87132e-07
2.01604e-07
2.08002e-07
-8.67034e-08
-1.21298e-07
5.15845e-07
-3.84436e-07
1.69315e-08
-4.5143e-07
4.34498e-07
9.38055e-08
1.24243e-07
6.13756e-07
-3.24491e-07
1.1182e-07
-7.48933e-08
-1.26942e-08
-2.36979e-07
6.31307e-08
-3.59705e-08
1.47519e-07
7.84053e-07
-3.99647e-07
2.43739e-07
1.55908e-07
-1.3372e-08
1.86134e-07
-1.68675e-07
-2.30971e-07
-1.54103e-07
-2.8838e-07
-4.45364e-07
2.10746e-07
2.34617e-07
-4.47464e-07
8.04567e-08
3.15169e-07
1.9262e-07
5.45435e-08
-2.01625e-07
-3.00134e-07
2.24746e-07
-2.88581e-07
-3.30842e-08
3.21665e-07
-5.31155e-07
1.21495e-07
4.0966e-07
6.38477e-07
-9.49351e-07
4.78758e-07
-2.68011e-07
9.24389e-07
-7.63628e-07
-1.60761e-07
1.56543e-07
3.22215e-07
-3.23315e-07
2.87345e-07
-2.40072e-08
1.30133e-07
-1.30064e-07
-4.01092e-07
5.08894e-07
-1.91515e-07
5.19107e-07
-4.30474e-07
-8.86334e-08
-2.41087e-07
-1.33864e-07
8.39722e-08
-8.39722e-08
-1.10365e-07
1.78699e-07
3.30195e-07
-1.43537e-07
1.34737e-08
-1.76508e-07
-1.09215e-07
-2.19387e-07
4.9049e-07
-6.90481e-07
8.11976e-07
-3.77754e-08
1.18016e-07
-2.48851e-07
4.2755e-07
-2.14066e-07
4.08358e-07
-1.94291e-07
-9.40237e-07
8.32645e-07
-5.18992e-08
-1.79221e-07
4.20561e-07
-2.4134e-07
-3.17239e-07
9.55716e-07
9.07875e-07
-5.70786e-07
-3.37089e-07
-5.55539e-07
1.25065e-07
-4.83932e-07
-7.16063e-08
-2.26727e-07
4.17726e-07
-1.90999e-07
2.83998e-07
-4.63219e-07
-4.62183e-07
6.18726e-07
4.27155e-07
-2.44063e-07
-1.83092e-07
5.96307e-08
-5.96307e-08
4.76083e-07
-4.76083e-07
-1.25802e-07
-8.14435e-07
-7.28209e-08
5.4843e-07
-4.75609e-07
2.64177e-07
1.10999e-07
-3.75176e-07
-1.42397e-07
3.67143e-07
-7.88438e-07
9.79567e-08
3.82818e-07
-3.82818e-07
-7.65945e-10
7.65945e-10
1.93834e-07
1.86037e-07
-4.34889e-07
6.75668e-07
2.32207e-07
3.44905e-07
2.40169e-07
-6.4116e-07
1.57227e-07
-5.3016e-07
3.7855e-07
2.35206e-07
-6.77166e-07
-4.44854e-08
7.21651e-07
3.76135e-07
-2.20227e-07
-2.28637e-07
4.63254e-07
-1.40533e-07
1.28735e-07
-8.5069e-07
7.21954e-07
1.85815e-07
1.68563e-07
7.98588e-07
1.66591e-07
-3.85978e-07
1.69822e-07
-9.3345e-07
-2.27978e-07
5.50193e-07
1.83488e-07
-5.06668e-07
4.49494e-07
1.69232e-07
-5.83214e-07
-3.84549e-07
9.67763e-07
1.47498e-07
-3.97186e-07
2.06187e-07
3.96306e-07
-9.7952e-07
-9.06524e-07
-2.25702e-07
6.75196e-07
-4.87833e-07
-3.62857e-07
5.46891e-07
3.16001e-07
-8.62893e-07
-1.22646e-08
-1.86888e-07
9.08842e-07
7.66859e-07
-9.53746e-07
-9.13518e-07
9.06328e-07
7.19074e-09
2.17343e-08
-1.14077e-07
9.46722e-07
-6.70422e-07
-4.7177e-07
8.68076e-07
-9.81934e-07
-9.07855e-08
1.07272e-06
-8.3717e-07
6.76408e-07
2.78559e-07
-1.92502e-07
-6.43775e-07
4.60139e-07
2.48925e-09
2.7607e-07
-8.09741e-07
-1.72193e-07
6.62469e-07
-4.34969e-07
-2.275e-07
-6.01105e-07
7.10528e-07
-4.6206e-07
1.03986e-06
-5.77797e-07
-1.05447e-06
5.92414e-07
3.4207e-07
3.33126e-07
8.88961e-07
4.83317e-07
1.79152e-07
4.17979e-07
-3.96244e-07
-8.80042e-07
4.08272e-07
2.81548e-07
4.75976e-08
-3.29145e-07
-8.21758e-07
7.30973e-07
-5.82213e-08
1.48002e-07
-8.9781e-08
8.47584e-07
-5.82382e-07
-2.65202e-07
2.46479e-07
4.00489e-07
-9.82871e-07
9.67031e-08
6.13825e-07
6.2491e-07
-5.96297e-08
-5.65281e-07
2.30117e-07
-1.14739e-06
3.32236e-07
8.1515e-07
-1.0574e-06
2.01226e-07
8.56178e-07
8.31887e-08
5.41722e-07
2.79899e-08
6.93661e-07
-1.06722e-06
1.10094e-07
9.57126e-07
-1.92139e-07
1.92139e-07
-2.94183e-08
-2.61551e-07
-1.19885e-07
2.09727e-08
-2.09727e-08
-1.12101e-07
1.12101e-07
-1.21398e-07
4.44258e-07
-6.07509e-07
1.63251e-07
-1.22094e-07
1.22094e-07
-3.61436e-07
3.61436e-07
-2.223e-07
-4.87008e-08
4.87008e-08
4.10816e-08
-4.10816e-08
2.56425e-08
1.65233e-07
-1.65233e-07
2.09331e-07
2.20125e-07
2.61865e-07
1.56113e-07
4.0526e-07
5.1376e-07
-9.1902e-07
3.98506e-08
-3.98506e-08
5.51975e-07
-2.70428e-07
-9.9522e-07
3.40269e-07
3.34357e-07
-3.34357e-07
-5.08231e-07
7.32622e-08
6.7335e-07
-1.62659e-09
-6.71724e-07
-5.23249e-07
-8.18088e-07
1.34134e-06
-8.02201e-07
-3.45185e-07
-1.30205e-06
7.78802e-07
-3.43181e-07
-1.6505e-07
-1.04456e-06
-1.28394e-08
-9.96511e-09
9.17022e-08
-8.17371e-08
-6.81864e-08
-7.75993e-07
3.42347e-07
-2.59159e-07
8.80113e-08
-5.62762e-07
4.74751e-07
-1.04336e-06
4.11368e-07
-2.82641e-07
-1.28727e-07
-7.47815e-07
8.44519e-07
2.21265e-07
-7.63783e-07
7.72338e-07
-8.55571e-09
-5.50962e-07
-7.38473e-07
9.46301e-07
-6.99822e-07
1.01118e-06
-6.10694e-07
-5.55338e-08
9.95376e-07
-5.92954e-07
-4.02422e-07
-5.97067e-08
1.51409e-07
-8.41594e-07
-4.60458e-07
-7.99692e-07
7.40062e-07
4.02923e-07
1.47423e-07
-8.59638e-07
7.12215e-07
8.06608e-07
-7.18596e-07
9.80006e-07
-6.4777e-07
1.58511e-07
8.12989e-07
-9.715e-07
-6.87077e-08
3.08556e-07
-2.39848e-07
7.65232e-07
1.10368e-06
-9.0245e-07
-2.31515e-07
-2.26479e-07
4.57995e-07
6.21339e-07
-6.85759e-07
6.44198e-08
1.21666e-06
-1.10657e-06
-4.87063e-07
-7.56994e-08
4.9645e-07
1.27604e-06
-9.35772e-07
-6.89145e-07
5.60418e-07
1.98485e-07
8.07361e-08
9.63591e-07
-1.98359e-07
3.11361e-07
3.84682e-07
3.01475e-07
4.81605e-07
-5.50313e-07
-2.7354e-08
3.87052e-07
1.17392e-06
2.10474e-07
-6.033e-07
3.92826e-07
-6.68954e-07
1.25019e-06
-5.8124e-07
7.63358e-07
-1.42019e-07
5.93277e-07
-1.14424e-06
7.70402e-08
-5.27248e-07
1.72097e-07
-7.57705e-07
5.92656e-07
-6.34509e-07
-1.19576e-07
2.32683e-07
4.89889e-07
-7.16368e-07
-2.65955e-07
1.07894e-06
-9.77988e-07
3.30217e-07
-1.12668e-06
2.24235e-07
4.78277e-07
4.85314e-07
8.812e-07
-4.17602e-07
-9.09538e-07
1.32714e-06
-8.37168e-07
6.09668e-07
-1.35337e-06
-3.40656e-07
-6.30845e-07
-1.29387e-06
1.873e-07
5.04962e-07
3.86657e-07
-1.20474e-06
-9.54588e-07
-6.76512e-07
-1.97288e-07
5.34577e-07
5.13068e-07
3.07038e-07
-8.20106e-07
4.13624e-07
-2.0315e-07
4.01699e-08
3.68703e-08
9.0012e-07
2.96262e-07
1.61733e-07
-1.19316e-07
7.81271e-07
-6.61955e-07
-6.44235e-07
9.55596e-07
7.60097e-07
-1.06118e-06
8.37674e-07
-7.89583e-07
8.70319e-07
-3.33852e-07
7.26678e-07
1.07773e-06
-1.83473e-07
8.95688e-07
-7.34313e-07
-1.91589e-07
9.25902e-07
7.57582e-07
-8.13116e-07
7.73134e-07
-8.92709e-07
-5.89682e-07
7.16886e-07
-1.27204e-07
4.15261e-07
-9.17786e-07
-2.44512e-07
6.98401e-07
4.4206e-07
-5.8023e-07
6.80842e-08
-5.66268e-07
9.5095e-07
-7.2227e-07
9.20756e-07
1.7903e-07
-1.44652e-07
-7.81649e-07
5.22753e-07
2.58895e-07
2.31125e-07
3.06715e-07
-6.55991e-07
9.60586e-07
-3.04595e-07
2.33326e-07
-1.31173e-07
-6.64321e-07
7.95494e-07
-9.11275e-07
2.34763e-07
9.1269e-07
-3.03022e-07
-4.74783e-07
1.12423e-06
-9.36926e-07
7.14376e-08
-7.90034e-07
-6.8704e-07
-2.98332e-07
9.36832e-07
6.14358e-07
-8.48626e-07
8.21272e-07
-9.59013e-07
1.69638e-07
6.85974e-07
-9.30486e-07
2.1693e-08
3.60367e-07
6.00218e-07
-5.51422e-07
8.93951e-07
-3.4253e-07
2.32085e-07
6.93816e-07
-8.56017e-07
-4.6576e-07
-2.73039e-07
2.97291e-07
9.73619e-07
-9.05535e-07
2.069e-07
5.09986e-07
9.74725e-07
-4.75065e-07
-5.10937e-07
9.86002e-07
2.82633e-08
-5.15326e-07
-9.32589e-07
5.48039e-07
7.61771e-07
-7.40078e-07
-1.54987e-07
5.97047e-07
2.81757e-07
-6.88541e-07
4.06785e-07
-2.12444e-07
-3.67786e-07
1.00731e-06
3.97022e-07
5.77703e-07
-4.10327e-07
-5.08692e-07
9.19776e-07
3.2525e-07
5.68701e-07
-9.50515e-07
5.40188e-07
-9.83757e-07
-8.19307e-07
4.56269e-07
-1.74513e-07
-3.20271e-07
-5.85982e-07
-4.06055e-07
-7.98425e-07
4.91711e-07
2.34968e-07
-9.00716e-07
6.27678e-07
-4.12346e-07
-5.20242e-07
5.54158e-08
-2.28339e-07
-6.79942e-07
4.08839e-07
-3.04489e-07
8.52528e-07
4.33492e-08
-5.56138e-08
-5.19414e-07
-4.31101e-07
-7.36702e-07
2.05512e-07
1.52745e-07
9.25469e-07
-4.29646e-07
3.11164e-07
2.78457e-07
1.77812e-07
-3.31827e-07
8.15624e-07
5.27302e-07
-3.77245e-07
-1.50057e-07
1.95476e-07
4.03277e-07
-2.17559e-07
8.88092e-07
-6.70533e-07
6.81734e-07
9.29639e-07
-1.31051e-07
-7.47719e-07
7.41052e-07
-2.31066e-07
8.15562e-07
5.12712e-07
6.30673e-07
-1.61763e-07
5.52244e-07
3.00285e-07
-7.253e-07
-2.0815e-07
5.38234e-08
-1.09437e-07
2.59494e-07
-8.16817e-08
2.32854e-07
-9.36093e-07
2.10793e-07
2.03904e-07
2.04454e-07
4.37566e-07
-2.51751e-07
8.01473e-07
-2.60424e-07
-9.30958e-07
8.56606e-07
-6.45813e-07
-1.19904e-07
-3.3596e-07
3.06628e-07
2.93319e-08
-8.11916e-07
-6.2263e-08
2.06751e-07
2.30049e-07
-4.29775e-07
-2.35941e-07
2.01705e-08
-4.44765e-07
3.89941e-07
1.08591e-07
2.69672e-07
2.05528e-07
2.37791e-08
1.53885e-08
9.34335e-08
1.77271e-07
1.76726e-07
1.83274e-07
3.04851e-07
2.88785e-07
6.45386e-08
2.47409e-08
-8.92795e-08
-8.47153e-07
-2.74499e-07
4.20426e-07
-2.36939e-07
1.24355e-07
1.20445e-07
2.15794e-07
1.14101e-07
-8.14917e-07
-3.79241e-07
1.35852e-07
1.08948e-07
-1.28209e-07
4.65271e-08
1.53003e-07
1.04645e-07
-4.20986e-07
7.46776e-08
4.24707e-08
-9.09416e-07
1.08822e-07
4.82122e-07
1.26316e-07
-6.17774e-08
2.64863e-07
-6.6304e-07
-2.73097e-07
-4.99831e-07
4.11699e-07
3.01082e-07
5.04579e-07
-2.88139e-07
-1.08942e-06
-1.34291e-07
-9.41897e-07
1.80862e-07
1.45733e-08
-1.83622e-07
5.58186e-08
-1.57098e-07
-2.79323e-07
1.88957e-07
8.70391e-08
-7.74642e-08
-2.10675e-07
-3.69541e-07
6.39106e-08
-5.51743e-07
1.09907e-09
-1.31896e-07
2.80181e-07
-3.98206e-07
-4.17119e-07
1.86148e-07
3.88102e-07
1.37596e-07
-7.50894e-08
-6.25063e-08
-2.04698e-08
-8.16741e-08
-9.38371e-08
-1.58264e-07
-2.40474e-07
-3.19475e-08
-2.04698e-08
-2.64117e-07
1.44424e-07
-6.97461e-08
1.76054e-07
-1.88554e-07
3.43894e-07
-6.90421e-09
4.65151e-07
-5.20566e-07
5.24062e-09
8.75051e-07
-6.7449e-08
-4.02614e-07
1.86644e-07
2.1597e-07
-1.71446e-07
-2.1746e-07
-2.1934e-07
-4.5414e-07
-1.64266e-07
-1.12014e-07
1.8531e-07
1.08719e-06
2.22672e-07
-1.75075e-07
5.30481e-07
-5.43979e-08
5.53134e-08
-4.55919e-07
2.36064e-08
3.60242e-08
4.55919e-07
-2.36064e-08
2.25111e-07
5.30481e-07
2.09778e-07
-8.2827e-07
8.15431e-07
7.886e-07
-5.56393e-07
-1.28264e-07
-8.16454e-08
-4.04483e-08
5.7572e-08
-1.77214e-08
4.16847e-08
-4.27903e-08
-2.02025e-07
-5.95262e-08
-8.16454e-08
1.38276e-09
-2.23555e-08
-1.76004e-07
6.39035e-08
1.39025e-07
-2.89788e-07
-7.1648e-08
-4.16847e-08
-7.01614e-09
4.27903e-08
5.91054e-09
2.02025e-07
-3.67913e-08
-1.39025e-07
-2.62082e-08
2.89788e-07
-1.38276e-09
5.7572e-08
-1.76004e-07
1.59271e-08
-6.26496e-07
5.39013e-08
-4.02559e-07
6.9985e-07
2.29816e-07
-2.97265e-07
9.71219e-08
2.26276e-07
1.42787e-07
8.82242e-07
-5.40887e-07
9.48839e-09
-4.61142e-07
2.26276e-07
2.08023e-07
-3.87175e-07
2.82856e-07
-2.62528e-07
8.35222e-07
4.56218e-08
6.64792e-08
-4.56218e-08
-5.04192e-07
6.75562e-07
-1.71369e-07
-1.00823e-06
-1.66299e-07
1.72122e-07
-4.58399e-07
3.88248e-07
6.06921e-07
-5.98365e-07
-4.58369e-07
3.31166e-07
2.09982e-07
-1.56591e-07
3.56854e-07
9.23489e-08
-6.87217e-07
3.39683e-07
2.28248e-07
-5.68928e-07
5.68928e-07
-3.3215e-07
-7.2941e-07
-2.44873e-07
3.56854e-07
2.79954e-07
-6.19481e-07
2.93754e-07
-1.68518e-07
-2.82911e-07
4.1269e-08
-2.03002e-07
8.31077e-07
-4.28655e-07
-1.82633e-07
1.82633e-07
-3.00889e-08
-2.26587e-07
-5.45466e-08
5.45466e-08
-6.93989e-08
6.93989e-08
-2.48613e-07
3.66534e-08
6.95214e-08
-6.05701e-07
3.74579e-07
2.31122e-07
5.13006e-07
-5.13006e-07
3.24929e-07
1.40956e-07
2.93542e-07
5.98285e-08
-7.13543e-07
1.43026e-07
4.31081e-08
1.48936e-07
-4.60734e-07
-6.43301e-07
-9.70442e-09
1.04704e-08
-1.6557e-07
-2.96375e-08
3.39497e-08
8.08953e-08
1.48598e-08
1.90899e-08
-8.95597e-07
-1.38186e-08
-3.34975e-07
-5.45832e-07
-5.49228e-07
1.46669e-07
1.88957e-07
2.81748e-08
1.93134e-07
6.71087e-08
-1.40192e-07
1.02859e-07
-1.02859e-07
-6.44596e-08
7.95433e-07
-5.20668e-07
-3.4978e-07
-4.05023e-08
4.05023e-08
-7.69951e-07
-3.9572e-07
9.22857e-08
1.65362e-08
1.28856e-07
-5.77589e-07
6.69341e-07
-9.17521e-08
-4.7726e-07
1.80803e-07
2.96457e-07
-5.99558e-08
-4.57409e-07
2.48865e-07
-1.56579e-07
-2.46254e-07
-4.88727e-08
4.88727e-08
2.53671e-07
3.91936e-07
-5.46038e-07
-2.03361e-07
2.82864e-08
-1.64382e-08
1.38467e-07
4.23273e-08
-2.2359e-07
1.52047e-07
-7.29636e-07
-2.48036e-07
6.51853e-08
2.22159e-07
3.01742e-08
-1.9444e-07
-8.32252e-08
2.58533e-07
-3.13092e-07
3.37686e-08
9.70442e-09
3.77689e-07
-9.42869e-09
3.05762e-07
2.4548e-07
1.32209e-07
5.50958e-07
-2.45197e-07
2.04378e-07
3.74904e-07
-3.88096e-07
4.17182e-07
-1.03636e-07
6.95007e-07
-3.74119e-07
-1.76839e-07
5.5526e-07
-7.47471e-08
2.05317e-07
-1.91844e-07
-3.8375e-08
6.70662e-07
-3.59498e-07
4.49858e-07
-1.16557e-08
-9.47701e-08
4.87387e-08
4.99293e-07
1.34713e-07
-1.74869e-07
2.97859e-07
1.43457e-07
-5.68331e-07
4.59914e-07
4.14003e-07
-2.67334e-07
3.77211e-07
8.57944e-08
1.51275e-07
-4.02866e-07
-2.05434e-07
-8.39975e-07
5.97267e-08
-4.7773e-07
-7.73899e-08
5.59211e-08
2.75069e-07
1.98688e-07
-1.10561e-07
1.09569e-07
-2.13379e-07
2.47148e-07
1.10831e-08
-5.29867e-08
)
;

boundaryField
{
    back
    {
        type            empty;
        value           nonuniform List<scalar> 0();
    }
    front
    {
        type            empty;
        value           nonuniform List<scalar> 0();
    }
    top
    {
        type            calculated;
        value           nonuniform List<scalar> 10(-4.368e-07 -4.752e-07 -3.6e-07 -2.448e-07 -2.448e-07 -3.6e-07 -4.368e-07 -9.12e-08 -9.12e-08 -4.752e-07);
    }
    outer_arc
    {
        type            calculated;
        value           uniform 0;
    }
    bottom
    {
        type            calculated;
        value           nonuniform List<scalar> 10(8.74179e-07 4.24595e-07 -3.91676e-08 -2.70704e-07 -5.93636e-07 1.12165e-06 -3.29895e-07 1.19416e-06 -1.3892e-07 9.7374e-07);
    }
    inner_arc
    {
        type            calculated;
        value           uniform 0;
    }
}


// ************************************************************************* //
