/*--------------------------------*- C++ -*----------------------------------*\
  =========                 |
  \\      /  F ield         | OpenFOAM: The Open Source CFD Toolbox
   \\    /   O peration     | Website:  https://openfoam.org
    \\  /    A nd           | Version:  9
     \\/     M anipulation  |
\*---------------------------------------------------------------------------*/
FoamFile
{
    format      ascii;
    class       volScalarField;
    location    "0.81";
    object      p;
}
// * * * * * * * * * * * * * * * * * * * * * * * * * * * * * * * * * * * * * //

dimensions      [0 2 -2 0 0 0 0];

internalField   nonuniform List<scalar> 
90
(
-7.76222e-23
3.19915e-23
4.79183e-22
1.42075e-21
4.47433e-22
-1.01549e-21
5.90771e-24
-1.65152e-22
-2.48301e-22
-1.38128e-22
4.10032e-23
-1.64153e-22
-1.83939e-22
6.52651e-22
-3.99987e-22
-2.84741e-21
3.02826e-21
-5.84869e-22
-6.37433e-22
-2.7788e-23
-4.23076e-23
-1.93072e-23
1.16963e-23
1.73174e-22
-3.34992e-23
2.96742e-22
-3.06624e-22
1.81051e-22
3.68158e-22
-2.19607e-22
-1.51378e-22
5.05816e-22
3.77005e-22
2.23026e-22
3.32446e-22
-2.80592e-21
-1.37207e-22
4.41601e-21
4.23214e-22
-1.1252e-22
-2.24263e-22
-3.13655e-22
6.22083e-22
-4.15916e-23
-8.6849e-24
6.12526e-22
-2.07649e-22
-1.05374e-21
-5.48171e-22
7.99525e-22
-5.21749e-24
-9.68113e-23
-2.13099e-22
5.16376e-22
-1.95609e-22
-7.26783e-22
1.61894e-24
-9.20844e-24
-5.38528e-23
6.1881e-22
-2.10212e-22
6.60944e-22
9.10745e-22
5.08754e-23
-4.33581e-22
-2.70612e-22
6.03008e-22
6.94201e-22
3.70684e-21
9.31983e-23
-1.32903e-21
-1.40225e-22
5.5774e-22
-1.25106e-21
-2.63964e-21
-1.98416e-22
-1.42974e-22
4.59265e-22
7.53114e-23
1.15853e-23
4.36803e-21
-2.15576e-23
-1.26859e-23
-2.42343e-21
9.7032e-23
9.59665e-22
-7.97282e-23
-1.32634e-22
-1.64753e-21
-2.61649e-22
)
;

boundaryField
{
    back
    {
        type            empty;
    }
    front
    {
        type            empty;
    }
    bottom
    {
        type            zeroGradient;
    }
    outer_arc
    {
        type            zeroGradient;
    }
    right
    {
        type            uniformFixedValue;
        uniformValue    
        {
            type            scale;
            scale           
            {
                type            squarePulse;
                start           0.3;
                duration        0.3;
            }
            xScale          
            {
                type            constant;
                value           1;
            }
            value           
            {
                type            constant;
                value           15.1;
            }
        }
        value           uniform 0;
    }
    inner_arc
    {
        type            zeroGradient;
    }
}


// ************************************************************************* //
