/*--------------------------------*- C++ -*----------------------------------*\
  =========                 |
  \\      /  F ield         | OpenFOAM: The Open Source CFD Toolbox
   \\    /   O peration     | Website:  https://openfoam.org
    \\  /    A nd           | Version:  9
     \\/     M anipulation  |
\*---------------------------------------------------------------------------*/
FoamFile
{
    format      ascii;
    class       surfaceScalarField;
    location    "0.81";
    object      phi;
}
// * * * * * * * * * * * * * * * * * * * * * * * * * * * * * * * * * * * * * //

dimensions      [0 3 -1 0 0 0 0];

internalField   nonuniform List<scalar> 
122
(
-4.34972e-30
5.11479e-30
-3.37771e-30
6.72515e-29
-3.36325e-29
-2.83621e-29
-5.03955e-29
6.63578e-29
1.76266e-29
-2.0391e-29
5.30514e-29
1.68183e-28
-1.58464e-28
1.71238e-30
-4.3008e-30
2.38746e-30
-3.98025e-29
3.12899e-29
-2.6853e-29
1.98539e-30
2.36279e-30
8.36516e-30
5.44378e-30
-1.53957e-29
-5.14443e-29
9.14719e-29
-1.2439e-29
8.21712e-29
-4.46593e-29
-5.99356e-29
-6.25236e-30
2.38649e-29
-2.02977e-29
-3.30221e-29
-7.7584e-30
-3.00267e-30
3.74114e-30
1.55201e-29
-1.91105e-29
-7.08715e-30
-6.16565e-31
-1.10995e-29
7.15525e-30
-1.21503e-29
-1.61287e-29
6.98813e-30
9.10585e-30
-8.28118e-30
3.40734e-31
-9.62759e-30
-5.0067e-30
1.56674e-30
1.0739e-29
-6.08594e-29
6.37878e-29
-5.36563e-30
-6.65413e-30
-1.10139e-29
-3.65826e-30
-4.37702e-30
9.32803e-31
9.3906e-31
-3.20253e-29
-2.44973e-29
3.28284e-29
5.96e-30
-1.74779e-29
6.45687e-30
-4.99514e-30
2.06283e-30
2.37882e-29
4.56559e-31
-3.64406e-29
4.29708e-30
4.97847e-30
-5.45213e-31
-4.27905e-30
-6.53183e-30
3.12406e-29
-1.80897e-29
-3.83725e-30
-1.15808e-30
-3.39648e-29
2.02716e-30
-2.50517e-30
1.3867e-29
2.00618e-30
7.20023e-30
1.68435e-29
-5.79371e-29
6.44578e-30
-1.08848e-29
7.6878e-30
-4.70538e-30
8.63589e-31
-3.61191e-30
6.596e-30
-4.56764e-30
5.42368e-31
-6.36013e-30
7.80827e-30
1.48583e-29
2.99897e-29
1.29232e-29
9.84697e-30
3.21567e-29
4.34389e-31
1.92984e-29
-1.5328e-29
-1.75748e-29
9.07988e-29
-9.24167e-29
-4.48695e-29
5.97327e-29
5.39897e-30
9.96224e-30
-5.23584e-29
-2.89447e-30
3.13687e-30
-7.81533e-30
-2.3286e-29
2.16592e-30
)
;

boundaryField
{
    back
    {
        type            empty;
        value           nonuniform List<scalar> 0();
    }
    front
    {
        type            empty;
        value           nonuniform List<scalar> 0();
    }
    bottom
    {
        type            calculated;
        value           uniform 0;
    }
    outer_arc
    {
        type            calculated;
        value           uniform 0;
    }
    right
    {
        type            calculated;
        value           nonuniform List<scalar> 4(3.19914e-30 1.43482e-29 1.51918e-29 1.4442e-29);
    }
    inner_arc
    {
        type            calculated;
        value           uniform 0;
    }
}


// ************************************************************************* //
