/*--------------------------------*- C++ -*----------------------------------*\
  =========                 |
  \\      /  F ield         | OpenFOAM: The Open Source CFD Toolbox
   \\    /   O peration     | Website:  https://openfoam.org
    \\  /    A nd           | Version:  9
     \\/     M anipulation  |
\*---------------------------------------------------------------------------*/
FoamFile
{
    format      ascii;
    class       volVectorField;
    location    "0.81";
    object      U;
}
// * * * * * * * * * * * * * * * * * * * * * * * * * * * * * * * * * * * * * //

dimensions      [0 1 -1 0 0 0 0];

internalField   nonuniform List<vector> 
90
(
(-7.94048e-23 2.1356e-23 3.05246e-39)
(-7.93668e-22 -1.17597e-21 -5.27971e-38)
(5.65523e-22 1.19465e-21 4.92541e-38)
(1.2823e-21 3.29423e-23 -4.87794e-38)
(-2.33543e-21 -2.95097e-21 -1.27327e-37)
(-6.59229e-22 -5.93025e-22 4.19459e-38)
(-9.00129e-24 -6.72912e-23 -3.42331e-39)
(5.07215e-23 8.33723e-23 -1.02014e-38)
(5.75598e-23 6.17524e-22 0)
(9.19588e-23 2.22239e-24 0)
(2.88854e-22 -2.14928e-23 7.5724e-39)
(4.32087e-22 1.88308e-21 -9.6578e-39)
(-1.74324e-23 1.4457e-22 -2.29771e-39)
(7.63325e-22 -7.59443e-23 2.2321e-39)
(2.57769e-22 1.84633e-21 0)
(-8.59848e-22 -1.59184e-22 0)
(-1.38e-21 -1.1101e-21 1.62569e-37)
(-8.69755e-22 6.46608e-22 2.37549e-38)
(-1.93371e-22 -7.97237e-22 0)
(1.11399e-23 1.67303e-22 3.8188e-39)
(3.40995e-22 1.93297e-22 -6.27007e-39)
(6.89359e-23 -9.72794e-23 -5.94352e-39)
(3.36979e-22 1.23918e-22 1.03344e-38)
(2.34269e-22 -3.53844e-23 -5.01622e-39)
(1.86736e-22 -1.34733e-22 5.49629e-39)
(2.94457e-22 -7.96607e-23 -7.41631e-39)
(1.34434e-22 -2.85432e-23 9.95458e-39)
(-3.90519e-23 -1.69517e-23 -4.47498e-39)
(6.43244e-22 7.36493e-22 0)
(-1.10178e-22 -8.73265e-24 1.09834e-38)
(6.83603e-23 2.07133e-22 -7.30139e-39)
(2.96411e-22 1.01776e-22 3.1711e-38)
(3.37678e-22 1.24996e-22 9.45384e-39)
(2.10965e-22 1.42865e-23 -1.6858e-38)
(5.75646e-22 -5.18085e-23 5.047e-39)
(3.51084e-22 2.3359e-21 6.6549e-38)
(-6.53318e-22 -2.91878e-22 0)
(-2.9019e-22 3.30897e-22 0)
(2.15977e-22 1.14851e-22 -9.41629e-39)
(7.60783e-23 1.08546e-22 -2.00378e-39)
(3.92263e-23 1.36908e-22 2.59343e-39)
(-7.96391e-23 3.77767e-22 2.31782e-38)
(1.00099e-21 -4.02801e-22 3.39302e-39)
(1.10915e-22 5.40578e-23 2.63385e-39)
(3.42426e-22 3.10166e-23 6.92762e-40)
(-8.08743e-23 -5.58312e-22 -2.34127e-38)
(-6.39774e-23 -8.11155e-24 -4.1764e-39)
(-7.37566e-22 4.48342e-22 -2.7891e-38)
(1.87377e-22 1.7451e-22 2.84754e-38)
(1.50033e-22 7.90845e-22 -3.23006e-39)
(2.1621e-23 3.54964e-23 0)
(-9.46289e-23 -8.66026e-23 5.60358e-39)
(3.89644e-22 1.095e-21 6.04958e-41)
(2.97514e-22 6.23806e-23 0)
(-1.78837e-22 -4.23655e-23 -1.14593e-38)
(1.03254e-22 3.32318e-22 2.82779e-40)
(3.28986e-22 3.6508e-23 -5.13038e-40)
(4.77113e-22 -9.94916e-23 0)
(2.07982e-22 1.74346e-23 0)
(1.63117e-22 1.73914e-22 -3.49084e-38)
(-5.44984e-22 1.63706e-22 -1.54492e-38)
(-1.82009e-22 -5.60343e-23 0)
(1.50625e-22 1.7715e-22 -4.25615e-38)
(-1.98546e-22 -1.6585e-22 2.99683e-39)
(-2.30657e-22 -3.69531e-22 -2.95392e-38)
(3.81332e-22 3.25644e-22 -1.03839e-38)
(2.22923e-22 3.92946e-22 0)
(3.01815e-22 -4.55375e-22 0)
(1.44816e-21 1.62014e-22 -1.60141e-38)
(2.77539e-21 -9.65975e-22 -4.22763e-38)
(-1.48352e-21 8.73617e-22 0)
(4.69627e-23 -8.51383e-23 -6.57966e-39)
(2.75852e-22 4.6475e-22 0)
(3.92972e-22 -5.32888e-22 -9.18595e-38)
(7.06578e-22 -2.1109e-22 4.26839e-38)
(-1.92682e-22 -1.56416e-22 6.61053e-39)
(-9.42228e-23 -3.14327e-23 1.37119e-39)
(7.41378e-22 -3.56429e-22 0)
(2.8529e-22 3.09902e-22 9.69691e-39)
(1.00261e-22 -1.80839e-24 -3.2126e-39)
(1.56245e-21 -2.05028e-22 -1.82055e-37)
(3.29339e-22 2.53203e-23 -1.62938e-40)
(1.92351e-22 -3.27093e-22 6.43666e-39)
(-1.96543e-21 4.43836e-22 -6.40279e-38)
(3.58677e-22 -3.44525e-22 -3.1971e-39)
(3.36514e-22 -9.01473e-22 2.74259e-38)
(1.50192e-22 5.16672e-23 -3.44791e-39)
(-1.08658e-22 6.98165e-23 4.28088e-40)
(-1.42992e-22 -5.75864e-22 1.58125e-37)
(-1.87746e-22 -1.23886e-22 6.37193e-39)
)
;

boundaryField
{
    back
    {
        type            empty;
    }
    front
    {
        type            empty;
    }
    bottom
    {
        type            uniformFixedValue;
        uniformValue    
        {
            type            scale;
            scale           
            {
                type            squarePulse;
                start           0.3;
                duration        0.3;
            }
            xScale          
            {
                type            constant;
                value           1;
            }
            value           
            {
                type            constant;
                value           (0 0.7 0);
            }
        }
        value           uniform (0 0 0);
    }
    outer_arc
    {
        type            noSlip;
    }
    right
    {
        type            zeroGradient;
    }
    inner_arc
    {
        type            noSlip;
    }
}


// ************************************************************************* //
