/*--------------------------------*- C++ -*----------------------------------*\
  =========                 |
  \\      /  F ield         | OpenFOAM: The Open Source CFD Toolbox
   \\    /   O peration     | Website:  https://openfoam.org
    \\  /    A nd           | Version:  9
     \\/     M anipulation  |
\*---------------------------------------------------------------------------*/
FoamFile
{
    format      ascii;
    class       volScalarField;
    location    "1.96";
    object      p;
}
// * * * * * * * * * * * * * * * * * * * * * * * * * * * * * * * * * * * * * //

dimensions      [0 2 -2 0 0 0 0];

internalField   nonuniform List<scalar> 
1655
(
10.1564
10.1601
10.1475
10.162
10.1525
10.1574
10.1476
10.1302
10.1175
10.1537
10.1598
10.1593
10.1317
10.162
10.1603
10.1584
10.1567
10.1187
10.1564
10.1619
10.1587
10.1167
10.1421
10.143
10.1566
10.1584
10.1585
10.1209
10.1223
10.1589
10.1406
10.1424
10.1613
10.1642
10.1147
10.1641
10.1578
10.1602
10.1614
10.1599
10.1587
10.1457
10.1617
10.1591
10.1602
10.1616
10.1621
10.1603
10.1588
10.1618
10.1569
10.1413
10.1503
10.1202
10.123
10.1682
10.1586
10.1606
10.1603
10.1677
10.1469
10.1556
10.1559
10.1299
10.1636
10.1368
10.1653
10.1603
10.1154
10.1452
10.1604
10.1375
10.1589
10.1574
10.1676
10.1611
10.1238
10.1098
10.1586
10.1589
10.1649
10.161
10.1207
10.1597
10.159
10.1651
10.166
10.1588
10.1586
10.165
10.163
10.1529
10.1567
10.1589
10.1619
10.156
10.1659
10.1607
10.1489
10.1601
10.1583
10.1659
10.1585
10.1656
10.1172
10.1556
10.1306
10.1589
10.1601
10.1669
10.1608
10.1594
10.1668
10.159
10.135
10.1632
10.1324
10.1608
10.1574
10.1199
10.1668
10.1682
10.1595
10.1603
10.1659
10.1361
10.1618
10.1619
10.1585
10.1593
10.1585
10.1606
10.1308
10.1376
10.1589
10.1599
10.1502
10.1599
10.1587
10.1648
10.1688
10.1585
10.1585
10.1672
10.1515
10.1689
10.1658
10.1666
10.1661
10.1406
10.1484
10.1428
10.1689
10.1618
10.1651
10.1618
10.163
10.1654
10.1333
10.1653
10.1661
10.1559
10.121
10.166
10.1669
10.1604
10.1216
10.1361
10.1663
10.1079
10.1559
10.1263
10.1663
10.1275
10.1589
10.1295
10.1588
10.1179
10.1593
10.162
10.1702
10.1276
10.1565
10.1616
10.1602
10.1594
10.1605
10.1594
10.128
10.1299
10.1601
10.1555
10.1333
10.1333
10.1595
10.1589
10.1302
10.1595
10.1584
10.1316
10.1627
10.1635
10.1607
10.1513
10.1605
10.1587
10.1613
10.1366
10.1594
10.1649
10.1299
10.1293
10.1602
10.1352
10.162
10.1638
10.1664
10.1561
10.1226
10.1338
10.1605
10.1588
10.1615
10.1361
10.1613
10.1597
10.1595
10.1611
10.119
10.1189
10.161
10.1253
10.1294
10.1148
10.1611
10.1612
10.1597
10.1389
10.1594
10.143
10.1694
10.1602
10.147
10.1589
10.1376
10.1588
10.1377
10.1232
10.1594
10.1342
10.1582
10.1589
10.1531
10.1319
10.1612
10.1254
10.1599
10.1391
10.1147
10.1616
10.1583
10.1591
10.1595
10.124
10.1534
10.1377
10.1616
10.1619
10.1611
10.1619
10.1436
10.1303
10.1602
10.1591
10.1277
10.1377
10.1378
10.1406
10.1253
10.158
10.1285
10.1402
10.1434
10.1543
10.1641
10.1393
10.1336
10.1607
10.1615
10.1261
10.1351
10.1588
10.1618
10.1272
10.1385
10.1605
10.1289
10.1201
10.1588
10.1595
10.1605
10.1589
10.1588
10.1603
10.1593
10.128
10.1603
10.1592
10.1427
10.1593
10.1465
10.1503
10.1592
10.1579
10.136
10.1401
10.1588
10.1268
10.1591
10.1601
10.1311
10.1619
10.1607
10.1605
10.1605
10.1613
10.1613
10.1386
10.1597
10.1523
10.1614
10.1358
10.162
10.1591
10.1438
10.1592
10.1509
10.1618
10.1597
10.1424
10.1603
10.16
10.1422
10.12
10.1621
10.1603
10.1619
10.1603
10.1601
10.159
10.1371
10.1577
10.1223
10.1607
10.1239
10.1591
10.1599
10.1596
10.1426
10.1588
10.1651
10.1615
10.1229
10.1575
10.1616
10.1723
10.1595
10.142
10.1357
10.1604
10.1603
10.1609
10.1608
10.1594
10.1467
10.1437
10.1525
10.1335
10.1607
10.1599
10.161
10.1572
10.1385
10.158
10.1601
10.1261
10.1592
10.1408
10.1464
10.1592
10.1585
10.1572
10.1515
10.1294
10.16
10.1592
10.1588
10.1426
10.1241
10.1553
10.1594
10.1617
10.1566
10.1411
10.1557
10.1609
10.1307
10.1589
10.1602
10.1535
10.1531
10.1557
10.1582
10.1537
10.1609
10.1545
10.1327
10.1336
10.1585
10.159
10.1555
10.1563
10.1617
10.1588
10.1592
10.1416
10.1386
10.1598
10.1591
10.1515
10.1599
10.1581
10.1589
10.1564
10.1552
10.1546
10.1603
10.162
10.1567
10.1542
10.1584
10.1573
10.1584
10.1585
10.1579
10.1548
10.1527
10.1525
10.1524
10.1548
10.1519
10.1473
10.1503
10.1572
10.1509
10.1563
10.1531
10.1581
10.1519
10.16
10.157
10.1567
10.1575
10.1503
10.1566
10.1377
10.1575
10.1584
10.1553
10.1564
10.1558
10.1604
10.1566
10.156
10.1444
10.1554
10.1547
10.1544
10.1522
10.1594
10.1587
10.1544
10.1545
10.1516
10.1547
10.1557
10.1578
10.1559
10.1568
10.1597
10.1407
10.1551
10.1538
10.1557
10.1543
10.1549
10.1343
10.1586
10.1542
10.1535
10.154
10.1548
10.1618
10.1494
10.1397
10.1541
10.1513
10.1527
10.1522
10.1549
10.1539
10.1547
10.1519
10.1547
10.1539
10.156
10.1506
10.152
10.131
10.1313
10.1228
10.1362
10.1559
10.1483
10.1332
10.1499
10.1563
10.1534
10.1534
10.124
10.1565
10.1545
10.1558
10.1647
10.1566
10.1598
10.1587
10.159
10.1655
10.1616
10.1575
10.132
10.1561
10.163
10.1579
10.158
10.1555
10.1656
10.155
10.1626
10.1607
10.1552
10.1544
10.1566
10.1536
10.1344
10.168
10.1549
10.1584
10.1532
10.1439
10.1623
10.1515
10.1334
10.1542
10.1265
10.1476
10.1586
10.1478
10.126
10.1547
10.148
10.1663
10.153
10.1335
10.1499
10.1556
10.1597
10.1262
10.1562
10.1572
10.1572
10.1542
10.1263
10.1599
10.1578
10.1462
10.1386
10.1521
10.1456
10.1555
10.1312
10.1262
10.1247
10.15
10.1238
10.155
10.1663
10.127
10.1459
10.1325
10.1427
10.1382
10.1559
10.1397
10.146
10.1694
10.1674
10.1586
10.1652
10.1547
10.1564
10.1585
10.1549
10.1661
10.1394
10.1306
10.1576
10.1528
10.1227
10.1263
10.1435
10.1379
10.1406
10.1485
10.1626
10.1367
10.1305
10.1271
10.1525
10.1535
10.1483
10.1274
10.1608
10.1572
10.1312
10.1587
10.1596
10.156
10.1503
10.1586
10.1607
10.1554
10.1589
10.1577
10.1565
10.1554
10.1595
10.1501
10.1562
10.1371
10.1545
10.1495
10.1535
10.1544
10.1562
10.1512
10.1476
10.1403
10.1238
10.1545
10.1378
10.1588
10.1522
10.1525
10.1418
10.1653
10.1581
10.1594
10.156
10.1301
10.1322
10.1647
10.1513
10.1628
10.1557
10.1517
10.1584
10.1384
10.1658
10.1509
10.145
10.1553
10.1515
10.1523
10.1327
10.1592
10.1614
10.1459
10.1437
10.1525
10.1607
10.151
10.1461
10.1563
10.1497
10.1652
10.1414
10.1567
10.158
10.1519
10.157
10.1542
10.1551
10.152
10.1514
10.1647
10.1459
10.1505
10.1533
10.1408
10.141
10.1413
10.1486
10.1447
10.1557
10.164
10.1524
10.1536
10.158
10.1405
10.1509
10.1488
10.153
10.1426
10.1495
10.1514
10.1559
10.152
10.164
10.1543
10.1532
10.1512
10.1449
10.1526
10.1538
10.1517
10.1582
10.1535
10.1624
10.1392
10.1554
10.1551
10.1534
10.1493
10.1485
10.1516
10.1549
10.1659
10.1579
10.1515
10.165
10.159
10.1583
10.1501
10.1575
10.1553
10.1525
10.1553
10.1517
10.1489
10.1469
10.1511
10.1564
10.1645
10.1537
10.161
10.1464
10.1506
10.1526
10.1535
10.155
10.1563
10.1645
10.1398
10.1359
10.1541
10.1522
10.1443
10.1449
10.1519
10.1508
10.1506
10.1511
10.1354
10.1399
10.1541
10.1536
10.1527
10.1343
10.1584
10.1556
10.152
10.1542
10.1514
10.1607
10.135
10.1589
10.1533
10.1572
10.1542
10.1542
10.1518
10.1573
10.1557
10.132
10.1508
10.1574
10.1569
10.1534
10.1358
10.1597
10.1581
10.153
10.1613
10.1576
10.1512
10.1501
10.152
10.1579
10.1492
10.1505
10.1622
10.1572
10.1471
10.155
10.1537
10.1612
10.1504
10.1612
10.1596
10.1525
10.1528
10.1502
10.1557
10.1527
10.1512
10.1523
10.1546
10.1503
10.1298
10.1589
10.158
10.1548
10.1548
10.1515
10.1582
10.1626
10.1593
10.1526
10.1539
10.159
10.1626
10.1538
10.1502
10.1554
10.1589
10.1521
10.153
10.1573
10.1545
10.1577
10.1618
10.1575
10.153
10.1567
10.1565
10.1544
10.1527
10.1576
10.1563
10.1528
10.1435
10.1543
10.1547
10.1585
10.1505
10.1597
10.1397
10.1585
10.1544
10.1426
10.1587
10.1567
10.1525
10.1492
10.1528
10.156
10.1549
10.1541
10.1571
10.1395
10.1597
10.1595
10.1584
10.1596
10.1435
10.1425
10.1526
10.1375
10.1544
10.1569
10.1601
10.1531
10.1587
10.1511
10.1612
10.1579
10.1556
10.1598
10.1521
10.1583
10.1586
10.141
10.155
10.1484
10.1502
10.1584
10.1546
10.1597
10.1556
10.155
10.1513
10.1427
10.1527
10.151
10.1417
10.1601
10.1492
10.145
10.1468
10.1606
10.1452
10.1526
10.1565
10.1602
10.1581
10.1583
10.1594
10.1625
10.1525
10.1583
10.1538
10.1588
10.1474
10.1531
10.1636
10.1515
10.1603
10.1526
10.1543
10.1532
10.1538
10.1523
10.1559
10.1609
10.156
10.1538
10.1533
10.1509
10.1462
10.1503
10.1484
10.1547
10.1585
10.1601
10.1582
10.1563
10.1587
10.1613
10.159
10.154
10.1601
10.1596
10.1458
10.154
10.1618
10.1479
10.1597
10.1543
10.1502
10.1467
10.1607
10.1584
10.1601
10.1519
10.1622
10.1476
10.1602
10.1446
10.1603
10.151
10.1547
10.157
10.1603
10.1467
10.1585
10.1461
10.1499
10.1433
10.1474
10.1496
10.1603
10.1449
10.1453
10.1472
10.1598
10.1429
10.1604
10.1604
10.1601
10.1481
10.1457
10.1615
10.1495
10.1401
10.1447
10.1601
10.16
10.1603
10.1412
10.1575
10.1595
10.1434
10.16
10.1608
10.1449
10.1602
10.1437
10.1604
10.1535
10.1592
10.1584
10.1601
10.1614
10.1617
10.1517
10.1548
10.16
10.158
10.1601
10.157
10.1558
10.1326
10.16
10.1611
10.1599
10.1426
10.1473
10.1607
10.1596
10.1611
10.1599
10.1603
10.1585
10.153
10.1599
10.1417
10.1552
10.1197
10.1163
10.1601
10.1553
10.1607
10.1584
10.1637
10.1601
10.1385
10.1519
10.1407
10.1361
10.16
10.16
10.1496
10.1394
10.1619
10.1436
10.1585
10.1581
10.148
10.1564
10.159
10.147
10.1382
10.1272
10.1586
10.1366
10.1523
10.1148
10.1613
10.1519
10.1588
10.1433
10.1428
10.1481
10.1452
10.1262
10.1564
10.1119
10.1601
10.1522
10.158
10.1335
10.1501
10.149
10.1353
10.1574
10.1587
10.1304
10.1602
10.1403
10.1565
10.1475
10.1599
10.1582
10.1619
10.1599
10.1484
10.1576
10.1323
10.1589
10.1598
10.1584
10.1161
10.1304
10.1699
10.1479
10.1203
10.1211
10.1455
10.1446
10.1592
10.1594
10.1619
10.1293
10.1559
10.16
10.1378
10.12
10.1458
10.1523
10.1207
10.1589
10.1481
10.1388
10.1561
10.1454
10.156
10.0917
10.1307
10.1239
10.1491
10.1504
10.1596
10.1497
10.1465
10.1484
10.162
10.1474
10.159
10.1618
10.126
10.1341
10.1547
10.1469
10.1497
10.1472
10.1396
10.1577
10.1514
10.1505
10.1499
10.1463
10.1433
10.1351
10.1597
10.1589
10.1535
10.155
10.1469
10.1487
10.1615
10.1496
10.1166
10.145
10.1589
10.1587
10.1578
10.1566
10.1509
10.1575
10.1598
10.1588
10.1333
10.1587
10.1589
10.1355
10.1323
10.1618
10.1571
10.1552
10.1573
10.1575
10.1585
10.16
10.1584
10.1334
10.1583
10.1588
10.162
10.1594
10.155
10.1587
10.1594
10.157
10.1587
10.1587
10.1583
10.1212
10.1505
10.1544
10.1552
10.1617
10.1208
10.1591
10.159
10.157
10.1281
10.1501
10.1597
10.153
10.1596
10.1582
10.1588
10.1305
10.1584
10.124
10.1585
10.1585
10.16
10.1554
10.1539
10.1444
10.1573
10.1579
10.1581
10.1562
10.1589
10.159
10.1585
10.1603
10.1574
10.1481
10.1613
10.1567
10.1114
10.1535
10.156
10.1298
10.159
10.1585
10.1565
10.1578
10.1579
10.1582
10.1591
10.16
10.1591
10.1614
10.1595
10.1586
10.1583
10.1594
10.1598
10.1585
10.162
10.1589
10.1599
10.1618
10.1603
10.1607
10.1584
10.1584
10.1618
10.1571
10.1559
10.1551
10.151
10.1577
10.1568
10.1603
10.12
10.1174
10.1604
10.1176
10.1626
10.1201
10.159
10.1163
10.1083
10.1585
10.1593
10.1577
10.1555
10.1519
10.1505
10.1544
10.1523
10.1206
10.141
10.1663
10.1591
10.1504
10.1589
10.1581
10.1274
10.1632
10.1194
10.1606
10.1545
10.1208
10.1585
10.116
10.1576
10.1405
10.1637
10.1602
10.1259
10.1279
10.1244
10.1614
10.1608
10.1173
10.1617
10.1455
10.1104
10.158
10.1615
10.1585
10.1562
10.1569
10.165
10.1597
10.1568
10.156
10.1577
10.1562
10.1561
10.1634
10.1602
10.1589
10.1607
10.1578
10.1562
10.1573
10.1643
10.1564
10.1601
10.1566
10.1649
10.1651
10.1382
10.1591
10.1432
10.1455
10.1659
10.1603
10.1592
10.1588
10.1619
10.1595
10.1433
10.1648
10.1554
10.1552
10.1236
10.1617
10.1604
10.1633
10.1593
10.1443
10.157
10.161
10.1246
10.1593
10.1597
10.157
10.1564
10.1603
10.1174
10.1555
10.1547
10.1595
10.1609
10.1417
10.162
10.1565
10.1432
10.1405
10.162
10.1267
10.1601
10.1195
10.1601
10.1549
10.1596
10.1569
10.1173
10.1426
10.1608
10.1551
10.1279
10.1585
10.159
10.1597
10.1552
10.14
10.1616
10.1578
10.1523
10.1609
10.1616
10.1619
10.1603
10.1355
10.1556
10.1603
10.1606
10.151
10.1616
10.1552
10.1562
10.1574
10.1614
10.161
10.1637
10.1589
10.1616
10.1596
10.1172
10.1161
10.1596
10.1614
10.1618
10.1619
10.1624
10.1158
10.1253
10.1591
10.1651
10.1659
10.1646
10.1622
10.1589
10.1619
10.1015
10.1518
10.1658
10.1552
10.1494
10.1651
10.1386
10.1583
10.1619
10.1584
10.158
10.1589
10.0872
10.1619
10.1668
10.162
10.15
10.1358
10.1599
10.1651
10.1651
10.162
10.1603
10.1612
10.1505
10.1603
10.1575
10.1594
10.1234
10.1584
10.1476
10.1618
10.1169
10.1589
10.1655
10.1637
10.162
10.1554
10.1384
10.1513
10.1408
10.1544
10.1588
10.1574
10.1542
10.1584
10.1559
10.1648
10.1656
10.1205
10.1584
10.1469
10.1552
10.1645
10.1634
10.1227
10.1195
10.1609
10.1589
10.1479
10.1609
10.162
10.1657
10.1549
10.1637
10.1607
10.1571
10.1594
10.1592
10.1568
10.1605
10.1605
10.1228
10.1541
10.1663
10.1605
10.1594
10.1196
10.1613
10.1652
10.1236
10.1296
10.1617
10.1618
10.1191
10.1586
10.1576
10.1602
10.1638
10.1572
10.1583
10.1584
10.1611
10.162
10.1652
10.1659
10.1574
10.1491
10.1599
10.1618
10.1357
10.1272
10.1586
10.162
10.1346
10.1599
10.1559
10.1576
10.1206
10.1337
10.1618
10.116
10.1609
10.1582
10.1409
10.162
10.1584
10.1478
10.1549
10.1556
10.1253
10.1476
10.1178
10.1602
10.1645
10.1164
10.1603
10.1373
10.1647
10.1617
10.1619
10.1243
10.1607
10.1491
10.1591
10.167
10.1575
10.1605
10.1627
10.1134
10.1594
10.1635
10.1589
10.1281
10.0934
10.1271
10.156
10.1164
10.1523
10.1603
10.1612
10.1652
10.1611
10.156
10.1611
10.1497
10.1603
10.1546
10.1209
10.1601
10.162
10.1651
10.162
10.1551
10.1584
10.1646
10.1588
10.1655
10.1618
10.1637
10.1396
10.1566
10.162
10.1504
10.1641
10.1608
10.1651
10.1579
10.153
10.1546
10.1619
10.1559
10.162
10.1548
10.1242
10.1619
10.156
10.1436
10.162
10.1476
10.1562
10.1656
10.1611
10.166
10.1211
10.1602
10.1656
10.1604
10.149
10.119
)
;

boundaryField
{
    back
    {
        type            empty;
    }
    front
    {
        type            empty;
    }
    top
    {
        type            zeroGradient;
    }
    outer_arc
    {
        type            zeroGradient;
    }
    bottom
    {
        type            uniformFixedValue;
        uniformValue    
        {
            type            table;
            format          csv;
            file            "outlet_p.csv";
            nHeaderLine     1;
            refColumn       0;
            componentColumns List<label> 1(1);
            separator       ",";
            mergeSeparators 0;
        }
        value           uniform 10.115;
    }
    inner_arc
    {
        type            zeroGradient;
    }
}


// ************************************************************************* //
