/*--------------------------------*- C++ -*----------------------------------*\
  =========                 |
  \\      /  F ield         | OpenFOAM: The Open Source CFD Toolbox
   \\    /   O peration     | Website:  https://openfoam.org
    \\  /    A nd           | Version:  9
     \\/     M anipulation  |
\*---------------------------------------------------------------------------*/
FoamFile
{
    format      ascii;
    class       surfaceScalarField;
    location    "1.96";
    object      phi;
}
// * * * * * * * * * * * * * * * * * * * * * * * * * * * * * * * * * * * * * //

dimensions      [0 3 -1 0 0 0 0];

internalField   nonuniform List<scalar> 
2420
(
-3.27344e-08
-3.11268e-08
6.38612e-08
3.95495e-08
-3.95495e-08
1.06826e-06
-8.56005e-07
-2.12255e-07
-5.83038e-07
5.83038e-07
-7.19364e-07
3.22989e-07
3.96375e-07
-8.95867e-08
3.08913e-08
5.86954e-08
4.10669e-07
6.57591e-07
-5.83075e-07
5.32224e-08
5.29852e-07
1.04698e-06
-1.21307e-06
1.66086e-07
-5.33517e-07
-1.85847e-07
-4.56656e-07
3.06396e-07
1.5026e-07
-8.23918e-08
-3.74264e-07
-5.83075e-07
-9.29494e-08
-7.46295e-08
1.67579e-07
1.45083e-07
1.68813e-06
-1.83322e-06
-3.10802e-08
2.65655e-08
4.51469e-09
2.70005e-07
2.07733e-07
-4.77738e-07
-8.82528e-07
5.90343e-07
2.92186e-07
2.32641e-07
-2.21161e-07
-1.14805e-08
-1.26209e-07
3.32597e-08
-8.05188e-08
2.16539e-07
-1.3602e-07
-1.59357e-08
-4.89664e-07
5.79964e-07
-9.03006e-08
-5.84438e-07
9.47744e-08
-1.33733e-07
1.00998e-07
5.50098e-08
2.14996e-07
-1.19724e-08
-1.91078e-08
-3.8978e-07
-7.3826e-07
1.12804e-06
-9.04297e-07
5.14516e-07
1.92612e-07
-8.89403e-08
-1.03671e-07
-7.40197e-07
-4.83329e-07
1.22353e-06
8.87954e-07
2.59733e-07
-1.14769e-06
-4.38158e-07
4.34788e-07
3.36919e-09
6.02857e-07
3.11706e-07
-9.14563e-07
-2.43624e-07
-6.38904e-07
6.42573e-07
-3.97156e-08
-1.25989e-07
3.64023e-08
3.17579e-08
7.79159e-09
-3.52235e-08
-4.02934e-07
-1.79814e-08
-2.15682e-08
3.3524e-08
-1.14043e-07
5.09763e-07
1.61513e-07
-6.71276e-07
3.34835e-07
-3.70059e-07
1.97325e-07
-1.26068e-07
-7.12566e-08
4.86702e-08
-5.03393e-08
1.66911e-09
-1.89493e-07
-3.93545e-07
3.79971e-07
2.03067e-07
6.26628e-08
-1.39927e-08
-1.32059e-07
3.86459e-07
-2.544e-07
-4.57207e-08
3.80556e-07
1.53336e-07
-1.22445e-07
3.19497e-08
-1.93409e-07
3.38492e-07
-7.40947e-07
-4.72123e-07
7.14389e-07
-2.68915e-07
-4.45474e-07
-9.99452e-08
1.22843e-07
-2.28982e-08
2.87885e-08
4.18117e-09
-3.29697e-08
2.86006e-07
2.03903e-08
-4.18793e-07
6.40807e-07
-2.22014e-07
8.68585e-08
-1.86804e-07
2.75808e-07
-1.016e-06
-2.27819e-07
2.05714e-07
2.21049e-08
1.43021e-07
-1.74147e-07
-7.04147e-07
7.5737e-07
-1.59426e-07
-1.22358e-07
2.81784e-07
-1.07448e-06
5.91147e-07
4.60918e-07
-8.32376e-07
3.71459e-07
-1.90145e-07
4.12711e-07
-2.22566e-07
-2.93061e-07
4.9437e-08
-7.46754e-08
9.58612e-08
-6.63807e-07
1.64901e-07
-2.45275e-07
8.0374e-08
4.3958e-07
1.24855e-06
-4.28549e-07
3.91883e-07
3.66658e-08
-3.40183e-08
9.18373e-08
-5.78189e-08
-8.67099e-07
-3.71979e-08
-1.99162e-07
-9.38993e-08
6.23125e-08
7.96602e-08
1.12952e-07
-2.49599e-07
9.01731e-08
-1.81326e-09
-3.22051e-08
4.66507e-07
2.47882e-07
1.68834e-07
2.84912e-08
1.10008e-07
1.65615e-07
-2.75623e-07
4.98542e-07
-2.85099e-07
-2.13443e-07
2.15309e-08
-4.5008e-07
2.19413e-07
-5.45122e-08
-1.05301e-07
-1.31702e-08
1.18471e-07
2.50175e-07
-3.07206e-07
5.70302e-08
-1.32405e-07
3.82581e-07
5.06903e-07
-7.19158e-07
1.01045e-07
1.31596e-07
9.77593e-08
-2.29818e-07
9.58384e-09
-6.00842e-08
5.05003e-08
-2.7935e-08
-1.93226e-07
5.0397e-07
-4.30523e-08
-5.36123e-07
1.1733e-07
-7.87601e-07
1.04733e-06
-4.67489e-07
1.78536e-07
2.88953e-07
7.36619e-07
-2.29717e-07
3.2966e-07
-3.5314e-07
2.34791e-08
1.65029e-07
2.2143e-07
1.80078e-07
1.49582e-07
-8.82312e-07
2.48763e-07
6.33549e-07
-8.85641e-08
-1.39255e-07
-9.64223e-07
2.90455e-07
6.73768e-07
1.62392e-08
-1.05179e-07
-1.946e-07
-2.72888e-07
-1.41419e-08
1.36985e-07
-1.22491e-08
-3.30545e-07
3.42795e-07
1.307e-07
-2.13091e-07
-1.83374e-07
1.69232e-07
3.14477e-07
-2.04469e-07
9.7671e-07
-2.70205e-07
-7.06505e-07
3.66137e-07
-7.36912e-07
-2.27311e-07
4.51314e-07
1.08526e-07
-2.13827e-07
-2.37098e-07
-6.45214e-07
-1.04121e-07
-7.92534e-08
1.66535e-07
3.29958e-07
-4.96493e-07
3.99736e-07
-7.5815e-07
3.58414e-07
-2.2536e-07
-7.03836e-07
9.29197e-07
2.86618e-07
2.17352e-07
-7.49398e-07
2.31666e-07
5.17732e-07
-3.22559e-07
2.76839e-07
1.04328e-07
-9.47446e-08
2.12157e-08
5.34974e-09
1.75834e-07
-3.72134e-07
1.963e-07
2.39952e-07
-2.92329e-07
5.23779e-08
-3.41161e-07
3.28912e-07
-9.15256e-07
2.11108e-07
-4.50938e-07
-2.9846e-07
-5.14223e-08
5.14223e-08
3.05409e-08
3.95164e-08
-7.00572e-08
-3.81395e-07
-2.61298e-07
6.42693e-07
-1.93409e-07
4.18117e-09
-4.24959e-07
-4.07417e-07
8.68585e-08
-4.49421e-08
3.29697e-08
4.49421e-08
-3.35405e-08
-1.14016e-08
-8.85069e-08
-2.3556e-07
3.24067e-07
2.04733e-07
4.77738e-07
-6.82472e-07
2.3556e-07
-6.90246e-08
7.83394e-08
-3.24067e-07
2.45728e-07
-2.90924e-07
1.86804e-07
-4.51968e-08
2.90924e-07
-2.45728e-07
-9.98402e-07
1.03166e-06
-3.3254e-08
9.98402e-07
-7.22595e-07
-1.03166e-06
6.82472e-07
3.49184e-07
6.90246e-08
3.22858e-07
-3.22858e-07
7.22595e-07
-6.1431e-07
3.2921e-07
-2.55587e-08
-2.97001e-07
-1.54057e-07
3.16992e-08
3.24818e-07
-6.50546e-07
3.25728e-07
2.39798e-07
-6.95207e-08
4.03157e-07
-1.64509e-07
-1.90913e-07
3.55422e-07
-1.01723e-06
2.76285e-07
-3.38734e-07
-3.11812e-07
-4.27241e-07
-2.25004e-07
-3.11119e-07
-1.21038e-06
5.94378e-07
-8.64583e-07
-6.65216e-08
1.22877e-07
-3.22038e-07
6.33325e-07
-4.25592e-07
-5.65225e-07
-2.47951e-07
8.13177e-07
2.33887e-07
-2.79084e-07
-1.00955e-06
2.63401e-07
7.46151e-07
-7.19096e-07
1.95183e-07
4.47681e-08
-9.62375e-07
1.08525e-06
1.07241e-07
2.63342e-07
-3.70584e-07
-1.06765e-07
-1.94442e-08
-3.30104e-07
-7.8271e-07
2.17485e-07
4.07984e-08
1.12538e-07
-7.54738e-07
5.29378e-07
5.43186e-08
-2.92532e-08
-2.50655e-08
-4.3126e-07
9.10632e-08
3.40197e-07
-5.97766e-08
5.79634e-08
-3.24019e-07
-3.52367e-08
-8.90326e-07
9.25562e-07
-5.821e-07
-2.0061e-07
-2.92938e-08
-2.10455e-08
3.04612e-08
1.75253e-07
5.52577e-07
-5.42281e-07
-1.02961e-08
-8.59595e-07
8.91545e-07
-4.57592e-07
6.61256e-08
3.91466e-07
-3.51832e-08
5.17341e-07
-3.66529e-07
-1.08063e-07
9.48927e-08
-7.08387e-07
1.26287e-07
1.68317e-07
-6.92132e-07
5.23814e-07
-4.9335e-07
6.61668e-07
-3.0347e-07
4.18954e-07
-1.15484e-07
7.45267e-08
1.42012e-07
-4.2595e-07
3.48133e-07
7.78171e-08
-3.50732e-07
-1.91549e-07
-2.20457e-07
3.96291e-07
-1.48122e-07
4.59828e-07
1.03711e-06
-5.46015e-07
-4.91092e-07
-6.53255e-07
-2.0634e-07
1.25595e-08
8.26044e-07
1.18075e-08
-1.18572e-07
4.16804e-07
-8.41763e-07
9.72834e-08
5.4529e-07
-1.24595e-07
-3.9914e-08
-2.66659e-07
6.38752e-07
-3.72093e-07
-1.35719e-07
-5.72668e-07
2.88618e-09
8.33936e-08
3.23846e-07
1.10942e-07
-6.2547e-07
7.83115e-07
-1.57645e-07
-1.02104e-07
4.38314e-07
-4.78472e-07
4.01578e-08
-4.56417e-08
4.83956e-07
7.91108e-08
-1.96403e-07
1.4697e-09
1.94933e-07
-2.78084e-07
8.16811e-08
-3.43022e-07
4.41647e-07
-9.86251e-08
6.01325e-08
5.31536e-07
-5.91668e-07
-7.532e-07
8.13332e-07
6.62682e-07
-7.56581e-07
4.32096e-07
-8.39624e-08
-3.83078e-07
4.00564e-08
-4.12346e-07
1.05499e-07
-4.56231e-07
-4.57864e-07
4.12223e-07
1.432e-07
8.92951e-07
-1.03615e-06
-5.43547e-07
5.64972e-08
-2.17852e-09
9.67506e-07
-8.24306e-07
3.0578e-08
2.08443e-08
-6.97484e-07
7.20143e-08
-1.4353e-07
8.90174e-08
1.20259e-06
-5.97787e-07
-6.04803e-07
-7.04552e-07
-3.1268e-07
-6.63977e-08
6.47396e-07
-1.90281e-07
6.42122e-08
-2.40756e-07
-2.58617e-07
4.99374e-07
3.83852e-07
4.3564e-08
3.88532e-07
-8.12674e-07
1.37724e-07
3.46882e-07
-4.84606e-07
-5.99954e-07
-9.75304e-08
-1.86018e-06
8.97806e-07
3.80001e-07
-2.69058e-07
2.79826e-07
-5.32864e-07
2.53038e-07
3.67072e-07
-1.0373e-07
4.63415e-07
2.05408e-08
4.32412e-07
1.73495e-07
-4.14252e-07
9.45181e-07
-7.36544e-07
-2.08637e-07
3.05843e-07
7.41578e-08
1.8083e-07
-2.06389e-07
3.37287e-07
-4.39392e-07
2.50944e-07
-7.55933e-08
-1.75351e-07
3.38492e-07
-3.12988e-07
9.7567e-07
2.72034e-08
8.17034e-08
2.85369e-07
3.67421e-07
-1.124e-06
-7.96074e-07
4.83086e-07
5.62849e-07
6.39741e-07
-2.8935e-10
-5.99665e-07
-6.50993e-07
4.89225e-07
1.61768e-07
7.56198e-07
-2.42711e-07
-5.13486e-07
1.33652e-07
5.05943e-07
-6.39595e-07
9.34185e-07
-7.60827e-07
-1.73358e-07
-7.89853e-07
-6.22088e-09
4.37267e-08
-2.37136e-07
9.79668e-07
-9.35941e-07
7.4511e-07
-2.62023e-07
5.13308e-07
-5.23605e-07
4.64166e-07
-3.10763e-07
-1.53403e-07
3.8366e-07
3.36766e-07
5.5356e-07
-2.50255e-08
6.57501e-08
2.46993e-07
-3.12743e-07
6.36888e-07
-8.84839e-07
-3.82761e-07
4.88261e-07
4.67984e-07
-5.65054e-08
-4.11479e-07
5.29852e-07
-3.70624e-07
2.08443e-08
4.32306e-07
-2.6443e-07
-1.67877e-07
-3.40225e-07
4.7288e-07
-1.32656e-07
2.35047e-09
9.54089e-08
2.35047e-09
-4.45867e-07
4.78211e-07
-3.23441e-08
4.9013e-07
-2.67146e-08
-3.89386e-07
4.75679e-07
-8.62929e-08
-4.219e-07
3.55503e-07
4.29275e-07
-1.80325e-07
-2.4895e-07
4.89619e-07
5.10766e-10
-5.2894e-07
5.6059e-07
-3.16494e-08
-6.67056e-07
8.71789e-07
-4.22795e-07
7.02621e-07
2.38676e-07
4.65139e-08
7.23428e-07
5.00624e-07
-1.10051e-08
-3.35403e-07
4.73127e-07
-1.76315e-07
2.42065e-07
1.23941e-07
2.21177e-08
8.34944e-08
-2.76214e-07
3.93545e-07
-2.76214e-07
1.9764e-07
-1.08287e-07
4.5517e-07
4.34413e-07
2.26411e-07
-6.60825e-07
-3.44685e-07
3.88249e-07
-3.53439e-08
-6.6945e-08
6.6945e-08
4.17158e-07
-6.16558e-08
1.57665e-07
-3.37991e-07
4.59025e-07
-4.68028e-08
-1.55444e-07
5.89857e-07
3.21151e-07
-4.78879e-07
4.9942e-07
-2.98566e-07
-4.68059e-07
-4.80113e-07
-1.12363e-08
4.91349e-07
-4.22432e-07
-5.16972e-08
-2.26387e-07
-2.37136e-07
-1.90195e-09
4.19174e-07
3.86834e-07
3.6083e-07
-7.54614e-08
3.81866e-07
-3.81866e-07
3.15752e-07
1.03202e-07
4.79838e-07
-3.77266e-07
4.6076e-07
6.24561e-07
-8.89174e-07
2.64613e-07
-1.85447e-08
5.19169e-07
-4.90115e-07
5.0745e-07
-8.02996e-09
-1.18167e-07
4.89773e-07
-3.71606e-07
4.7844e-07
-4.55661e-07
-2.27785e-08
-1.50277e-07
3.89751e-08
-2.67816e-07
8.92377e-07
5.69795e-07
-7.24646e-07
1.54851e-07
2.88994e-08
-2.88994e-08
-6.93824e-07
-3.40012e-07
3.40012e-07
-6.08012e-07
4.49173e-07
3.87609e-08
-4.87934e-07
5.67828e-08
-5.67828e-08
-4.61228e-07
-4.56763e-08
4.56763e-08
5.35893e-07
-5.07961e-07
-2.79321e-08
3.19913e-07
-3.19913e-07
-3.67117e-07
7.15759e-07
-9.87787e-07
2.72028e-07
5.98733e-07
3.74347e-07
6.72996e-08
-4.49958e-07
2.31771e-07
-3.30396e-07
8.00673e-07
-2.30878e-07
6.32652e-07
-8.41289e-07
-5.49084e-07
-1.75562e-07
-6.31283e-08
4.82302e-07
-2.52286e-07
5.17348e-07
4.89484e-07
-5.35161e-07
4.32311e-07
4.32048e-08
-2.18178e-07
5.3393e-07
9.03945e-07
-1.88186e-07
-6.50605e-07
-2.34234e-07
5.11182e-07
-1.98329e-08
5.6685e-07
-4.95026e-08
5.13079e-07
6.08999e-09
-9.72368e-07
1.93021e-07
-8.08025e-07
6.15004e-07
2.81814e-07
-2.28067e-07
-5.3747e-08
2.03656e-07
5.97018e-07
-9.19512e-07
1.58685e-07
8.37806e-07
-2.86225e-07
-5.51581e-07
4.37813e-07
-4.92813e-08
-8.51215e-07
2.92147e-07
-5.10325e-07
3.17579e-08
-2.85106e-07
-7.02681e-07
-2.87433e-07
2.87433e-07
-8.13403e-07
1.71756e-07
6.41647e-07
-6.5801e-07
1.08926e-07
5.52699e-07
4.2728e-07
1.05327e-08
-8.07694e-07
6.70618e-07
1.37076e-07
-2.03819e-07
1.30348e-07
-8.83547e-07
-5.36474e-07
-1.21536e-07
4.11368e-08
5.25714e-07
5.85755e-07
-3.92735e-07
-6.09747e-07
2.25734e-07
-7.10991e-07
4.85257e-07
5.54216e-07
8.11641e-08
-5.97384e-07
5.1622e-07
-2.44977e-07
8.4958e-07
-6.04603e-07
1.0233e-06
5.03152e-07
3.70356e-07
2.46226e-07
6.27295e-07
-8.73521e-07
-4.75475e-07
5.10503e-07
-7.05223e-07
1.9472e-07
6.06878e-07
2.8377e-07
5.10463e-08
-3.34816e-07
-6.35939e-07
-6.68177e-07
-2.80825e-07
9.49002e-07
-7.13562e-08
5.20529e-07
2.61166e-07
-3.7665e-07
-1.8951e-07
1.8951e-07
-2.22168e-07
8.92787e-07
6.32385e-07
-8.18333e-08
-5.50551e-07
6.71737e-07
-3.79589e-07
5.28429e-07
2.57869e-08
-5.51611e-07
6.60537e-07
-8.90345e-07
-6.2948e-07
1.29584e-07
4.99896e-07
7.79111e-07
-6.98685e-07
6.92042e-08
2.75313e-07
-7.27302e-07
9.73528e-07
5.67794e-07
6.72056e-07
-1.23985e-06
-4.5775e-07
1.27282e-06
-8.15067e-07
-5.78704e-07
7.33555e-07
-1.18505e-06
-5.94633e-07
-1.23808e-07
7.18441e-07
5.9894e-07
-8.1099e-07
2.1205e-07
-5.98833e-07
4.72216e-08
-7.13897e-08
7.36236e-07
-5.2532e-07
8.21547e-07
-2.96228e-07
3.77519e-08
-6.06573e-07
1.17437e-06
1.77523e-07
4.08232e-07
-2.31931e-07
-7.0404e-08
6.68664e-07
-8.25024e-08
-5.86161e-07
5.43777e-07
2.77771e-07
8.54462e-07
-3.10686e-07
4.699e-07
-9.5553e-08
3.85512e-07
8.33207e-07
4.97611e-07
-1.33082e-06
5.54101e-07
3.00361e-07
8.20232e-07
-2.66131e-07
-6.78429e-07
-2.89603e-07
9.68031e-07
7.4003e-07
-7.72752e-08
-6.62755e-07
-5.3e-08
-6.97707e-07
7.50707e-07
4.8453e-07
-9.89105e-07
2.86424e-07
6.50641e-07
1.80227e-08
5.43136e-07
7.2968e-07
-6.45627e-07
-2.80632e-07
9.26258e-07
-7.58223e-07
1.00165e-06
-3.35944e-07
-6.65707e-07
2.79896e-07
-8.31478e-07
5.35176e-08
-5.54289e-07
5.00772e-07
-4.32598e-07
1.2658e-06
-6.78246e-07
5.11452e-07
1.66794e-07
7.87717e-07
1.18048e-06
-9.49839e-07
-2.30645e-07
-4.51363e-07
9.93795e-07
-5.42431e-07
-9.26452e-07
-7.1974e-07
7.54877e-07
-3.51378e-08
3.03944e-07
2.70573e-07
3.21284e-07
8.59199e-07
-1.11856e-06
2.49871e-07
8.68691e-07
5.396e-07
3.57022e-07
-1.24576e-06
8.88735e-07
-3.58453e-07
7.88262e-07
-4.29809e-07
7.6154e-07
3.13175e-07
-1.07472e-06
1.25963e-06
-7.1649e-07
-1.05794e-06
-1.02644e-06
6.90496e-07
4.2202e-07
4.56906e-07
-8.78926e-07
6.48494e-07
3.45301e-07
-4.12032e-07
1.12737e-07
2.99295e-07
6.36656e-07
5.9392e-07
-1.08881e-06
1.38966e-07
7.48146e-07
4.26221e-07
5.94307e-07
4.14518e-07
-1.00882e-06
-8.26331e-07
1.06592e-07
8.38649e-07
-2.47501e-07
3.4868e-07
3.98173e-07
-7.46853e-07
9.43625e-07
1.58005e-07
-1.10163e-06
3.92879e-07
-7.03564e-07
1.23174e-08
-8.36542e-07
7.77841e-07
5.87017e-08
-6.40056e-07
9.53231e-07
9.97899e-07
-4.03593e-07
7.02215e-07
-5.21283e-07
-1.80932e-07
-7.21388e-07
9.71258e-07
6.77268e-08
-7.45972e-07
-2.46664e-07
2.46664e-07
3.91446e-07
-3.91446e-07
2.35811e-07
-2.35811e-07
-2.15682e-08
9.54089e-08
7.23287e-08
-7.23287e-08
2.07491e-07
-2.07491e-07
2.41818e-07
-2.41818e-07
2.27737e-07
-2.71271e-07
2.71271e-07
3.79971e-07
-1.47057e-07
1.47057e-07
1.36318e-07
-1.36318e-07
-2.69953e-07
2.69953e-07
2.93585e-07
-2.93585e-07
-2.74086e-07
9.33743e-07
-6.59657e-07
-1.60873e-08
1.60873e-08
-7.87613e-08
7.87613e-08
-5.04706e-07
9.45066e-07
-4.4036e-07
9.0295e-07
-5.57649e-07
4.93193e-07
3.96425e-07
8.60729e-07
-2.24073e-07
-7.59041e-08
-1.0129e-06
-2.9676e-07
-6.58762e-07
8.34737e-07
-5.62534e-08
-7.78484e-07
-9.65124e-08
-1.19607e-06
7.04983e-07
3.99097e-07
-2.12438e-07
-1.86659e-07
-6.5177e-07
4.04269e-07
-5.20081e-07
-7.19769e-07
7.21777e-07
-1.43827e-06
-1.10459e-07
-6.26343e-07
3.60212e-07
6.28634e-07
-1.4437e-06
-2.79842e-07
-1.3219e-07
-3.69527e-07
-8.26548e-07
-1.08482e-06
5.64744e-07
4.02635e-07
2.34856e-07
-6.14445e-07
-4.29781e-07
5.36373e-07
8.74788e-07
2.62894e-07
2.31843e-07
-2.09085e-07
-4.24033e-07
7.58833e-07
1.69816e-07
8.01443e-07
-5.82266e-07
1.30404e-06
-3.21925e-07
1.26555e-06
-1.09907e-06
6.8952e-07
4.09553e-07
1.178e-06
-2.30119e-07
-9.47876e-07
5.86643e-07
-4.49791e-07
1.15411e-06
-7.04323e-07
-5.80206e-07
9.28887e-07
-7.12073e-07
6.40371e-07
7.17022e-08
9.78675e-07
-2.00834e-07
-2.55126e-08
-2.33464e-07
-8.40508e-07
3.19225e-07
-8.09632e-07
-9.43925e-07
6.91868e-09
9.37007e-07
-7.63835e-07
5.68944e-07
-9.72537e-07
-9.08995e-07
4.68635e-07
-3.35405e-08
-1.00993e-06
1.28432e-06
-2.7439e-07
-1.88225e-07
5.8465e-07
-8.58796e-07
3.01147e-07
6.91205e-07
8.37935e-09
3.48147e-07
8.5607e-07
6.87439e-08
5.95111e-07
-6.63855e-07
-1.3461e-06
7.48555e-07
-6.05803e-07
5.4955e-07
8.15759e-07
5.73908e-07
2.16814e-07
-3.72216e-07
-7.26857e-07
2.04607e-07
6.88179e-07
1.13057e-06
-4.41051e-07
-2.00137e-07
-7.75693e-07
1.29083e-07
6.4661e-07
-4.56161e-07
-6.247e-07
-5.24634e-07
7.87528e-07
4.455e-07
-6.70504e-07
-3.40051e-07
-6.70307e-07
3.12939e-07
-7.30337e-07
4.17398e-07
-6.10619e-07
-2.48698e-07
7.46648e-07
7.81574e-07
-1.97237e-07
3.7476e-07
3.31871e-07
6.01873e-07
-6.05878e-07
-1.2599e-06
2.02795e-07
1.0571e-06
1.95224e-07
4.38101e-07
-1.00301e-06
-1.79835e-07
7.19435e-07
-3.12613e-07
1.06117e-06
6.40666e-07
3.4794e-07
-9.88606e-07
3.08374e-07
1.33623e-07
-6.08082e-07
4.74459e-07
6.60884e-07
-9.73498e-07
-9.28465e-07
-5.15235e-07
-5.27163e-07
1.34292e-06
4.85868e-08
2.99561e-07
9.14794e-07
-9.05203e-07
-1.07699e-07
8.95812e-07
6.41119e-07
-1.45075e-06
8.04634e-07
-4.33175e-07
3.25413e-07
7.20266e-07
7.45244e-07
-9.45381e-07
-4.65996e-07
7.95247e-07
-3.29251e-07
-5.50971e-07
4.71173e-07
7.97974e-08
-1.3431e-07
-6.44174e-07
6.38975e-07
-1.01119e-06
-6.72444e-07
-2.01077e-07
6.45139e-09
1.34854e-07
-1.41306e-07
-3.38638e-07
5.55991e-07
-8.26438e-07
-3.58614e-07
-1.46442e-06
5.35957e-07
1.12197e-06
-7.12413e-07
6.94978e-07
1.12093e-06
-1.01427e-06
-1.06665e-07
6.53394e-07
-3.45092e-07
-2.49159e-07
-1.03452e-06
-4.29904e-07
-1.30891e-06
-1.03951e-06
4.81629e-08
2.15698e-07
-2.63861e-07
-1.10611e-06
-2.44786e-07
8.46659e-07
-1.34167e-06
4.7548e-07
-5.06608e-07
-2.23729e-07
-2.7852e-07
-4.63756e-07
2.83922e-07
-6.00757e-07
3.22188e-07
2.78569e-07
-5.89228e-07
5.23611e-07
6.56171e-08
1.51073e-07
-3.90861e-07
1.24693e-06
-9.48484e-07
-3.93189e-07
-6.76768e-07
9.01211e-07
-3.061e-07
2.91012e-07
7.71795e-07
-1.06281e-06
1.24407e-07
-7.09209e-07
7.16546e-08
3.41016e-07
-4.12671e-07
1.70603e-07
-5.87455e-07
4.16852e-07
9.58753e-07
4.18865e-07
-2.23641e-07
8.2208e-08
-1.08522e-06
1.37839e-06
3.37336e-07
-3.68985e-07
6.80233e-07
-1.40171e-07
-7.79341e-07
-4.24316e-07
-5.44176e-07
9.68491e-07
-1.03106e-06
2.95459e-07
-4.53519e-07
1.58061e-07
-5.34149e-07
-2.46953e-07
6.85054e-07
3.74016e-08
-6.11433e-08
2.37416e-08
-6.22361e-07
-1.02391e-06
-1.34928e-07
1.04268e-07
3.06603e-08
1.558e-07
-4.35642e-07
1.06232e-06
-4.23342e-07
1.15062e-06
-2.91424e-07
6.89609e-07
-1.01886e-06
5.22261e-07
3.7895e-07
2.0186e-07
-4.95362e-07
-1.1272e-07
-7.78191e-07
3.53875e-07
5.36474e-07
-7.37552e-07
3.83075e-07
1.72915e-07
3.49904e-07
-8.58862e-08
4.09319e-08
6.95354e-07
-7.36286e-07
3.62471e-07
5.63943e-08
6.19015e-07
-8.65968e-07
1.51741e-07
-1.45289e-07
1.40183e-07
-2.8389e-07
1.43708e-07
-5.66949e-07
-6.2609e-07
-8.67649e-08
-7.43422e-07
8.50275e-07
-1.06854e-07
-2.6704e-07
1.24101e-07
2.76399e-08
-5.37095e-07
5.14363e-07
2.27315e-08
-4.31655e-07
-4.25295e-07
5.05092e-07
-6.67387e-07
5.60534e-07
-1.5979e-07
-9.7348e-08
-4.39747e-07
6.8416e-07
1.03626e-06
-1.03544e-07
-2.73624e-07
-7.57434e-07
-1.11471e-06
6.73664e-07
-3.4292e-07
5.29589e-07
-4.43702e-07
1.84075e-08
2.38053e-07
4.11556e-07
-4.49318e-08
8.23334e-08
-8.40572e-07
-1.04228e-06
9.69023e-08
2.9511e-07
-1.60256e-07
1.76666e-08
3.89882e-07
2.76808e-07
-6.6669e-07
1.18364e-07
5.85732e-07
-7.04096e-07
1.25807e-06
-5.96622e-07
4.31243e-08
-1.3532e-07
-3.18199e-07
-7.89492e-08
1.22073e-07
-6.05172e-07
-5.36378e-07
1.43256e-07
3.93122e-07
-8.2547e-07
-5.89858e-08
5.82597e-07
1.58028e-07
2.16733e-07
2.52233e-07
2.17657e-07
-4.6989e-07
-1.72294e-07
2.02954e-07
-1.57307e-07
-3.70951e-07
5.28258e-07
-4.45955e-08
-3.52004e-07
3.966e-07
-3.58953e-07
-6.35963e-07
6.76894e-07
-2.36471e-07
4.88704e-07
-4.18014e-07
4.60103e-07
-2.2205e-07
3.80138e-07
-1.06978e-06
1.68967e-08
-2.80757e-07
-7.33311e-07
-4.77834e-08
2.05811e-07
1.18769e-06
-2.98954e-07
-7.56727e-07
1.04315e-06
7.58948e-07
-8.20531e-08
4.01117e-07
7.12185e-07
-1.62635e-07
1.62326e-07
-2.25257e-07
1.05719e-06
-1.88497e-07
1.40576e-07
-3.62626e-07
-4.78312e-07
6.36373e-07
-7.85298e-07
1.05733e-06
3.44218e-07
-4.4923e-08
6.86332e-07
-6.20715e-07
-1.49074e-07
1.04143e-07
-1.83258e-07
9.42091e-07
-8.97524e-08
-1.78315e-07
9.93659e-08
-2.70009e-08
-1.215e-07
8.96287e-08
-1.79381e-07
4.87692e-07
-1.46676e-07
9.79628e-08
-3.19703e-07
2.2174e-07
-7.15391e-07
-2.57854e-07
9.73245e-07
-6.35854e-07
-2.04718e-07
2.99174e-07
4.3231e-07
1.50558e-07
-9.07286e-07
-1.40182e-07
-2.46393e-08
2.26499e-07
1.53152e-07
-3.46809e-08
-8.36891e-07
6.68451e-07
-1.1143e-07
9.12873e-07
7.24513e-07
-2.91589e-08
-1.82135e-07
-2.97866e-07
6.13952e-08
2.15832e-07
-6.94144e-07
1.78716e-07
-9.27279e-07
8.86839e-07
1.7763e-07
1.13799e-07
-9.70139e-07
8.5634e-07
7.31388e-07
-8.71559e-07
9.45758e-07
2.51115e-07
-1.22945e-07
1.30525e-07
-7.58024e-09
-9.6685e-07
1.06375e-06
8.76845e-08
-1.15453e-07
2.7769e-08
8.53529e-07
-1.22141e-07
1.12151e-07
-5.57567e-08
7.06172e-07
-1.92995e-08
4.30411e-08
9.99192e-07
9.00881e-08
-1.09388e-07
-7.11447e-07
-7.29656e-07
-7.78512e-07
8.92312e-07
-2.04666e-07
7.32988e-07
-5.28322e-07
5.35998e-07
8.86406e-08
5.28927e-07
-1.65301e-07
-3.93875e-07
5.59175e-07
-5.10254e-07
5.63771e-07
7.86927e-08
-4.50299e-07
8.17716e-07
2.3961e-07
-1.27223e-07
2.7093e-07
-8.34284e-08
-4.19701e-07
1.52423e-07
7.51522e-07
3.25057e-07
-5.98541e-07
1.39522e-07
-1.11882e-07
-1.89178e-07
-2.08237e-07
6.72302e-08
2.04542e-08
6.80171e-07
-3.86709e-07
8.08729e-07
4.77248e-07
-5.06981e-07
2.97331e-08
-1.8145e-08
7.69667e-07
1.28238e-08
8.64552e-09
-2.14694e-08
1.22994e-08
-4.22611e-08
7.11078e-07
-4.34271e-07
-2.56449e-07
6.91049e-07
-4.346e-07
1.83905e-07
-2.28828e-07
9.45919e-10
7.47987e-07
4.37238e-08
-5.72296e-07
-2.73686e-08
-3.46485e-07
6.55656e-07
-6.73801e-07
-1.07054e-07
-7.64505e-07
7.06315e-07
-3.43171e-07
-3.63144e-07
3.39903e-07
-1.08132e-07
-4.98879e-07
6.82571e-07
-1.83692e-07
-5.5228e-07
8.25918e-07
-2.73638e-07
3.46279e-07
7.94826e-08
-1.62911e-07
-1.65218e-07
-4.83417e-07
-5.14269e-07
-8.31156e-08
-4.31294e-07
-1.3874e-07
-2.52833e-07
-9.87597e-07
-4.64384e-07
-2.71902e-07
1.00014e-06
7.18735e-07
-2.33478e-07
3.98544e-07
-6.36974e-07
-1.82837e-07
8.19812e-07
-3.85924e-07
2.08706e-07
1.77218e-07
-1.04475e-08
-5.75714e-07
6.8192e-07
6.96384e-08
8.7612e-07
4.77362e-08
3.4393e-07
2.07436e-07
1.19421e-07
5.36235e-07
2.63555e-08
-1.41809e-07
-6.28052e-08
5.03084e-07
-4.40279e-07
-1.35071e-07
3.89185e-07
-9.35775e-10
-4.66666e-07
-9.70882e-08
4.85564e-07
-5.05397e-07
1.58359e-07
-3.18615e-07
-7.62319e-07
6.55265e-07
5.40746e-08
2.82711e-07
3.84402e-08
-7.42515e-07
7.44008e-07
-1.49293e-09
-1.47547e-08
-6.43081e-07
7.67179e-07
-1.24098e-07
-2.9103e-07
4.32555e-07
-1.41525e-07
4.49398e-07
-2.32378e-07
3.84603e-07
5.367e-08
-4.38273e-07
-2.71852e-07
-4.61458e-07
5.96669e-07
6.13584e-07
6.89868e-08
1.5213e-08
-1.85123e-07
1.6991e-07
5.90924e-07
-4.79443e-07
-2.67002e-07
2.53498e-07
-2.70901e-07
3.85231e-08
5.62349e-07
-3.08851e-07
-8.28762e-08
-8.16778e-07
6.94637e-07
-6.88305e-07
-7.40145e-08
2.46648e-08
-3.67156e-07
1.00154e-07
3.78657e-07
-9.77656e-08
8.41773e-07
-6.85725e-08
-1.48471e-09
-4.93603e-07
-4.68538e-07
4.66636e-07
2.4435e-07
4.72515e-07
4.80138e-08
-7.8607e-07
7.72685e-08
5.86046e-08
2.23209e-07
-1.61118e-07
5.55811e-07
-1.77153e-07
3.99816e-07
5.31901e-07
-5.93862e-08
3.33764e-07
6.60521e-08
-8.57296e-07
1.08167e-07
7.49129e-07
1.69108e-08
-5.67462e-07
3.03332e-07
-8.78353e-07
9.90118e-08
4.76156e-07
5.57453e-08
-4.39774e-07
1.91395e-08
4.20634e-07
-8.01084e-07
6.3127e-08
-1.19625e-07
5.64984e-08
6.22075e-08
-3.33924e-08
-7.29668e-07
1.39378e-07
5.9029e-07
-1.42169e-07
-2.28415e-07
-2.44546e-07
5.33577e-07
-3.24473e-07
3.21686e-07
-7.45269e-07
2.10108e-07
-3.14531e-07
-7.13929e-08
3.07477e-07
-2.92467e-07
4.57496e-07
-2.47119e-07
3.37199e-08
2.13399e-07
-4.27509e-07
2.46177e-08
4.02891e-07
-9.1914e-08
-1.99683e-08
-3.16523e-07
5.29826e-07
-3.99717e-07
-7.58284e-07
-6.54876e-10
-5.38186e-07
-2.42082e-07
-5.03723e-09
-2.93393e-07
4.88471e-08
9.54598e-07
-1.19636e-06
2.41763e-07
-4.04553e-07
6.81482e-07
-7.0885e-07
1.88553e-07
9.48386e-07
-6.72101e-07
-2.07388e-07
-5.18635e-07
2.23403e-07
2.48063e-07
-1.06669e-07
9.81411e-09
2.57277e-07
4.63939e-07
-6.53953e-08
-6.82869e-07
8.82514e-07
-4.25608e-07
7.89649e-07
2.05504e-07
-9.40547e-07
7.35043e-07
-2.41393e-07
8.50269e-07
-6.08876e-07
6.92119e-07
1.94129e-07
4.79355e-08
6.75792e-07
-2.45471e-07
-4.79224e-08
-5.20695e-07
4.5462e-10
5.20241e-07
4.50376e-07
-4.20643e-07
-5.32166e-07
-2.13103e-07
-3.43554e-08
-8.19785e-07
8.18292e-07
8.57026e-07
-1.64907e-07
7.08967e-07
-9.61253e-07
-3.04132e-07
5.86613e-08
6.99381e-07
1.8244e-07
-5.51425e-07
-6.36359e-07
-6.52323e-08
1.82798e-07
2.63069e-07
3.82201e-07
2.29605e-07
6.94485e-08
-2.99054e-07
3.30589e-08
-7.91343e-07
1.44583e-08
-3.05488e-07
7.74135e-07
-7.05148e-07
7.90494e-07
-7.23826e-07
-6.66671e-08
4.60167e-08
-1.77671e-07
-2.82762e-08
6.0361e-08
-3.20848e-08
3.70993e-07
-7.55969e-08
-9.04885e-07
7.01066e-07
3.04462e-07
-1.27244e-07
4.95408e-07
-8.71755e-08
-9.35305e-07
7.01071e-07
9.07814e-07
-4.06394e-07
-2.97171e-07
-7.2617e-07
-9.36143e-08
-4.98544e-07
4.19811e-07
-2.3257e-07
7.79013e-10
2.31791e-07
3.50336e-08
5.91327e-07
-8.3272e-07
3.41317e-07
-7.81596e-07
-2.34239e-07
-3.11123e-07
-6.65507e-07
-7.64046e-07
2.60183e-07
-9.79278e-07
2.85843e-07
-7.46821e-07
3.83677e-07
4.79854e-07
-5.51556e-07
1.72078e-08
1.68662e-07
1.74804e-07
-3.1105e-07
7.23037e-08
4.57522e-07
-7.42906e-07
2.03312e-07
-2.43094e-07
-1.24023e-07
8.1403e-07
4.23104e-08
-1.778e-07
3.68623e-07
3.1892e-07
2.62172e-07
2.55402e-07
7.07505e-07
-9.25007e-08
8.35728e-07
-2.21375e-07
9.71337e-07
-2.67015e-07
2.43749e-07
-5.73075e-07
4.8996e-07
7.67133e-08
-7.98763e-07
-2.10586e-07
1.2841e-07
-1.27631e-07
1.38585e-07
1.28082e-07
1.86995e-07
1.56471e-07
-2.92107e-07
-3.61287e-07
5.16442e-07
1.02621e-06
-7.83317e-08
-1.11036e-06
4.99742e-07
4.49043e-07
-8.74651e-07
6.01391e-07
-8.11977e-07
1.94897e-07
-6.57201e-07
9.73719e-07
9.43041e-08
7.84959e-08
-7.59846e-08
8.90014e-07
-3.75793e-07
-3.25409e-07
4.22179e-07
-5.18234e-08
-5.13955e-07
6.89049e-07
-1.75094e-07
5.50098e-08
-3.82443e-07
-2.7326e-07
-3.66114e-07
1.49118e-07
-5.20069e-07
-6.35491e-07
7.3948e-07
-3.16799e-07
3.75461e-07
3.87824e-07
1.02445e-06
2.3375e-06
3.72353e-09
6.2033e-07
-7.99811e-07
5.97993e-07
-1.22513e-07
1.85217e-07
5.23575e-07
-4.94908e-07
-3.14585e-07
-2.68489e-07
2.91393e-08
-3.81143e-07
8.02515e-08
9.25485e-08
2.17135e-07
-5.05354e-07
6.44732e-07
-4.32306e-07
4.09528e-07
6.23466e-07
-4.74348e-07
-5.13344e-07
5.37962e-07
-4.44824e-08
3.30978e-07
-6.16755e-07
3.07247e-07
-3.46349e-08
-1.60693e-08
-9.01581e-07
2.34896e-07
2.10971e-07
-1.03659e-07
5.93619e-07
-4.4878e-08
-5.53662e-07
-3.74933e-07
5.44261e-07
1.37294e-07
3.79825e-07
4.19915e-07
-5.15802e-07
2.66708e-07
-4.65493e-07
4.65948e-07
-6.12987e-07
1.78387e-07
2.22386e-07
3.7205e-08
3.4262e-07
-2.541e-07
7.05414e-07
-4.96434e-07
3.11291e-07
-1.07187e-07
-4.88083e-07
1.12911e-07
8.84876e-07
1.18714e-07
4.46733e-07
3.04859e-08
-4.36354e-07
4.48372e-07
-1.19271e-07
7.7957e-08
-1.85144e-07
5.33428e-07
-7.65271e-07
1.59393e-07
-1.03789e-08
1.63543e-07
1.72867e-08
4.58299e-07
-5.63049e-07
2.84267e-08
-1.58672e-08
1.01592e-07
-7.20575e-07
-3.41629e-08
3.3496e-07
-5.119e-08
1.21958e-07
-1.34484e-07
1.0054e-06
-4.90888e-07
1.84339e-07
1.67877e-07
2.03321e-09
-5.91227e-07
5.75291e-07
5.04825e-07
6.22287e-08
-5.67054e-07
-3.74614e-07
6.668e-07
-1.56909e-07
-1.28234e-07
-5.43413e-07
2.26379e-08
2.75281e-08
2.35046e-07
-5.62707e-08
1.55637e-07
6.06336e-07
-2.83347e-07
2.24941e-07
-1.87651e-07
8.41071e-08
4.56269e-07
-5.98939e-08
2.20276e-07
3.40314e-07
2.39651e-07
2.25559e-07
8.32838e-09
1.50339e-07
-1.94971e-07
4.22511e-07
-2.27539e-07
5.28086e-07
1.76642e-09
9.46181e-07
5.36814e-07
-7.39654e-08
2.86868e-07
-2.94627e-09
4.29031e-07
5.76374e-07
-8.38907e-07
-5.96673e-07
-6.31041e-07
5.13006e-07
5.05855e-07
5.28086e-07
-3.87508e-08
2.77954e-07
-2.20137e-07
-1.35107e-07
-1.83508e-07
5.21045e-07
-7.28432e-07
-1.83063e-07
-9.12033e-07
1.83133e-07
5.86844e-08
-1.11877e-07
9.57894e-08
1.78449e-07
-1.0612e-07
2.49166e-07
-1.33543e-08
-1.95013e-07
1.3797e-07
5.8371e-08
-2.53298e-07
-2.49166e-07
1.95013e-07
2.53298e-07
1.79725e-08
-2.4231e-07
-2.76433e-08
-1.3797e-07
-5.8371e-08
1.83133e-07
-1.11877e-07
1.78449e-07
-2.4231e-07
-5.83005e-07
1.43258e-07
2.50533e-07
5.92485e-07
2.10747e-07
-2.45238e-07
2.45238e-07
2.50533e-07
-3.46638e-07
-2.1566e-07
2.01245e-07
4.16841e-07
-2.0587e-07
4.19771e-07
-1.34022e-08
1.82634e-07
-2.70793e-07
2.41294e-08
2.70793e-07
-8.39892e-10
-7.00133e-07
-5.10251e-07
1.11498e-07
-6.1662e-08
-9.50956e-08
5.99921e-07
-1.10834e-07
-3.60783e-08
-1.77749e-07
1.69794e-07
-1.01281e-06
-1.9733e-07
-4.60083e-07
1.95653e-07
3.40726e-07
3.11079e-08
-7.67226e-07
1.70553e-07
-6.56938e-08
1.96384e-07
1.40921e-07
-3.36853e-08
8.10769e-08
-1.93628e-06
1.64106e-06
2.95223e-07
4.68301e-07
-1.27988e-07
5.31295e-08
-5.31295e-08
-2.66663e-07
-5.31303e-08
-5.4695e-07
5.81676e-08
2.19828e-07
-1.95698e-07
5.29464e-07
-2.46574e-06
6.04337e-07
-4.52728e-07
1.41965e-07
1.15377e-07
6.18213e-07
-3.31188e-08
2.91121e-07
-2.63699e-07
-1.15565e-07
-4.43219e-07
-7.63776e-08
-1.08766e-07
7.9822e-08
4.46197e-07
1.74623e-07
1.54482e-08
-9.18258e-08
-6.00842e-08
-2.89523e-07
-6.72804e-08
5.85012e-07
-4.28396e-07
4.27902e-08
-4.27902e-08
1.83135e-07
6.35288e-08
-1.83135e-07
4.23707e-08
-1.34713e-08
1.34713e-08
-5.98202e-07
-5.0082e-07
-2.30529e-08
-7.77963e-07
2.59328e-07
-5.67658e-07
-3.41035e-08
1.62513e-07
7.02249e-08
-6.6907e-07
-2.79713e-07
-5.87385e-07
1.65e-07
-1.78402e-07
3.22498e-07
-2.43563e-07
2.66294e-07
-3.51832e-08
-1.40529e-07
6.33715e-07
-6.33715e-07
5.36464e-07
-1.84011e-07
1.34604e-07
-5.61129e-07
6.65489e-07
3.28466e-07
-9.93955e-07
1.69841e-07
6.88728e-08
-3.24706e-08
-1.26137e-07
-6.74449e-08
4.52385e-07
2.66835e-08
1.2824e-07
5.88018e-09
-1.33511e-07
-3.48668e-08
3.48668e-08
2.19473e-07
2.03038e-07
3.14585e-07
5.34462e-07
-2.24906e-07
-3.09556e-07
1.27045e-07
2.69999e-08
-2.95794e-08
-1.74623e-07
-1.92157e-07
2.95794e-08
-2.46053e-07
1.18724e-07
1.27329e-07
7.67179e-07
-2.46229e-08
-1.23511e-06
5.05003e-08
-9.65845e-07
5.66361e-07
3.99484e-07
-3.36853e-08
-2.12024e-07
-2.27539e-07
2.12024e-07
1.49113e-07
6.50944e-08
-9.97294e-08
-7.0786e-08
-1.3832e-07
7.0786e-08
1.3832e-07
1.66541e-07
-1.66541e-07
1.42727e-06
3.89938e-08
-4.1496e-07
-2.56315e-07
7.99526e-08
1.39875e-07
-1.06571e-07
-2.84875e-07
2.84875e-07
-4.90888e-07
-2.61925e-07
6.74449e-08
-1.09933e-07
6.8608e-09
1.84011e-07
1.42588e-08
-2.07487e-07
-1.59409e-08
1.38839e-07
8.08875e-07
3.68196e-08
-3.97659e-08
1.46305e-07
-8.27918e-07
-2.30529e-08
-5.30081e-07
1.94015e-07
5.50949e-07