/*--------------------------------*- C++ -*----------------------------------*\
  =========                 |
  \\      /  F ield         | OpenFOAM: The Open Source CFD Toolbox
   \\    /   O peration     | Website:  https://openfoam.org
    \\  /    A nd           | Version:  9
     \\/     M anipulation  |
\*---------------------------------------------------------------------------*/
FoamFile
{
    format      ascii;
    class       surfaceScalarField;
    location    "2.01";
    object      phi;
}
// * * * * * * * * * * * * * * * * * * * * * * * * * * * * * * * * * * * * * //

dimensions      [0 3 -1 0 0 0 0];

internalField   nonuniform List<scalar> 
1363
(
-7.2704e-07
4.97917e-07
2.29122e-07
-4.76218e-07
4.18228e-07
5.79906e-08
8.70899e-07
-7.14711e-07
-1.56188e-07
-2.83181e-07
6.83e-07
-3.99819e-07
8.39364e-07
3.15346e-08
4.82527e-07
-1.02925e-08
-4.72235e-07
-2.88618e-07
2.88618e-07
4.38262e-07
4.42652e-08
-4.73956e-07
4.61239e-07
1.27168e-08
-1.50305e-08
-4.58926e-07
-3.81756e-07
2.48021e-07
1.33735e-07
6.13194e-07
-7.67803e-07
1.54609e-07
4.67895e-07
-7.51076e-07
-6.57792e-07
6.04211e-07
5.3581e-08
1.30692e-07
4.82502e-07
-4.61245e-07
-1.49737e-08
3.17317e-07
4.48646e-07
-7.65963e-07
-3.45561e-07
-3.81479e-07
-9.42773e-07
5.95881e-08
8.83185e-07
1.01704e-08
-1.01704e-08
5.004e-07
-1.83083e-07
-2.75601e-07
-4.92202e-07
-3.25044e-07
-3.9461e-08
3.64505e-07
9.3818e-08
-2.46076e-07
1.52258e-07
-3.47952e-07
-3.38039e-08
-2.565e-08
1.19468e-07
6.9037e-07
-7.05698e-07
1.53282e-08
-4.34673e-07
1.09629e-07
2.08996e-07
-4.10083e-07
2.01087e-07
4.95891e-09
-5.91615e-07
5.86657e-07
8.37356e-08
-1.21576e-07
3.784e-08
-3.23486e-09
6.93605e-07
-1.12466e-07
3.21462e-07
-2.7612e-07
9.51073e-08
1.81013e-07
7.16399e-07
-7.76738e-07
6.03389e-08
3.15313e-08
3.06172e-07
-3.37703e-07
-7.32344e-07
3.28505e-07
4.03839e-07
5.04823e-07
-1.64609e-07
-3.40214e-07
-3.76004e-07
-3.5634e-07
-6.20507e-08
-1.84025e-07
-2.14429e-07
-1.77737e-07
3.92166e-07
6.48971e-07
-5.68715e-07
-8.02563e-08
3.25675e-07
-3.87726e-07
-5.40597e-08
-2.34558e-07
1.67801e-07
1.20817e-07
-5.69763e-07
-1.02849e-07
6.72611e-07
3.10355e-07
3.22773e-07
-6.33128e-07
8.64094e-09
-2.84761e-07
-3.08988e-07
9.45596e-08
-3.36647e-07
-3.21145e-07
-7.12924e-07
-2.29848e-07
2.62156e-07
-3.01617e-07
3.01479e-07
-2.69948e-07
-1.47589e-07
5.40467e-08
9.35426e-08
5.86487e-07
-6.01518e-07
-2.15917e-07
4.68999e-07
-2.53082e-07
3.09497e-07
-3.09497e-07
-8.65993e-09
5.95147e-07
2.33062e-07
7.64343e-08
5.9279e-07
1.60919e-07
-7.53709e-07
-3.86115e-07
3.91074e-07
7.30248e-07
-7.4736e-07
1.71124e-08
2.44077e-08
7.06996e-08
-9.88996e-08
5.96817e-07
3.91977e-07
1.12846e-07
5.10286e-07
-3.92879e-07
-1.17406e-07
2.45499e-08
2.00332e-07
4.12987e-07
-6.13319e-07
-3.7412e-07
1.58203e-07
4.25555e-07
-3.19831e-07
-1.05724e-07
3.42361e-07
7.58667e-08
-3.79006e-07
3.45245e-07
3.37611e-08
2.43321e-07
-2.43321e-07
-8.59339e-08
-5.05682e-07
-1.85713e-07
3.81238e-08
1.34487e-07
-1.24317e-07
-1.22599e-07
1.12429e-07
-3.09612e-08
1.94966e-08
6.42391e-08
-4.70086e-07
8.84128e-09
-1.04797e-08
1.81629e-07
-1.71149e-07
-1.47226e-07
-3.81559e-08
1.08007e-07
-6.98511e-08
4.01999e-08
-4.54312e-07
6.14323e-08
-8.15797e-07
7.85157e-07
3.06394e-08
5.65661e-07
2.71286e-08
4.10061e-07
7.77284e-08
-4.8779e-07
2.40473e-08
5.80164e-07
-1.56937e-07
1.18781e-07
4.78591e-07
1.70381e-07
4.03286e-07
3.81702e-08
-4.41456e-07
-6.1266e-07
6.04e-07
3.17785e-07
1.51215e-07
1.04035e-07
-3.57117e-07
1.97238e-09
-1.5519e-07
1.53217e-07
-8.70429e-09
-5.60011e-07
-5.8343e-08
4.68404e-07
-2.77461e-07
2.66982e-07
5.86198e-09
3.53936e-07
-1.53233e-09
-3.52404e-07
7.43383e-08
-6.86999e-07
-4.0257e-07
3.71495e-07
-4.37264e-07
5.41299e-07
4.46277e-08
3.46446e-07
1.8863e-07
-7.58393e-07
-5.67488e-08
-5.64835e-07
6.21584e-07
2.42644e-07
-4.23119e-08
3.08723e-07
1.04264e-07
-4.22391e-08
-3.31881e-07
-1.53544e-07
3.11748e-07
-4.76575e-08
-1.63968e-07
-2.15038e-07
-1.65618e-07
4.13639e-07
4.03286e-07
7.7055e-07
-8.91935e-07
1.21385e-07
5.25181e-07
1.57819e-07
-2.51127e-07
2.56989e-07
-1.08871e-08
-6.31582e-07
6.42469e-07
-2.56989e-07
3.01617e-07
3.29742e-07
1.44719e-10
-3.29886e-07
3.25675e-07
2.28347e-07
-2.03121e-07
8.78732e-08
-6.83766e-08
2.62156e-07
-5.00192e-07
3.87726e-07
5.00192e-07
-4.59175e-07
-4.10172e-08
3.01479e-07
6.16365e-07
-5.56777e-07
-6.16365e-07
6.18773e-07
-2.40787e-09
5.56777e-07
-2.34004e-07
-3.17363e-07
3.26004e-07
3.17363e-07
-7.47193e-08
-6.18773e-07
5.15924e-07
-3.01624e-07
2.59385e-07
2.34004e-07
7.47193e-08
1.0584e-07
-2.59385e-07
-1.0584e-07
-2.03148e-07
-3.26004e-07
2.03148e-07
1.22856e-07
-5.15924e-07
4.59175e-07
7.22893e-07
2.80171e-08
5.98561e-08
4.24014e-07
1.42482e-08
1.37438e-07
4.2038e-08
-3.61869e-07
9.34715e-08
2.51773e-07
8.89216e-08
-4.63983e-07
3.75061e-07
-2.52031e-07
-5.63765e-07
6.07335e-08
3.6328e-07
2.92509e-07
-5.80041e-07
2.87533e-07
8.04899e-07
-7.66729e-07
-2.89081e-07
3.10558e-07
-2.14777e-08
-7.61846e-07
-1.48924e-08
4.96254e-08
-4.25629e-07
-3.62938e-07
-9.13734e-08
-2.1572e-08
1.59656e-07
-1.38084e-07
-7.31016e-07
1.36459e-07
-4.24918e-07
6.19796e-08
4.63886e-07
-4.14261e-07
-7.31111e-07
3.31292e-07
4.30408e-07
2.82497e-08
-4.58658e-07
4.94167e-07
-2.01658e-07
-2.02476e-08
-7.69098e-07
7.89346e-07
1.24311e-07
2.29625e-07
4.8022e-07
-1.08725e-07
1.07776e-07
-5.28863e-07
-3.27073e-07
4.06307e-07
-2.13924e-09
-8.82275e-08
1.42571e-07
6.42587e-07
-5.21734e-07
3.88678e-07
1.33057e-07
-4.33585e-08
-1.11831e-07
-2.04825e-07
-3.1691e-07
5.56841e-07
-2.39056e-07
-5.80904e-07
4.30285e-07
1.50619e-07
-2.99842e-07
1.07616e-08
-3.35614e-07
-7.44686e-08
4.17427e-07
-1.92226e-07
-4.31495e-07
-9.78808e-09
-3.00622e-07
-6.41897e-07
9.42519e-07
-5.02303e-07
-4.25084e-08
5.44811e-07
6.38349e-07
-8.90381e-07
5.92476e-07
-1.62191e-07
8.92298e-07
-9.26415e-07
3.41167e-08
4.6621e-07
1.26266e-07
-4.87757e-07
3.99529e-07
1.4532e-07
-1.0748e-07
1.49655e-08
-5.17268e-07
7.3297e-07
-2.65075e-07
4.78443e-07
-4.63363e-07
-1.50801e-08
-3.03869e-07
1.26132e-07
-2.9222e-07
2.9222e-07
-2.51127e-07
2.76319e-07
4.56651e-07
-2.21207e-07
2.36172e-07
5.56423e-07
1.94029e-07
5.57522e-07
-3.59256e-07
-8.10209e-07
7.677e-07
3.34555e-08
-3.88251e-08
-3.44805e-07
6.21125e-07
-2.97272e-07
5.99142e-07
-3.0187e-07
-9.2563e-07
9.42742e-07
-1.9319e-07
-2.73283e-07
6.64051e-07
-3.90768e-07
-2.48356e-07
8.86706e-07
8.36827e-07
-5.35061e-07
-3.01766e-07
-4.52059e-07
-1.13039e-08
-3.83573e-07
-6.84865e-08
-4.6513e-07
6.53128e-07
-1.87998e-07
4.4078e-07
-7.14063e-07
-1.2704e-07
5.9325e-07
6.31783e-07
-3.52722e-07
-2.7906e-07
1.93417e-07
-1.93417e-07
3.78748e-07
-3.78748e-07
7.1965e-08
-9.97595e-07
-4.93538e-07
6.41327e-07
-1.47789e-07
6.71976e-08
1.65013e-07
-2.32211e-07
1.89231e-07
-1.99019e-07
-7.41182e-07
-6.9027e-08
3.57433e-07
-3.57433e-07
-1.82211e-07
1.82211e-07
1.98921e-07
2.87398e-07
-6.32203e-07
7.18884e-07
1.17943e-07
1.5959e-07
2.12517e-07
-4.41274e-07
5.77017e-08
-2.76261e-07
1.79026e-07
3.01195e-07
-1.2105e-07
-5.11974e-07
6.33024e-07
4.44496e-07
-3.11439e-07
-3.56631e-07
5.07249e-07
-2.0827e-07
-5.20276e-07
-1.04921e-07
6.25197e-07
2.41015e-07
1.44031e-07
9.64263e-07
1.46588e-08
5.42863e-07
-4.10223e-08
-8.85392e-07
-4.01526e-07
5.27792e-07
2.68402e-07
-6.39014e-07
8.51167e-08
5.08133e-07
-2.09926e-07
-4.4229e-07
6.52216e-07
8.7865e-08
-6.69902e-07
4.81904e-07
4.19625e-07
-6.2955e-07
-9.37256e-07
-4.19067e-07
5.04183e-07
-5.88152e-07
4.83231e-07
5.67654e-08
5.40265e-07
-5.9703e-07
8.17517e-08
5.35113e-07
9.00843e-08
6.92966e-07
-1.57853e-07
-8.81978e-07
9.96198e-07
-1.14221e-07
4.06825e-07
4.87563e-08
8.93986e-07
-7.80007e-07
-3.72043e-07
7.91667e-07
-4.91994e-07
-3.43159e-08
5.2631e-07
-6.95179e-07
7.29296e-07
-7.79189e-09
2.69948e-07
3.36956e-07
-3.07844e-08
3.37799e-07
-3.45591e-07
-5.0199e-07
9.99619e-09
5.82004e-07
-7.56023e-07
1.74019e-07
-1.04073e-06
3.09712e-07
-2.18131e-08
5.27083e-07
-5.0527e-07
-5.87914e-07
5.66101e-07
4.64231e-07
3.99522e-08
5.20997e-07
6.78734e-07
-9.67302e-08
1.15269e-07
2.91556e-07
-8.30045e-07
4.58002e-07
-3.18794e-08
5.12776e-07
-4.80897e-07
-4.01e-07
3.66684e-07
-7.78977e-07
7.63519e-07
1.54577e-08
5.47299e-07
-9.82822e-07
4.35524e-07
-4.9343e-07
-1.11873e-07
-8.70949e-07
-7.12124e-07
1.02184e-06
9.46154e-07
-6.10939e-07
-3.35215e-07
2.5093e-08
-1.12725e-06
4.18838e-07
7.08411e-07
-7.43203e-07
6.99227e-07
4.39763e-08
5.02246e-07
4.43909e-07
5.44127e-07
8.88971e-08
-6.24272e-07
5.66926e-07
5.73462e-08
2.49501e-07
-2.49501e-07
-1.24317e-07
-4.41456e-07
-2.34558e-07
-1.47233e-08
1.47233e-08
-2.17374e-07
2.17374e-07
2.28347e-07
5.41941e-07
-6.00213e-07
5.82716e-08
-5.11474e-07
5.11474e-07
-1.8547e-07
1.8547e-07
2.33062e-07
-1.48161e-07
1.48161e-07
-2.49921e-07
2.49921e-07
-1.22599e-07
4.66957e-07
-4.66957e-07
1.67801e-07
-2.03121e-07
3.121e-07
-1.96831e-07
4.65575e-07
1.01511e-07
-5.67086e-07
3.01293e-07
-3.01293e-07
5.53954e-07
-5.85833e-07
-6.25452e-07
5.45196e-07
2.26423e-07
-2.26423e-07
-7.12499e-07
-4.35244e-08
5.76365e-07
-6.78838e-07
1.02473e-07
-7.58308e-08
-5.42502e-07
6.18333e-07
-4.08662e-07
-7.18588e-07
-5.86136e-07
5.10305e-07
-6.74715e-07
-3.77834e-08
-1.28167e-07
-6.15036e-07
5.89854e-07
-1.02935e-06
4.39492e-07
-1.89123e-07
3.01624e-07
9.86344e-07
-4.84099e-07
3.25255e-07
-3.09541e-07
-1.57133e-08
-1.45681e-07
8.63838e-07
-5.62142e-07
-3.01697e-07
-1.14354e-06
4.31417e-07
7.19995e-07
-1.06162e-06
3.41993e-07
7.19624e-07
-8.35108e-08
-4.76493e-08
6.27326e-07
-1.12076e-06
8.42183e-07
-9.54056e-07
-4.62589e-08
9.80684e-07
-7.93261e-07
-1.87423e-07
-4.24203e-07
-6.05143e-07
-4.695e-07
-1.16636e-07
-9.73875e-07
3.62936e-07
-9.46816e-09
4.25805e-07
-8.57893e-07
4.32089e-07
4.65388e-07
-1.40134e-07
1.07567e-06
-6.56829e-07
4.19115e-07
2.06457e-07
-6.25572e-07
-2.46953e-07
8.07184e-07
-5.60231e-07
1.41285e-08
1.00779e-06
-3.08562e-07
-4.78527e-07
-3.37599e-07
8.16126e-07
2.80709e-07
-6.75264e-07
3.94555e-07
7.40127e-07
-1.73201e-07
-1.07392e-08
-2.98802e-07
3.01213e-07
6.72067e-07
-1.26871e-07
-8.69713e-07
5.68017e-07
-5.16215e-07
-6.30201e-07
6.00691e-07
-5.86562e-07
-2.78573e-07
2.66276e-08
5.99127e-07
5.02778e-07
-7.49732e-07
-6.31882e-07
2.82405e-07
5.54571e-07
1.38064e-07
-8.70341e-07
7.32278e-07
-1.10707e-07
6.20187e-07
-5.0948e-07
7.51574e-07
-4.70865e-07
5.51858e-07
-6.35369e-07
3.28657e-07
-2.56148e-07
6.1196e-07
-7.19707e-07
6.81923e-07
-9.60745e-11
-4.94957e-07
5.26386e-07
6.13352e-07
-9.50951e-07
-5.11637e-07
7.18094e-07
-1.0903e-06
4.33467e-07
-8.78001e-07
5.69439e-07
5.93584e-07
7.10713e-09
5.84116e-07
-5.3384e-07
-1.56394e-07
6.90234e-07
-5.64618e-07
7.38638e-07
-6.60711e-07
-4.63793e-07
-1.61779e-07
-7.04982e-07
5.31781e-07
4.43863e-07
6.73574e-08
-6.0986e-07
-2.66041e-07
-4.91169e-07
-1.5169e-07
1.37504e-07
7.62782e-07
2.84037e-07
-1.04682e-06
7.60104e-07
-6.2204e-07
6.78723e-07
-3.50066e-07
1.04519e-06
5.86305e-07
2.29822e-07
-1.37333e-07
2.88503e-07
-1.51171e-07
-1.02182e-06
7.43246e-07
1.08853e-07
-1.78596e-07
4.75973e-07
-9.89755e-07
3.59554e-07
-1.33553e-07
8.65831e-07
5.73208e-07
-2.5127e-07
6.83359e-07
-3.47931e-07
-7.7778e-08
4.25709e-07
5.68012e-07
-6.1427e-07
2.84984e-07
-7.79941e-07
-2.10725e-07
1.58961e-07
5.17645e-08
1.71245e-10
-5.99201e-07
1.17305e-07
5.31669e-07
6.31698e-07
-5.73708e-07
-3.01549e-08
-9.11634e-07
9.38262e-07
-1.04503e-06
5.28813e-07
2.06719e-09
-3.14218e-07
-4.62759e-07
5.98331e-07
-1.35572e-07
5.681e-08
-8.35575e-08
-6.70498e-07
3.61961e-07
3.08537e-07
-3.01781e-07
4.60942e-07
-8.11296e-07
3.50354e-07
-9.39341e-07
4.48173e-07
4.61032e-07
2.77606e-07
-3.6447e-07
7.7901e-07
-2.47229e-07
5.01166e-07
-6.413e-07
-3.69902e-07
2.15975e-07
6.34212e-07
6.77007e-07
-9.10656e-07
2.78774e-07
-3.92892e-07
5.12969e-07
6.3486e-07
-5.17555e-07
-5.51102e-07
-2.45497e-07
6.07458e-07
-5.51155e-07
3.72404e-07
1.78751e-07
-1.41142e-08
4.39823e-07
-2.42619e-07
-5.28039e-07
2.41968e-07
2.56606e-07
5.5305e-07
-5.83205e-07
-1.50168e-07
3.09129e-07
4.3151e-07
8.80618e-08
-5.70062e-07
4.82e-07
4.42652e-07
-4.53391e-07
-4.81035e-07
3.87441e-08
1.98649e-07
-7.49751e-07
2.52972e-07
3.78726e-07
-6.7959e-08
-4.67954e-07
5.35913e-07
1.11006e-07
-6.84714e-07
9.88942e-07
-1.63381e-07
5.94891e-07
-1.81506e-08
-5.48935e-07
4.3495e-07
-1.99305e-07
5.7171e-07
-6.11614e-07
5.93463e-07
-4.60874e-07
-5.58324e-07
3.59642e-07
-4.27601e-07
-6.1904e-07
-8.60105e-07
1.34017e-07
-7.49099e-07
8.32656e-07
3.31746e-08
-2.89656e-07
5.31624e-07
-5.27074e-07
4.60394e-08
-3.99397e-07
2.89005e-07
-6.37478e-07
-1.35111e-07
-4.2708e-07
4.65824e-07
2.49751e-07
-1.67999e-07
-5.4217e-07
-6.94438e-08
-9.78278e-07
1.35266e-07
4.61551e-07
4.08152e-07
-6.03526e-07
1.57266e-08
4.66912e-07
-1.0727e-07
1.754e-08
4.00802e-07
2.76719e-07
8.64398e-08
-3.63159e-07
2.94259e-07
-1.26272e-07
-1.71007e-07
6.79315e-07
-5.08308e-07
3.4064e-07
9.02248e-07
6.20147e-08
-4.47269e-07
1.36686e-07
1.72443e-07
9.51005e-07
4.25691e-07
3.50451e-07
-4.79424e-07
1.5301e-07
3.12815e-07
-8.43555e-07
-4.18377e-08
-2.70505e-07
1.02506e-07
2.60653e-07
-3.67923e-07
-2.68438e-07
-8.73841e-07
3.02864e-08
2.72043e-07
3.27098e-07
6.3492e-07
-3.93905e-07
7.17992e-07
-1.54957e-07
-6.63265e-07
9.35225e-07
-9.04938e-07
4.30535e-08
-4.82734e-07
4.94026e-07
-1.12918e-08
-7.38042e-07
-1.30174e-07
3.4007e-07
3.39199e-07
-6.41615e-07
-4.42694e-07
-1.01322e-07
-4.28278e-07
5.59441e-07
-4.45969e-07
4.53431e-07
2.85553e-07
-1.16222e-07
-1.49177e-07
-4.06448e-08
-5.97321e-08
3.54346e-07
2.05491e-07
1.08489e-09
-6.45245e-08
-4.12988e-07
3.3318e-07
7.98074e-08
-7.57583e-07
-2.79418e-07
5.9873e-07
-3.30328e-07
1.06778e-07
2.73911e-07
-9.91516e-09
-1.02348e-07
-6.94467e-07
-3.23654e-07
1.60537e-07
2.20152e-07
-1.94776e-08
-3.48446e-07
2.29113e-07
-2.87915e-07
-5.445e-07
3.37055e-07
1.63345e-07
-8.87757e-07
-1.89822e-07
-5.86472e-08
-3.32761e-07
-8.02271e-08
6.42698e-07
-2.66236e-08
-6.04958e-07
-6.75873e-07
6.17171e-07
4.61124e-07
-7.44396e-08
-1.62343e-07
-9.73886e-07
-2.3661e-07
-8.31315e-07
5.29895e-08
-8.7773e-08
1.4182e-07
1.1121e-07
-2.75819e-07
-3.92835e-07
-1.91158e-07
-1.18338e-07
-1.94373e-07
3.20302e-08
1.55061e-08
-4.69382e-07
-1.18771e-07
-3.48484e-07
1.58439e-07
1.83922e-07
5.10914e-08
-5.58727e-07
2.41817e-07
-3.76631e-07
-3.76571e-07
8.34991e-07
-4.5842e-07
-1.9252e-07
-2.99944e-07
-8.19441e-08
-4.42744e-08
-4.47928e-07
-3.77035e-07
-1.9252e-07
-3.29614e-07
4.79489e-07
-1.42434e-07
5.3373e-08
-2.61448e-07
8.85733e-07
-7.64348e-07
5.37165e-07
-1.37768e-07
-3.15623e-07
9.09314e-07
2.44953e-07
-6.0708e-07
2.47427e-07
3.59653e-07
-2.98389e-07
-2.77679e-07
-4.01589e-07
-6.76738e-07
-2.74004e-07
-9.95552e-08
1.23963e-07
1.04919e-06
5.01739e-07
1.10369e-08
4.133e-07
-3.4552e-08
5.85111e-07
-3.81983e-07
1.83743e-07
9.67422e-09
3.81983e-07
-1.83743e-07
3.38925e-07
4.133e-07
2.93277e-07
-5.67936e-07
-4.71e-08
9.12117e-07
-7.94174e-07
5.06311e-07
-4.47369e-07
-6.41054e-08
3.93788e-07
-9.24943e-08
9.32837e-08
-1.67675e-07
-4.44652e-07
3.19524e-09
-4.47369e-07
1.67558e-07
-1.52835e-07
-2.30379e-07
1.30054e-08
4.91226e-07
-1.78563e-07
-6.90672e-09
-9.32837e-08
-5.48768e-08
1.67675e-07
-1.95146e-08
4.44652e-07
2.23053e-08
-4.91226e-07
2.42694e-08
1.78563e-07
-1.67558e-07
3.93788e-07
-2.30379e-07
6.24275e-08
-4.06091e-07
-7.79141e-07
-5.86913e-07
8.43519e-07
-1.17431e-07
3.62384e-07
1.2091e-07
2.16131e-07
7.17817e-09
7.95093e-07
-1.69201e-07
4.24469e-08
-7.59551e-07
2.16131e-07
5.36912e-07
-4.40181e-07
-6.06558e-07
6.0415e-07
5.04597e-07
2.21671e-07
-4.29767e-09
-2.21671e-07
-3.03652e-07
3.19137e-07
-1.54858e-08
-7.45211e-07
2.76627e-07
2.92625e-07
-4.48814e-07
5.78718e-07
2.57488e-07
-9.77112e-07
-1.69647e-08
6.87293e-08
7.06992e-09
-2.20037e-07
3.88394e-07
5.59967e-08
-3.33458e-07
4.99097e-07
-5.77333e-07
-4.43939e-07
4.43939e-07
-5.14194e-07
-3.45003e-07
-3.92771e-07
3.88394e-07
3.66128e-07
-3.18185e-07
4.2057e-07
-2.5304e-07
-5.16059e-07
3.30239e-07
-5.60061e-07
7.70839e-07
-5.83416e-07
1.41689e-07
-1.41689e-07
5.18879e-08
-3.478e-07
-1.39917e-07
1.39917e-07
2.04447e-07
-2.04447e-07
-3.91185e-07
1.90832e-09
-3.94719e-08
3.59386e-07
-1.51094e-08
-3.44277e-07
3.97556e-07
-3.97556e-07
1.81629e-07
2.6055e-07
5.28796e-07
1.59656e-07
-5.98317e-07
-1.28625e-07
1.67935e-08
-1.48139e-07
-3.65316e-07
-6.1751e-07
1.75623e-07
6.5878e-09
-2.61447e-07
-9.09564e-08
1.83682e-07
-1.07816e-07
2.06748e-09
1.81615e-07
-8.32366e-07
-5.53905e-08
-2.32987e-07
-2.39248e-07
-7.18552e-07
1.31639e-07
-1.91158e-07
-2.5649e-07
1.86639e-07
9.52873e-08
-2.23893e-07
-1.69694e-07
1.69694e-07
1.70603e-08
3.49624e-07
-7.56356e-07
-1.71149e-07
1.20532e-07
-1.20532e-07
-8.00832e-07
3.66456e-07
-7.87e-08
-1.11122e-07
-5.1059e-07
2.32082e-07
3.13403e-07
-5.45485e-07
4.9741e-08
3.94742e-08
-8.92152e-08
-1.38084e-07
2.54144e-08
2.51875e-07
-3.30575e-07
4.13989e-07
-1.04942e-07
1.04942e-07
1.91029e-08
5.18874e-07
3.79665e-08
4.38769e-07
-4.27732e-07
2.96558e-07
-5.61876e-07
3.68831e-08
6.88439e-08
7.01235e-07
-4.69153e-07
7.16119e-07
3.43983e-07
5.5546e-08
1.68976e-08
-2.90902e-07
9.93303e-08
1.01967e-08
-4.80563e-07
8.77278e-08
-1.75623e-07
3.76286e-07
-4.47944e-08
4.53612e-07
6.69568e-08
3.09329e-07
5.82655e-08
3.95347e-07
3.42818e-07
5.17097e-07
3.02243e-07
4.72624e-07
1.75981e-07
3.09622e-08
-4.56591e-07
3.98326e-07
2.84042e-07
9.96707e-08
2.34577e-07
1.59532e-09
8.42353e-08
3.35396e-07
-3.19669e-07
4.09775e-07
-1.43205e-08
-7.1996e-09
-9.59977e-08
3.1991e-07
2.36213e-07
-2.74164e-07
4.31983e-07
4.93454e-08
-3.41147e-07
1.89141e-08
6.84705e-07
-5.53066e-07
7.0701e-07
-5.16253e-07
2.57035e-07
4.42841e-07
-2.83593e-07
-6.8897e-07
5.46889e-08
-2.62191e-09
1.53626e-07
4.63828e-08
-1.00926e-07
3.05031e-07
6.39039e-08
-1.54243e-07
-3.04555e-07
3.92283e-07
3.31418e-08
-3.92122e-08
)
;

boundaryField
{
    back
    {
        type            empty;
        value           nonuniform List<scalar> 0();
    }
    front
    {
        type            empty;
        value           nonuniform List<scalar> 0();
    }
    top
    {
        type            calculated;
        value           nonuniform List<scalar> 10(-6.79269e-07 -7.38984e-07 -5.59837e-07 -3.80689e-07 -3.80689e-07 -5.59837e-07 -6.79269e-07 -1.41825e-07 -1.41825e-07 -7.38984e-07);
    }
    outer_arc
    {
        type            calculated;
        value           uniform 0;
    }
    bottom
    {
        type            calculated;
        value           nonuniform List<scalar> 10(8.68216e-07 5.29601e-07 2.65399e-07 1.00377e-07 6.34396e-08 1.037e-06 1.12263e-07 1.01812e-06 2.43918e-07 7.62872e-07);
    }
    inner_arc
    {
        type            calculated;
        value           uniform 0;
    }
}


// ************************************************************************* //
