/*--------------------------------*- C++ -*----------------------------------*\
  =========                 |
  \\      /  F ield         | OpenFOAM: The Open Source CFD Toolbox
   \\    /   O peration     | Website:  https://openfoam.org
    \\  /    A nd           | Version:  9
     \\/     M anipulation  |
\*---------------------------------------------------------------------------*/
FoamFile
{
    format      ascii;
    class       surfaceScalarField;
    location    "2";
    object      phi;
}
// * * * * * * * * * * * * * * * * * * * * * * * * * * * * * * * * * * * * * //

dimensions      [0 3 -1 0 0 0 0];

internalField   nonuniform List<scalar> 
2377
(
-8.0226e-08
7.91306e-08
1.09539e-09
-3.74267e-08
3.92665e-08
-1.83973e-09
1.50599e-07
-1.2055e-07
-3.00489e-08
1.0142e-07
8.19046e-08
-1.83324e-07
9.25352e-08
7.42562e-08
-1.66791e-07
-1.54741e-07
6.31616e-08
9.15795e-08
5.24865e-08
-3.82595e-08
-1.4227e-08
-1.03738e-07
2.03188e-07
-9.94496e-08
-4.37266e-08
8.25092e-08
-3.87826e-08
-2.7237e-08
-1.23057e-07
1.50294e-07
1.28525e-07
-1.55762e-07
7.33456e-08
3.19046e-09
-7.65361e-08
5.06513e-08
-8.20972e-08
3.1446e-08
4.16284e-08
-1.48641e-07
1.07013e-07
-1.16063e-08
8.4952e-08
-7.98543e-08
-7.48868e-08
-1.23121e-07
7.77451e-10
1.22344e-07
1.84128e-07
-9.15928e-08
2.22188e-07
-2.27516e-07
5.32764e-09
1.4689e-07
-2.39206e-07
9.23162e-08
-1.08184e-09
5.35683e-08
1.40601e-07
1.10361e-07
-2.50961e-07
-2.21961e-07
1.07254e-07
1.14708e-07
-7.87965e-08
-1.42945e-09
4.03888e-08
6.16269e-08
-1.02016e-07
-6.35816e-10
7.97664e-08
-1.07702e-07
-1.54193e-08
6.35548e-08
-2.19264e-08
4.50607e-08
-3.98591e-08
-5.20154e-09
-6.61386e-08
1.09252e-07
-4.31137e-08
2.99561e-08
-2.65187e-08
-3.43741e-09
1.32091e-07
-3.93727e-08
-9.2718e-08
-8.86866e-08
2.2548e-08
2.43806e-08
1.0771e-07
9.93451e-08
-6.70998e-08
-3.22452e-08
-6.96625e-08
2.59359e-08
5.25535e-08
-1.90316e-08
-3.35219e-08
-4.34323e-08
6.00553e-09
1.84318e-07
3.78703e-08
-7.07222e-08
-1.36119e-07
2.06841e-07
1.62667e-08
2.4122e-08
-8.00074e-08
1.21085e-09
4.40011e-08
2.77764e-08
3.04489e-08
8.81752e-09
-7.03407e-08
1.71761e-07
1.10265e-07
-1.62809e-07
5.25434e-08
1.99464e-08
3.26071e-08
-1.12381e-07
1.84096e-07
-7.17147e-08
6.92566e-08
3.00885e-08
1.55406e-07
7.64789e-08
-2.31885e-07
-1.54089e-07
4.1708e-08
9.47221e-08
5.58766e-08
7.97502e-10
-4.36308e-08
4.28333e-08
7.7702e-08
-1.8144e-07
-1.99599e-08
-1.79551e-07
1.99511e-07
-1.65607e-07
6.83214e-08
9.72853e-08
1.60875e-07
-1.80834e-07
-9.36019e-08
-7.20048e-08
-1.09324e-07
1.62188e-09
1.65537e-07
-1.52835e-07
-1.27021e-08
-2.6794e-09
8.51886e-08
-9.63831e-08
9.71642e-08
-7.81107e-10
-1.0175e-09
-6.56461e-08
6.66636e-08
1.22759e-07
8.04286e-08
1.88409e-07
7.82831e-08
-2.66693e-07
7.77057e-08
5.93826e-08
-1.37088e-07
-2.72887e-08
1.74179e-07
1.69828e-07
-1.44218e-08
-9.4413e-09
5.34424e-08
1.70698e-07
-4.99886e-08
-1.20709e-07
3.32471e-08
1.18135e-08
-7.17109e-11
-1.21186e-07
-1.05812e-08
1.21673e-07
-1.11092e-07
1.41105e-07
-1.42122e-07
5.96981e-08
1.11e-07
-9.92022e-08
-3.09338e-07
3.09338e-07
-1.18855e-07
2.26109e-07
7.71383e-09
1.36113e-07
-1.43827e-07
-1.05047e-07
1.98596e-07
-9.3549e-08
-1.04329e-07
2.44929e-07
-9.03613e-08
1.72266e-07
3.70275e-09
4.69485e-08
3.0628e-07
-1.9592e-07
1.67697e-07
3.17041e-08
-1.99401e-07
-3.57794e-08
-4.63178e-08
7.39186e-08
1.74566e-08
1.24995e-08
-1.89577e-07
1.20897e-07
-1.13183e-07
1.19887e-07
-1.30468e-07
-3.22706e-07
1.33677e-08
-7.83484e-08
2.02931e-08
5.80553e-08
1.15548e-07
-1.60795e-07
1.68518e-07
-7.7231e-09
-7.3917e-08
7.47145e-08
-1.74613e-07
-1.30716e-07
3.4126e-08
-1.5174e-07
1.17614e-07
1.87967e-07
1.24771e-07
5.93241e-08
1.43823e-07
-1.3449e-07
-9.33271e-09
-2.57298e-07
5.9215e-08
1.98083e-07
-5.09895e-08
2.44708e-08
-1.13857e-09
-1.47665e-07
1.48804e-07
2.14244e-07
-8.94729e-08
-8.74886e-08
1.667e-07
-7.92117e-08
-3.30602e-07
2.03024e-07
1.27578e-07
-1.04717e-07
1.72285e-08
6.81685e-08
-7.15313e-08
3.36284e-09
-9.89757e-08
1.73232e-07
7.29307e-08
-4.76219e-09
-1.03111e-07
-2.04032e-07
2.45035e-07
-4.10035e-08
1.54013e-07
2.15914e-07
-1.47397e-07
-6.85168e-08
-2.41748e-07
6.7135e-08
-2.21987e-07
9.12715e-08
1.3606e-07
-7.88894e-08
-1.90063e-08
9.78957e-08
-8.64108e-08
-2.03873e-09
-1.21843e-08
1.4223e-08
6.55845e-08
-3.2072e-08
-3.35125e-08
-8.82051e-08
2.24191e-07
-1.35986e-07
-1.22458e-07
-9.95291e-08
-9.22625e-08
-4.12059e-09
-1.05746e-07
-1.36002e-07
1.57243e-07
-1.58197e-07
9.53472e-10
6.66042e-08
-6.66042e-08
-9.84546e-08
1.95652e-08
1.79568e-08
1.25866e-07
-3.68085e-08
-3.02913e-08
1.32384e-07
3.74443e-08
1.34975e-07
-2.18753e-08
-5.64731e-08
1.90447e-08
-9.60216e-08
7.69769e-08
1.58844e-07
-1.60037e-09
2.84102e-08
7.81326e-08
-6.94744e-08
3.42067e-07
-2.72593e-07
6.29051e-08
7.6628e-08
3.13837e-09
-7.24031e-08
7.16243e-08
7.78759e-10
-1.39923e-07
5.17178e-08
-2.18158e-08
9.10724e-08
1.58414e-08
-1.63507e-07
-6.23873e-08
2.25282e-08
-7.53932e-09
-1.64327e-07
3.53155e-09
-6.79079e-08
2.51289e-08
4.2779e-08
-5.18409e-08
-2.78761e-07
-6.15737e-08
-9.95764e-09
-7.60722e-08
3.66914e-09
-1.18091e-08
-6.26209e-08
1.17935e-07
-5.53139e-08
9.827e-08
-2.00194e-09
-9.62681e-08
-1.39826e-07
-9.93801e-08
-2.25301e-08
4.28231e-08
-1.82874e-07
3.54771e-08
1.39359e-07
4.47688e-08
-3.86226e-08
-4.80963e-09
6.02204e-08
2.94119e-09
4.04852e-10
1.55544e-08
-1.59593e-08
-1.34878e-07
-2.22869e-08
-1.61347e-08
3.84216e-08
-9.12408e-08
-1.66058e-07
1.23871e-07
-1.93345e-07
-1.09244e-07
4.66233e-08
-1.6019e-07
2.06324e-07
-4.6134e-08
-2.19177e-08
-5.80897e-08
-9.65383e-08
-1.27059e-08
-7.94047e-08
1.7831e-08
5.78497e-08
1.66341e-07
-1.06669e-07
2.47017e-07
-1.40348e-07
-7.10234e-09
7.59972e-08
-6.88948e-08
-9.81291e-08
2.65826e-07
-8.17166e-08
-6.97e-09
1.56815e-08
-1.38739e-07
1.30049e-07
-1.41133e-07
1.10832e-08
-3.36638e-09
-7.79321e-08
8.12985e-08
1.89337e-07
-9.29667e-08
-9.63703e-08
1.09151e-07
-2.02266e-08
-8.89247e-08
-1.33509e-08
1.434e-07
6.00756e-09
1.92959e-07
-8.64074e-09
-1.00922e-08
5.36199e-08
-5.04818e-08
-3.1382e-09
5.75987e-08
-5.75987e-08
-1.27962e-07
-1.17899e-08
1.39752e-07
-1.21843e-08
3.76425e-08
-3.96444e-08
3.05842e-09
-4.1681e-08
-1.1431e-07
1.27827e-07
-1.35173e-08
1.26926e-07
-1.42194e-07
1.52682e-08
-6.79079e-08
-7.06177e-08
8.96624e-08
8.72337e-08
-1.0999e-07
9.12156e-08
3.89912e-08
-1.30207e-07
-1.42072e-08
-1.3117e-08
1.3117e-08
-1.06808e-07
1.02699e-08
4.11814e-08
-1.773e-07
4.61649e-09
-2.69034e-08
2.91625e-08
3.29417e-08
-6.21042e-08
1.60323e-07
-1.00291e-08
6.24096e-08
1.19855e-08
-8.68723e-08
-5.39524e-08
2.17072e-08
3.61855e-08
-4.32879e-08
-1.27661e-07
-1.03092e-08
8.18537e-08
-2.04312e-07
3.76425e-08
8.90999e-09
-1.30706e-07
-1.37511e-07
2.68216e-07
1.3325e-07
-2.38996e-07
-1.39877e-07
-4.29978e-08
-3.92502e-09
-2.00107e-07
-7.04401e-08
-2.33609e-07
7.34188e-08
-1.56838e-07
1.40327e-07
1.65115e-08
-3.35219e-08
9.86201e-09
1.54483e-07
-3.92731e-08
-1.46793e-08
4.64292e-08
-4.60244e-08
-2.04799e-07
2.60399e-08
-6.28484e-08
-1.4024e-08
5.48915e-08
2.17365e-08
3.23614e-08
4.81651e-08
6.72645e-09
-1.8822e-09
-5.71591e-08
5.90413e-08
5.08157e-08
2.2115e-08
1.47981e-07
4.49778e-08
-9.05683e-08
8.86861e-08
-3.84796e-08
8.92953e-08
-1.13157e-09
-9.77368e-09
2.28907e-08
-1.44382e-07
1.09386e-08
1.33444e-07
1.64541e-07
-3.60161e-08
1.0237e-07
-1.1416e-07
-2.79072e-08
-6.05242e-08
-3.9183e-08
1.77144e-08
2.14686e-08
1.28255e-07
-9.14772e-08
-1.86927e-08
2.56482e-08
-6.9555e-09
5.36199e-08
2.58447e-09
1.48721e-08
5.15689e-09
9.34504e-08
1.2364e-07
8.96049e-09
-1.326e-07
-1.4024e-08
-9.4977e-08
-1.18312e-08
6.26013e-08
1.17869e-08
-7.43882e-08
-2.59806e-07
2.01134e-07
5.86716e-08
1.51346e-07
-5.15048e-08
-9.98408e-08
-6.84855e-09
6.94499e-08
4.21189e-08
-5.53473e-08
1.32284e-08
-2.59226e-08
3.47401e-08
1.07679e-07
4.3667e-08
-4.72553e-08
-2.12551e-07
-4.0103e-08
5.19165e-08
-9.86471e-08
-2.25199e-08
1.21167e-07
-1.86927e-08
-1.34629e-07
1.14402e-07
2.45298e-08
8.37272e-08
-1.08257e-07
5.13952e-08
-6.11689e-08
-1.4781e-07
1.359e-08
1.3422e-07
-6.71465e-09
1.30354e-07
-1.32332e-08
-7.71951e-08
3.70921e-08
-1.16416e-07
-2.44877e-09
1.18865e-07
-2.13376e-07
2.37906e-07
-1.55431e-07
1.03926e-07
-1.30077e-07
-1.21167e-08
-1.02761e-08
-1.03068e-07
1.13344e-07
-8.26257e-08
9.77616e-08
-1.51358e-08
5.3926e-08
-3.06041e-10
1.18495e-07
1.33457e-07
-1.40324e-07
6.8666e-09
-4.36308e-08
6.30729e-08
-5.1286e-08
-3.85068e-10
-1.9393e-08
1.97781e-08
3.7073e-08
-8.66283e-09
1.17595e-07
3.30235e-09
-1.35116e-07
1.38171e-07
-3.05461e-09
5.67259e-08
-5.71109e-08
-1.05698e-07
1.29797e-07
-2.40983e-08
1.14697e-07
-9.90154e-08
4.21189e-08
-1.00439e-07
-5.49921e-08
-2.38128e-07
9.99945e-08
1.38134e-07
1.27369e-07
-7.74664e-09
-1.19623e-07
6.20925e-08
-2.00025e-08
-4.209e-08
-1.32537e-07
-1.52726e-08
-1.37158e-07
1.32407e-07
4.75072e-09
1.17093e-07
-5.78824e-08
7.23382e-10
-1.30271e-07
-2.29427e-08
1.53214e-07
2.08525e-09
1.51775e-07
-1.53861e-07
-2.60631e-07
-1.23568e-07
3.18635e-09
3.67275e-09
1.1823e-07
-1.21903e-07
1.17886e-09
-9.8081e-08
-5.66079e-10
6.37164e-08
-8.23063e-09
-5.54857e-08
8.37272e-08
-1.54869e-07
1.54869e-07
3.26033e-08
4.46973e-09
-7.9171e-09
-1.4535e-07
1.2813e-08
1.51454e-07
-1.51086e-07
-3.67624e-10
1.42954e-07
-1.33993e-07
-5.98288e-10
-5.68499e-08
5.74482e-08
-1.25431e-07
4.28056e-08
-1.31837e-07
-1.3513e-08
-1.9393e-08
-2.57056e-07
-2.35835e-08
2.80639e-07
-3.09917e-07
5.28615e-08
1.38482e-07
-1.61425e-07
1.38701e-07
-2.18826e-10
5.53473e-08
-5.45699e-08
-9.16912e-08
8.92424e-08
2.56482e-08
3.30025e-08
-1.33299e-07
-6.96625e-08
1.77341e-07
-3.09366e-09
-1.51775e-07
-1.48572e-07
1.95792e-08
-2.01775e-08
-5.90316e-08
2.18166e-09
3.35537e-09
1.48099e-07
1.93345e-07
1.15993e-07
-1.32925e-07
1.00614e-08
1.22863e-07
-9.368e-09
5.8897e-08
-4.9529e-08
-1.32031e-07
1.29473e-07
2.55802e-09
1.62665e-08
-1.88474e-08
2.58083e-09
-1.42113e-07
1.85453e-08
-2.16184e-07
2.1309e-07
1.69205e-07
-1.60077e-08
-1.53198e-07
-1.76407e-07
1.59713e-07
1.66936e-08
1.64368e-07
-2.08256e-07
4.38881e-08
8.62072e-08
-9.55752e-08
6.37164e-08
-4.49671e-08
4.49671e-08
-2.45572e-08
-1.2678e-07
1.51337e-07
-1.20388e-08
-1.48699e-07
-5.95575e-08
1.23567e-07
2.96468e-08
1.45159e-07
-1.27823e-07
1.03265e-07
3.18907e-08
-1.55894e-08
1.37263e-07
8.00407e-08
-1.1582e-07
-2.17142e-07
6.84433e-08
1.5657e-07
1.15182e-08
1.42495e-07
-1.44302e-07
1.24646e-08
1.17682e-07
-9.33016e-08
-1.15658e-09
2.84699e-08
1.08257e-07
-1.36727e-07
-1.28769e-08
-1.33939e-07
1.46816e-07
-1.40262e-07
-1.34634e-10
-2.32161e-07
-6.23493e-10
7.87561e-08
-1.33303e-07
9.10792e-08
3.87175e-08
1.74521e-07
-1.04077e-08
-1.64113e-07
-4.00715e-08
2.68382e-08
1.69038e-07
-1.66953e-07
7.73513e-08
-9.27041e-08
1.53529e-08
-5.20579e-08
1.32099e-07
1.00891e-07
-1.16481e-07
-2.45122e-08
-1.10117e-07
1.09285e-07
-1.61343e-07
4.58762e-09
7.4902e-08
-7.94896e-08
-8.95095e-08
-7.57005e-09
9.17305e-08
1.15349e-08
2.09752e-08
7.06744e-08
-9.16496e-08
-8.79802e-08
-1.29162e-07
-2.03121e-08
2.01775e-08
-1.82431e-08
-2.67239e-08
-2.64028e-07
5.14779e-08
-6.2309e-08
6.68966e-08
-2.58556e-08
7.00822e-09
1.88474e-08
-2.03121e-08
3.36282e-09
1.03261e-07
-1.06624e-07
1.82431e-08
5.58731e-09
-2.38304e-08
-2.58556e-08
-1.39027e-07
4.63087e-08
-1.36153e-07
1.36087e-07
6.6362e-11
2.44943e-08
1.44711e-07
-6.64736e-10
-2.13686e-08
2.20334e-08
-3.63662e-09
-1.87233e-07
1.63649e-07
1.12054e-07
1.39106e-08
-1.65162e-07
1.51251e-07
-3.84688e-08
2.44241e-07
-1.05138e-07
-1.39103e-07
1.61711e-07
-8.50198e-09
-1.53209e-07
-1.44703e-07
1.07632e-08
1.23871e-07
1.44263e-07
-1.44263e-07
-1.66567e-07
3.97865e-08
3.61209e-08
-5.23398e-08
1.62189e-08
2.52359e-09
1.16341e-07
-1.62831e-07
2.29541e-08
1.48781e-07
-1.95792e-08
1.86159e-10
-1.78021e-08
-1.40158e-07
1.01689e-07
1.60283e-08
1.58492e-07
3.31391e-08
-1.14788e-07
8.16485e-08
1.16708e-09
5.62811e-08
1.38611e-07
-1.41519e-07
2.4599e-07
-1.04472e-07
1.94024e-07
-1.65376e-07
-2.86481e-08
-9.7553e-08
6.44714e-10
9.69083e-08
-1.22959e-07
-3.90451e-08
6.09566e-08
-2.19115e-08
-2.88786e-09
-5.04118e-08
5.742e-08
1.51195e-07
-2.39136e-09
1.83676e-07
9.17305e-08
5.45699e-08
-5.2948e-08
-9.64907e-08
-5.54857e-08
4.91477e-09
-1.9594e-08
1.03138e-07
-9.81646e-08
-4.97319e-09
1.50585e-07
-1.60992e-07
5.04818e-08
-4.71189e-08
3.90451e-08
-3.08669e-08
-8.17815e-09
-1.58276e-07
1.74058e-07
-1.57824e-08
1.35431e-07
-1.37403e-07
1.97176e-09
1.74875e-07
-1.58847e-07
2.28244e-07
-1.1064e-07
-1.17603e-07
-2.08018e-07
2.08018e-07
9.04095e-08
-4.52969e-08
-2.18732e-07
1.65995e-08
-2.76164e-07
1.34646e-07
-1.06373e-07
2.10472e-07
-1.04099e-07
1.62665e-08
1.05644e-08
1.51147e-07
1.00312e-08
9.31066e-08
2.7198e-08
-2.57139e-08
-1.48408e-09
-1.04798e-07
1.43515e-07
1.0768e-07
-1.29555e-07
-1.83327e-07
1.13664e-07
2.00409e-08
4.85581e-08
-6.8599e-08
-2.00409e-08
9.51376e-08
-7.50968e-08
2.50536e-07
3.01033e-08
1.51262e-07
-1.60639e-07
1.52137e-07
-2.90016e-08
2.13686e-08
7.63301e-09
-3.95555e-08
-1.23275e-07
-2.15119e-08
2.44202e-08
-2.90832e-09
1.40263e-07
-7.33088e-09
-1.53308e-07
-1.50579e-08
-1.33584e-07
1.60221e-07
1.38368e-08
1.75707e-07
-1.54858e-08
-2.30213e-07
1.19573e-07
1.74465e-07
-2.19929e-09
5.17718e-08
1.58794e-07
-6.10326e-08
2.77458e-07
-2.69222e-08
1.21448e-07
1.04661e-07
-1.22894e-07
1.46551e-07
-1.53882e-07
-7.68918e-08
9.6007e-08
-1.91152e-08
-9.80063e-09
1.66072e-07
-1.56271e-07
-2.90016e-08
7.54551e-09
-1.41539e-07
-1.6661e-09
-9.58869e-08
1.29497e-07
-2.15908e-07
1.17687e-07
5.96545e-08
-5.98748e-08
5.23398e-08
7.53497e-09
-1.59823e-07
1.74262e-07
-1.44394e-08
-1.08765e-07
2.13262e-08
-5.69178e-08
4.2496e-08
1.81986e-07
-2.15138e-07
1.97781e-08
-7.94006e-08
-1.03235e-08
-4.51622e-08
5.98748e-08
-6.09566e-08
-1.57838e-07
-1.58846e-08
1.73722e-07
1.68684e-07
-1.80996e-08
5.21116e-08
-3.95061e-08
-1.26055e-08
-6.64736e-10
1.74708e-07
-1.62161e-08
-1.19994e-07
-2.02676e-08
9.28686e-08
1.57194e-07
-1.59586e-07
-1.73845e-07
4.64616e-08
-1.38583e-08
-2.47226e-07
8.3398e-08
1.63828e-07
3.61209e-08
-1.56702e-07
5.61591e-09
-4.42019e-08
2.05015e-08
-2.7198e-08
3.08669e-08
-3.66899e-09
1.54411e-07
-1.29917e-07
2.2617e-07
-3.0438e-07
7.82108e-08
-1.56787e-08
-1.55198e-07
1.70876e-07
-4.49262e-08
4.71189e-08
-2.19271e-09
-6.20862e-08
2.6322e-07
-1.16e-07
2.40153e-07
-1.24153e-07
1.31624e-07
-9.99201e-08
1.72434e-07
-1.58523e-07
6.48249e-08
-4.85581e-08
1.42465e-07
-7.18907e-08
-7.05741e-08
1.0104e-09
5.80309e-08
1.54353e-07
-9.51376e-08
-7.71951e-08
-1.83499e-07
-2.28907e-08
2.57139e-08
-2.82316e-09
-1.36727e-07
-1.53861e-07
-1.293e-07
1.38219e-07
-3.0539e-08
1.16061e-08
1.38698e-07
-1.50304e-07
-2.25418e-08
-1.87233e-07
5.28285e-08
-5.28285e-08
8.83515e-08
-8.973e-08
1.37858e-09
-1.4645e-07
1.46082e-07
1.22545e-07
-2.53251e-07
6.48249e-08
2.45271e-07
-1.52955e-07
1.54353e-07
-1.13157e-09
1.09276e-07
2.89425e-08
-1.27999e-09
1.17621e-07
8.44666e-10
1.33097e-07
-1.33941e-07
2.59212e-07
-1.41886e-07
-1.17326e-07
1.59391e-07
-1.2703e-07
-2.06533e-07
7.73711e-08
-9.10557e-08
1.82786e-07
8.87652e-08
-5.69178e-08
-1.90624e-07
3.20121e-07
1.51809e-07
-9.5554e-08
-5.6255e-08
-2.63958e-07
1.47958e-07
7.52344e-08
-1.74684e-07
8.47801e-08
1.77485e-07
-6.82094e-08
1.58583e-07
-1.00431e-07
1.63236e-07
-1.85245e-08
2.09886e-07
-1.48624e-08
-1.95023e-07
-1.45605e-07
-4.49262e-08
2.59141e-07
-1.94071e-07
-6.50705e-08
-2.15119e-08
-2.05015e-08
-9.36007e-08
1.68835e-07
-2.01955e-09
1.74758e-07
7.12324e-08
-1.52133e-07
-1.30284e-08
-1.05888e-07
2.41815e-07
-1.55404e-07
-8.64117e-08
1.32868e-07
3.61981e-09
-1.36488e-07
-2.58545e-07
3.98129e-08
1.64665e-07
9.68168e-08
-2.32172e-07
5.42902e-08
1.77882e-07
1.58926e-07
1.77143e-08
1.45521e-07
-1.07351e-09
1.71033e-07
7.82589e-09
6.88775e-08
-7.67034e-08
-1.83216e-07
-4.89561e-08
6.54684e-10
1.34776e-07
-1.30068e-07
-1.97686e-08
1.49837e-07
1.62857e-07
1.42354e-07
2.37069e-07
-1.82778e-07
2.55564e-07
-2.93947e-08
-1.68508e-07
2.96086e-07
1.00819e-07
1.39335e-07
3.81361e-08
2.29729e-08
1.31438e-07
1.5017e-07
2.10734e-08
1.11411e-07
-1.32484e-07
8.67571e-09
1.21129e-07
-1.29805e-07
3.737e-08
-3.65912e-08
3.737e-08
-1.30318e-07
1.47374e-07
2.91478e-08
-2.59574e-08
2.91478e-08
-1.54125e-07
2.174e-07
-4.26418e-08
1.5392e-07
1.6956e-08
-2.97052e-08
3.75311e-08
2.00262e-08
-1.50094e-07
8.91295e-08
1.87344e-07
2.97052e-08
-5.57331e-10
-5.95182e-09
-1.4793e-07
1.05595e-07
-1.60008e-07
-4.56532e-09
1.24592e-08
1.54992e-07
-1.67451e-07
1.57994e-07
1.35826e-07
-1.41778e-07
-5.2948e-08
-5.49778e-09
1.26627e-07
-1.8056e-07
1.95058e-07
1.37375e-07
-2.67264e-08
2.98648e-08
3.65912e-08
-2.98648e-08
-2.67264e-08
2.5631e-08
-2.44202e-08
1.52468e-07
-2.5631e-08
4.2779e-08
1.88336e-08
-1.88336e-08
-2.59574e-08
-1.43319e-08
1.43319e-08
3.75311e-08
1.69024e-07
-1.51034e-08
5.22789e-08
1.31397e-07
-6.61594e-10
1.08636e-07
1.36636e-07
-6.20971e-08
5.17937e-09
1.06257e-07
6.02816e-08
-1.19653e-07
1.39679e-07
9.98519e-08
2.2027e-07
1.49152e-07
9.99293e-08
1.63649e-07
1.36489e-07
2.12177e-09
2.37066e-07
-1.68749e-07
-6.83161e-08
-1.74009e-07
-9.75811e-08
9.20833e-08
-5.66368e-09
1.08034e-07
1.60713e-07
-1.68365e-08
-1.43876e-07
2.40702e-07
1.1178e-09
1.64954e-07
-1.63258e-09
-9.59485e-08
1.36818e-07
7.88098e-09
-1.44699e-07
1.62477e-07
5.3926e-08
-1.56941e-07
1.694e-07
1.40944e-07
-2.33148e-07
1.30424e-07
-1.14998e-07
-4.62482e-09
-6.41511e-08
1.73436e-07
9.13621e-10
1.16707e-07
-1.31073e-07
1.14201e-08
1.49276e-07
-1.60086e-07
1.08103e-08
-5.8282e-08
1.13293e-07
-5.5011e-08
-4.95978e-09
1.47903e-07
-1.44717e-07
1.52187e-07
-1.13414e-07
-1.76589e-08
-1.37157e-07
1.09765e-07
-1.11195e-07
-1.79895e-08
-9.15572e-08
1.09547e-07
9.67488e-08
-8.31275e-08
-1.36213e-08
1.57157e-07
-1.17017e-07
-1.70481e-08
1.57993e-07
2.39612e-08
-1.3689e-07
1.36228e-07
-1.31494e-07
-1.86008e-08
1.6644e-07
-1.42524e-08
-9.97054e-08
9.22718e-09
1.5075e-07
1.21072e-08
1.41292e-07
1.28493e-08
-1.66059e-07
-1.72044e-07
-6.66167e-09
-1.38038e-07
1.19965e-07
1.64219e-07
-9.43248e-08
1.15398e-07
9.33636e-09
1.54719e-07
8.95226e-08
1.34607e-08
-1.70102e-07
1.56641e-07
7.59159e-08
-7.75484e-08
-1.33539e-07
7.88897e-08
7.99044e-08
-6.20971e-08
5.38499e-08
-1.53619e-07
1.04689e-07
-1.26054e-08
-1.1618e-07
2.18547e-08
-1.26707e-07
1.21748e-07
1.49392e-07
-2.0191e-07
1.71371e-07
-9.26176e-08
1.14797e-07
-2.21795e-08
2.39243e-07
-1.38424e-07
1.88005e-07
-1.27773e-07
2.46625e-08
1.10569e-07
-1.10569e-07
4.2496e-08
1.62241e-07
-5.78381e-08
-6.95656e-08
6.95656e-08
-3.49567e-08
3.49567e-08
-6.74225e-09
-4.91468e-08
4.91468e-08
-8.66744e-08
8.66744e-08
-2.47929e-07
1.79719e-07
3.43021e-08
-3.43021e-08
-1.5142e-08
-1.70661e-07
-4.5247e-08
1.58312e-07
9.84108e-08
-1.66201e-09
7.19912e-08
-7.19912e-08
-1.17721e-08
1.17721e-08
-1.49873e-07
-1.0433e-07
-6.33505e-08
6.33505e-08
8.13993e-09
-8.13993e-09
2.3635e-07
-8.83919e-08
-1.23766e-08
-1.15284e-07
2.27806e-08
9.79465e-08
1.4686e-07
1.53806e-08
-7.15052e-08
7.15052e-08
2.33401e-08
-2.33401e-08
-1.17129e-07
1.07099e-07
2.21517e-08
-2.21517e-08
1.09112e-08
-4.7146e-08
2.02265e-07
-3.84362e-08
-4.51622e-08
5.58731e-09
1.3187e-07
1.13165e-07
-2.35912e-07
8.0508e-08
6.94126e-09
-1.0289e-07
1.35753e-07
-7.45656e-09
-1.28297e-07
7.94108e-08
-7.02648e-08
-9.14594e-09
-7.88602e-11
-7.39416e-08
-1.00742e-07
5.64673e-08
-1.55147e-07
1.57425e-07
1.29934e-07
7.69077e-08
2.31739e-07
-1.67398e-07
-6.43412e-08
-1.45665e-08
-1.14462e-08
1.45439e-07
-1.33992e-07
1.30907e-07
-1.00871e-07
2.008e-07
-7.51679e-08
6.95042e-08
-1.64026e-08
1.38614e-07
-1.29309e-07
-9.30442e-09
-2.22334e-07
5.75853e-09
1.45991e-07
-1.51749e-07
-2.43171e-09
-5.63034e-08
1.44694e-07
1.27304e-08
-2.28441e-07
1.16132e-07
-1.15478e-07
-1.45366e-07
-1.49976e-07
1.07334e-07
-1.14293e-07
7.04933e-08
9.30729e-08
-9.74363e-08
1.53063e-07
-8.36884e-09
-5.96866e-08
2.35731e-07
-8.66826e-08
-2.20073e-08
1.09926e-07
-8.79182e-08
-1.40243e-07
9.27899e-08
-1.00207e-07
1.05377e-07
-5.16945e-09
-2.60503e-08
-9.1437e-08
1.45452e-08
8.31361e-08
-7.47321e-08
-8.40396e-09
-7.65576e-08
1.24982e-07
1.3632e-08
-1.54429e-07
8.01702e-08
8.18128e-09
1.28795e-08
1.8014e-07
1.89789e-07
-1.78426e-09
-1.61672e-07
2.70307e-07
6.70808e-08
7.64344e-08
-1.68484e-07
1.17159e-07
-2.43696e-08
7.812e-08
1.41617e-07
2.00934e-09
1.14123e-07
2.04188e-08
1.17383e-07
3.13985e-08
9.79256e-08
-1.5083e-08
1.72088e-07
1.81085e-07
-1.81387e-08
-1.62946e-07
8.28605e-08
8.07926e-08
2.35279e-07
5.42312e-09
1.9935e-07
9.86924e-09
6.97622e-08
7.0923e-08
1.22966e-09
-1.87113e-07
1.61295e-08
-1.47813e-07
1.49934e-07
-9.056e-08
8.29967e-10
1.25602e-07
1.41503e-08
1.9912e-08
-1.39312e-07
-2.22668e-09
1.47375e-07
-2.24934e-07
-8.15478e-09
1.52002e-08
-1.48507e-08
-1.1419e-07
1.29041e-07
5.37724e-08
8.70441e-08
-1.60986e-07
-1.18841e-09
9.58868e-08
-2.00358e-07
7.12164e-08
1.13873e-07
5.40887e-08
2.97751e-08
-8.38639e-08
-2.66644e-08
-8.81232e-08
1.5463e-07
-1.65644e-08
-1.50304e-07
-4.90976e-08
1.86925e-07
-8.89997e-08
-1.32888e-07
1.64779e-07
-1.40171e-07
1.34885e-07
5.2864e-09
6.17738e-08
-1.10898e-07
-1.27231e-07
2.20712e-07
1.89051e-07
-1.45163e-07
1.35471e-07
1.38071e-07
7.20812e-08
6.8604e-08
4.38182e-08
-4.50066e-08
-2.10034e-09
1.56763e-07
-1.18197e-07
2.45736e-08
1.55442e-07
-1.32658e-07
5.81254e-11
2.34594e-07
1.36869e-08
-1.81533e-07
3.12288e-08
-1.26327e-07
1.44872e-07
1.48394e-07
1.95213e-07
-1.09214e-07
-1.22238e-07
-4.00715e-08
3.44914e-09
1.20903e-07
7.20215e-10
-3.89797e-08
-1.43234e-07
3.92221e-09
-5.18841e-10
-1.28781e-07
-8.46705e-08
5.7986e-08
5.2073e-08
1.69661e-07
1.70508e-07
-1.32566e-07
-3.79419e-08
1.4223e-08
1.61761e-07
1.45335e-07
6.55825e-10
6.88779e-08
1.63107e-08
1.2451e-07
-5.56323e-08
-1.66171e-07
1.76036e-07
-2.15533e-08
-1.05776e-08
1.3148e-07
2.01861e-07
-1.31368e-07
8.99814e-08
2.71781e-08
-3.83816e-08
1.52254e-07
3.33774e-08
8.84859e-08
6.43637e-10
1.30769e-07
-9.32306e-08
-3.75387e-08
-1.18222e-07
1.13701e-07
-1.23345e-09
-1.12468e-07
-1.21604e-07
-1.4748e-08
1.67216e-07
1.46059e-07
2.03996e-09
-1.71183e-07
2.08305e-07
-8.85589e-08
1.52369e-07
5.55572e-08
1.48168e-08
-1.12668e-08
1.43693e-07
-1.30006e-07
1.15512e-07
-2.55306e-08
8.97155e-08
3.60863e-08
-4.47492e-08
-9.99754e-08
6.15937e-08
-9.92551e-08
1.35201e-07
1.35978e-07
-1.43434e-07
-2.14542e-08
1.40694e-07
6.32546e-08
-1.22616e-07
-9.7832e-09
1.20636e-07
-1.20578e-07
1.54942e-07
-9.83482e-08
2.34525e-07
-1.14952e-07
8.1386e-09
-1.45296e-07
-1.37691e-07
-3.96533e-08
1.1087e-07
2.35692e-08
1.26268e-07
-1.44116e-07
1.31834e-07
-1.79645e-09
9.40328e-08
6.8585e-09
2.73887e-08
5.49889e-08
7.71097e-08
1.30268e-07
-1.53271e-07
1.15467e-07
9.67447e-08
1.0963e-07
2.74461e-08
9.7064e-08
-1.355e-07
-1.28713e-08
9.36116e-08
-8.07403e-08
1.08752e-07
1.37241e-07
1.64848e-07
-5.85718e-09
1.33199e-07
-9.6896e-09
-1.08507e-07
1.2659e-07
1.06844e-07
-9.43443e-08
-1.54603e-07
-1.41373e-07
8.52906e-08
-1.37297e-07
3.91784e-08
-1.21307e-07
1.90869e-07
-1.90869e-07
-8.23465e-10
-1.34035e-08
1.09582e-07
9.83284e-08
1.12539e-08
-9.10177e-09
1.26195e-07
-1.37399e-07
-3.82148e-08
5.41868e-08
1.2005e-08
1.40478e-07
-6.05739e-08
9.83345e-08
1.09971e-07
-1.0206e-07
1.6102e-07
-2.08166e-07
1.0651e-07
1.29649e-07
-1.82377e-08
1.43028e-07
1.18238e-07
1.04654e-07
-5.71091e-08
-4.75449e-08
-1.26919e-07
2.48596e-08
9.41331e-08
1.14234e-08
1.08678e-07
1.49854e-07
-9.09338e-08
1.62017e-08
1.19642e-07
-9.39182e-08
-7.91472e-08
6.40113e-08
1.16057e-07
-1.16576e-07
5.56341e-08
-8.93775e-08
-1.48217e-08
1.04199e-07
-1.25773e-08
1.28115e-07
-1.14483e-07
-9.5161e-08
1.0804e-07
-1.44887e-07
3.43176e-08
-9.29667e-08
-5.61196e-08
9.27444e-08
-3.66249e-08
1.02257e-07
-1.03919e-07
-1.16317e-07
-9.30455e-08
8.69301e-10
-8.73685e-08
8.64992e-08
-1.1226e-07
1.72825e-08
-1.98694e-07
6.11834e-08
8.64348e-08
4.12166e-09
1.14723e-07
-7.01336e-09
-7.47538e-09
1.9608e-08
-7.22887e-08
1.07914e-07
-4.78179e-08
6.52286e-08
-1.76126e-07
3.61942e-07
-2.7242e-07
3.70921e-08
1.19709e-07
-1.29492e-07
9.86136e-08
-1.24144e-07
-1.32959e-07
7.68392e-08
1.36455e-07
1.69104e-08
-1.53365e-07
-9.15573e-08
-5.34094e-09
-1.38093e-07
1.1349e-07
2.37833e-08
1.743e-07
1.03911e-07
1.43194e-08
-1.46714e-07
3.56354e-08
1.11423e-07
-9.88745e-08
-1.25489e-08
2.20459e-08
2.00076e-08
1.37985e-07
-8.04179e-08
-7.36709e-08
5.5849e-08
1.17587e-07
2.17977e-07
5.22293e-08
-2.81073e-08
-8.53023e-08
1.51636e-08
1.49185e-07
-2.06964e-08
-1.03448e-07
1.46155e-08
-2.03483e-08
1.27817e-07
-1.07469e-07
-1.53208e-08
-1.39108e-07
8.36266e-08
-4.79912e-08
1.45068e-07
-1.26846e-08
-2.64983e-08
-1.3518e-07
-1.39595e-07
-2.65757e-08
-1.05559e-07
1.19878e-07
1.1905e-07
-1.39398e-07
-1.66338e-07
2.10181e-07
-6.03266e-08
4.981e-08
1.06379e-07
-1.0716e-07
1.23759e-08
-6.0998e-08
4.28333e-08
1.5193e-08
-4.63712e-08
-1.20986e-07
6.97424e-09
4.72917e-08
2.68382e-08
-4.49113e-08
-6.73483e-08
-8.89582e-08
-1.23054e-07
-1.44887e-07
7.2442e-09
-6.54494e-08
-9.67892e-08
2.0567e-08
1.42443e-07
-1.25533e-07
8.63401e-08
1.59862e-07
-8.59438e-08
-1.09563e-07
1.24205e-07
7.28722e-08
1.5765e-07
9.40584e-08
-2.46085e-08
-4.1038e-08
4.42166e-08
-4.42166e-08
-9.45664e-10
-8.51811e-10
1.61196e-08
-9.68599e-08
-3.96444e-08
4.66471e-08
-5.00135e-08
3.04518e-08
1.46275e-07
1.71774e-07
-8.03638e-08
-1.53897e-07
-1.58914e-07
-1.67732e-07
2.5814e-07
-1.53256e-07
-8.13167e-08
-4.11882e-08
4.88212e-08
-9.18919e-08
2.96714e-09
8.06582e-08
2.3541e-08
1.96652e-07
-3.56321e-08
8.20714e-08
1.13789e-08
3.64274e-08
-2.83418e-08
1.36734e-07
4.34052e-08
3.71505e-08
3.4627e-08
-6.79937e-08
2.17598e-07
-1.11742e-07
-2.07425e-08
6.68118e-08
-1.46279e-08
-9.45364e-08
1.82843e-07
9.45364e-08
2.14575e-08
1.43706e-08
-1.43706e-08
8.59989e-08
1.26585e-07
-6.05602e-08
9.80677e-08
-3.64407e-08
7.96115e-09
7.07949e-08
7.2442e-09
-1.28666e-07
8.11212e-08
-1.73559e-07
2.35333e-07
-5.18269e-08
-1.81838e-08
-9.39899e-08
-8.12049e-08
6.03297e-08
1.19947e-07
1.44097e-07
-1.47471e-07
3.64443e-09
-1.33443e-07
-5.52346e-08
-2.94536e-08
2.79695e-08
1.59126e-07
-9.16569e-08
-5.26238e-08
1.44281e-07
-1.66924e-07
9.02516e-08
-1.7357e-07
7.11982e-08
9.143e-08
8.01892e-08
-9.38105e-08
-9.0558e-08
7.14429e-08
1.63986e-08
1.63986e-08
-7.51764e-08
7.51764e-08
1.09149e-07
-3.02094e-08
-1.0158e-08
-3.20577e-09
-1.038e-07
1.75819e-07
-2.42855e-07
-1.29196e-07
-3.53372e-09
3.04e-08
1.17222e-07
-3.04e-08
-1.16148e-07
7.48647e-08
1.54891e-08
2.1757e-07
-4.4797e-09
-3.99991e-08
-1.5087e-07
8.12196e-08
1.99464e-08
-2.42615e-07
1.05272e-08
-9.98728e-09
-7.03765e-08
1.65718e-07
-1.2578e-08
2.77781e-08
2.47445e-09
5.81848e-08
9.70145e-08
-7.34735e-08
-4.80745e-08
-6.65809e-08
-1.50838e-07
9.82139e-08
-1.35503e-08
-7.63493e-08
2.59375e-08
-5.10724e-08
1.55544e-08
5.59458e-08
-1.98871e-07
1.42925e-07
4.62405e-08
4.74327e-08
1.56977e-08
3.91348e-09
7.08175e-09
1.11051e-07
-1.51132e-07
-8.69978e-08
1.64237e-08
-1.92173e-07
-1.62822e-08
2.08455e-07
-2.35919e-07
1.59193e-08
-6.56461e-08
8.92235e-08
-6.58831e-08
1.71728e-07
-1.13272e-07
1.12327e-07
7.17403e-08
1.42904e-07
-1.40932e-07
2.15813e-07
3.35343e-09
4.87582e-08
1.5087e-07
3.48255e-09
1.2713e-07
1.06339e-07
4.05682e-08
-2.33386e-07
-7.30264e-09
-8.4347e-08
-1.55674e-08
1.55674e-08
-1.2096e-07
-3.72417e-08
-9.80104e-08
-7.27284e-09
-5.48314e-08
2.75734e-08
1.02725e-08
-1.21336e-07
8.1532e-09
-5.52346e-08
-1.33443e-07
-9.39701e-08
-7.27159e-08
-1.78421e-08
-8.39827e-08
-7.06064e-09
-6.2391e-08
-5.96455e-08
8.7422e-08
2.79277e-08
-3.00521e-07
1.20821e-08
-2.46601e-08
-4.78735e-08
-1.13551e-07
2.72204e-08
2.18579e-07
-2.72204e-08
6.01715e-08
6.57198e-08
6.66636e-08
-2.94686e-08
-1.36869e-07
1.58495e-07
-2.23767e-08
4.37653e-08
-1.00386e-08
1.88212e-07
8.95581e-08
7.83555e-08
-7.42378e-08
-9.30017e-10
-2.28112e-08
-2.37073e-07
1.77144e-08
-5.46669e-08
-3.46114e-08
-4.17379e-08
5.46669e-08
-2.23676e-08
6.6214e-08
-1.41131e-08
-1.53405e-08
-1.32769e-07
7.63934e-08
-6.48585e-08
2.16148e-08
1.3915e-07
9.61825e-08
-5.6272e-09
8.41294e-08
1.80963e-09
3.97891e-08
6.09061e-08
7.63934e-08
-5.76955e-08
5.71382e-08
-7.52799e-08
6.33489e-08
-7.77093e-08
1.59593e-08
3.07257e-10
1.83618e-08
5.75541e-08
2.10081e-07
-1.97542e-07
1.79912e-08
2.03503e-07
8.37033e-08
6.46776e-09
5.82952e-08
6.40487e-08
-4.36385e-09
7.3868e-08
-1.30684e-08
-1.13323e-07
-2.84926e-08
-1.77821e-08
7.22703e-08
-5.60514e-08
1.36344e-07
-1.02966e-07
-2.14265e-08
-1.74127e-07
-2.1423e-08
2.17503e-08
-8.37033e-08
9.58411e-08
-7.37952e-08
-5.46955e-08
-8.46289e-08
1.40575e-07
-2.50833e-07
8.71705e-08
1.40199e-07
4.80128e-08
2.72564e-08
8.00432e-10
-2.19029e-08
-1.13023e-08
8.85795e-08
-7.72772e-08
-1.13876e-07
1.13876e-07
5.63269e-08
-4.0974e-08
6.89099e-08
-7.02402e-08
-9.66836e-09
4.809e-08
5.2142e-09
-9.9293e-08
-2.91487e-09
-1.84528e-07
3.7632e-08
-1.0498e-07
2.16706e-07
-5.44988e-08
1.00091e-08
-1.04604e-07
6.59455e-08
-4.41952e-08
1.36277e-08
-1.72475e-07
-9.16374e-08
1.72555e-07
-1.58927e-07
-8.82918e-08
7.55859e-08
-1.87369e-07
-6.00866e-08
-2.76182e-09
-1.38308e-07
7.17989e-09
-2.4962e-08
5.04134e-08
-1.18307e-07
-1.14688e-07
-7.70218e-08
-2.10284e-08
1.2971e-07
-6.63616e-08
6.8992e-08
-7.11847e-08
1.22249e-09
4.69544e-08
-5.26914e-09
1.26846e-08
1.64729e-09
-1.77744e-07
6.33401e-08
2.87648e-08
-6.18363e-09
2.47564e-08
4.11891e-08
-1.11283e-09
-9.98255e-10
-8.2649e-08
-2.59308e-08
3.57404e-08
1.15526e-07
3.75111e-08
-1.96156e-07
1.47497e-07
1.77415e-07
3.98304e-08
-7.52298e-08
-1.65789e-07
-1.4433e-07
-8.75552e-08
4.20654e-08
-6.27497e-08
-2.00199e-08
-1.58772e-07
9.10539e-08
9.0022e-09
2.75734e-08
1.02427e-07
-2.59052e-07
7.76131e-08
1.11353e-07
2.2735e-08
-2.37332e-08
-7.15607e-08
1.77783e-07
-6.97876e-08
2.28112e-08
-8.77116e-08
2.11708e-07
2.128e-07
5.04205e-08
-1.08445e-07
8.87079e-08
-1.49925e-07
-9.70664e-08
1.84942e-07
1.79243e-07
-4.97059e-08
3.38232e-08
-1.8951e-08
-1.13345e-08
1.18361e-08
-1.46169e-07
1.29887e-07
-8.24297e-09
-2.23767e-08
-3.03871e-08
-3.31991e-08
-1.51138e-07
-2.40149e-08
9.026e-08
-1.02882e-08
-1.65908e-07
1.10365e-07
-2.4457e-08
-1.80963e-09
8.68697e-08
-3.8075e-08
1.43611e-07
-1.23481e-07
-1.06685e-07
6.02284e-08
-1.07714e-07
4.88653e-08
5.88487e-08
2.8075e-08
-9.43089e-08
-4.81903e-08
-4.42629e-09
-9.45891e-08
-7.48028e-08
4.48996e-08
5.81364e-08
-4.49487e-08
-3.15874e-08
1.61098e-07
-4.74809e-09
-1.57618e-07
1.81106e-08
3.78328e-08
-4.74856e-08
1.13271e-07
7.24528e-08