/*--------------------------------*- C++ -*----------------------------------*\
  =========                 |
  \\      /  F ield         | OpenFOAM: The Open Source CFD Toolbox
   \\    /   O peration     | Website:  https://openfoam.org
    \\  /    A nd           | Version:  9
     \\/     M anipulation  |
\*---------------------------------------------------------------------------*/
FoamFile
{
    format      ascii;
    class       volVectorField;
    location    "2";
    object      U;
}
// * * * * * * * * * * * * * * * * * * * * * * * * * * * * * * * * * * * * * //

dimensions      [0 1 -1 0 0 0 0];

internalField   nonuniform List<vector> 
1638
(
(0.00143818 -0.0322945 1.45426e-17)
(0.00251131 -0.0177043 -3.68911e-17)
(0.00333593 -0.0542966 3.36975e-17)
(-8.7009e-05 -0.0876507 1.96763e-17)
(-0.000391676 -0.0806374 2.20033e-18)
(-0.0260126 -0.0504531 3.93181e-17)
(-0.0125511 0.010096 0)
(0.0427563 -0.0783862 -4.91865e-18)
(-0.0152758 -0.0332421 2.65008e-17)
(0.00125781 -0.0723503 -4.07054e-17)
(0.00089434 -0.0774254 8.47011e-18)
(-0.000527473 -0.0331533 0)
(0.0189077 -0.0287347 3.01207e-17)
(0.0382721 -0.0496114 3.57589e-17)
(-0.0020753 -0.0390466 -2.08777e-18)
(-0.0280774 -0.056111 -3.00909e-17)
(0.00169428 -0.053358 4.01118e-21)
(-0.000725033 -0.0763925 -8.62642e-18)
(-0.0394484 -0.0880241 8.88789e-18)
(-0.0482718 -0.0945703 -3.69946e-17)
(-0.00223454 0.0263388 4.15964e-18)
(0.0354643 -0.116874 -3.98138e-18)
(0.0531933 -0.0885309 1.89592e-17)
(0.00179975 -0.0384882 1.35932e-17)
(0.0404754 -0.0139914 -3.46158e-17)
(0.00206911 -0.0386574 2.01253e-18)
(0.00416059 -0.0559023 0)
(0.0176892 -0.0363235 -5.7905e-17)
(-0.0085881 0.0179153 -1.66682e-17)
(0.00492367 -0.0482546 4.77818e-17)
(-0.000252546 -0.01324 0)
(0.00200129 -0.0581208 -1.74059e-17)
(0.00269399 -0.0429933 -4.075e-17)
(-0.0018625 -0.0611253 3.58459e-17)
(0.0328674 -0.0213295 9.97167e-18)
(-0.00953199 -0.0361586 -3.8138e-17)
(0.000932672 -0.0240401 -1.96938e-17)
(0.000271943 -0.0233706 3.14837e-17)
(-0.0482361 -0.10044 2.23408e-18)
(0.0686975 -0.0817507 2.65832e-18)
(0.0129388 0.0132581 3.15543e-17)
(0.00133875 -0.0316083 -3.00597e-17)
(-0.000114602 -0.0339256 -1.78225e-17)
(0.0054421 -0.0185246 -2.0368e-17)
(0.000111131 -0.0870373 -3.20935e-17)
(0.0218799 -0.0734169 3.92568e-17)
(-0.000581607 -0.0208731 1.00152e-16)
(-0.0417594 -0.086382 0)
(0.0434625 -0.0203165 0)
(-0.0467543 -0.0957933 -2.54821e-17)
(-0.0325601 -0.070086 0)
(0.00343771 -0.0522448 -3.16369e-17)
(-0.00786946 -0.0326627 2.72741e-22)
(0.0345341 -0.0787258 0)
(-0.0427964 -0.10266 -1.73417e-17)
(0.000706567 -0.0740403 2.48807e-17)
(-0.0478238 -0.110079 0)
(0.000375827 -0.0739608 2.2371e-17)
(0.00382704 -0.0490479 -3.34357e-17)
(-0.000249293 -0.0763952 1.88795e-17)
(-0.023003 -0.0334817 -2.19616e-17)
(-0.00366871 -0.0480321 4.58826e-18)
(-0.0202936 -0.0473389 0)
(0.0505145 -0.0812826 0)
(-0.0239366 -0.104821 0)
(0.00971324 -0.0486261 0)
(0.00348236 -0.0397956 0)
(-0.0147429 -0.0965457 0)
(-0.0348656 -0.0757487 5.45708e-17)
(-0.0310634 -0.0797769 1.76772e-17)
(0.00066779 -0.0277443 3.46223e-17)
(0.00728622 -0.073197 1.89696e-17)
(-0.015044 0.010994 3.20623e-17)
(0.00538767 -0.0512451 3.98143e-17)
(0.00288554 -0.0492733 -1.90215e-18)
(0.0631101 -0.0355528 -1.91422e-17)
(-0.0321848 -0.0809989 2.11858e-17)
(0.0160288 -0.0743992 -3.87744e-17)
(0.0490462 -0.0828693 -5.93788e-17)
(-0.113033 -0.0766631 -5.55437e-21)
(0.0611272 -0.0894037 0)
(0.000537338 -0.0698007 -3.42699e-17)
(8.5744e-05 -0.0851736 2.1054e-17)
(0.0294672 -0.0994948 -8.38167e-18)
(-0.000340164 -0.0870715 -2.05603e-17)
(0.0191471 -0.0222184 1.95099e-22)
(0.0327427 -0.138059 -2.85899e-17)
(-0.0723085 -0.0798837 0)
(0.0149661 -0.0357874 -4.05348e-22)
(4.06337e-06 -0.0830919 0)
(-0.011555 -0.00716748 -2.55783e-17)
(0.0632404 -0.0846415 0)
(0.000461399 -0.0625617 -3.00905e-17)
(0.0587581 -0.0437209 0)
(-0.158933 -0.095367 1.92015e-17)
(0.0247527 -0.0226129 3.61297e-17)
(0.00779387 -0.0763688 -1.97945e-17)
(0.000188333 -0.0817187 -1.75034e-17)
(-0.00852622 -0.0457809 1.428e-22)
(-0.0290164 -0.129695 2.16365e-17)
(0.0155586 -0.097518 2.17447e-17)
(0.0601699 -0.0609501 0)
(0.0326211 -0.077056 -3.97914e-17)
(-0.0372868 -0.0896957 -3.68875e-17)
(-0.0096969 -0.0692322 3.8606e-17)
(0.0613334 -0.0938015 -9.39839e-18)
(0.0211201 -0.00295924 3.50766e-17)
(-0.000103285 -0.0782707 1.92636e-17)
(-0.0429946 -0.101342 4.35075e-17)
(0.0186199 -0.0754242 -4.36332e-17)
(-0.111396 -0.0929632 0)
(0.0202616 -0.0471765 1.80358e-17)
(-0.00299893 -0.0427137 4.83864e-17)
(-0.000380546 -0.0834211 -1.93581e-17)
(-0.00256131 -0.0376059 -4.38819e-17)
(0.0144278 -0.0710162 -2.08351e-17)
(0.0650187 -0.0862658 0)
(0.0670402 -0.0537135 0)
(-0.0361263 -0.0907159 0)
(-0.0339017 -0.128639 -2.35736e-17)
(0.0183041 -0.118976 -2.95227e-17)
(-0.0376124 -0.0850229 0)
(-0.0038477 -0.0534064 0)
(-0.0419011 -0.098875 -3.13237e-17)
(0.00426877 -0.00977491 -1.1488e-17)
(-0.0218523 -0.00477698 -1.91609e-17)
(-0.029062 -0.0972143 -4.97028e-17)
(0.0177769 -0.119353 -3.90063e-17)
(-0.00193868 -0.0450461 1.92352e-17)
(-0.0358817 -0.126433 1.07261e-17)
(1.66444e-05 -0.0871017 -6.83085e-17)
(-0.0116742 -0.0273124 0)
(-0.00309456 -0.0483569 0)
(-0.00623712 -0.0711372 -3.94138e-17)
(0.0179093 -0.0315122 -1.00049e-17)
(-0.0305641 -0.089498 2.08e-17)
(8.83424e-05 -0.0730109 3.79021e-17)
(0.0252435 -0.0292441 0)
(0.000405817 -0.0485596 1.36034e-22)
(0.00017478 -0.0868249 4.88563e-17)
(0.00708988 -0.0155317 2.3092e-17)
(-0.00215821 -0.0427126 2.14429e-17)
(-0.108923 -0.107776 -1.11321e-18)
(-0.0280684 -0.0174587 4.31688e-17)
(0.00170175 -0.0337968 6.6038e-20)
(0.00322659 -0.0376156 0)
(-0.024899 -0.077852 1.15716e-17)
(0.0480106 -0.0289453 0)
(0.000335745 -0.0809314 3.44578e-17)
(-0.0112159 0.0375709 1.09559e-17)
(-0.022715 -0.0740156 1.23413e-17)
(-2.51719e-06 -0.0794235 -1.16041e-18)
(-0.000849402 -0.0383162 2.13497e-17)
(-0.11246 -0.0887633 0)
(-0.00245012 -0.036713 2.95433e-17)
(0.00355485 -0.0415037 0)
(-0.0147873 -0.0402859 0)
(-0.00592645 -0.0729343 2.27548e-17)
(-0.00320423 -0.0492976 -1.99392e-17)
(-0.0483715 -0.0934463 -2.26661e-17)
(0.0166193 -0.0142916 -5.48381e-17)
(-0.0280278 -0.0749971 3.60185e-17)
(-0.000203387 -0.0755537 8.34427e-18)
(-0.000382053 -0.022219 1.78651e-17)
(-0.0198619 -0.0294797 1.16302e-17)
(-8.65944e-05 -0.011957 2.08893e-17)
(-0.00611462 -0.0744756 1.77255e-17)
(-0.00255662 0.0143506 -2.18016e-17)
(0.0710378 -0.0812475 -8.86785e-18)
(-0.070186 -0.081765 0)
(-0.00475817 -0.0699046 0)
(-0.0783154 -0.0653468 0)
(0.00161179 -0.0367153 3.62261e-17)
(-0.00557289 -0.0664369 0)
(-0.00256276 -0.0427119 -4.82624e-17)
(-0.0318635 -0.101597 5.12561e-17)
(-0.0531518 -0.0965417 4.11205e-17)
(-0.0011769 -0.0383489 -3.87843e-17)
(-0.0819133 -0.0845536 -6.00166e-17)
(0.00354255 -0.0402014 1.92312e-17)
(0.00096253 -0.0677688 3.04228e-17)
(-0.0134 -0.0709069 3.90138e-17)
(0.000769152 -0.0416001 0)
(-0.00018564 -0.0854224 0)
(0.00188775 -0.0500412 -8.87831e-18)
(-0.012865 -0.0689417 -3.90306e-17)
(-0.00439349 -0.0540308 -2.0272e-17)
(-0.0424443 -0.0838088 1.83266e-17)
(0.00409517 -0.0437591 0)
(-0.000808991 -0.0369811 0)
(0.000187936 -0.0229003 1.96244e-17)
(0.000512997 -0.0678138 0)
(0.00169941 -0.00409198 -1.16641e-17)
(-0.000772117 -0.0271372 0)
(-0.00185102 -0.0279531 1.23044e-17)
(-0.0112517 -0.0616115 1.47587e-17)
(-0.0130029 -0.0711384 -1.93984e-17)
(-0.000218712 -0.0267236 -2.13971e-17)
(0.000672619 -0.0510364 1.37234e-22)
(0.00189204 -0.0467474 1.84658e-17)
(0.00364428 -0.053781 -3.89905e-17)
(0.041021 -0.0538022 0)
(-0.0131732 -0.0691392 -1.94805e-17)
(-0.00225208 0.00932268 1.77451e-17)
(-0.00672816 -0.0668306 1.98486e-17)
(0.0684461 -0.0736308 -2.88442e-18)
(-0.00857427 0.0159451 4.28715e-17)
(-0.0193662 -0.0292028 -2.00704e-17)
(0.00143127 -0.069397 3.20636e-17)
(-0.0145817 -0.0178579 0)
(-0.013199 -0.0278978 -1.53653e-17)
(0.0307464 -0.0102383 -1.12599e-17)
(-0.000704019 -0.0280772 0)
(-0.0121274 -0.0640375 -3.98425e-17)
(-0.000324428 -0.0420842 -1.83475e-17)
(0.0155025 -0.103402 4.85163e-17)
(-0.000441201 -0.0144904 0)
(-0.011887 -0.0708991 3.94147e-17)
(0.0532311 -0.118176 2.03642e-17)
(-0.0360697 -0.127781 5.71643e-18)
(-0.0288829 -0.0858677 -5.2416e-17)
(0.074522 -0.104072 -1.41741e-21)
(0.0259291 -0.0769452 2.53078e-17)
(-0.0901028 -0.0819852 -4.2973e-17)
(0.00801802 -0.0733377 -3.83672e-17)
(0.000335674 -0.0132131 -2.13178e-17)
(0.0140142 -0.0874081 5.56089e-18)
(-0.0858852 -0.0672117 -5.09346e-18)
(0.0174997 -0.0120575 2.2471e-17)
(-0.000275678 -0.0241378 0)
(-0.0532644 -0.0981235 2.1214e-17)
(0.00524254 -0.0298614 1.1625e-17)
(0.00211022 -0.00965514 0)
(0.00242092 -0.0381243 -2.18764e-17)
(0.00114907 -0.0724237 -7.65382e-18)
(0.00176069 -0.033976 9.3423e-24)
(0.00083969 -0.0332086 -1.87967e-17)
(-0.00188567 -0.0403493 1.22412e-18)
(-0.0481887 -0.0931011 0)
(0.00119044 -0.0439715 0)
(-0.00408991 -0.0478821 0)
(-0.00167843 0.000208155 -3.0215e-17)
(-0.00145477 0.00922931 -2.75981e-17)
(-0.0132012 -0.0745839 -5.14829e-18)
(0.00092881 -0.0800616 1.09716e-17)
(0.000274588 -0.0594444 0)
(0.00325974 -0.0398266 3.04803e-17)
(0.0495856 -0.0600761 2.28671e-17)
(-0.000497006 -0.0153666 0)
(8.49267e-05 -0.0858233 1.55205e-17)
(0.0474257 -0.0442363 0)
(0.0065147 -0.0140353 -3.10335e-17)
(-0.00035271 -0.0218044 1.97914e-17)
(-0.00435492 0.00461879 9.90464e-18)
(-0.000466989 -0.0700714 0)
(-0.00165904 -0.0602674 0)
(-0.00890129 -0.0687868 3.85421e-17)
(0.000700816 -0.00571143 0)
(-0.006378 -0.063247 -1.94223e-17)
(0.0371707 0.0152289 -2.34987e-17)
(0.00926202 -0.131625 2.87264e-22)
(0.0155793 -0.0727192 -2.23515e-17)
(0.0377698 0.00887396 2.32835e-17)
(-0.00205101 -0.0334702 -1.96131e-17)
(0.00603997 -0.021321 2.18989e-17)
(0.0181232 -0.0756075 0)
(0.00845315 -0.134072 2.06157e-17)
(-0.0210136 0.0194941 8.22372e-18)
(0.00398396 -0.0625052 0)
(0.00329686 -0.00651397 -1.1794e-17)
(0.00191075 -0.0594783 9.0466e-18)
(0.00802698 -0.0632733 -1.03918e-17)
(-0.00906862 -0.0174583 -2.78643e-17)
(-0.0126569 -0.0752332 6.01376e-17)
(-0.00926077 -0.0654663 0)
(0.00477548 -0.0220649 0)
(-0.000331974 -0.0859414 0)
(-0.0179614 0.0331322 -8.13876e-18)
(-0.00163027 -0.0594416 0)
(0.0116618 -0.113369 -1.00487e-17)
(0.0212407 -0.0760885 -2.20443e-17)
(-0.012131 -0.0698829 -3.85185e-17)
(-0.00548251 -0.0551765 0)
(-0.000223774 -0.0535112 0)
(-0.000447348 -0.0387192 -2.02618e-17)
(-0.00924975 -0.0643517 -4.02701e-17)
(-0.00739225 -0.0792966 -2.52363e-17)
(-0.00334801 -0.0204506 -5.00379e-17)
(0.0344487 0.00818722 -4.62916e-17)
(6.96477e-05 -0.0133307 3.57323e-20)
(0.0108865 -0.0173436 0)
(-0.000594577 -0.0587286 1.82909e-17)
(-0.00664679 -0.0705742 4.58334e-18)
(0.000251569 -0.0263276 1.81993e-17)
(0.00637569 -0.073847 0)
(0.00141698 -0.0606987 -1.06607e-17)
(-0.00121559 -0.0176665 1.18997e-22)
(0.0181105 -0.0719654 0)
(0.0426333 -0.110595 0)
(-0.00676591 -0.0633428 1.81523e-17)
(0.00765674 -0.0303708 -1.86454e-17)
(-0.0129623 -0.0743444 -3.46203e-17)
(-0.0104879 -0.0760256 0)
(-0.00694496 -0.0613122 0)
(0.000483716 -0.026824 0)
(0.00103017 -0.0822187 1.70625e-17)
(-0.0278124 -0.0904661 1.65658e-17)
(0.0112806 -0.133775 0)
(-0.0117089 -0.0747531 0)
(-0.00401006 -0.0802616 -5.79108e-18)
(-0.00133205 -0.0625685 -1.88559e-17)
(-0.00118025 -0.0632903 1.86129e-17)
(-0.00353314 -0.056527 0)
(-0.0131184 -0.0395351 1.00163e-17)
(0.00387615 -0.0342045 0)
(-0.0158902 -0.0639016 1.98887e-17)
(0.0102072 -0.0178651 -2.41131e-17)
(-0.0101262 -0.0773386 2.68755e-17)
(-0.0122404 -0.0738179 0)
(-0.00518682 -0.0783503 4.6269e-18)
(-0.0101728 -0.0711694 -3.80843e-17)
(-0.000678971 -0.0267065 -1.87099e-17)
(0.0189156 -0.0587651 0)
(-0.0122755 -0.0733728 0)
(2.861e-05 -0.00684259 0)
(0.0193972 -0.140472 -1.91253e-17)
(0.0232084 -0.145852 1.63928e-17)
(0.0021088 -0.0830724 5.16096e-18)
(0.00397879 -0.0815778 0)
(-0.000805067 -0.0359922 3.67169e-17)
(-0.00165839 -0.0500669 1.86625e-17)
(0.00291213 -0.00952426 0)
(0.00852239 -0.0806861 -6.25248e-18)
(-0.0136122 -0.0732783 -2.00304e-17)
(0.0247773 -0.0835563 0)
(-0.0259301 -0.0984447 -2.02372e-17)
(-0.0134102 -0.0739362 5.33834e-17)
(-0.000177742 -0.0134239 -1.86964e-17)
(-0.00102415 -0.0333633 1.87915e-17)
(-0.00540664 -0.0781447 3.72862e-17)
(-0.144674 -0.118928 0)
(-0.00217356 -0.0678193 0)
(-0.000111611 -0.0332274 5.35542e-17)
(-0.0261026 -0.0780224 0)
(0.000244898 -0.0124928 0)
(-0.0108963 -0.0733405 4.11884e-17)
(-0.0351614 -0.113579 -4.19815e-17)
(0.00073491 -0.0815522 3.56005e-17)
(-0.00221624 -0.0923774 -2.65762e-17)
(0.0133638 -0.103512 2.69712e-17)
(-0.000160131 -0.0436843 5.08708e-17)
(-0.00821008 -0.0230722 2.9509e-17)
(0.00262805 -0.0181119 0)
(0.0114535 -0.0740493 0)
(-0.000617608 -0.100044 1.65565e-21)
(0.0189841 -0.106898 0)
(0.00766573 -0.082346 -2.24945e-17)
(-0.0128165 -0.0755116 -3.64468e-17)
(-0.00169682 -0.0677821 0)
(-0.0137645 -0.0814962 -2.75522e-18)
(0.0628652 -0.037969 3.88598e-17)
(0.0152305 -0.0526533 0)
(0.0274252 -0.104303 0)
(0.0112979 -0.0812547 5.67022e-18)
(0.0681629 -0.0577736 0)
(-0.0115131 -0.0728118 4.82343e-18)
(-0.00409371 -0.0648446 -4.26438e-17)
(0.000569157 -0.0326533 0)
(0.00857769 -0.0792322 3.87071e-17)
(-0.00107392 -0.021799 -3.66965e-17)
(-0.0119696 -0.0729248 -3.83324e-17)
(-0.0228972 -0.0667996 0)
(-0.000623333 -0.0274887 -1.90616e-17)
(0.0110784 -0.124771 -3.82532e-17)
(-0.00531518 -0.0459237 -1.10284e-17)
(-0.0131864 -0.0729326 -1.93682e-17)
(0.010496 -0.0694062 0)
(0.000120276 -0.0872078 -2.66513e-18)
(-0.0115176 -0.0717335 7.60707e-17)
(-0.00428981 -0.0233829 0)
(-0.0366888 -0.104634 2.29005e-17)
(0.00626948 -0.0476691 2.42383e-17)
(0.0191853 -0.0631385 0)
(0.00478063 -0.0442131 -3.84626e-17)
(0.057259 -0.0283006 -2.22176e-17)
(0.00176268 -0.0626391 -2.82872e-17)
(0.0215493 -0.0769562 -2.22033e-17)
(-0.00216151 -0.043516 -2.40799e-17)
(-9.63043e-05 -0.025156 0)
(-0.00148143 -0.0449943 -1.88963e-17)
(0.000598947 -0.0310003 0)
(0.00387196 -0.0542095 0)
(0.00100126 -0.0552547 -2.64124e-17)
(0.0324528 -0.10394 2.20987e-17)
(-0.000287753 -0.0137539 -5.84622e-17)
(0.00207029 -0.0297785 -2.2566e-17)
(0.00698593 -0.129871 0)
(-0.000796001 -0.033564 -2.04327e-17)
(0.000492713 -0.0141669 -3.50539e-17)
(-0.00036266 -0.00758837 5.69042e-17)
(-0.00319748 -0.0512423 0)
(-0.00425108 -0.0126715 0)
(0.000606967 -0.00912803 3.33017e-17)
(0.00352587 -0.0596044 1.68503e-17)
(-0.00120722 -0.0736095 -3.60626e-17)
(0.00109034 -0.0795309 -9.48053e-18)
(-0.00385503 -0.0070145 -1.01395e-17)
(0.0271157 -0.140171 -8.31254e-18)
(0.0151609 -0.112031 0)
(0.0085766 -0.0604397 0)
(-0.00154839 -0.0835597 1.85346e-17)
(0.0122318 -0.0579869 -2.25462e-17)
(-0.0712904 -0.0875547 2.16686e-17)
(-0.00256373 -0.0821974 0)
(-0.0111771 -0.0734668 0)
(-0.0363418 -0.0467197 2.06573e-17)
(0.0271516 -0.0621104 0)
(0.00809857 -0.0848976 2.64331e-17)
(-0.000721099 -0.0702088 3.77935e-17)
(0.0131465 0.0287871 0)
(-0.00174142 -0.0637237 1.94059e-17)
(-0.0218155 -0.0688515 4.80049e-17)
(0.065881 -0.0497752 5.56695e-18)
(-7.74743e-05 -0.0131843 0)
(0.00318819 -0.0517433 0)
(0.0156335 -0.0693239 2.22765e-17)
(-6.37171e-05 -0.0879407 -1.03643e-17)
(0.00739949 -0.0543352 -5.85148e-17)
(-0.00051289 -0.0325808 -1.86637e-17)
(-0.0190171 -0.0420012 3.63034e-17)
(-0.00158522 -0.0707538 -5.90106e-19)
(0.0578509 -0.100467 0)
(0.00333591 -0.107782 -6.52237e-17)
(-0.00295844 -0.056394 2.82775e-17)
(0.00883067 -0.0652645 0)
(0.00317806 0.0290667 -5.482e-22)
(-0.0144135 -0.0425749 -6.3371e-17)
(0.000708638 -0.027771 3.87878e-17)
(-0.000423319 -0.0804316 -5.67891e-17)
(0.0700102 -0.0681367 2.26684e-17)
(0.0299606 -0.0300264 -2.0485e-17)
(0.00126634 -0.0345459 0)
(0.0130611 -0.0695329 2.24522e-17)
(-0.0060762 -0.0193111 0)
(0.000424418 -0.020716 0)
(0.0140387 -0.00416863 2.30711e-17)
(-0.00140122 -0.0529799 3.76538e-17)
(0.000508273 -0.0854291 2.52519e-17)
(-0.0125451 -0.0734386 1.91397e-17)
(-0.00115341 -0.0340981 3.98408e-17)
(0.00308865 0.0226955 6.13915e-17)
(-3.49394e-05 -0.00699251 0)
(-0.000385275 -0.088356 0)
(-0.00074594 -0.0738899 2.07392e-17)
(-0.000379775 -0.0881372 -3.13076e-17)
(0.0434319 -0.104161 -5.014e-17)
(-0.0996905 -0.0296583 2.91394e-17)
(-0.00113222 -0.0444833 0)
(0.00825226 -0.134625 4.87468e-17)
(-0.000348886 -0.0880655 1.98971e-17)
(0.0583625 -0.117039 1.99679e-17)
(0.0430324 -0.0933661 1.14029e-22)
(7.31873e-05 -0.00635911 0)
(-0.0024499 -0.0813259 4.62241e-18)
(-0.00178266 -0.0566489 1.98814e-17)
(0.00363345 0.0159643 9.902e-18)
(0.0174505 -0.0725514 0)
(0.0405463 -0.0419827 -1.46766e-17)
(0.030566 -0.0876136 4.4483e-17)
(0.0247713 0.00128554 -4.92507e-17)
(0.0323322 -0.0394075 1.94138e-17)
(0.0155903 -0.146398 -1.96622e-17)
(-0.000912262 -0.078616 3.59898e-17)
(-0.0033801 -0.0813769 0)
(0.00224138 -0.0167439 -2.17413e-17)
(-0.0233176 -0.0807982 -1.93449e-17)
(0.000330883 -0.0153195 1.82859e-17)
(0.0376778 -0.107489 -2.21557e-17)
(-0.00331289 -0.0813061 3.21202e-17)
(0.0519083 -0.0600417 -3.342e-22)
(-0.000248249 -0.0880524 3.74167e-17)
(-0.000491812 -0.0880078 -5.09791e-17)
(0.0494865 -0.105192 2.79339e-17)
(-0.000197608 -0.0864625 4.19197e-17)
(0.0177606 -0.078696 0)
(-0.029906 -0.0659698 2.64875e-18)
(0.0135685 -0.134522 3.8002e-17)
(0.059833 -0.0970631 0)
(-0.000128402 -0.00731551 5.56826e-17)
(-0.00187736 -0.0647932 3.69735e-17)
(-0.00384833 -0.0786419 4.58671e-18)
(-0.0129568 -0.0468059 -2.16829e-17)
(-0.000220925 -0.0870416 4.78436e-17)
(0.00151263 -0.0128862 5.98648e-17)
(-0.00945923 -0.0729225 4.73246e-18)
(-0.0165051 -0.0580973 -1.87455e-17)
(-0.00608802 -0.0538374 0)
(-0.0452799 -0.111702 -2.64863e-17)
(0.0252764 -0.0855432 0)
(0.000419324 -0.00704114 0)
(0.0105231 0.0354263 0)
(-0.000703323 -0.0872134 -2.3034e-17)
(0.0541927 -0.0991355 4.36726e-17)
(0.00734453 -0.0652358 2.8455e-17)
(-0.0127005 -0.033387 0)
(-0.00464218 -0.102177 -2.15704e-17)
(0.0491283 -0.0948405 -2.1395e-17)
(0.000108078 -0.00692859 3.67412e-17)
(0.0296493 -0.0836499 -2.23189e-22)
(-0.0105735 -0.035139 -2.08679e-17)
(0.00767832 0.0343672 1.28409e-17)
(0.000129084 -0.0861145 -2.27958e-17)
(0.000404248 -0.0838988 -7.46903e-23)
(0.00964351 -0.0261221 0)
(-0.00726422 -0.00207809 2.02299e-17)
(-0.000182347 -0.0873662 1.87512e-17)
(-0.0273116 -0.0770415 4.28505e-17)
(0.0416737 -0.0982469 2.79646e-17)
(-0.000160823 -0.0838809 0)
(0.000337226 -0.0852119 1.84536e-17)
(0.0127994 -0.021187 5.61784e-23)
(-0.0901212 -0.0790506 -2.50067e-17)
(0.00646194 0.014614 0)
(-0.000326534 -0.0875237 2.3099e-17)
(-0.00429249 -0.0797632 0)
(-0.0955582 -0.0758939 1.97824e-17)
(0.000166994 -0.0137178 -3.6935e-17)
(0.00312715 0.0181901 -2.04966e-17)
(0.00144755 -0.0740164 -2.83351e-17)
(-0.00049614 -0.020083 -1.95724e-17)
(0.0961124 -0.0981263 3.42651e-17)
(0.00455989 0.0256264 -1.89783e-17)
(3.34298e-05 -0.0854581 -5.5155e-17)
(-0.00182633 -0.0314669 3.80778e-17)
(0.0122071 -0.132101 0)
(-0.0714456 -0.104423 2.18577e-17)
(-0.0748335 -0.0650528 -2.1263e-17)
(-0.00121014 -0.0862208 -1.85223e-17)
(0.000426283 0.0370854 -1.69292e-17)
(0.0347188 -0.0619213 2.64432e-18)
(0.00066773 -0.0275506 1.86532e-17)
(0.0349597 -0.0787129 -3.00265e-17)
(0.0036366 0.0189338 3.0938e-17)
(-0.00866888 0.029094 0)
(0.0358315 -0.0866864 2.2365e-17)
(0.00288166 0.0145155 -5.91894e-17)
(0.00647526 -0.0563677 0)
(-0.0168571 -0.0518252 -3.27893e-17)
(-0.0113547 -0.0727074 -5.91869e-17)
(0.0502073 -0.0524764 -4.94925e-18)
(-0.00221091 -0.076536 -3.68718e-17)
(0.0115924 -0.142193 2.85994e-17)
(0.0499043 -0.0524374 1.97578e-17)
(0.0130193 -0.077289 0)
(-0.00902907 -0.0193961 -2.15217e-17)
(-0.00479334 -0.0476478 0)
(-0.00575531 -0.0761205 3.23142e-17)
(0.0458448 -0.122525 0)
(0.0023186 0.0123607 2.95778e-17)
(-0.000621599 0.0296093 -1.06369e-17)
(-0.0552599 -0.105528 3.81628e-22)
(0.0207031 -0.0573277 5.67486e-17)
(7.19458e-05 0.00239487 8.60908e-18)
(0.0429011 -0.0485224 3.80184e-17)
(-0.0012542 -0.0593328 -1.87491e-17)
(-0.00561193 -0.0713245 5.15874e-17)
(-0.00243054 -0.0113221 0)
(-0.0578432 -0.108012 -2.01099e-17)
(0.00080652 -0.0779005 8.38358e-18)
(0.0333544 -0.0978237 -2.7711e-17)
(0.0450765 -0.0609982 0)
(0.0392048 -0.0809196 4.03998e-17)
(-0.00812075 -0.0158457 8.82367e-18)
(-0.0463338 -0.113589 -1.16509e-17)
(0.0193437 -0.0704195 -2.22109e-17)
(0.00577493 0.0225018 0)
(-0.00107505 -0.0498378 -1.92073e-17)
(-0.0819769 -0.0986187 -2.08127e-17)
(0.0411969 -0.0769643 -1.66488e-17)
(-0.000241649 0.0116256 5.72609e-17)
(0.00867861 0.00566425 1.99563e-17)
(0.0396305 0.000630334 -1.15176e-17)
(0.0489418 -0.0714594 0)
(-0.000532644 -0.0866674 5.5215e-17)
(0.0483714 -0.0889013 9.9011e-23)
(0.000886848 -0.0815484 0)
(0.0905541 -0.0749397 -1.49565e-17)
(-0.00537949 -0.0752481 4.15282e-17)
(-0.000943014 -0.0169384 -3.65847e-17)
(-0.0381522 -0.113614 0)
(-0.000957232 -0.0181756 -1.92776e-17)
(0.00243463 0.0222979 -8.20161e-18)
(0.000268641 -0.0074232 0)
(0.000264889 -0.014324 1.12964e-21)
(0.00258927 0.0147337 -6.16724e-17)
(0.047584 -0.0722603 -2.46888e-17)
(-0.00603479 -0.0687703 -3.70548e-17)
(0.0737761 -0.0968351 0)
(-0.00137268 -0.0823177 -1.86043e-17)
(0.00638904 -0.0566386 -3.33692e-17)
(-0.0544817 -0.105004 -1.979e-17)
(0.00193759 0.0119106 1.95084e-17)
(-0.0046984 -0.0721315 1.40521e-17)
(0.00898123 -0.125465 -1.00328e-17)
(0.0136768 0.0256029 3.35004e-17)
(-4.20949e-05 -0.0869755 -2.92244e-17)
(0.0175543 -0.0287424 0)
(0.0237479 -0.0747492 0)
(0.0355226 -0.0950345 -2.77918e-17)
(-0.0347635 -0.116944 -2.07805e-17)
(-0.000342848 -0.0880214 -5.60537e-17)
(0.00117903 -0.0795248 0)
(-0.00513078 -0.069443 -1.87689e-17)
(-0.00032015 -0.0841583 1.93208e-17)
(-0.00148665 -0.0366769 3.59392e-17)
(-0.0346384 -0.115094 -2.59517e-23)
(8.18372e-07 -0.0703855 5.77846e-17)
(0.00194156 -0.0742025 5.50634e-17)
(-0.00196662 -0.0811402 0)
(0.0001484 -0.00714955 0)
(-0.012268 -0.0737548 0)
(-0.0326336 -0.112414 -5.79217e-17)
(0.101695 -0.0879491 5.89312e-17)
(-0.11036 -0.103994 -1.79652e-17)
(-0.00278128 -0.00437711 2.22688e-17)
(-0.0606839 -0.107258 0)
(0.0294262 -0.0667506 -1.00646e-17)
(0.00171411 -0.0715141 0)
(-0.00446082 -0.0763618 2.30034e-17)
(0.0038932 -0.0635073 -1.8679e-17)
(0.000402566 -0.0847935 5.55586e-17)
(-0.00250927 -0.0666967 1.83739e-17)
(0.00154438 -0.024693 -6.36901e-17)
(0.000851139 -0.0144973 5.69852e-17)
(-0.023229 -0.0644017 -1.13265e-17)
(-0.00247944 -0.0731961 1.84534e-17)
(-1.76536e-05 -0.0180921 3.60483e-17)
(-0.000104693 -0.00996355 -3.4832e-17)
(0.0424392 -0.0681457 -2.11832e-17)
(0.0712563 -0.0773361 3.93625e-17)
(0.000277724 -0.0841266 5.51101e-17)
(-0.000829366 -0.0219787 -3.39368e-17)
(0.00219595 -0.0719247 -3.19837e-17)
(-0.000771198 -0.0494492 0)
(0.0772342 -0.0652663 2.4294e-17)
(-0.000881204 -0.0195198 4.19725e-18)
(-0.00361411 -0.0775593 0)
(0.0418257 -0.0775185 0)
(-2.69724e-05 -0.0865386 -1.82396e-17)
(-0.00418626 -0.0798288 0)
(-0.00197149 -0.0842518 4.13675e-17)
(-0.00118375 -0.0865723 2.30601e-17)
(-0.00392009 -0.073026 -1.83607e-17)
(0.00106673 -0.0194324 -3.4972e-17)
(-0.0026999 -0.0625709 0)
(-0.0927532 -0.0945239 0)
(0.0282391 -0.0930416 5.53347e-18)
(0.00193552 -0.0642612 -1.79424e-17)
(-0.000802964 -0.0104378 0)
(0.00110379 -0.0190991 -7.42838e-20)
(0.00125618 -0.0218984 -6.99095e-17)
(0.000721533 -0.0128998 6.96392e-17)
(0.00050289 -0.00940077 0)
(0.000406775 -0.0165213 -3.56338e-17)
(5.2874e-05 -0.0853095 -1.87792e-17)
(0.000714354 -0.0105013 3.67164e-17)
(0.000671398 -0.0175556 3.68673e-17)
(0.000269199 -0.0088697 -3.58196e-17)
(-0.000639821 -0.0195277 6.3187e-18)
(1.99214e-05 -0.00862364 2.47919e-17)
(-0.000375018 -0.00940411 0)
(-0.000101938 -0.00621206 0)
(-0.000280159 -0.0133429 3.40196e-17)
(0.000272009 -0.00831479 1.76666e-17)
(-0.000186586 -0.084593 -3.67219e-17)
(0.062045 -0.0755016 -2.28088e-17)
(-0.00432412 -0.0700731 -1.85632e-17)
(-0.0537234 -0.1076 2.20977e-17)
(-0.0199715 -0.0368966 -8.5348e-18)
(-0.057923 -0.109304 -1.96655e-17)
(0.0203608 -0.0766336 0)
(0.00265061 -0.0656306 -4.32863e-18)
(-0.0412292 -0.111248 1.82897e-17)
(-0.0505099 -0.113385 0)
(0.00158693 -0.0745529 0)
(-0.0553464 -0.104165 4.09562e-17)
(0.00918299 -0.0680596 0)
(-0.00154859 -0.0740353 2.9934e-19)
(-0.0412038 -0.111672 0)
(-0.00077456 -0.0875203 3.25211e-17)
(-0.00475393 -0.0773326 -5.53439e-17)
(-0.00253361 -0.0547294 0)
(-0.000464144 -0.0542465 0)
(0.000793815 -0.0805229 -4.14783e-17)
(0.104111 -0.0825891 -1.97593e-17)
(-0.000391701 -0.0867449 1.96402e-17)
(-0.00212878 -0.0506639 0)
(-0.00315414 -0.0742202 -1.37862e-17)
(0.000864059 -0.0811639 1.83652e-17)
(-0.000197413 -0.0220444 2.02877e-17)
(-0.00136922 -0.0850645 -4.59592e-18)
(0.00120309 -0.0785109 3.7014e-17)
(0.0877558 -0.104905 0)
(-0.00705535 -0.0684399 1.85542e-17)
(-0.00599891 -0.0606651 -1.96185e-17)
(-0.0338329 -0.108286 3.38177e-17)
(0.0230437 -0.0854982 2.7667e-17)
(-0.000861236 -0.0633681 -1.87691e-17)
(0.00260896 -0.0622237 -2.23388e-18)
(-0.00243361 -0.0812183 0)
(0.0110026 -0.0964102 0)
(0.0241907 -0.0444941 0)
(-0.00361019 -0.0710406 1.83756e-17)
(-0.00535836 -0.0789046 2.63455e-17)
(9.19032e-05 -0.0832459 4.59486e-18)
(-0.00112284 -0.0707952 -3.7771e-17)
(0.00222134 -0.0654735 4.59397e-18)
(-0.0102658 -0.0735961 -4.74526e-18)
(0.00240621 -0.0490663 -3.04882e-17)
(0.00458821 -0.0545215 1.95358e-17)
(-0.0108014 -0.0503177 1.64252e-17)
(-0.00290268 -0.0787998 -4.59537e-18)
(-0.00575764 -0.063611 1.91763e-17)
(0.000709258 -0.079578 -4.18068e-17)
(0.00213818 -0.0613505 2.72342e-17)
(-0.0041179 -0.0635192 -3.22945e-17)
(0.00175819 -0.0744999 3.20267e-17)
(0.0019269 -0.0718978 -4.1325e-17)
(0.00280053 -0.0540798 3.33421e-17)
(-0.00046352 -0.0835139 -2.29828e-17)
(-0.00431501 -0.0514162 0)
(-0.00306164 -0.0799633 0)
(0.00118558 -0.0791469 2.29733e-17)
(0.0207481 -0.0785769 -2.22755e-17)
(-0.00201499 -0.0823904 -3.68133e-17)
(0.000419627 -0.0799708 0)
(-0.00175103 -0.0830121 -2.30099e-17)
(-0.00082314 -0.0856399 0)
(-0.00291361 -0.0720922 -1.83835e-17)
(-0.00301175 -0.0656258 0)
(-0.00256374 -0.0827021 1.83833e-17)
(0.00448231 -0.0573526 0)
(-0.00263049 -0.0753624 5.51928e-17)
(-0.0891641 -0.092457 0)
(-0.00153925 -0.085457 -5.519e-17)
(-0.00237971 -0.0799793 3.68041e-17)
(-0.00158241 -0.0403202 0)
(-0.0112807 -0.0729345 0)
(-0.0487077 -0.0645785 0)
(-0.0141317 -0.0186421 0)
(-0.0367635 -0.11385 2.01633e-17)
(0.04372 -0.118426 -1.95568e-17)
(-0.00234988 -0.0499946 1.83985e-17)
(0.0041626 -0.0545481 2.32384e-17)
(-0.000988414 -0.0862036 -3.67781e-17)
(-0.00363611 -0.0648383 1.80711e-17)
(-0.000156573 -0.0821029 9.68625e-17)
(0.0712377 -0.0667331 4.87356e-18)
(0.00525902 -0.0574453 0)
(-0.0547832 -0.102755 -3.93713e-17)
(0.0849812 -0.075015 -5.83594e-17)
(0.00496748 -0.0665707 1.61697e-17)
(0.026746 -0.0421308 3.97613e-17)
(-0.00607097 -0.0126567 0)
(-0.000849116 -0.0821594 -6.94301e-17)
(0.0280081 0.00968285 4.0278e-17)
(0.0175437 -0.0251465 0)
(3.49977e-05 -0.0102155 0)
(-0.00308755 -0.0615412 1.3403e-17)
(0.00936158 -0.0166658 -1.81769e-17)
(-0.00963763 -0.0276424 5.2273e-17)
(0.0628408 -0.0882545 8.58316e-18)
(0.00817917 -0.013655 9.12896e-18)
(0.00218923 -0.0532194 -9.30206e-18)
(-0.00364477 -0.0605787 -3.19587e-17)
(-0.0395418 -0.110619 4.75505e-17)
(-0.0003951 -0.0853905 0)
(-0.00606324 -0.0542856 -5.45575e-18)
(-0.0118442 -0.0244746 4.93857e-17)
(0.00586647 -0.00533585 0)
(0.00419648 -0.0912725 -1.59921e-17)
(-0.00492 -0.0545864 0)
(-0.00161241 -0.0851343 -1.84271e-17)
(-0.002007 -0.0839648 7.843e-23)
(-0.00989972 -0.0198486 1.93923e-17)
(0.00150951 0.0039971 -1.07408e-17)
(-0.0703205 -0.0870086 0)
(-0.0121025 -0.061532 2.43678e-17)
(-0.0811965 -0.075107 0)
(0.00505241 -0.0549555 0)
(-0.00257137 -0.0533177 -1.32976e-17)
(-0.000545156 -0.0806396 3.70739e-17)
(-0.0113085 -0.0219272 -2.91946e-17)
(-0.00468272 0.00947694 -5.00357e-17)
(0.00158249 -0.0609934 0)
(-0.00844708 0.00988292 6.07682e-17)
(-0.00259058 -0.0828965 -5.51358e-17)
(-0.0388813 -0.113079 2.61541e-17)
(-0.0750718 -0.0632494 2.46776e-17)
(-0.00455161 -0.0150592 -1.02269e-17)
(-0.00807973 0.00488469 2.07667e-17)
(0.070935 -0.0853638 1.06538e-17)
(-0.048167 -0.0968111 0)
(-0.00219914 -0.0552735 -1.43334e-17)
(-0.00915722 -0.0699447 5.71917e-17)
(-0.00771683 -0.0425721 2.95954e-18)
(-0.00490021 -0.0471229 2.3325e-17)
(0.0325242 -0.0771016 2.17007e-17)
(-0.000130195 -0.0262191 1.84992e-17)
(-0.00189023 -0.083743 1.83812e-17)
(-0.00140602 -0.0805042 -4.19474e-17)
(0.0645725 -0.0901416 0)
(0.0165501 -0.109147 0)
(0.0839988 -0.0705836 -4.93988e-18)
(-0.000458974 -0.0745286 -1.4099e-17)
(0.0263102 -0.0932628 -5.51738e-18)
(-0.0485165 -0.0883828 2.02338e-17)
(-0.000553034 -0.0447387 0)
(3.48148e-05 -0.0787095 0)
(-0.00129683 -0.0719031 -3.78743e-17)
(-0.0296333 -0.103594 -1.94983e-17)
(-0.00451287 -0.0773933 4.67572e-17)
(-0.00121505 -0.0844463 4.59704e-18)
(0.00168466 -0.0568814 0)
(-0.00183857 -0.030701 2.14936e-17)
(-0.00111664 -0.0788395 0)
(0.0125894 -0.132151 1.94276e-17)
(0.000456943 -0.0628037 0)
(0.0430113 -0.104622 0)
(0.0493494 -0.0564472 -2.47374e-17)
(0.00600659 -0.060533 -2.27494e-17)
(-0.045784 -0.105896 2.48802e-17)
(3.63453e-05 -0.0869169 5.01925e-24)
(-0.0063547 -0.0547131 -5.67619e-18)
(-0.00216799 -0.0785676 -1.86612e-17)
(0.0646666 -0.0685008 0)
(-0.0354544 -0.113706 -1.57322e-17)
(0.000160081 -0.0123075 -6.50674e-18)
(0.0336128 -0.0816785 -5.58417e-18)
(0.00588748 -0.0513547 0)
(-0.0464325 -0.0994756 0)
(-0.00204153 -0.0743928 0)
(0.00611265 -0.0553651 3.80129e-17)
(-0.00108308 -0.056335 1.95294e-17)
(0.00501972 -0.0617521 -2.22799e-17)
(-0.0114844 -0.0472772 1.59048e-17)
(-0.0095393 -0.0456041 -5.94243e-18)
(0.0740366 -0.0827094 -4.21866e-18)
(-0.000817316 -0.0689094 0)
(0.00150794 -0.0703529 2.87522e-17)
(-0.0077442 -0.0476832 0)
(-0.01161 -0.0496214 -2.13522e-17)
(0.00592695 -0.0945889 1.02986e-17)
(0.0784945 -0.0564769 0)
(-0.0521468 -0.105987 -4.19201e-18)
(0.0332166 -0.0491826 -3.9408e-17)
(-0.0077464 -0.0307838 -1.29991e-17)
(0.025375 -0.0676593 0)
(-0.0317853 -0.107105 3.89683e-17)
(0.00644389 -0.0570107 -5.65965e-17)
(0.0295315 -0.110208 0)
(-0.00191102 -0.0767027 5.146e-17)
(0.00101176 -0.0583665 1.47811e-19)
(0.0194024 -0.0321988 0)
(-0.0132391 -0.0454436 0)
(0.054402 -0.0564222 0)
(-0.0593012 -0.0911141 1.94355e-17)
(-0.000698695 -0.0870536 3.72496e-17)
(-0.0387322 -0.0741185 0)
(-0.00461458 -0.0941205 0)
(-0.000150991 -0.076189 1.89698e-17)