/*--------------------------------*- C++ -*----------------------------------*\
  =========                 |
  \\      /  F ield         | OpenFOAM: The Open Source CFD Toolbox
   \\    /   O peration     | Website:  https://openfoam.org
    \\  /    A nd           | Version:  9
     \\/     M anipulation  |
\*---------------------------------------------------------------------------*/
FoamFile
{
    format      ascii;
    class       volScalarField;
    location    "1.06";
    object      p;
}
// * * * * * * * * * * * * * * * * * * * * * * * * * * * * * * * * * * * * * //

dimensions      [0 2 -2 0 0 0 0];

internalField   nonuniform List<scalar> 
1655
(
11.5992
11.633
11.5081
11.5854
11.4921
11.5156
11.5146
11.4552
11.4372
11.4933
11.5939
11.5945
11.4584
11.6713
11.4425
11.5883
11.5647
11.4406
11.5411
11.6721
11.6043
11.436
11.4756
11.4778
11.5979
11.5624
11.5893
11.4416
11.4435
11.6088
11.5316
11.5005
11.6685
11.4977
11.4428
11.4975
11.5129
11.6353
11.6716
11.6312
11.6023
11.4817
11.674
11.5488
11.6462
11.5868
11.583
11.6478
11.5002
11.6729
11.518
11.5063
11.4373
11.4404
11.442
11.4585
11.595
11.5947
11.5867
11.452
11.5274
11.5315
11.6005
11.4545
11.5549
11.5271
11.5675
11.5919
11.4415
11.4811
11.5932
11.5203
11.61
11.4455
11.5072
11.6562
11.4459
11.4434
11.5977
11.6088
11.5568
11.6546
11.4396
11.5501
11.6125
11.4609
11.5072
11.6081
11.6209
11.4627
11.4646
11.5043
11.5432
11.5023
11.6665
11.5383
11.5667
11.5887
11.4972
11.647
11.5053
11.562
11.4989
11.56
11.4361
11.5285
11.4549
11.6086
11.6485
11.462
11.6673
11.5957
11.4661
11.6152
11.4611
11.463
11.4576
11.5856
11.6184
11.4384
11.4674
11.5051
11.5148
11.5664
11.5645
11.4649
11.6728
11.6662
11.5836
11.6253
11.5059
11.6651
11.4558
11.4678
11.6087
11.6284
11.4894
11.4363
11.5976
11.5698
11.4423
11.5853
11.5768
11.5046
11.5506
11.5085
11.4953
11.461
11.4776
11.5381
11.5293
11.5463
11.5108
11.5182
11.4605
11.6743
11.554
11.4957
11.4583
11.5591
11.4957
11.6135
11.4416
11.4989
11.5037
11.5899
11.4424
11.4637
11.5642
11.4414
11.5632
11.4458
11.4828
11.45
11.6101
11.4527
11.5037
11.4431
11.6217
11.6743
11.4602
11.4466
11.5209
11.5686
11.6379
11.6258
11.6518
11.6259
11.4456
11.4492
11.6434
11.5341
11.4498
11.5112
11.6296
11.6089
11.4468
11.6298
11.6219
11.4501
11.5754
11.5756
11.5091
11.5186
11.4696
11.6018
11.6632
11.4515
11.6288
11.5007
11.5081
11.5107
11.6306
11.463
11.6742
11.5701
11.5004
11.6148
11.519
11.4529
11.6505
11.6071
11.6682
11.4569
11.6653
11.6327
11.6285
11.4673
11.5313
11.5388
11.6529
11.5559
11.5617
11.447
11.6596
11.6546
11.6332
11.4546
11.6251
11.5722
11.4572
11.64
11.5761
11.6079
11.4581
11.6066
11.544
11.4442
11.6254
11.4541
11.5462
11.6082
11.4735
11.506
11.6582
11.5147
11.6398
11.4611
11.4406
11.6688
11.6173
11.6181
11.6278
11.5172
11.4715
11.4645
11.6671
11.675
11.6636
11.6727
11.4309
11.4486
11.6425
11.6183
11.4485
11.4522
11.5483
11.4626
11.4428
11.6127
11.4463
11.4678
11.4538
11.4437
11.4509
11.4529
11.4505
11.6581
11.6645
11.4465
11.451
11.6045
11.6699
11.4474
11.4551
11.6483
11.4535
11.5263
11.6053
11.6316
11.6525
11.5027
11.5048
11.6428
11.6239
11.4453
11.6464
11.6219
11.4599
11.6232
11.4582
11.5536
11.6218
11.6149
11.4617
11.458
11.6028
11.4453
11.6194
11.6438
11.449
11.6699
11.6567
11.647
11.6508
11.5896
11.5909
11.465
11.6347
11.4784
11.6599
11.4534
11.6707
11.6182
11.4594
11.6212
11.4769
11.6679
11.6309
11.4565
11.6493
11.6377
11.4519
11.5442
11.4381
11.6417
11.6717
11.6453
11.6428
11.615
11.4678
11.471
11.5512
11.6537
11.4442
11.6188
11.6349
11.63
11.4634
11.6126
11.4476
11.6629
11.4432
11.6072
11.6616
11.454
11.6304
11.4768
11.4542
11.6448
11.6456
11.6574
11.6538
11.6254
11.4848
11.4627
11.4868
11.46
11.6498
11.6358
11.654
11.6071
11.467
11.6102
11.641
11.4467
11.6217
11.4617
11.4572
11.6206
11.5945
11.4736
11.4846
11.45
11.6366
11.6211
11.6152
11.4561
11.4452
11.4996
11.6262
11.6609
11.6043
11.4684
11.4824
11.6547
11.4506
11.4755
11.6379
11.4863
11.4935
11.5985
11.6104
11.4832
11.6532
11.5926
11.4533
11.5648
11.6135
11.6176
11.5037
11.6013
11.4946
11.6147
11.6198
11.5533
11.5696
11.6327
11.6178
11.5063
11.6376
11.4934
11.6171
11.4957
11.5954
11.5963
11.6433
11.4709
11.497
11.593
11.5779
11.6011
11.4785
11.6112
11.6074
11.596
11.5018
11.4811
11.5017
11.4747
11.5015
11.5734
11.498
11.6042
11.5019
11.5981
11.5021
11.6076
11.5061
11.4937
11.6097
11.598
11.6099
11.5756
11.5044
11.4664
11.6042
11.6109
11.5918
11.6071
11.6068
11.6482
11.6012
11.4794
11.5682
11.6042
11.6039
11.5944
11.5825
11.4929
11.6121
11.4886
11.5889
11.4942
11.599
11.5951
11.4927
11.4914
11.4847
11.6297
11.5643
11.4958
11.5894
11.5381
11.581
11.599
11.5496
11.4919
11.5939
11.5316
11.5718
11.6014
11.4946
11.5699
11.5581
11.5759
11.4927
11.5727
11.5789
11.4923
11.4884
11.58
11.528
11.5969
11.4915
11.5416
11.5745
11.5832
11.544
11.533
11.5492
11.5678
11.6093
11.5711
11.5378
11.5805
11.5782
11.5768
11.5847
11.5264
11.5744
11.4952
11.612
11.5772
11.524
11.6299
11.5013
11.597
11.5613
11.5885
11.5438
11.5181
11.5347
11.5827
11.6192
11.5134
11.6043
11.5704
11.5929
11.554
11.5947
11.585
11.5532
11.582
11.5833
11.5541
11.5068
11.597
11.5468
11.4941
11.5697
11.5519
11.5832
11.5057
11.5113
11.5312
11.5748
11.6138
11.4942
11.5189
11.6062
11.4996
11.498
11.5324
11.5107
11.5783
11.584
11.481
11.5437
11.6042
11.5812
11.5774
11.4988
11.5241
11.5484
11.5737
11.4949
11.5691
11.5524
11.5754
11.5954
11.562
11.5528
11.5422
11.5815
11.5374
11.6087
11.4634
11.5321
11.4975
11.5237
11.5335
11.5012
11.493
11.5409
11.5477
11.5096
11.4483
11.5875
11.5146
11.5875
11.5878
11.5688
11.5246
11.4857
11.5181
11.554
11.585
11.5866
11.5235
11.549
11.5733
11.5626
11.4981
11.5791
11.5527
11.5669
11.5592
11.5499
11.5566
11.5905
11.5468
11.5401
11.5751
11.5857
11.5311
11.583
11.5889
11.5888
11.58
11.5916
11.4944
11.5987
11.5865
11.5891
11.5084
11.5914
11.5758
11.5318
11.5682
11.5242
11.601
11.5804
11.5879
11.5924
11.5974
11.5837
11.5053
11.569
11.549
11.5889
11.511
11.5503
11.5849
11.5873
11.5007
11.5656
11.5882
11.5856
11.5955
11.5171
11.5461
11.5604
11.5099
11.5548
11.5607
11.512
11.5475
11.5008
11.5624
11.5077
11.5084
11.5531
11.5849
11.5434
11.559
11.5894
11.4741
11.5158
11.5204
11.539
11.5542
11.5176
11.5286
11.5922
11.5094
11.5629
11.5061
11.594
11.5923
11.5858
11.5913
11.6028
11.5491
11.5044
11.5049
11.5578
11.5748
11.5167
11.4977
11.5672
11.5516
11.5621
11.5784
11.5729
11.4879
11.5551
11.527
11.5911
11.5712
11.5322
11.5276
11.4609
11.5889
11.4716
11.5741
11.5129
11.5408
11.5802
11.5551
11.5693
11.5287
11.5106
11.5341
11.5219
11.5347
11.5052
11.5605
11.5287
11.5604
11.5673
11.5117
11.5985
11.5775
11.5197
11.5415
11.517
11.599
11.56
11.5571
11.516
11.5577
11.4914
11.5748
11.5653
11.5455
11.5401
11.523
11.6015
11.5217
11.5696
11.5656
11.507
11.5434
11.4832
11.5322
11.5574
11.5703
11.5132
11.4973
11.5731
11.5386
11.5427
11.4881
11.5671
11.5453
11.6054
11.5197
11.5459
11.5515
11.5252
11.5182
11.5114
11.5199
11.5382
11.5387
11.5318
11.5897
11.5246
11.553
11.547
11.5728
11.5216
11.4983
11.5045
11.6523
11.5626
11.484
11.5255
11.5439
11.5251
11.5071
11.5099
11.545
11.6015
11.5547
11.5065
11.5087
11.5804
11.5186
11.5605
11.6227
11.5947
11.5148
11.4895
11.5841
11.5093
11.5138
11.5143
11.5764
11.5567
11.5169
11.49
11.512
11.5665
11.5768
11.4922
11.4866
11.511
11.5502
11.4869
11.5015
11.5687
11.5183
11.5387
11.4902
11.5255
11.5008
11.531
11.5123
11.4474
11.5454
11.5801
11.5217
11.5278
11.5038
11.5838
11.5531
11.6215
11.4967
11.5306
11.6149
11.484
11.4945
11.52
11.5154
11.6219
11.4993
11.5006
11.5707
11.5187
11.492
11.4802
11.5876
11.4926
11.541
11.5151
11.5328
11.4984
11.4896
11.4903
11.4888
11.4744
11.5342
11.5679
11.6207
11.5209
11.6251
11.558
11.5879
11.4774
11.4737
11.5792
11.4943
11.5286
11.5654
11.532
11.5383
11.4936
11.4922
11.4929
11.4587
11.6342
11.5471
11.497
11.6272
11.4662
11.5627
11.4905
11.4571
11.5376
11.541
11.6275
11.5065
11.4995
11.4853
11.5509
11.4956
11.5408
11.6238
11.4882
11.5874
11.5876
11.4705
11.4903
11.4767
11.4835
11.5736
11.5384
11.6242
11.4956
11.4923
11.5274
11.557
11.4971
11.5242
11.4655
11.6246
11.481
11.4778
11.4782
11.6522
11.4752
11.4884
11.4925
11.6284
11.5446
11.5461
11.6231
11.4772
11.5313
11.5911
11.4948
11.493
11.5616
11.4942
11.4959
11.525
11.645
11.4903
11.4905
11.5342
11.4985
11.469
11.5916
11.6592
11.4945
11.5647
11.4991
11.4745
11.4775
11.5609
11.4799
11.4957
11.592
11.6401
11.4647
11.5641
11.5836
11.6583
11.6162
11.5355
11.639
11.549
11.4804
11.4921
11.6664
11.4824
11.5486
11.5354
11.4861
11.4717
11.6493
11.5913
11.6358
11.4884
11.4931
11.4777
11.4932
11.4739
11.6359
11.4819
11.4937
11.4942
11.6269
11.4768
11.5951
11.4749
11.4802
11.4762
11.4837
11.4856
11.6279
11.4792
11.4737
11.4816
11.6272
11.4671
11.6441
11.6495
11.6399
11.4841
11.4784
11.6584
11.4778
11.4698
11.4714
11.6344
11.6385
11.6316
11.467
11.6012
11.4655
11.4723
11.6352
11.6498
11.4758
11.6486
11.4699
11.6304
11.5815
11.6227
11.5955
11.6378
11.6576
11.6638
11.4589
11.4677
11.6477
11.4972
11.6403
11.5912
11.5406
11.4589
11.634
11.6533
11.6382
11.4702
11.4614
11.6479
11.6281
11.6549
11.6431
11.6428
11.5994
11.4512
11.6388
11.4667
11.4661
11.4395
11.4349
11.6571
11.538
11.6482
11.5801
11.4947
11.6435
11.4687
11.4861
11.4654
11.4597
11.6403
11.6448
11.4839
11.4623
11.6688
11.4711
11.6002
11.6047
11.4746
11.4577
11.6169
11.48
11.4613
11.4486
11.6039
11.4584
11.4625
11.4355
11.6766
11.4706
11.6084
11.4713
11.4697
11.4705
11.4756
11.4478
11.4923
11.4355
11.6397
11.4649
11.5058
11.455
11.4677
11.4533
11.4577
11.5015
11.6051
11.4518
11.6386
11.4661
11.6119
11.4808
11.6331
11.5024
11.665
11.6342
11.4818
11.462
11.4544
11.6197
11.6317
11.6154
11.4353
11.4534
11.4549
11.4805
11.5415
11.5296
11.4766
11.4745
11.6261
11.6238
11.6667
11.4512
11.47
11.6309
11.4625
11.5303
11.4645
11.487
11.5431
11.6115
11.4685
11.4631
11.4912
11.4702
11.4967
11.4357
11.5629
11.5533
11.4837
11.4656
11.6255
11.4718
11.4786
11.481
11.6652
11.4639
11.6178
11.6796
11.5551
11.5646
11.4615
11.4735
11.4944
11.5769
11.5702
11.4944
11.4863
11.4843
11.4833
11.467
11.5717
11.4592
11.6287
11.6118
11.488
11.581
11.4794
11.482
11.6593
11.4735
11.4371
11.4678
11.6142
11.6159
11.5643
11.4683
11.4846
11.5911
11.6235
11.6162
11.4566
11.6072
11.6136
11.4345
11.456
11.6628
11.4977
11.491
11.6124
11.5943
11.5978
11.6298
11.6081
11.4614
11.5983
11.6108
11.677
11.6203
11.5851
11.6093
11.6212
11.5946
11.6099
11.6065
11.613
11.5376
11.4843
11.4886
11.493
11.6622
11.5365
11.6195
11.5042
11.6173
11.5597
11.579
11.6469
11.487
11.6248
11.4969
11.5011
11.5594
11.5002
11.4434
11.5967
11.6028
11.6269
11.5882
11.493
11.5744
11.4956
11.4962
11.6014
11.4939
11.6128
11.4663
11.6023
11.5832
11.5979
11.5747
11.6565
11.6143
11.4359
11.5855
11.5844
11.4541
11.6109
11.6057
11.5947
11.5946
11.6045
11.6017
11.6184
11.626
11.6193
11.6573
11.6218
11.5942
11.5986
11.5822
11.5784
11.6085
11.6747
11.618
11.6493
11.5764
11.6314
11.5914
11.5924
11.6052
11.5714
11.4941
11.4955
11.6108
11.5783
11.598
11.5879
11.6307
11.4402
11.4368
11.6343
11.437
11.581
11.4409
11.6127
11.4375
11.4375
11.5779
11.5491
11.6184
11.5212
11.4913
11.4894
11.6072
11.4921
11.4406
11.4739
11.4797
11.6165
11.4897
11.5794
11.5715
11.4512
11.568
11.4398
11.5723
11.6022
11.4418
11.567
11.4351
11.6168
11.5392
11.5659
11.5636
11.4491
11.4466
11.4429
11.6762
11.5511
11.4362
11.6775
11.553
11.4358
11.5454
11.5523
11.5978
11.5263
11.5211
11.5594
11.5964
11.5411
11.5317
11.5159
11.5366
11.6026
11.555
11.5948
11.5479
11.5511
11.5989
11.5293
11.5188
11.5572
11.6012
11.5958
11.5396
11.4904
11.5676
11.5389
11.6148
11.4789
11.4822
11.567
11.6319
11.6191
11.6092
11.6728
11.6391
11.5569
11.4686
11.6099
11.606
11.4451
11.6706
11.6511
11.5805
11.625
11.4812
11.6172
11.6555
11.4463
11.6289
11.6374
11.5974
11.5179
11.6381
11.4365
11.6081
11.6097
11.6346
11.6725
11.5499
11.6723
11.5424
11.439
11.4732
11.6749
11.4491
11.6422
11.439
11.6468
11.6095
11.5488
11.5999
11.438
11.4754
11.6617
11.6019
11.4512
11.5804
11.6121
11.6388
11.5269
11.4717
11.6597
11.5114
11.559
11.5938
11.6602
11.6685
11.6508
11.464
11.4947
11.6478
11.6516
11.4909
11.6795
11.6003
11.6137
11.6173
11.6591
11.6553
11.5015
11.57
11.5788
11.6278
11.4361
11.435
11.5912
11.6586
11.6635
11.6638
11.5632
11.435
11.448
11.62
11.4724
11.5597
11.48
11.5533
11.609
11.6779
11.4277
11.4898
11.563
11.5336
11.4865
11.4551
11.4706
11.5109
11.6765
11.511
11.459
11.6098
11.4278
11.6672
11.503
11.6754
11.4912
11.4649
11.6446
11.5742
11.5724
11.676
11.6434
11.5919
11.4438
11.6399
11.4979
11.6275
11.4417
11.4989
11.4467
11.6646
11.4362
11.6122
11.4946
11.4566
11.6736
11.5373
11.4707
11.4928
11.474
11.495
11.5065
11.498
11.4949
11.4999
11.4964
11.5749
11.5728
11.4413
11.6213
11.4843
11.6115
11.5788
11.5814
11.4447
11.4386
11.5927
11.5067
11.5614
11.6653
11.6697
11.5653
11.6112
11.5778
11.653
11.4967
11.6362
11.624
11.6157
11.6502
11.6661
11.4425
11.6038
11.4725
11.5005
11.6268
11.4383
11.6576
11.4649
11.443
11.433
11.582
11.6713
11.4392
11.5087
11.5455
11.6353
11.4682
11.4964
11.5085
11.5964
11.6725
11.6679
11.4793
11.5646
11.5453
11.4876
11.6441
11.6622
11.5385
11.4505
11.5089
11.67
11.4637
11.6414
11.5367
11.5958
11.4401
11.4614
11.6615
11.4351
11.5819
11.5973
11.4723
11.6742
11.5846
11.4855
11.604
11.5237
11.4476
11.4863
11.4373
11.6419
11.4987
11.4351
11.6339
11.5493
11.5746
11.6629
11.6788
11.442
11.5512
11.489
11.6247
11.5037
11.4974
11.6557
11.5733
11.431
11.5924
11.5725
11.6097
11.452
11.4344
11.4506
11.5237
11.4365
11.4929
11.6588
11.6673
11.4522
11.552
11.5262
11.6651
11.4529
11.6353
11.6065
11.4393
11.4606
11.675
11.451
11.669
11.496
11.5688
11.5571
11.6235
11.4888
11.673
11.4763
11.4728
11.4951
11.6758
11.4878
11.5806
11.5799
11.5742
11.4991
11.4987
11.6076
11.5524
11.6136
11.6744
11.6056
11.4464
11.6738
11.614
11.4435
11.6698
11.4862
11.6152
11.4755
11.6686
11.4893
11.4397
11.654
11.4822
11.6578
11.4887
11.439
)
;

boundaryField
{
    back
    {
        type            empty;
    }
    front
    {
        type            empty;
    }
    top
    {
        type            zeroGradient;
    }
    outer_arc
    {
        type            zeroGradient;
    }
    bottom
    {
        type            uniformFixedValue;
        uniformValue    
        {
            type            table;
            format          csv;
            file            "outlet_p.csv";
            nHeaderLine     1;
            refColumn       0;
            componentColumns List<label> 1(1);
            separator       ",";
            mergeSeparators 0;
        }
        value           uniform 11.4339;
    }
    inner_arc
    {
        type            zeroGradient;
    }
}


// ************************************************************************* //
