/*--------------------------------*- C++ -*----------------------------------*\
  =========                 |
  \\      /  F ield         | OpenFOAM: The Open Source CFD Toolbox
   \\    /   O peration     | Website:  https://openfoam.org
    \\  /    A nd           | Version:  9
     \\/     M anipulation  |
\*---------------------------------------------------------------------------*/
FoamFile
{
    format      ascii;
    class       surfaceScalarField;
    location    "0.53";
    object      phi;
}
// * * * * * * * * * * * * * * * * * * * * * * * * * * * * * * * * * * * * * //

dimensions      [0 3 -1 0 0 0 0];

internalField   nonuniform List<scalar> 
122
(
2.70316e-08
-1.91095e-08
-7.92215e-09
-2.625e-08
2.19137e-08
4.33634e-09
-3.71977e-08
3.52145e-08
1.98317e-09
-6.09391e-09
-3.11038e-08
-2.43293e-08
2.43293e-08
3.5389e-08
-2.83984e-08
-6.99057e-09
-1.41556e-08
3.67058e-08
-2.25501e-08
8.19144e-09
2.71976e-08
1.91095e-08
2.45957e-10
-1.93555e-08
-2.19137e-08
1.6085e-08
5.82871e-09
8.24437e-09
-2.24e-08
-1.6085e-08
1.82354e-08
8.26006e-09
2.69545e-08
5.60194e-09
-2.60223e-08
2.58038e-10
2.57643e-08
1.97829e-08
-1.97829e-08
2.0171e-08
-2.0171e-08
-1.30501e-08
3.74446e-08
-2.43945e-08
-2.49728e-09
-2.3525e-08
1.86267e-11
-2.84171e-08
9.79963e-09
-2.28497e-08
1.98015e-08
2.58272e-08
-5.65624e-09
-1.10222e-08
1.92822e-08
-3.0454e-08
3.07e-08
-1.93555e-08
-8.5493e-10
-1.89279e-08
-2.64395e-08
-1.97756e-09
-2.72944e-08
1.16937e-08
-1.16937e-08
1.82354e-08
-1.8928e-08
1.82007e-08
-1.82007e-08
-1.97032e-09
2.93959e-08
-3.13662e-08
3.92161e-09
-3.12161e-08
2.10319e-08
-2.8954e-08
-1.6367e-08
-1.23341e-08
-1.80149e-08
2.23512e-08
1.52176e-08
1.10324e-08
-1.40603e-09
2.83605e-08
3.13791e-08
-1.65713e-08
-1.79426e-08
-1.79426e-08
5.35472e-10
-2.69076e-08
2.63721e-08
6.89926e-09
8.30738e-09
2.07118e-08
-2.01763e-08
-1.66095e-08
8.23512e-09
-2.15784e-08
5.21139e-09
-9.55583e-09
9.55583e-09
2.13791e-09
-2.57228e-08
2.43168e-08
-9.61186e-09
9.61186e-09
-2.50474e-08
-1.92675e-08
-5.77993e-09
7.21326e-09
-2.39861e-09
-7.21325e-09
2.29859e-08
5.37458e-09
-1.3387e-08
-2.08187e-09
1.68836e-08
6.41454e-09
-6.41455e-09
-2.89435e-08
2.22582e-08
-1.74596e-09
)
;

boundaryField
{
    back
    {
        type            empty;
        value           nonuniform List<scalar> 0();
    }
    front
    {
        type            empty;
        value           nonuniform List<scalar> 0();
    }
    bottom
    {
        type            calculated;
        value           nonuniform List<scalar> 4(-2.625e-08 -2.625e-08 -2.625e-08 -2.625e-08);
    }
    outer_arc
    {
        type            calculated;
        value           uniform 0;
    }
    right
    {
        type            calculated;
        value           nonuniform List<scalar> 4(2.70316e-08 2.87011e-08 3.76413e-08 1.16259e-08);
    }
    inner_arc
    {
        type            calculated;
        value           uniform 0;
    }
}


// ************************************************************************* //
