/*--------------------------------*- C++ -*----------------------------------*\
  =========                 |
  \\      /  F ield         | OpenFOAM: The Open Source CFD Toolbox
   \\    /   O peration     | Website:  https://openfoam.org
    \\  /    A nd           | Version:  9
     \\/     M anipulation  |
\*---------------------------------------------------------------------------*/
FoamFile
{
    format      ascii;
    class       surfaceScalarField;
    location    "0.41";
    object      phi;
}
// * * * * * * * * * * * * * * * * * * * * * * * * * * * * * * * * * * * * * //

dimensions      [0 3 -1 0 0 0 0];

internalField   nonuniform List<scalar> 
816
(
-5.02e-11
-8.3e-10
8.81e-10
-5.48e-11
-1.37e-09
1.42e-09
1.26e-09
-1.31e-09
1.56e-09
-1.59e-09
2.53e-11
8.86e-10
-8.86e-10
1.61e-09
3.25e-10
-1.93e-09
9.12e-10
-9.12e-10
-8.46e-10
8.46e-10
-1.54e-09
-7.94e-11
1.62e-09
-7.12e-10
6.57e-10
2.36e-09
-7.59e-10
1.9e-09
-1.35e-09
-5.55e-10
3.29e-10
1.34e-09
-1.67e-09
1.89e-09
-1.7e-09
-1.92e-10
1.89e-09
-1.6e-09
-2.87e-10
-1.37e-09
2.2e-09
-8.31e-10
4.94e-10
5.05e-10
-9.99e-10
-1.74e-09
1.46e-10
1.6e-09
2.31e-10
1.67e-09
7.46e-10
-2.29e-09
1.21e-09
3.53e-10
1.89e-10
-1.56e-09
9.45e-10
-1.81e-10
-7.64e-10
-1.16e-09
-5.45e-10
1.71e-09
-1.27e-09
1.07e-10
-1.59e-09
3.67e-10
1.23e-09
-1.43e-09
1.56e-09
-1.28e-10
-1.44e-11
4.83e-10
-4.68e-10
4.35e-10
-1.8e-09
7.33e-10
1.47e-09
-9.82e-10
9.68e-10
-1.2e-09
1.53e-09
2.43e-09
-1.7e-09
-1.87e-09
9.49e-10
9.21e-10
1.63e-10
1.72e-09
-3.86e-10
1.85e-09
1.66e-10
1.72e-09
-2.77e-10
-1.32e-09
-2.32e-09
8.41e-10
1.48e-09
5.77e-10
3.09e-10
-7.2e-10
-6.15e-10
5.69e-10
-1.6e-09
4.77e-12
-1.06e-09
-3.73e-10
1.43e-09
5.83e-10
3.29e-10
-7.49e-10
1.54e-09
-1.62e-09
-1.07e-09
-1.31e-09
-1.22e-10
-4.62e-11
5.77e-10
-5.31e-10
1.56e-09
-1.23e-09
8.99e-10
4.67e-11
-7.04e-10
-1.17e-09
8.85e-10
7.31e-10
5.01e-10
-1.75e-09
1.25e-09
-1.81e-10
-1.06e-09
1.83e-09
-1.34e-09
7.02e-10
-1.09e-09
9e-11
-2.7e-10
7.75e-10
9.21e-10
-7.75e-10
-4.87e-11
-1.65e-09
-9.16e-10
-1.15e-09
2.06e-09
-1.63e-09
3.14e-11
1.55e-09
8.77e-10
1.01e-09
1.35e-09
-6.95e-10
2.07e-09
-1.38e-09
3.67e-10
1.29e-09
-1.65e-09
-3.18e-10
-1.25e-09
8.1e-10
-1.73e-09
1.3e-09
6.95e-10
-1.99e-09
7.46e-10
1.31e-09
-2.06e-09
7.69e-10
-7.69e-10
-9.26e-10
1.67e-09
-1.32e-09
3.97e-10
2.15e-09
3.08e-10
5.73e-10
-8.81e-10
-1.89e-09
1.52e-10
1.74e-09
-8.3e-10
8.5e-10
-8.5e-10
-8.99e-10
8.99e-10
8.74e-10
-1.78e-09
9.08e-10
-6.71e-10
-2.42e-10
5.77e-10
-1.39e-09
1.89e-09
-2.19e-11
-1.33e-09
1.35e-09
-1.18e-09
-5.96e-11
1.23e-09
5.74e-10
-7.84e-10
1.66e-09
-1.21e-11
-1.43e-09
1.44e-09
1.24e-09
8.07e-10
-2.05e-09
-1.53e-09
1.32e-10
1.39e-09
-1.52e-09
-8.4e-10
-9.38e-10
-7.12e-10
-1.09e-10
1.83e-09
3.18e-11
-1.67e-09
-1.1e-09
1.47e-09
-1.78e-09
1.26e-09
5.18e-10
1.15e-09
9.97e-10
6.2e-10
-1.58e-10
1.88e-09
-1.19e-09
7.2e-10
-6.71e-10
-8.32e-11
-6.85e-10
7.37e-10
1.12e-09
1.65e-09
1.39e-09
-1.93e-09
5.36e-10
-6.19e-10
-1.16e-09
-4.75e-10
-1.11e-09
-2.01e-10
-1.47e-09
1.67e-09
6.1e-11
-1.24e-09
1.76e-09
-7.68e-10
-8.56e-11
1.31e-09
-1.07e-09
1.73e-10
3.57e-10
1.3e-09
-9.33e-11
-2.22e-10
1.33e-09
-1.58e-09
2.51e-10
-1.01e-09
-8.85e-10
-1.48e-09
1.07e-09
4.04e-10
-1.29e-09
-3.5e-10
1.65e-09
-3.65e-11
-1.61e-09
1.69e-09
-3.6e-10
-4.65e-10
1.71e-09
-4.83e-10
4.83e-10
1.52e-09
1.31e-10
1.84e-11
-1.53e-09
1.51e-09
1.41e-11
-1.36e-09
-1.58e-09
-3.54e-10
1.18e-09
-1.22e-09
1.18e-11
-5.68e-10
5.56e-10
3.98e-10
1.19e-09
3.03e-11
1.22e-09
-1.25e-09
-5.69e-10
-5.27e-11
1.54e-09
1.88e-10
8.86e-10
-1.07e-09
-8.87e-10
6.27e-10
2.6e-10
-1.46e-09
1.1e-09
-1.74e-09
-7.03e-11
1.81e-09
-6.6e-10
6.6e-10
7.02e-10
8.99e-11
3.93e-10
-1.51e-10
-1.69e-09
1.84e-09
-3.07e-11
-1.27e-09
1.73e-09
-1.29e-09
-3.33e-10
1.54e-09
-1.21e-09
5.73e-10
1.89e-10
-1.93e-09
-1.46e-09
-5.68e-10
-1.52e-09
1.45e-09
-5.78e-10
5.78e-10
-1.27e-09
-5.48e-10
1.29e-09
-1.44e-09
-9.66e-10
6.33e-10
-7.48e-10
2.49e-09
-1.74e-09
-1.6e-10
-1.36e-09
6.15e-10
-6.01e-10
-6.53e-10
6.71e-10
8.8e-11
-4.81e-10
3.93e-10
2.13e-11
1.27e-09
1.29e-09
7.73e-10
-8.52e-10
2.14e-09
-1.54e-09
-8.94e-10
7.34e-10
9.44e-12
-1.24e-09
1.23e-09
6.31e-10
-6.1e-10
1.73e-10
-1.55e-09
1.37e-09
1.15e-09
-1.39e-09
1.3e-09
-6.26e-12
-1.52e-09
-8.87e-10
-1.09e-09
-7.3e-10
-7.47e-10
-1.65e-09
-1.52e-10
1.8e-09
-5.67e-10
5.77e-10
-1.62e-09
-1.56e-10
1.78e-09
1.5e-09
-5.14e-11
-1.36e-09
-7.68e-11
-6.57e-10
-1.47e-09
2.33e-09
-8.6e-10
-6.33e-10
6e-10
3.24e-11
-6.27e-10
5.97e-10
-1.53e-09
1.52e-09
1.55e-11
1.43e-09
-1.35e-09
-8.16e-11
-9.66e-10
2.11e-09
-6.28e-10
-2.22e-10
-2.22e-09
1.39e-09
7.53e-10
6.6e-11
-2e-11
-1.44e-09
-7.19e-11
9.58e-10
-1.93e-09
-8.38e-11
1.6e-09
2.27e-09
-8.84e-10
1.11e-09
1.04e-09
2.6e-10
3.21e-10
-3.93e-10
1.62e-09
1.16e-09
1.13e-10
-9.95e-10
1.09e-09
6.82e-10
-7.34e-10
-6.87e-10
6.1e-10
-9.86e-10
-1.5e-09
2.4e-09
-8.98e-10
-5.67e-10
-6.28e-10
-4.81e-10
-4.1e-10
-1.12e-09
-8.94e-10
6.82e-10
-6.87e-10
-4.84e-10
-7.25e-11
9.51e-10
-8.79e-10
6.31e-10
8.34e-10
6.34e-11
5.97e-10
5.56e-10
-5.77e-10
-1.35e-10
-6.53e-10
-1.2e-09
-8.08e-10
2.01e-09
1.41e-09
-1.71e-10
-1.41e-09
5.02e-11
1.48e-09
1.3e-10
-3.21e-10
1.91e-10
-5.31e-10
1.26e-09
-1.67e-09
1.04e-11
1.95e-09
-1.92e-09
3.21e-10
-3.93e-10
6e-10
6.26e-10
-1.25e-10
3.17e-10
-6.52e-10
-1.92e-10
-1.63e-09
3e-10
8.83e-10
1.51e-09
1.22e-09
-1.46e-09
2.34e-09
-1.63e-09
4.29e-10
3.21e-10
-6.71e-10
-8.37e-10
-1.31e-09
2.15e-09
6.01e-10
-2.27e-09
-8.73e-10
2.39e-09
-8.99e-10
2.31e-09
1.51e-09
7.54e-11
-3.95e-10
3.95e-10
-7.13e-10
-1.01e-09
1.43e-09
1.43e-09
1.06e-09
-5.33e-10
5.33e-10
-6.26e-10
-4.42e-10
-6.66e-10
5.48e-10
1.18e-10
6.66e-10
-1.34e-10
-3.01e-10
-7.13e-10
-1.46e-09
-1.53e-09
2.85e-10
-2.4e-09
8.69e-10
1.53e-09
-8.93e-10
2.06e-10
-1.42e-09
2.36e-09
-9.42e-10
-2.3e-09
8.78e-10
6.58e-10
-1.36e-09
2.23e-09
1.24e-09
-2.11e-09
-1.99e-10
1.29e-10
7.85e-10
-1.19e-09
1.49e-09
-7.59e-10
-1.16e-09
1.92e-09
-1.47e-09
2.42e-09
-9.29e-10
1.69e-09
7.71e-10
1.65e-09
2.03e-09
-1.93e-09
-1.95e-09
1.03e-09
1.47e-09
-2.45e-09
1.55e-09
-7.18e-10
1.52e-09
-2.97e-10
-1.41e-09
-6.95e-10
7.92e-10
1.57e-09
2.35e-09
-3.65e-10
-1e-09
1.37e-09
-5.16e-10
5.16e-10
-4.71e-10
4.71e-10
5.71e-10
-5.71e-10
5.55e-10
-5.55e-10
5.77e-10
5.83e-10
1.46e-09
-1.96e-09
5e-10
-7.49e-10
1.46e-09
8.94e-10
7.45e-10
-7.45e-10
-6.85e-10
7.13e-10
-7.13e-10
-2.07e-09
7.82e-10
1.29e-09
-2.7e-10
-2.25e-09
1.39e-09
8.6e-10
-5.23e-10
5.23e-10
-1.88e-09
7.62e-10
1.12e-09
-6.8e-10
-1.42e-09
-1.23e-09
9.21e-10
-6.22e-10
1.32e-09
-5.24e-10
-1.79e-09
-1.84e-09
8.99e-10
5.65e-10
5.45e-11
8.48e-11
8.11e-12
-1.01e-09
-2.19e-09
1.22e-09
9.76e-10
-1.41e-09
-6.63e-10
-4.51e-10
-5.24e-11
6.7e-10
-1.68e-09
6.76e-10
-9.15e-10
-1.25e-09
2.36e-09
-7.61e-10
-1.15e-09
4.43e-10
7.03e-10
-1.58e-10
-1.55e-09
3.55e-11
1.52e-09
-4.7e-10
5.02e-10
-5.02e-10
-2.89e-11
-9.64e-10
-8.4e-10
-1.08e-09
1.7e-09
1.54e-09
-4.26e-10
-1.53e-09
-1.07e-09
6.62e-11
1.99e-09
-1.07e-09
-7.16e-10
-1.59e-09
-1.14e-09
-1.47e-09
-2.78e-10
-1.05e-09
-4.32e-10
-9.99e-10
-6.97e-10
-1.29e-09
-1.87e-09
-4.11e-10
1.48e-09
-1.25e-09
-1.16e-09
-1.47e-09
1.27e-09
-1.58e-09
3.08e-10
-6.49e-10
-2.51e-10
-1.36e-10
1.38e-09
-6.49e-10
-3.98e-10
1.99e-09
2.6e-10
-2.25e-09
2.17e-09
6.3e-10
8e-10
-9.77e-10
1.65e-09
5.77e-10
-5.77e-10
1.33e-09
3.22e-10
7.3e-10
1.32e-10
-1.37e-09
1.34e-09
-1.77e-09
1.91e-09
1.08e-09
9.62e-10
-1.66e-09
6.97e-10
6.04e-11
1.89e-09
-6.06e-10
1.08e-09
1.57e-09
-1.31e-09
4.63e-11
4.83e-10
-1.21e-09
5.3e-10
6.7e-10
6.4e-10
1.09e-09
-1.4e-09
2.31e-10
-1.1e-09
6.13e-11
1.31e-09
-1.16e-09
1.3e-09
3.72e-10
-1.23e-09
6.07e-10
-3.4e-11
5.39e-10
-1.83e-09
-1.26e-10
-2.07e-09
3.09e-10
-9.39e-11
4.98e-10
2.04e-10
-1.23e-09
1.65e-09
1.72e-10
-1.72e-09
-4.68e-10
6.07e-10
1.22e-09
-9.63e-10
-1.22e-09
-7.44e-10
1.14e-09
7.44e-10
-1.26e-09
4.98e-10
6.3e-10
-1.71e-09
-1.83e-09
1.69e-09
-5.22e-11
-1.06e-09
-8.3e-10
8.3e-10
5.4e-10
-1.61e-09
-8.48e-10
8.48e-10
-1.34e-09
-1.69e-09
-1.3e-09
-1.33e-09
7.86e-10
7.6e-10
1.57e-09
-4.34e-10
-1.19e-09
1.21e-09
1.39e-09
-1.8e-09
8.37e-10
-1.03e-09
1.09e-09
-1.26e-09
-9.07e-10
-7.53e-10
-9.3e-10
-3.19e-10
-1.28e-09
-4.13e-10
7.58e-10
-1.03e-09
9.78e-10
2.15e-10
1.47e-09
5.49e-11
-1.68e-09
-1.6e-09
-9.59e-10
-1.49e-10
-1.34e-09
-5.65e-11
-1.18e-10
-2.48e-10
-8.15e-10
7.46e-10
1.75e-09
-2.11e-10
-9.98e-10
5.22e-11
9.51e-10
1.29e-09
-1.35e-09
-1.32e-09
-1.4e-09
-1.5e-09
-5.42e-10
4.41e-10
1.95e-10
)
;

boundaryField
{
    front
    {
        type            empty;
        value           nonuniform List<scalar> 0();
    }
    back
    {
        type            empty;
        value           nonuniform List<scalar> 0();
    }
    bottom
    {
        type            calculated;
        value           nonuniform List<scalar> 
12
(
9.13e-10
1.64e-09
1.53e-09
1.55e-09
7.82e-10
1.91e-10
1.92e-10
1.31e-09
1.7e-09
1.41e-09
7.86e-10
9e-10
)
;
    }
    left
    {
        type            calculated;
        value           uniform 0;
    }
    top
    {
        type            calculated;
        value           nonuniform List<scalar> 8(-1.62e-09 -1.62e-09 -1.61e-09 -1.61e-09 -1.61e-09 -1.62e-09 -1.62e-09 -1.61e-09);
    }
    right
    {
        type            calculated;
        value           uniform 0;
    }
    inner_arc
    {
        type            calculated;
        value           uniform 0;
    }
}


// ************************************************************************* //
