/*--------------------------------*- C++ -*----------------------------------*\
  =========                 |
  \\      /  F ield         | OpenFOAM: The Open Source CFD Toolbox
   \\    /   O peration     | Website:  https://openfoam.org
    \\  /    A nd           | Version:  9
     \\/     M anipulation  |
\*---------------------------------------------------------------------------*/
FoamFile
{
    format      ascii;
    class       surfaceScalarField;
    location    "0.09";
    object      phi;
}
// * * * * * * * * * * * * * * * * * * * * * * * * * * * * * * * * * * * * * //

dimensions      [0 3 -1 0 0 0 0];

internalField   nonuniform List<scalar> 
816
(
2.86e-10
-7.24e-09
6.95e-09
-1.26e-09
-1.34e-08
1.47e-08
1.15e-08
-1.12e-08
1.88e-08
-1.87e-08
-1.92e-10
7.55e-09
-7.55e-09
1.67e-08
3.16e-09
-1.99e-08
7.95e-09
-7.95e-09
-8.74e-09
8.74e-09
-1.47e-08
-2.94e-09
1.77e-08
-7.63e-09
6.37e-09
2.41e-08
-7.4e-09
2.07e-08
-1.45e-08
-6.22e-09
4.98e-09
1.16e-08
-1.66e-08
1.98e-08
-1.9e-08
-8.4e-10
1.99e-08
-1.81e-08
-1.84e-09
-1.27e-08
1.99e-08
-7.23e-09
3.87e-09
7.81e-09
-1.17e-08
-1.93e-08
1.93e-09
1.74e-08
2.46e-09
1.82e-08
8.15e-09
-2.29e-08
1.41e-08
4.75e-09
1.14e-09
-1.38e-08
1.27e-08
-2.42e-09
-1.03e-08
-1.32e-08
-5.47e-09
1.87e-08
-1.43e-08
1.11e-09
-1.75e-08
3.83e-09
1.36e-08
-1.68e-08
1.89e-08
-2.1e-09
3.41e-10
5.86e-09
-6.2e-09
5.39e-09
-1.88e-08
6.99e-09
1.29e-08
-1.16e-08
1.19e-08
-1.3e-08
1.62e-08
2.5e-08
-1.8e-08
-2.07e-08
1.04e-08
1.03e-08
1.24e-09
1.87e-08
-3.66e-09
1.66e-08
1.25e-09
1.85e-08
-3.11e-09
-1.43e-08
-2.09e-08
7.15e-09
1.38e-08
4.53e-09
3.02e-09
-6.3e-09
-6.28e-09
5.63e-09
-1.73e-08
-8.32e-10
-1.55e-08
-3.86e-09
1.94e-08
4.64e-09
3.31e-09
-6.72e-09
1.69e-08
-1.99e-08
-9.43e-09
-1.59e-08
-9.37e-10
-5.65e-10
6.43e-09
-5.86e-09
1.56e-08
-1.06e-08
1.33e-08
-5.93e-10
-7.01e-09
-1.37e-08
8.64e-09
8.05e-09
5.41e-09
-1.82e-08
1.28e-08
-2.42e-09
-1.55e-08
1.89e-08
-1.5e-08
5.21e-09
-8.87e-09
-4.49e-10
-4.23e-09
1.2e-08
1.4e-08
-1.2e-08
-1.39e-09
-1.76e-08
-8.95e-09
-9.95e-09
1.89e-08
-1.93e-08
2.05e-09
1.64e-08
8.62e-09
1.09e-08
1.32e-08
-7.49e-09
2.19e-08
-1.44e-08
3.77e-09
1.42e-08
-1.8e-08
-3.92e-09
-1.36e-08
8e-09
-1.69e-08
1.41e-08
7.37e-09
-2.14e-08
7.38e-09
1.33e-08
-2.07e-08
7.69e-09
-7.69e-09
-7.75e-09
1.59e-08
-1.16e-08
3.85e-09
1.96e-08
2.85e-09
4.1e-09
-6.95e-09
-1.92e-08
3.29e-09
1.59e-08
-7.24e-09
8.3e-09
-8.3e-09
-7.73e-09
7.73e-09
8.78e-09
-1.9e-08
1.03e-08
-5.29e-09
-7.86e-10
6.43e-09
-1.38e-08
1.92e-08
5.18e-12
-1.32e-08
1.32e-08
-1.15e-08
-2.29e-10
1.18e-08
7.3e-09
-1.07e-08
1.94e-08
4.07e-11
-1.44e-08
1.44e-08
1.27e-08
6.69e-09
-1.94e-08
-1.47e-08
2.62e-09
1.2e-08
-1.46e-08
-8.3e-09
-8.56e-09
-7.63e-09
-5.66e-10
1.93e-08
-8.08e-10
-1.85e-08
-1.14e-08
1.51e-08
-1.69e-08
1.09e-08
6.02e-09
1e-08
9.11e-09
7.59e-09
-1.08e-09
1.96e-08
-1.25e-08
6.3e-09
-5.29e-09
4.48e-10
-8.14e-09
6.5e-09
1.01e-08
1.8e-08
1.21e-08
-1.85e-08
6.42e-09
-7.46e-09
-9.43e-09
-5e-09
-1.37e-08
2.27e-11
-1.55e-08
1.54e-08
6.11e-10
-1.22e-08
1.74e-08
-8.3e-09
-8.26e-10
1.44e-08
-9.55e-09
1.82e-09
3.89e-09
1.57e-08
-1.64e-09
-1.25e-09
1.51e-08
-1.63e-08
1.21e-09
-1.1e-08
-8.14e-09
-1.6e-08
1.15e-08
4.48e-09
-1.56e-08
-1.5e-09
1.81e-08
-3.47e-10
-1.77e-08
1.74e-08
-2.3e-09
-4.95e-09
1.76e-08
-4.8e-09
4.8e-09
1.68e-08
1.24e-09
7.77e-10
-1.51e-08
1.43e-08
1.3e-10
-1.46e-08
-1.65e-08
-2.01e-09
1.28e-08
-1.31e-08
1.34e-10
-5.61e-09
5.47e-09
1.77e-09
1.29e-08
2.76e-10
1.37e-08
-1.39e-08
-5.63e-09
-8.51e-10
1.46e-08
8.55e-10
1.12e-08
-1.21e-08
-1.2e-08
8.99e-09
3.03e-09
-1.65e-08
1.5e-08
-1.95e-08
6.26e-10
1.89e-08
-8.66e-09
8.66e-09
5.21e-09
7.03e-10
4.1e-09
-1.34e-09
-1.85e-08
1.99e-08
-6.98e-10
-1.52e-08
1.8e-08
-1.26e-08
-3.76e-09
1.78e-08
-1.41e-08
4.1e-09
2.01e-10
-1.97e-08
-1.74e-08
-5.61e-09
-1.45e-08
1.52e-08
-6.4e-09
6.4e-09
-1.57e-08
-6.13e-09
1.37e-08
-1.51e-08
-1.29e-08
9.14e-09
-6.59e-09
2.45e-08
-1.79e-08
-6.78e-10
-1.39e-08
6.28e-09
-6.15e-09
-5.57e-09
6.35e-09
6.79e-10
-4.76e-09
4.08e-09
1.4e-10
1.36e-08
1.13e-08
7.63e-09
-7.38e-09
1.86e-08
-1.5e-08
-7.52e-09
6.85e-09
4.27e-11
-1.35e-08
1.34e-08
6.34e-09
-6.2e-09
8.75e-10
-1.43e-08
1.35e-08
1.18e-08
-1.26e-08
1.22e-08
-1.34e-09
-1.37e-08
-1.2e-08
-8.87e-09
-8.15e-09
-7.82e-09
-1.83e-08
-8.45e-10
1.91e-08
-6.25e-09
6.29e-09
-1.8e-08
-8.39e-10
1.89e-08
1.52e-08
2.76e-12
-1.44e-08
-7.04e-10
-6.37e-09
-1.3e-08
2.05e-08
-7.45e-09
-9.14e-09
8.35e-09
7.9e-10
-8.99e-09
8.3e-09
-1.58e-08
1.52e-08
5.63e-10
1.5e-08
-1.43e-08
-7.02e-10
-1.29e-08
1.89e-08
-6.7e-09
-1.6e-09
-1.96e-08
1.2e-08
6.63e-09
4.27e-10
-1.47e-09
-1.93e-08
-2.67e-10
1.15e-08
-2.01e-08
-7.02e-10
1.75e-08
1.97e-08
-7.73e-09
1.22e-08
1.21e-08
3.58e-09
3.82e-09
-4.08e-09
1.78e-08
1.24e-08
1.19e-09
-1.16e-08
1.23e-08
6.85e-09
-6.85e-09
-6.91e-09
6.2e-09
-1.14e-08
-1.32e-08
2.14e-08
-8.2e-09
-6.25e-09
-6.7e-09
-4.76e-09
-2.05e-09
-1.13e-08
-7.52e-09
6.85e-09
-6.91e-09
-3.81e-09
-2.83e-10
1.14e-08
-1.12e-08
6.34e-09
7.23e-09
7.36e-10
8.3e-09
5.47e-09
-6.29e-09
-1.34e-09
-5.57e-09
-1.33e-08
-7.37e-09
2.07e-08
1.23e-08
-1.13e-09
-1.51e-08
2.75e-10
1.59e-08
9.8e-10
-3.81e-09
2.83e-09
-5.86e-09
1.5e-08
-1.71e-08
1.57e-10
2.16e-08
-1.95e-08
3.81e-09
-4.1e-09
8.35e-09
8.16e-09
3.38e-10
2.86e-09
-9.53e-09
-2.85e-09
-1.8e-08
1.91e-09
7.87e-09
1.36e-08
1.12e-08
-1.4e-08
2.19e-08
-1.76e-08
4.32e-09
3.82e-09
-6.35e-09
-7.68e-09
-1.37e-08
2.14e-08
6.15e-09
-2.14e-08
-8.58e-09
2.21e-08
-8.7e-09
2.1e-08
1.42e-08
7.12e-10
-4.47e-09
4.47e-09
-8.4e-09
-1.38e-08
1.64e-08
1.42e-08
1.03e-08
-6.53e-09
6.53e-09
-8.16e-09
-2.67e-09
-7.8e-09
6.13e-09
1.67e-09
7.8e-09
-1.27e-09
-1.86e-09
-8.4e-09
-1.65e-08
-1.67e-08
3.27e-09
-2.25e-08
8.09e-09
1.44e-08
-8.31e-09
1.13e-09
-1.36e-08
2.31e-08
-9.47e-09
-2.2e-08
8.36e-09
9.6e-09
-1.38e-08
2.18e-08
1.17e-08
-2.03e-08
-1.56e-09
9.62e-10
7.6e-09
-1.29e-08
1.38e-08
-7.28e-09
-1.24e-08
1.97e-08
-1.3e-08
2.35e-08
-9.65e-09
1.82e-08
7.53e-09
1.6e-08
1.85e-08
-2.09e-08
-1.99e-08
1.02e-08
1.46e-08
-2.38e-08
1.51e-08
-8.12e-09
1.66e-08
-2.93e-09
-1.28e-08
-7.52e-09
7.73e-09
1.53e-08
2.29e-08
-5.35e-09
-9.79e-09
1.51e-08
-4.29e-09
4.29e-09
-3.85e-09
3.85e-09
4.68e-09
-4.68e-09
4.53e-09
-4.53e-09
4.53e-09
4.64e-09
1.49e-08
-2.02e-08
5.28e-09
-6.72e-09
1.43e-08
8.66e-09
7.55e-09
-7.55e-09
-8.14e-09
8.36e-09
-8.36e-09
-2.05e-08
7.76e-09
1.27e-08
-4.23e-09
-2.2e-08
1.36e-08
8.37e-09
-4.35e-09
4.35e-09
-1.94e-08
7.72e-09
1.17e-08
-6.85e-09
-1.32e-08
-1.26e-08
1.4e-08
-6.13e-09
1.35e-08
-5.34e-09
-1.86e-08
-1.99e-08
1.33e-08
5.53e-09
3.88e-10
6.84e-10
8.69e-10
-1.25e-08
-2.2e-08
1.25e-08
9.55e-09
-1.43e-08
-6.93e-09
-6.65e-09
-5e-10
8.05e-09
-1.8e-08
8.2e-09
-1.03e-08
-1.54e-08
2.52e-08
-7.84e-09
-1.37e-08
5.78e-09
7.92e-09
-2.21e-09
-1.67e-08
8.3e-10
1.58e-08
-5.5e-09
5.59e-09
-5.59e-09
-2.78e-10
-1.04e-08
-8.42e-09
-9.02e-09
1.66e-08
1.69e-08
-5.23e-09
-1.66e-08
-1.14e-08
-1.12e-09
2.04e-08
-1.02e-08
-8.4e-09
-1.51e-08
-1.14e-08
-1.61e-08
-2.8e-09
-1.04e-08
-4.38e-09
-1.01e-08
-7.59e-09
-1.38e-08
-1.88e-08
-4.17e-09
1.57e-08
-1.38e-08
-1.25e-08
-1.54e-08
1.43e-08
-1.61e-08
1.86e-09
-5.06e-09
-9.72e-10
-1.71e-09
1.45e-08
-5.06e-09
-2.77e-09
1.97e-08
3.32e-09
-2.3e-08
2.17e-08
8.53e-09
1.08e-08
-8.33e-09
1.64e-08
4.9e-09
-4.9e-09
1.53e-08
2.75e-09
7.09e-09
2.89e-09
-1.23e-08
1.32e-08
-1.84e-08
1.99e-08
1.29e-08
1.07e-08
-1.87e-08
8.02e-09
-1.21e-09
1.91e-08
-6.42e-09
1.24e-08
1.47e-08
-1.14e-08
1e-09
5.86e-09
-1.33e-08
7.58e-09
6.75e-09
8.37e-09
1.21e-08
-1.62e-08
2.54e-09
-1.17e-08
2.38e-09
1.28e-08
-1.2e-08
1.31e-08
2.35e-09
-1.26e-08
4.57e-09
-4.64e-10
6.22e-09
-1.88e-08
-7.08e-10
-2.06e-08
2.04e-09
-3.85e-10
3.67e-09
1.53e-09
-1.22e-08
1.81e-08
1.57e-09
-1.82e-08
-6.2e-09
4.57e-09
1.44e-08
-1.14e-08
-1.29e-08
-7.31e-09
1.22e-08
7.4e-09
-1.34e-08
3.67e-09
8.53e-09
-1.79e-08
-1.73e-08
1.68e-08
-7.54e-10
-1.04e-08
-9.88e-09
9.88e-09
7.18e-09
-1.97e-08
-9.98e-09
9.98e-09
-1.27e-08
-1.79e-08
-1.33e-08
-1.41e-08
6.81e-09
6.62e-09
1.66e-08
-4.42e-09
-1.11e-08
1.24e-08
1.26e-08
-1.94e-08
8.06e-09
-1.02e-08
1.06e-08
-1.22e-08
-1.09e-08
-7.83e-09
-1.03e-08
-3.33e-09
-1.21e-08
-5.8e-09
7.7e-09
-9.91e-09
9.41e-09
2.14e-09
1.6e-08
-3.96e-10
-1.95e-08
-1.65e-08
-1.06e-08
-1.53e-09
-1.19e-08
-2.15e-09
-2.92e-09
-3.3e-09
-7.77e-09
8.13e-09
1.58e-08
-1.73e-09
-1.02e-08
-2.98e-10
1.08e-08
1.28e-08
-1.41e-08
-1.44e-08
-1.5e-08
-1.58e-08
-6.08e-09
4.63e-09
1.87e-09
)
;

boundaryField
{
    front
    {
        type            empty;
        value           nonuniform List<scalar> 0();
    }
    back
    {
        type            empty;
        value           nonuniform List<scalar> 0();
    }
    bottom
    {
        type            calculated;
        value           nonuniform List<scalar> 
12
(
6.07e-09
1.71e-08
1.34e-08
1.36e-08
1.05e-08
2.83e-09
2.85e-09
1.57e-08
1.77e-08
1.69e-08
1.06e-08
6.03e-09
)
;
    }
    left
    {
        type            calculated;
        value           uniform 0;
    }
    top
    {
        type            calculated;
        value           nonuniform List<scalar> 8(-1.67e-08 -1.67e-08 -1.66e-08 -1.66e-08 -1.66e-08 -1.67e-08 -1.67e-08 -1.66e-08);
    }
    right
    {
        type            calculated;
        value           uniform 0;
    }
    inner_arc
    {
        type            calculated;
        value           uniform 0;
    }
}


// ************************************************************************* //
