/*--------------------------------*- C++ -*----------------------------------*\
  =========                 |
  \\      /  F ield         | OpenFOAM: The Open Source CFD Toolbox
   \\    /   O peration     | Website:  https://openfoam.org
    \\  /    A nd           | Version:  9
     \\/     M anipulation  |
\*---------------------------------------------------------------------------*/
FoamFile
{
    format      ascii;
    class       volScalarField;
    location    "0.2";
    object      p;
}
// * * * * * * * * * * * * * * * * * * * * * * * * * * * * * * * * * * * * * //

dimensions      [0 2 -2 0 0 0 0];

internalField   nonuniform List<scalar> 
1655
(
14.6481
14.6396
14.5712
14.6535
14.6488
14.6509
14.5667
14.6374
14.6194
14.6491
14.6486
14.6478
14.6406
14.6251
14.6017
14.5287
14.5409
14.6168
14.6513
14.6251
14.5249
14.619
14.6446
14.6464
14.6477
14.5357
14.5267
14.6242
14.6274
14.5195
14.5556
14.5846
14.6053
14.5763
14.6163
14.5773
14.6504
14.6393
14.6078
14.6397
14.523
14.6473
14.6158
14.6515
14.6336
14.6528
14.6509
14.6338
14.6496
14.6183
14.6504
14.5782
14.599
14.6228
14.6213
14.5764
14.5232
14.6499
14.6493
14.5669
14.5547
14.6513
14.6473
14.6357
14.6501
14.5631
14.6502
14.6501
14.6155
14.6477
14.6514
14.5674
14.5249
14.6041
14.5578
14.6312
14.6292
14.6143
14.5234
14.5212
14.6502
14.6324
14.6198
14.6511
14.5256
14.5947
14.5611
14.5234
14.6424
14.5913
14.5968
14.572
14.6508
14.651
14.6284
14.6505
14.6511
14.6511
14.5846
14.5675
14.5687
14.6518
14.6502
14.6502
14.6168
14.6505
14.6341
14.5185
14.5656
14.5795
14.5864
14.65
14.5777
14.5293
14.6372
14.5972
14.636
14.6504
14.6429
14.6179
14.5682
14.56
14.5579
14.6438
14.6509
14.6418
14.6183
14.6283
14.5308
14.5357
14.6482
14.5818
14.6361
14.6427
14.5194
14.6397
14.6486
14.5934
14.5225
14.6503
14.5642
14.5267
14.5298
14.5528
14.5413
14.5526
14.5522
14.558
14.5556
14.5487
14.5511
14.5459
14.5524
14.5524
14.599
14.6196
14.6506
14.5665
14.6355
14.6524
14.562
14.6403
14.6233
14.5663
14.5609
14.65
14.6242
14.6393
14.6522
14.6129
14.5404
14.6244
14.5656
14.6301
14.5233
14.6321
14.6488
14.6118
14.5403
14.6267
14.5841
14.6242
14.6515
14.6457
14.6361
14.5502
14.6326
14.5469
14.6185
14.6256
14.6357
14.6509
14.6209
14.5789
14.562
14.5189
14.62
14.5579
14.6435
14.6251
14.6493
14.65
14.5619
14.559
14.6018
14.5279
14.6085
14.6199
14.5411
14.571
14.5986
14.5865
14.6391
14.6399
14.6265
14.6493
14.5718
14.6419
14.5948
14.6264
14.6339
14.5255
14.6095
14.6297
14.6065
14.5747
14.5711
14.6002
14.5915
14.5937
14.6228
14.5872
14.5906
14.6142
14.6047
14.6204
14.5702
14.6207
14.5628
14.5871
14.5878
14.6363
14.5918
14.5199
14.6289
14.5215
14.5519
14.6257
14.5582
14.6283
14.6504
14.5204
14.6159
14.592
14.6075
14.5998
14.564
14.6301
14.6118
14.6135
14.6345
14.5367
14.5761
14.5878
14.6143
14.6381
14.6159
14.6238
14.6006
14.6232
14.6056
14.6153
14.6368
14.5396
14.6121
14.6153
14.5505
14.6292
14.6197
14.6229
14.6222
14.6389
14.6131
14.5893
14.5934
14.6169
14.6226
14.5864
14.6136
14.6164
14.6182
14.5217
14.6216
14.6262
14.6227
14.594
14.637
14.5964
14.5203
14.5489
14.5845
14.6525
14.6533
14.5942
14.5732
14.6207
14.5829
14.5503
14.6223
14.5788
14.6155
14.5429
14.5463
14.6313
14.6367
14.6237
14.5211
14.6225
14.5765
14.5718
14.6233
14.6238
14.589
14.5977
14.5874
14.6532
14.6535
14.6376
14.5589
14.6195
14.6129
14.6237
14.6272
14.5472
14.62
14.5597
14.6214
14.6197
14.5844
14.6193
14.5772
14.5953
14.6112
14.5889
14.5749
14.5983
14.6245
14.5865
14.575
14.5367
14.6457
14.6069
14.5917
14.5946
14.6243
14.5825
14.5876
14.5895
14.6257
14.5665
14.5751
14.6156
14.624
14.6124
14.6307
14.5839
14.5514
14.6485
14.6256
14.6149
14.6358
14.5984
14.6333
14.5925
14.6501
14.6233
14.6256
14.6382
14.6214
14.5829
14.626
14.6182
14.6399
14.6122
14.5825
14.6262
14.5905
14.6269
14.6132
14.5649
14.5258
14.6088
14.6269
14.6278
14.5998
14.5964
14.5809
14.6173
14.6259
14.6394
14.5869
14.6259
14.6187
14.6383
14.6156
14.6044
14.6275
14.6059
14.6387
14.622
14.6517
14.6143
14.6062
14.6198
14.6075
14.6103
14.6289
14.5866
14.6064
14.595
14.641
14.6134
14.5865
14.5873
14.6079
14.5504
14.5907
14.5972
14.5518
14.6201
14.5744
14.5986
14.6011
14.6503
14.6089
14.6266
14.6182
14.5976
14.6528
14.6167
14.5284
14.5927
14.6084
14.5863
14.5995
14.6214
14.6171
14.6215
14.6167
14.6135
14.616
14.6286
14.6117
14.6063
14.6161
14.6008
14.6364
14.5926
14.6202
14.5936
14.6279
14.5935
14.6232
14.6326
14.643
14.6406
14.5996
14.593
14.5958
14.6283
14.6325
14.6241
14.607
14.6132
14.6284
14.633
14.6366
14.6322
14.5941
14.591
14.5728
14.6206
14.5975
14.607
14.6344
14.6019
14.5977
14.5965
14.6137
14.6116
14.6262
14.6087
14.6049
14.634
14.6381
14.6303
14.5564
14.5903
14.6278
14.631
14.6391
14.6371
14.585
14.6343
14.5549
14.6391
14.6018
14.6375
14.6348
14.6022
14.6416
14.6394
14.6355
14.6352
14.5962
14.6347
14.6344
14.6302
14.5609
14.5643
14.6033
14.6019
14.6355
14.6324
14.5597
14.6043
14.6418
14.6376
14.6342
14.6076
14.6418
14.608
14.6481
14.6543
14.6535
14.6416
14.6528
14.6525
14.654
14.6539
14.6536
14.5738
14.6536
14.6531
14.6452
14.6534
14.6502
14.654
14.6369
14.6534
14.6534
14.6388
14.5405
14.6422
14.6355
14.5587
14.548
14.6386
14.6375
14.607
14.6261
14.6419
14.6017
14.6037
14.642
14.5708
14.6265
14.6003
14.6019
14.6061
14.6391
14.612
14.5455
14.6378
14.6095
14.6292
14.6399
14.606
14.5676
14.6241
14.6432
14.643
14.6371
14.5754
14.6395
14.6432
14.5965
14.609
14.6348
14.6097
14.6393
14.6091
14.6099
14.6115
14.6113
14.5723
14.6387
14.5503
14.6135
14.6074
14.6159
14.5488
14.5912
14.6027
14.546
14.5428
14.548
14.5537
14.5247
14.5485
14.6366
14.6406
14.5315
14.5491
14.5459
14.6185
14.5652
14.6437
14.6069
14.5825
14.5695
14.6126
14.5638
14.5968
14.6138
14.6437
14.6122
14.6126
14.6136
14.6359
14.6182
14.6316
14.6152
14.6468
14.6427
14.6173
14.6457
14.6477
14.6397
14.6273
14.645
14.583
14.6203
14.6462
14.6433
14.6445
14.6377
14.6456
14.6289
14.5416
14.6196
14.6401
14.6199
14.6316
14.6332
14.6441
14.6235
14.6165
14.6183
14.5767
14.6354
14.6138
14.6382
14.6286
14.6137
14.6078
14.6481
14.6441
14.6471
14.6421
14.6106
14.6204
14.6454
14.6243
14.6425
14.6388
14.6236
14.6477
14.603
14.6486
14.62
14.6171
14.6369
14.6157
14.633
14.5679
14.6466
14.6003
14.6212
14.6221
14.6322
14.6407
14.639
14.6259
14.6407
14.6204
14.6473
14.6129
14.6424
14.6443
14.6217
14.6416
14.6418
14.636
14.6218
14.6261
14.6447
14.6188
14.6241
14.6122
14.5674
14.6277
14.5572
14.6222
14.6213
14.6164
14.6469
14.6328
14.624
14.5389
14.6239
14.6282
14.6158
14.6254
14.6395
14.5682
14.6237
14.6402
14.6332
14.6455
14.5454
14.6443
14.624
14.6269
14.6429
14.6378
14.6212
14.6406
14.6305
14.6438
14.5749
14.6441
14.6435
14.5651
14.6247
14.6305
14.627
14.6407
14.6482
14.6397
14.627
14.6462
14.603
14.5405
14.5487
14.6475
14.6421
14.6299
14.6295
14.6408
14.5571
14.5539
14.6254
14.6458
14.5911
14.6354
14.6415
14.5637
14.6277
14.612
14.5538
14.64
14.644
14.5879
14.6211
14.6236
14.6418
14.627
14.629
14.6303
14.6328
14.6304
14.6281
14.6302
14.622
14.6251
14.6458
14.6302
14.6301
14.6223
14.6459
14.5478
14.6274
14.6143
14.633
14.5978
14.6185
14.6089
14.6445
14.6423
14.6463
14.6404
14.6376
14.6442
14.6248
14.6192
14.6294
14.6463
14.5554
14.6432
14.6215
14.6311
14.5571
14.6416
14.599
14.5607
14.6351
14.6312
14.6394
14.5452
14.6338
14.6366
14.5923
14.6478
14.6325
14.5581
14.623
14.601
14.6317
14.6432
14.6068
14.6337
14.6377
14.6336
14.638
14.6276
14.6356
14.6234
14.6476
14.6345
14.6177
14.639
14.5492
14.6465
14.6478
14.6301
14.547
14.6467
14.6368
14.6287
14.633
14.5403
14.5973
14.6218
14.6362
14.6455
14.6407
14.6278
14.6187
14.642
14.6451
14.6085
14.6001
14.5589
14.6265
14.6383
14.6474
14.6333
14.6244
14.6101
14.6149
14.6345
14.6415
14.6355
14.6394
14.6393
14.6333
14.6385
14.6268
14.5357
14.6155
14.6421
14.5379
14.6044
14.6423
14.6345
14.6422
14.636
14.6177
14.6362
14.6441
14.6258
14.5623
14.641
14.647
14.6052
14.6268
14.6287
14.6308
14.6268
14.642
14.6364
14.6386
14.6382
14.6482
14.63
14.645
14.6452
14.6456
14.6367
14.6318
14.5522
14.5403
14.6407
14.6436
14.6264
14.6312
14.5342
14.644
14.6405
14.6107
14.6459
14.6381
14.6294
14.6318
14.6383
14.6304
14.6341
14.6295
14.6428
14.6332
14.628
14.633
14.6431
14.6447
14.6364
14.6406
14.6426
14.609
14.5971
14.6401
14.5509
14.6353
14.6014
14.633
14.6326
14.5811
14.6406
14.6228
14.6456
14.6442
14.64
14.6135
14.6154
14.5882
14.5958
14.6119
14.6381
14.6196
14.6196
14.6343
14.6351
14.6308
14.6165
14.5346
14.5866
14.6076
14.6399
14.5419
14.6155
14.5682
14.644
14.6067
14.6462
14.6445
14.6465
14.6212
14.6422
14.6445
14.6458
14.6427
14.6251
14.6045
14.5451
14.6265
14.6439
14.5902
14.6293
14.595
14.6341
14.6322
14.625
14.6483
14.6055
14.6342
14.6306
14.5443
14.6292
14.6265
14.6437
14.6455
14.6433
14.6314
14.645
14.6305
14.643
14.6412
14.6292
14.6052
14.6273
14.6165
14.6447
14.642
14.625
14.6248
14.6411
14.6292
14.6294
14.6201
14.6289
14.6356
14.5855
14.6038
14.6388
14.6187
14.6137
14.6401
14.6314
14.6305
14.6317
14.5781
14.5381
14.5392
14.6108
14.6219
14.6196
14.6107
14.612
14.6294
14.6491
14.6304
14.5724
14.6474
14.6381
14.6224
14.6159
14.5704
14.6368
14.6182
14.6079
14.6
14.6131
14.6309
14.6091
14.5391
14.607
14.6274
14.6326
14.6111
14.6212
14.6168
14.5642
14.6475
14.6168
14.5304
14.5832
14.6255
14.6425
14.6404
14.6335
14.6342
14.6245
14.6287
14.64
14.6322
14.6247
14.6328
14.5347
14.5782
14.6248
14.6088
14.5624
14.6404
14.633
14.6281
14.5352
14.6317
14.6132
14.6164
14.6009
14.6167
14.5327
14.636
14.6338
14.6222
14.6363
14.628
14.6415
14.6159
14.6341
14.6138
14.6466
14.6309
14.6179
14.6092
14.6323
14.6435
14.5316
14.6297
14.6325
14.6363
14.6351
14.6396
14.6132
14.6455
14.625
14.6088
14.6379
14.6068
14.6313
14.6343
14.6021
14.6273
14.6178
14.6319
14.5924
14.6345
14.6008
14.6032
14.6393
14.6372
14.5299
14.6036
14.6236
14.6299
14.6104
14.6214
14.6356
14.5841
14.6217
14.6354
14.5814
14.5381
14.6209
14.635
14.6422
14.6266
14.6401
14.6118
14.5982
14.5991
14.6408
14.6169
14.6151
14.6202
14.6375
14.6335
14.6265
14.619
14.5234
14.6176
14.5795
14.5788
14.6104
14.6264
14.5903
14.5995
14.5984
14.5833
14.6412
14.6382
14.6349
14.6227
14.5792
14.6347
14.6162
14.5196
14.6379
14.5704
14.6366
14.6369
14.6197
14.6216
14.6159
14.6254
14.5494
14.618
14.5352
14.6091
14.6373
14.565
14.6277
14.6127
14.6333
14.5409
14.5546
14.6086
14.6336
14.6243
14.6422
14.6393
14.6316
14.6448
14.5277
14.6251
14.5785
14.6427
14.5566
14.5424
14.6247
14.6311
14.5839
14.5586
14.6234
14.5792
14.5528
14.5458
14.6178
14.6051
14.6339
14.6409
14.6386
14.6214
14.5792
14.5261
14.6504
14.642
14.6021
14.5888
14.5511
14.6387
14.6196
14.6447
14.6478
14.5752
14.646
14.6228
14.5306
14.5449
14.6244
14.5818
14.5906
14.6026
14.6428
14.6475
14.5706
14.6468
14.521
14.6046
14.5505
14.6483
14.5783
14.5758
14.6267
14.6377
14.6132
14.5917
14.568
14.6344
14.5216
14.5576
14.5868
14.5639
14.5853
14.5637
14.623
14.628
14.6133
14.6287
14.6189
14.6457
14.5503
14.6467
14.6465
14.5718
14.6253
14.6273
14.5575
14.6485
14.6375
14.6513
14.5312
14.564
14.6466
14.6464
14.6506
14.6404
14.5809
14.5709
14.5741
14.6364
14.6222
14.6185
14.6343
14.6201
14.6523
14.6173
14.524
14.6149
14.6129
14.5333
14.6492
14.6395
14.6481
14.6474
14.6473
14.6435
14.6494
14.6219
14.6458
14.5712
14.527
14.6497
14.6454
14.5364
14.6353
14.6473
14.6226
14.6456
14.6441
14.6277
14.6424
14.6174
14.6375
14.5512
14.6467
14.643
14.6344
14.6106
14.6212
14.6066
14.6479
14.6175
14.6142
14.5462
14.6149
14.653
14.6534
14.6515
14.6531
14.6529
14.6534
14.6519
14.6528
14.6527
14.6525
14.6532
14.6501
14.652
14.6509
14.6535
14.6538
14.6516
14.6534
14.6534
14.6531
14.6507
14.6521
14.6535
14.5794
14.6522
14.5537
14.5313
14.6487
14.6489
14.6534
14.6342
14.5329
14.5296
14.6221
14.545
14.5508
14.586
14.6481
14.6494
14.6271
14.6159
14.6314
14.6535
14.6413
14.6491
14.6443
14.6302
14.6277
14.5345
14.5547
14.6465
14.6486
14.6359
14.6181
14.6491
14.6427
14.5462
14.5898
14.5473
14.6264
14.6488
14.6075
14.6459
14.6257
14.6301
14.6339
14.6203
14.6332
14.6465
14.6529
14.6504
14.6113
14.6441
14.5909
14.6484
14.6322
14.5342
14.5288
14.5531
14.6493
14.6437
14.6288
14.6492
14.5431
14.6535
14.6297
14.6278
14.5748
14.642
14.649
14.635
14.6335
14.6501
14.6102
14.645
14.6473
14.6452
14.6311
14.6325
14.5695
14.6434
14.6496
14.6418
14.6171
14.6171
14.6481
14.6309
14.6277
14.6288
14.6446
14.6164
14.6312
14.5314
14.5864
14.6493
14.5882
14.6483
14.5185
14.6203
14.6135
14.6461
14.654
14.6489
14.6456
14.6009
14.6457
14.6516
14.6232
14.6529
14.6055
14.5188
14.6153
14.6263
14.5638
14.6252
14.6542
14.6435
14.5588
14.6526
14.653
14.6253
14.6363
14.6531
14.6086
14.6378
14.6521
14.5425
14.6198
14.6508
14.6072
14.629
14.6182
14.5316
14.5772
14.5963
14.6258
14.649
14.6469
14.6526
14.6468
14.6515
14.6517
14.6534
14.6525
14.6518
14.6514
14.653
14.6545
14.6089
14.6449
14.6478
14.6457
14.6542
14.6538
14.63
14.6194
14.6535
14.6529
14.5478
14.5914
14.6274
14.6531
14.6438
14.6521
14.63
14.6504
14.5394
14.6428
14.6467
14.6344
14.5777
14.6226
14.6454
14.5717
14.5722
14.643
14.6186
14.6319
14.589
14.618
14.6095
14.6495
14.6204
14.622
14.651
14.6517
14.6381
14.5918
14.6496
14.6493
14.6488
14.5964
14.6276
14.5826
14.6541
14.6489
14.6492
14.6326
14.6296
14.5564
14.6323
14.6536
14.6265
14.6437
14.5617
14.6519
14.6463
14.6208
14.6414
14.6277
14.6174
14.649
14.6498
14.6429
14.6256
14.5334
14.6474
14.6474
14.6493
14.6301
14.6497
14.6216
14.6372
14.5742
14.6167
14.637
14.5526
14.6521
14.6299
14.6218
14.6187
14.6493
14.652
14.6433
14.562
14.5782
14.5805
14.6486
14.6091
14.6473
14.65
14.519
14.6343
14.614
14.6338
14.651
14.6165
14.6504
14.5703
14.6023
14.6004
14.6523
14.6519
14.5988
14.6046
14.6356
14.6456
14.6187
14.6038
14.6253
14.5976
14.626
14.6523
14.5331
14.6486
14.6442
14.5747
14.6224
14.5913
14.647
14.6483
14.6252
14.6449
14.6543
14.6484
14.6535
14.6532
14.5787
14.6462
14.6509
14.6463
14.6244
14.648
14.6309
14.6237
14.6439
14.6068
14.6273
14.6487
14.6447
14.5818
14.5984
14.5679
14.618
14.5707
14.5772
14.5779
14.6499
14.6172
)
;

boundaryField
{
    back
    {
        type            empty;
    }
    front
    {
        type            empty;
    }
    top
    {
        type            zeroGradient;
    }
    outer_arc
    {
        type            zeroGradient;
    }
    bottom
    {
        type            uniformFixedValue;
        uniformValue    
        {
            type            table;
            format          csv;
            file            "outlet_p.csv";
            nHeaderLine     1;
            refColumn       0;
            componentColumns List<label> 1(1);
            separator       ",";
            mergeSeparators 0;
        }
        value           uniform 14.6158;
    }
    inner_arc
    {
        type            zeroGradient;
    }
}


// ************************************************************************* //
