/*--------------------------------*- C++ -*----------------------------------*\
  =========                 |
  \\      /  F ield         | OpenFOAM: The Open Source CFD Toolbox
   \\    /   O peration     | Website:  https://openfoam.org
    \\  /    A nd           | Version:  9
     \\/     M anipulation  |
\*---------------------------------------------------------------------------*/
FoamFile
{
    format      ascii;
    class       volScalarField;
    location    "0.86";
    object      p;
}
// * * * * * * * * * * * * * * * * * * * * * * * * * * * * * * * * * * * * * //

dimensions      [0 2 -2 0 0 0 0];

internalField   nonuniform List<scalar> 
90
(
5.47466e-23
-1.81748e-23
-5.01845e-22
-1.4075e-21
-4.91285e-22
1.03522e-21
-1.57332e-23
1.42351e-22
2.10533e-22
1.16643e-22
-7.21438e-23
1.17368e-22
1.41654e-22
-6.55066e-22
3.4525e-22
2.68513e-21
-2.96116e-21
5.12048e-22
5.86955e-22
5.8966e-23
4.68719e-23
4.60693e-23
-2.97963e-23
-1.43258e-22
2.40609e-23
-3.06014e-22
2.89078e-22
-1.43014e-22
-4.11378e-22
1.7932e-22
1.20192e-22
-5.14098e-22
-3.47401e-22
-2.20572e-22
-3.17013e-22
2.64991e-21
1.03082e-22
-4.29699e-21
-3.73661e-22
1.46335e-22
2.34963e-22
3.05768e-22
-5.83263e-22
2.4967e-23
5.83509e-24
-6.03753e-22
2.22684e-22
9.79437e-22
5.1115e-22
-7.91258e-22
5.03706e-23
1.43842e-22
2.01712e-22
-4.55381e-22
2.37609e-22
6.89213e-22
-5.91233e-24
9.05253e-24
4.88156e-23
-6.17556e-22
2.08203e-22
-6.55369e-22
-8.95492e-22
-4.59818e-23
4.15609e-22
2.05477e-22
-5.80427e-22
-6.74252e-22
-3.61641e-21
-1.53869e-22
1.25364e-21
1.2635e-22
-5.38507e-22
1.15589e-21
2.47023e-21
2.30719e-22
1.34656e-22
-4.10594e-22
-8.09057e-23
-1.34728e-23
-4.24888e-21
1.39855e-23
2.22979e-23
2.28527e-21
-1.09643e-22
-9.36947e-22
5.91122e-23
1.01654e-22
1.55353e-21
2.48088e-22
)
;

boundaryField
{
    back
    {
        type            empty;
    }
    front
    {
        type            empty;
    }
    bottom
    {
        type            zeroGradient;
    }
    outer_arc
    {
        type            zeroGradient;
    }
    right
    {
        type            uniformFixedValue;
        uniformValue    
        {
            type            scale;
            scale           
            {
                type            squarePulse;
                start           0.3;
                duration        0.3;
            }
            xScale          
            {
                type            constant;
                value           1;
            }
            value           
            {
                type            constant;
                value           15.1;
            }
        }
        value           uniform 0;
    }
    inner_arc
    {
        type            zeroGradient;
    }
}


// ************************************************************************* //
