/*--------------------------------*- C++ -*----------------------------------*\
  =========                 |
  \\      /  F ield         | OpenFOAM: The Open Source CFD Toolbox
   \\    /   O peration     | Website:  https://openfoam.org
    \\  /    A nd           | Version:  9
     \\/     M anipulation  |
\*---------------------------------------------------------------------------*/
FoamFile
{
    format      ascii;
    class       surfaceScalarField;
    location    "0.86";
    object      phi;
}
// * * * * * * * * * * * * * * * * * * * * * * * * * * * * * * * * * * * * * //

dimensions      [0 3 -1 0 0 0 0];

internalField   nonuniform List<scalar> 
122
(
9.68452e-30
-1.63049e-30
4.55399e-30
-1.73865e-28
4.33687e-29
9.30533e-29
1.46917e-28
-1.64155e-28
-1.24836e-28
1.79404e-28
-1.99903e-28
-4.32097e-28
4.41287e-28
-3.86468e-31
1.53379e-29
7.70183e-30
-1.23747e-30
-6.88541e-29
5.75371e-29
-8.09728e-32
5.70747e-30
-2.79898e-29
-2.8527e-29
6.23614e-29
1.06081e-28
-1.83492e-28
6.47913e-29
-1.82279e-28
7.7999e-29
-3.02775e-29
2.09985e-28
1.14034e-28
-5.41136e-29
2.9023e-29
3.10604e-29
-3.14001e-30
-5.55381e-30
-3.52817e-29
4.63593e-29
3.24562e-29
-1.6917e-29
4.35892e-29
-2.19712e-29
1.43854e-29
4.74464e-29
-1.94174e-29
-1.61827e-29
2.39562e-29
3.62455e-29
-1.6809e-29
1.15574e-30
4.18483e-29
-3.57479e-29
3.52319e-28
-1.85842e-28
1.02323e-29
3.09465e-30
1.99619e-29
5.23021e-30
8.65956e-30
1.26223e-29
-1.73906e-29
2.4149e-29
6.20806e-29
-1.03926e-28
-1.14089e-28
6.26718e-30
-8.8568e-30
9.25674e-30
-7.12207e-30
-3.04284e-29
6.00853e-30
-2.46935e-29
-2.1118e-29
2.617e-30
-5.46846e-30
-4.65712e-30
9.52815e-31
-6.1312e-29
3.7334e-29
-9.44684e-31
3.20921e-29
1.03445e-28
-3.17417e-29
8.13514e-30
3.6143e-29
-3.82096e-30
-1.13875e-29
-6.08227e-29
8.4133e-29
3.42016e-29
5.25962e-30
2.30024e-30
7.45969e-29
-6.53628e-29
1.7426e-31
-6.33331e-30
-7.94076e-30
4.6937e-30
2.40163e-29
3.02592e-29
-4.49204e-29
-4.3176e-29
2.86359e-29
1.93734e-30
-8.34424e-29
2.10089e-29
-4.84409e-29
2.67154e-29
4.94729e-29
-2.51737e-28
2.53645e-28
1.52052e-28
-1.22479e-28
-1.21804e-29
-4.55699e-29
-2.71564e-29
1.18107e-29
-5.42186e-30
-1.36861e-30
6.39101e-29
-2.52515e-30
)
;

boundaryField
{
    back
    {
        type            empty;
        value           nonuniform List<scalar> 0();
    }
    front
    {
        type            empty;
        value           nonuniform List<scalar> 0();
    }
    bottom
    {
        type            calculated;
        value           uniform 0;
    }
    outer_arc
    {
        type            calculated;
        value           uniform 0;
    }
    right
    {
        type            calculated;
        value           nonuniform List<scalar> 4(-4.47912e-31 -2.18802e-30 -5.00154e-30 -2.32499e-31);
    }
    inner_arc
    {
        type            calculated;
        value           uniform 0;
    }
}


// ************************************************************************* //
