/*--------------------------------*- C++ -*----------------------------------*\
  =========                 |
  \\      /  F ield         | OpenFOAM: The Open Source CFD Toolbox
   \\    /   O peration     | Website:  https://openfoam.org
    \\  /    A nd           | Version:  9
     \\/     M anipulation  |
\*---------------------------------------------------------------------------*/
FoamFile
{
    format      ascii;
    class       volVectorField;
    location    "0.86";
    object      U;
}
// * * * * * * * * * * * * * * * * * * * * * * * * * * * * * * * * * * * * * //

dimensions      [0 1 -1 0 0 0 0];

internalField   nonuniform List<vector> 
90
(
(2.0874e-22 -2.82395e-23 -1.52998e-39)
(2.64488e-21 2.96933e-21 5.44886e-38)
(-4.66689e-21 -9.13845e-22 -4.95492e-38)
(-4.08757e-21 4.55616e-21 4.90717e-38)
(5.9018e-21 8.577e-21 1.24711e-37)
(1.63306e-21 1.56034e-21 -4.32897e-38)
(8.10811e-23 8.3093e-23 1.62774e-39)
(-2.62642e-22 -8.13969e-23 8.49212e-39)
(1.36166e-22 -1.99942e-21 0)
(1.02842e-22 1.12961e-22 0)
(-1.36095e-21 2.67486e-22 -8.10001e-39)
(5.63594e-22 -5.63814e-21 1.11143e-38)
(-3.14028e-22 -1.80473e-22 1.76951e-39)
(-4.96647e-22 -8.99875e-22 -3.46424e-39)
(1.89746e-21 -3.96405e-21 0)
(5.17362e-21 2.57403e-21 0)
(2.40758e-21 8.21999e-21 -1.61875e-37)
(-4.14756e-21 -1.71231e-21 -2.17131e-38)
(-5.44415e-22 2.17221e-21 0)
(-3.74771e-22 -3.79237e-22 -1.96042e-39)
(-8.86298e-22 -4.01731e-22 6.1465e-39)
(4.08168e-22 5.12886e-22 6.77233e-39)
(-7.06743e-22 3.0084e-22 -1.07343e-38)
(-1.04855e-21 1.44011e-22 3.13516e-39)
(-7.45474e-22 4.81524e-23 -4.42792e-39)
(-4.77614e-22 1.25378e-21 8.06808e-39)
(-5.24976e-22 -2.47577e-23 -9.56294e-39)
(1.07244e-21 7.21478e-22 4.67403e-39)
(-9.45538e-21 -1.59981e-21 0)
(-3.2561e-22 2.55294e-22 -8.86595e-39)
(-5.16239e-22 -2.62447e-23 5.61868e-39)
(-1.1191e-21 1.38818e-22 -3.15852e-38)
(-9.88784e-22 -2.71091e-22 -8.5246e-39)
(-4.75505e-22 -4.29381e-22 1.66643e-38)
(-9.26338e-22 -2.24647e-22 -4.97882e-39)
(1.13854e-21 -3.14794e-21 -6.28488e-38)
(1.40426e-21 1.7392e-21 0)
(-1.49067e-21 2.31209e-21 0)
(-2.84971e-22 -1.28365e-24 8.48983e-39)
(-4.73894e-23 -1.81603e-22 2.26007e-39)
(3.41983e-22 -9.39552e-23 -4.06691e-39)
(-1.31081e-23 -5.05658e-22 -2.29392e-38)
(8.01093e-23 8.02589e-23 -3.20097e-39)
(1.38595e-22 -4.14438e-23 -1.93257e-39)
(-2.04858e-23 5.53504e-23 -4.53484e-40)
(9.68283e-22 2.09751e-21 2.29293e-38)
(-3.41451e-22 4.89988e-22 4.71956e-39)
(1.54411e-21 -2.31145e-21 2.54938e-38)
(-1.45279e-21 8.2433e-23 -2.69324e-38)
(7.08541e-22 -3.6624e-21 3.36322e-39)
(-1.63946e-22 -8.78426e-23 0)
(1.12838e-22 2.02373e-22 -7.12917e-39)
(1.48837e-21 -1.99572e-21 -5.25277e-41)
(3.51905e-22 5.43006e-22 0)
(1.50888e-22 2.23489e-22 1.44214e-38)
(2.2038e-21 6.37436e-22 -2.67098e-40)
(-6.70017e-23 -3.80479e-23 2.29552e-40)
(-4.66165e-22 9.78739e-22 0)
(2.04667e-22 1.09758e-22 0)
(-8.46543e-22 6.36709e-22 3.50839e-38)
(5.02237e-22 -2.02263e-22 1.50308e-38)
(1.11406e-21 1.75789e-21 0)
(-1.35339e-22 4.68601e-22 4.18487e-38)
(2.09793e-21 -3.2581e-22 -2.8977e-39)
(1.14128e-21 7.20433e-22 2.74838e-38)
(-2.71173e-21 3.08335e-22 7.59678e-39)
(-1.07073e-21 -8.37553e-22 0)
(-1.03806e-21 8.48107e-22 0)
(-8.23083e-21 9.91026e-22 1.5596e-38)
(-9.82677e-21 2.03094e-21 3.84243e-38)
(4.49544e-21 -2.50257e-21 0)
(2.74348e-22 2.55355e-22 6.12605e-39)
(2.75467e-21 -1.84266e-21 0)
(-6.20635e-22 2.54279e-21 8.57919e-38)
(-6.79577e-21 2.20249e-22 -3.87949e-38)
(-1.82867e-22 6.7163e-22 -7.83906e-39)
(2.41034e-22 8.70823e-23 -1.26169e-39)
(5.84527e-22 5.94462e-22 0)
(2.19061e-22 -7.84324e-22 -9.82147e-39)
(2.71902e-22 1.46408e-22 2.95605e-39)
(-5.38589e-21 4.99578e-22 1.77076e-37)
(-2.93012e-23 1.42393e-23 1.86108e-40)
(-8.16055e-22 1.43012e-21 -7.27377e-39)
(2.40421e-21 -4.86478e-22 6.03765e-38)
(6.95671e-22 2.28285e-21 3.38432e-39)
(-2.09415e-22 4.18528e-22 -2.68597e-38)
(1.45399e-22 2.7968e-23 2.60879e-39)
(2.41279e-22 2.18155e-23 -3.96261e-40)
(1.84533e-21 2.09959e-21 -1.48387e-37)
(2.6296e-22 1.81795e-22 -5.93264e-39)
)
;

boundaryField
{
    back
    {
        type            empty;
    }
    front
    {
        type            empty;
    }
    bottom
    {
        type            uniformFixedValue;
        uniformValue    
        {
            type            scale;
            scale           
            {
                type            squarePulse;
                start           0.3;
                duration        0.3;
            }
            xScale          
            {
                type            constant;
                value           1;
            }
            value           
            {
                type            constant;
                value           (0 0.7 0);
            }
        }
        value           uniform (0 0 0);
    }
    outer_arc
    {
        type            noSlip;
    }
    right
    {
        type            zeroGradient;
    }
    inner_arc
    {
        type            noSlip;
    }
}


// ************************************************************************* //
