/*--------------------------------*- C++ -*----------------------------------*\
  =========                 |
  \\      /  F ield         | OpenFOAM: The Open Source CFD Toolbox
   \\    /   O peration     | Website:  https://openfoam.org
    \\  /    A nd           | Version:  9
     \\/     M anipulation  |
\*---------------------------------------------------------------------------*/
FoamFile
{
    format      ascii;
    class       volScalarField;
    location    "0.97";
    object      p;
}
// * * * * * * * * * * * * * * * * * * * * * * * * * * * * * * * * * * * * * //

dimensions      [0 2 -2 0 0 0 0];

internalField   nonuniform List<scalar> 
464
(
4.88963e-23
-2.97773e-22
-7.46657e-22
-7.36808e-22
-3.53663e-22
-7.54386e-22
-6.60113e-23
-7.41373e-22
-1.21486e-22
-9.2932e-23
2.79535e-23
2.47326e-22
-7.89094e-23
2.11625e-22
-3.00383e-22
-2.3623e-22
-6.07214e-22
7.79647e-22
-7.43443e-22
-6.59436e-22
-5.87216e-22
-7.07289e-22
-7.20073e-22
-7.4018e-22
-7.46286e-22
-7.44206e-22
-7.04182e-23
-7.36752e-22
1.94628e-22
-7.29682e-22
-7.36049e-22
-3.94311e-22
-4.79827e-22
-6.49365e-22
-2.27021e-22
-6.81893e-22
-1.31307e-21
-7.50339e-22
-7.35852e-22
-2.85726e-22
-6.09704e-22
-6.77234e-22
-7.26721e-22
6.66864e-23
3.43732e-22
-7.39953e-22
-7.15847e-22
-7.04975e-22
-7.36495e-22
-7.55064e-22
-4.2023e-22
-7.29756e-22
-7.44959e-22
-6.54983e-22
-6.69047e-22
-7.30188e-22
-7.26257e-22
-5.68948e-22
-6.16675e-22
-6.76538e-22
-7.43705e-22
-2.9109e-22
-4.67469e-22
-6.20054e-22
-1.94964e-22
-6.73522e-22
-5.05208e-22
-7.47714e-22
1.06853e-22
-6.53067e-22
-5.70691e-22
-2.46178e-22
-1.2542e-23
-7.16989e-22
-3.33438e-22
-7.35732e-22
-5.83922e-22
1.19112e-23
-6.02553e-22
1.1006e-22
-3.37071e-22
-7.47839e-22
-5.30146e-22
-7.50088e-22
-3.72856e-22
-5.47095e-22
-2.60619e-22
-7.55712e-22
-7.32229e-22
-3.33403e-22
-3.57225e-22
-2.67252e-22
-4.43724e-22
1.8939e-22
-3.93443e-22
-6.57665e-22
-6.51732e-22
-7.49112e-22
-3.73338e-22
-1.75955e-22
-7.39453e-22
-7.00906e-22
-7.32464e-22
-4.05799e-22
-6.08295e-22
-5.01141e-22
-7.52958e-22
-5.17885e-22
-3.67109e-22
-6.80211e-22
-3.65512e-22
-7.11539e-22
-3.54812e-22
-3.49177e-22
-7.3583e-22
-7.31209e-22
-4.89026e-22
-7.39171e-22
-3.84776e-22
-7.42518e-22
-6.96344e-22
-1.82359e-22
-2.24813e-22
-1.33474e-23
-5.92162e-22
-3.38663e-22
-1.8883e-22
-3.39096e-22
-5.53665e-22
-5.11418e-22
-7.57169e-22
4.54719e-23
-7.41723e-22
-7.24971e-22
-7.14946e-22
-4.39565e-22
-7.34704e-22
-7.3762e-22
-1.33182e-22
-6.94957e-22
-7.26139e-22
-4.49906e-22
-5.35624e-22
-7.3522e-22
-7.2626e-22
-3.40627e-22
-7.22593e-22
-7.41709e-22
-6.37946e-22
-6.83102e-22
-7.11336e-22
-7.24958e-22
-2.04784e-22
-3.29136e-22
-4.1789e-22
-6.97264e-22
-3.47884e-22
-7.04508e-22
-2.05228e-22
-3.62816e-22
-2.43165e-22
-6.99192e-22
-3.30931e-22
-7.70567e-22
-7.44965e-22
-7.24997e-22
-2.36433e-22
-5.60839e-22
-4.05238e-22
-3.22257e-22
-3.191e-22
-3.27273e-22
-3.37495e-22
-7.07261e-22
-3.25619e-22
-3.59982e-22
-6.88174e-22
-7.03171e-22
-2.10274e-22
-3.19295e-22
-7.14016e-22
-4.10569e-22
-9.53277e-23
8.01736e-22
-3.52276e-22
-1.12848e-21
-4.48285e-22
-4.2154e-22
-3.32109e-22
-3.75304e-22
-6.79884e-22
-3.78428e-22
-7.03319e-22
-6.96883e-22
-6.11034e-22
-5.8833e-22
-5.79279e-22
-6.9127e-22
-8.74438e-22
-6.48845e-22
-6.68582e-22
-6.08113e-22
-6.66396e-22
-6.30261e-22
-4.15912e-22
-6.98381e-22
-6.52165e-22
-6.16773e-22
-6.05286e-22
-3.57875e-22
-7.28016e-22
-4.62528e-22
-7.33864e-22
-3.40856e-22
-9.63328e-22
-3.46514e-22
2.34903e-22
-6.84622e-22
-8.66362e-23
-5.78147e-22
1.63218e-21
-6.38916e-22
-6.35968e-22
-6.42099e-22
-6.87454e-22
-6.98164e-22
-6.48034e-22
-6.26472e-22
-6.77358e-22
-6.00346e-22
-6.00062e-22
-5.30593e-22
-5.19436e-22
-4.8076e-22
-5.24922e-22
-5.51248e-22
-6.81367e-22
-2.68953e-22
-5.01299e-22
-1.13093e-21
-4.00384e-22
-4.37629e-22
-5.3052e-22
-2.73404e-22
-2.30174e-22
-1.96897e-21
-1.14816e-22
-6.27761e-22
-8.49826e-22
-9.51206e-22
2.1836e-22
-1.87951e-21
-4.72458e-22
-3.2946e-22
-2.9323e-22
-9.47254e-23
-7.05858e-22
-1.0641e-21
-1.53147e-22
-2.78194e-22
-1.51592e-22
-4.31178e-22
-5.77376e-22
-3.17631e-22
-5.00592e-22
-2.05421e-22
-4.31903e-22
-7.32853e-22
-4.63756e-22
-2.23488e-22
-6.85128e-22
-3.46474e-22
-3.03115e-22
-5.33198e-22
-2.24715e-22
-3.34441e-22
-2.80605e-22
-5.6669e-22
-5.41677e-22
-3.53811e-22
-3.35942e-22
-7.24227e-22
-5.58734e-22
-7.27487e-22
-2.47763e-22
-3.29755e-22
-5.27426e-22
-2.49832e-22
-7.22513e-22
-2.89517e-22
-2.84289e-22
-1.98422e-22
-7.29549e-22
-6.77848e-22
-6.33806e-22
-5.12194e-22
-4.70863e-22
-3.30187e-22
-3.6103e-22
-2.9887e-22
-2.07005e-22
-1.88887e-22
-4.60155e-23
2.17038e-22
-9.59513e-22
-5.5083e-22
-4.85585e-22
-1.14664e-21
-3.46058e-22
-3.35923e-22
-6.52586e-22
-7.30024e-22
-6.50491e-22
-1.99287e-22
-3.38302e-22
-3.29541e-22
-5.34946e-22
-3.24053e-22
-7.4212e-22
-2.8021e-22
-7.25833e-22
-4.25776e-22
-3.36742e-22
-3.44288e-22
-1.80755e-22
-7.22303e-22
-7.26488e-22
-2.46695e-22
-7.23896e-22
-3.30238e-22
-6.87513e-22
-1.1265e-22
-7.39988e-22
-5.49299e-22
-6.4091e-22
-6.7545e-22
-7.23414e-22
-7.40549e-22
-3.31684e-22
-6.25082e-22
-7.31779e-22
1.93543e-22
-3.36347e-22
-3.41738e-22
-3.49752e-22
-7.42855e-22
-7.1994e-22
-5.0691e-22
-7.51174e-22
-6.37865e-22
-6.87665e-22
-7.46093e-22
-4.55872e-22
-4.84107e-22
-6.9208e-22
-1.85265e-22
-7.52491e-22
-4.32714e-22
-7.46724e-22
-3.07199e-22
-7.50906e-22
-2.54603e-23
-7.55828e-22
-3.26245e-22
6.98767e-23
-7.49682e-22
-7.45068e-22
-1.43587e-21
4.69614e-22
-7.44338e-22
-7.39718e-22
-2.20396e-22
-2.29615e-22
-2.26498e-21
-4.41813e-22
-7.49264e-22
1.76807e-22
-6.64255e-22
3.16989e-22
-7.33915e-22
1.93604e-22
-7.37647e-22
-9.16546e-22
-3.44785e-22
1.61072e-22
-2.85335e-22
-7.1788e-23
-7.45917e-22
1.74528e-21
6.51419e-22
-5.53804e-22
-5.98916e-22
-1.46118e-21
-1.01687e-21
-7.87355e-22
-6.94925e-22
-7.43446e-22
-7.21063e-22
-6.06775e-22
1.73837e-23
-1.72617e-22
-7.49279e-22
2.40046e-22
-7.31097e-22
-1.00504e-23
1.08203e-22
3.64649e-22
-7.37181e-22
1.93034e-22
-7.27427e-22
-1.22446e-22
-7.48872e-22
-7.45649e-22
-7.34693e-22
-7.56293e-22
-1.8212e-22
5.31017e-22
-7.53683e-22
-7.56244e-22
-2.25039e-22
-7.52262e-22
-7.53379e-22
1.20593e-22
-5.05113e-22
1.67762e-22
-1.23077e-22
4.10897e-22
2.29596e-22
3.58538e-22
-4.90887e-22
-7.5e-22
-3.22292e-22
-8.20432e-22
-7.35004e-22
1.18368e-22
2.4213e-21
1.63398e-21
-7.34966e-22
1.8326e-21
-7.33764e-22
-5.25922e-22
-1.34556e-21
-7.71257e-22
-7.80381e-22
-7.14944e-22
-7.44642e-22
-7.09115e-22
-6.21629e-22
-7.04603e-22
-4.08029e-22
-2.61991e-22
3.637e-23
-6.66418e-22
-7.39231e-22
-4.96463e-22
-1.09687e-21
-1.95757e-21
-7.47365e-22
-7.52857e-22
-7.54434e-22
-7.33205e-22
4.5857e-22
2.98423e-22
-7.34194e-22
)
;

boundaryField
{
    back
    {
        type            empty;
    }
    front
    {
        type            empty;
    }
    left
    {
        type            zeroGradient;
    }
    top
    {
        type            zeroGradient;
    }
    right
    {
        type            zeroGradient;
    }
    bottom
    {
        type            uniformFixedValue;
        uniformValue    
        {
            type            scale;
            scale           
            {
                type            squarePulse;
                start           0.3;
                duration        0.3;
            }
            xScale          
            {
                type            constant;
                value           1;
            }
            value           
            {
                type            constant;
                value           15.1;
            }
        }
        value           uniform 0;
    }
}


// ************************************************************************* //
