/*--------------------------------*- C++ -*----------------------------------*\
  =========                 |
  \\      /  F ield         | OpenFOAM: The Open Source CFD Toolbox
   \\    /   O peration     | Website:  https://openfoam.org
    \\  /    A nd           | Version:  9
     \\/     M anipulation  |
\*---------------------------------------------------------------------------*/
FoamFile
{
    format      ascii;
    class       surfaceScalarField;
    location    "0.97";
    object      phi;
}
// * * * * * * * * * * * * * * * * * * * * * * * * * * * * * * * * * * * * * //

dimensions      [0 3 -1 0 0 0 0];

internalField   nonuniform List<scalar> 
663
(
-2.06038e-28
3.5714e-28
-1.51796e-28
1.21217e-28
3.9518e-28
5.38133e-31
-5.56685e-31
-1.94821e-30
8.73402e-30
-6.90366e-30
-1.74733e-28
2.93687e-28
2.61571e-31
-1.79631e-30
-3.69672e-28
1.65241e-28
6.07641e-30
-1.08008e-29
-4.35815e-28
2.7434e-28
1.60171e-28
3.83127e-29
-4.72864e-28
1.30077e-29
3.46972e-28
1.60657e-28
-1.41673e-29
-1.46322e-28
-9.29835e-29
1.24572e-28
2.34697e-29
1.56589e-28
-1.50718e-28
1.03904e-29
1.6978e-28
-6.44911e-30
9.84279e-29
-5.02061e-29
-1.73006e-29
6.42119e-29
6.24713e-29
-2.44423e-30
2.59826e-30
3.32605e-29
-3.24204e-29
1.58605e-30
-1.80447e-31
2.70995e-29
-2.40311e-29
4.47093e-30
1.93183e-29
-2.35566e-29
-3.45627e-30
-5.62974e-30
-4.58344e-30
1.01957e-29
5.17315e-30
8.23812e-31
5.21478e-30
-1.3656e-29
4.97975e-29
-8.50675e-29
3.37933e-29
-1.06194e-29
1.12328e-29
-7.13626e-31
1.49534e-28
-8.19821e-29
7.94055e-30
-1.69891e-29
9.05806e-30
-9.61344e-30
1.4905e-29
-1.42728e-28
1.53747e-28
-1.07691e-29
1.52585e-29
-1.55719e-28
1.40454e-28
-1.33582e-28
2.08363e-29
1.15813e-28
4.45891e-29
-8.27311e-30
-1.00235e-30
1.40169e-29
-6.80468e-29
-1.163e-30
-3.44251e-30
1.76363e-30
-1.50062e-29
-1.38323e-28
1.73206e-29
1.2246e-28
-2.1565e-29
-1.28964e-29
1.09252e-29
-2.33768e-29
1.25518e-29
-2.01118e-29
-9.11414e-29
1.61677e-29
-9.26931e-29
-1.91661e-29
2.90947e-29
-3.34736e-29
4.37651e-30
2.89425e-29
-3.00327e-29
9.97739e-31
6.31298e-30
-6.38182e-30
5.318e-30
1.46164e-30
-2.75643e-29
-1.95151e-29
2.22277e-30
1.72614e-29
-1.83753e-29
7.93074e-30
1.21044e-29
-1.37737e-30
5.38398e-29
-5.26981e-29
-5.50051e-29
5.01597e-29
-7.90829e-31
-2.15127e-29
2.42963e-29
1.05204e-29
6.04899e-29
-6.88316e-29
-5.72528e-29
6.31444e-29
-3.04526e-30
-4.65404e-30
4.76633e-30
-7.18435e-29
2.17732e-28
-1.4596e-28
7.62165e-29
-4.37932e-29
-3.56805e-29
-5.64919e-29
5.84716e-29
-3.17929e-30
-2.79952e-28
3.16912e-28
5.50004e-30
4.45956e-29
3.87983e-29
-5.89715e-29
2.14902e-29
-9.16319e-30
-1.43157e-28
-1.25091e-30
-5.50881e-29
-6.52317e-29
7.32927e-30
-3.55587e-28
1.42447e-28
9.07364e-30
2.75181e-30
2.33941e-29
-1.33612e-29
5.1232e-29
-3.7852e-29
-2.21654e-30
-1.85767e-29
6.34566e-29
-3.54101e-28
2.03963e-28
6.43397e-29
-9.65829e-30
-5.06382e-30
1.51033e-28
1.77932e-28
-3.29137e-28
-4.41803e-30
-9.1986e-31
5.31027e-30
5.34913e-29
-9.79292e-29
4.39416e-29
-1.3218e-30
3.24018e-30
-1.9362e-30
1.99336e-28
1.46191e-29
5.34603e-29
2.05965e-28
9.77342e-30
-1.0955e-29
4.01159e-30
-1.75103e-29
1.3431e-29
-4.04154e-29
2.62392e-29
5.24217e-29
-1.80166e-28
6.76141e-31
4.69763e-29
-4.46031e-29
-5.78213e-29
-1.72651e-28
2.31794e-28
-3.20755e-29
3.23259e-29
-7.36552e-29
1.51561e-30
-1.0667e-29
6.86878e-30
5.88298e-30
1.83794e-29
-2.46761e-29
2.32397e-28
-3.26908e-28
-1.67229e-29
1.78383e-29
-9.30119e-34
-3.26781e-29
-2.19525e-29
3.55751e-30
5.6447e-29
9.04997e-29
-7.17674e-29
-1.00434e-28
8.92214e-31
-2.25852e-29
-2.91859e-29
-3.36809e-29
8.64377e-29
4.23763e-29
-4.65077e-29
3.82598e-30
-1.36379e-29
3.3398e-29
-2.12248e-29
-3.45599e-29
3.19855e-29
-3.46327e-29
3.81864e-29
-1.96018e-29
-7.00639e-31
-2.08699e-29
-2.60421e-30
-3.91416e-29
4.01672e-30
-2.65008e-30
6.89593e-30
-4.2523e-30
1.67217e-29
8.30289e-30
-1.35741e-29
3.77345e-29
-2.79053e-29
2.63539e-28
1.97217e-28
8.23597e-30
-8.04995e-29
2.48794e-28
-5.46521e-29
3.96362e-29
-5.26596e-29
2.0416e-28
-1.04499e-29
-1.36527e-32
3.31439e-29
1.80299e-29
7.0859e-29
-1.68191e-29
2.29479e-29
-2.73282e-29
5.11018e-30
3.12099e-30
-1.76492e-29
1.44372e-29
2.19088e-30
-6.67933e-30
-1.59313e-29
1.27956e-29
-7.48195e-30
8.70986e-30
6.9716e-30
-6.86007e-30
-5.88956e-29
5.36217e-29
-4.45934e-29
-2.53223e-29
-5.02562e-30
-1.70843e-30
3.30917e-30
4.72392e-29
-2.47391e-29
-4.01245e-30
-4.06994e-30
5.74966e-29
-8.66427e-31
-7.81065e-30
-3.25621e-30
-3.37511e-29
7.91138e-30
-2.19614e-29
2.56782e-29
-9.55991e-29
1.60292e-28
-6.68019e-29
8.57521e-30
2.75556e-29
1.83108e-29
1.0144e-29
-3.7342e-30
-5.3409e-29
5.29048e-30
-3.00424e-29
-5.41743e-30
1.81414e-28
9.41872e-29
-9.61437e-30
1.04101e-28
-3.56391e-29
-7.05839e-29
-3.83742e-29
6.53494e-30
8.58744e-30
-4.71187e-29
-9.22012e-30
-4.6912e-30
-5.64364e-30
-8.36157e-31
9.92015e-29
-1.07019e-29
2.30907e-29
-4.9094e-30
1.5128e-28
-1.52235e-28
-1.7176e-29
1.74403e-29
-6.88327e-30
-1.06028e-29
1.01242e-28
-2.35985e-29
2.69749e-29
-1.71833e-29
2.42779e-29
1.24812e-29
-1.37577e-29
-3.38462e-29
-6.40468e-30
8.16317e-30
-4.3422e-29
-1.76626e-28
8.11713e-29
-1.9673e-29
-7.6499e-29
8.71143e-29
3.76466e-29
-2.92181e-29
9.84278e-30
-3.56489e-29
2.45493e-29
2.33174e-30
-1.5008e-29
6.36958e-29
6.95363e-29
-6.11534e-29
-6.65101e-29
-1.95404e-29
-1.30783e-29
1.5414e-29
-1.1846e-29
3.41703e-30
5.04447e-30
3.61538e-29
3.54204e-30
-3.95052e-29
-1.0776e-30
-1.06175e-29
-1.35003e-29
1.3495e-29
-6.02771e-31
3.33307e-30
6.0308e-29
5.14703e-29
-4.76413e-29
-2.38053e-29
4.28128e-29
-4.47131e-29
-7.89075e-31
4.81803e-29
1.67478e-30
-1.80855e-29
1.72149e-29
4.74137e-29
-6.71261e-31
-1.57603e-29
-1.95057e-29
-2.10658e-29
2.10122e-29
-2.25916e-29
1.66844e-29
-8.93794e-30
-5.42991e-29
4.34554e-29
-3.80651e-30
-7.06224e-29
-4.56549e-29
4.69053e-29
-2.27061e-29
3.22173e-30
-5.80963e-31
-4.7379e-31
-4.03694e-29
-4.79893e-29
9.90134e-30
-4.59889e-29
-2.62233e-30
-5.19393e-29
5.36095e-29
-5.08235e-29
6.98503e-30
-4.89166e-29
-4.94962e-29
-3.72565e-29
-1.42925e-29
1.07787e-29
-5.94902e-29
-1.71137e-29
-5.62917e-29
3.16612e-29
-5.98842e-29
7.89671e-29
-9.79075e-30
-5.2434e-29
5.19426e-29
3.45431e-29
-5.4262e-29
-4.78783e-29
2.76678e-29
-7.49304e-29
5.16889e-29
-9.16017e-29
-3.40878e-29
-5.4749e-29
-9.07212e-29
-7.71424e-29
-4.19326e-29
6.41981e-30
-3.04891e-29
-8.54022e-29
-1.23882e-29
-1.19325e-29
9.50977e-29
-1.16626e-28
-8.81138e-29
-5.53908e-29
8.27065e-29
-2.19432e-29
-3.26795e-29
-9.14729e-29
5.15188e-29
-4.81116e-29
3.20079e-29
-3.89069e-29
-9.29458e-31
-9.76333e-29
7.51916e-29
-1.57141e-28
7.78876e-29
-3.72511e-29
-7.34569e-29
-6.41796e-29
6.83345e-29
-1.22116e-30
-1.17672e-28
5.38527e-29
-1.55215e-28
1.77211e-28
-2.22538e-29
-5.88837e-29
-1.5267e-28
-1.1372e-28
-1.96412e-29
1.84674e-28
-1.76375e-28
4.03242e-29
1.4521e-28
-2.15433e-29
-5.60282e-29
-6.14296e-29
7.88613e-29
1.72173e-29
1.64039e-28
1.80461e-28
-1.10639e-28
5.10218e-29
2.16707e-30
2.21928e-29
-2.19759e-29
1.10097e-29
-1.97917e-29
3.48629e-29
-1.00043e-30
-2.42627e-29
-1.27392e-30
-1.25391e-29
-1.48529e-28
-1.60842e-29
-3.17768e-30
-5.16458e-30
-1.91445e-29
1.12873e-28
-1.23647e-28
2.20431e-29
-5.54664e-29
-1.42632e-30
-5.45037e-29
1.10644e-28
3.12582e-29
4.47528e-29
4.38331e-29
-5.16564e-29
2.30195e-29
-7.07125e-30
1.97896e-29
-9.74317e-30
-2.52387e-29
-1.39221e-28
-1.53055e-28
-9.16577e-30
1.63177e-28
6.58929e-29
8.34936e-30
8.59549e-30
-7.82807e-29
1.52519e-29
6.08704e-30
8.45769e-30
2.10732e-29
-5.94133e-29
1.59125e-28
2.49426e-29
-5.05275e-29
2.68541e-30
-4.8151e-29
2.31733e-29
5.84029e-30
-1.41878e-30
-1.86262e-29
-2.02357e-29
1.02654e-30
4.46176e-29
1.00254e-29
-1.01011e-29
-3.47435e-29
2.68508e-29
-3.70181e-30
4.54785e-28
-2.05707e-28
-8.15781e-31
8.25985e-31
-6.1506e-29
3.76445e-29
-4.29199e-30
8.2359e-31
-9.58538e-31
9.67035e-33
-3.31257e-32
-2.22109e-31
1.2695e-28
-4.22154e-28
2.29196e-29
2.50867e-30
8.55487e-30
1.46222e-29
-2.90051e-30
3.76068e-29
1.39145e-28
-7.2646e-31
1.38137e-28
-7.33518e-31
-4.75149e-29
4.4017e-28
3.6703e-31
-2.99729e-30
-1.92998e-28
-1.48613e-31
-3.73267e-29
1.77419e-28
7.57625e-31
5.85317e-32
-3.31575e-29
4.59597e-29
3.37341e-29
-8.42133e-30
1.06616e-30
-2.97289e-30
2.42513e-29
-1.55576e-28
-1.0796e-28
-3.72834e-29
-4.3105e-29
-1.10518e-28
-1.39167e-29
6.48864e-29
1.16849e-29
-3.80957e-29
9.01607e-29
-8.83959e-29
-7.34024e-29
-2.52847e-29
1.37855e-28
1.14265e-28
-8.20741e-30
7.5545e-29
1.95025e-29
-2.46652e-29
6.25262e-29
-1.26725e-29
1.72531e-30
2.21645e-29
1.97575e-29
-3.79949e-29
-2.78015e-29
1.39583e-29
6.76272e-29
4.21754e-28
-7.55146e-31
3.06729e-28
-1.85061e-31
2.60897e-28
-2.16589e-28
9.75745e-29
-9.74562e-29
-2.87085e-31
-1.59723e-28
-5.80372e-31
-2.59196e-28
-2.14567e-28
7.47112e-31
6.62785e-30
-4.94957e-30
1.28015e-30
3.65151e-30
-1.2322e-29
1.43867e-29
3.09221e-29
5.78479e-30
3.26791e-30
-7.66083e-29
4.90099e-29
5.55153e-29
-1.22777e-29
-5.48344e-30
4.04761e-29
3.01925e-29
2.74941e-29
-2.16771e-29
-2.4904e-29
-1.47596e-30
-2.82924e-30
1.40938e-30
-1.66175e-30
)
;

boundaryField
{
    back
    {
        type            empty;
        value           nonuniform List<scalar> 0();
    }
    front
    {
        type            empty;
        value           nonuniform List<scalar> 0();
    }
    left
    {
        type            calculated;
        value           uniform 0;
    }
    top
    {
        type            calculated;
        value           uniform 0;
    }
    right
    {
        type            calculated;
        value           uniform 0;
    }
    bottom
    {
        type            calculated;
        value           nonuniform List<scalar> 8(-5.19039e-28 -2.49964e-28 2.97194e-28 -3.15737e-28 -4.71167e-28 2.57507e-28 3.8563e-28 4.44636e-29);
    }
}


// ************************************************************************* //
