/*--------------------------------*- C++ -*----------------------------------*\
  =========                 |
  \\      /  F ield         | OpenFOAM: The Open Source CFD Toolbox
   \\    /   O peration     | Website:  https://openfoam.org
    \\  /    A nd           | Version:  9
     \\/     M anipulation  |
\*---------------------------------------------------------------------------*/
FoamFile
{
    format      ascii;
    class       volVectorField;
    location    "0.97";
    object      U;
}
// * * * * * * * * * * * * * * * * * * * * * * * * * * * * * * * * * * * * * //

dimensions      [0 1 -1 0 0 0 0];

internalField   nonuniform List<vector> 
464
(
(-9.02481e-21 -2.12104e-21 2.07764e-39)
(-5.8427e-21 1.34511e-20 0)
(-1.26818e-23 8.98169e-24 0)
(-5.43556e-23 2.53843e-22 4.46025e-38)
(-4.2218e-21 1.07471e-20 0)
(-1.97636e-23 2.5556e-23 -1.13707e-38)
(-8.61611e-21 -4.22052e-23 -6.96902e-40)
(-1.83476e-23 2.51671e-22 0)
(-1.05347e-20 3.07139e-21 1.79066e-39)
(-9.95414e-21 5.63045e-21 -8.23944e-39)
(-7.14268e-21 -3.8748e-21 1.31722e-40)
(-2.97114e-21 -1.43216e-21 -5.12515e-40)
(-9.20587e-21 1.83993e-21 -1.35463e-38)
(-1.96859e-21 -2.26565e-21 0)
(-4.67945e-22 4.49854e-21 -1.49858e-38)
(-2.28134e-22 4.36582e-21 1.55283e-38)
(-1.45563e-21 1.26647e-21 0)
(-1.84856e-21 1.10368e-21 1.89626e-38)
(5.62183e-24 4.74908e-23 -3.42517e-38)
(-2.65161e-22 9.07693e-22 3.61847e-38)
(-2.17738e-22 8.56683e-22 -5.34646e-38)
(-1.56485e-22 6.60676e-22 9.89856e-39)
(-2.08733e-22 7.23684e-22 -5.55777e-39)
(-4.55636e-23 3.4683e-22 0)
(-6.15745e-23 1.93139e-22 -4.58092e-38)
(-6.51892e-23 3.7975e-22 2.11714e-38)
(-7.69301e-22 3.1331e-21 7.46687e-39)
(4.47956e-23 3.24962e-22 -4.43937e-38)
(-7.75418e-22 3.70191e-21 0)
(-1.19924e-22 5.014e-22 0)
(-1.01605e-22 5.05231e-22 2.60437e-39)
(1.00238e-21 4.91463e-21 1.81163e-40)
(1.06671e-21 4.79929e-21 -4.34508e-39)
(8.08402e-22 3.46674e-21 -2.40706e-38)
(1.94259e-21 3.48124e-21 2.42592e-38)
(1.35056e-22 9.26919e-22 5.40399e-38)
(-1.20716e-21 7.40288e-22 -5.66418e-38)
(4.53185e-24 1.01978e-22 -5.43371e-39)
(4.42435e-23 3.34192e-22 3.69224e-40)
(2.6934e-22 3.41373e-21 0)
(-4.60098e-24 1.01145e-21 5.05191e-38)
(-1.52178e-22 7.4039e-22 0)
(-2.14281e-22 7.79075e-22 -1.46457e-38)
(-1.0492e-21 1.57316e-21 -1.14307e-38)
(-2.01303e-21 8.70779e-22 1.19647e-38)
(-4.69782e-22 4.94441e-21 -2.75393e-39)
(-6.9078e-23 8.77197e-22 4.15759e-38)
(-1.02715e-23 7.56898e-22 -4.78377e-40)
(-1.00544e-23 1.29243e-22 0)
(4.42302e-23 2.05817e-22 5.26085e-39)
(1.47748e-23 9.02104e-22 -3.02489e-38)
(2.68686e-23 4.88037e-22 -2.72953e-39)
(1.58699e-22 7.78248e-22 -2.72654e-38)
(-7.70311e-23 1.51654e-21 -3.72375e-38)
(-5.33432e-23 1.52475e-21 -1.23517e-39)
(-1.63268e-23 6.18645e-22 4.30791e-38)
(-4.80709e-24 7.40243e-22 0)
(1.92418e-22 1.88244e-21 0)
(2.5225e-22 1.77151e-21 -3.54111e-38)
(5.1063e-22 8.30609e-22 0)
(2.47e-23 1.93902e-22 4.35921e-38)
(-4.6701e-21 4.36381e-21 3.29901e-38)
(7.89515e-22 1.78074e-21 6.37731e-38)
(5.20559e-23 1.61997e-21 -3.72855e-38)
(-8.0747e-21 5.32534e-21 -1.15722e-39)
(-1.47073e-22 1.39578e-21 -3.97689e-38)
(7.66285e-22 1.30594e-21 -3.04987e-38)
(4.82794e-24 2.84955e-22 -4.13097e-38)
(-5.23932e-21 -2.01451e-21 -3.4763e-39)
(-6.21863e-23 1.54966e-21 3.8865e-38)
(1.84259e-22 1.70347e-21 3.53377e-38)
(-6.46219e-21 6.08245e-21 -1.66223e-38)
(-6.65346e-22 4.36002e-21 0)
(-2.98723e-23 7.97267e-22 4.26679e-38)
(2.9224e-22 -1.3557e-21 -1.97921e-38)
(4.1272e-23 4.83873e-22 4.37782e-38)
(5.80785e-22 1.65898e-21 -3.25628e-38)
(-1.02717e-20 -1.97014e-21 -1.72311e-39)
(1.49161e-22 1.73311e-21 -3.72489e-38)
(-2.71624e-22 4.58844e-21 -2.65569e-39)
(-3.99182e-21 7.46086e-21 0)
(-5.55346e-23 1.72577e-22 1.08509e-38)
(-8.90463e-22 2.66047e-21 -3.19382e-38)
(-4.07917e-23 1.06501e-22 4.59593e-38)
(-2.3465e-21 4.74947e-21 0)
(2.89529e-22 1.87358e-21 4.08231e-40)
(-4.54675e-21 3.07193e-21 -1.65322e-38)
(-7.38884e-23 2.10425e-22 0)
(-3.66353e-23 4.85802e-22 0)
(3.85546e-22 -1.04032e-21 -1.97438e-38)
(-2.81056e-21 3.73131e-21 2.16529e-38)
(-6.12789e-21 8.17111e-21 0)
(1.12903e-21 8.38797e-22 2.55147e-38)
(-4.20219e-21 -6.17802e-21 -8.98768e-39)
(1.09345e-21 4.06094e-22 -2.4974e-38)
(4.47749e-22 1.65191e-21 -3.35006e-38)
(6.23727e-23 1.76583e-21 3.73354e-38)
(-3.55262e-23 2.32949e-22 -9.95174e-39)
(-6.83402e-23 -8.21919e-22 -2.2495e-38)
(-7.96271e-21 2.73137e-21 7.4492e-39)
(-7.93393e-23 4.95471e-22 0)
(-2.67675e-23 9.55408e-22 2.36916e-39)
(-9.56848e-23 5.60744e-22 0)
(1.34514e-21 4.40225e-21 -1.77272e-40)
(1.14169e-21 4.02107e-21 0)
(-6.00894e-22 2.13618e-21 -2.2825e-38)
(-1.4133e-23 3.50898e-23 0)
(8.52679e-22 1.26156e-21 2.97688e-38)
(-1.4833e-21 1.89151e-21 -2.16762e-38)
(-7.32457e-23 1.27645e-21 0)
(1.05715e-21 -1.69418e-22 0)
(-3.36042e-23 9.45284e-22 -4.24428e-38)
(9.4552e-22 9.12587e-22 0)
(-2.72412e-22 -1.02963e-21 2.08928e-38)
(-3.54101e-23 5.50617e-22 1.39853e-39)
(-8.97939e-23 6.53874e-22 -7.03358e-40)
(-4.93167e-22 7.95246e-22 2.79219e-38)
(-5.59174e-23 2.10369e-22 4.73572e-38)
(-8.77385e-23 -3.81912e-22 1.81056e-38)
(-7.81721e-23 3.1299e-22 -2.70758e-39)
(-5.30285e-23 1.12466e-21 3.90836e-38)
(-6.5726e-21 2.30182e-21 3.80295e-40)
(-5.72841e-21 3.10942e-21 1.23334e-38)
(-6.58693e-21 6.88556e-22 6.93404e-39)
(4.02908e-22 1.82395e-21 0)
(1.21494e-21 -3.0462e-22 1.9902e-38)
(-4.98404e-21 2.44776e-21 -1.24409e-38)
(6.07845e-22 -4.9378e-22 0)
(6.49891e-22 2.87715e-21 0)
(-3.5456e-22 8.36218e-22 2.47423e-38)
(-4.27506e-23 9.26961e-23 -3.56933e-38)
(-2.72344e-22 3.6234e-22 4.45395e-39)
(6.77048e-24 8.02971e-23 -3.56618e-38)
(-1.29175e-22 7.17598e-22 0)
(-1.04527e-22 4.70541e-22 0)
(-2.07635e-22 2.65122e-23 -2.21437e-38)
(-2.77271e-23 1.21155e-22 -7.00779e-38)
(-7.64167e-24 3.95553e-22 -4.49406e-38)
(-7.50382e-21 3.72351e-21 9.62216e-39)
(5.90578e-23 2.07252e-22 3.29342e-38)
(-5.72575e-23 2.58494e-22 0)
(1.26728e-21 2.24459e-22 0)
(1.60034e-22 1.52807e-21 1.62873e-39)
(-6.12463e-23 6.59991e-22 4.44936e-38)
(-3.31527e-23 2.28005e-22 4.2593e-38)
(9.78055e-23 -1.38364e-21 -2.0807e-38)
(-1.19402e-22 8.01996e-22 0)
(-1.05342e-22 3.25253e-22 0)
(-4.22793e-23 1.69287e-21 -6.3812e-40)
(-7.79235e-23 2.44338e-22 -8.26977e-38)
(-1.65575e-22 8.65647e-22 1.3256e-39)
(-1.56927e-22 6.84794e-22 4.18885e-38)
(-1.64946e-21 4.06758e-21 -1.3367e-38)
(8.41543e-22 -7.71763e-22 -1.99903e-38)
(-2.50339e-22 -2.82982e-22 -2.23038e-41)
(-4.62533e-23 3.2407e-22 -4.56393e-38)
(2.31819e-22 1.44494e-21 0)
(-1.60851e-22 9.49869e-22 0)
(-5.1713e-21 2.58488e-21 -1.21824e-38)
(-1.75659e-21 1.08495e-21 2.1426e-38)
(-9.03108e-22 2.40233e-21 0)
(-1.80279e-22 1.01116e-21 -4.2673e-38)
(3.14781e-22 -1.19345e-21 3.95384e-38)
(1.50114e-22 2.49292e-22 -1.4832e-39)
(-1.57869e-22 2.52145e-22 4.51085e-38)
(-2.18119e-23 1.31439e-22 0)
(-1.54238e-22 3.10706e-21 -1.6173e-38)
(-1.20668e-23 6.89976e-22 3.4815e-38)
(4.09481e-22 3.47853e-21 3.23743e-38)
(6.17172e-23 -3.57631e-22 3.07978e-38)
(1.72942e-22 -4.52141e-22 7.24388e-40)
(-3.00316e-21 1.69742e-21 -1.8933e-38)
(7.40127e-23 -9.46376e-22 -7.68588e-40)
(-1.17709e-22 5.70747e-22 -9.83439e-39)
(1.33115e-22 -7.77504e-22 2.94084e-40)
(5.13077e-22 -2.05307e-22 -2.06325e-38)
(-1.82438e-22 1.10105e-21 4.23472e-38)
(-1.72731e-22 1.17602e-21 -1.68746e-40)
(-2.23029e-21 3.91423e-21 -1.45061e-38)
(1.21902e-21 2.65661e-21 -1.66157e-39)
(-2.40613e-22 9.83616e-22 4.06144e-38)
(3.75718e-22 8.18977e-22 2.30085e-38)
(-6.36745e-22 5.89917e-22 0)
(-2.0674e-22 8.55091e-22 7.28204e-38)
(-1.64323e-23 2.33351e-21 3.38774e-38)
(6.06957e-22 1.57819e-21 -1.75923e-39)
(1.0274e-22 5.17281e-22 0)
(5.08582e-25 2.82433e-22 -1.91016e-38)
(5.34395e-23 -5.00289e-22 -3.16948e-38)
(1.56701e-22 -2.70745e-23 4.28616e-41)
(-5.05348e-23 1.17284e-21 -3.99607e-41)
(1.81245e-22 2.40777e-22 2.38943e-38)
(-1.89671e-23 2.73537e-22 -6.74417e-38)
(-1.84429e-23 9.24261e-22 -4.25645e-38)
(8.67181e-23 1.73963e-21 3.48752e-41)
(8.37994e-23 1.53728e-21 -3.49857e-41)
(1.93144e-22 4.56718e-22 -3.20115e-38)
(-6.91929e-23 1.34211e-21 3.95356e-41)
(-3.01025e-22 1.48864e-21 -2.89708e-38)
(-6.48922e-24 1.35902e-21 3.83356e-38)
(-1.38726e-23 1.10081e-21 0)
(6.46019e-23 1.34152e-21 0)
(-1.03205e-23 6.57299e-22 0)
(1.82056e-23 1.48931e-21 3.71582e-41)
(5.0102e-23 4.60837e-23 0)
(-2.13678e-23 5.46861e-22 1.20812e-39)
(-4.64891e-24 3.84912e-22 0)
(-4.90014e-24 4.33712e-22 -2.99804e-38)
(2.55929e-24 8.0938e-22 3.53203e-38)
(1.60638e-23 -5.42748e-22 1.66037e-38)
(-2.35135e-23 1.92001e-22 3.38443e-38)
(1.43026e-24 3.41731e-22 0)
(-1.16967e-23 1.86631e-22 3.54321e-38)
(-8.59791e-22 6.02365e-22 -4.32429e-38)
(2.46297e-22 1.57324e-22 0)
(5.45102e-23 -1.2572e-22 -1.58956e-38)
(-1.24587e-22 1.19122e-21 2.93522e-39)
(-6.00167e-24 3.37679e-22 3.30283e-38)
(7.18157e-24 1.32938e-21 -1.8381e-38)
(9.99959e-25 4.745e-22 -2.82606e-38)
(-1.68202e-21 1.03752e-21 -5.8097e-38)
(-1.16855e-24 7.55583e-22 3.74958e-38)
(1.7431e-23 1.23753e-21 -3.83817e-38)
(-6.47816e-23 1.53817e-21 7.62858e-38)
(-1.18162e-22 1.27407e-21 4.20806e-38)
(-1.52001e-22 1.33307e-21 -3.98807e-38)
(-7.94927e-24 1.39467e-21 0)
(-7.86573e-23 1.47626e-21 2.04332e-38)
(-1.3538e-22 1.38745e-21 -1.3133e-39)
(8.46537e-23 1.58441e-21 -3.65802e-38)
(3.05037e-23 1.35036e-21 3.62571e-38)
(2.07896e-22 1.35218e-21 -3.76694e-39)
(3.16715e-22 1.25218e-21 0)
(3.82291e-22 1.6719e-21 -3.00789e-38)
(3.54764e-22 1.18354e-21 3.08484e-38)
(2.67376e-22 1.61867e-21 0)
(8.79321e-22 2.74726e-21 5.39009e-39)
(7.48011e-22 1.54358e-21 4.52001e-39)
(1.83966e-22 1.62694e-21 2.67575e-38)
(-4.62315e-23 1.30962e-21 8.96752e-38)
(4.36614e-22 1.79796e-21 -2.72486e-38)
(2.00894e-21 1.75773e-21 -3.31653e-38)
(5.44866e-22 1.91965e-21 2.31524e-38)
(6.11939e-22 1.89714e-21 0)
(9.03405e-22 2.06537e-21 0)
(6.8394e-22 2.49477e-21 2.17555e-38)
(6.61225e-22 1.96792e-21 -5.14844e-40)
(-1.28794e-22 8.93685e-22 0)
(3.62278e-22 2.46741e-21 0)
(-3.71146e-24 2.68123e-22 0)
(2.36652e-21 3.10465e-21 1.07094e-38)
(3.87017e-22 1.94972e-21 -2.15944e-37)
(1.62287e-21 1.75402e-21 -3.28037e-38)
(7.65608e-22 -6.13254e-22 1.98048e-38)
(1.32926e-21 1.99751e-21 0)
(1.38878e-21 1.84741e-21 0)
(-1.24962e-22 1.02657e-21 0)
(3.55473e-22 2.40275e-22 -4.9038e-38)
(9.49448e-22 2.2088e-21 -9.41764e-39)
(1.93931e-21 3.34287e-21 0)
(1.61807e-21 2.42445e-21 8.9274e-39)
(1.64461e-21 1.19744e-21 5.0278e-38)
(1.51013e-21 2.0754e-21 3.27298e-38)
(3.95354e-22 4.74992e-21 -1.52096e-38)
(1.6195e-21 3.08565e-21 -3.27305e-38)
(1.24935e-22 4.45279e-21 2.49763e-38)
(1.54008e-21 2.20667e-21 -5.1163e-41)
(-1.45086e-23 5.28531e-22 -1.36695e-39)
(1.34613e-23 5.21018e-21 1.72172e-38)
(1.1579e-21 4.17865e-21 1.54157e-38)
(-1.13096e-22 5.21715e-22 -3.6595e-38)
(1.55114e-21 2.79861e-21 0)
(4.2565e-22 2.38823e-21 1.59079e-38)
(4.17184e-22 5.49251e-21 2.01928e-38)
(-6.14933e-21 2.03112e-21 6.5592e-39)
(1.25619e-21 2.29261e-21 0)
(9.90649e-22 3.04375e-21 0)
(1.10305e-22 1.36414e-21 -3.28688e-38)
(-4.11435e-24 4.67149e-22 0)
(-1.60033e-22 -1.28991e-21 -2.56082e-40)
(4.34845e-22 9.4629e-22 1.49669e-40)
(-7.44355e-23 7.2464e-22 -1.60061e-40)
(1.22338e-23 8.27946e-22 0)
(-2.9288e-23 6.04761e-22 -4.40445e-38)
(-7.80642e-22 5.14826e-21 8.62131e-39)
(-1.2598e-22 3.88003e-22 -1.81715e-38)
(6.39369e-23 7.68122e-22 -3.20233e-38)
(-3.47642e-21 1.59172e-21 0)
(-1.75722e-23 6.81999e-22 0)
(-8.75016e-22 1.08507e-21 1.85414e-38)
(-1.5791e-21 7.6523e-22 7.19031e-41)
(-2.66435e-21 1.60387e-21 -8.85224e-41)
(-9.68416e-23 9.17315e-22 -4.37946e-38)
(-1.0742e-22 1.28723e-21 8.11321e-38)
(6.95973e-22 1.63269e-21 3.33723e-38)
(1.92993e-22 1.30386e-21 6.14762e-38)
(1.06267e-22 7.28597e-22 0)
(5.62672e-22 1.51099e-22 4.68033e-40)
(5.29501e-22 7.07448e-22 -2.30602e-38)
(-2.67741e-21 9.80719e-22 1.87888e-38)
(-5.66417e-22 4.56672e-21 -1.37988e-38)
(-1.79506e-21 3.12953e-21 -1.02512e-38)
(-3.29728e-21 2.74763e-21 -3.35915e-39)
(-2.51562e-21 -4.18448e-21 1.23695e-38)
(3.25223e-23 9.78157e-22 2.38984e-38)
(1.19246e-21 1.22226e-21 -3.35426e-38)
(1.61779e-21 9.50465e-22 -5.84421e-38)
(-2.48816e-22 8.49469e-23 3.64035e-38)
(-8.23601e-22 -3.89159e-23 -4.15815e-38)
(4.2115e-22 -7.5849e-22 -1.99028e-38)
(-1.79499e-23 1.68394e-21 -3.88733e-38)
(-9.49444e-23 7.95985e-22 1.58652e-40)
(1.02415e-21 1.80694e-21 0)
(-4.03062e-21 2.87252e-21 9.59462e-40)
(1.35532e-21 5.6373e-22 -4.36213e-38)
(8.54738e-22 3.87394e-22 0)
(3.2319e-23 4.5144e-22 2.53681e-38)
(-1.58896e-21 -3.66398e-23 0)
(5.00741e-25 1.70618e-22 0)
(-3.7726e-21 3.29105e-21 1.46257e-38)
(-1.45513e-22 5.49007e-22 3.39813e-38)
(3.37263e-22 1.07162e-21 -1.08509e-40)
(-8.27186e-22 -5.28193e-22 2.04318e-38)
(3.84314e-22 3.9702e-22 2.01191e-38)
(-2.82838e-21 2.46043e-21 2.27629e-38)
(-5.15393e-24 4.33391e-22 -4.97561e-40)
(-2.43752e-23 3.4943e-22 -4.26783e-38)
(-4.38949e-21 2.61998e-21 -1.45848e-38)
(1.89502e-23 5.85112e-22 0)
(-1.14502e-21 -2.31377e-22 -2.02325e-38)
(-1.68685e-22 8.96111e-22 -1.90908e-38)
(-1.08942e-20 6.51213e-21 -4.13677e-39)
(-1.72929e-23 1.4152e-23 -1.80867e-38)
(1.44629e-21 1.73713e-21 6.33779e-38)
(1.1068e-23 1.6961e-21 -3.69746e-41)
(-1.37477e-22 1.18419e-21 -4.00462e-38)
(-1.71726e-22 6.56724e-22 -3.12511e-38)
(-1.52478e-23 3.00797e-23 -3.56248e-38)
(5.36654e-22 -1.01955e-21 1.48918e-40)
(-2.27331e-22 6.56723e-22 4.0886e-38)
(1.15526e-24 2.65297e-23 1.83435e-38)
(-9.04047e-21 -7.56544e-21 0)
(-8.217e-24 -6.915e-22 -3.11042e-40)
(-4.07681e-22 -8.89416e-22 2.00781e-38)
(1.28192e-21 9.77535e-22 2.0515e-38)
(-2.05538e-23 3.4359e-22 2.20703e-38)
(-1.61453e-23 1.97601e-22 6.89221e-38)
(4.10042e-22 1.58696e-21 3.2468e-38)
(-2.67731e-23 6.84282e-23 4.3607e-38)
(5.24709e-23 1.79813e-21 0)
(-1.13081e-22 1.10865e-21 -1.29474e-39)
(-2.24699e-23 6.82722e-23 -2.08641e-38)
(2.82772e-22 1.10942e-21 0)
(2.71283e-22 1.40223e-21 -2.97161e-38)
(-5.58475e-23 1.06659e-21 -4.0602e-38)
(-1.9679e-21 8.49637e-21 2.55294e-38)
(6.7867e-24 1.09283e-23 0)
(-5.53718e-22 3.62814e-21 -1.37854e-38)
(8.37656e-24 1.14709e-23 -1.6845e-38)
(-7.44502e-21 1.21769e-20 0)
(-8.13181e-24 4.38194e-23 -2.4511e-38)
(-1.10488e-20 1.58427e-21 4.18731e-39)
(-2.66489e-23 9.42526e-23 1.21573e-38)
(-3.26657e-21 8.21636e-21 0)
(-6.5683e-21 -5.9695e-21 2.53301e-40)
(1.38006e-23 6.38719e-23 4.69908e-38)
(-1.68487e-23 3.64024e-22 0)
(1.62792e-21 1.8858e-21 0)
(-8.72385e-22 -6.73024e-22 0)
(-9.49079e-23 4.05613e-22 2.38348e-38)
(1.37153e-23 4.03696e-23 0)
(-2.94001e-22 8.74017e-22 -1.73502e-38)
(-9.43536e-22 4.77562e-21 -2.0713e-39)
(-2.44372e-21 1.40393e-21 0)
(1.22136e-22 2.14504e-21 -5.97681e-39)
(-5.9435e-23 3.71433e-22 0)
(-3.34232e-21 1.56791e-21 4.35853e-39)
(-8.49372e-23 5.51693e-22 6.0478e-38)
(-4.27147e-22 2.37675e-21 2.77079e-38)
(-9.15542e-23 4.73974e-22 1.23323e-38)
(-1.67828e-22 2.45034e-21 0)
(7.63958e-22 3.68734e-21 -3.49001e-38)
(-1.35813e-22 2.50128e-21 0)
(1.32678e-21 3.94332e-21 -1.02485e-38)
(1.81978e-21 1.50357e-21 -2.99573e-39)
(1.20374e-21 4.57463e-21 0)
(1.47058e-21 3.22677e-21 9.07834e-40)
(-5.1993e-23 3.39821e-22 -2.44533e-38)
(-6.22954e-22 1.64372e-21 0)
(-2.9558e-22 -4.48739e-22 0)
(1.06819e-22 1.40188e-21 -2.36818e-38)
(1.54243e-22 1.80404e-21 0)
(6.72984e-22 4.79728e-22 1.68242e-38)
(-5.46729e-23 3.80389e-22 1.12184e-37)
(-1.35261e-22 1.06241e-21 -1.97779e-38)
(-2.35264e-22 9.23236e-22 -4.25818e-38)
(-2.24008e-22 9.91007e-22 0)
(-1.79117e-22 7.16031e-22 -8.90897e-38)
(2.81252e-23 6.083e-22 0)
(-2.02155e-21 3.49717e-21 -7.13801e-40)
(-9.10354e-21 1.24037e-20 0)
(-5.39291e-24 1.78711e-23 0)
(-7.67221e-21 -8.10795e-21 0)
(1.0267e-23 3.63293e-23 -1.72615e-38)
(-1.12542e-20 2.67201e-21 4.04833e-39)
(-1.01257e-20 -4.05918e-21 0)
(-7.4212e-22 -2.89877e-21 0)
(8.17376e-24 -1.44483e-24 3.30129e-38)
(-2.08344e-21 -6.8055e-21 0)
(6.29198e-24 7.09172e-24 -4.24193e-38)
(-9.83818e-21 7.69885e-21 2.73861e-39)
(-1.46791e-24 2.45198e-22 2.39822e-38)
(-3.32937e-23 1.5151e-22 0)
(-1.13023e-22 5.30458e-22 2.23146e-38)
(-4.14125e-23 2.27948e-22 0)
(-7.71498e-21 9.58452e-21 0)
(-3.77056e-22 -9.05368e-22 0)
(4.14997e-23 1.81591e-22 1.42453e-39)
(-3.27996e-23 1.49035e-22 2.20517e-38)
(-1.03919e-20 8.70438e-21 -2.71837e-39)
(-5.00591e-25 1.84883e-22 2.54958e-38)
(-3.02036e-23 5.58787e-23 2.6241e-38)
(-5.47912e-21 -1.47088e-22 3.72545e-39)
(6.46911e-24 8.86979e-22 1.99555e-38)
(-5.79957e-21 -1.01465e-20 -1.15832e-38)
(-1.99645e-21 4.48788e-21 -5.82276e-39)
(-2.15279e-22 1.6226e-21 -1.74503e-38)
(-3.02039e-24 2.15709e-21 9.47483e-39)
(-4.41151e-22 1.1967e-21 -6.83938e-39)
(-1.28798e-21 4.99498e-21 3.32399e-38)
(-2.59787e-24 3.85644e-23 2.5099e-38)
(1.55924e-21 3.69893e-21 1.10202e-38)
(-2.97765e-22 3.66952e-21 1.98275e-39)
(-8.4511e-23 3.80496e-22 4.37992e-38)
(1.81311e-21 3.33155e-21 -1.01282e-38)
(-1.30798e-21 4.43608e-22 0)
(-1.14113e-21 6.08179e-22 -2.1426e-38)
(-1.36173e-22 5.91541e-22 -2.33595e-38)
(-6.26443e-22 -1.95788e-22 0)
(-5.26065e-23 3.68659e-22 -2.4054e-38)
(8.37016e-22 1.60013e-21 0)
(-1.49502e-24 -3.73524e-22 -2.78111e-38)
(-2.12183e-22 1.16815e-21 1.44128e-39)
(-1.08481e-22 1.10447e-21 -2.71529e-38)
(-1.85905e-22 8.03305e-22 6.54301e-38)
(-2.7191e-22 1.09563e-21 -1.39995e-39)
(-2.05378e-22 8.31315e-22 -2.40946e-38)
(-4.2101e-23 5.40751e-22 -2.10736e-38)
(-1.94962e-22 9.25982e-22 2.61873e-38)
(2.13912e-22 5.31233e-22 1.77328e-38)
(3.8046e-23 4.60201e-21 0)
(-1.10705e-20 -1.12633e-21 -7.5956e-40)
(4.0822e-22 5.21842e-21 -3.21869e-38)
(-8.49996e-23 4.599e-22 0)
(-1.10324e-22 1.09433e-21 -3.39344e-38)
(-1.05088e-21 3.42032e-21 0)
(7.61e-22 2.1717e-21 1.31895e-37)
(3.22081e-23 7.87335e-23 -2.37419e-38)
(2.47176e-23 1.19243e-22 3.52173e-41)
(2.99585e-23 1.3364e-22 -8.60344e-41)
(2.7277e-23 3.64594e-23 3.9109e-38)
(-9.57784e-22 -2.88274e-21 0)
(-4.04693e-21 -8.20457e-21 4.00509e-39)
(-8.31143e-23 4.40771e-22 -5.51377e-38)
)
;

boundaryField
{
    back
    {
        type            empty;
    }
    front
    {
        type            empty;
    }
    left
    {
        type            noSlip;
    }
    top
    {
        type            uniformFixedValue;
        uniformValue    
        {
            type            scale;
            scale           
            {
                type            squarePulse;
                start           0.3;
                duration        0.3;
            }
            xScale          
            {
                type            constant;
                value           1;
            }
            value           
            {
                type            constant;
                value           (0 -0.7 0);
            }
        }
        value           uniform (0 -0 0);
    }
    right
    {
        type            noSlip;
    }
    bottom
    {
        type            zeroGradient;
    }
}


// ************************************************************************* //
