/*--------------------------------*- C++ -*----------------------------------*\
  =========                 |
  \\      /  F ield         | OpenFOAM: The Open Source CFD Toolbox
   \\    /   O peration     | Website:  https://openfoam.org
    \\  /    A nd           | Version:  9
     \\/     M anipulation  |
\*---------------------------------------------------------------------------*/
FoamFile
{
    format      ascii;
    class       surfaceScalarField;
    location    "3";
    object      phi;
}
// * * * * * * * * * * * * * * * * * * * * * * * * * * * * * * * * * * * * * //

dimensions      [0 3 -1 0 0 0 0];

internalField   nonuniform List<scalar> 
1363
(
-5.02668e-07
3.19649e-07
1.83018e-07
-2.63628e-07
1.26158e-07
1.3747e-07
7.32122e-07
-5.71382e-07
-1.6074e-07
-1.5416e-07
4.62998e-07
-3.08838e-07
6.67021e-07
6.51001e-08
3.64333e-07
-3.52381e-09
-3.60809e-07
-1.35628e-07
1.35628e-07
3.44231e-07
2.01022e-08
-2.94792e-07
3.0348e-07
-8.68839e-09
1.43158e-08
-3.09108e-07
-3.27008e-07
1.97391e-07
1.29617e-07
5.33887e-07
-6.48773e-07
1.14885e-07
3.41397e-07
-4.95557e-07
-5.9242e-07
5.50256e-07
4.21643e-08
1.39269e-07
3.94618e-07
-2.35915e-07
-2.77123e-08
2.68947e-07
2.12634e-07
-4.81581e-07
-2.55318e-07
-2.47349e-07
-7.04289e-07
9.44003e-09
6.94849e-07
-2.73224e-07
2.73224e-07
3.0271e-07
-3.37629e-08
-2.25172e-07
-4.236e-07
-1.44922e-07
-1.99543e-08
1.64877e-07
1.0721e-07
-2.7762e-08
-7.94477e-08
-3.36055e-07
9.04701e-09
1.75117e-07
-6.79075e-08
5.86788e-07
-5.70031e-07
-1.67578e-08
-2.18444e-07
7.35219e-08
-1.77461e-08
-1.11122e-07
1.28868e-07
-2.27492e-08
-3.52369e-07
3.75118e-07
-1.18747e-07
-9.86253e-08
2.17373e-07
1.12777e-08
5.75511e-07
-9.3342e-08
7.55959e-08
-4.29526e-07
-2.62209e-08
4.55747e-07
5.78824e-07
-6.23675e-07
4.48515e-08
2.81186e-08
1.06606e-07
-1.34725e-07
-4.70792e-07
1.87217e-07
2.83576e-07
2.98143e-07
-1.27965e-07
-1.70178e-07
-2.51578e-07
-2.19214e-07
-6.84049e-08
4.06428e-08
1.34077e-07
-5.10251e-07
3.76174e-07
4.37041e-07
-4.43939e-07
6.89858e-09
9.33077e-08
-1.61713e-07
-3.36487e-08
-1.01979e-07
6.52961e-08
7.0332e-08
-3.51331e-07
-7.29776e-08
4.24309e-07
2.30264e-07
2.85502e-07
-5.15765e-07
9.37445e-08
-5.2327e-07
-3.53056e-07
4.87133e-07
-3.09567e-07
-2.82853e-07
-5.5962e-07
-1.4467e-07
4.87372e-08
-6.86915e-08
8.04557e-08
-5.23371e-08
1.29536e-07
-9.70303e-08
-3.25055e-08
4.10749e-07
-3.96433e-07
-3.87427e-07
3.35437e-07
5.19903e-08
1.47761e-07
-1.47761e-07
-1.16786e-09
4.11917e-07
7.93426e-08
6.84188e-08
7.18284e-07
2.72364e-08
-7.45521e-07
-2.08223e-07
1.85474e-07
6.02629e-07
-5.97133e-07
-5.49605e-09
-2.45289e-07
2.19068e-07
-8.93738e-08
4.09023e-07
1.95135e-07
1.03008e-07
3.08935e-07
-2.39254e-07
-6.96813e-08
3.25982e-08
3.27233e-07
3.60426e-07
-6.87659e-07
-1.57574e-07
-2.29853e-07
2.86234e-07
-2.07552e-07
-7.86817e-08
2.18813e-07
-9.26555e-08
-2.26925e-07
2.1117e-07
1.57552e-08
1.09074e-07
-1.09074e-07
-2.25751e-08
-3.29794e-07
1.76874e-08
1.11848e-07
7.07366e-08
-3.43961e-07
6.80588e-08
2.05166e-07
-1.8309e-08
-1.68056e-07
4.93092e-08
-2.74592e-07
3.86763e-08
-1.44875e-08
9.58355e-08
-8.1348e-08
7.64919e-08
2.30622e-08
1.32938e-07
-1.56e-07
3.43437e-08
-2.83669e-07
4.44147e-08
-7.14751e-07
6.77596e-07
3.71552e-08
5.43353e-07
1.74931e-07
3.02556e-07
8.66757e-08
-3.89231e-07
2.8602e-08
5.21654e-07
-1.91713e-07
2.14775e-07
4.64834e-07
-2.77929e-08
2.66842e-07
3.69033e-08
-3.03745e-07
-4.17451e-07
4.16283e-07
5.26799e-07
-1.91363e-07
2.43506e-07
-1.91515e-07
2.41668e-07
-2.87876e-07
4.62071e-08
-1.00572e-07
-3.43368e-07
-4.83204e-08
3.50876e-07
-1.99415e-07
1.84927e-07
-1.30881e-08
2.16193e-07
-8.24396e-10
-2.15369e-07
3.87353e-08
-4.56186e-07
-3.29356e-07
2.52585e-07
-1.69076e-07
4.12582e-07
3.22471e-09
1.8225e-07
1.59061e-07
-5.10392e-07
-4.90285e-08
-3.09536e-07
3.58564e-07
2.72363e-07
5.48698e-08
3.4969e-07
1.0736e-08
-1.03784e-07
-5.37901e-08
-2.44851e-07
1.49982e-08
-1.44306e-07
-9.64442e-08
-1.30481e-07
-1.71563e-07
3.68954e-07
2.66842e-07
7.77907e-07
-8.16725e-07
3.88183e-08
3.87286e-07
7.57118e-08
-7.85549e-08
6.54668e-08
1.18793e-07
-4.96648e-07
3.77855e-07
-6.54668e-08
6.86915e-08
1.31445e-07
-5.29512e-09
-1.2615e-07
9.33077e-08
8.13618e-08
-7.47303e-08
-6.49777e-08
-1.03079e-07
4.87372e-08
-2.55055e-07
1.61713e-07
2.55055e-07
-2.65867e-07
1.08121e-08
8.04557e-08
4.26123e-07
-4.16683e-07
-4.26123e-07
3.87873e-07
3.82504e-08
4.16683e-07
-1.31181e-07
-4.90871e-07
5.84616e-07
4.90871e-07
-2.18508e-07
-3.87873e-07
3.14895e-07
-7.51606e-08
-2.86232e-08
1.31181e-07
2.18508e-07
-2.73474e-07
2.86232e-08
2.73474e-07
-6.2653e-07
-5.84616e-07
6.2653e-07
-4.19144e-08
-3.14895e-07
2.65867e-07
6.33601e-07
5.65432e-08
-1.21521e-07
3.29912e-07
1.43188e-08
1.16239e-07
2.46715e-08
-2.32224e-07
6.0061e-08
1.51109e-07
6.65372e-08
-2.51386e-07
1.84849e-07
-2.41501e-07
-4.7325e-07
3.97283e-08
2.90184e-07
4.63207e-07
-5.19921e-07
5.67137e-08
6.58869e-07
-6.21966e-07
-1.88698e-07
2.12086e-07
-2.3388e-08
-6.11192e-07
-1.24829e-08
1.07653e-08
-2.62344e-07
-2.34642e-07
-4.9027e-08
-7.64839e-09
6.01809e-08
-5.25325e-08
-7.89489e-07
3.12405e-07
-3.07582e-07
7.29406e-08
2.45142e-07
-2.34377e-07
-4.87054e-07
1.78215e-07
3.52492e-07
1.81759e-08
-3.70668e-07
4.651e-07
-1.89254e-09
-4.09565e-08
-6.82964e-07
7.2392e-07
7.79826e-08
1.38211e-07
3.38763e-07
-8.61774e-08
1.14773e-07
-5.05029e-07
-4.684e-07
5.02131e-07
7.76546e-08
-3.61948e-08
9.96878e-08
5.77908e-07
-3.74758e-07
2.74352e-07
1.00406e-07
1.57743e-08
-3.0365e-07
-1.5516e-07
-2.19597e-07
5.4216e-07
-1.53608e-08
-4.26109e-07
3.08776e-07
1.17332e-07
-1.96437e-07
7.73827e-09
-1.68092e-07
5.69703e-08
2.53754e-07
-1.51757e-07
-2.77893e-07
1.92731e-07
-2.36612e-07
-5.40346e-07
7.76957e-07
-3.76507e-07
3.69749e-09
3.72809e-07
5.2652e-07
-7.68021e-07
4.42519e-07
-1.33743e-07
7.81479e-07
-8.19772e-07
3.82933e-08
3.38786e-07
1.03733e-07
-2.85745e-07
2.4955e-07
9.08541e-08
1.26518e-07
-1.77143e-08
-3.58792e-07
5.18253e-07
-1.76856e-07
3.49208e-07
-3.28317e-07
-2.08906e-08
-4.13832e-07
-9.64189e-08
-3.15474e-08
3.15474e-08
-7.85549e-08
2.0818e-07
3.10073e-07
-7.73393e-08
5.96249e-08
3.27407e-07
1.28572e-07
3.10768e-07
-1.13861e-07
-6.56165e-07
6.59863e-07
6.17603e-08
-9.58441e-09
-2.38398e-07
4.46578e-07
-2.07036e-07
4.13859e-07
-2.06823e-07
-7.96429e-07
7.90933e-07
-2.07961e-08
-2.15559e-07
4.89243e-07
-2.73684e-07
-2.51422e-07
7.77942e-07
7.37147e-07
-5.23717e-07
-2.1343e-07
-3.17044e-07
-1.12732e-08
-2.76465e-07
-4.05795e-08
-3.26683e-07
4.82624e-07
-1.55941e-07
2.98772e-07
-5.14331e-07
-1.11283e-07
4.50069e-07
4.63344e-07
-2.44068e-07
-2.19276e-07
7.59362e-08
-7.59362e-08
2.79926e-07
-2.79926e-07
4.91234e-08
-8.45553e-07
-3.46487e-07
4.74289e-07
-1.27802e-07
-5.78971e-08
1.03659e-07
-4.57617e-08
1.28822e-07
6.39083e-08
-6.33468e-07
-2.26971e-08
2.3605e-07
-2.3605e-07
-7.08687e-08
7.08687e-08
1.62561e-07
2.06123e-07
-4.44521e-07
6.79459e-07
5.76883e-08
1.36137e-07
3.2957e-08
-2.97695e-07
2.12302e-08
-1.94036e-07
1.26105e-07
2.12658e-07
-1.10302e-07
-3.69641e-07
4.79944e-07
3.10354e-07
-2.09948e-07
-2.47647e-07
3.6498e-07
-4.16867e-08
-3.63986e-07
-9.80749e-08
4.62061e-07
1.8966e-07
-7.6225e-09
8.30602e-07
-2.17829e-07
5.28598e-07
-4.7297e-08
-7.72475e-07
-2.86298e-07
3.90031e-07
2.0251e-07
-4.80925e-07
7.74911e-08
3.72578e-07
-1.82614e-07
-3.51303e-07
5.33918e-07
6.27067e-08
-4.8179e-07
3.25849e-07
3.35118e-07
-5.17732e-07
-8.00701e-07
-3.03854e-07
3.81345e-07
-4.1543e-07
3.17355e-07
6.00405e-08
3.98658e-07
-4.58698e-07
2.55341e-07
3.72128e-07
8.9933e-08
5.08568e-07
-1.3644e-07
-7.82219e-07
8.37334e-07
-5.5115e-08
1.58345e-07
9.48121e-09
7.81452e-07
-6.43053e-07
-3.7011e-07
7.05228e-07
-3.92456e-07
-8.45738e-09
4.00914e-07
-5.80865e-07
6.19158e-07
-3.59984e-09
5.23371e-08
1.26047e-07
-1.94401e-08
1.40969e-07
-1.44569e-07
-3.76599e-07
-1.58572e-08
3.49869e-07
-6.70148e-07
3.20279e-07
-9.62169e-07
1.72681e-07
-3.74063e-08
4.13114e-07
-3.75708e-07
-4.57742e-07
4.20336e-07
3.41762e-07
3.95828e-08
4.01802e-07
5.49095e-07
-1.99226e-07
-4.91904e-08
2.07535e-07
-7.472e-07
3.77089e-07
1.32865e-08
3.19885e-07
-3.33171e-07
-2.95821e-07
2.87363e-07
-5.28249e-07
6.62638e-07
-1.34389e-07
3.66943e-07
-9.95762e-07
6.2882e-07
-5.95227e-07
-2.99924e-07
-6.95839e-07
-7.16116e-07
8.88796e-07
7.5192e-07
-4.73469e-07
-2.7845e-07
3.65154e-08
-9.75508e-07
2.20166e-07
7.55342e-07
-6.79348e-07
6.22324e-07
5.70239e-08
3.42871e-07
4.09049e-07
3.93824e-07
8.612e-08
-4.96967e-07
5.79679e-07
-8.27124e-08
1.40789e-07
-1.40789e-07
-3.43961e-07
-3.03745e-07
-1.01979e-07
3.04875e-08
-3.04875e-08
-1.36275e-07
1.36275e-07
8.13618e-08
4.1816e-07
-4.15497e-07
-2.6628e-09
-4.34787e-07
4.34787e-07
-8.35113e-08
8.35113e-08
7.93426e-08
-2.52983e-07
2.52983e-07
-1.57838e-07
1.57838e-07
6.80588e-08
3.54278e-07
-3.54278e-07
6.52961e-08
-7.47303e-08
7.34592e-08
-1.2265e-07
3.99923e-07
6.54216e-08
-4.65344e-07
2.5998e-07
-2.5998e-07
4.18399e-07
-4.05113e-07
-4.37662e-07
4.44561e-07
1.33713e-07
-1.33713e-07
-4.66114e-07
-2.04034e-07
4.30621e-07
-4.70811e-07
4.01902e-08
-3.62471e-08
-4.4317e-07
4.79417e-07
-4.62884e-07
-5.12624e-07
-4.55098e-07
4.18851e-07
-6.359e-07
1.69785e-07
-6.65876e-08
-6.12761e-07
5.41449e-07
-7.75651e-07
2.34201e-07
1.32001e-08
7.51606e-08
7.72486e-07
-4.29615e-07
1.97929e-07
-7.64854e-08
-1.21444e-07
-3.21332e-08
6.22699e-07
-5.21561e-07
-1.01139e-07
-9.90245e-07
2.74129e-07
4.58604e-07
-8.87999e-07
2.37369e-07
6.5063e-07
-1.95019e-08
-5.90839e-08
4.243e-07
-1.01953e-06
6.2092e-07
-9.20843e-07
2.90186e-09
7.79159e-07
-8.05008e-07
2.58494e-08
-2.50925e-07
-5.24725e-07
-3.81494e-07
-7.36041e-08
-7.75176e-07
3.01707e-07
2.55084e-08
2.33879e-07
-6.31529e-07
3.9765e-07
2.38906e-07
-4.09772e-08
9.11825e-07
-6.91659e-07
3.58443e-07
1.5905e-07
-5.17493e-07
-1.80941e-07
6.62235e-07
-4.81294e-07
3.77571e-08
9.36913e-07
-3.14589e-07
-4.33161e-07
-2.37152e-07
6.70313e-07
2.40827e-07
-5.69232e-07
3.28405e-07
6.64823e-07
-8.51441e-08
1.27265e-07
-2.03751e-07
1.92252e-07
4.98869e-07
-5.43081e-08
-6.42928e-07
5.41789e-07
-5.65945e-07
-6.1387e-07
4.6243e-07
-4.24673e-07
-3.98607e-07
-1.41684e-07
4.7403e-07
4.80625e-07
-6.61566e-07
-5.37808e-07
1.06817e-07
4.38953e-07
5.65342e-08
-6.90649e-07
6.34115e-07
-7.02348e-08
4.96324e-07
-4.26089e-07
6.4787e-07
-4.07043e-07
4.52067e-07
-4.71569e-07
2.29074e-07
-2.10789e-07
5.98236e-07
-4.84373e-07
6.54158e-07
-6.24365e-09
-3.29822e-07
4.66736e-07
6.00722e-07
-8.37874e-07
-4.42384e-07
6.01434e-07
-9.86363e-07
2.94705e-07
-8.23999e-07
5.0941e-07
4.30479e-07
3.19506e-08
4.55988e-07
-4.51086e-07
-1.00849e-07
5.51936e-07
-3.40628e-07
6.60907e-07
-5.05394e-07
-3.95475e-07
-1.22018e-07
-5.76287e-07
4.91143e-07
3.68718e-07
1.99505e-08
-4.6312e-07
-2.25763e-07
-5.12334e-07
5.74162e-08
-7.52367e-08
7.3352e-07
1.61907e-07
-8.95427e-07
5.56539e-07
-5.00004e-07
5.24657e-07
-2.95583e-07
8.40336e-07
5.28742e-07
1.41571e-07
8.71663e-09
8.18452e-08
-9.05618e-08
-8.92422e-07
4.93814e-07
5.33274e-08
-1.09552e-07
4.22698e-07
-8.0564e-07
1.9177e-07
-3.11404e-09
6.37229e-07
4.52286e-07
-5.80071e-08
4.55657e-07
-3.15742e-07
1.04185e-07
2.11557e-07
4.51618e-07
-4.48716e-07
2.25405e-07
-5.55227e-07
-1.8603e-07
-8.74784e-09
1.94778e-07
-6.65201e-08
-3.7375e-07
3.1353e-07
5.13074e-07
4.32909e-07
-2.95439e-07
7.27139e-09
-8.37222e-07
6.95538e-07
-8.71451e-07
3.05506e-07
1.92776e-07
-1.48345e-07
-2.47147e-07
5.06509e-07
-2.59362e-07
1.94199e-08
-1.96884e-07
-5.99959e-07
2.09616e-07
3.90343e-07
-3.77637e-07
5.00134e-07
-6.21808e-07
1.21675e-07
-8.69582e-07
3.57249e-07
2.66314e-07
3.94592e-07
-3.47277e-07
6.85534e-07
-1.94391e-07
3.78302e-07
-4.19279e-07
-3.60173e-07
3.01948e-07
4.83757e-07
5.68262e-07
-7.14733e-07
1.76926e-07
-2.05367e-07
4.59771e-07
6.12549e-07
-2.99019e-07
-5.22963e-07
-3.14907e-07
5.24523e-07
-4.97486e-07
2.5344e-07
2.44046e-07
-2.14055e-07
4.25612e-07
-1.07143e-07
-4.52311e-07
4.07182e-07
1.81511e-07
4.437e-07
-4.36429e-07
-3.19146e-07
3.10398e-07
2.53355e-07
1.73828e-07
-5.05033e-07
3.31205e-07
3.78139e-07
-2.50874e-07
-3.2521e-07
-2.60935e-08
4.11398e-08
-5.64103e-07
3.29005e-07
1.03904e-07
-2.68187e-07
-1.95878e-07
4.64065e-07
1.78983e-07
-4.74422e-07
8.8247e-07
-2.67854e-07
5.21209e-07
2.4351e-08
-4.89695e-07
2.38655e-07
-2.47013e-07
5.00453e-07
-5.02176e-07
5.26527e-07
-3.15867e-07
-2.92803e-07
1.17854e-07
-3.86041e-07
-5.22297e-07
-6.7044e-07
2.05342e-07
-4.91456e-07
6.8834e-07
-5.11114e-08
-1.06466e-07
5.13648e-07
-4.46315e-07
1.21105e-07
-4.42428e-07
4.06505e-07
-5.59635e-07
-2.66378e-07
-3.35914e-07
3.0982e-07
1.74195e-07
8.11454e-08
-4.82853e-07
-1.93232e-08
-8.47998e-07
1.15874e-07
2.93149e-07
2.7751e-07
-4.5524e-07
2.60941e-08
3.86136e-07
-2.68283e-07
1.28434e-07
1.97686e-07
7.99387e-08
1.98407e-07
-2.78345e-07
2.08372e-07
-2.48629e-07
-1.01755e-07
5.60871e-07
-4.59116e-07
1.37507e-07
7.95435e-07
3.51675e-08
-2.95791e-07
-6.69263e-09
3.17091e-07
8.04916e-07
3.99812e-07
3.20487e-07
-3.44788e-07
8.74188e-08
2.22402e-07
-7.71239e-07
-1.23607e-09
-1.87584e-07
2.6873e-07
9.61574e-09
-2.77898e-07
5.19215e-09
-7.63232e-07
-8.00698e-09
1.90354e-07
2.23505e-07
4.67727e-07
-2.78067e-07
6.07885e-07
-8.37732e-08
-5.42889e-07
8.00321e-07
-8.08328e-07
4.76768e-08
-3.34222e-07
3.70469e-07
-3.62475e-08
-6.34657e-07
-7.2168e-08
2.08891e-07
2.27909e-07
-4.78531e-07
-3.1597e-07
-3.23642e-08
-3.13186e-07
3.96476e-07
-2.69648e-07
2.65301e-07
2.09899e-07
-1.95171e-08
-5.11304e-08
5.18284e-08
3.66614e-08
1.71856e-07
1.88144e-07
9.06854e-08
4.35259e-08
-3.21036e-07
2.74346e-07
4.66901e-08
-6.85717e-07
-2.17886e-07
4.33228e-07
-2.30717e-07
1.2948e-07
1.1532e-07
1.02602e-07
2.80178e-08
-6.41352e-07
-2.71826e-07
1.3665e-07
1.0815e-07
-2.0589e-07
-7.20084e-08
1.65759e-07
-2.00698e-07
-3.32703e-07
7.3085e-08
2.29625e-07
-7.57885e-07
6.9803e-10
1.27347e-07
-2.57296e-07
-6.37399e-08
4.86857e-07
-1.17327e-07
-3.79321e-07
-4.35746e-07
4.41723e-07
3.01336e-07
1.46128e-07
1.08654e-07
-8.59238e-07
-1.3813e-07
-7.5955e-07
8.84811e-08
-2.91407e-08
-6.78897e-08
2.6186e-08
-1.54151e-07
-2.26786e-07
-9.24681e-08
-5.52933e-08
-7.87226e-08
1.87377e-07
1.25378e-07
-3.13921e-07
-1.01509e-07
-2.39164e-07
2.75921e-07
-5.71076e-08
-1.70986e-07
-3.89308e-07
1.69711e-07
-1.5728e-07
-3.22053e-07
6.69395e-07
-3.47342e-07
-7.7308e-08
-2.93469e-07
1.26443e-07
-4.73777e-08
-3.76223e-07
-3.04674e-07
-7.7308e-08
-2.23549e-07
2.57544e-07
-1.84459e-07
4.78179e-08
-1.87542e-07
7.59449e-07
-7.2063e-07
3.79825e-07
6.26038e-08
-3.13477e-07
7.64694e-07
2.01284e-07
-4.03191e-07
2.14375e-07
1.88817e-07
-1.72458e-07
-2.21753e-07
-2.15047e-07
-4.56822e-07
-1.69517e-07
-1.9036e-07
-5.49297e-08
9.25815e-07
3.4603e-07
-2.61457e-08
3.23745e-07
-4.38187e-08
5.22837e-07
-2.68648e-07
7.16931e-08
4.24305e-09
2.68648e-07
-7.16931e-08
2.39427e-07
3.23745e-07
2.05094e-07
-4.75583e-07
-1.37177e-07
7.89529e-07
-7.3184e-07
3.23766e-07
-3.88245e-07
-4.65421e-08
3.46081e-07
-8.61004e-08
1.63425e-07
-3.28187e-07
-3.18768e-07
1.50224e-08
-3.88245e-07
1.30363e-07
-1.60851e-07
-1.44508e-07
8.23223e-09
3.93831e-07
-7.30344e-08
-1.04769e-08
-1.63425e-07
-8.95577e-08
3.28187e-07
-7.52038e-08
3.18768e-07
3.55105e-08
-3.93831e-07
3.95521e-08
7.30344e-08
-1.30363e-07
3.46081e-07
-1.44508e-07
-1.42066e-07
-3.2889e-07
-6.51409e-07
-5.59991e-07
7.41503e-07
5.75566e-08
1.43727e-07
1.31158e-07
1.30189e-07
-1.87997e-08
7.09579e-07
-9.20086e-08
5.30647e-08
-6.40766e-07
1.30189e-07
4.24841e-07
-2.25615e-07
-4.19334e-07
4.57585e-07
4.08447e-07
1.39662e-07
-3.38708e-09
-1.39662e-07
-2.0161e-07
2.24942e-07
-2.33326e-08
-6.29951e-07
2.75515e-07
1.74201e-07
-3.34941e-07
3.9259e-07
1.68166e-07
-8.18796e-07
1.4819e-07
4.65878e-08
-1.03027e-10
-1.43862e-07
2.54359e-07
2.76908e-08
-2.27105e-07
3.63138e-07
-3.2252e-07
-3.609e-07
3.609e-07
-3.55654e-07
-2.6813e-07
-2.83597e-07
2.54359e-07
2.47694e-07
-1.16701e-07
2.83566e-07
-2.07852e-07
-4.75112e-07
2.85493e-07
-4.27064e-07
6.13275e-07
-6.39125e-07
3.03157e-08
-3.03157e-08
-1.28497e-07
-2.28277e-07
-5.23689e-08
5.23689e-08
2.40675e-09
-2.40675e-09
-2.46923e-07
3.88311e-08
3.98718e-08
1.6134e-07
4.06832e-09
-1.65409e-07
3.329e-07
-3.329e-07
9.58355e-08
2.69238e-07
4.54682e-07
6.01809e-08
-5.17069e-07
-2.2198e-07
-8.16702e-08
-2.97183e-07
-3.34082e-07
-5.55129e-07
6.86075e-08
2.26121e-09
-1.55352e-07
-6.00167e-08
-2.22196e-08
-7.04359e-08
-7.89847e-08
5.67651e-08
-7.39493e-07
-1.83922e-08
-1.8825e-07
-1.72559e-07
-6.46328e-07
8.63362e-08
-9.24681e-08
-3.07804e-07
1.51804e-07
5.84422e-08
-1.46818e-07
-9.40984e-08
9.40984e-08
2.55089e-08
2.61854e-07
-6.25743e-07
-8.1348e-08
1.09259e-08
-1.09259e-08
-6.74393e-07
1.61237e-07
5.91771e-09
-5.21968e-09
-5.58296e-07
2.28586e-07
1.71786e-07
-4.00372e-07
-1.55993e-07
9.6855e-08
5.91378e-08
-5.25325e-08
-9.40536e-09
1.58501e-07
-1.52584e-07
1.42948e-07
-4.679e-08
4.679e-08
1.13622e-07
3.53293e-07
1.88868e-07
2.22271e-07
-2.48417e-07
2.00505e-07
-4.56909e-07
4.441e-08
-4.23705e-08
5.72927e-07
-3.44341e-07
5.09716e-07
1.94533e-07
5.50163e-08
8.70048e-09
-1.78218e-07
-2.46659e-08
8.49763e-08
-3.19974e-07
9.31885e-08
-6.86075e-08
2.98416e-07
-3.78771e-08
2.68055e-07
5.05965e-08
2.47819e-07
5.39863e-08
2.14069e-07
2.86428e-07
3.48165e-07
3.97221e-07
3.69428e-07
3.48399e-07
3.82994e-08
-3.00643e-07
2.46657e-07
2.10436e-07
1.83208e-07
1.14716e-07
-5.50908e-08
1.71966e-07
2.54947e-07
-2.28853e-07
3.37025e-07
-2.16329e-09
-4.73768e-08
-3.7868e-08
2.31614e-07
1.40472e-07
-2.1218e-07
2.87892e-07
9.66247e-09
-2.52241e-07
2.03082e-08
5.8057e-07
-4.94234e-07
6.16081e-07
-4.81518e-07
1.5256e-07
2.44349e-07
-1.26101e-07
-6.05908e-07
3.77458e-08
1.28226e-07
1.26236e-07
2.79999e-08
7.97567e-08
2.44432e-07
1.25218e-07
-5.28076e-08
-1.8041e-07
2.73598e-07
5.74255e-09
-4.29537e-09
)
;

boundaryField
{
    back
    {
        type            empty;
        value           nonuniform List<scalar> 0();
    }
    front
    {
        type            empty;
        value           nonuniform List<scalar> 0();
    }
    top
    {
        type            calculated;
        value           nonuniform List<scalar> 10(-4.368e-07 -4.752e-07 -3.6e-07 -2.448e-07 -2.448e-07 -3.6e-07 -4.368e-07 -9.12e-08 -9.12e-08 -4.752e-07);
    }
    outer_arc
    {
        type            calculated;
        value           uniform 0;
    }
    bottom
    {
        type            calculated;
        value           nonuniform List<scalar> 10(7.06825e-07 3.4555e-07 7.06475e-08 -8.84898e-08 -1.34211e-07 9.03603e-07 -1.3062e-07 9.13178e-07 -3.74651e-08 6.66982e-07);
    }
    inner_arc
    {
        type            calculated;
        value           uniform 0;
    }
}


// ************************************************************************* //
