/*--------------------------------*- C++ -*----------------------------------*\
  =========                 |
  \\      /  F ield         | OpenFOAM: The Open Source CFD Toolbox
   \\    /   O peration     | Website:  https://openfoam.org
    \\  /    A nd           | Version:  9
     \\/     M anipulation  |
\*---------------------------------------------------------------------------*/
FoamFile
{
    format      ascii;
    class       surfaceScalarField;
    location    "3";
    object      phi;
}
// * * * * * * * * * * * * * * * * * * * * * * * * * * * * * * * * * * * * * //

dimensions      [0 3 -1 0 0 0 0];

internalField   nonuniform List<scalar> 
2420
(
-2.2512e-07
1.7784e-07
4.72792e-08
1.08037e-08
-1.08037e-08
7.86623e-07
-3.52482e-07
-4.34141e-07
-4.11982e-07
4.11982e-07
-4.57277e-07
1.90231e-07
2.67046e-07
-2.11632e-07
1.81426e-07
3.02061e-08
5.51005e-07
2.35618e-07
-3.26968e-07
2.41841e-08
3.02784e-07
8.29249e-07
-9.08029e-07
7.87807e-08
-3.76201e-07
-8.10753e-08
-1.83286e-07
1.90038e-07
-6.75156e-09
9.40893e-08
-2.77376e-07
-3.26968e-07
-9.72371e-08
-7.63098e-08
1.73547e-07
5.2283e-08
-2.5031e-07
1.98027e-07
-1.15631e-07
1.21914e-07
-6.2823e-09
-2.49047e-08
3.99547e-08
-1.505e-08
8.08226e-08
-8.56356e-08
4.81299e-09
1.78585e-07
-1.18026e-07
-6.05584e-08
-1.26135e-07
2.88978e-08
-4.02079e-08
2.27811e-07
-1.87603e-07
2.2218e-08
-3.34149e-07
3.90085e-07
-5.59358e-08
-3.814e-07
4.72509e-08
-1.36038e-07
-8.90817e-08
4.04011e-09
-2.89448e-08
-1.62524e-08
-9.9379e-08
-2.68839e-07
-5.67246e-07
8.36084e-07
-6.30899e-07
3.6206e-07
1.99325e-07
-8.46773e-08
-1.14648e-07
-8.2016e-07
-1.1389e-08
8.31549e-07
6.16239e-07
1.08799e-08
-6.27119e-07
-4.3713e-07
4.33569e-07
3.56109e-09
3.46761e-07
5.21579e-07
-8.6834e-07
2.22856e-08
5.8537e-08
6.48228e-07
-3.01467e-07
-1.04813e-07
-1.06819e-07
9.42552e-09
1.37822e-09
-3.4577e-08
-4.02553e-07
-1.77168e-08
6.91302e-09
9.46695e-08
-1.34877e-07
3.36391e-07
1.26382e-07
-4.62773e-07
3.35445e-07
-3.70022e-07
9.88745e-09
7.37569e-08
-8.36444e-08
-5.11699e-08
1.47368e-08
3.64331e-08
-1.64379e-07
-2.47603e-07
2.76713e-07
1.35269e-07
-3.7937e-08
-1.32329e-08
5.61602e-08
1.21685e-07
-1.77845e-07
-4.51649e-08
3.8061e-07
1.90887e-07
-9.46108e-09
2.63758e-07
-2.1763e-07
2.69913e-07
-5.85412e-07
-3.22617e-07
3.23365e-07
-1.02226e-07
-2.21139e-07
-6.92597e-08
-9.98288e-09
7.92426e-08
2.51051e-08
-3.91874e-08
1.40824e-08
8.71132e-08
1.02925e-07
-2.61804e-07
4.84739e-07
-2.22935e-07
1.32529e-07
-2.01788e-07
3.0459e-08
-8.50619e-07
-2.06196e-07
2.29812e-07
-2.3616e-08
2.10551e-07
-3.27103e-08
-4.92108e-07
5.16292e-07
-4.02201e-07
1.53798e-07
2.48402e-07
-6.59339e-07
6.4795e-07
5.44673e-07
-8.61839e-07
3.17165e-07
-2.6215e-08
2.3823e-07
-2.12015e-07
1.04675e-07
-8.23895e-08
-4.5009e-08
6.08983e-08
-1.08334e-07
2.0177e-07
-2.46658e-07
4.48882e-08
-1.29071e-07
-1.21239e-07
-1.4427e-07
3.22147e-07
-1.77877e-07
7.43239e-08
3.88176e-08
-1.13141e-07
-6.13421e-07
-1.74779e-08
5.63918e-08
4.82834e-08
1.19775e-07
5.91558e-08
1.4017e-07
-2.43585e-07
-1.58615e-07
9.28324e-08
-1.85085e-08
2.84655e-07
3.871e-08
1.52663e-07
-1.42775e-07
8.9462e-08
1.87502e-07
-2.76964e-07
4.29389e-08
-4.75548e-08
4.61583e-09
2.7491e-07
-4.1918e-07
2.25425e-07
-2.36557e-08
-9.11553e-08
-1.59739e-08
1.07129e-07
1.53968e-07
-6.20241e-08
-9.19438e-08
-2.45546e-09
1.56423e-07
1.83552e-07
-6.17693e-07
1.6574e-07
1.28449e-08
5.11316e-08
5.02862e-09
-5.37963e-09
-4.84466e-08
5.38262e-08
6.1676e-08
-1.79702e-07
6.5578e-07
-1.11106e-07
-3.69411e-07
1.07607e-07
-6.82443e-07
6.93322e-07
-4.64745e-07
1.69135e-07
2.95609e-07
5.25132e-07
-3.4158e-07
3.46228e-07
-4.15227e-07
6.89995e-08
2.03671e-09
1.19648e-07
3.34048e-07
1.21798e-08
-6.1811e-08
-4.14944e-08
1.03305e-07
-2.26671e-08
-1.83529e-07
-7.02643e-07
2.06237e-07
4.96406e-07
2.1919e-08
-1.06596e-07
-1.88748e-07
-2.75996e-07
-1.35757e-07
1.25774e-07
-1.00041e-08
-3.30926e-07
3.4093e-07
6.65519e-08
2.75374e-08
-2.1698e-07
8.12231e-08
3.11769e-07
-2.22307e-07
7.26045e-07
-2.10857e-07
-5.15187e-07
4.04835e-08
-5.39502e-07
-1.63141e-07
3.2036e-07
8.60078e-08
-1.77163e-07
-4.55029e-09
-5.72607e-08
-5.75254e-08
-1.59455e-07
2.14184e-07
4.49006e-08
-2.59085e-07
1.85041e-07
-8.00042e-07
6.15001e-07
-8.09383e-09
-7.86343e-07
7.94437e-07
3.46061e-07
3.09718e-07
-5.01805e-07
1.62384e-07
3.39421e-07
-3.23158e-07
2.77993e-07
1.08083e-07
-1.13463e-07
3.50753e-08
8.68383e-08
1.66055e-07
-3.7158e-07
2.05525e-07
1.68099e-08
-1.53802e-07
1.36992e-07
-3.39966e-07
3.29962e-07
-6.32038e-07
1.3993e-07
-3.07641e-07
-1.94163e-07
-5.75509e-08
5.75509e-08
6.74381e-09
-1.58876e-09
-5.15504e-09
-2.86151e-07
-1.66231e-07
4.52383e-07
-2.1763e-07
-3.91874e-08
-4.93357e-07
-3.68482e-07
1.32529e-07
-2.17e-09
-1.40824e-08
2.17e-09
-1.04228e-08
8.25283e-09
-1.8726e-07
-3.52303e-08
2.2249e-07
1.41476e-07
1.505e-08
-1.56526e-07
3.52303e-08
1.78954e-07
8.71989e-09
-2.2249e-07
2.1377e-07
-2.59314e-07
2.01788e-07
-4.55438e-08
2.59314e-07
-2.1377e-07
-7.16601e-07
5.1213e-07
2.04471e-07
7.16601e-07
-6.86142e-07
-5.1213e-07
1.56526e-07
3.55604e-07
-1.78954e-07
5.01101e-07
-5.01101e-07
6.86142e-07
5.00009e-08
-9.75556e-08
-2.59233e-08
-2.97235e-07
-1.04995e-07
2.58794e-07
3.89405e-07
-5.50183e-07
1.60778e-07
1.86543e-07
9.04627e-08
3.98125e-07
-1.56147e-07
6.55964e-10
1.55491e-07
-7.468e-07
1.61388e-07
-1.4759e-07
-4.02592e-07
-3.3485e-07
-2.25683e-07
-1.43728e-07
-8.89863e-07
4.25681e-07
-6.36538e-07
-6.91659e-08
6.48026e-08
-8.41077e-09
1.41704e-08
2.57843e-08
-3.24467e-07
-1.47906e-07
4.72373e-07
2.50809e-07
-2.96353e-07
-7.36427e-07
1.74621e-07
5.61806e-07
-5.3019e-07
1.15787e-07
-9.89776e-08
1.24532e-07
-5.97291e-08
8.06856e-08
2.84438e-07
-3.65123e-07
-1.06708e-07
-1.9427e-08
1.72184e-08
-4.46849e-07
1.22382e-07
-6.97338e-09
1.97861e-07
-6.16091e-07
6.07998e-07
7.96227e-09
9.37665e-10
-8.89994e-09
-4.20269e-07
5.7897e-08
3.62372e-07
1.64075e-08
7.64249e-08
-3.39584e-07
-6.84424e-08
7.51858e-08
-6.74333e-09
-2.82331e-07
-1.64518e-07
-2.46579e-08
3.93947e-08
1.07951e-07
1.21861e-07
9.85789e-08
3.56464e-08
-1.34225e-07
-2.4269e-07
5.06448e-07
-4.3967e-07
2.78227e-08
4.11847e-07
-3.56319e-08
3.01365e-08
-3.81773e-07
-3.67124e-08
2.07385e-08
-4.25745e-07
1.43414e-07
2.00397e-07
-6.07908e-07
4.07511e-07
-3.55544e-07
5.55941e-07
-3.8902e-08
3.32371e-07
-2.93469e-07
1.97435e-08
2.08068e-07
-4.21712e-07
3.39647e-07
8.20658e-08
-1.03304e-07
1.3895e-07
-2.28279e-07
3.94334e-07
8.46169e-08
4.36962e-07
4.26041e-07
-2.63838e-07
-1.62203e-07
-3.05728e-07
6.30386e-08
-1.0973e-08
5.88065e-07
1.21912e-08
-1.18899e-07
2.20797e-07
-7.14154e-07
2.89949e-07
3.58279e-07
-2.01172e-09
-1.54135e-07
9.10983e-08
-1.55421e-09
-8.95441e-08
-1.74916e-07
-2.5083e-07
-2.15295e-08
3.78219e-08
3.20416e-07
1.13153e-07
-3.6475e-07
5.57488e-07
-1.92739e-07
-1.01297e-07
4.52673e-07
-4.50703e-07
-1.97011e-09
5.83401e-09
4.46839e-07
1.17521e-07
4.71354e-08
3.48179e-07
-3.95315e-07
-5.74213e-07
6.21348e-07
-2.99852e-07
3.51124e-07
-5.12723e-08
1.5623e-07
7.37176e-07
-8.93405e-07
-7.2286e-07
8.79089e-07
-9.31774e-08
1.41461e-07
4.21066e-07
-8.14196e-08
-3.18151e-07
1.82998e-08
-4.22881e-07
-1.54962e-07
5.16587e-08
-4.32758e-07
4.38592e-07
-5.84414e-08
5.76825e-07
-5.18384e-07
2.18342e-08
1.50098e-08
-7.04757e-09
4.98127e-07
-5.56568e-07
1.27224e-08
4.48285e-08
-5.36593e-07
1.71843e-07
-1.52892e-07
1.29236e-07
6.93948e-07
-5.04954e-07
-1.88994e-07
-5.42663e-07
-2.04137e-07
-2.09115e-08
3.82573e-07
-9.69437e-08
1.70701e-07
-3.12004e-08
-4.31424e-07
4.62624e-07
1.20312e-07
4.90214e-08
3.72045e-07
-1.7274e-07
1.21158e-07
3.57136e-07
-4.78294e-07
-3.70173e-07
-1.66419e-07
1.53808e-07
-2.92766e-08
3.79338e-07
-2.66185e-07
2.37649e-07
-3.2141e-07
8.37608e-08
3.57409e-07
-7.29716e-08
4.82611e-07
-3.57719e-08
6.14844e-08
2.8097e-07
-3.1217e-07
7.21275e-07
-5.40474e-07
-1.80801e-07
2.97814e-07
8.15236e-08
1.80582e-07
-2.06505e-07
3.35227e-07
-4.36524e-07
2.53414e-07
-7.71114e-08
-1.76303e-07
2.69913e-07
4.14474e-08
-1.34625e-07
-9.64803e-09
4.33921e-08
3.14017e-07
1.29203e-09
1.40169e-07
1.89275e-07
-1.47828e-07
1.02592e-07
5.91356e-07
1.33351e-07
-5.03524e-07
-1.19783e-07
9.67616e-08
2.30216e-08
6.21362e-07
-2.47972e-07
-3.7339e-07
8.96466e-08
1.73159e-07
-2.62806e-07
7.30804e-07
-5.68969e-07
-1.61835e-07
1.72315e-07
1.69604e-08
-1.0034e-07
-1.1729e-07
-1.27257e-07
2.69174e-08
-1.38048e-07
-9.7798e-09
1.19391e-07
-2.53617e-07
4.59573e-07
-3.12014e-07
-1.47559e-07
3.7988e-07
-7.60879e-08
9.02111e-10
-5.64108e-09
7.24452e-08
2.42861e-07
-3.15307e-07
4.38537e-07
-5.86443e-07
-2.50433e-07
9.54703e-08
4.40007e-07
-3.78626e-08
-4.02145e-07
3.02784e-07
2.58635e-07
4.48285e-08
4.26243e-07
-2.74478e-07
-1.51765e-07
-3.41263e-07
4.62495e-07
-1.21232e-07
1.21735e-07
-7.06032e-08
1.21735e-07
-4.33204e-07
4.35285e-07
-2.08037e-09
4.43936e-07
3.86752e-08
-3.89742e-07
4.57047e-07
-6.73046e-08
-4.05764e-07
3.84853e-07
1.03319e-07
1.31227e-07
-2.34547e-07
5.13382e-07
-6.94454e-08
1.78518e-07
-1.55211e-07
-2.33075e-08
-1.07084e-07
2.4856e-07
-2.48897e-07
4.86546e-07
2.06088e-07
-1.47113e-07
2.95541e-07
4.455e-07
6.7882e-08
-3.40731e-07
4.61889e-07
-1.77104e-07
2.49549e-07
1.1831e-07
6.80313e-09
7.27525e-08
-1.39996e-07
2.47603e-07
-1.39996e-07
1.9033e-07
-8.66591e-08
4.43795e-07
6.27507e-07
6.63575e-08
-6.93865e-07
-3.26231e-07
3.75252e-07
-1.58146e-07
-6.10882e-08
6.10882e-08
3.95172e-07
-1.03196e-08
1.13332e-07
1.78953e-08
4.26507e-07
1.20853e-08
-1.22438e-08
6.39751e-07
3.24385e-07
-4.82613e-07
4.46841e-07
1.64991e-07
-4.61962e-07
-4.66679e-07
3.37529e-08
4.32926e-07
1.73607e-07
1.37849e-07
-7.12062e-07
-1.1729e-07
-3.13941e-08
4.19184e-07
3.94584e-07
3.46381e-07
-3.23639e-08
1.94662e-07
-1.94662e-07
6.8165e-08
2.64206e-07
8.75025e-07
-3.72118e-07
4.4487e-07
4.67938e-07
-5.98915e-07
1.30976e-07
-9.95537e-08
5.45053e-07
-4.4886e-07
5.15169e-07
-6.83281e-08
9.32431e-08
2.50895e-07
-3.44138e-07
4.29745e-07
-4.94377e-07
6.46323e-08
1.52387e-08
5.36491e-08
-1.56705e-07
6.24643e-07
4.31431e-07
-6.71049e-07
2.39617e-07
6.49493e-08
-6.49493e-08
3.7073e-08
-1.715e-07
1.715e-07
-4.08976e-07
3.54896e-07
6.72066e-08
-4.22103e-07
-7.27008e-09
7.27008e-09
-4.53537e-07
4.20325e-08
-4.20325e-08
5.4658e-07
-4.45723e-07
-1.00857e-07
1.69259e-07
-1.69259e-07
-1.41304e-07
8.49625e-07
-8.76224e-07
2.65986e-08
4.24924e-07
2.88229e-07
6.28946e-08
-4.5083e-07
2.04748e-07
-2.5602e-07
7.07507e-07
-2.76076e-07
4.59002e-07
-6.39803e-07
-4.37299e-07
-2.3375e-07
-3.37263e-08
4.5291e-07
-1.60378e-07
4.47026e-07
3.84246e-07
1.95479e-07
4.65182e-07
2.03956e-08
-4.2771e-07
4.95875e-07
9.11598e-07
-6.1973e-08
-4.1001e-07
-1.76432e-07
5.00684e-07
-6.77583e-08
5.76109e-07
-1.29083e-07
4.48261e-07
9.67928e-08
-6.99368e-07
8.92549e-08
-4.5654e-07
3.67285e-07
2.31641e-07
-2.44376e-07
1.27351e-08
2.77328e-07
4.30179e-07
-7.3396e-07
1.6499e-07
8.60347e-07
-6.28569e-08
-7.97491e-07
4.1477e-07
-4.27255e-08
-5.74529e-07
5.0576e-08
-4.78286e-07
9.42552e-09
-5.19742e-08
-8.24249e-07
-1.32102e-07
1.32102e-07
-7.52088e-07
2.60489e-07
4.91599e-07
-6.36695e-07
1.99396e-07
8.08373e-07
4.01442e-07
1.33279e-08
-7.60905e-07
5.27715e-07
2.3319e-07
-1.91956e-07
7.44001e-08
-7.9726e-07
-4.44526e-07
-1.92169e-07
1.29309e-07
4.46801e-07
2.92029e-07
-2.02774e-07
-4.7476e-07
-7.87532e-08
-5.76578e-07
6.55331e-07
5.77569e-07
1.59543e-07
-5.8523e-07
4.25687e-07
-3.51112e-07
5.00574e-07
-1.49462e-07
6.51225e-07
4.32356e-07
4.07258e-07
4.56228e-07
6.8222e-07
-1.13845e-06
-4.56607e-07
7.63615e-07
-6.49358e-07
-1.14257e-07
6.06343e-07
1.71954e-07
-1.6879e-08
-1.55075e-07
-5.00416e-07
-5.15471e-07
-3.12472e-07
8.27943e-07
-1.05708e-07
4.60605e-07
1.30919e-08
-3.06561e-07
-4.1224e-08
4.1224e-08
-2.8268e-07
8.10396e-07
6.48534e-07
-1.92627e-07
-4.55907e-07
6.92271e-07
-6.41695e-07
4.51093e-07
1.26477e-07
-4.57085e-07
6.56481e-07
-7.98151e-07
-6.47217e-07
-1.44701e-07
7.91919e-07
8.74731e-07
-9.74877e-07
3.2766e-07
6.44508e-08
-7.53831e-07
1.21006e-06
4.9502e-07
3.919e-07
-8.8692e-07
-5.74001e-07
1.30757e-06
-7.3357e-07
-4.63854e-07
7.03472e-07
-1.32783e-06
-4.77556e-07
-2.28711e-07
7.06267e-07
4.14547e-07
-3.89816e-07
-2.47308e-08
-6.12909e-07
1.55824e-07
-2.92657e-07
6.84862e-07
-3.45287e-07
6.39985e-07
-2.94698e-07
1.70979e-07
-3.87852e-07
8.82872e-07
1.33316e-07
1.58713e-07
-1.77537e-07
-1.61817e-07
6.79812e-07
-2.05851e-07
-4.73961e-07
3.25318e-07
3.14667e-07
6.37398e-07
-3.1208e-07
3.85671e-07
-9.74418e-08
6.29414e-07
4.96714e-07
5.21691e-07
-1.01841e-06
3.11973e-07
3.25424e-07
5.72768e-07
-2.60795e-07
-5.39052e-07
-2.75316e-07
8.14368e-07
5.00253e-07
1.31193e-07
-6.31446e-07
-3.34641e-07
-5.43403e-07
8.78045e-07
5.26537e-07
-7.53392e-07
-7.0857e-08
5.09663e-07
1.70148e-07
6.40417e-07
6.67154e-07
-4.51246e-07
-2.7692e-07
7.28166e-07
-9.83999e-07
1.06014e-06
-5.52414e-07
-5.07724e-07
-3.72196e-08
-7.60271e-07
1.28762e-07
-5.34541e-07
4.05779e-07
-6.63821e-07
1.16054e-06
-6.68459e-07
8.01871e-07
-1.33412e-07
7.42853e-07
1.1003e-06
-1.03806e-06
-6.22341e-08
-4.52215e-07
7.95693e-07
-3.43478e-07
-7.63718e-07
-1.90255e-07
6.32149e-07
-4.41894e-07
5.16735e-07
2.88891e-07
1.3272e-07
9.67579e-07
-9.26224e-07
3.0054e-07
6.25685e-07
2.95848e-07
4.06887e-07
-9.92962e-07
5.86075e-07
6.38398e-08
4.67609e-07
-5.31449e-07
5.19337e-07
3.22351e-07
-8.41688e-07
1.18178e-06
-5.41368e-07
-8.40067e-07
-1.18748e-06
6.3507e-07
4.68759e-07
2.02347e-07
-6.71105e-07
4.30087e-07
3.65606e-07
-5.89735e-07
2.23311e-07
3.66424e-07
4.5285e-07
6.7406e-07
-8.67196e-07
-1.70869e-07
4.71271e-07
4.11601e-07
5.57015e-07
2.9281e-07
-8.49826e-07
-7.21934e-07
5.31679e-07
3.79862e-07
2.68088e-07
7.92389e-07
1.28771e-07
-9.2116e-07
7.11386e-07
3.73108e-08
-7.48697e-07
1.4911e-07
-4.6119e-07
-3.42072e-07
-7.01018e-07
5.40755e-07
1.60263e-07
-4.46258e-07
7.68609e-07
8.24944e-07
-2.67929e-07
4.04681e-07
1.04997e-07
-5.09678e-07
-5.28597e-07
8.29136e-07
3.48929e-07
-1.01739e-06
-1.44808e-07
1.44808e-07
3.37312e-07
-3.37312e-07
2.26247e-07
-2.26247e-07
6.91302e-09
-7.06032e-08
1.84881e-07
-1.84881e-07
1.9734e-07
-1.9734e-07
5.59839e-08
-5.59839e-08
3.98113e-07
-1.74384e-07
1.74384e-07
2.76713e-07
-2.45958e-08
2.45958e-08
2.03014e-07
-2.03014e-07
-2.52474e-07
2.52474e-07
3.08612e-07
-3.08612e-07
-1.98056e-07
7.42704e-07
-5.44648e-07
1.82807e-07
-1.82807e-07
1.54041e-08
-1.54041e-08
-5.04218e-07
7.64448e-07
-2.60231e-07
7.2392e-07
-3.58314e-07
3.20727e-07
6.95989e-07
6.30427e-07
-1.77578e-07
1.86191e-07
-1.05339e-06
-5.2033e-07
-6.26506e-07
7.679e-07
2.24355e-07
-9.92254e-07
-2.00765e-07
-6.13251e-07
4.51048e-07
1.20624e-07
-4.3459e-08
-7.71646e-08
-2.32781e-07
5.00869e-07
-3.30822e-07
-5.56097e-07
6.27163e-07
-1.16853e-06
2.31941e-07
-3.67494e-07
1.06699e-07
5.50705e-07
-1.28428e-06
-3.95162e-07
-1.94573e-07
-4.33765e-08
-5.69875e-07
-8.50163e-07
5.19341e-07
4.2097e-07
-2.10108e-08
-6.20684e-07
-4.75271e-09
5.36432e-07
7.44846e-07
2.77662e-07
2.40012e-07
-4.19934e-08
1.65332e-07
9.5409e-07
2.09049e-07
6.20088e-07
-3.33339e-07
9.60502e-07
-1.87265e-07
8.98652e-07
-9.74278e-07
2.50284e-07
7.23994e-07
7.68091e-07
-2.07173e-07
-5.60918e-07
4.32372e-07
-2.01354e-07
1.07162e-06
-8.70265e-07
-2.80716e-07
1.0731e-06
-4.04337e-07
9.03413e-07
-4.99076e-07
7.70401e-07
-2.29646e-07
4.96116e-07
-2.18383e-07
-5.43175e-07
6.48173e-07
-6.17826e-07
-6.9025e-07
3.52316e-07
3.37934e-07
-5.06807e-07
5.31248e-07
-7.99177e-07
-7.14482e-07
4.54251e-07
-1.04228e-08
-8.19025e-07
7.58791e-07
6.02336e-08
2.07988e-07
4.88001e-07
-6.77767e-07
3.19453e-07
5.42088e-07
2.26817e-07
7.4442e-07
5.80826e-07
3.36875e-07
2.92607e-07
-6.29482e-07
-8.40146e-07
5.63228e-07
-5.21833e-07
7.46187e-07
6.97298e-07
7.90903e-07
6.68767e-07
-1.92657e-08
-9.55012e-07
2.55317e-07
5.55079e-07
1.01415e-06
-7.63871e-07
3.60238e-07
-6.78348e-07
1.66061e-07
5.12287e-07
-2.56797e-07
-4.20771e-08
-3.53986e-07
6.31648e-07
2.57468e-07
-4.83151e-07
-1.83233e-07
-5.57353e-07
1.3444e-07
-5.04463e-07
3.70023e-07
-3.51605e-07
-3.06552e-07
5.76921e-07
5.88691e-07
-2.09979e-08
1.54314e-07
2.28604e-07
5.141e-07
-4.69299e-07
-8.76201e-07
-1.35268e-07
1.01147e-06
-7.69605e-08
9.11309e-08
-4.66708e-07
-1.48127e-07
4.43975e-07
-2.6105e-07
8.24278e-07
5.70574e-07
2.73402e-07
-8.43976e-07
2.6972e-07
4.31453e-08
-2.6448e-07
2.21335e-07
5.76423e-07
-8.37473e-07
-8.19334e-07
-4.64941e-07
-2.91654e-07
9.88952e-07
3.84444e-07
3.59975e-07
7.15414e-07
-6.00675e-07
-4.52711e-07
7.97404e-07
3.89097e-07
-1.00692e-06
9.09241e-07
-5.92076e-07
3.31894e-07
4.75517e-07
9.98577e-07
-6.38339e-07
-4.11438e-07
9.71127e-07
-5.59689e-07
-5.85135e-07
7.38895e-07
-1.5376e-07
-4.11406e-07
-5.80848e-07
8.46563e-07
-8.65829e-07
-7.60719e-07
-3.77729e-07
1.16262e-07
1.55389e-07
-2.71651e-07
-4.97803e-07
8.07521e-07
-8.45896e-07
-4.81935e-07
-1.11084e-06
2.91508e-07
1.02994e-06
-3.05949e-07
5.67758e-07
1.04707e-06
-5.77231e-07
-4.69839e-07
8.24877e-07
-1.51257e-07
-4.65194e-07
-9.06069e-07
-2.04773e-07
-8.45835e-07
-1.01208e-06
-1.82543e-07
1.65935e-07
1.66079e-08
-9.81104e-07
-1.16987e-07
6.31087e-07
-1.31084e-06
3.5853e-07
-4.47854e-07
-5.66097e-08
-2.69715e-07
-2.09572e-07
6.14447e-08
-5.94194e-07
1.02526e-08
5.83941e-07
-5.46627e-07
1.48966e-07
3.97661e-07
3.90279e-07
-2.66925e-07
8.47751e-07
-9.39416e-07
-3.71421e-07
-6.89729e-07
6.06474e-07
-3.13867e-07
-2.16768e-07
1.01472e-06
-7.97954e-07
-1.61873e-07
-7.90612e-07
-2.44337e-07
5.29531e-07
-2.85194e-07
3.08159e-07
-8.28895e-07
5.20735e-07
8.4397e-07
-6.9817e-08
-7.14351e-09
4.36788e-07
-9.03496e-07
1.14419e-06
-1.25623e-07
1.02315e-07
5.74256e-07
-1.32337e-07
-6.01622e-07
-3.2149e-07
-3.63658e-08
3.57856e-07
-1.24265e-06
4.39794e-07
-6.69962e-07
2.30168e-07
-7.6617e-07
7.84014e-08
1.27294e-08
-1.18446e-07
-1.50862e-08
1.33532e-07
-8.77791e-07
-5.44316e-07
7.31882e-08
-7.76017e-08
4.41345e-09
2.49992e-07
-6.45154e-07
9.47778e-07
-1.01215e-07
1.23643e-06
-2.68852e-07
3.70251e-07
-9.2994e-07
5.05813e-07
1.00661e-07
9.96257e-08
-2.66398e-07
1.91715e-09
-2.54023e-07
-6.7467e-08
6.20303e-07
-9.98031e-07
3.75892e-07
4.31629e-07
6.41829e-07
-2.57489e-07
3.65447e-07
3.61791e-07
-7.27238e-07
8.885e-08
-1.58667e-07
3.21871e-07
-2.43469e-07
3.01267e-07
-1.85006e-07
2.0536e-07
-4.6611e-07
2.6075e-07
-6.89872e-07
-4.38294e-07
-1.09355e-07
-1.59998e-07
3.50232e-07
-1.90234e-07
-5.36374e-07
1.81731e-07
1.19536e-07
-6.77816e-07
4.87524e-07
1.90292e-07
-5.78902e-07
-6.48497e-07
4.94737e-07
-1.59216e-07
-3.1018e-08
-2.84379e-07
-3.2252e-07
-3.55296e-07
3.62445e-07
7.81809e-07
-1.02873e-07
-3.77645e-07
-8.65009e-07
-9.27635e-07
1.63764e-07
8.70869e-08
7.44047e-07
-4.86558e-07
-1.61939e-07
-4.16373e-08
7.39732e-07
-1.24528e-07
6.0822e-09
-1.06752e-06
-1.15829e-06
5.19955e-07
4.73049e-07
-3.17659e-07
-1.46487e-07
6.01172e-08
5.98389e-07
-6.58506e-07
-1.84786e-07
4.64306e-07
-2.7952e-07
1.15335e-06
-7.81282e-07
-9.26879e-08
-1.8867e-07
-4.81292e-07
-9.24572e-08
-2.30637e-10
-2.46233e-07
-1.63754e-07
-1.0721e-07
2.70964e-07
-4.89527e-07
-3.59527e-07
5.08493e-07
1.47847e-07
6.46762e-09
-6.74962e-08
2.85041e-07
-2.17545e-07
1.84398e-08
-1.40264e-08
-1.05609e-07
-2.43914e-07
3.49523e-07
6.92257e-08
-4.51594e-07
3.82368e-07
-5.87248e-08
-3.93877e-07
7.59324e-07
-4.1064e-07
3.43144e-07
-3.4854e-07
4.2236e-07
-4.63997e-07
-5.76369e-08
-8.67925e-07
2.85707e-07
-2.69099e-07
-7.16398e-07
1.12743e-07
3.51036e-08
1.1017e-06
-5.15629e-07
-7.3407e-07
6.63213e-07
5.94894e-07
1.64431e-07
6.28331e-08
6.72884e-07
7.33036e-08
-1.86388e-07
7.44902e-08
9.98052e-07
-3.72367e-07
-9.07173e-08
-3.7328e-07
-6.37984e-07
8.68151e-07
-7.52671e-07
7.7927e-07
5.35219e-07
-1.68795e-07
6.3177e-07
-2.34109e-07
-1.16106e-07
-8.42253e-09
1.89894e-08
9.35101e-07
-2.75182e-07
-4.94403e-08
-4.30169e-08
-1.16336e-07
2.28973e-07
-6.11059e-08
-2.14076e-07
4.34054e-07
9.54774e-08
6.4282e-09
-1.6291e-07
1.56482e-07
-6.2313e-07
8.94589e-08
5.33672e-07
-7.78268e-07
-2.89249e-07
3.36061e-07
6.51955e-07
-2.37612e-07
-4.96457e-07
-3.59816e-07
6.34667e-08
3.6159e-08
9.45013e-08
1.26279e-08
-3.94158e-07
6.44058e-07
-2.55103e-07
8.75191e-07
7.5754e-07
-3.95749e-07
3.1271e-08
-3.25873e-07
-8.47667e-08
1.74254e-07
-8.12237e-07
1.48902e-07
-1.04712e-06
5.71152e-07
-2.1946e-07
6.3999e-08
-8.15292e-07
7.51293e-07
5.5463e-07
-6.86967e-07
7.42949e-07
1.00929e-07
-4.54712e-08
6.8479e-08
-2.30078e-08
-6.44907e-07
1.16486e-06
2.20233e-07
-2.42938e-07
2.27042e-08
6.64642e-07
-1.10012e-07
-4.82673e-08
-1.104e-07
6.87614e-07
-1.01464e-07
2.34996e-07
7.29337e-07
1.64644e-07
-2.66108e-07
-8.72867e-07
-7.15917e-07
-5.84533e-07
6.48532e-07
1.12796e-08
4.65483e-07
-4.76762e-07
2.37133e-07
6.20226e-08
6.91873e-07
3.1203e-08
-3.18947e-07
2.87744e-07
-4.32324e-07
5.61086e-07
-4.73407e-08
-2.96798e-07
7.60905e-07
1.83648e-08
-1.7215e-07
4.329e-07
-4.706e-08
-1.46642e-07
5.43863e-08
8.57212e-07
5.07358e-07
-3.07667e-07
2.85141e-07
-1.65605e-07
-9.4431e-08
-3.86979e-07
2.62343e-07
-4.21099e-08
5.02807e-07
-1.27451e-07
5.96209e-07
5.43e-07
-6.39993e-07
9.69932e-08
5.16572e-10
8.56695e-07
-4.2471e-08
3.60883e-08
6.38271e-09
1.12992e-07
-1.03799e-08
7.01717e-07
-1.03328e-07
-2.98405e-07
4.98612e-07
-2.00206e-07
2.34175e-07
-4.0297e-07
3.66908e-07
6.08162e-07
-1.25641e-07
-3.99797e-07
-1.03728e-07
-2.0004e-07
8.13032e-07
-8.12515e-07
-9.12273e-08
-5.9574e-07
7.0364e-07
-4.17296e-07
-2.86344e-07
2.77229e-07
-7.2481e-08
-4.25057e-07
6.09615e-07
-1.84557e-07
-2.97804e-07
6.61216e-07
-3.63412e-07
3.38032e-07
3.65119e-08
-8.35719e-08
-1.20364e-07
-6.01656e-07
-4.32003e-07
-1.53227e-07
-4.33923e-07
-2.38326e-07
-3.17754e-07
-6.26527e-07
-1.42952e-07
-5.84286e-07
1.09625e-06
6.11018e-07
4.43136e-08
2.79963e-07
-3.85884e-07
-2.30104e-07
6.15987e-07
-1.29899e-07
-2.35836e-08
1.53483e-07
1.46944e-07
-6.20905e-07
3.05968e-07
-2.2832e-07
9.71269e-07
4.09949e-07
4.50381e-07
2.78583e-07
1.2609e-07
6.86942e-07
-1.93341e-08
-2.23604e-07
1.32919e-08
5.07233e-09
-1.83642e-08
1.0544e-07
3.54574e-07
2.06787e-08
-4.26495e-07
-1.53116e-07
4.03293e-07
-4.71051e-07
9.42984e-08
-4.11958e-07
-5.80207e-07
4.8898e-07
1.12728e-07
2.69529e-07
5.48564e-08
-5.57045e-07
5.9654e-07
-3.94952e-08
-1.47034e-07
-4.31113e-07
6.25489e-07
-1.94376e-07
-1.81964e-07
3.75352e-07
-1.93388e-07
4.08245e-07
-3.59864e-07
2.56462e-07
1.24699e-07
-3.81161e-07
-5.4191e-07
-1.74487e-07
6.6909e-07
5.30223e-07
7.93916e-08
6.65437e-08
-1.73747e-07
1.07203e-07
8.12758e-07
-2.63473e-07
-1.63528e-07
2.51794e-07
-3.11498e-07
-4.83653e-08
5.46671e-07
-2.94877e-07
2.42261e-10
-6.15362e-07
5.0535e-07
-5.26939e-07
-5.32683e-08
6.84445e-08
-2.53719e-07
9.01914e-08
3.62114e-07
-6.15721e-08
6.58112e-07
-1.44985e-08
9.34348e-09
-4.47138e-07
-4.35239e-07
4.03845e-07
1.79787e-07
3.57532e-07
1.03073e-07
-5.88511e-07
6.23724e-08
4.86284e-09
2.26778e-07
-1.36996e-07
4.57139e-07
-9.50247e-08
3.23006e-07
4.86448e-07
-1.28916e-07
2.18086e-07
1.04919e-07
-6.9958e-07
1.43461e-07
5.56119e-07
1.44359e-07
-6.00266e-07
5.37753e-08
-7.06977e-07
1.05354e-07
3.57448e-07
1.29e-07
-3.86202e-07
2.69932e-08
3.59208e-07
-6.44604e-07
9.80259e-08
-1.77805e-07
7.9779e-08
1.00011e-08
-3.56327e-08
-3.73548e-07
-1.11694e-07
4.85243e-07
-1.22554e-07
-2.42569e-07
-3.30832e-07
5.06366e-07
-3.13289e-07
3.23178e-07
1.95765e-07
-2.86455e-10
-6.56643e-09
-1.23333e-07
2.77813e-07
-2.34975e-07
2.37012e-07
-2.41178e-07
1.09043e-07
1.32135e-07
-4.00465e-07
-1.23454e-07
5.23919e-07
-1.41705e-08
-1.51435e-07
-2.07114e-07
4.82147e-07
-3.67902e-07
-5.94225e-07
-1.07727e-07
-5.33181e-07
-1.56742e-07
-8.44361e-08
-3.04147e-07
-2.66855e-08
-1.97728e-07
1.12922e-07
8.48062e-08
-2.72118e-07
4.95331e-07
-5.99059e-07
-1.49409e-09
6.93349e-07
-5.31961e-07
-2.76914e-08
-2.06859e-07
2.2508e-07
2.46386e-07
-1.61205e-07
4.33282e-08
4.3653e-07
4.01034e-07
-1.21071e-07
-4.85178e-07
7.48415e-07
-5.46068e-07
6.38792e-07
2.00637e-07
-7.24258e-07
5.23621e-07
-3.49411e-07
7.34414e-07
-3.85003e-07
4.72373e-07
1.91636e-07
5.79137e-08
5.40224e-07
-3.05569e-07
1.42254e-09
-5.61418e-07
1.16977e-07
4.44441e-07
4.88265e-07
-3.91272e-07
2.41214e-08
1.71644e-07
3.86877e-08
-6.88468e-07
6.48973e-07
6.59554e-07
-1.87181e-07
5.24747e-07
-6.85125e-07
-2.9633e-07
-9.23916e-09
4.66815e-07
-2.10176e-08
1.23333e-07
3.42691e-08
6.21257e-08
1.82361e-07
2.63506e-07
2.57386e-07
2.76587e-07
1.25573e-08
-2.89144e-07
5.88347e-08
-6.5306e-07
1.3453e-07
-3.16494e-07
6.48691e-07
-5.693e-07
5.13469e-07
-5.91812e-07
7.83433e-08
5.13666e-08
6.66584e-08
4.16124e-08
2.95582e-08
-7.11706e-08
-2.25117e-08
-1.47335e-07
-6.67452e-07
4.75496e-07
7.77451e-08
7.57375e-08
2.90935e-07
-1.32223e-07
-6.71635e-07
4.95202e-07
7.21109e-07
-1.91847e-07
-2.69342e-07
-5.40037e-07
-1.48431e-07
-4.05541e-07
1.43601e-07
-2.46492e-07
3.26841e-08
2.13808e-07
1.00825e-07
4.39148e-07
-7.88559e-07
-1.23046e-07
1.04682e-07
-1.96139e-07
-1.64928e-07
-4.96868e-07
-6.17887e-07
1.89923e-07
-7.20113e-07
-9.01844e-08
-8.08669e-07
5.22325e-07
7.50119e-07
-2.51043e-07
4.36876e-09
1.71843e-07
1.71623e-07
-4.79642e-08
1.4013e-07
3.42017e-07
-5.33928e-07
-1.68498e-07
5.45014e-08
-1.95805e-07
7.62206e-07
-1.09136e-08
-3.27618e-07
3.48619e-07
2.12275e-07
3.67068e-08
2.80328e-07
4.63565e-07
-9.62799e-08
-2.01441e-08
-4.47237e-08
9.164e-07
-4.61347e-08
5.32258e-08
-5.45909e-07
3.92683e-07
-5.91085e-08
-7.1773e-07
-1.21727e-07
1.63324e-07
-1.30639e-07
1.3549e-07
1.31176e-07
1.87014e-07
1.56453e-07
-5.3343e-07
-2.91447e-07
2.78059e-07
6.5839e-07
-9.74718e-08
-9.52119e-07
6.00514e-07
2.66233e-07
-8.12302e-07
7.24054e-07
-8.45782e-07
1.64699e-08
-4.17723e-07
7.29709e-07
9.24385e-08
8.03615e-08
3.95601e-08
7.22646e-07
-4.41015e-07
-2.9261e-07
3.93629e-07
1.36281e-08
-4.04868e-07
6.0714e-07
-2.02273e-07
4.04011e-09
-1.71297e-07
-8.82476e-08
-4.85232e-07
1.50149e-07
-3.94064e-07
-5.97037e-07
5.3357e-07
-3.62247e-07
3.53008e-07
4.32317e-07
-1.33664e-07
-1.90744e-07
-3.05678e-08
3.31343e-07
-5.52252e-07
3.33986e-07
2.45445e-08
2.28463e-07
4.46936e-07
-4.34941e-07
-1.58876e-07
-1.68092e-07
-8.22003e-08
-3.69394e-07
8.06206e-08
9.21794e-08
1.84595e-07
-5.72992e-07
4.61297e-07
-3.97355e-07
4.61987e-07
5.14546e-07
-3.64397e-07
-5.7338e-07
4.49926e-07
3.49626e-08
3.8797e-07
-6.34399e-07
3.07334e-07
1.20816e-07
8.39961e-08
-4.25376e-07
2.32658e-07
2.13209e-07
-1.43064e-07
5.35746e-07
1.02019e-07
-4.09686e-07
-2.45619e-07
3.70147e-07
2.29886e-07
3.61285e-07
3.03872e-07
-4.26048e-07
5.27689e-08
-4.14909e-07
5.31885e-07
-3.90801e-07
1.90594e-07
2.23615e-07
-5.6474e-08
4.17759e-07
-2.40668e-07
5.61029e-07
-4.29021e-07
-5.9867e-08
-2.92422e-08
-2.68686e-07
-9.78713e-08
6.36336e-07
1.08967e-07
4.05513e-07
-1.02864e-07
-4.97109e-07
3.12274e-07
-1.71349e-07
1.35043e-07
-1.64286e-07
3.90979e-07
-6.30992e-07
1.61692e-07
9.15962e-08
1.64111e-07
1.64704e-08
4.57738e-07
-4.41847e-07
4.10756e-10
-1.13837e-08
9.45023e-08
-7.06575e-07
9.04835e-08
1.66932e-07
5.02124e-09
-6.28928e-08
-8.31611e-08
6.5438e-07
-2.9232e-07
7.54623e-08
1.18794e-07
-1.15905e-08
-4.32044e-07
4.54262e-07
4.16143e-07
2.14668e-08
-4.3761e-07
1.40651e-08
-9.25211e-09
-1.67997e-07
-1.57311e-08
-5.31345e-08
8.57141e-10
-1.18988e-07
1.84926e-07
-1.39441e-07
9.6424e-08
4.34483e-07
-2.44252e-07
1.48332e-07
7.84216e-09
-1.10715e-07
2.89817e-07
-2.27709e-08
9.26816e-08
2.17325e-07
1.7276e-07
2.69937e-07
-1.9128e-08
1.39336e-07
-1.23586e-07
2.32917e-07
-1.09331e-07
3.09798e-07
-7.01393e-09
8.28795e-07
4.04041e-07
-1.94288e-07
3.07932e-08
3.06515e-08
2.81777e-07
3.72604e-07
-6.80903e-07
-4.68365e-07
-3.00483e-07
2.36719e-07
6.93221e-07
3.09798e-07
8.04397e-08
7.44022e-08
-2.20192e-07
-3.4388e-07
-6.8078e-08
3.39591e-07
-3.67283e-07
-1.83008e-07
-4.58196e-07
-2.81149e-08
8.40988e-08
1.11759e-07
7.10479e-08
2.33178e-07
-4.82975e-08
1.98e-07
2.82476e-08
-2.3322e-07
2.87802e-07
-1.18329e-07
-1.16542e-07
-1.98e-07
2.3322e-07
1.16542e-07
5.78411e-08
-2.80458e-07
2.79831e-08
-2.87802e-07
1.18329e-07
-2.81149e-08
1.11759e-07
2.33178e-07
-2.80458e-07
-5.97308e-07
2.42012e-07
1.97506e-07
5.31066e-07
2.38798e-07
-1.2425e-07
1.2425e-07
1.97506e-07
-3.44861e-07
-2.51322e-07
2.00882e-07
4.16452e-07
-2.03243e-07
-3.0875e-08
-1.91507e-07
2.7273e-07
-2.05997e-07
6.11886e-08
2.05997e-07
4.64775e-08
-5.36055e-07
-3.53808e-07
1.14425e-07
-1.0138e-07
-5.92548e-08
4.75398e-07
-2.48784e-08
-4.50513e-08
-1.32112e-07
1.73861e-07
-7.40192e-07
-1.99957e-07
-4.57163e-07
1.82685e-07
8.52972e-08
3.04959e-08
-5.11178e-07
4.28126e-08
-5.50507e-08
1.88173e-07
1.4054e-07
-3.21904e-08
1.4305e-08
2.14164e-07
-2.46781e-07
3.26171e-08
2.90333e-07
-7.30079e-08
5.16174e-08
-5.16174e-08
-1.78386e-07
-3.17759e-08
-4.18496e-07
1.16212e-07
2.66136e-07
-2.04948e-07
-1.15332e-07
3.29495e-07
4.49414e-07
-4.51775e-07
1.39761e-07
2.38534e-07
4.5795e-07
-1.09543e-07
2.83686e-07
-2.6899e-07
-1.39003e-07
-3.12418e-07
-3.68423e-09
-1.60601e-07
-6.97099e-08
2.74344e-07
4.54941e-08
1.08733e-07
-1.12417e-07
-4.84466e-08
-2.92827e-07
-3.57861e-08
3.75207e-07
-2.80352e-07
-2.0503e-08
2.0503e-08
6.96471e-08
7.51613e-08
-6.96471e-08
4.40827e-09
6.0541e-08
-6.0541e-08
-3.34563e-07
-4.2038e-07
1.62565e-08
-2.05323e-07
-1.53561e-09
-3.63272e-07
1.54573e-08
1.47866e-07
1.2354e-07
-2.59562e-08
-2.13966e-07
-3.99455e-07
5.08804e-08
-2.42388e-07
4.43809e-07
-1.92751e-07
3.83043e-07
-3.56319e-08
-1.40782e-07
3.0253e-07
-3.0253e-07
3.71735e-07
-1.2834e-07
9.95286e-08
-4.4018e-07
-1.7877e-07
4.01835e-08
1.38587e-07
9.61694e-08
3.59405e-08
-1.42759e-07
-1.25884e-07
-1.67074e-07
-7.12632e-09
2.62348e-08
-1.38751e-07
1.65797e-08
-1.47219e-07
-3.45774e-08
3.45774e-08
1.12693e-07
1.20224e-07
1.58876e-07
5.09822e-07
-1.7004e-07
-3.39782e-07
1.4134e-07
2.72892e-08
-2.37795e-09
-4.54941e-08
-4.87533e-08
2.37795e-09
-6.15575e-08
5.37368e-08
7.82067e-09
1.71164e-07
5.80904e-08
1.93362e-07
5.38262e-08
-6.85817e-07
3.97999e-07
2.87818e-07
-3.21904e-08
-9.84926e-08
-1.09331e-07
9.84926e-08
8.5857e-08
4.53391e-08
7.54769e-08
1.25128e-08
-4.62453e-08
-1.25128e-08
4.62453e-08
1.67272e-07
-1.67272e-07
-1.44608e-07
-1.21166e-08
-2.93532e-07
-1.69241e-07
1.57141e-07
1.08995e-07
-1.19854e-07
-2.17458e-07
2.17458e-07
-2.9232e-07
-8.26275e-08
1.67074e-07
-1.10845e-07
1.26416e-08
1.2834e-07
1.0209e-07
-1.47254e-07
-4.13989e-09
1.40034e-07
5.01124e-07
-6.92423e-08
9.98939e-08
1.10483e-07
-6.76143e-07
1.62565e-08
-1.66613e-07
3.38303e-08
7.32177e-09
-3.02341e-07
-6.72825e-08
-7.52172e-09
8.97579e-08