/*--------------------------------*- C++ -*----------------------------------*\
  =========                 |
  \\      /  F ield         | OpenFOAM: The Open Source CFD Toolbox
   \\    /   O peration     | Website:  https://openfoam.org
    \\  /    A nd           | Version:  9
     \\/     M anipulation  |
\*---------------------------------------------------------------------------*/
FoamFile
{
    format      ascii;
    class       volVectorField;
    location    "3";
    object      U;
}
// * * * * * * * * * * * * * * * * * * * * * * * * * * * * * * * * * * * * * //

dimensions      [0 1 -1 0 0 0 0];

internalField   nonuniform List<vector> 
1655
(
(-0.0389969 0.0076535 -3.57409e-18)
(0.000203834 -0.000744635 2.36175e-17)
(-0.0852316 0.0700899 1.90735e-17)
(0.0400846 -0.0147882 -1.14075e-17)
(0.0439158 0.0469861 0)
(-0.0242475 -0.0248948 7.18405e-18)
(-0.103992 0.0489329 0)
(0.0184392 0.0647716 -1.27892e-17)
(0.0501061 0.123421 0)
(0.0451131 0.0396871 -6.23785e-18)
(0.00852497 -0.0336034 2.8637e-17)
(0.00558694 -0.0376683 -2.81775e-17)
(0.0116958 0.0363155 -1.86735e-22)
(0.0032612 -0.0291353 -1.48354e-17)
(-0.00718633 0.0440975 1.46946e-17)
(0.00881949 -0.0200909 0)
(0.0026695 0.000821524 2.57304e-17)
(-0.00184728 -0.0128025 7.69272e-18)
(-0.0268551 0.00449367 -2.86736e-17)
(0.00259574 -0.0219766 -8.24068e-18)
(0.0111367 -0.0350626 3.3541e-18)
(0.0489359 0.133659 0)
(0.030924 0.0653655 -1.5414e-17)
(0.0251176 0.0560167 7.15617e-18)
(-0.0284806 -0.00691956 -4.49536e-18)
(0.0045581 -0.00180865 -3.05136e-17)
(0.00471948 -0.0144288 -1.32794e-17)
(0.0375318 0.120805 -1.54038e-17)
(0.0302199 0.112291 2.08178e-17)
(0.00425494 -0.0288675 -1.48295e-17)
(-0.135784 0.00247806 3.69698e-17)
(-0.0403162 0.103093 -3.94379e-18)
(0.00691333 -0.0715076 -5.44872e-18)
(-0.00226822 0.118838 0)
(-0.00801614 -0.011876 0)
(0.022308 0.107616 0)
(-0.0157502 -0.0236007 -1.93215e-17)
(-0.00126162 0.00321931 0)
(0.00521409 -0.0695665 -7.45646e-18)
(-0.00429586 -0.000473055 -2.54975e-17)
(0.00737209 -0.02542 1.43881e-17)
(0.0327222 0.0635575 1.24422e-17)
(0.00492128 -0.0629226 -7.79525e-18)
(0.0008142 0.0205728 2.2741e-17)
(0.00697811 -0.00143641 0)
(0.0576054 -0.0216591 0)
(0.0695855 -0.0190417 3.54809e-17)
(0.00636443 -0.00252864 0)
(0.0235602 -0.00672489 1.3912e-17)
(0.00496279 -0.0597392 1.89814e-18)
(-0.0234272 -0.0205628 2.13639e-17)
(-0.0645521 0.0744281 -1.42078e-17)
(0.00360005 0.0564616 -1.57249e-17)
(0.0486944 0.122194 1.37708e-17)
(0.0250745 0.0537993 -1.78381e-17)
(0.0174443 0.00300211 0)
(0.000893656 -0.00661908 -6.97166e-18)
(0.00154759 -0.0230556 0)
(0.0643191 -0.0379269 0)
(0.0229376 0.0181087 1.51172e-17)
(-0.143287 0.0202905 -3.68662e-17)
(-0.0359953 -0.0115682 0)
(-0.030302 0.0104694 0)
(0.0280309 0.0844247 -3.53779e-18)
(0.0501529 0.0281493 0)
(-0.113609 0.00300726 0)
(0.130858 0.0252283 3.29011e-17)
(0.0271691 -0.0353622 -1.64074e-17)
(-0.00874635 -0.0133651 0)
(0.0283379 0.0538556 -1.42406e-17)
(0.00974189 -0.0209552 1.82627e-17)
(-0.103345 0.01883 -8.67964e-19)
(0.0114532 -0.0424441 -9.22483e-19)
(-0.0157752 0.0343238 1.35017e-17)
(-0.0522027 0.0445969 -1.71413e-17)
(0.0116923 -0.0169306 8.08671e-18)
(0.0264721 0.0991623 -4.72103e-18)
(-0.0137587 -0.00754775 0)
(0.00511778 -0.0173568 0)
(0.0059644 -0.0297682 0)
(0.0625572 0.0205786 1.82118e-17)
(0.0102026 -0.0138939 -8.2261e-18)
(0.0258572 0.0483731 1.82337e-17)
(0.00474073 0.0266153 9.16459e-18)
(0.00870153 -0.0462025 0)
(-0.00524397 -0.00481129 0)
(-0.0695109 0.0569597 -1.03503e-17)
(0.010483 -0.0371602 0)
(-0.00127928 0.0181741 -7.16456e-18)
(0.023671 -0.00952857 0)
(0.0217016 -0.0132225 0)
(-0.0805776 0.0941503 8.97182e-18)
(-0.0250754 0.0120837 1.75508e-17)
(0.00391251 -0.012184 0)
(0.00228172 -0.0134762 0)
(-0.0302294 0.00437732 2.92148e-17)
(0.107386 0.0206386 -2.79376e-17)
(0.0500047 -0.0316585 0)
(-0.0412886 0.131179 -8.42412e-18)
(0.0106787 -0.0787159 1.79927e-17)
(-0.0792841 0.0829099 -5.64974e-17)
(0.0711847 0.00724422 -1.84666e-17)
(0.0230858 -0.000734324 -1.81754e-17)
(0.0750339 0.0107823 1.93922e-17)
(0.0138665 0.00860277 0)
(-0.0338708 -0.0114639 -1.1212e-18)
(0.0432718 0.106458 -1.56196e-17)
(0.00206229 -0.0211766 0)
(0.00747967 -0.0786301 0)
(0.0268139 0.000846199 -1.59937e-17)
(0.00378569 -0.0792882 1.25423e-17)
(-0.0180531 -0.0104142 1.45727e-17)
(0.0329058 0.00339123 9.66461e-18)
(0.0108395 -0.0533983 1.65159e-17)
(0.0436266 0.106844 1.48232e-17)
(0.00497793 -0.00892576 -9.40492e-18)
(0.0420533 0.103432 -1.58775e-17)
(0.06722 -0.03233 0)
(-0.00281219 0.0246356 1.41832e-17)
(0.0121686 0.0115881 -3.18173e-17)
(0.0341264 0.0169989 -2.72772e-17)
(-0.00328256 0.0464055 2.78969e-17)
(-0.115937 0.0421178 -2.19141e-17)
(0.147263 -0.0213254 2.04619e-17)
(0.104239 0.0226478 7.1679e-18)
(0.0287053 0.0737184 0)
(0.00373497 -0.0521437 -1.79328e-17)
(0.0036255 -0.0213326 1.61623e-17)
(0.00784586 -0.0154165 -2.24284e-18)
(0.00585417 -0.0629083 -2.14873e-18)
(0.0100492 -0.0220493 4.11251e-18)
(0.00374397 -0.0802146 2.21331e-17)
(0.0330604 0.0904568 1.37145e-17)
(0.0285378 0.0702839 1.44147e-17)
(0.000818867 -0.00724112 0)
(-0.00252894 -8.36589e-05 0)
(0.0434361 0.0583108 -8.39128e-18)
(0.00377199 0.0316937 1.4264e-17)
(0.000970944 -0.00539751 7.61562e-18)
(0.126177 0.01277 -7.45475e-18)
(0.0109188 0.0152006 9.86762e-18)
(-0.000745183 -0.00244719 1.3645e-17)
(-0.000993133 -9.30343e-05 0)
(0.0231312 0.0280827 0)
(-0.0169012 -0.00497167 -8.48738e-18)
(-0.0187358 0.0232162 0)
(0.0406046 0.0337045 -2.9364e-17)
(0.0362616 0.0259325 2.35515e-17)
(0.0421654 0.0334942 1.52074e-17)
(-0.143398 -7.21044e-05 0)
(-0.166328 0.00592386 1.43877e-17)
(-0.0841373 -0.00644846 -7.79001e-18)
(-0.0779146 0.0186012 1.50951e-17)
(-0.138418 0.0130481 1.31261e-17)
(-0.0161914 0.00123497 0)
(0.00277125 -0.0494028 2.89274e-17)
(0.0409414 0.0220565 1.84682e-18)
(0.069878 0.0520774 7.76225e-18)
(0.0444111 0.10871 0)
(0.0599065 0.00785313 -1.96764e-17)
(0.0587418 0.0438081 2.21875e-17)
(0.0354106 0.000716727 0)
(0.0504673 0.115605 -2.10509e-22)
(0.0612307 0.0601184 0)
(0.0386176 0.0455203 0)
(0.0471377 -0.0379123 -7.58917e-18)
(0.0436924 0.120507 0)
(0.040629 0.0976329 -2.9883e-17)
(0.0755364 0.00939071 4.54767e-18)
(-0.0125147 1.97473e-05 0)
(-0.00166732 -0.0127917 0)
(0.0312538 0.075526 0)
(0.0480115 0.035914 9.12822e-18)
(0.0470299 0.111989 1.57873e-17)
(0.00848304 -0.0397955 9.64231e-19)
(0.0455591 0.110519 1.57268e-17)
(0.01586 -0.0179293 4.13036e-18)
(-0.0174797 0.0114037 0)
(0.015449 -0.0647053 -1.71463e-17)
(0.00177016 -0.0222377 1.34731e-17)
(0.0111282 -0.00263766 1.9631e-17)
(0.0239236 0.065463 1.23111e-17)
(-0.0314066 -0.0220227 -2.61302e-17)
(0.136573 -0.0157918 -4.47317e-18)
(-0.00109164 0.000860236 -8.65228e-18)
(0.0210585 -0.0706313 0)
(0.0118918 -0.00841912 0)
(0.0173976 -0.0693131 0)
(-0.00772641 0.00290338 0)
(0.0244666 0.0725553 -1.19619e-17)
(0.00383351 0.00132254 -1.55642e-17)
(-0.033833 -0.00575871 0)
(-0.00902262 0.0218787 -1.60547e-17)
(-0.0594306 0.0430246 2.0022e-17)
(0.0268936 -0.0750103 0)
(0.00136556 -0.0118265 -9.74902e-18)
(-0.00726348 0.013574 0)
(0.0230375 -0.0740369 0)
(-0.00186323 0.0088192 1.85991e-17)
(0.0174031 0.0631438 0)
(0.108432 -0.0248964 1.02203e-17)
(0.107679 -0.0167188 -4.5825e-18)
(-0.0881979 0.0640356 1.67464e-17)
(-0.122678 0.0317979 3.73772e-17)
(0.0467122 -0.0169011 -1.42477e-17)
(0.0148324 -0.0402346 1.13411e-17)
(0.0140716 -0.0702469 0)
(-0.018344 0.0145183 0)
(0.00763976 -0.067374 5.08967e-17)
(-0.0138976 0.101033 0)
(0.020769 0.0648059 2.69847e-17)
(-0.0253434 0.0406846 -7.44244e-18)
(-0.000820264 -0.000589067 0)
(0.0356576 0.0884494 1.56486e-17)
(0.00345776 -0.0260212 -1.60163e-18)
(0.133928 0.00241468 3.47453e-17)
(0.0316925 0.0872432 -8.71724e-18)
(0.0122955 0.0220258 0)
(0.0194194 -0.00234399 1.54168e-17)
(0.0191025 0.0705355 0)
(0.00653432 -0.005177 0)
(0.0133322 -0.0407346 -3.27743e-17)
(0.00902504 -0.0693262 2.30533e-17)
(0.0295405 0.0897081 1.59473e-17)
(0.0116029 -0.0717684 -1.66422e-17)
(0.0326099 -0.0775459 1.60106e-17)
(0.0344901 -0.0768442 -1.59554e-17)
(0.0298699 -0.0152569 0)
(0.0203816 -0.0697864 1.94648e-17)
(0.0373306 -0.102132 1.55587e-17)
(0.0287932 -0.0500175 0)
(0.0298216 -0.152643 -1.94153e-17)
(0.0449021 -0.148296 1.94274e-17)
(-0.0216795 -0.00413457 -3.08589e-17)
(0.0171027 -0.0723644 -1.64397e-17)
(0.0264973 -0.0551682 1.60742e-17)
(0.0287454 -0.0770962 0)
(-0.0148638 0.0232831 0)
(0.0323294 -0.0745594 1.98784e-17)
(0.0406143 -0.0895738 1.56535e-17)
(0.00289928 -0.000272361 -1.50076e-17)
(-0.000672232 0.00263737 2.85124e-17)
(0.052658 -0.0835003 -1.95906e-17)
(0.00262772 -0.0117143 1.36195e-17)
(0.0262601 0.0814918 3.98999e-18)
(0.007257 -0.0270248 -2.01998e-17)
(-0.119045 -0.0265221 1.1995e-17)
(0.0489794 0.11432 0)
(0.0283706 -0.0732404 -3.98616e-18)
(0.027273 0.0844405 0)
(-0.0105832 0.0245186 -1.2987e-17)
(0.00548852 -0.022927 3.23641e-18)
(0.0773584 -0.0155754 -1.57017e-17)
(-0.00979258 0.0702576 -1.1272e-17)
(0.0198145 -0.0704034 1.61609e-17)
(0.0332468 0.0253216 -1.93047e-17)
(0.0157928 -0.0771914 -1.65923e-17)
(0.0312068 0.0858438 -3.97388e-18)
(-0.0125499 0.0287711 2.12975e-17)
(0.00899345 -0.0642629 1.52136e-17)
(0.0495928 -0.026996 1.18628e-17)
(0.0163385 -0.0607963 1.64062e-17)
(0.0383862 -0.0775281 1.5885e-17)
(-0.0143951 0.00117832 1.55573e-17)
(0.0570009 -0.0121953 1.57729e-17)
(0.0459602 0.110612 1.58089e-17)
(0.0109262 -0.0621301 0)
(0.00295721 -0.0386183 -2.2389e-17)
(0.0115106 -0.0751282 8.69188e-18)
(0.00406684 -0.0402638 0)
(0.00500455 0.0443852 -1.68663e-17)
(-0.0240971 -0.00614088 1.21392e-17)
(0.000508052 0.00376323 8.35749e-18)
(0.0198517 -0.0626933 0)
(-0.026599 0.0016116 -6.75376e-23)
(-0.0302429 -0.000817089 -1.22113e-17)
(-0.110081 -0.0323096 0)
(0.0303263 0.0762016 1.98711e-17)
(0.00584237 0.0165905 -2.02219e-17)
(0.0709571 -0.0659205 3.88752e-18)
(0.00707455 0.0377042 1.63608e-17)
(0.0499637 0.112542 3.96351e-18)
(-0.0354372 -0.000312894 1.61952e-17)
(0.00480389 0.0338999 1.42378e-17)
(-0.00898443 0.024156 -2.68573e-17)
(-0.0297744 0.0020489 -1.62504e-17)
(-0.000971328 0.0367665 1.6125e-17)
(0.0102259 -0.0791278 1.44436e-17)
(0.0138116 -0.0653253 0)
(-0.0160873 -0.00710647 0)
(-0.0218454 0.00562974 1.58974e-17)
(0.00585567 -0.0214344 1.55098e-17)
(0.00799443 -0.0517019 3.35485e-17)
(0.0378228 0.0894805 0)
(-0.00344407 0.0370587 -1.60962e-17)
(0.0259993 -0.0764503 4.04805e-18)
(0.0103675 0.0389207 0)
(0.0324781 -0.0441139 -2.71921e-17)
(0.00127088 -0.00599856 -1.57936e-17)
(0.0125971 -0.0713634 -3.99992e-17)
(0.0157668 -0.0789717 -1.68188e-17)
(-0.00916907 -0.0161498 0)
(-0.0122983 -0.0173139 2.43851e-17)
(0.0324568 -0.076247 -4.02234e-18)
(0.0400628 -0.0770648 -3.17563e-17)
(0.00245007 0.0239942 -1.72025e-17)
(0.0217277 -0.0785928 -4.07598e-18)
(0.0260029 -0.0695217 3.98007e-18)
(0.000874187 0.0348512 -4.00742e-18)
(0.0439586 -0.0779643 -1.58124e-17)
(-0.0315686 0.0048561 0)
(-0.0395563 -0.0251235 8.54171e-18)
(0.0221881 -0.0677938 -4.00705e-18)
(0.0613789 -0.0427587 -3.95415e-18)
(0.0458485 0.112081 0)
(0.00288068 0.0440461 0)
(0.00310079 -0.00960018 -1.57848e-17)
(0.0157544 0.0485218 -1.61143e-17)
(0.0454842 -0.0777518 3.11585e-22)
(0.0171233 -0.0786223 1.75981e-17)
(0.00752765 0.0466074 0)
(0.00671976 -0.043943 -1.68904e-17)
(0.0133511 -0.0785789 2.22292e-18)
(0.0294328 -0.0751451 -4.03688e-18)
(0.0191079 -0.0784361 -1.63682e-17)
(0.0399749 -0.019926 2.26943e-17)
(0.014452 -0.0106089 7.78334e-18)
(0.0482345 0.114229 -1.99633e-17)
(0.0176319 -0.075297 0)
(0.125449 -0.0262154 -1.56234e-17)
(0.0192851 -0.0655882 0)
(0.0024175 0.0455629 1.60848e-17)
(0.0010043 -0.00769997 7.19454e-18)
(0.0268021 -0.067051 -1.60355e-17)
(-0.0111516 0.023261 1.60704e-17)
(0.0335395 -0.0730861 -1.19559e-17)
(0.111677 -0.0176495 1.17512e-17)
(0.0104689 -0.0559444 -1.67875e-17)
(0.0401238 -0.0780262 0)
(-0.0201646 0.0171173 0)
(0.0148681 -0.0795248 1.73453e-17)
(0.0388933 -0.0763129 1.59749e-17)
(-0.0326861 0.00449918 0)
(0.0245579 -0.122309 -1.93473e-17)
(0.00696782 0.0184239 0)
(0.0360029 -0.0750443 -2.80503e-17)
(0.00428884 -0.0380554 0)
(0.0252973 -0.078025 4.05858e-18)
(0.0206523 -0.0786865 0)
(0.0202386 -0.0592152 0)
(0.00961175 0.0252635 0)
(0.0577965 -0.0188476 1.56168e-17)
(0.0424648 -0.145067 0)
(0.0197889 -0.0767036 1.63267e-17)
(0.043369 0.0936233 0)
(0.0493929 -0.0787376 0)
(0.037821 -0.0776495 0)
(0.0437627 -0.0779851 -3.33161e-22)
(0.0203433 0.0513676 -1.59203e-17)
(0.043701 -0.0747227 1.98015e-17)
(0.0117096 0.0200145 -1.36474e-17)
(0.015868 -0.062863 0)
(0.047001 0.102052 -4.27515e-18)
(0.0767906 -0.0814216 1.56174e-17)
(0.00297724 -0.00924018 1.64508e-17)
(0.00369993 0.00880214 -1.38532e-17)
(0.0160057 -0.0722433 4.20091e-18)
(0.0086749 0.0232232 -1.5686e-17)
(0.0134307 0.0611942 0)
(0.0396887 -0.0647688 0)
(0.00142093 -0.000873625 0)
(0.0169948 -0.0756012 1.63378e-17)
(0.00396806 -0.00592164 0)
(0.0493723 -0.0786072 0)
(0.0111875 0.0215007 0)
(0.00988781 0.0393473 3.9907e-18)
(0.158015 -0.0281385 1.16802e-17)
(0.0374194 0.0931356 -2.80922e-22)
(0.0341507 -0.0541152 3.98073e-18)
(0.0340964 -0.0779126 -1.60335e-17)
(0.0258386 -0.0411085 -4.08932e-18)
(0.079715 -0.0776454 0)
(0.0440633 0.10345 -1.64093e-17)
(0.072906 -0.0785104 -1.94971e-17)
(0.0279065 -0.0781372 -4.03146e-18)
(0.0425654 0.0971341 0)
(0.0513499 -0.079205 0)
(0.0202115 0.0627139 -6.23212e-22)
(-0.0354095 0.003619 0)
(0.0376098 -0.0747291 -3.97228e-18)
(0.00712782 -0.0217842 1.50087e-17)
(0.0781767 -0.0208619 -1.56147e-17)
(0.161347 -0.0297494 -1.5578e-17)
(0.037063 0.0941012 0)
(0.0423987 -0.0753651 0)
(0.0547835 -0.0792662 -1.57071e-17)
(0.0508916 -0.0787874 1.57252e-17)
(-0.02827 0.00869983 0)
(0.0487109 0.109622 0)
(0.0702737 -0.0226155 0)
(0.0458563 -0.0785018 -1.58152e-17)
(0.0143541 -0.0406981 3.34043e-17)
(0.0838166 -0.0821953 3.89261e-18)
(0.0529403 0.11391 -1.97776e-17)
(0.146564 -0.0267797 -3.89196e-18)
(0.0230978 -0.0722712 -1.62111e-17)
(0.0318113 0.0866661 1.60626e-17)
(0.0885383 -0.0206916 -1.95973e-17)
(-0.000461082 0.000865615 0)
(0.155351 -0.0242058 0)
(0.0118711 0.013774 0)
(0.0852567 -0.0904816 3.88931e-18)
(0.069635 -0.0810988 3.91623e-18)
(0.156679 -0.0315934 0)
(0.0260834 -0.07008 0)
(0.0827806 -0.0947484 -1.55569e-17)
(0.0320289 0.0919843 0)
(0.0337613 -0.134918 0)
(0.066368 -0.079344 -1.17686e-17)
(0.0568821 -0.0799703 1.56911e-17)
(0.0470515 -0.0212196 1.56958e-17)
(0.082844 -0.0865211 -3.89069e-18)
(0.0615962 0.106917 3.93212e-18)
(0.0549546 -0.0797144 0)
(0.0608954 -0.0781248 1.56973e-17)
(-0.0763524 -0.0604875 -9.96326e-18)
(0.0452357 -0.110263 0)
(0.0450222 -0.0767627 1.19153e-17)
(0.0307911 -0.0692413 1.59906e-17)
(0.0496517 0.176125 1.93477e-17)
(0.0266588 -0.0779712 0)
(0.0629712 0.122558 5.20658e-22)
(0.0603329 -0.0796051 0)
(0.0322006 0.021484 -5.14021e-18)
(0.0815431 -0.0918234 1.16706e-17)
(0.0924635 -0.0943805 -1.16573e-17)
(0.042869 -0.0615825 1.59077e-17)
(0.0534778 -0.0140955 6.74589e-18)
(0.00535373 0.00276668 0)
(0.08762 -0.0970448 0)
(-0.000854884 0.000431063 1.37682e-17)
(0.0668035 -0.0833985 0)
(0.113967 -0.0216256 1.95278e-17)
(0.0565964 -0.0801011 0)
(0.0679463 -0.0822011 0)
(0.0911998 -0.0949924 -1.94384e-17)
(0.0590873 0.123956 1.55594e-17)
(0.149832 -0.0304283 0)
(0.0532784 0.146973 -1.21029e-22)
(0.0888004 -0.0215164 1.56223e-17)
(0.0458472 0.192386 -3.8672e-18)
(0.107893 -0.0969247 -1.55259e-17)
(0.0386182 0.207995 -3.85341e-18)
(0.0754647 -0.0840046 3.89676e-18)
(0.0474822 0.209217 -3.08565e-17)
(0.0743126 -0.0871667 1.94789e-17)
(0.0717658 -0.00558105 0)
(0.0629909 -0.0817695 0)
(0.0500265 0.153381 0)
(0.0709919 0.106121 0)
(0.0772527 -0.0610484 -3.89785e-18)
(0.068107 -0.0849355 -3.90004e-18)
(0.0768347 -0.0699795 3.89858e-18)
(0.10764 -0.0900998 -1.55288e-17)
(0.0348721 -0.025168 -1.57007e-17)
(0.0401935 0.0945647 3.1597e-17)
(0.0703016 -0.0840003 -3.90068e-18)
(0.0610427 -0.0808376 0)
(0.0701938 -0.0876979 3.92999e-18)
(0.0834072 -0.0677482 0)
(0.0797233 -0.0573878 -1.5605e-17)
(0.0365717 -0.0484584 1.19068e-17)
(0.0780545 -0.0868834 3.89607e-18)
(0.126782 -0.0278367 3.89934e-18)
(0.128279 -0.107072 1.54937e-17)
(0.0839442 -0.0660148 -3.89767e-18)
(0.0713522 -0.0534186 -2.7304e-17)
(0.0888706 -0.0971217 -1.1658e-17)
(0.0626121 -0.0866063 1.17681e-17)
(0.0348264 0.143906 -7.4619e-18)
(0.0480627 -0.0767223 -1.97559e-17)
(0.146603 -0.0127444 0)
(0.0705538 -0.0893876 -3.89284e-18)
(0.0305767 0.205535 3.85823e-18)
(0.0832856 -0.0799514 -3.89085e-18)
(0.0756836 -0.0895526 -1.16839e-17)
(0.0483911 0.145507 -1.54269e-17)
(0.0171201 0.177152 0)
(0.148504 -0.0182639 0)
(0.0541854 -0.0743808 -3.94947e-18)
(0.1397 -0.118193 -3.47903e-17)
(0.0628089 0.12723 -1.5554e-17)
(0.077248 -0.0936335 3.89053e-18)
(0.110409 0.154511 -3.87099e-18)
(0.0982155 -0.0824752 -1.55498e-17)
(0.0920009 -0.0870501 3.88916e-18)
(-0.0873566 -0.0769588 -2.21047e-19)
(0.0186103 0.160737 0)
(0.0935657 -0.0994095 1.16561e-17)
(0.100317 0.1758 1.93547e-17)
(0.132265 -0.0703618 0)
(0.07206 -0.0623493 1.56e-17)
(0.0413147 0.124852 7.83632e-18)
(0.133962 -0.0887853 1.93826e-17)
(-0.0505512 -0.0910199 0)
(0.115383 -0.0704956 1.16575e-17)
(0.015074 0.193757 -1.54822e-17)
(0.127638 -0.0763088 -3.88261e-18)
(0.102036 -0.0884772 -6.19083e-22)
(0.033317 0.182206 -1.16059e-17)
(0.112791 0.0117786 1.17761e-17)
(0.102254 -0.0753777 -1.94368e-17)
(0.029353 0.0932716 -3.90201e-18)
(0.0836377 -0.0872663 -3.8906e-18)
(0.00773688 0.18536 0)
(0.126841 0.134678 1.54945e-17)
(0.114324 -0.0848236 0)
(0.0936226 -0.102541 1.16521e-17)
(-0.089758 -0.066158 1.40276e-17)
(-0.099755 -0.0285414 0)
(0.0839872 -0.139057 -1.55193e-17)
(0.0690581 -0.125812 0)
(0.0684437 -0.0394314 3.13896e-17)
(0.125304 -0.0939965 0)
(-0.104414 -0.0412455 -1.49889e-17)
(0.0715648 -0.094204 1.94699e-17)
(0.109087 -0.0619493 -1.17329e-17)
(0.110914 -0.076635 4.24929e-22)
(0.090484 -0.100073 3.88544e-18)
(0.0793297 -0.0243171 -1.94626e-17)
(0.123328 -0.0595611 1.56392e-17)
(0.0528576 0.151881 1.55066e-17)
(-0.015081 0.0184854 -8.71637e-18)
(0.0542049 -0.00197338 1.47651e-17)
(-0.028241 -0.0181931 9.79325e-19)
(0.00199029 -0.0016366 1.86755e-18)
(-0.00678845 -0.0105848 3.45524e-22)
(-0.0288508 0.00777882 -3.18294e-17)
(0.0298025 0.0038473 0)
(0.0267605 -0.0122561 -1.37883e-17)
(-0.0075944 0.00176328 -2.31059e-17)
(-0.0729441 0.0181357 -4.06951e-17)
(-0.0234737 -0.00970266 -1.56528e-17)
(0.0410526 -0.00980256 0)
(0.00127995 0.00541254 2.29734e-17)
(-0.0235309 -0.0204676 1.57433e-17)
(-0.0333854 0.0234917 1.70492e-17)
(0.0435459 0.00522875 0)
(0.0773368 -0.095413 1.16702e-17)
(0.028425 0.0119713 -2.4301e-17)
(-0.0110222 0.00158586 0)
(0.0869176 -0.0894692 -3.88924e-18)
(-0.00557447 -0.00641335 0)
(0.0957411 -0.0673421 -1.16764e-17)
(0.0933329 -0.0955281 3.88563e-18)
(-0.0659345 -0.0941271 0)
(-0.00167622 0.007344 0)
(0.0673533 -0.0770455 3.89597e-18)
(0.13352 0.114155 -1.54948e-17)
(0.0340389 0.192735 -3.86723e-18)
(0.115719 -0.109828 1.16241e-17)
(0.125851 0.0985367 -2.71537e-17)
(0.0706705 -0.0927839 3.92156e-18)
(0.0358723 0.0960199 -1.15656e-17)
(0.0191847 -0.0103486 0)
(-0.0720251 -0.0388835 2.68035e-21)
(0.0995666 -0.099714 1.94095e-17)
(0.06288 -0.0806302 -3.91182e-18)
(0.0152407 0.185769 4.51688e-21)
(0.064892 0.0174433 -1.16297e-17)
(0.053715 -0.0298867 -3.95378e-18)
(0.0433392 0.204356 3.08581e-17)
(0.0245521 0.0197898 1.43276e-17)
(0.0257474 0.0892564 3.51171e-17)
(0.0635345 0.0882184 -1.93579e-17)
(0.0980505 -0.0976223 -1.16518e-17)
(0.0901702 -0.0830486 1.94464e-17)
(0.124281 -0.0161128 -3.12563e-17)
(-0.0620095 -0.0841295 1.56235e-17)
(0.0864468 -0.0778162 -1.946e-17)
(0.0985637 -0.0605293 1.56146e-17)
(0.111057 -0.0562231 1.45999e-22)
(0.0828394 -0.0166355 0)
(-0.0621578 -0.0168472 2.64903e-17)
(0.121266 0.120465 1.16421e-17)
(0.12466 -0.0537337 1.58237e-17)
(-0.00399034 0.161649 3.05827e-17)
(0.0785152 -0.121302 1.55497e-17)
(0.167734 0.0148308 3.87632e-18)
(0.0740891 -0.0999042 -1.16896e-17)
(0.0657955 -0.0830435 -1.55855e-17)
(0.093309 -0.148978 3.87576e-18)
(0.106387 -0.14111 0)
(0.110845 -0.0970059 -3.8795e-18)
(0.0786731 -0.0990074 -3.89285e-18)
(-0.0562711 -0.0690549 -1.56224e-17)
(0.0539401 -0.0240127 3.13306e-17)
(0.0310162 0.0240066 -1.4525e-17)
(0.110276 -0.0338293 -1.16745e-17)
(0.0311369 0.185141 -1.54528e-17)
(0.106438 0.0370665 -1.16589e-17)
(-0.112503 0.00703235 3.8904e-18)
(-0.0180234 0.105572 1.12981e-17)
(0.0433751 0.160699 1.55232e-17)
(-0.0843205 -0.00165994 7.68307e-18)
(-0.0356664 -0.0104846 0)
(-0.0379593 0.00158202 -8.36448e-18)
(0.0227585 0.0194715 -2.67034e-17)
(-0.000102499 -0.00197132 3.17799e-17)
(-0.0766554 0.00798439 3.62744e-18)
(0.0857023 -0.0990331 -1.55489e-17)
(0.077062 -0.0872817 3.89258e-18)
(-0.00200959 0.00194309 0)
(-0.107641 0.010411 -3.20889e-17)
(0.0273989 0.0200678 0)
(0.0993875 0.105161 -1.94036e-17)
(-0.0447563 -0.116675 1.56007e-17)
(0.0846018 -0.0668656 1.55787e-17)
(0.0779124 -0.0956572 -1.55569e-17)
(-0.0286122 -0.0246664 1.94919e-17)
(-0.0433011 -0.108586 -1.55772e-17)
(0.0813437 -0.104685 0)
(-0.0176336 -0.109662 -3.12526e-17)
(0.00117924 0.135155 -1.86419e-17)
(0.081345 -0.0998626 1.94816e-17)
(0.103606 0.0826795 1.55743e-17)
(0.0937198 -0.129215 -1.16615e-17)
(0.112186 -0.147743 0)
(0.122771 -0.125764 3.87293e-18)
(0.170983 -0.0175633 -7.75364e-18)
(0.0886757 -0.0999372 -3.88625e-18)
(0.162846 0.0244511 1.16165e-17)
(0.123627 -0.07281 0)
(0.114443 -0.039213 1.71407e-17)
(0.0814126 -0.0741124 -1.94724e-17)
(0.120354 -0.00512959 3.49752e-17)
(0.0891383 -0.0514387 0)
(0.0590936 -0.0513097 7.78452e-18)
(0.0752228 -0.092044 0)
(0.0933144 -0.101224 3.88418e-18)
(0.0480995 -0.0680405 -1.95164e-17)
(-0.00543546 0.141858 -1.33951e-17)
(0.089276 -0.090121 1.16635e-17)
(0.0742614 -0.0558746 0)
(0.0654049 -0.0769224 -2.05447e-17)
(0.0169914 -0.0246262 1.57302e-17)
(0.0770672 -0.0960892 -3.89031e-18)
(0.113837 -0.0448491 -1.70154e-17)
(0.120257 0.134779 -1.54893e-17)
(0.00355508 -0.0102311 -3.97674e-18)
(0.113728 0.0660599 0)
(0.051823 -0.0479846 0)
(0.0866458 -0.102477 -3.8875e-18)
(0.091191 -0.104442 0)
(0.0890603 -0.100726 1.94319e-17)
(0.0156734 -0.0390755 0)
(0.0905287 -0.103991 3.88673e-18)
(0.058533 0.197495 0)
(0.0993643 -0.120056 1.1629e-17)
(-0.0151102 -0.124656 0)
(0.084534 -0.101243 1.55489e-17)
(0.0745251 0.117106 3.87762e-18)
(0.146271 0.0861245 2.7111e-17)
(0.091214 -0.104686 -1.94216e-17)
(0.0836733 -0.0995513 0)
(0.0394985 0.159825 0)
(0.141038 0.0290271 1.52145e-17)
(0.0684775 -0.070904 2.40787e-17)
(0.0765691 -0.0495402 0)
(0.0471288 -0.069332 0)
(0.0771485 0.0482121 2.7154e-17)
(0.146086 -0.0780188 1.54872e-17)
(0.145719 0.0524117 -3.94247e-18)
(0.0511648 0.114198 0)
(0.139331 0.0851163 1.55134e-17)
(0.164948 -0.0185414 7.7653e-18)
(0.0512943 0.177586 -3.86921e-18)
(0.00646829 0.0493139 0)
(0.0254421 0.131863 3.86387e-18)
(0.122653 0.0391217 -6.97969e-18)
(0.0552037 0.206671 0)
(0.0697604 0.175717 0)
(0.161324 0.0336966 -7.74432e-18)
(0.084842 -0.101102 3.8879e-18)
(0.146393 0.0820466 -7.74254e-18)
(-0.0241084 -0.123099 3.89756e-18)
(0.0565745 -0.0582632 7.76506e-18)
(0.0751431 -0.0142041 7.31431e-18)
(0.0890505 0.162506 0)
(0.103379 0.129848 7.74969e-18)
(0.133311 0.116258 -2.7916e-21)
(0.147501 0.0720567 3.87591e-18)
(0.0177607 0.0278667 0)
(0.123297 0.113988 3.87369e-17)
(0.0616415 -0.0867277 1.94824e-17)
(0.0637849 0.208952 -3.85772e-18)
(0.142124 0.0446896 -1.15495e-17)
(0.0617316 0.151755 0)
(0.0454593 -0.0718411 -2.02774e-17)
(0.0459099 -0.0720241 2.75219e-17)
(0.0886991 -0.103897 -3.88602e-18)
(0.0622782 -0.0853625 3.897e-18)
(0.0284792 -0.0190614 1.66937e-17)
(0.153083 0.0668628 -2.3243e-17)
(0.0663152 0.0887474 0)
(0.0723149 0.0578877 -1.95341e-17)
(0.138914 0.068909 0)
(0.0876776 -0.103286 -1.55415e-17)
(0.0765872 0.197134 3.47175e-17)
(0.0491156 0.162927 -6.78234e-22)
(-2.72024e-05 -0.0923226 1.5635e-17)
(0.167566 -0.0569032 1.93602e-17)
(-0.0327146 -0.0873154 0)
(0.0907017 -0.101459 -3.88741e-18)
(0.0964236 -0.1042 1.16554e-17)
(0.142369 -0.00616665 0)
(0.0833967 0.0448704 4.11233e-18)
(0.0418451 0.130754 1.55517e-17)
(0.0911954 -0.10187 -1.16535e-17)
(0.0128181 -0.00599755 0)
(0.137209 0.0523351 0)
(0.105126 0.163768 0)
(-0.0213542 0.00932189 0)
(0.0920948 -0.103931 1.55404e-17)
(0.0564322 0.110934 1.97338e-17)
(0.023785 -0.0563093 -1.57638e-17)
(0.0567254 0.195963 -3.86293e-18)
(0.0367363 0.109134 -1.55904e-17)
(0.0973808 -0.0943692 1.16549e-17)
(0.103879 0.0613722 0)
(0.0036162 -0.0204402 3.93228e-18)
(-0.0101215 0.0208984 3.53528e-17)
(0.0491866 0.134129 0)
(0.137313 0.0770959 -1.93673e-17)
(-0.00481116 0.0131812 -3.93135e-18)
(0.0313766 0.102952 -1.16959e-17)
(0.0586491 0.109061 0)
(0.160712 -0.00192519 -8.02291e-22)
(0.0844189 0.182125 -3.09095e-17)
(0.150082 0.0379701 -3.94918e-18)
(0.0156253 -0.103282 0)
(0.00806867 -0.0170974 0)
(0.0205226 -0.0394568 -1.29412e-17)
(0.0296846 -0.0479698 1.12767e-22)
(0.0902608 0.181493 -1.54646e-17)
(0.152535 0.0618179 -1.16192e-17)
(0.0485191 0.155698 -1.55101e-17)
(0.0493898 -0.0545731 0)
(0.110929 0.0407158 1.8188e-17)
(0.15909 0.0254106 7.83271e-18)
(0.0455539 0.135983 -2.74468e-22)
(0.118531 0.0608353 -3.96074e-18)
(0.106766 0.0521912 0)
(0.0147441 -0.0130688 -2.74195e-17)
(-0.0176981 -0.0408261 -3.16475e-17)
(-0.000534364 0.0446093 0)
(0.0185639 0.0759284 1.5637e-17)
(0.0487116 0.153062 1.55126e-17)
(0.0894774 -0.0792487 0)
(0.00556176 0.0273078 -1.57021e-17)
(0.0009137 -0.0509921 -1.56664e-17)
(-0.0103355 -0.060511 1.61503e-17)
(0.0627249 0.0762976 1.17176e-17)
(0.00376491 0.0526793 0)
(0.104511 0.0189947 -1.53567e-17)
(0.0410867 0.125692 -1.55531e-17)
(0.153797 0.0434301 3.94982e-18)
(0.0124023 -0.0614993 0)
(0.0469216 0.0978876 0)
(0.0442591 0.186525 -1.15957e-17)
(0.0154819 -0.0309112 1.57062e-17)
(0.0295956 0.0970444 -3.89868e-18)
(0.0153093 0.0697369 0)
(0.106016 0.033866 0)
(0.114517 -0.1218 -2.71343e-17)
(0.155185 -0.0542799 -3.87202e-18)
(0.0336909 -0.0159069 4.20329e-18)
(0.0631554 0.189584 1.93187e-17)
(0.164817 0.00134773 1.16322e-17)
(0.171012 -0.0352571 -2.71054e-17)
(0.0371176 0.11387 -1.94652e-17)
(0.0395859 0.0991073 -1.55954e-17)
(0.051286 0.0810304 1.95294e-17)
(0.0405849 0.115378 3.50378e-17)
(0.145279 -0.0152666 1.16501e-17)
(0.149717 0.011425 -1.16271e-17)
(-0.011638 0.0196235 -3.99939e-18)
(0.0903637 -0.104137 0)
(0.0564338 0.169119 -3.0991e-17)
(0.152622 -0.106826 -1.54539e-17)
(0.0195144 0.0679262 -1.56364e-17)
(0.00985101 -0.0225514 1.57149e-17)
(0.0746533 0.197494 -1.54496e-17)
(0.0771391 0.0916892 0)
(0.0702897 0.0192635 0)
(0.0230104 -0.0754293 0)
(0.12067 -0.137443 1.54675e-17)
(0.137573 -0.00979946 0)
(-0.00915526 0.0130759 -1.17906e-17)
(0.0359897 0.0975855 0)
(-0.0174428 0.00204904 0)
(0.037859 -0.0112804 0)
(0.0408087 0.01215 -3.92148e-18)
(0.0214948 0.07888 0)
(0.0902735 -0.0843867 1.55618e-17)
(0.138629 -0.123382 -3.86356e-18)
(0.0666919 0.0475045 0)
(0.00817576 -0.023701 -1.98711e-17)
(0.0290776 -0.0422328 -1.57573e-17)
(7.2423e-06 0.00218268 0)
(0.138111 -0.131806 3.86629e-18)
(0.0380133 -0.0388895 0)
(0.0407731 -0.0658292 1.18823e-17)
(0.0116938 0.00204799 0)
(0.115933 0.0381102 0)
(0.036799 -0.0569577 -1.57717e-17)
(0.0517867 0.0243236 0)
(0.0450427 0.0687012 -1.56404e-17)
(0.0232693 0.0137213 3.92694e-18)
(0.0181621 -0.0193925 0)
(0.172701 -0.0364285 1.16347e-17)
(0.0283339 0.0420219 3.91982e-18)
(0.108278 0.047334 0)
(-0.00185653 -0.0240325 -1.06854e-17)
(0.148126 -0.0953809 -1.93553e-17)
(0.0246465 -0.0399731 7.83313e-23)
(0.131781 0.000409301 -1.55996e-17)
(0.124214 0.0170115 1.55918e-17)
(0.05191 0.0527031 -1.56506e-17)
(0.0851546 0.0856108 0)
(0.134229 0.00697034 -1.16934e-17)
(0.0824886 0.00378475 0)
(0.146654 -0.0730256 -1.55238e-17)
(0.033674 0.0699896 0)
(0.0500873 0.127683 3.88613e-18)
(0.143134 -0.0184577 3.89869e-18)
(0.0255804 0.0809879 0)
(0.0866464 0.0495558 3.90284e-18)
(-0.0197934 0.00557703 1.37279e-17)
(0.043216 0.0402571 1.17497e-17)
(-0.0165205 -0.00172674 0)
(0.10423 0.127457 -1.16446e-17)
(0.0248009 -0.0348791 0)
(-0.0137465 -0.00634709 0)
(-0.0197608 0.000860193 -1.41465e-17)
(0.0784736 0.0300084 0)
(0.027778 -0.0412384 0)
(0.0648903 0.0518761 -4.0744e-18)
(0.0276106 -0.00967263 1.97629e-17)
(0.110736 0.00452273 -1.56224e-17)
(0.0603058 0.159606 -1.54973e-17)
(0.0239654 -0.0618105 1.63756e-17)
(0.118186 0.00632549 1.58439e-17)
(0.11639 0.0185988 0)
(0.0248024 0.0560333 -3.91613e-18)
(-0.00240127 -0.0160211 0)
(0.00543402 0.0152532 -8.14526e-18)
(0.0960446 0.0213191 1.93006e-23)
(0.0770611 0.0804191 0)
(0.137799 -0.0538887 -1.97489e-17)
(-0.00940872 -0.00692474 0)
(0.111209 0.0434797 -3.898e-18)
(0.111444 -0.00498958 1.23779e-17)
(0.0395943 -0.060736 1.57576e-17)
(0.129702 -0.00632176 1.55934e-17)
(0.0630987 0.132009 1.16695e-17)
(-0.00948765 -0.0195643 -6.5755e-18)
(0.0732275 0.167552 3.1001e-17)
(0.100579 0.0301799 1.56161e-17)
(0.125364 0.0208442 -3.89854e-18)
(0.129805 0.0127305 0)
(0.139427 -0.0276611 0)
(0.0551299 0.107594 1.5775e-17)
(0.0491986 0.139368 1.16572e-17)
(0.14959 -0.0643357 1.97363e-17)
(0.0212575 0.00133605 -3.91907e-18)
(0.0326834 0.0833117 0)
(0.0087265 0.000816452 0)
(0.159412 -0.100767 0)
(0.0191805 -0.0352676 -1.57357e-17)
(0.114211 -0.0257058 0)
(0.0495881 0.102775 -1.6044e-17)
(0.0166799 -0.0188785 2.77635e-17)
(0.0702454 0.113817 3.11008e-17)
(-0.00102485 0.0359031 -1.56925e-17)
(0.156004 -0.0861895 0)
(0.00247897 0.044887 -1.56871e-17)
(0.0799799 0.150273 0)
(0.11677 0.0266711 0)
(0.116835 -0.025074 0)
(0.0820476 -0.00786767 1.18457e-17)
(0.0137209 0.0578284 0)
(0.021307 -0.0759853 0)
(0.0829291 0.109039 0)
(0.0506816 -0.00808712 0)
(0.0535738 -0.0769184 -3.9493e-18)
(0.0306249 0.0535846 0)
(0.152963 -0.10988 1.93311e-17)
(0.138436 -0.0230508 -3.89927e-18)
(0.0169435 0.0678183 0)
(0.0132352 0.0650284 -1.56478e-17)
(0.096773 0.149928 -3.88257e-18)
(0.00495093 -0.00668334 4.07719e-18)
(0.0501019 -0.00199604 0)
(0.0346073 -0.0106778 -1.53011e-17)
(0.160965 -0.0300958 -1.56067e-17)
(0.0651307 0.0744816 3.98376e-18)
(0.0619192 -0.013526 -1.18351e-17)
(-0.000103729 0.04366 1.99768e-17)
(0.0206904 -0.0126327 -1.5755e-17)
(0.147549 -0.0263398 0)
(0.034056 -0.0544553 0)
(0.0244221 -0.041533 0)
(0.0486759 0.107331 0)
(0.0967928 0.0154938 -1.18046e-17)
(0.107807 0.00020704 -3.92839e-18)
(0.159279 -0.0220928 1.5631e-17)