/*--------------------------------*- C++ -*----------------------------------*\
  =========                 |
  \\      /  F ield         | OpenFOAM: The Open Source CFD Toolbox
   \\    /   O peration     | Website:  https://openfoam.org
    \\  /    A nd           | Version:  9
     \\/     M anipulation  |
\*---------------------------------------------------------------------------*/
FoamFile
{
    format      ascii;
    class       volVectorField;
    location    "3";
    object      U;
}
// * * * * * * * * * * * * * * * * * * * * * * * * * * * * * * * * * * * * * //

dimensions      [0 1 -1 0 0 0 0];

internalField   nonuniform List<vector> 
942
(
(0.0216141 -0.0694071 0)
(0.0270399 0.0225777 2.45437e-17)
(0.0401848 0.105827 0)
(0.00953892 -0.07878 -1.29742e-17)
(0.0431707 0.116304 7.7875e-18)
(0.039136 -0.0359037 1.37193e-17)
(0.00856646 -0.0125413 3.60759e-17)
(0.0472133 -0.0408425 0)
(0.00412104 -0.0484519 -2.84164e-17)
(0.00496251 -0.0530844 2.89651e-17)
(0.0524464 0.000893028 0)
(0.089424 -0.0304629 0)
(0.00905175 -0.0801666 1.20998e-17)
(0.0785363 0.0468167 0)
(0.0997071 -0.0311287 0)
(0.0327242 0.00785032 -2.6671e-17)
(0.0654504 0.0116682 -1.04965e-17)
(0.0187991 -0.0693814 0)
(0.095863 0.0551856 -3.13199e-18)
(-0.0361054 -0.00111254 4.81312e-18)
(0.065901 0.00145898 1.78911e-17)
(0.0915313 -0.034393 1.43985e-17)
(0.0137948 -0.025901 0)
(0.00999602 -0.0131061 -2.85388e-17)
(0.0483175 -0.0183814 0)
(0.0069571 -0.0253554 2.14379e-17)
(0.0368933 0.105198 0)
(0.0158241 -0.0346006 1.81905e-17)
(0.0211172 -0.00212171 0)
(0.0147984 -0.050884 1.14878e-17)
(0.000944314 -0.0356617 1.44328e-17)
(0.0317127 0.0933044 0)
(0.0180959 0.00707763 1.36154e-17)
(-0.0828259 0.0234852 1.59232e-17)
(0.0373619 0.109307 -1.56394e-17)
(0.0178651 -0.0162754 3.00171e-17)
(0.0355129 -0.0528329 1.01334e-18)
(0.00563088 -0.0411636 0)
(0.0348247 -0.054655 -5.17519e-19)
(0.0112524 4.66622e-05 2.03773e-17)
(-0.0772432 -0.022992 -2.84725e-17)
(0.0439224 -0.0554859 0)
(0.0171957 0.0209107 -1.40497e-17)
(0.0118039 -0.0205541 -1.2027e-17)
(0.0119257 -0.0173728 -3.04242e-17)
(0.0681387 0.0426995 6.8571e-18)
(0.0590733 0.0703001 -1.38906e-17)
(-0.0844607 0.0382885 -1.31056e-17)
(-0.0878981 -0.0222894 1.46565e-17)
(0.0784991 0.0292602 1.71041e-17)
(0.0899087 0.0627549 0)
(0.0064503 -0.0122318 0)
(0.0133222 -0.0088676 -2.02385e-17)
(0.00604787 -0.0183954 1.6171e-17)
(0.00507089 -0.0656415 0)
(-0.016451 -0.0571326 -1.07203e-17)
(0.018278 0.000584164 -2.70709e-17)
(0.00636987 -0.0687534 -1.94064e-18)
(0.02489 0.00117454 3.46798e-17)
(0.066266 0.113133 1.49537e-17)
(0.0114317 -0.0378344 -1.42803e-17)
(0.0361127 0.104305 -3.6842e-17)
(-0.0394781 0.0246156 1.71701e-17)
(0.0219181 -0.0632685 -1.39963e-17)
(0.0077145 -0.0417866 1.32721e-17)
(0.0596053 0.00137777 1.02019e-17)
(0.0314125 0.0896055 2.88058e-17)
(0.00664936 0.0857775 -1.31201e-17)
(-0.0247648 -0.0389736 1.35849e-17)
(0.0215377 -0.0426482 3.73034e-18)
(0.0156678 0.0284126 0)
(0.00591716 -0.0334826 0)
(0.0140115 0.00219864 -1.77104e-18)
(0.0142401 -0.0571025 3.44448e-18)
(0.00808715 -0.0197357 -1.53221e-17)
(-0.0622897 -0.00509386 2.61106e-22)
(-0.0420465 0.00509178 1.77394e-18)
(0.032003 0.0906426 1.59012e-17)
(0.00050761 -0.0258318 -1.72843e-17)
(0.0480917 0.00873392 -3.49445e-18)
(0.0169491 -0.0183962 2.07022e-17)
(0.00565643 -0.0302243 -7.46417e-18)
(0.00176348 -0.0340044 -1.88549e-18)
(0.0462688 -0.000825769 7.68579e-18)
(0.0477004 -0.00248726 0)
(0.0312654 0.111355 0)
(0.0348166 0.10401 -1.56378e-17)
(0.0706205 -0.0155619 4.32529e-18)
(0.0852369 0.0564652 0)
(-0.00408855 -0.0436127 2.15568e-17)
(0.041089 -0.0684791 -1.09787e-17)
(0.025604 0.0596582 4.9575e-19)
(0.00635949 -0.0748809 2.18384e-18)
(-0.0175398 -0.076149 0)
(0.00461507 -0.0445614 -4.24104e-18)
(-0.0465899 -0.00282466 7.80047e-18)
(0.0373495 -0.0523478 1.34649e-17)
(0.0590152 -0.0142474 -1.2572e-17)
(0.0271515 -0.0305214 -1.86676e-17)
(0.00731355 -0.0329405 -2.66585e-17)
(0.00946821 -0.0333117 -8.01258e-18)
(0.00548197 -0.0769493 9.04186e-18)
(0.0798642 0.0754026 0)
(0.0210268 -0.037604 1.02629e-17)
(0.0146332 -0.0549678 -1.62212e-17)
(0.0101591 -0.0309277 -2.61664e-17)
(0.0817279 0.0342394 -9.19616e-18)
(0.0473763 0.0363319 0)
(-0.0453117 0.0516967 1.42186e-17)
(0.0134452 0.0641373 0)
(0.00435933 -0.0268944 0)
(-0.0407138 -0.0356806 -1.43603e-17)
(0.030734 0.102149 2.84895e-17)
(0.00564376 -0.037731 0)
(0.0642739 0.0034413 0)
(0.0141485 0.0321682 1.93468e-18)
(0.0746508 0.12767 -1.53452e-17)
(0.0124951 -0.0774837 1.63959e-17)
(0.00418929 -0.0164946 5.18522e-23)
(0.0766643 -0.0143405 -1.87815e-18)
(0.00557287 -0.0154091 6.24382e-18)
(0.0184637 -0.0144391 -1.61354e-17)
(0.00843112 0.0150533 0)
(0.0197896 0.00208874 1.42124e-17)
(0.0215095 -0.00324034 1.15103e-17)
(0.00332901 -0.0290025 -3.06606e-17)
(0.00315506 -0.00569643 1.61917e-17)
(0.0281245 0.0312249 -1.54442e-17)
(0.0373174 0.0404718 2.82427e-17)
(0.00824742 -0.00660772 1.47803e-17)
(0.0938797 0.048776 -7.5838e-18)
(0.0875779 0.0424247 -1.75483e-17)
(0.0601918 0.04725 0)
(-0.12829 0.0153257 0)
(-0.0843074 0.0231142 -1.57472e-17)
(0.0653455 0.0442263 -1.09744e-17)
(0.00187202 -0.0119795 9.62479e-19)
(-0.00498884 0.0457381 0)
(-0.0400651 -0.00548382 1.96505e-17)
(-0.105623 0.00413662 -6.68966e-18)
(-0.137021 0.0115869 1.5738e-17)
(0.0488977 0.0463045 0)
(0.0560691 0.119939 -1.56529e-17)
(0.00418091 -0.0187596 1.70361e-17)
(0.0431534 -0.033606 -3.96912e-18)
(0.014704 -0.00631164 -7.21171e-18)
(0.016168 -0.033991 0)
(0.00738436 -0.0388993 -9.52787e-18)
(0.0270946 -0.0348764 2.40497e-17)
(0.0362139 0.11624 0)
(0.0521632 -0.0373226 4.29155e-18)
(0.100144 0.042664 4.73818e-18)
(0.0412433 0.102185 0)
(0.0262637 -0.037899 8.92349e-18)
(0.0350723 0.0958101 -1.55474e-17)
(0.0303415 -0.0495828 0)
(0.0513693 0.000766288 1.75204e-17)
(0.00186675 -0.0159084 0)
(0.0779976 0.130859 0)
(-0.0511717 0.00175082 6.47618e-18)
(0.0680179 0.0012961 -2.26485e-17)
(0.0256606 -0.0413926 0)
(0.0065365 -0.0767983 0)
(0.0580528 -0.0267052 7.99397e-18)
(0.0699827 0.0489301 0)
(0.0800683 0.0914847 -2.36509e-17)
(0.0115209 -0.0375599 0)
(0.0262638 -0.0456215 0)
(0.0573399 0.0338281 1.40083e-17)
(0.0471614 0.0872416 1.66425e-17)
(-0.0422432 0.0515735 -1.38812e-17)
(-0.0671515 -0.0382149 -1.84156e-18)
(0.0113655 -0.0228903 -9.45496e-24)
(0.0144418 -0.0362731 8.97255e-18)
(0.0353064 0.126425 0)
(0.0213741 -0.0611588 -1.74172e-17)
(-0.0544273 -0.0205021 -1.64923e-17)
(0.019725 -0.0625843 0)
(-0.0056717 -0.0856184 5.71742e-19)
(0.0262963 -0.0637855 0)
(0.0209166 -0.0313336 -1.04764e-17)
(0.0249224 0.00636608 0)
(0.0325211 -0.0430671 -2.05627e-17)
(0.0244004 -0.0656861 2.33975e-22)
(0.0163094 -0.0654032 -1.03732e-17)
(0.00831324 -0.0257754 0)
(0.0907989 0.111554 -8.15262e-18)
(0.0297838 0.0731779 1.64142e-17)
(0.0447502 0.133599 2.33117e-17)
(0.0297621 -0.067541 7.84418e-18)
(0.0432808 0.139995 3.14396e-17)
(0.0316691 -0.0657383 -7.86162e-18)
(0.0182948 -0.0482992 -9.9618e-18)
(0.00282663 -0.0344301 -1.50857e-17)
(0.0237843 0.0560343 8.31196e-18)
(0.0111625 -0.0786289 -7.46659e-18)
(0.0211173 0.0492847 0)
(0.0179698 -0.0536044 2.66881e-17)
(-0.08253 -0.00225397 -1.92183e-17)
(0.00358562 0.0047406 1.45525e-17)
(0.000831404 -0.0101528 0)
(0.013982 -0.07839 7.57995e-18)
(0.0121757 0.0209772 0)
(0.0542078 0.0172354 -1.76133e-17)
(0.060524 0.1086 1.66117e-17)
(-0.0443838 -0.0747942 0)
(0.0125385 -0.0262227 1.66381e-17)
(0.0396432 0.108733 -3.61554e-17)
(0.0103619 0.00984663 -1.4047e-17)
(0.00803188 -0.00881692 1.3919e-17)
(0.0267769 0.0712519 -8.06592e-18)
(0.0150495 -0.0753565 3.48514e-22)
(0.00789231 -0.0587374 1.28674e-17)
(0.0430468 0.131527 7.65921e-18)
(0.00676254 -0.00281487 0)
(0.0245947 -0.0763525 -7.87948e-23)
(0.0481722 0.140841 -1.91393e-17)
(0.0689521 0.100821 1.60905e-17)
(0.0246152 0.065825 1.59985e-17)
(0.0211758 0.0411903 -1.4551e-22)
(0.0291821 -0.0746324 0)
(0.0232339 -0.076368 -1.54187e-17)
(0.034906 -0.0684226 0)
(0.0198954 -0.0766392 0)
(0.00168022 -0.0094756 -1.60989e-17)
(0.0105326 0.0343408 1.60208e-17)
(0.0444088 0.141173 -1.12753e-17)
(0.0334541 -0.0719971 -1.58419e-17)
(0.00234475 -0.00838689 2.35961e-17)
(0.0181637 -0.0015445 0)
(0.0102275 -0.0318645 -1.47412e-17)
(0.0419082 0.121338 -2.82815e-17)
(0.0103921 0.0273861 1.55139e-17)
(0.00277539 -0.00908791 -8.48305e-18)
(0.0275174 -0.0758216 -7.96802e-18)
(0.0129343 -0.07225 2.78849e-22)
(0.0628876 0.122492 -1.66952e-17)
(0.0321769 -0.0741721 1.59149e-17)
(0.00953297 -0.0133345 -1.53239e-17)
(0.0270052 0.0565182 1.58453e-17)
(0.0272077 0.030014 0)
(0.0271247 -0.0431021 -3.88183e-18)
(0.0375487 -0.0719087 7.84884e-18)
(0.0196284 -0.0533136 -8.87115e-18)
(0.0244127 -0.056056 -1.5698e-17)
(0.00878568 0.0120114 -1.59215e-17)
(0.0372229 -0.0689087 7.89832e-18)
(0.0227687 -0.076317 -8.55887e-18)
(0.0364643 -0.0717471 -1.58479e-17)
(0.0100301 0.00571594 3.92219e-18)
(0.0447047 0.144968 -3.97125e-18)
(-0.0252554 -0.0737221 -1.45906e-17)
(0.045414 0.143116 0)
(0.00389933 -0.00640054 1.18363e-17)
(0.0298209 -0.05882 1.55964e-17)
(0.0177975 -0.0748977 1.7333e-17)
(0.0354721 -0.0720766 0)
(0.0368078 -0.0665064 0)
(0.0712551 0.0391083 -7.8954e-18)
(0.0204048 -0.0499478 8.83683e-18)
(0.0274159 -0.0732351 -7.79705e-18)
(0.0784495 0.0470346 7.76598e-18)
(0.0428751 0.135553 -1.93865e-17)
(0.0348716 -0.0607123 -4.12248e-18)
(0.0346969 -0.0653593 8.20495e-18)
(0.00677441 -0.0496644 0)
(0.0255084 -0.0535231 0)
(0.0414936 -0.0664986 0)
(0.00604549 -0.0390793 1.49488e-17)
(0.0404948 -0.0690021 7.98756e-18)
(0.0404253 -0.0654453 1.51172e-17)
(0.0504047 0.144005 -1.44657e-17)
(-0.0410173 -0.0469129 1.70453e-17)
(0.0461841 0.137754 -7.63321e-18)
(0.0359516 0.106362 1.60602e-17)
(0.0807888 0.0786521 -1.60202e-17)
(0.0246504 0.0290472 0)
(0.0473018 -0.0569053 0)
(0.0370087 0.113428 -7.92455e-18)
(0.00838304 -0.00949109 -1.64453e-17)
(0.0305644 -0.0564568 0)
(0.0205007 -0.016291 -1.35245e-18)
(0.0150402 -0.0217569 1.6693e-17)
(0.047856 -0.0605584 0)
(0.103204 -0.0310347 3.10892e-17)
(0.100628 0.128866 -1.53707e-17)
(0.0436911 -0.0613156 2.34481e-17)
(0.0456709 -0.0657481 1.55895e-17)
(0.0355637 -0.0579244 4.03853e-18)
(0.0396892 -0.0615816 4.01434e-18)
(0.0891819 -0.0273939 -1.57946e-17)
(-0.00303421 -0.0397237 1.86064e-17)
(0.0850192 0.0850032 -7.16762e-18)
(0.0422999 -0.054155 1.75752e-17)
(0.0415792 -0.0491827 4.44464e-18)
(0.103912 0.00466114 -1.4234e-17)
(0.113141 0.100892 0)
(0.109174 0.11943 7.96765e-18)
(0.127271 0.0780192 7.4235e-18)
(0.0972177 0.133682 0)
(0.0912528 0.0971572 0)
(0.0437352 -0.0582261 -8.02231e-18)
(0.149904 -0.0232334 -3.59647e-18)
(0.10925 -0.0881544 -2.50612e-17)
(0.0970508 0.0797256 -2.48726e-17)
(0.0400788 -0.0710037 7.82732e-18)
(0.0627132 -0.0835274 -2.49232e-17)
(0.0191649 -0.00400883 0)
(-0.0457424 -0.0152786 -7.20658e-18)
(0.0185557 0.0374345 1.51182e-17)
(0.0044722 -0.0102916 1.22639e-17)
(-0.00375618 -0.0151545 -7.67473e-22)
(0.0167686 -0.00974898 -2.17082e-18)
(0.0116417 0.00460732 -1.51339e-17)
(0.0493495 -0.0588308 2.65414e-22)
(0.0440726 0.0468078 2.42577e-17)
(0.00627893 -0.00871549 -1.65742e-17)
(0.0121511 0.00289156 1.99969e-23)
(-0.0334964 -0.0241387 -4.27549e-18)
(0.0207262 -0.00791227 0)
(-0.015255 0.00756523 -4.43801e-18)
(0.0292655 0.046155 0)
(0.0042229 -0.00616071 1.73876e-17)
(0.00744389 -0.000101602 -3.11051e-17)
(-0.00835026 -0.00931683 -1.96104e-17)
(0.0847953 0.0287192 -1.59927e-17)
(0.0313187 0.0147907 0)
(0.0465097 -0.0604259 -8.09273e-18)
(0.0535208 -0.0594291 0)
(0.0124943 -0.0121985 0)
(0.105829 -0.0203158 -3.11591e-17)
(0.0436243 -0.0626614 -1.37948e-17)
(0.058179 -0.0599811 7.86075e-18)
(0.136894 -0.047546 -1.41101e-17)
(0.0554046 -0.0552766 0)
(0.111058 -0.00711859 1.5594e-17)
(0.0878242 -0.0993351 8.94585e-18)
(0.106864 0.0403533 -4.58756e-19)
(0.111988 0.0169193 0)
(0.0143393 -0.0115318 -1.5537e-17)
(0.0991854 0.0789952 2.28601e-17)
(-0.00851778 0.026425 -1.57207e-17)
(0.0545532 -0.0714968 -4.08837e-18)
(0.106571 0.0358939 -3.89266e-17)
(0.103637 0.124882 -1.57985e-17)
(0.100299 -0.0103964 0)
(0.0902265 0.11865 1.60917e-17)
(0.0534458 -0.0600509 1.56792e-17)
(0.0441792 -0.0675156 1.55863e-17)
(0.123847 0.111248 -7.77141e-18)
(0.109504 0.0163476 1.55975e-17)
(0.143593 0.0780734 1.00666e-21)
(0.0504711 -0.0615833 -3.98461e-17)
(0.1589 0.0331604 -8.19699e-18)
(0.105264 0.0562618 -1.38941e-17)
(0.0507743 -0.0537803 0)
(0.0854998 0.0933615 1.58563e-17)
(0.0472679 -0.0635884 0)
(0.0848563 0.0514113 7.79668e-18)
(0.0178085 0.0395273 1.57599e-17)
(0.162096 -0.011687 1.99445e-17)
(0.0771739 -0.0515866 0)
(0.102594 -0.0212796 -2.20548e-18)
(0.0434591 -0.0657533 1.33085e-17)
(0.126398 -0.0774813 -1.57821e-17)
(0.11761 -0.0146951 8.25899e-18)
(0.0831986 -0.0416927 -7.9754e-18)
(0.0639169 0.0307691 3.59917e-17)
(0.0762254 -0.0809949 2.36061e-17)
(-0.0125744 0.0377275 -4.09789e-18)
(0.0394664 -0.000608047 0)
(0.103916 0.0603304 1.53866e-17)
(0.0533457 0.0320655 -7.82742e-18)
(0.0589651 -0.0605031 -1.51947e-17)
(0.101157 0.0346709 7.87636e-18)
(0.107669 0.116392 7.78089e-18)
(0.0953361 0.0551534 7.89014e-18)
(0.0894278 0.120792 1.61344e-17)
(0.0457408 -0.0679891 7.69074e-18)
(0.131335 0.0918646 7.75443e-18)
(0.0160935 0.0235613 1.76729e-17)
(0.00299027 -0.00846374 0)
(-0.0783917 0.0139566 1.57261e-17)
(0.00726395 -0.0112136 0)
(0.054329 0.0280917 3.91478e-18)
(0.152514 0.0511765 2.453e-17)
(0.147077 -0.0607824 3.10984e-17)
(0.118128 -0.0308283 2.41179e-18)
(0.0801637 0.105347 -3.22215e-17)
(0.163634 0.00775828 -3.28685e-17)
(0.0061731 0.0161853 -8.03858e-18)
(-0.0515115 -0.00599573 -4.00736e-18)
(0.0546256 -0.0506516 0)
(0.120287 0.00525154 1.61175e-17)
(-0.098417 0.016152 4.19e-18)
(0.0636774 -0.0569553 0)
(0.0892991 -0.0482115 1.54627e-17)
(-0.0426397 0.019271 4.11322e-18)
(0.0413871 0.031938 8.10738e-18)
(-0.0106248 -0.01266 -1.02808e-18)
(-0.0897746 0.0100772 -7.02523e-18)
(0.0575354 -0.0629925 -2.33244e-17)
(0.100029 -0.0169955 0)
(0.0769079 -0.0448557 7.4079e-18)
(0.0940246 -0.0838315 0)
(0.104597 -0.0114364 0)
(0.0247679 -0.0341821 0)
(0.077709 0.0696763 0)
(0.0628724 -0.0639826 7.8002e-18)
(0.00424743 -0.00526381 2.37277e-17)
(0.0336453 0.0325434 -1.69121e-17)
(0.13477 -0.0232621 7.81565e-18)
(0.0791441 -0.0562732 0)
(0.160467 -0.0296684 2.33947e-17)
(0.124618 -0.0691831 0)
(0.0482801 -0.0673601 -7.84877e-18)
(0.0494399 -0.0659061 7.85959e-18)
(0.0691126 -0.0603214 7.77915e-18)
(0.0998263 -0.0400943 1.56313e-17)
(0.0644584 -0.0623547 7.7826e-18)
(0.0703405 -0.0522748 1.63281e-17)
(0.0804853 -0.0671429 -3.13503e-17)
(0.060483 -0.0519014 0)
(0.0567055 -0.0626457 -7.7532e-18)
(0.105001 -0.0755663 1.56017e-17)
(0.15057 -0.0454611 -1.55735e-17)
(0.0997161 0.00867759 0)
(-0.021453 0.00523696 1.64437e-17)
(0.148944 -0.00604243 1.57016e-17)
(0.0977478 0.00569602 -2.9108e-17)
(0.0800286 -0.0112021 0)
(0.155763 0.0121883 1.56974e-17)
(0.114392 -0.00902413 0)
(0.0147282 0.00224873 0)
(0.018702 -0.0231634 0)
(0.0691383 -0.056994 0)
(0.126237 0.0802947 2.33359e-17)
(0.0621251 -0.0603399 0)
(0.0710769 -0.0638007 7.8608e-18)
(0.128679 -6.88736e-05 -1.64566e-17)
(0.0616657 -0.062321 7.76427e-18)
(0.0979836 -0.0432366 -1.43134e-17)
(0.0807075 0.1083 -1.56499e-17)
(0.126237 0.0217321 0)
(0.048219 -0.0662315 -1.56082e-17)
(0.149799 -0.0172577 -2.34077e-17)
(0.0788853 0.0247139 0)
(0.051896 -0.00684639 0)
(0.0751612 -0.060097 0)
(0.0531547 -0.0640812 1.56123e-17)
(0.0623606 0.061408 -8.6316e-22)
(0.0178031 -0.0320674 -2.01863e-21)
(-0.010742 -0.0044991 -1.6252e-17)
(0.0564285 -0.0635128 0)
(0.0601838 0.0178552 0)
(0.102587 -0.0317111 0)
(0.0869074 0.00439195 0)
(0.0495121 0.0368955 0)
(0.0521048 -0.0653746 -7.82157e-18)
(0.0284436 -0.0131266 -1.5992e-17)
(0.146258 0.0473074 2.34402e-17)
(0.101158 0.101787 -7.79696e-18)
(0.0136672 -0.0250079 1.57747e-17)
(0.0506934 0.0357596 -7.81988e-18)
(0.0734888 -0.0307245 7.94863e-18)
(0.0271848 0.0258418 -7.85405e-18)
(0.0515402 -0.0587212 0)
(0.146707 0.0238031 -1.56836e-17)
(0.130464 0.0573574 -3.10871e-17)
(0.0813237 -0.0490402 0)
(0.105177 0.0857947 -1.5565e-17)
(0.0638929 0.0857726 -1.58524e-17)
(0.0804711 0.101899 0)
(0.140354 -0.045229 0)
(0.0948604 -0.0443978 8.48331e-22)
(0.0875289 0.0598758 7.11253e-18)
(0.0885741 -0.0625421 0)
(0.034249 0.0629787 -2.34902e-17)
(0.127276 -0.0554484 0)
(0.0830043 -0.0290985 0)
(0.0418548 -0.0701168 -1.55147e-17)
(0.0851088 -0.0388757 -1.56494e-17)
(0.0691843 0.0961878 0)
(0.0861984 -0.0529849 -1.56252e-17)
(0.102023 -0.0612875 -7.81993e-18)
(0.0902166 -0.0379475 1.56086e-17)
(0.132332 -0.0329718 -1.59888e-17)
(0.0640016 0.101541 1.56596e-17)
(0.087792 -0.0544987 0)
(0.0786052 -0.0395536 -7.81964e-18)
(0.0659329 -0.0394 -2.7677e-17)
(0.0632948 -0.0255578 0)
(0.0694439 -0.0518906 0)
(0.0548911 0.0755794 2.34208e-17)
(0.0442669 -0.0693278 -1.52486e-17)
(0.0818117 0.0208023 0)
(0.0859183 -0.0504941 1.56205e-17)
(0.0756041 0.104349 3.28374e-17)
(0.0825039 -0.0193768 -1.56259e-17)
(0.0522601 -0.0646068 0)
(0.0359535 -0.0464404 3.33205e-17)
(0.0819432 -0.0349499 7.80758e-18)
(0.0538034 -0.062429 0)
(0.0792959 -0.0178855 1.56427e-17)
(0.00446943 0.0569303 -8.5815e-18)
(0.0663673 0.010303 0)
(0.0468527 0.0879567 0)
(0.0446981 0.0550198 0)
(0.0623323 -0.0352132 1.37899e-17)
(0.0692725 0.0350384 -7.56038e-18)
(0.104906 -0.0513385 -1.90325e-17)
(0.0782421 -0.0312339 0)
(0.0840911 0.0069755 8.03953e-18)
(0.0763245 -0.0301236 -1.56422e-17)
(0.0699276 -0.0265567 2.64066e-17)
(0.0497075 -0.0643179 0)
(0.0839109 0.0173363 -6.79249e-18)
(0.0804611 -0.0122526 0)
(0.0656046 0.0721514 0)
(0.0549937 -0.0350005 0)
(0.112072 -0.0369475 0)
(0.0275423 0.0719735 7.86939e-18)
(0.087885 0.0694057 0)
(0.0797579 -0.0214473 0)
(0.0919003 0.0510973 -7.88844e-18)
(0.1119 0.0273497 -7.75268e-18)
(0.0686432 -0.0560164 0)
(0.0715073 -0.010857 0)
(0.0568191 -0.0432212 0)
(0.111749 0.0475014 3.11458e-17)
(0.0436485 0.0858071 2.37231e-17)
(0.0635478 -0.0570179 0)
(0.115262 -0.0453932 1.34663e-17)
(0.0353311 0.092803 -1.57802e-17)
(0.0741719 -0.0305684 1.5647e-17)
(0.0566276 0.00178236 -1.5712e-17)
(0.0137354 -0.040423 -1.30196e-21)
(0.0804476 0.00160591 0)
(0.039817 -0.0682803 0)
(0.0455195 0.144837 1.50941e-17)
(0.0253585 -0.0642125 0)
(0.0762895 -0.0281101 0)
(0.0658252 -0.0259441 -1.39411e-17)
(0.0398918 -0.0586121 -1.97933e-17)
(0.0487909 -0.04127 0)
(0.021284 -0.0224017 -1.56897e-17)
(0.0777505 -0.0188829 0)
(0.0692945 -0.0325469 -1.56628e-17)
(0.036828 -0.0292791 -7.85438e-18)
(0.0314214 -0.0115727 3.14561e-17)
(0.0648024 -0.0287195 0)
(0.0774407 -0.00360521 -1.56424e-17)
(0.0432605 0.0782343 7.86672e-18)
(0.0547535 -0.0328709 0)
(0.0447774 0.141235 1.96395e-17)
(0.0489772 -0.0220177 -7.85568e-18)
(0.0359436 0.0429641 -1.57685e-17)
(0.0266519 -0.0531606 -1.46877e-17)
(0.047325 0.144207 -7.90771e-18)
(0.0429353 -0.0576835 0)
(0.065893 0.0677661 -1.58007e-17)
(0.0329142 -0.0731394 0)
(0.0242209 -0.0732835 2.32533e-17)
(0.0504959 0.0268386 2.36036e-17)
(0.0467427 0.133542 1.5693e-17)
(0.0187979 -0.0388825 3.16107e-17)
(0.0382648 -0.0383313 -8.3628e-18)
(0.0199483 -0.0325592 -1.59454e-17)
(0.0517139 0.135897 0)
(0.0103936 -0.0581996 0)
(0.0411814 0.103284 -1.57646e-17)
(0.0483553 0.140533 3.26963e-17)
(0.0304809 -0.0416697 0)
(0.040051 0.0162851 -2.36129e-17)
(0.0228828 -0.0726508 -3.22704e-22)
(0.0335419 0.101839 7.94353e-18)
(0.0561999 0.12024 0)
(0.051479 0.0875075 7.9838e-18)
(0.0513668 0.144227 -2.35855e-17)
(0.0412287 0.115152 0)
(0.0185476 -0.0761639 1.79931e-17)
(0.0428761 0.117135 -3.3911e-17)
(0.00160173 -0.0729401 0)
(0.0564215 0.059263 0)
(0.0304932 -0.072348 -1.57031e-17)
(0.0279502 -0.0734905 0)
(0.0465156 0.138672 1.5696e-17)
(0.0242827 0.0572163 4.58164e-19)
(0.013268 -0.0659502 -1.71992e-17)
(0.0382971 0.118701 -1.59542e-17)
(0.0293905 -0.0432609 -1.29083e-17)
(0.0253525 -0.0715615 1.57696e-17)
(0.00193721 -0.0794208 0)
(0.00807018 0.0116503 0)
(0.00201365 -0.0147946 5.44357e-17)
(0.00147987 -0.0600563 -3.50165e-17)
(0.00501821 -0.0224715 -3.45258e-17)
(0.0569777 -0.0176381 0)
(0.0487715 0.14979 1.68154e-17)
(0.0176344 -0.0701843 -2.46121e-17)
(0.020038 -0.0691674 2.47584e-17)
(0.000955171 -0.0405946 0)
(0.00660118 -0.0218942 -1.73214e-17)
(0.0410677 0.151498 -5.20305e-17)
(0.00111745 -0.0408204 -1.64066e-17)
(0.0357319 -0.0317621 -3.94456e-22)
(0.0387747 0.104942 1.46599e-17)
(0.0152394 -0.0656515 -1.68924e-17)
(0.0264722 -0.0252816 8.15445e-18)
(0.0213973 0.0432048 0)
(0.0543035 -0.0091575 -1.86384e-17)
(0.048991 0.143083 3.79971e-17)
(0.00731383 -0.00232672 -1.83693e-17)
(0.00347871 -0.0208792 1.31224e-22)
(0.0566445 -0.0219521 2.56107e-17)
(0.0858273 0.00684504 -6.46972e-22)
(0.0779194 -0.0419897 3.08924e-17)
(0.0729682 0.0200429 1.12369e-17)
(0.0281849 -0.0693403 0)
(0.00261183 -0.0511132 1.75865e-17)
(0.00503113 -0.0242754 0)
(-0.0375688 0.0205953 -1.03637e-17)
(0.0460582 0.148923 -5.44231e-19)
(0.00250583 -0.02856 0)
(0.0447402 0.141777 5.00874e-19)
(0.0448593 0.123474 1.75435e-17)
(0.00646021 -0.0133308 -2.04813e-17)
(0.00274589 -0.0303392 -4.96084e-18)
(0.010458 -0.0532919 4.18704e-18)
(0.0313015 -0.0010025 2.43364e-17)
(-0.0300472 0.0265957 1.83136e-17)
(0.00912584 -0.0486646 -1.93842e-17)
(-0.109569 0.0135449 1.50468e-17)
(0.0315195 -0.0650886 0)
(0.0583739 -0.00455289 9.12014e-18)
(0.00586566 0.0440984 0)
(0.00547257 -0.0284988 1.46129e-17)
(0.0163126 -0.0560458 0)
(0.0317796 0.0244408 -3.47544e-17)
(0.093252 0.0881835 -1.86756e-17)
(0.0900261 0.0209506 -1.53018e-17)
(0.00916446 -0.0189382 -1.31625e-17)
(0.0909223 -0.0216652 0)
(-0.00697815 0.0703275 8.59364e-19)
(-0.0378484 0.0192475 0)
(0.0818463 -0.0313445 -2.71874e-17)
(0.0662081 -0.0221771 -1.28613e-17)
(0.0687731 -0.0217884 -4.5158e-18)
(0.00325163 -0.00894449 3.34709e-17)
(0.0215732 -0.0344773 0)
(0.0144439 -0.0577714 1.44267e-17)
(0.0546423 -0.0126621 0)
(0.0639378 -0.0292254 -2.45802e-17)
(0.00211357 -0.0678235 -1.86578e-17)
(0.0846679 0.131309 1.72612e-17)
(0.0255956 0.0605502 0)
(0.00386264 0.0614847 -4.52881e-18)
(0.0448385 0.129439 0)
(0.0444857 0.0241245 1.71824e-17)
(0.00608114 -0.0675429 5.51595e-19)
(0.00133867 -0.0507447 3.68612e-17)
(0.031373 -0.0694 0)
(0.00346514 -0.0770135 1.60089e-17)
(0.00307523 -0.0674273 1.71031e-17)
(0.00559477 -0.0796837 9.02942e-18)
(0.0169298 -0.0390787 -8.14542e-23)
(-0.00551324 0.0419226 -2.38608e-17)
(0.049715 0.139538 0)
(0.0387794 -0.0492549 0)
(0.0187442 0.069568 -8.70155e-18)
(0.0855806 0.120976 1.77277e-17)
(0.0191923 0.0608142 0)
(0.00454813 -0.0177793 8.5787e-18)
(0.0193868 0.055504 -1.45021e-17)
(0.00502288 -0.0174047 0)
(0.00958364 -0.076556 0)
(0.0107742 0.0423219 -6.65985e-23)
(0.0114455 0.0309358 1.50749e-17)
(0.00246932 -0.00934891 8.38115e-18)
(0.0085292 -0.0669481 -8.79172e-18)
(0.0654862 -0.101179 0)
(0.0616792 0.137015 1.70397e-17)
(0.0402956 -0.0564868 -8.80077e-18)
(0.0665851 0.0696255 -8.54769e-18)
(0.0589527 0.036562 0)
(-0.00673306 -0.0231794 0)
(-0.0670315 -0.020793 7.667e-18)
(0.0319089 0.0656053 -1.64606e-17)
(0.0434 0.0395099 0)
(0.0233574 -0.00743972 1.43935e-17)
(0.0304878 -0.0181292 0)
(0.0593758 0.0794574 8.45313e-18)
(0.0121009 -0.0165191 -1.64467e-17)
(-0.0387902 -0.0324915 2.19101e-18)
(-0.0589949 -0.0302813 1.31453e-17)
(0.0394629 0.0717147 -1.74045e-17)
(0.0486624 0.0769068 -1.75702e-17)
(0.0114854 -0.014164 0)
(0.0442345 0.016369 1.60732e-17)
(0.0405996 0.0271574 0)
(-0.0191048 -0.0237844 -2.07183e-18)
(-0.0443195 -0.0228435 0)
(0.0229835 0.0409771 0)
(0.0357681 0.0495453 -8.497e-18)
(0.0166117 -0.0115345 4.30064e-23)
(0.00533031 -0.00760045 0)
(0.0168348 0.000304337 -1.35773e-17)
(0.102254 0.00754432 -9.15016e-18)
(0.0770073 0.00961929 -1.68665e-17)
(0.0820726 0.0949398 0)
(0.00064076 -0.0601204 -1.76411e-22)
(0.0735419 0.123193 -2.7309e-17)
(0.0426039 0.00362698 -1.99587e-17)
(0.00541249 -0.0520564 0)
(0.0258371 -0.0200587 -3.34278e-17)
(0.0549059 0.137469 -8.31953e-18)
(0.0477659 0.136463 0)
(0.0536741 -0.0337188 1.70374e-17)
(0.0151372 -0.0780754 -9.57063e-18)
(0.0487637 0.12079 1.89689e-17)
(0.014301 -0.0110184 1.69376e-17)
(0.0853573 -0.00798705 9.12171e-18)
(0.064792 -0.0172296 2.66213e-17)
(0.095333 0.0432648 9.48726e-18)
(0.059799 -0.0466673 0)
(0.0316518 -0.0159902 -3.3313e-17)
(0.0334607 -0.0147831 -4.07211e-18)
(0.0285474 -0.037951 2.55271e-17)
(0.00156662 -0.0729576 -1.7781e-17)
(0.106994 -0.0573878 -2.87644e-17)
(0.103456 0.0478153 1.41023e-17)
(0.0317034 0.0740342 -2.33387e-17)
(0.00818673 -0.0720955 4.5172e-18)
(0.0942583 0.132117 1.723e-17)
(0.0931849 0.113781 -2.59211e-17)
(-0.00319482 -0.0332148 3.63079e-17)
(0.0201408 -0.0144396 0)
(0.0203029 -0.0765057 -1.86133e-17)
(0.0215334 0.0547956 2.91003e-17)
(0.0303745 -0.0365869 -1.69731e-17)
(0.0160324 -0.0786656 1.00776e-17)
(0.0756607 0.0167624 -4.49455e-18)
(0.00992561 0.0525329 0)
(0.0238315 0.0704268 -8.74526e-18)
(0.0374983 -0.0614529 -1.85697e-17)
(0.0372834 -0.0469 1.7215e-17)
(0.0186182 -0.0738451 1.11881e-17)
(0.0122373 0.0295801 -1.88013e-17)
(0.0147872 -0.0489534 9.98287e-18)
(0.0794345 0.0994028 -1.39189e-17)
(0.00950783 -0.0512434 0)
(0.0870107 0.0826516 3.19845e-17)
(0.0786653 -0.00767508 -1.76295e-17)
(0.0890121 -0.00129215 2.23898e-17)
(0.0170856 -0.00901922 2.12627e-17)
(0.142983 0.000963237 4.45395e-18)
(0.128881 0.0545084 -9.54745e-18)
(0.0145432 -0.00157138 -1.98281e-17)
(0.0178471 -0.00177648 1.88736e-17)
(0.0509633 -0.0279204 0)
(0.0656614 0.0564774 0)
(0.00245256 -0.0765727 -1.95761e-17)
(0.00103481 -0.00692127 -9.56033e-18)
(0.001667 0.00193677 -1.91372e-17)
(0.00315286 -0.0799334 1.08939e-22)
(0.0226463 -0.031474 8.73563e-18)
(0.0277603 -0.0196685 -1.76142e-17)
(0.000781996 -0.0158928 0)
(0.00329649 -0.00629677 0)
(0.0267701 -0.0269935 3.21413e-17)
(0.00359175 0.0631326 -3.16559e-17)
(0.00859055 -0.0101327 -8.9283e-18)
(0.0814909 0.104496 1.02844e-17)
(0.000281355 -0.00824891 1.80538e-17)
(0.0297965 0.097028 2.06331e-17)
(-0.04278 -0.0247674 0)
(0.0681449 -0.0105729 0)
(-0.0470189 -0.0350949 -9.23305e-18)
(0.0179283 0.110979 1.08106e-17)
(0.087271 0.0659695 -8.3987e-18)
(0.00633019 -0.0169686 -1.38236e-17)
(0.00993111 -0.038292 9.21201e-18)
(9.24954e-05 0.0138026 -2.28887e-18)
(-0.010676 0.0185695 -3.15962e-17)
(0.0505969 0.144398 -2.20941e-17)
(0.0407447 -0.0404991 5.35014e-18)
(0.076528 0.117659 2.26134e-17)
(0.00999671 -0.00453009 -6.67343e-23)
(0.0439294 -0.0511783 1.59491e-17)
(0.0287463 -0.00752142 1.86228e-17)
(0.026309 -0.0413076 -8.95262e-18)
(0.0362708 0.106482 -3.00951e-17)
(0.00217966 -0.0358171 1.95285e-17)
(0.0320046 -0.00761736 -9.17979e-18)
(0.0309472 -0.0117367 -1.83531e-17)
(0.0399392 -0.0451942 1.59364e-17)
(0.0496943 0.106355 -2.17063e-18)
(0.00728964 -0.00849855 4.49844e-18)
(0.019073 0.0525057 4.01321e-18)
(0.0105723 0.00774879 0)
(-0.00978977 0.00621762 6.13064e-18)
(0.0504932 0.138681 9.84275e-18)
(0.0232729 -0.0200428 2.16778e-17)
(0.00683138 0.0016741 0)
(0.0607247 -0.00909462 -3.81483e-18)
(0.0540707 -0.0978413 2.17877e-17)
(0.0336595 -0.081432 1.21544e-17)
(0.00536919 -0.0265168 0)
(0.000608912 -0.00765928 -1.89193e-17)
(0.0384683 -0.052066 9.97367e-18)
(-0.00101424 -0.00133491 -2.53675e-18)
(0.0116091 0.020615 -1.32209e-18)
(0.0480052 0.000537911 4.81968e-18)
(-7.54035e-05 -0.00665305 2.07483e-17)
(0.00605644 -0.0253492 0)
(0.0147186 -0.101297 0)
(0.0341624 -0.0390191 0)
(0.0420716 -0.00498834 -1.06969e-17)
(0.0857192 0.0397578 0)
(0.0935429 0.00980428 1.76123e-17)
(0.0105323 -0.0721773 -1.03199e-17)
(0.000122634 -0.0153457 -1.05915e-17)
(0.00636308 -0.0255356 0)
(0.0584787 -0.090483 -5.35866e-18)
(0.0681353 0.0273399 0)
(0.104455 0.0356926 6.00005e-19)
(0.00532804 0.00156206 1.02032e-17)
(0.00176009 -0.017046 1.494e-17)
(0.022038 -0.0513311 0)
(0.0125978 -0.0308212 1.931e-17)
(0.00607781 -0.0221387 0)
(0.00568343 -0.0232652 0)
(0.0102621 -0.0615679 1.29132e-18)
(0.0339527 -0.0544162 -1.88571e-17)
(0.00738596 -0.0172479 -1.10243e-18)
(0.0473607 -0.0307121 0)
(0.0985184 0.0710612 3.67816e-17)
(0.00752529 -0.0265289 1.05409e-18)
(0.0188653 0.0818402 -9.35252e-18)
(0.0209968 -0.0205373 0)
(0.0367776 -0.0474757 -8.27332e-18)
(0.0203823 -0.0446116 -2.24957e-17)
(0.0556545 -0.033348 2.06435e-17)
(0.0824809 0.105006 9.83038e-18)
(0.0235121 -0.0461533 9.10698e-18)
(0.0824522 -0.0141883 -9.83858e-18)
(0.00254995 -0.0173199 -1.98893e-17)
(0.065999 -0.0465378 -1.87686e-17)
(0.0312888 -0.0182413 0)
(0.0799625 -0.038415 1.32289e-17)
(0.0251864 -0.0590075 4.56722e-18)
(0.092597 -0.0866444 1.77036e-17)
(0.0456951 0.129019 4.77023e-18)
(0.0515607 0.143935 0)
(0.0158774 -0.0708099 1.74735e-17)
(0.0341254 -0.0768231 2.82259e-17)
(0.0587924 0.0707567 0)
(0.0308039 -0.0553416 2.90525e-18)
(0.00309347 -0.00868017 -1.30279e-17)
(0.0288935 0.0261868 0)
(0.0071727 -0.0601361 -1.23134e-18)
(0.0945692 0.096358 -1.76355e-17)
(-0.0225977 -0.0232093 -1.21965e-21)
(0.0908466 0.124512 5.31205e-22)
(0.0282896 -0.0598044 -4.70557e-18)
(0.0332764 -0.0364491 -2.12222e-17)
(-0.0220569 0.0232761 2.35199e-17)
(0.0112266 0.00423409 4.20786e-17)
(-0.0151825 -0.0419589 -2.16117e-17)
(0.012268 -0.00576481 3.12211e-17)
(0.00436971 0.0600634 4.45486e-18)
(0.00640299 -0.0307119 1.04316e-17)
(0.0219832 0.0489956 2.08064e-17)
(0.0355339 -0.0508313 0)
(0.0647622 -0.0414474 -2.90562e-17)
(0.0250456 -0.0322733 -1.82027e-17)
(0.0811496 0.0725646 5.02447e-18)
(0.0265297 -0.0343922 0)
(0.0151016 0.03326 -2.2309e-17)
(0.0345807 -0.0471527 -2.1331e-17)
(0.076986 0.109998 0)
(0.00979408 -0.0293652 1.16245e-17)
(0.0133072 -0.0742142 1.30655e-17)
(0.0345086 -0.0615233 -1.07515e-17)
(0.0393484 -0.0511534 1.30225e-18)
(0.0120115 -0.0507621 0)
(0.000952189 -0.07937 2.20963e-22)
(0.0661155 0.130497 0)
(0.0141612 -0.0168279 1.87231e-17)
(0.0317395 -0.047055 -2.65659e-18)
(0.0320766 -0.00874764 1.08828e-17)
(0.00197161 -0.0324091 0)
(0.00442461 -0.0166006 2.3168e-17)
(-0.0446882 -0.00539791 2.15162e-17)
(0.0453682 -0.0464737 -5.37281e-18)
(0.0208064 -0.0259264 -1.76169e-17)
(0.0170936 -0.0282389 -3.66869e-17)
(0.026803 0.0646402 0)
(0.0977429 -0.00397186 0)
(0.0689968 0.114568 -2.23193e-17)
(0.0599743 0.106132 2.89414e-17)
(0.0514119 -0.101816 9.23618e-18)
(0.150816 0.031273 1.05024e-17)
(0.0326216 -0.0495772 7.60952e-18)
(0.000862086 -0.0316384 -1.15327e-17)
(0.0486188 0.143285 0)
(0.058819 0.120774 0)
(0.0344172 -0.043972 0)
(0.0192921 -0.0779833 -7.66895e-19)