/*--------------------------------*- C++ -*----------------------------------*\
  =========                 |
  \\      /  F ield         | OpenFOAM: The Open Source CFD Toolbox
   \\    /   O peration     | Website:  https://openfoam.org
    \\  /    A nd           | Version:  9
     \\/     M anipulation  |
\*---------------------------------------------------------------------------*/
FoamFile
{
    format      ascii;
    class       volScalarField;
    location    "0.96";
    object      p;
}
// * * * * * * * * * * * * * * * * * * * * * * * * * * * * * * * * * * * * * //

dimensions      [0 2 -2 0 0 0 0];

internalField   nonuniform List<scalar> 
942
(
10.1178
10.1213
10.1153
10.1183
10.1155
10.1192
10.1195
10.1192
10.1196
10.1196
10.1229
10.1182
10.1185
10.1215
10.1179
10.1218
10.1193
10.1178
10.1206
10.1177
10.1189
10.118
10.1172
10.1158
10.1225
10.1155
10.1173
10.1173
10.117
10.1174
10.1153
10.1174
10.1168
10.1051
10.1173
10.1172
10.1176
10.1172
10.1176
10.116
10.1053
10.1171
10.1162
10.1195
10.1194
10.1193
10.1219
10.1084
10.1089
10.1218
10.1208
10.1171
10.1171
10.1153
10.1193
10.1155
10.1202
10.1192
10.1205
10.1101
10.1172
10.1172
10.1025
10.1176
10.1173
10.121
10.1175
10.1175
10.1164
10.1195
10.121
10.1196
10.1214
10.1175
10.1155
10.1168
10.1183
10.1174
10.1154
10.1214
10.1194
10.1157
10.1215
10.1217
10.1208
10.1169
10.111
10.1194
10.121
10.1202
10.117
10.118
10.1191
10.114
10.1175
10.115
10.1174
10.1197
10.1194
10.1172
10.1196
10.119
10.1208
10.1195
10.1168
10.1172
10.1196
10.1191
10.1157
10.1207
10.1168
10.1152
10.1157
10.1196
10.1226
10.1179
10.1156
10.1182
10.1172
10.0989
10.1172
10.1172
10.1159
10.1212
10.1212
10.1156
10.1171
10.1171
10.1179
10.1171
10.12
10.1194
10.122
10.1108
10.1174
10.1191
10.1169
10.1224
10.1154
10.11
10.1068
10.1186
10.1171
10.1156
10.1192
10.1163
10.1195
10.1196
10.1173
10.117
10.1191
10.1005
10.1178
10.1193
10.1176
10.1174
10.1208
10.1197
10.1127
10.1158
10.1206
10.1173
10.1181
10.1188
10.1007
10.1201
10.1195
10.1194
10.119
10.1208
10.1106
10.1124
10.1172
10.1172
10.1164
10.1193
10.1156
10.1193
10.1138
10.1192
10.1193
10.1176
10.1174
10.1192
10.1177
10.1158
10.1167
10.1156
10.1166
10.119
10.1161
10.1191
10.1174
10.1149
10.1156
10.1187
10.1155
10.1174
10.104
10.1155
10.1172
10.1187
10.1156
10.1189
10.1192
10.1105
10.1172
10.1159
10.1157
10.1155
10.1157
10.1189
10.1194
10.1169
10.1157
10.1185
10.1161
10.1159
10.1154
10.1149
10.1184
10.1183
10.1189
10.1188
10.1197
10.1177
10.1167
10.1182
10.1172
10.1143
10.1158
10.116
10.1176
10.1196
10.1186
10.1192
10.1162
10.1184
10.1146
10.1148
10.1142
10.1194
10.1185
10.1194
10.1194
10.1156
10.1181
10.1188
10.1183
10.1151
10.1163
10.1068
10.1162
10.1154
10.1192
10.119
10.1187
10.119
10.1148
10.1195
10.1181
10.1157
10.1169
10.1192
10.1179
10.1195
10.1194
10.1189
10.1151
10.1182
10.118
10.1163
10.1039
10.1167
10.1159
10.1168
10.1175
10.1191
10.1156
10.1171
10.1193
10.1172
10.1172
10.119
10.1183
10.1124
10.119
10.1188
10.1192
10.1191
10.1182
10.1006
10.1179
10.1177
10.1192
10.1196
10.107
10.1105
10.1059
10.1138
10.1148
10.1191
10.1034
10.1079
10.1155
10.1186
10.1152
10.1194
10.1168
10.1184
10.1195
10.1226
10.1191
10.1211
10.1178
10.1214
10.1194
10.1206
10.1189
10.119
10.1192
10.1197
10.1194
10.1212
10.0999
10.1172
10.1235
10.1179
10.1177
10.1194
10.1185
10.1179
10.1187
10.1035
10.119
10.118
10.1106
10.1194
10.1191
10.1171
10.117
10.1136
10.1163
10.1172
10.1143
10.1195
10.1144
10.1179
10.1187
10.1123
10.1182
10.1094
10.118
10.1076
10.119
10.1191
10.1139
10.118
10.1137
10.1128
10.1077
10.1183
10.1181
10.1181
10.1091
10.118
10.1183
10.1197
10.1149
10.1146
10.0983
10.1178
10.1208
10.1175
10.1159
10.1143
10.1149
10.1146
10.1183
10.1123
10.1165
10.1172
10.1137
10.117
10.1192
10.1101
10.1076
10.1167
10.1138
10.1093
10.1233
10.1129
10.119
10.1184
10.108
10.1186
10.1177
10.12
10.1188
10.1162
10.1078
10.1181
10.1186
10.1184
10.1135
10.117
10.1173
10.1132
10.1174
10.1171
10.1183
10.116
10.1177
10.1107
10.1125
10.1184
10.1183
10.118
10.1179
10.1179
10.1185
10.1166
10.1189
10.1186
10.1139
10.1106
10.1157
10.1138
10.1149
10.1198
10.1193
10.1131
10.1183
10.1129
10.1171
10.1184
10.1152
10.1185
10.1169
10.1174
10.1182
10.1174
10.1151
10.1177
10.1187
10.1141
10.1135
10.1135
10.1177
10.1182
10.1126
10.1149
10.1136
10.1183
10.1129
10.1172
10.1147
10.1212
10.1184
10.1136
10.1138
10.1159
10.1163
10.1124
10.1177
10.1124
10.119
10.115
10.116
10.1189
10.1168
10.1174
10.1163
10.1133
10.1181
10.1181
10.1164
10.1132
10.114
10.1181
10.1184
10.1181
10.1136
10.1181
10.1158
10.1166
10.1156
10.1146
10.1176
10.1188
10.1208
10.1148
10.1195
10.1129
10.1185
10.116
10.1174
10.1167
10.1152
10.1186
10.1164
10.1182
10.1187
10.1163
10.1152
10.1143
10.1152
10.12
10.1168
10.121
10.1164
10.1178
10.1177
10.1171
10.1207
10.1188
10.1192
10.1173
10.1189
10.1164
10.1172
10.1144
10.1187
10.118
10.1196
10.1191
10.1175
10.1147
10.1161
10.1185
10.1169
10.119
10.1161
10.1151
10.1165
10.1138
10.1147
10.1197
10.1188
10.1167
10.1177
10.1195
10.1174
10.1191
10.1155
10.1139
10.1191
10.1159
10.114
10.114
10.1151
10.1156
10.1146
10.1147
10.1163
10.1142
10.1141
10.1183
10.1164
10.1197
10.1149
10.1186
10.1181
10.1139
10.1158
10.1151
10.1155
10.1161
10.1161
10.1195
10.1151
10.1162
10.1149
10.1137
10.119
10.1157
10.1157
10.1148
10.1168
10.1175
10.1182
10.1146
10.1192
10.1144
10.1189
10.1188
10.117
10.1147
10.1193
10.1159
10.1175
10.119
10.1184
10.115
10.1152
10.1176
10.1153
10.1189
10.1151
10.1191
10.1192
10.1173
10.1152
10.1153
10.1197
10.1166
10.1155
10.1193
10.1169
10.1153
10.1184
10.1152
10.1151
10.1151
10.119
10.1205
10.0997
10.1213
10.1179
10.1174
10.1152
10.116
10.1153
10.1196
10.1161
10.1158
10.1153
10.1172
10.1174
10.1201
10.1173
10.1187
10.1054
10.1178
10.1204
10.1197
10.1155
10.1195
10.1181
10.1189
10.1205
10.1196
10.1184
10.1087
10.1179
10.1182
10.1191
10.1187
10.1195
10.1195
10.1194
10.1182
10.1185
10.1194
10.1157
10.1195
10.1168
10.117
10.1186
10.1177
10.1195
10.118
10.1181
10.1177
10.1186
10.1195
10.1015
10.116
10.1176
10.1176
10.1172
10.1177
10.1196
10.1177
10.1196
10.119
10.1175
10.1177
10.1196
10.1194
10.1109
10.1172
10.1177
10.1219
10.1234
10.1223
10.1166
10.1185
10.1221
10.1236
10.1191
10.1208
10.1194
10.1199
10.1177
10.1192
10.1201
10.1194
10.1238
10.123
10.1208
10.1172
10.119
10.1205
10.1192
10.1194
10.1237
10.0993
10.1211
10.1198
10.1195
10.1178
10.118
10.1174
10.1194
10.1173
10.1167
10.1216
10.1184
10.1179
10.1193
10.1196
10.1181
10.1199
10.119
10.119
10.1189
10.1194
10.1179
10.1017
10.1198
10.1153
10.1179
10.1149
10.1155
10.1155
10.1173
10.1183
10.1177
10.1193
10.1186
10.1196
10.117
10.1176
10.1178
10.1193
10.118
10.1177
10.1196
10.1059
10.1196
10.1205
10.1198
10.1197
10.1189
10.1016
10.1033
10.1204
10.1209
10.1171
10.1227
10.119
10.1172
10.1152
10.1186
10.1194
10.1193
10.1172
10.1151
10.1174
10.1158
10.1194
10.1194
10.1196
10.1174
10.1156
10.1216
10.1169
10.1144
10.1193
10.1196
10.1196
10.1208
10.1199
10.1156
10.1193
10.1184
10.1198
10.1177
10.1196
10.1219
10.1172
10.1196
10.1192
10.1189
10.1193
10.1184
10.1194
10.1176
10.1208
10.1199
10.1157
10.1174
10.1154
10.1195
10.1135
10.1037
10.1155
10.1196
10.1176
10.1207
10.1153
10.1186
10.1197
10.1153
10.112
10.1176
10.118
10.12
10.1195
10.1192
10.1197
10.1153
10.1053
10.1228
10.1199
10.1154
10.1172
10.1174
10.1195
10.1155
10.1153
10.1176
10.1008
10.1196
10.1191
10.1194
10.1154
10.1173
10.1194
10.1212
10.1173
10.119
10.1188
10.1173
10.1185
10.1197
10.1188
10.1231
10.1186
10.1176
10.1044
10.1169
10.1161
10.1162
10.1163
10.1037
10.1175
10.1196
10.0996
10.1175
10.1177
10.1147
10.1148
10.1176
10.1194
10.1195
10.1154
10.117
10.119
10.1045
10.1196
10.1152
10.1192
10.1189
10.1194
10.1213
10.1174
10.1153
10.1193
10.1187
10.1196
10.118
10.1177
10.1192
10.1195
10.1188
10.1177
10.1194
10.1192
10.1175
10.1172
10.1152
10.1007
10.1192
10.1175
10.1172
10.1157
10.1195
10.1194
10.119
10.1089
10.1043
10.1193
10.1197
10.1162
10.1185
10.1176
10.1186
10.1203
10.1174
10.1156
10.1195
10.1068
10.1187
10.1164
10.1175
10.1175
10.1152
10.1155
10.1193
10.1189
10.1194
10.1196
10.1198
10.1162
10.1188
10.1197
10.1177
10.1175
10.1174
10.1196
10.1173
10.1194
10.1179
10.1096
10.1143
10.1172
10.1197
10.12
10.1177
10.118
)
;

boundaryField
{
    back
    {
        type            empty;
    }
    front
    {
        type            empty;
    }
    top
    {
        type            zeroGradient;
    }
    outer_arc
    {
        type            zeroGradient;
    }
    bottom
    {
        type            uniformFixedValue;
        uniformValue    
        {
            type            table;
            format          csv;
            file            "outlet_p.csv";
            nHeaderLine     1;
            refColumn       0;
            componentColumns List<label> 1(1);
            separator       ",";
            mergeSeparators 0;
        }
        value           uniform 10.1151;
    }
    inner_arc
    {
        type            zeroGradient;
    }
}


// ************************************************************************* //
