/*--------------------------------*- C++ -*----------------------------------*\
  =========                 |
  \\      /  F ield         | OpenFOAM: The Open Source CFD Toolbox
   \\    /   O peration     | Website:  https://openfoam.org
    \\  /    A nd           | Version:  9
     \\/     M anipulation  |
\*---------------------------------------------------------------------------*/
FoamFile
{
    format      ascii;
    class       volVectorField;
    location    "0.77";
    object      U;
}
// * * * * * * * * * * * * * * * * * * * * * * * * * * * * * * * * * * * * * //

dimensions      [0 1 -1 0 0 0 0];

internalField   nonuniform List<vector> 
942
(
(0.0233172 -0.0699872 0)
(-0.0170094 -0.0109287 2.72989e-17)
(0.0461814 0.105928 0)
(0.00966988 -0.0788913 -1.44333e-17)
(0.0485342 0.119797 8.65608e-18)
(0.0461663 -0.0696758 1.52332e-17)
(0.00505133 -0.00788526 4.01497e-17)
(0.0587061 -0.091861 0)
(0.00421389 -0.0484481 -3.16123e-17)
(0.00502958 -0.0530538 3.22225e-17)
(0.0511693 0.0370232 0)
(0.149777 0.00564591 0)
(0.00920948 -0.0802409 1.34607e-17)
(0.0504455 0.0433011 0)
(0.150859 0.0177497 0)
(-0.0330333 -0.0108939 -2.96663e-17)
(-0.0173758 -0.0302549 -1.17071e-17)
(0.0198276 -0.0700999 0)
(-0.0289902 -0.0175907 -3.50281e-18)
(-0.0163146 -0.0126919 5.36435e-18)
(0.00136344 -0.0118463 1.99666e-17)
(0.169595 -2.68672e-05 1.59569e-17)
(0.0210009 -0.0267038 0)
(-0.0229502 -0.0337779 -3.16793e-17)
(0.0617975 0.0430241 0)
(-0.029267 -0.047943 2.37968e-17)
(0.0486814 0.131028 0)
(0.0220259 -0.032722 2.02338e-17)
(-0.0433982 -0.042331 0)
(0.0159398 -0.0509597 1.27806e-17)
(-0.0354698 -0.0360763 1.6039e-17)
(0.0418101 0.124094 0)
(-0.0379556 -0.0377738 1.50947e-17)
(-0.00547636 0.047092 1.77682e-17)
(0.0560835 0.113134 -1.7376e-17)
(0.00237092 -0.0311738 3.3354e-17)
(0.0168071 -0.0636758 1.1279e-18)
(0.00496101 -0.041512 0)
(0.0282073 -0.0562236 -5.76035e-19)
(-0.02427 -0.0285484 2.26098e-17)
(-0.0483273 0.0703832 -3.16216e-17)
(-0.00151706 -0.126479 0)
(-0.0139231 -0.00937532 -1.56396e-17)
(0.00705828 -0.0158131 -1.33853e-17)
(0.00819026 -0.0139702 -3.3864e-17)
(-0.032476 -0.0396619 7.63494e-18)
(-0.0288639 -0.0113642 -1.55262e-17)
(-0.0255066 0.0346511 -1.46629e-17)
(-0.0921186 0.0674559 1.62738e-17)
(0.0612154 0.0512218 1.90594e-17)
(-0.0329806 -0.0155502 0)
(0.0132774 -0.0174569 0)
(-0.000611314 -0.0188781 -2.25058e-17)
(0.00250179 -0.0373639 1.79458e-17)
(0.00515161 -0.0656184 0)
(-0.0932806 -0.00580388 -1.1884e-17)
(0.017396 0.00693178 -3.01375e-17)
(0.00653976 -0.0687189 -2.15891e-18)
(0.00035182 0.0162322 3.85696e-17)
(0.128479 0.0105659 1.66573e-17)
(0.0120918 -0.0372991 -1.58871e-17)
(0.0521795 0.121025 -4.08845e-17)
(0.0306588 0.0545941 1.91018e-17)
(0.0247039 -0.0633394 -1.55711e-17)
(0.00726558 -0.0422352 1.47648e-17)
(-0.0235314 0.016585 1.13608e-17)
(0.0449375 0.114202 3.19684e-17)
(-0.00252843 -0.000836434 -1.47154e-17)
(-0.119218 0.0136298 1.50257e-17)
(0.0193794 -0.0413568 4.1505e-18)
(-0.0268446 -0.0131963 0)
(0.00613453 -0.0328312 0)
(-0.0433867 -0.00682697 -1.96335e-18)
(0.0144943 -0.0575708 3.83172e-18)
(-0.00557834 -0.0387279 -1.70052e-17)
(-0.00112715 -0.013498 1.75488e-22)
(-0.0215881 -0.0151938 1.97647e-18)
(0.0480793 0.10467 1.76595e-17)
(-0.0227606 -0.0247089 -1.91931e-17)
(-0.0203117 0.000666843 -3.89002e-18)
(0.019465 -0.0262446 2.30183e-17)
(-0.0372492 -0.0434054 -8.27718e-18)
(0.0482923 0.0254119 -2.09131e-18)
(-0.0324628 0.00383055 8.5603e-18)
(-0.0302787 0.0205704 0)
(0.0372526 0.14592 0)
(0.105936 0.00733312 -1.74827e-17)
(0.0747972 -0.00135183 4.80484e-18)
(0.0592827 0.0522273 0)
(0.0581502 0.0274654 2.39183e-17)
(0.0157575 -0.0883619 -1.21775e-17)
(0.0321826 0.0566429 5.51508e-19)
(0.00653441 -0.0749049 2.42942e-18)
(-0.0611667 0.0114422 0)
(-0.0881228 -0.0435869 -4.68759e-18)
(0.0475331 -0.00530845 8.68581e-18)
(-0.0327064 -0.128058 1.48807e-17)
(0.0549949 -0.00538143 -1.39983e-17)
(0.0262178 -0.0363468 -2.07609e-17)
(0.00734901 -0.0333995 -2.96579e-17)
(0.0115441 -0.0309783 -8.91348e-18)
(0.00556144 -0.076963 1.00586e-17)
(-0.0251497 -0.00984159 0)
(0.0172518 -0.0360822 1.14187e-17)
(-0.0584079 -0.0679266 -1.79875e-17)
(0.0130974 -0.0304194 -2.91085e-17)
(-0.0314246 -0.0380601 -1.02594e-17)
(-0.0337803 -0.0427628 0)
(-0.0110586 0.00898542 1.58794e-17)
(-0.0189004 -0.00539479 0)
(-0.112501 0.00668979 0)
(-0.121888 0.0481814 -1.5853e-17)
(0.075894 0.00286643 3.18183e-17)
(0.00584442 -0.0372474 0)
(0.060975 0.0458415 0)
(0.0184131 0.032763 2.15115e-18)
(0.115432 -0.0224898 -1.70975e-17)
(0.0128156 -0.0776919 1.82395e-17)
(0.00436068 -0.0159121 -1.86055e-23)
(0.124547 0.103655 -2.0807e-18)
(0.00871793 -0.0170353 6.94501e-18)
(-0.0686584 -0.0261213 -1.78599e-17)
(-0.00159683 0.0108429 0)
(-0.0564966 -0.00687063 1.57578e-17)
(-0.0606673 0.000875226 1.27584e-17)
(-0.0192068 -0.042299 -3.40806e-17)
(0.00705758 -0.0107762 1.80013e-17)
(-0.0232457 -0.0218824 -1.71916e-17)
(-0.0251612 -0.0303149 3.14417e-17)
(-0.0124538 -0.0160359 1.64558e-17)
(-0.00841162 -0.00490747 -8.48162e-18)
(-0.00970425 -0.0126295 -1.96106e-17)
(-0.0106915 -0.000372468 0)
(-0.0513435 0.0275825 0)
(-0.022393 0.0203352 -1.76198e-17)
(-0.0173759 -0.0208622 -1.22454e-17)
(-0.11136 0.0283512 1.06237e-18)
(-0.0105407 0.00465772 0)
(-0.152401 0.0533462 2.16987e-17)
(-0.139968 0.0588507 -7.43485e-18)
(-0.0956634 0.0451822 1.75151e-17)
(-0.0224596 -0.0274596 0)
(0.0794243 -0.0137906 -1.75024e-17)
(-0.00327663 -0.034437 1.89131e-17)
(0.0707811 -0.0826608 -4.39383e-18)
(-0.0393501 -0.0357246 -7.99642e-18)
(0.0143052 -0.0305516 0)
(0.00806581 -0.0380702 -1.05995e-17)
(-0.00503329 -0.056816 2.67216e-17)
(0.0428043 0.148618 0)
(0.0921502 -0.0919447 4.74963e-18)
(0.148845 0.0848519 5.24952e-18)
(0.0526544 0.0852778 0)
(0.0226803 -0.0367974 9.92775e-18)
(0.0508984 0.0955214 -1.72812e-17)
(0.0298263 -0.0485793 0)
(-0.0235833 0.0241536 1.9503e-17)
(0.00180488 -0.0160593 0)
(0.139131 -0.0124874 0)
(0.0263858 -0.0122257 7.21172e-18)
(-0.00653133 0.0348213 -2.52065e-17)
(0.0264009 -0.0427987 0)
(0.00649696 -0.0768608 0)
(0.135597 -0.0397623 8.82877e-18)
(0.133454 0.0775046 0)
(0.0507946 0.0521057 -2.64117e-17)
(0.014499 -0.0355646 0)
(0.0225647 -0.0455047 0)
(-0.0341532 -0.0452369 1.55892e-17)
(-0.0173199 -0.00402294 1.86206e-17)
(0.0167637 0.0246476 -1.55185e-17)
(-0.0974882 0.0465325 -2.04389e-18)
(-0.105536 -0.0202317 6.65833e-21)
(0.0194954 -0.0349237 9.98044e-18)
(0.0405912 0.161072 0)
(0.0245001 -0.0617627 -1.93738e-17)
(0.0356027 -0.000681231 -1.83684e-17)
(0.0225667 -0.0626729 0)
(-0.0291764 -0.00739631 6.3922e-19)
(0.0289352 -0.0650521 0)
(0.0178007 -0.0314786 -1.16562e-17)
(-0.0417432 -0.0438726 0)
(-0.00513135 -0.0682793 -2.28346e-17)
(0.0273832 -0.0665238 2.0096e-22)
(0.0168071 -0.0660605 -1.15391e-17)
(-0.0442485 -0.0461628 0)
(0.0890525 -0.0362904 -9.09232e-18)
(0.037234 0.071182 1.82472e-17)
(0.0510705 0.158476 2.58643e-17)
(0.0321277 -0.068356 8.72538e-18)
(0.0717995 0.133501 3.49405e-17)
(0.0330265 -0.0664744 -8.74454e-18)
(0.0222416 -0.0472177 -1.10793e-17)
(-0.0251395 -0.0164579 -1.67791e-17)
(0.0304788 0.0540545 9.24057e-18)
(0.0115393 -0.0787616 -8.30623e-18)
(0.0285862 0.056772 0)
(0.0204909 -0.0533408 2.96914e-17)
(-0.0429173 0.0710458 -2.14612e-17)
(0.000162876 0.00484443 1.61827e-17)
(0.000843048 -0.00906422 0)
(0.0146855 -0.0785902 8.43221e-18)
(0.0150333 0.0159909 0)
(-0.023739 -0.036176 -1.96047e-17)
(0.0452695 -0.00572448 1.85841e-17)
(-0.0544316 0.0476867 0)
(-0.0978502 -0.0548015 1.83849e-17)
(0.0480097 0.106566 -4.01914e-17)
(-0.00194606 0.00147651 -1.56339e-17)
(-0.00732561 -0.0269171 1.54593e-17)
(0.0347438 0.0732135 -8.96467e-18)
(0.0161322 -0.0755359 3.49937e-22)
(0.00843533 -0.0585646 1.43148e-17)
(0.062075 0.138263 8.50597e-18)
(0.000690157 -0.00784272 0)
(0.0268456 -0.0769498 -8.78474e-23)
(0.0522975 0.162107 -2.12412e-17)
(0.0974231 0.116838 1.78575e-17)
(0.0385635 0.0789327 1.77598e-17)
(0.0351042 0.067013 -3.64495e-22)
(0.0323048 -0.0747386 0)
(0.0250064 -0.0768018 -1.71516e-17)
(0.0359035 -0.0683094 0)
(0.0215355 -0.0770898 0)
(0.00216376 -0.00972015 -1.79087e-17)
(0.0164964 0.0568231 1.77782e-17)
(0.0673938 0.138408 -1.25303e-17)
(0.0371521 -0.0708945 -1.7625e-17)
(0.00271856 -0.00629299 2.62519e-17)
(0.0263508 0.0424216 0)
(-0.0382658 -0.036161 -1.63556e-17)
(0.0530322 0.120076 -3.14403e-17)
(0.0178429 0.0440068 1.72256e-17)
(0.00338975 -0.00635925 -9.4395e-18)
(0.0300743 -0.0762646 -8.86333e-18)
(0.013882 -0.0722602 2.81645e-22)
(0.0929251 0.120622 -1.85268e-17)
(0.0352784 -0.0737763 1.77042e-17)
(0.00548501 0.0252566 -1.70179e-17)
(0.0501206 0.0876509 1.75562e-17)
(0.049096 0.0770235 0)
(0.0232071 -0.0424354 -4.31881e-18)
(0.0392685 -0.0707352 8.73242e-18)
(0.0234733 -0.0537498 -9.86725e-18)
(0.0270331 -0.0574681 -1.746e-17)
(0.00394675 0.0113057 -1.77114e-17)
(0.0399576 -0.0659421 8.78869e-18)
(0.0248106 -0.0768809 -9.52059e-18)
(0.0392592 -0.0700818 -1.76318e-17)
(0.00644864 0.0238241 4.35643e-18)
(0.0690683 0.13922 -4.41379e-18)
(-0.0163915 0.0561404 -1.62428e-17)
(0.0772349 0.134997 0)
(-0.00804937 0.00872403 1.31544e-17)
(0.030197 -0.0601755 1.7348e-17)
(0.0193287 -0.0751544 1.92814e-17)
(0.0375015 -0.0712184 0)
(0.0368676 -0.0654487 0)
(0.103185 0.110692 -8.73133e-18)
(0.0233315 -0.0506094 9.82924e-18)
(0.0302722 -0.0731634 -8.67355e-18)
(0.107552 0.110647 8.58468e-18)
(0.0675145 0.130845 -2.1551e-17)
(0.0333942 -0.0604048 -4.58642e-18)
(0.0383602 -0.0626135 9.12933e-18)
(0.00714718 -0.0494357 0)
(0.0264725 -0.0551323 0)
(0.0418101 -0.0632732 0)
(-0.0276715 -0.0201372 1.66356e-17)
(0.0418696 -0.0667586 8.88809e-18)
(0.0363006 -0.0666498 1.68131e-17)
(0.0586631 0.149661 -1.60835e-17)
(-0.0130712 0.0774218 1.89667e-17)
(0.0620123 0.145002 -8.47684e-18)
(0.0499411 0.105915 1.78504e-17)
(0.0992578 0.106825 -1.77801e-17)
(-0.0135464 -0.014401 0)
(0.0351955 -0.0723479 0)
(0.0653028 0.120997 -8.795e-18)
(0.0139416 -0.0191283 -1.82842e-17)
(0.0291661 -0.0576727 0)
(-0.0259893 -0.0382665 -1.50072e-18)
(0.020209 -0.0275242 1.85598e-17)
(0.0379062 -0.0711503 0)
(0.0711109 0.039227 3.46624e-17)
(0.152777 -0.0130003 -1.71172e-17)
(0.0397947 -0.0589081 2.60896e-17)
(0.0437337 -0.066011 1.73425e-17)
(0.0332444 -0.0564997 4.49299e-18)
(0.0378747 -0.0585196 4.46732e-18)
(0.0659971 0.0399736 -1.75789e-17)
(0.042224 0.0896153 2.05552e-17)
(0.0919257 0.0949993 -7.95889e-18)
(-0.0185516 -0.126665 1.94505e-17)
(0.0320996 -0.0588606 4.93995e-18)
(-0.0108372 -0.0228971 -1.59358e-17)
(0.153722 0.0337885 0)
(0.158282 0.00824022 8.88504e-18)
(0.155599 0.0534795 8.27075e-18)
(0.159323 -0.0315458 0)
(0.132682 -0.0401332 0)
(0.0377135 -0.0570088 -8.926e-18)
(0.167447 0.112332 -3.98391e-18)
(0.143699 0.071054 -2.77398e-17)
(0.104346 -0.0308282 -2.76968e-17)
(0.0417537 -0.0691811 8.70838e-18)
(0.0792003 -0.0405894 -2.77052e-17)
(0.0277978 -0.00545752 0)
(-0.00748432 -0.00411828 -8.05457e-18)
(0.0181295 0.0272036 1.68266e-17)
(-0.000476328 -0.00292184 1.36515e-17)
(0.00957191 0.00436252 2.31284e-22)
(0.0589038 -0.0339277 -2.4038e-18)
(-0.0405567 -0.00856655 -1.67804e-17)
(-0.00992913 -0.159758 4.03499e-21)
(0.0116787 0.0106695 2.70983e-17)
(0.00403299 -0.00833017 -1.84376e-17)
(-0.00838425 0.00960089 -1.59603e-21)
(0.00528521 0.00128228 -4.77279e-18)
(0.0519945 -0.0100628 0)
(-0.0219109 -0.0136725 -4.92801e-18)
(0.0141374 0.016045 0)
(0.000939251 -0.00318374 1.93472e-17)
(-0.040976 -2.52643e-05 -3.44799e-17)
(0.0485716 0.0850558 -2.16996e-17)
(0.109051 0.102707 -1.76713e-17)
(0.0096649 0.00627613 0)
(-0.00545513 -0.13026 -8.94143e-18)
(0.0210295 -0.147894 0)
(0.0170052 -0.0234455 0)
(0.0444943 0.0150021 -3.48369e-17)
(0.0201535 -0.0874137 -1.53156e-17)
(0.0445676 -0.146052 8.68388e-18)
(0.172199 0.112648 -1.56361e-17)
(0.0459719 -0.120427 0)
(0.0559037 0.0154006 1.74262e-17)
(0.123907 0.036486 9.93131e-18)
(-0.0220647 -0.0231943 -5.14327e-19)
(0.00355585 -0.0146157 0)
(-0.045932 -0.00260067 -1.72255e-17)
(0.0603777 -0.0255996 2.5559e-17)
(0.0858285 -0.0195363 -1.7419e-17)
(0.0556614 -0.0809718 -4.53672e-18)
(0.0499817 -0.00628412 -4.35127e-17)
(0.153355 -0.0349275 -1.75832e-17)
(0.0195608 -0.000618624 0)
(0.15569 -0.0529592 1.78715e-17)
(0.0130078 -0.168685 1.72827e-17)
(0.043369 -0.0665719 1.73396e-17)
(0.14924 0.00182696 -8.66083e-18)
(0.0301469 -0.00605725 1.74451e-17)
(0.148247 0.0437791 4.71957e-22)
(0.00193579 -0.152124 -4.40184e-17)
(0.153199 0.0817775 -9.09259e-18)
(-0.0097198 -0.0223751 -1.55726e-17)
(0.0393295 -0.0960045 0)
(0.149955 -0.0434499 1.7592e-17)
(0.0173537 -0.109285 0)
(0.141582 -0.014356 8.64634e-18)
(0.111842 -0.0253519 1.74115e-17)
(0.166439 0.102487 2.20974e-17)
(0.145827 -0.0957665 0)
(0.101094 0.0330489 -2.45561e-18)
(0.0355443 -0.0752907 1.48014e-17)
(0.17516 0.0831733 -1.74958e-17)
(0.0884994 0.0565713 9.19931e-18)
(0.172131 -0.0475748 -8.79723e-18)
(0.00100383 0.000176028 4.02782e-17)
(0.119277 -0.0268481 2.6178e-17)
(0.0645301 -0.0261873 -4.54372e-18)
(0.101271 0.0951981 0)
(0.0311876 -0.0206143 1.72362e-17)
(0.00238815 0.000921885 -8.75528e-18)
(0.0536805 -0.142122 -1.67745e-17)
(0.0931133 -0.00355268 8.7694e-18)
(0.146084 -0.0171664 8.66828e-18)
(0.115267 -0.0146595 8.77058e-18)
(0.154988 -0.045375 1.79294e-17)
(0.0393805 -0.0757576 8.54715e-18)
(0.140632 0.0214731 8.65434e-18)
(-0.00335679 0.000759056 1.96803e-17)
(0.0047516 -0.00816235 0)
(-0.0224538 0.00323622 1.75968e-17)
(-0.0572875 0.00661097 0)
(-0.00675442 -0.00845771 4.3723e-18)
(0.139105 0.0613382 2.73187e-17)
(0.177314 0.100966 3.44219e-17)
(0.143544 0.0499126 2.66999e-18)
(0.159476 -0.0507102 -3.57248e-17)
(0.146281 0.0889192 -3.65107e-17)
(0.00304889 -0.00324996 -8.95429e-18)
(-0.103655 0.0482499 -4.42513e-18)
(0.0573207 -0.116315 0)
(0.0581433 0.0533803 1.79714e-17)
(-0.0565445 0.0151824 4.68558e-18)
(0.0750699 -0.147778 0)
(0.182815 -0.0343012 1.70692e-17)
(-0.00220139 -0.0045316 4.58947e-18)
(-0.0122488 -0.015047 9.03941e-18)
(-0.0960693 0.0354744 -1.13287e-18)
(-0.0847177 0.0382074 -7.82165e-18)
(0.0274385 -0.16823 -2.5698e-17)
(0.0799643 0.0380984 0)
(0.156435 -0.0729445 8.17609e-18)
(0.140639 0.0136682 0)
(0.0919762 0.0258909 0)
(0.0194309 -0.0441568 0)
(0.154068 -0.0302083 0)
(0.0765907 -0.107337 8.63809e-18)
(0.00688322 -0.0133019 2.63809e-17)
(-0.0135365 -0.0173211 -1.88386e-17)
(0.122038 0.0710555 8.68424e-18)
(0.14667 -0.0895231 0)
(0.16101 0.0973449 2.59455e-17)
(0.18185 0.0609247 0)
(0.0391543 -0.0842614 -8.72257e-18)
(0.0256034 -0.10438 8.70805e-18)
(0.0968677 -0.13977 8.59154e-18)
(0.0992705 0.0527502 1.7376e-17)
(0.0697819 -0.152152 8.58532e-18)
(0.119167 -0.118646 1.80378e-17)
(0.136023 -0.0524769 -3.46693e-17)
(0.0765025 -0.126 0)
(0.0340287 -0.14249 -8.56384e-18)
(0.172525 0.0285411 1.73093e-17)
(0.183413 0.0981752 -1.72634e-17)
(0.106616 0.0174858 0)
(0.0770098 -0.00885242 1.8195e-17)
(0.106641 0.0760206 1.74787e-17)
(0.025992 0.0418777 -3.24834e-17)
(0.0465791 0.027702 0)
(0.117411 0.0747659 1.74567e-17)
(0.0678722 0.0596582 0)
(0.117319 0.00205346 0)
(0.0131812 -0.0338207 0)
(0.102065 -0.135663 0)
(0.112466 0.0137701 2.60495e-17)
(0.0578897 -0.155208 0)
(0.1116 -0.0923865 8.694e-18)
(0.0776114 0.0643292 -1.83308e-17)
(0.050379 -0.168918 8.5593e-18)
(0.189778 -0.00723256 -1.58071e-17)
(0.134501 -0.0456985 -1.73907e-17)
(0.069836 0.0485838 0)
(0.0404635 -0.077915 -1.73406e-17)
(0.128718 0.0817775 -2.60288e-17)
(0.145224 0.00410267 0)
(0.141239 0.0201957 0)
(0.124222 -0.10939 0)
(0.014145 -0.146258 1.72318e-17)
(0.149601 -0.0288087 6.15646e-22)
(0.115332 0.0293094 8.35407e-23)
(0.0935733 0.0046008 -1.79763e-17)
(0.0261271 -0.159533 0)
(0.147214 0.00518854 0)
(0.107361 0.0459124 0)
(0.135112 0.0206389 0)
(0.0105484 -0.0105357 0)
(0.0275576 -0.121472 -8.66609e-18)
(0.126093 0.0197083 -1.76814e-17)
(0.111773 0.0488507 2.61095e-17)
(0.121005 -0.0207652 -8.68765e-18)
(-0.0419209 -0.0415017 1.74995e-17)
(0.145872 -0.0137034 -8.63458e-18)
(0.0860284 0.0646327 8.81963e-18)
(0.125826 -0.0108429 -8.68128e-18)
(0.0353262 -0.0965239 0)
(0.098714 0.0597871 -1.74715e-17)
(0.0962696 0.0297442 -3.47175e-17)
(0.125891 0.0806857 0)
(0.101705 -0.00337579 -1.73712e-17)
(0.0862186 -0.0321162 -1.76466e-17)
(0.114924 -0.0323287 0)
(0.178883 0.0800568 0)
(0.11204 0.0693125 7.47121e-22)
(0.0964268 0.0924756 7.89749e-18)
(0.164795 -0.0343534 0)
(0.118657 -0.0365182 -2.60208e-17)
(0.195194 0.0677911 0)
(0.087692 0.0613896 0)
(0.0420736 -0.069041 -1.72605e-17)
(0.108724 0.0745148 -1.73415e-17)
(0.145805 -0.0495599 0)
(0.128222 0.0745765 -1.73044e-17)
(0.180406 0.00188317 -8.64219e-18)
(0.131015 0.0515782 1.73112e-17)
(0.14918 0.0702257 -1.77597e-17)
(0.131379 -0.0477419 1.73783e-17)
(0.169609 -0.0559438 0)
(0.12485 0.0882492 -8.64407e-18)
(0.108277 0.072127 -3.06076e-17)
(0.141155 0.0380851 0)
(0.123769 0.0774216 0)
(0.14357 -0.0411145 2.59169e-17)
(0.0444221 -0.0694958 -1.69642e-17)
(0.109693 0.105543 0)
(0.131577 0.0642987 1.73024e-17)
(0.0962214 0.110715 3.64423e-17)
(0.137493 0.0379401 -1.73052e-17)
(0.0326683 -0.108046 0)
(0.121462 0.0447784 3.68753e-17)
(0.117031 0.0858917 8.63977e-18)
(0.0358517 -0.116309 0)
(0.110514 0.0973196 1.72907e-17)
(0.0717431 -0.0344668 -9.53903e-18)
(0.0986399 0.102053 0)
(0.103726 -0.0443275 0)
(0.034845 -0.0190736 0)
(0.0632053 0.0466023 1.53193e-17)
(0.0226337 -0.00172722 -8.44677e-18)
(0.19324 0.0160759 -2.10567e-17)
(0.115891 0.0913662 0)
(0.109708 0.0985478 8.88583e-18)
(0.102118 0.0817394 -1.73148e-17)
(0.106427 0.0783473 2.92108e-17)
(0.0397333 -0.0831479 0)
(0.10116 0.0882794 -7.51268e-18)
(0.116488 0.100469 0)
(0.061686 -0.019154 0)
(0.0449894 0.0285328 0)
(0.166857 0.0414432 0)
(0.0972538 -0.0401335 8.72285e-18)
(0.0722313 -0.00782258 0)
(0.117117 0.0954489 0)
(0.0525406 0.00504156 -8.81397e-18)
(0.0524433 0.0309925 -8.65517e-18)
(0.133529 0.062452 0)
(0.0993631 0.0947896 0)
(0.133382 0.0484589 0)
(0.0667079 0.0200944 3.47709e-17)
(0.0783775 -0.0366176 2.6386e-17)
(0.122392 0.0673126 0)
(0.188092 0.0390739 1.48956e-17)
(0.0660314 0.111779 -1.75031e-17)
(0.102038 0.0865225 1.73197e-17)
(0.0852747 0.0904402 -1.73625e-17)
(-0.00736498 -0.00727643 -2.95791e-22)
(0.103957 0.0847275 0)
(0.0400325 -0.0665893 0)
(0.0735466 0.131553 1.67803e-17)
(0.0288385 -0.0634861 0)
(0.11686 0.0883398 0)
(0.0638432 0.0447713 -1.54838e-17)
(0.0373308 -0.0539545 -2.20264e-17)
(0.0469899 0.0354146 0)
(0.0285427 0.0365721 -1.74197e-17)
(0.117364 0.093842 0)
(0.0861321 0.0713986 -1.73545e-17)
(0.0483495 0.0480216 -8.71467e-18)
(0.0476393 0.0574946 3.48666e-17)
(0.0866213 0.0774007 0)
(0.109871 0.103201 -1.72771e-17)
(0.0793789 0.113421 8.71454e-18)
(0.0684873 0.0611651 0)
(0.0646902 0.135887 2.18334e-17)
(0.0679215 0.0678888 -8.70521e-18)
(0.0666878 0.0939877 -1.74425e-17)
(0.105391 0.0462675 -1.62386e-17)
(0.0628664 0.14324 -8.78744e-18)
(0.106572 0.0580585 0)
(0.100666 0.117012 -1.74747e-17)
(0.035588 -0.0728595 0)
(0.0264897 -0.0736172 2.58674e-17)
(0.0844101 0.0988872 2.60732e-17)
(0.081094 0.130047 1.7423e-17)
(-0.00221722 0.00184477 3.52552e-17)
(0.0262143 0.016918 -9.31337e-18)
(-0.0290183 -0.0271198 -1.77169e-17)
(0.0860329 0.128949 0)
(0.0113 -0.0578936 0)
(0.0773744 0.121764 -1.74646e-17)
(0.06024 0.138988 3.63482e-17)
(0.0211391 0.013383 0)
(0.0674751 0.0851497 -2.61178e-17)
(0.0252995 -0.0731342 -3.07541e-22)
(0.0559143 0.108317 8.82199e-18)
(0.0903973 0.124557 0)
(0.0899421 0.120495 8.83539e-18)
(0.0794467 0.122863 -2.62201e-17)
(0.0593319 0.103312 0)
(0.0195168 -0.076592 2.00167e-17)
(0.0485822 0.124604 -3.76842e-17)
(0.00161074 -0.0729377 0)
(0.0924631 0.112994 0)
(0.0329674 -0.0725425 -1.74675e-17)
(0.0306446 -0.0739448 0)
(0.0730252 0.122219 1.74596e-17)
(0.0296251 0.0545433 5.0961e-19)
(0.0144489 -0.0657822 -1.91333e-17)
(0.0574036 0.119724 -1.77252e-17)
(-0.0535331 -0.101129 -1.42408e-17)
(0.0278235 -0.0721427 1.75413e-17)
(0.00191371 -0.0794183 0)
(0.00314102 -0.00663034 0)
(-0.00394435 -0.0349295 6.05352e-17)
(0.00140081 -0.0600752 -3.89536e-17)
(0.00358547 -0.056952 -3.83951e-17)
(0.0927574 -0.0180722 0)
(0.0540706 0.168577 1.86668e-17)
(0.019488 -0.0703017 -2.73786e-17)
(0.0222583 -0.0693845 2.75413e-17)
(0.000793755 -0.0406047 0)
(0.0108768 -0.0362411 -1.92618e-17)
(0.047036 0.184325 -5.76743e-17)
(0.00109843 -0.0408298 -1.82509e-17)
(-0.00801683 -0.0189117 -4.61637e-23)
(0.0436484 0.107787 1.62987e-17)
(0.0168315 -0.0654555 -1.87919e-17)
(-0.0269779 -0.0300181 9.06111e-18)
(0.024814 0.0389733 0)
(0.0182813 -0.000723173 -2.08148e-17)
(0.0535972 0.154838 4.22035e-17)
(0.00137315 -0.0214829 -2.04055e-17)
(0.00423974 -0.0528299 9.33521e-22)
(0.107803 -0.019849 2.83928e-17)
(0.00868739 0.0261791 1.02209e-22)
(0.120759 0.106795 3.4067e-17)
(0.00630309 0.00570929 1.25592e-17)
(0.0318791 -0.0687795 0)
(0.0023587 -0.0511434 1.95645e-17)
(0.00347731 -0.0512542 0)
(0.0373839 -0.0195 -1.15382e-17)
(0.050749 0.175298 -6.03867e-19)
(0.00237371 -0.028321 0)
(0.0489047 0.169211 5.5569e-19)
(0.0513739 0.123749 1.95009e-17)
(0.00778108 -0.0170176 -2.27571e-17)
(0.00190937 -0.0303235 -5.5188e-18)
(0.0104274 -0.0536343 4.65783e-18)
(0.021454 0.00756719 2.7086e-17)
(0.0198987 -0.0222505 2.0379e-17)
(0.0841583 0.0374785 -2.15208e-17)
(-0.0555486 0.0546014 1.67901e-17)
(0.0361927 -0.0630476 0)
(0.00924786 0.0299387 1.01709e-17)
(0.0109069 -0.021168 0)
(-0.0203327 -0.0493534 1.62155e-17)
(0.0191257 -0.0556974 0)
(-0.0395849 -0.0428662 -3.85759e-17)
(0.00976572 -0.0234655 -2.09477e-17)
(0.0217929 0.021331 -1.70836e-17)
(0.00440675 -0.0117688 -1.46527e-17)
(0.106478 0.0149556 0)
(0.0830299 0.0327046 9.54997e-19)
(-0.00850977 -0.0126614 0)
(0.161302 -0.0211225 -2.98564e-17)
(0.142154 -0.0176884 -1.42078e-17)
(0.102126 -0.0103172 -5.01432e-18)
(-0.00151651 -0.00142127 3.72604e-17)
(0.0172107 -0.0332666 0)
(0.0165857 -0.0572202 1.60488e-17)
(0.0129812 -0.00578654 0)
(0.146259 -0.0345605 -2.70282e-17)
(0.00212916 -0.0678257 -2.07559e-17)
(0.121375 -0.035258 1.9217e-17)
(0.0262297 -0.0253573 0)
(0.0467469 -0.0317527 -5.03616e-18)
(0.0573343 0.145249 0)
(-0.0375175 -0.0468645 1.91102e-17)
(0.00593192 -0.0676336 6.13629e-19)
(0.00132979 -0.0507406 4.10061e-17)
(0.0352948 -0.068191 0)
(0.00339693 -0.077024 1.78095e-17)
(0.00294152 -0.0674691 1.90267e-17)
(0.00564365 -0.0797313 1.00448e-17)
(0.0176301 -0.0365599 -2.84526e-23)
(0.0808803 0.0706842 -2.64244e-17)
(0.0559316 0.144473 0)
(-0.0433622 -0.135524 0)
(0.0258035 0.103461 -9.65406e-18)
(0.0872215 -0.0328009 1.97688e-17)
(0.0281827 0.0930008 0)
(0.00532085 -0.0163977 9.54343e-18)
(0.0298651 0.0838774 -1.6098e-17)
(0.00575273 -0.0132021 0)
(0.00997576 -0.0766068 0)
(0.0155266 0.0655961 -3.03601e-22)
(0.0186675 0.0517961 1.6732e-17)
(0.00332695 -0.00864424 9.32428e-18)
(0.0089578 -0.0668416 -9.78049e-18)
(0.0865971 0.0241684 0)
(0.0833497 0.11191 1.89561e-17)
(0.0123494 -0.0861328 -9.77423e-18)
(0.0226056 0.021552 -9.55131e-18)
(0.0188033 0.0181505 0)
(0.0189402 0.00917126 0)
(0.00771523 -0.00447704 8.56916e-18)
(0.0313057 0.0472828 -1.83262e-17)
(0.00921388 0.00675545 0)
(0.0184395 0.0144568 1.60238e-17)
(0.0888416 -0.0559413 0)
(0.0249902 0.026015 9.44437e-18)
(0.0117459 -0.0169501 -1.82963e-17)
(0.0147949 0.00741341 2.4449e-18)
(0.0126286 0.0017163 1.46953e-17)
(0.0285373 0.0382739 -1.94065e-17)
(0.0258817 0.0313694 -1.96144e-17)
(0.00923386 -0.0131571 0)
(0.0207419 0.0140507 1.79147e-17)
(0.00896324 0.00761119 0)
(0.00854692 0.00277878 -2.30824e-18)
(0.00153709 -0.000226961 0)
(0.0158105 0.0204005 0)
(0.0122667 0.0126665 -9.48698e-18)
(0.0468866 -0.0384199 1.57561e-22)
(0.00278186 -0.00632875 0)
(0.00973919 0.00576074 -1.51047e-17)
(0.149112 0.107837 -1.01381e-17)
(0.0901194 0.0724588 -1.86593e-17)
(0.0120454 -0.0111024 0)
(0.000640381 -0.0601117 -1.73535e-22)
(0.0846095 0.100079 -3.03993e-17)
(-0.0323208 -0.0431594 -2.21689e-17)
(0.00513048 -0.0522293 0)
(0.0469931 -0.0476951 -3.70951e-17)
(0.076985 0.111435 -9.25746e-18)
(0.0571621 0.15245 0)
(0.0913525 0.0601422 1.88697e-17)
(0.0157654 -0.078372 -1.06468e-17)
(0.0612579 0.0926746 2.1113e-17)
(0.0306627 -0.0301292 1.87937e-17)
(0.0112084 -5.18568e-05 1.02034e-17)
(0.0417289 0.0208151 2.96803e-17)
(-0.0307278 -0.0280411 1.05987e-17)
(0.0914722 -0.114329 0)
(0.0951351 -0.0412239 -3.68867e-17)
(0.084846 -0.0211326 -4.5139e-18)
(0.0254984 -0.0364829 2.83993e-17)
(0.00152142 -0.0729599 -1.97801e-17)
(0.142189 0.103348 -3.17795e-17)
(-0.0306064 -0.0264642 1.58165e-17)
(0.0384188 0.0742116 -2.59433e-17)
(0.00811704 -0.072208 5.02515e-18)
(0.144893 -0.0422848 1.91611e-17)
(0.125748 -0.0461953 -2.88321e-17)
(0.0934997 0.0260764 4.02353e-17)
(-0.0626351 -0.0372404 0)
(0.0217019 -0.0769933 -2.07044e-17)
(0.032165 0.0654584 3.23345e-17)
(0.0270237 -0.0376114 -1.88844e-17)
(0.0168707 -0.0789451 1.12105e-17)
(-0.0231676 -0.0335516 -5.01888e-18)
(0.0131789 0.0765634 0)
(0.0536139 -0.0332238 -9.74368e-18)
(0.0320352 -0.0624944 -2.06618e-17)
(0.0301926 -0.0467995 1.91622e-17)
(0.0195058 -0.0742886 1.24456e-17)
(0.0191082 0.039293 -2.08875e-17)
(0.018383 -0.0484601 1.11043e-17)
(0.141675 0.0337762 -1.55086e-17)
(0.0105843 -0.0507978 0)
(0.05951 0.0584838 3.57157e-17)
(0.0335216 0.0390023 -1.96797e-17)
(0.0212819 0.0466927 2.49856e-17)
(0.0596456 -0.023709 2.3558e-17)
(0.166077 0.106901 4.91364e-18)
(0.159465 0.0775617 -1.05985e-17)
(-0.0261126 0.0188917 -2.20234e-17)
(-0.0519656 0.00936123 2.09096e-17)
(0.0173656 -0.00425699 0)
(0.0205226 0.0172462 0)
(0.00247071 -0.076569 -2.17772e-17)
(0.000919523 -0.00677524 -1.06352e-17)
(0.0037835 -0.000696811 -2.12756e-17)
(0.00312648 -0.0799636 1.116e-22)
(0.0208561 -0.0314739 9.71891e-18)
(0.0668301 -0.057142 -1.9513e-17)
(0.000666126 -0.0158594 0)
(0.00273775 -0.0117357 0)
(-0.0517506 -0.0760336 3.54863e-17)
(0.00446994 0.0888084 -3.51114e-17)
(0.00857056 -0.0146717 -9.9265e-18)
(0.0571514 0.0609567 1.15015e-17)
(0.000474471 -0.00861429 2.00825e-17)
(0.0367756 0.131781 2.28802e-17)
(0.0518365 0.00837977 0)
(0.0914708 0.0679695 0)
(0.0386353 0.00944272 -1.02837e-17)
(0.0214692 0.147055 1.19692e-17)
(0.0850534 0.0793787 -9.32667e-18)
(0.00588584 -0.0090534 -1.53829e-17)
(0.0117471 -0.0370038 1.025e-17)
(-0.0355655 -0.011498 -2.54204e-18)
(-0.0294998 -0.0169832 -3.50735e-17)
(0.0549535 0.157174 -2.45354e-17)
(0.0382951 -0.0705918 5.93237e-18)
(0.0759958 0.0850663 2.5205e-17)
(0.0216868 -0.000325115 1.8639e-22)
(-0.0270186 -0.149302 1.76105e-17)
(0.0351728 -0.00804279 2.07022e-17)
(0.0590965 0.034162 -9.95159e-18)
(0.0446305 0.137702 -3.33622e-17)
(0.00215501 -0.0356928 2.17244e-17)
(0.0428865 -0.00935631 -1.02052e-17)
(0.0568223 -0.0138811 -2.03572e-17)
(0.0295684 -0.0582 1.77068e-17)
(0.0518711 0.0736788 -2.41921e-18)
(0.00508827 -0.00932665 5.00371e-18)
(0.030841 0.0735422 4.45706e-18)
(-0.0483067 -0.00862911 0)
(-0.042056 -0.0124976 6.80554e-18)
(0.0548186 0.145953 1.09344e-17)
(-0.0696146 -0.0716119 2.39794e-17)
(0.00632929 -0.0165625 0)
(0.0489517 0.00911064 -4.24526e-18)
(0.0571968 -0.0175474 2.42878e-17)
(0.0579841 0.0766497 1.34644e-17)
(-0.0052092 -0.0564363 0)
(0.000617935 -0.00778744 -2.10453e-17)
(-0.0151331 -0.102531 1.10324e-17)
(-0.0273633 0.00550546 -2.81436e-18)
(0.0150763 0.010115 -1.47007e-18)
(-0.0164412 -0.0284206 5.36948e-18)
(-4.52688e-05 -0.00668192 2.30794e-17)
(-0.000846017 -0.0560804 0)
(0.00675445 0.00263131 0)
(-0.0541565 -0.116027 0)
(-0.0219113 -0.035095 -1.18895e-17)
(0.0872298 0.0756409 0)
(-0.0205211 -0.0293757 1.96592e-17)
(0.0110962 -0.0721938 -1.14801e-17)
(0.000122418 -0.0153649 -1.17815e-17)
(0.000996485 -0.0587934 0)
(0.0857689 0.0690756 -5.95401e-18)
(0.0429629 0.0331727 0)
(-0.0300066 -0.0305175 6.70923e-19)
(0.00562832 -0.000250833 1.13451e-17)
(0.000993764 -0.0164957 1.6622e-17)
(0.0267602 -0.0490711 0)
(0.0133722 -0.0258815 2.14864e-17)
(-0.000917707 -0.0438799 0)
(0.00344206 -0.0573874 0)
(0.0100946 -0.0618586 1.4365e-18)
(0.0723496 0.0936737 -2.08784e-17)
(0.00451501 -0.00768897 -1.22728e-18)
(0.100071 -0.0785927 0)
(-0.0142811 -0.0194585 4.13291e-17)
(-0.0104823 -0.0525591 1.16942e-18)
(0.0240956 0.116933 -1.03745e-17)
(0.0301045 -0.0368155 0)
(0.0915493 0.0525856 -9.17249e-18)
(0.0271719 -0.0415499 -2.50343e-17)
(0.121575 -0.0759335 2.2815e-17)
(0.0784923 0.0819891 1.09541e-17)
(0.0301493 -0.0418389 1.01341e-17)
(0.0465325 0.026839 -1.09721e-17)
(0.00276692 -0.0171911 -2.21259e-17)
(0.115362 -0.10631 -2.07654e-17)
(0.0408208 0.0253499 0)
(0.164227 -0.0317722 1.4604e-17)
(0.0299888 -0.0570247 5.08192e-18)
(0.124945 0.084967 1.95778e-17)
(0.0533845 0.151559 5.29283e-18)
(0.056149 0.153313 0)
(-0.0308832 -0.0550744 1.94277e-17)
(-0.0030606 -0.0549111 3.13685e-17)
(0.131364 0.0580682 0)
(0.034677 -0.0506832 3.23376e-18)
(0.00126107 -0.0031801 -1.45005e-17)
(0.103625 0.0846451 0)
(0.00693908 -0.0603266 -1.36979e-18)
(0.054592 -0.0310072 -1.9735e-17)
(0.0831483 0.0115855 -1.02894e-22)
(0.151877 -0.0488575 -1.13562e-21)
(0.0330594 -0.056998 -5.2359e-18)
(0.0279622 -0.0471586 -2.35777e-17)
(-0.0122137 -0.0203929 2.61726e-17)
(0.0143726 -0.00928307 4.68013e-17)
(0.0817731 0.0273283 -2.39249e-17)
(0.022729 -0.00613729 3.46987e-17)
(0.0955777 0.0497266 4.93869e-18)
(0.00729918 -0.0291016 1.16045e-17)
(0.0273285 0.0466753 2.31449e-17)
(0.031268 -0.0465577 0)
(0.12773 -0.0898213 -3.20763e-17)
(0.0231068 -0.0330249 -2.02521e-17)
(0.0443356 0.0401014 5.60827e-18)
(-0.0733576 -0.106577 0)
(0.0224951 0.027487 -2.48346e-17)
(0.0298951 -0.0430705 -2.37389e-17)
(0.038011 -0.0190074 0)
(0.0116908 -0.0243969 1.29317e-17)
(0.0135664 -0.0744337 1.45335e-17)
(0.0380726 -0.0580307 -1.19629e-17)
(0.0326904 -0.0483166 1.44886e-18)
(0.0139378 -0.0498593 0)
(0.000955883 -0.0793685 2.19379e-22)
(0.0780998 0.099266 0)
(0.0148306 -0.0185082 2.08269e-17)
(0.0279632 -0.045115 -2.9558e-18)
(-0.0338905 -0.0397108 1.20867e-17)
(0.00169012 -0.0324169 0)
(0.00734823 -0.0267059 2.57423e-17)
(0.0210704 0.0741949 2.38188e-17)
(0.0374638 -0.0768972 -5.96659e-18)
(-0.0847286 -0.0727525 -1.94122e-17)
(0.0227896 -0.0308208 -4.0801e-17)
(0.0339976 0.0626239 0)
(0.0422037 0.0509054 0)
(0.0570066 0.0676302 -2.49178e-17)
(0.0494035 0.0619007 3.23087e-17)
(0.0656039 0.0377571 1.02714e-17)
(0.161886 0.0887188 1.16371e-17)
(0.0289633 -0.0480078 8.46657e-18)
(0.000843411 -0.0316203 -1.28291e-17)
(0.0529166 0.165245 0)
(0.0604338 0.0802172 0)
(-0.0239829 -0.0924617 0)