/*--------------------------------*- C++ -*----------------------------------*\
  =========                 |
  \\      /  F ield         | OpenFOAM: The Open Source CFD Toolbox
   \\    /   O peration     | Website:  https://openfoam.org
    \\  /    A nd           | Version:  9
     \\/     M anipulation  |
\*---------------------------------------------------------------------------*/
FoamFile
{
    format      ascii;
    class       volScalarField;
    location    "0.83";
    object      p;
}
// * * * * * * * * * * * * * * * * * * * * * * * * * * * * * * * * * * * * * //

dimensions      [0 2 -2 0 0 0 0];

internalField   nonuniform List<scalar> 
90
(
9.39043e-23
-1.50547e-23
-7.28003e-22
-1.96263e-21
-1.05618e-21
1.22896e-21
-1.22121e-24
2.22135e-22
1.43354e-22
2.39384e-22
-1.50665e-22
4.27647e-22
1.49191e-22
-4.60478e-22
4.42586e-22
3.0024e-21
-4.23101e-21
5.56292e-22
6.2125e-22
1.12168e-22
-5.33118e-23
1.16851e-22
-8.30897e-23
-2.10137e-22
-3.17458e-24
-4.69518e-22
3.0445e-22
-1.26397e-22
-1.00476e-21
2.28901e-22
1.39348e-22
-8.01622e-22
-5.82583e-22
-3.43187e-22
-5.12891e-22
3.37082e-21
2.28109e-22
-6.60629e-21
-6.51085e-22
2.84871e-22
4.18414e-22
5.33989e-22
-6.5365e-22
8.26327e-23
2.87596e-23
-8.42281e-22
1.67683e-22
1.64029e-21
7.90353e-22
-8.57966e-22
1.35405e-22
2.25574e-22
4.11812e-22
-6.49293e-22
3.18109e-22
1.07397e-21
1.30504e-23
-1.52006e-22
9.9104e-23
-9.40166e-22
3.21498e-22
-7.73907e-22
-1.31566e-21
2.55326e-22
6.71043e-22
2.45145e-22
-7.7939e-22
-9.8157e-22
-5.48995e-21
-5.66526e-22
2.05916e-21
2.16947e-22
-2.52357e-22
1.65164e-21
2.87382e-21
2.35141e-22
2.01466e-22
-4.59618e-22
-1.50504e-22
4.55071e-24
-6.12686e-21
6.9332e-23
-1.64153e-22
3.26331e-21
-7.76906e-23
-1.26583e-21
1.69927e-22
2.00668e-22
2.31744e-21
3.22136e-22
)
;

boundaryField
{
    back
    {
        type            empty;
    }
    front
    {
        type            empty;
    }
    bottom
    {
        type            zeroGradient;
    }
    outer_arc
    {
        type            zeroGradient;
    }
    right
    {
        type            uniformFixedValue;
        uniformValue    
        {
            type            scale;
            scale           
            {
                type            squarePulse;
                start           0.3;
                duration        0.3;
            }
            xScale          
            {
                type            constant;
                value           1;
            }
            value           
            {
                type            constant;
                value           15.1;
            }
        }
        value           uniform 0;
    }
    inner_arc
    {
        type            zeroGradient;
    }
}


// ************************************************************************* //
