/*--------------------------------*- C++ -*----------------------------------*\
  =========                 |
  \\      /  F ield         | OpenFOAM: The Open Source CFD Toolbox
   \\    /   O peration     | Website:  https://openfoam.org
    \\  /    A nd           | Version:  9
     \\/     M anipulation  |
\*---------------------------------------------------------------------------*/
FoamFile
{
    format      ascii;
    class       surfaceScalarField;
    location    "0.83";
    object      phi;
}
// * * * * * * * * * * * * * * * * * * * * * * * * * * * * * * * * * * * * * //

dimensions      [0 3 -1 0 0 0 0];

internalField   nonuniform List<scalar> 
122
(
1.55499e-29
4.04056e-30
-8.24285e-31
-2.04779e-28
2.4797e-29
1.31083e-28
2.04177e-28
-2.26483e-28
-1.75097e-28
2.64095e-28
-2.59214e-28
-5.88925e-28
5.89123e-28
-3.12333e-30
2.96167e-29
1.43337e-29
-1.48527e-29
-9.49064e-29
6.29613e-29
5.72717e-30
8.5925e-30
-4.10259e-29
-4.69747e-29
9.53471e-29
1.19818e-28
-2.05033e-28
9.58738e-29
-1.93756e-28
7.86747e-29
-9.2514e-29
3.49064e-28
1.87184e-28
-1.1119e-28
1.47807e-29
6.02337e-29
-1.40406e-29
-1.57296e-29
-5.6891e-29
6.12654e-29
4.35013e-29
-2.84957e-29
5.9611e-29
-2.90822e-29
1.29784e-29
7.14569e-29
-1.97324e-29
-1.57216e-29
3.11043e-29
5.66687e-29
-3.59068e-29
-8.41977e-30
7.65201e-29
-6.18189e-29
5.03194e-28
-2.62639e-28
1.41136e-29
-2.67428e-30
2.465e-29
7.97553e-31
1.15078e-29
1.88619e-29
-2.26929e-29
6.42456e-30
8.33253e-29
-1.42751e-28
-1.78004e-28
-1.1853e-29
-1.64065e-29
1.83267e-29
-1.35838e-29
-5.01893e-29
2.61999e-29
-6.59178e-29
-2.95985e-29
8.58887e-30
-1.24099e-29
-9.50532e-30
-8.17509e-30
-6.34524e-29
4.69943e-29
-1.33135e-29
5.16775e-29
1.46603e-28
-4.51827e-29
1.63712e-29
5.77327e-29
-1.06968e-30
-8.53348e-30
-7.227e-29
7.77762e-29
6.26654e-29
-7.04376e-30
1.42479e-29
1.19695e-28
-8.39993e-29
-3.95305e-30
-8.95585e-30
-1.67292e-29
1.19864e-29
3.12916e-29
5.88776e-29
-6.18097e-29
-3.92089e-29
6.20301e-29
3.58773e-29
-1.32079e-28
4.1062e-29
-5.73822e-29
3.36729e-29
5.27607e-29
-3.36436e-28
3.55368e-28
1.95825e-28
-1.37423e-28
-9.60584e-30
-9.09453e-29
-9.9057e-29
1.67785e-29
-7.36984e-30
-1.09906e-29
8.95254e-29
-1.56503e-30
)
;

boundaryField
{
    back
    {
        type            empty;
        value           nonuniform List<scalar> 0();
    }
    front
    {
        type            empty;
        value           nonuniform List<scalar> 0();
    }
    bottom
    {
        type            calculated;
        value           uniform 0;
    }
    outer_arc
    {
        type            calculated;
        value           uniform 0;
    }
    right
    {
        type            calculated;
        value           nonuniform List<scalar> 4(1.87619e-30 1.14864e-29 5.80467e-30 1.12595e-29);
    }
    inner_arc
    {
        type            calculated;
        value           uniform 0;
    }
}


// ************************************************************************* //
