/*--------------------------------*- C++ -*----------------------------------*\
  =========                 |
  \\      /  F ield         | OpenFOAM: The Open Source CFD Toolbox
   \\    /   O peration     | Website:  https://openfoam.org
    \\  /    A nd           | Version:  9
     \\/     M anipulation  |
\*---------------------------------------------------------------------------*/
FoamFile
{
    format      ascii;
    class       volVectorField;
    location    "0.83";
    object      U;
}
// * * * * * * * * * * * * * * * * * * * * * * * * * * * * * * * * * * * * * //

dimensions      [0 1 -1 0 0 0 0];

internalField   nonuniform List<vector> 
90
(
(2.20352e-22 9.1548e-23 -4.01187e-39)
(3.51435e-21 2.90701e-21 6.49864e-38)
(-6.5307e-21 -1.1859e-21 -6.98766e-38)
(-5.949e-21 6.12174e-21 6.92031e-38)
(7.72631e-21 1.18047e-20 1.79542e-37)
(2.02473e-21 1.67571e-21 -5.163e-38)
(1.50546e-22 1.65495e-22 4.54443e-39)
(-4.86037e-22 -2.14847e-22 1.12615e-38)
(1.08753e-22 -2.18577e-21 0)
(1.70694e-22 2.94845e-23 0)
(-2.09927e-21 4.79821e-22 -1.31359e-38)
(1.09691e-21 -6.52525e-21 -3.45776e-39)
(-5.79495e-22 -2.00334e-22 1.86366e-39)
(-4.07139e-22 -1.45043e-21 6.47803e-39)
(2.36086e-21 -3.95792e-21 0)
(6.90619e-21 4.87262e-21 0)
(2.80903e-21 1.22703e-20 -2.50454e-37)
(-6.72878e-21 -2.03283e-21 -3.28657e-38)
(-1.22095e-21 2.92685e-21 0)
(-9.18446e-22 -7.16316e-22 -2.05055e-39)
(-1.27418e-21 -6.70253e-22 2.41427e-39)
(7.46503e-22 7.72511e-22 1.27945e-38)
(-8.54538e-22 5.3592e-22 -1.68456e-38)
(-1.73899e-21 -4.96826e-23 3.87485e-39)
(-1.1143e-21 -1.57448e-22 -5.26709e-39)
(-4.02738e-22 1.93504e-21 1.41884e-38)
(-8.72023e-22 -2.97614e-22 -7.45513e-39)
(1.92213e-21 1.05639e-21 8.863e-39)
(-1.38024e-20 -1.96114e-21 0)
(-6.4865e-22 5.09214e-22 -1.08947e-38)
(-8.24081e-22 4.06398e-23 5.89719e-39)
(-1.65376e-21 2.42316e-22 -4.82176e-38)
(-1.18509e-21 -4.44022e-22 -1.37193e-38)
(-4.52711e-22 -6.03013e-22 2.68557e-38)
(-7.64311e-22 -4.02643e-22 -8.95018e-39)
(1.95214e-21 -3.00371e-21 -7.99469e-38)
(1.79136e-21 2.51479e-21 0)
(-2.33763e-21 3.78123e-21 0)
(-1.15591e-22 1.51554e-24 1.45176e-38)
(-8.99192e-23 -3.28063e-22 4.16182e-39)
(6.09183e-22 -2.29445e-22 -8.64282e-39)
(-1.50863e-22 -8.96967e-22 -3.88612e-38)
(1.10148e-21 -2.79413e-22 -4.17123e-39)
(3.16248e-22 5.90242e-23 -4.2304e-39)
(3.6467e-22 1.07912e-23 -2.24473e-39)
(1.58739e-21 2.18045e-21 3.13073e-38)
(-7.3472e-22 6.04931e-22 -1.4574e-39)
(1.49329e-21 -3.27459e-21 3.85883e-38)
(-1.99259e-21 -1.05631e-22 -4.25859e-38)
(1.43637e-21 -4.4561e-21 2.53713e-39)
(-4.16967e-22 -3.04914e-22 0)
(4.32848e-23 1.80526e-22 -9.94983e-39)
(2.60261e-21 -1.92793e-21 -1.14463e-40)
(1.20457e-21 8.21961e-22 0)
(-1.59707e-23 2.49309e-22 1.9147e-38)
(3.21179e-21 1.40123e-21 -4.03775e-40)
(2.55163e-22 -5.43588e-25 2.03782e-39)
(-4.80198e-22 1.11613e-21 0)
(5.46648e-22 5.92979e-23 0)
(-1.06874e-21 1.04307e-21 5.39131e-38)
(7.90605e-23 -5.48608e-22 2.49895e-38)
(1.7805e-21 2.77986e-21 0)
(-1.45587e-23 9.20537e-22 6.14845e-38)
(3.35056e-21 -8.76612e-22 -7.64806e-39)
(1.90741e-21 5.32779e-22 4.47301e-38)
(-4.19694e-21 -1.26122e-22 8.68254e-39)
(-1.76067e-21 -1.04224e-21 0)
(-1.43226e-21 8.14658e-22 0)
(-1.18654e-20 9.15575e-22 2.29711e-38)
(-1.39669e-20 1.80986e-21 3.80821e-38)
(5.30722e-21 -3.07277e-21 0)
(4.7348e-22 1.40529e-22 8.85564e-39)
(4.29164e-21 -2.22917e-21 0)
(-1.48408e-21 3.68313e-21 1.25633e-37)
(-1.07249e-20 -7.21945e-23 -3.84493e-38)
(-6.6727e-22 7.70361e-22 -9.12844e-39)
(3.29249e-22 9.82114e-23 -2.1744e-39)
(1.71783e-21 6.20399e-22 0)
(6.66507e-22 -8.452e-22 -1.61011e-38)
(6.30231e-22 1.5003e-22 5.09447e-39)
(-7.48355e-21 2.21992e-22 2.55004e-37)
(3.20514e-22 1.42716e-23 2.47317e-40)
(-1.24777e-21 1.78338e-21 2.24614e-39)
(1.6523e-21 -3.19629e-22 8.77453e-38)
(1.30428e-21 3.51079e-21 4.36726e-39)
(-2.58439e-23 2.62666e-22 -3.66738e-38)
(3.71939e-22 7.17594e-23 6.05202e-39)
(2.78257e-22 1.79694e-22 -1.22282e-39)
(1.81849e-21 3.31507e-21 -2.16797e-37)
(1.69788e-22 3.24989e-23 -8.57605e-39)
)
;

boundaryField
{
    back
    {
        type            empty;
    }
    front
    {
        type            empty;
    }
    bottom
    {
        type            uniformFixedValue;
        uniformValue    
        {
            type            scale;
            scale           
            {
                type            squarePulse;
                start           0.3;
                duration        0.3;
            }
            xScale          
            {
                type            constant;
                value           1;
            }
            value           
            {
                type            constant;
                value           (0 0.7 0);
            }
        }
        value           uniform (0 0 0);
    }
    outer_arc
    {
        type            noSlip;
    }
    right
    {
        type            zeroGradient;
    }
    inner_arc
    {
        type            noSlip;
    }
}


// ************************************************************************* //
