/*--------------------------------*- C++ -*----------------------------------*\
  =========                 |
  \\      /  F ield         | OpenFOAM: The Open Source CFD Toolbox
   \\    /   O peration     | Website:  https://openfoam.org
    \\  /    A nd           | Version:  9
     \\/     M anipulation  |
\*---------------------------------------------------------------------------*/
FoamFile
{
    format      ascii;
    class       volVectorField;
    location    "0.91";
    object      U;
}
// * * * * * * * * * * * * * * * * * * * * * * * * * * * * * * * * * * * * * //

dimensions      [0 1 -1 0 0 0 0];

internalField   nonuniform List<vector> 
1655
(
(-0.00707198 -0.0225353 -3.64845e-18)
(-0.0020507 0.00690789 2.40551e-17)
(-0.0461498 0.130731 1.94292e-17)
(0.108491 -0.0313146 -1.15532e-17)
(0.0443078 0.0564871 0)
(0.0056053 -0.0101624 7.34106e-18)
(-0.0813564 0.105589 0)
(0.0289569 0.0993615 -1.30096e-17)
(0.0643011 0.14947 0)
(0.0456215 0.0526901 -6.35226e-18)
(0.0636426 -0.0649537 2.90359e-17)
(0.0551876 -0.0680462 -2.86066e-17)
(0.0187539 0.05738 -4.30637e-22)
(0.00338323 -0.0272411 -1.51277e-17)
(-0.00416088 0.0783165 1.49398e-17)
(0.00599571 -0.00665418 0)
(-0.0495937 -0.00567159 2.61219e-17)
(0.00593359 -0.0546873 7.81468e-18)
(-0.0365383 -0.015762 -2.91988e-17)
(0.00154903 -0.0215487 -8.40156e-18)
(0.0030491 -0.033724 3.41937e-18)
(0.0618754 0.166683 0)
(0.0390454 0.0711281 -1.57006e-17)
(0.0328044 0.0634938 7.29022e-18)
(0.00785746 -0.0497667 -4.58595e-18)
(-0.0315777 -0.00667663 -3.10443e-17)
(0.000608287 -0.00264089 -1.35515e-17)
(0.0491468 0.155623 -1.56471e-17)
(0.0409486 0.150269 2.11327e-17)
(0.0021749 -0.0282215 -1.51192e-17)
(-0.153327 0.0555415 3.75416e-17)
(0.00407256 0.183021 -3.99088e-18)
(0.0079147 -0.0717428 -5.55435e-18)
(0.0661517 0.0934545 0)
(0.00174104 -0.0481396 0)
(0.0864471 0.0753031 0)
(0.0203515 -0.00838478 -1.97534e-17)
(-0.00441271 0.0129905 0)
(0.00601653 -0.069658 -7.601e-18)
(-0.00949726 0.014429 -2.59679e-17)
(-0.00109537 -0.0195463 1.46714e-17)
(0.0387038 0.0663083 1.26791e-17)
(0.00578912 -0.0628298 -7.947e-18)
(-0.0372571 -0.00240506 2.31237e-17)
(-0.00863372 0.00668015 0)
(0.149758 -0.0456428 0)
(0.164317 -0.0320562 3.59224e-17)
(-0.0100625 0.010059 0)
(0.0468475 0.0247715 1.41517e-17)
(0.00600342 -0.0596475 1.9351e-18)
(0.0122353 -0.0129395 2.17965e-17)
(-0.0343653 0.153383 -1.44486e-17)
(0.0136668 0.101887 -1.59795e-17)
(0.0631504 0.147239 1.40002e-17)
(0.03482 0.0259786 -1.82184e-17)
(-0.0123594 -0.00652357 0)
(-0.00530246 0.00421594 -7.10684e-18)
(0.0581825 -0.0534975 0)
(0.136797 -0.0716946 0)
(-0.00183154 0.00511522 1.54311e-17)
(-0.150584 0.0558514 -3.75483e-17)
(-0.0252954 -0.0229325 0)
(-0.00774512 -0.0353033 0)
(0.0390235 0.112164 -3.59887e-18)
(-0.0112894 0.0295113 0)
(-0.122347 0.0783723 0)
(0.0907528 0.0226431 3.36147e-17)
(0.0861222 -0.0643492 -1.66314e-17)
(-0.000937142 -0.0394968 0)
(0.034316 0.0592106 -1.45065e-17)
(0.0723601 -0.0522976 1.85061e-17)
(-0.0960399 0.0946914 -8.80974e-19)
(0.00580599 -0.0434514 -9.40381e-19)
(-0.0156202 0.0635451 1.37037e-17)
(-0.0276681 0.0478152 -1.74883e-17)
(0.00788436 0.00775914 8.24728e-18)
(0.0359433 0.135384 -4.79463e-18)
(-0.00153806 -0.0236712 0)
(-0.000826949 -0.00863061 0)
(0.00215161 -0.0294478 0)
(-0.0041879 0.0357303 1.86342e-17)
(0.000391423 0.0126682 -8.38789e-18)
(0.0326876 0.0198775 1.86081e-17)
(-0.0309755 0.00416743 9.32645e-18)
(0.00556608 -0.0462846 0)
(-0.0427082 0.0146023 0)
(-0.0284768 0.0640757 -1.05808e-17)
(0.00369386 -0.0377672 0)
(-0.0146441 0.0390388 -7.28801e-18)
(-0.0209112 -0.00492994 0)
(-0.0257063 -0.000532614 0)
(-0.0309466 0.133102 9.16259e-18)
(-0.0310925 -0.0107818 1.78726e-17)
(0.0308933 0.0139893 0)
(0.00442077 -0.00829407 0)
(-0.0297197 -0.013977 2.97477e-17)
(0.076514 0.0139824 -2.85637e-17)
(0.122328 -0.0624141 0)
(0.017039 0.176869 -8.55584e-18)
(0.00992494 -0.0793107 1.8343e-17)
(-0.0324638 0.108895 -5.75434e-17)
(0.0343839 0.0278913 -1.88703e-17)
(0.0424051 0.028609 -1.84718e-17)
(0.0193099 0.0386545 1.97901e-17)
(0.0181791 -0.0298868 0)
(-0.01428 -0.0212946 -1.14327e-18)
(0.0595987 0.117914 -1.59056e-17)
(0.000733766 -0.0207581 0)
(0.00689341 -0.07892 0)
(-0.013138 -0.0127169 -1.63128e-17)
(0.00384239 -0.0794542 1.27874e-17)
(0.0327135 -0.0456594 1.48085e-17)
(-0.0053793 -0.0178229 9.87118e-18)
(0.00733688 -0.053856 1.68362e-17)
(0.0594911 0.107088 1.51078e-17)
(-0.0421897 0.00820687 -9.55309e-18)
(0.0578808 0.112063 -1.61686e-17)
(0.148988 -0.0611972 0)
(-0.0171375 0.0385593 1.44312e-17)
(0.0172582 -0.0259177 -3.23672e-17)
(-0.00406324 -0.013916 -2.78466e-17)
(0.00737169 0.0292957 2.84504e-17)
(-0.0898675 0.0567271 -2.23874e-17)
(0.182918 0.100119 2.07073e-17)
(0.0588423 0.028257 7.3298e-18)
(0.0399914 0.0890044 0)
(0.00439575 -0.0519459 -1.82822e-17)
(0.00890845 -0.0133877 1.64824e-17)
(0.00682845 -2.62069e-05 -2.28973e-18)
(0.00446428 -0.0630514 -2.19055e-18)
(0.0525724 0.00558481 4.1839e-18)
(0.00378293 -0.0803643 2.25663e-17)
(0.0452019 0.112172 1.39534e-17)
(0.0388871 0.0829159 1.46748e-17)
(-0.000665842 -0.00728653 0)
(-0.0022665 0.026709 0)
(0.0436673 0.0619574 -8.55206e-18)
(0.00920688 0.0601455 1.44987e-17)
(-0.00233386 0.00186415 7.7675e-18)
(0.112908 0.0247929 -7.61924e-18)
(-0.0012242 0.0150147 1.00666e-17)
(-0.00408811 0.00601138 1.39044e-17)
(-0.00169889 0.00365239 0)
(-0.000734236 0.0139219 0)
(-0.11696 0.0138473 -8.58589e-18)
(-0.0187355 0.016328 0)
(0.0153973 0.015931 -2.99747e-17)
(0.00772506 -0.00448622 2.40486e-17)
(0.0200848 0.00822149 1.55311e-17)
(-0.220003 0.0364521 0)
(-0.198034 0.0321601 1.4618e-17)
(-0.192807 0.0305945 -7.87961e-18)
(-0.0652196 0.0234857 1.54073e-17)
(-0.13474 0.0283163 1.33767e-17)
(-0.0551447 0.0234847 0)
(0.00303514 -0.0492413 2.94931e-17)
(-0.0239861 0.0159903 1.88404e-18)
(0.0323605 0.018205 7.9435e-18)
(0.0617302 0.111186 0)
(-0.0017505 0.0296889 -2.01089e-17)
(0.0150144 0.0148988 2.27018e-17)
(0.0384746 -0.0350447 0)
(0.0666061 0.132425 -5.35899e-22)
(0.0454729 0.0280808 0)
(-0.000658544 0.0185735 0)
(0.110229 -0.069853 -7.68688e-18)
(0.0569387 0.149642 0)
(0.0538085 0.100835 -3.04551e-17)
(0.0439279 0.0229612 4.65137e-18)
(-0.00127051 0.00259204 0)
(-0.0889604 -0.0306708 0)
(0.0522319 0.0564674 0)
(0.00981419 -0.00299779 9.34351e-18)
(0.0656453 0.122157 1.60763e-17)
(0.00410286 -0.0399803 9.82918e-19)
(0.0642385 0.118043 1.60157e-17)
(0.0523649 0.0139865 4.19918e-18)
(-0.00525217 0.0169593 0)
(0.0118963 -0.065738 -1.74784e-17)
(0.00187863 -0.021975 1.37372e-17)
(-0.0217042 0.00258109 2.00055e-17)
(0.0444909 0.0394845 1.25618e-17)
(-0.00703528 -0.0187354 -2.66888e-17)
(0.182544 0.0863574 -4.52108e-18)
(-0.00764665 0.00598004 -8.81315e-18)
(0.0170469 -0.0726047 0)
(-0.000744852 0.00981274 0)
(0.013975 -0.0706596 0)
(0.00400509 -0.0410904 0)
(0.0473777 0.0478113 -1.22152e-17)
(-0.00780834 0.00847862 -1.58613e-17)
(-0.0216038 -0.0181527 0)
(0.00831718 -0.0199856 -1.6367e-17)
(-0.0414074 0.142374 2.03014e-17)
(0.022768 -0.0783513 0)
(3.4867e-05 -0.0109477 -9.94151e-18)
(0.00980067 -0.0269631 0)
(0.0194106 -0.0764861 0)
(-0.0230236 0.0504399 1.88972e-17)
(0.0363019 0.0316371 0)
(0.191077 0.0239199 1.03703e-17)
(0.183306 0.0251758 -4.65116e-18)
(-0.0490699 0.0866431 1.71259e-17)
(-0.104102 0.0714319 3.80845e-17)
(-0.000462827 -0.00346181 -1.45793e-17)
(0.00579664 -0.0382231 1.15619e-17)
(0.0172845 -0.071411 0)
(-0.00309148 -0.0218749 0)
(0.00608554 -0.0676379 5.1887e-17)
(0.0426743 0.0722332 0)
(0.0321366 0.194715 2.72054e-17)
(-0.0151509 0.154831 -7.51711e-18)
(-0.00282425 0.0178355 0)
(0.0482863 0.0981928 1.59349e-17)
(0.00352091 -0.0254394 -1.63341e-18)
(0.153541 0.0546012 3.52802e-17)
(0.0767266 0.0556074 -8.90288e-18)
(0.00677741 0.00171578 0)
(0.0117261 0.131355 1.55442e-17)
(0.0340351 0.0431662 0)
(-0.00823947 0.0151675 0)
(0.00538393 -0.0423154 -3.34104e-17)
(0.0108858 -0.0695932 2.35012e-17)
(0.0431927 0.0710691 1.62883e-17)
(0.0136195 -0.0725187 -1.69651e-17)
(0.0287153 -0.0828389 1.63141e-17)
(0.0292627 -0.0822611 -1.62565e-17)
(-0.0174053 -0.00271308 0)
(-0.00424994 0.0558488 1.98434e-17)
(0.00541533 0.00896448 1.596e-17)
(0.0419397 -0.0633426 0)
(-0.0119729 -0.0948724 -1.98426e-17)
(0.00528519 -0.1309 1.97768e-17)
(-0.0128652 -0.0187038 -3.14499e-17)
(0.020121 -0.0744455 -1.67561e-17)
(0.0405632 -0.0663356 1.63598e-17)
(0.0252531 -0.0811712 0)
(-0.00603324 -0.0124826 0)
(0.0264665 -0.0790761 2.02574e-17)
(0.0042214 -0.190205 1.58105e-17)
(-0.0339614 0.0111672 -1.52541e-17)
(-0.00826101 0.0105004 2.904e-17)
(0.0221084 -0.189928 -1.97687e-17)
(-0.00183213 -0.00702229 1.38855e-17)
(0.0348989 0.0629584 4.07395e-18)
(0.000594798 -0.0257547 -2.05946e-17)
(-0.175593 0.0270978 1.20991e-17)
(0.0660648 0.129238 0)
(0.0230864 -0.0767515 -4.06181e-18)
(0.0429894 0.0617876 0)
(-0.0330291 -0.00193292 -1.3227e-17)
(0.000985586 -0.0213354 3.29944e-18)
(0.0258479 0.0141448 -1.60695e-17)
(0.011362 0.188613 -1.13724e-17)
(0.024176 -0.0735139 1.64717e-17)
(0.0333212 0.167412 -1.94501e-17)
(0.0142325 -0.0784735 -1.69134e-17)
(0.0370432 0.0730221 -4.05747e-18)
(-0.000334529 0.0411932 2.16818e-17)
(0.0112298 -0.0643493 1.55097e-17)
(0.0776277 -0.0590867 1.20456e-17)
(0.0118782 -0.062003 1.67224e-17)
(0.0327655 -0.0842111 1.61918e-17)
(-0.0154328 0.126111 1.56879e-17)
(0.00801057 0.0150432 1.61271e-17)
(0.0600687 0.104574 1.61232e-17)
(0.0145446 -0.0621287 0)
(0.00317824 -0.0383994 -2.28289e-17)
(0.0130019 -0.0758743 8.86116e-18)
(0.00487275 -0.0394543 0)
(0.0131484 0.077071 -1.71381e-17)
(-0.0147038 -0.0309159 1.23642e-17)
(-0.0085654 0.0102814 8.51404e-18)
(0.0146048 -0.0644389 0)
(-0.0193839 -0.00340728 3.58536e-22)
(-0.025819 -0.0214623 -1.24415e-17)
(-0.174427 0.0181305 0)
(0.0296131 0.0662699 2.02748e-17)
(0.0140255 -0.0197505 -2.06042e-17)
(0.0869634 -0.0978769 3.95036e-18)
(0.0248451 0.00362468 1.66977e-17)
(0.0600988 0.10461 4.04347e-18)
(-0.0380221 -0.00943505 1.65004e-17)
(0.00649797 0.0682188 1.44721e-17)
(-0.0180257 0.0532659 -2.73076e-17)
(-0.0235344 -0.0214633 -1.65639e-17)
(0.0172603 -0.00232981 1.64657e-17)
(0.010515 -0.0797986 1.4724e-17)
(0.0178045 -0.0662166 0)
(-0.0060242 -0.0443452 0)
(-0.00866958 -0.0331648 1.61839e-17)
(-0.000830641 -0.0177857 1.5816e-17)
(0.0109121 -0.0504475 3.42064e-17)
(0.0594158 0.0750634 0)
(-0.00358395 0.00125648 -1.64617e-17)
(0.0270068 -0.0812098 4.12457e-18)
(0.0171395 0.0635875 0)
(0.0171566 0.0918762 -2.75965e-17)
(-0.00148094 -0.00324977 -1.61111e-17)
(0.0104348 -0.0721098 -4.07744e-17)
(0.015893 -0.080547 -1.7143e-17)
(0.0124643 0.00470967 0)
(-0.00167247 -0.00589171 2.49133e-17)
(0.0322075 -0.0833722 -4.09727e-18)
(0.0331057 -0.0837827 -3.23665e-17)
(0.0153693 -0.015104 -1.75369e-17)
(0.021368 -0.08152 -4.15382e-18)
(0.0202969 -0.0724125 4.05625e-18)
(-0.023797 0.0222564 -4.08779e-18)
(0.036944 -0.0859268 -1.61207e-17)
(-0.0471305 -0.000457522 0)
(-0.141109 -0.00483841 8.62598e-18)
(0.0171787 -0.0699389 -4.08375e-18)
(0.0872294 -0.0798913 -4.01345e-18)
(0.0621902 0.106833 0)
(-0.0084192 0.0165241 0)
(-0.00266385 -7.36023e-05 -1.60958e-17)
(0.0315133 0.0171482 -1.64539e-17)
(0.0372908 -0.0857917 2.69334e-22)
(0.0160225 -0.0802421 1.7937e-17)
(0.0302823 0.0113875 0)
(0.00922037 -0.0421628 -1.72241e-17)
(0.0139747 -0.0797338 2.26603e-18)
(0.0306849 -0.0816837 -4.11319e-18)
(0.0195502 -0.0808341 -1.66834e-17)
(0.122038 -0.047653 2.29838e-17)
(0.0676281 -0.029753 7.89346e-18)
(0.0613299 0.105348 -2.0366e-17)
(0.0153114 -0.0767951 0)
(0.0645462 0.0084594 -1.59993e-17)
(0.0252432 -0.0685418 0)
(0.0144249 0.0132289 1.64514e-17)
(0.00147163 -0.00898452 7.33469e-18)
(0.019963 -0.0701947 -1.63404e-17)
(-0.0360406 0.0136345 1.63658e-17)
(0.0264135 -0.0777301 -1.21835e-17)
(0.0549162 0.0203799 1.20243e-17)
(0.0143228 -0.0553114 -1.71169e-17)
(0.0353269 -0.0859375 0)
(-0.0264197 -0.00169469 0)
(0.0144275 -0.0808245 1.76814e-17)
(0.0366975 -0.0856314 1.6277e-17)
(-0.0329352 0.00365905 0)
(-0.011416 -0.0196322 -1.98539e-17)
(0.00743496 0.0328343 0)
(0.0355287 -0.0842526 -2.85818e-17)
(0.00540617 -0.0364489 0)
(0.0250576 -0.082148 4.13608e-18)
(0.019496 -0.0810962 0)
(0.0138915 -0.0613639 0)
(0.0159929 0.0386105 0)
(0.00622735 -0.0011816 1.5989e-17)
(0.00119513 -0.0659392 0)
(0.0211782 -0.0794072 1.66393e-17)
(0.0627315 0.086893 0)
(0.0418231 -0.0880729 0)
(0.0344669 -0.0855446 0)
(0.0387601 -0.0872792 -2.93666e-22)
(0.00662951 0.0480312 -1.62363e-17)
(0.033515 -0.0817356 2.01884e-17)
(-0.00329012 0.0324498 -1.38985e-17)
(0.0219424 -0.064116 0)
(0.0656327 0.104138 -4.35601e-18)
(0.0776934 -0.106904 1.58929e-17)
(0.00334305 0.00182073 1.67866e-17)
(-0.016359 0.0237296 -1.40975e-17)
(0.0133939 -0.0734137 4.28225e-18)
(0.0133555 0.0299934 -1.59797e-17)
(0.0205008 0.0306343 0)
(0.0433851 -0.0819704 0)
(-0.00645572 0.00733488 0)
(0.0189757 -0.0775639 1.66533e-17)
(-0.00547236 0.0118598 0)
(0.0436259 -0.0889328 0)
(0.0131873 0.0242345 0)
(-0.012809 0.0349462 4.07345e-18)
(0.13734 -0.0112487 1.19303e-17)
(0.0507044 0.105205 -4.52125e-22)
(0.044456 -0.0720777 4.05058e-18)
(0.0311224 -0.0842573 -1.63339e-17)
(0.0398142 -0.0494674 -4.16275e-18)
(0.0844719 -0.109974 0)
(0.0559744 0.0993247 -1.67346e-17)
(0.0764419 -0.102123 -1.98412e-17)
(0.0265184 -0.0827393 -4.10764e-18)
(0.0639346 0.0902718 0)
(0.0448567 -0.0896732 0)
(0.0131258 0.0495166 -5.76992e-22)
(-0.0474868 0.00167837 0)
(0.0299975 -0.0804427 -4.04951e-18)
(0.000483408 -0.00974045 1.53129e-17)
(0.0231742 -0.00225252 -1.5998e-17)
(0.123116 0.00469127 -1.59201e-17)
(0.0594325 0.0796245 0)
(0.0397669 -0.0865832 0)
(0.0498041 -0.0907402 -1.60066e-17)
(0.0423581 -0.0883909 1.60308e-17)
(-0.0310352 -0.00829931 0)
(0.0672834 0.11686 0)
(0.118088 -0.0180483 0)
(0.0396619 -0.0877141 -1.61201e-17)
(0.0310177 -0.0366899 3.40165e-17)
(0.0847772 -0.11573 3.95901e-18)
(0.0608853 0.106144 -2.01747e-17)
(0.0893877 -0.0134154 -3.98667e-18)
(0.0267117 -0.0766006 -1.65188e-17)
(0.0526792 0.0659572 1.63954e-17)
(0.0321085 -0.011267 -2.00595e-17)
(-0.00216681 0.00641912 0)
(0.130175 -0.0170961 0)
(0.0146341 0.0182304 0)
(0.0768751 -0.119707 3.95937e-18)
(0.0691967 -0.100296 3.98745e-18)
(0.100979 -0.00823241 0)
(0.0307764 -0.0764198 0)
(0.0679703 -0.12158 -1.58483e-17)
(0.0514079 0.0728254 0)
(-0.00589646 -0.153659 0)
(0.0670975 -0.0967344 -1.19829e-17)
(0.0515615 -0.0921358 1.59903e-17)
(0.0987094 -0.0225005 1.59506e-17)
(0.07778 -0.115731 -3.96092e-18)
(0.112213 0.0427504 4.00328e-18)
(0.0479443 -0.0908748 0)
(0.060568 -0.0921345 1.59896e-17)
(-0.15581 -0.0230309 -1.00793e-17)
(0.0126426 -0.179937 0)
(0.0409146 -0.0876146 1.21418e-17)
(0.0232179 -0.0732312 1.62974e-17)
(0.0828721 0.10308 1.98428e-17)
(0.0243385 -0.0817868 0)
(0.125823 0.0415983 1.01113e-21)
(0.0577858 -0.0931612 0)
(0.0400896 0.0403972 -5.23147e-18)
(0.0684602 -0.117872 1.18891e-17)
(0.0832854 -0.1326 -1.1865e-17)
(0.0437122 -0.0814587 1.61985e-17)
(0.00209505 -0.0109971 6.89588e-18)
(0.0116883 0.0121611 0)
(0.0738276 -0.127076 0)
(-0.00424132 0.00878326 1.40292e-17)
(0.0576293 -0.0991185 0)
(0.0527287 -0.0136044 2.0007e-17)
(0.0487524 -0.0918046 0)
(0.0639947 -0.0999126 0)
(0.0813476 -0.128897 -1.97855e-17)
(0.116017 0.0457649 1.58661e-17)
(0.0870563 0.00393789 0)
(0.102492 0.0712303 5.87658e-22)
(0.0338313 0.00354934 1.59941e-17)
(0.0854617 0.120031 -3.96463e-18)
(0.150105 -0.163968 -1.56937e-17)
(0.0797501 0.168178 -3.94559e-18)
(0.0716267 -0.106959 3.96814e-18)
(0.0803197 0.145104 -3.16187e-17)
(0.0636177 -0.107898 1.98484e-17)
(0.128701 -0.035517 0)
(0.0564684 -0.0964099 0)
(0.0908504 0.0801332 0)
(0.126577 0.0262508 0)
(0.0920103 -0.105094 -3.95877e-18)
(0.0557765 -0.100606 -3.97479e-18)
(0.0898884 -0.106503 3.96129e-18)
(0.15718 -0.155819 -1.5704e-17)
(0.086782 -0.0162288 -1.59556e-17)
(0.0521285 0.0956238 3.2202e-17)
(0.0643695 -0.10258 -3.97315e-18)
(0.0555811 -0.0946794 0)
(0.0509353 -0.102739 4.00793e-18)
(0.0933786 -0.115099 0)
(0.086973 -0.111379 -1.58492e-17)
(0.0405767 -0.0675693 1.21209e-17)
(0.0712624 -0.110428 3.96727e-18)
(0.0640728 -0.00878554 3.99515e-18)
(0.15997 -0.108372 1.57185e-17)
(0.0869453 -0.120269 -3.95907e-18)
(0.0729406 -0.11306 -2.77373e-17)
(0.0831363 -0.133934 -1.18633e-17)
(0.0331455 -0.149336 1.19434e-17)
(0.105615 0.086554 -7.61268e-18)
(0.0383501 -0.085155 -2.01445e-17)
(0.145919 -0.0300365 0)
(0.0486208 -0.112214 -3.96708e-18)
(0.0818264 0.158501 3.94748e-18)
(0.0800104 -0.129083 -3.95644e-18)
(0.0614237 -0.110657 -1.19055e-17)
(0.113753 0.0707557 -1.57648e-17)
(0.0882711 0.135522 0)
(0.104713 -0.0227667 0)
(0.0506131 -0.0879354 -4.02395e-18)
(0.154202 -0.0663082 -3.5496e-17)
(0.125432 0.0444289 -1.5853e-17)
(0.057038 -0.118982 3.96425e-18)
(0.0748462 0.156553 -3.94801e-18)
(0.148287 -0.145902 -1.57271e-17)
(0.0866441 -0.131262 3.95511e-18)
(-0.136764 -0.0130238 -2.24624e-19)
(0.0915712 0.115469 0)
(0.0845054 -0.13432 1.18636e-17)
(0.0750343 0.16534 1.97394e-17)
(0.191185 -0.048466 0)
(0.0729648 -0.118811 1.58481e-17)
(0.105624 0.0678675 8.00452e-18)
(0.180781 -0.0784195 1.96656e-17)
(-0.123846 -0.0645391 0)
(0.181323 -0.104766 1.17921e-17)
(0.0753684 0.179767 -1.58056e-17)
(0.186056 -0.075435 -3.93936e-18)
(0.149701 -0.160681 -3.5389e-21)
(0.0949236 0.116058 -1.18945e-17)
(0.100778 0.0656516 1.19915e-17)
(0.160915 -0.135073 -1.9655e-17)
(0.0374015 0.0414294 -3.99235e-18)
(0.0812203 -0.130808 -3.95663e-18)
(0.0763529 0.165046 0)
(0.0862543 0.171729 1.57841e-17)
(0.170361 -0.135723 0)
(0.109097 -0.15982 1.18284e-17)
(-0.130697 0.00359579 1.42691e-17)
(-0.11768 0.0489206 0)
(0.0489936 -0.0405024 -1.5903e-17)
(0.05135 -0.173576 0)
(0.0789952 -0.0934579 3.18678e-17)
(0.171956 -0.106738 0)
(-0.137506 0.0340262 -1.52462e-17)
(0.0540888 -0.177121 1.97335e-17)
(0.178087 -0.0944247 -1.18777e-17)
(0.171753 -0.125847 1.8398e-21)
(0.110619 -0.148812 3.94012e-18)
(0.0640883 0.129328 -1.97254e-17)
(0.191081 -0.0451972 1.58778e-17)
(0.111016 0.0723167 1.58545e-17)
(-0.0457909 0.0347327 -8.85632e-18)
(0.0723326 0.00737191 1.50392e-17)
(-0.0253614 -0.0198446 9.98968e-19)
(-0.00363265 0.0103452 1.90168e-18)
(0.00553449 0.00570348 -3.60624e-23)
(-0.00511146 -0.00666958 -3.25301e-17)
(0.0168326 0.0134305 0)
(0.0876771 -0.0316262 -1.39736e-17)
(-0.0385046 -0.0162101 -2.34715e-17)
(-0.0701086 0.113632 -4.12982e-17)
(-0.0360331 -0.0213972 -1.5934e-17)
(0.103208 -0.0151291 0)
(-0.0288563 0.0375322 2.33185e-17)
(-0.0139991 -0.0142678 1.60799e-17)
(-0.0413676 0.0196553 1.7378e-17)
(0.0507446 0.00114212 0)
(0.0828187 -0.128103 1.1869e-17)
(-0.0208303 -0.00203805 -2.47821e-17)
(0.0273032 -0.0180611 0)
(0.122333 -0.136519 -3.94063e-18)
(-0.0630308 0.00298362 0)
(0.155716 -0.119554 -1.1812e-17)
(0.123984 -0.150265 3.94062e-18)
(-0.121517 -0.0470931 0)
(0.00455575 -0.00215859 0)
(0.0715128 -0.123715 3.96005e-18)
(0.0869483 0.155873 -1.57874e-17)
(0.0893691 0.128546 -3.96349e-18)
(0.147301 -0.136727 1.17963e-17)
(0.064549 0.118038 -2.77396e-17)
(0.0470814 -0.154044 3.98639e-18)
(0.0525812 0.224678 -1.16549e-17)
(0.0712718 -0.0325164 0)
(-0.0931287 0.0561225 -2.78971e-21)
(0.134088 -0.181277 1.96269e-17)
(0.060039 -0.0955574 -3.98492e-18)
(0.0681813 0.208382 2.18032e-21)
(0.057556 0.167318 -1.17388e-17)
(0.0578219 -0.0901418 -4.01446e-18)
(0.0771137 0.198307 3.14619e-17)
(0.0192674 0.0145306 1.46297e-17)
(0.024214 0.0403764 3.59453e-17)
(0.0685493 0.224755 -1.95027e-17)
(0.131234 -0.180489 -1.17863e-17)
(0.134441 -0.134045 1.97031e-17)
(0.0635328 -0.020096 -3.19861e-17)
(-0.102973 -0.00304787 1.58883e-17)
(0.0886699 -0.119389 -1.97873e-17)
(0.165523 -0.106556 1.57949e-17)
(0.184578 -0.0736063 7.85384e-22)
(0.130373 -0.0238886 0)
(-0.0696157 0.0849519 2.68824e-17)
(0.0679438 0.133789 1.18847e-17)
(0.193166 -0.020914 1.60594e-17)
(0.0505308 0.208301 3.1063e-17)
(0.0763616 -0.18122 1.57825e-17)
(0.151526 0.172317 3.93525e-18)
(0.0725525 -0.205744 -1.1828e-17)
(0.075012 -0.122806 -1.58422e-17)
(0.0778989 -0.121857 3.956e-18)
(0.0806472 -0.0453637 0)
(0.0858047 0.0415112 -3.96866e-18)
(0.0669149 -0.177335 -3.94888e-18)
(-0.0868642 0.0217715 -1.59093e-17)
(0.0590377 -0.0789646 3.18178e-17)
(0.0175828 0.00848491 -1.48416e-17)
(0.090051 0.124649 -1.18582e-17)
(0.0707364 0.217394 -1.57151e-17)
(0.0925824 0.19493 -1.17765e-17)
(-0.150269 0.0253401 3.94984e-18)
(0.0165984 0.198851 1.14327e-17)
(0.106143 0.085687 1.58663e-17)
(-0.150373 0.0294488 7.77303e-18)
(-0.112936 0.0180699 0)
(-0.0294571 -0.00330408 -8.53724e-18)
(0.00489357 0.0109516 -2.72787e-17)
(-0.00379047 0.00739856 3.23895e-17)
(-0.071269 0.0065272 3.70313e-18)
(0.103459 -0.132318 -1.58028e-17)
(0.110839 -0.12055 3.95191e-18)
(-0.00462269 0.00219357 0)
(-0.119412 0.0166418 -3.26996e-17)
(0.0219039 0.0164874 0)
(0.0926905 0.238048 -1.95746e-17)
(-0.0970044 -0.0601488 1.58777e-17)
(0.139625 -0.113308 1.57773e-17)
(0.058246 -0.133988 -1.5839e-17)
(-0.040224 0.0916025 1.97641e-17)
(-0.0900649 -0.0389677 -1.58897e-17)
(0.0881864 -0.199624 0)
(-0.0842382 -0.112069 -3.17627e-17)
(0.0429998 0.221601 -1.8861e-17)
(0.0801086 -0.190928 1.97433e-17)
(0.0440479 0.096372 1.59086e-17)
(0.0913848 -0.158216 -1.18361e-17)
(0.0926691 -0.0910585 0)
(0.0960994 -0.00877422 3.97017e-18)
(0.165272 0.140827 -7.86033e-18)
(0.0755699 -0.131691 -3.95778e-18)
(0.14185 0.192163 1.17964e-17)
(0.0995446 0.0800381 0)
(0.191784 0.0035592 1.73721e-17)
(0.12948 -0.118948 -1.97203e-17)
(0.10095 0.158256 3.54533e-17)
(0.158319 -0.090943 0)
(0.115645 -0.0858072 7.89134e-18)
(0.10121 -0.121866 0)
(0.114237 -0.182147 3.93025e-18)
(0.092565 -0.0962275 -1.98051e-17)
(0.0677986 0.119442 -1.36766e-17)
(0.0818219 -0.125358 1.18718e-17)
(0.132309 -0.096898 0)
(0.106183 -0.107947 -2.08348e-17)
(0.0665639 -0.0186774 1.59921e-17)
(0.0888756 -0.125367 -3.95633e-18)
(0.189403 -0.0192294 -1.72755e-17)
(0.0952637 0.211608 -1.57155e-17)
(-0.0788582 -0.0431875 -4.02676e-18)
(0.101075 0.223125 0)
(0.0561892 -0.10724 0)
(0.0906002 -0.186163 -3.93754e-18)
(0.094106 -0.138679 0)
(0.0866599 -0.133379 1.9774e-17)
(0.0440441 -0.090326 0)
(0.0914606 -0.160728 3.95009e-18)
(0.0789155 0.203036 0)
(0.113998 -0.162303 1.18009e-17)
(-0.0595997 -0.0461985 0)
(0.0942308 -0.131844 1.58028e-17)
(0.080717 0.24484 3.90866e-18)
(0.102367 0.162031 2.76515e-17)
(0.0959946 -0.153644 -1.97156e-17)
(0.0667865 -0.136624 0)
(0.0692567 0.238525 0)
(0.104034 0.0503526 1.55703e-17)
(0.115354 -0.105438 2.44221e-17)
(0.14184 -0.0889262 0)
(0.0656624 -0.110214 0)
(0.072872 0.200743 2.73937e-17)
(0.125264 0.0717383 1.57953e-17)
(0.090226 0.0875651 -4.03704e-18)
(0.0972648 0.042898 0)
(0.0770024 0.121413 1.58712e-17)
(0.172616 0.124278 7.86155e-18)
(0.0738165 0.107096 -3.96786e-18)
(-0.00991051 0.0146643 0)
(0.054161 0.229871 3.90794e-18)
(0.0592052 0.052444 -7.1492e-18)
(0.0757726 0.149732 0)
(0.0816485 0.229486 0)
(0.141991 0.181812 -7.8706e-18)
(0.0736001 -0.151694 3.95624e-18)
(0.116679 0.20628 -7.86387e-18)
(-0.080467 -0.0934629 3.97471e-18)
(0.107476 -0.0911801 7.87223e-18)
(0.0223052 -0.0141784 7.48433e-18)
(0.0871782 0.226377 0)
(0.095582 0.242189 7.83091e-18)
(0.101827 0.198065 -1.90498e-21)
(0.102936 0.137833 3.95112e-18)
(0.0623967 -0.0309708 0)
(0.104204 0.230151 3.91768e-17)
(0.0835051 -0.115751 1.97936e-17)
(0.0764506 0.17472 -3.94243e-18)
(0.0822586 0.0578459 -1.18206e-17)
(0.0768379 0.239552 0)
(0.0726258 -0.10786 -2.05933e-17)
(0.0841813 -0.0990649 2.79291e-17)
(0.0806707 -0.149509 -3.94955e-18)
(0.0912907 -0.112452 3.95914e-18)
(0.0362797 -0.0804965 1.69548e-17)
(0.124626 0.185081 -2.35996e-17)
(0.129213 0.00892162 0)
(0.139458 -0.0213173 -1.98462e-17)
(0.0713674 0.096193 0)
(0.104765 -0.198836 -1.57178e-17)
(0.0755943 0.175086 3.54778e-17)
(0.102302 0.0851596 2.72704e-22)
(-0.065279 -0.138382 1.58356e-17)
(0.151905 0.0953856 1.96989e-17)
(-0.106954 -0.0935575 0)
(0.107042 -0.19147 -3.93726e-18)
(0.121625 -0.186232 1.17875e-17)
(0.137218 -0.0314396 0)
(0.0176826 0.0643835 4.20109e-18)
(0.0459925 0.0729273 1.59287e-17)
(0.0799202 -0.134192 -1.18627e-17)
(-0.0389218 -0.0332965 0)
(0.115784 0.210945 0)
(0.0847079 0.1933 0)
(-0.0529978 0.012147 0)
(0.0845461 -0.138337 1.58194e-17)
(0.0608953 0.105796 2.01295e-17)
(-0.0413909 -0.150468 -1.59056e-17)
(0.0715435 0.128245 -3.95956e-18)
(0.0219095 0.0568912 -1.596e-17)
(0.134254 -0.167727 1.17878e-17)
(0.0372243 0.0836854 0)
(-0.0861328 -0.0742293 3.97303e-18)
(0.00425684 -0.0193045 3.6047e-17)
(0.0856873 0.0654688 0)
(0.117042 0.22922 -1.96095e-17)
(0.0303066 -0.0297838 -3.99548e-18)
(0.0243096 0.0529844 -1.19725e-17)
(0.113905 0.0326524 0)
(0.165872 0.143628 -3.7578e-21)
(0.0673049 0.145225 -3.16253e-17)
(0.121415 0.107733 -4.02155e-18)
(-0.0401314 -0.156283 0)
(0.0610592 -0.0272111 0)
(0.0396029 -0.0927135 -1.31375e-17)
(-0.0284673 -0.132414 -3.97508e-21)
(0.0813737 0.198884 -1.57355e-17)
(0.12716 0.210811 -1.17663e-17)
(0.0665182 0.0893318 -1.58969e-17)
(0.0583444 -0.110623 0)
(0.0402787 0.063247 1.86194e-17)
(0.148981 0.157029 7.94483e-18)
(0.0716717 0.0702746 6.78092e-23)
(0.0461024 0.0863397 -4.05374e-18)
(0.137849 -0.0242121 0)
(-0.0273545 -0.0298834 -2.79019e-17)
(-0.1137 -0.0799938 -3.19887e-17)
(-0.0103341 0.0116753 0)
(0.00559391 0.0312514 1.59986e-17)
(0.0560152 0.0891068 1.58986e-17)
(0.0868126 -0.126966 0)
(0.0405661 -0.0278433 -1.59812e-17)
(-0.0822722 -0.119938 -1.58355e-17)
(-0.100866 -0.104286 1.6333e-17)
(0.125217 -0.00308449 1.19133e-17)
(-0.00771675 0.0146417 0)
(0.0460778 -0.0204969 -1.57268e-17)
(0.0358622 0.0694869 -1.59294e-17)
(0.121922 0.136777 4.02946e-18)
(-0.0637651 -0.145578 0)
(0.0905097 0.0290716 0)
(0.0922752 0.111591 -1.18932e-17)
(-0.0623525 -0.111445 1.59019e-17)
(0.0165972 0.0479882 -3.99073e-18)
(0.00333828 0.0275435 0)
(0.0573794 -0.0152073 0)
(0.129052 -0.135724 -2.75325e-17)
(0.132227 0.106347 -3.94064e-18)
(0.0364593 -0.0739171 4.26489e-18)
(0.0661171 0.128123 1.98004e-17)
(0.141994 0.165264 1.18023e-17)
(0.153125 0.125317 -2.75344e-17)
(0.0486301 0.0573077 -1.99272e-17)
(0.0722778 0.0358297 -1.59279e-17)
(0.104439 0.00728724 1.98865e-17)
(0.0630513 0.0557711 3.58349e-17)
(0.122216 0.148877 1.18251e-17)
(0.12664 0.17933 -1.17996e-17)
(-0.00186384 -0.0168965 -4.07728e-18)
(0.0867693 -0.136207 0)
(0.0570502 0.105317 -3.17579e-17)
(0.134966 0.022938 -1.57981e-17)
(0.00223176 0.0293781 -1.59943e-17)
(-0.0687786 -0.0791373 1.59045e-17)
(0.0695262 0.149076 -1.58106e-17)
(0.144203 0.00659165 0)
(0.134281 -0.0412353 0)
(0.0250535 -0.0793627 0)
(0.119054 -0.096377 1.57864e-17)
(0.0921917 -0.0237008 0)
(0.0153822 -0.0270306 -1.20067e-17)
(0.0172321 0.0498022 0)
(0.00868622 -0.0242447 0)
(0.094318 -0.0325791 0)
(0.0984947 -0.0394002 -3.97556e-18)
(0.00533525 0.0339434 0)
(0.0883974 -0.125104 1.58235e-17)
(0.123833 -0.0142849 -3.96063e-18)
(0.132962 -0.0299416 0)
(0.0579128 -0.0111521 -2.0201e-17)
(-0.014141 -0.0759124 -1.60312e-17)
(0.0412851 -0.0333195 0)
(0.132662 -0.0631843 3.94652e-18)
(0.0670126 -0.0549802 0)
(0.0248337 -0.0601374 1.2128e-17)
(0.0625446 -0.0357762 0)
(0.110082 -0.0259351 0)
(-0.000560541 -0.0661092 -1.60671e-17)
(0.110048 -0.0379129 0)
(0.0957167 -0.00521486 -1.59208e-17)
(0.0736639 -0.0369571 3.98597e-18)
(-0.0331336 -0.0594118 0)
(0.166373 0.112124 1.18102e-17)
(0.0740405 -0.0253084 3.98651e-18)
(0.0937082 -0.0147564 0)
(0.0409501 -0.0115127 -1.08834e-17)
(0.178245 -0.036057 -1.97403e-17)
(-0.0413825 -0.106103 1.99232e-21)
(0.165748 -0.0372106 -1.58506e-17)
(0.0944435 -0.0253177 1.59287e-17)
(0.109245 -0.0221978 -1.5909e-17)
(0.0377208 0.0837846 0)
(0.108363 -0.0294045 -1.19498e-17)
(0.139868 -0.0381272 0)
(0.190482 -0.00871164 -1.58038e-17)
(0.0734547 0.00138484 0)
(0.0334676 0.0747085 3.97997e-18)
(0.158118 -0.0213918 3.96935e-18)
(0.043741 0.0240744 0)
(0.158437 -0.0316423 3.96359e-18)
(-0.00690189 -0.0182812 1.39921e-17)
(0.0988071 -0.0301982 1.19307e-17)
(-0.00408844 -0.0405918 0)
(0.0587363 0.119611 -1.18903e-17)
(-0.0202846 -0.0527149 0)
(0.019704 -0.026094 0)
(0.000911004 -0.0225716 -1.44148e-17)
(0.143395 -0.0382483 0)
(0.00662238 -0.0303008 0)
(0.0138089 0.054279 -4.16149e-18)
(0.0546988 -0.0217616 2.00927e-17)
(0.163461 -0.0380646 -1.58563e-17)
(0.0507516 0.101376 -1.58796e-17)
(0.0167914 -0.0646835 1.66888e-17)
(0.0613726 -0.0229042 1.62219e-17)
(0.172657 -0.0429626 0)
(0.0619782 -0.0103907 -3.9915e-18)
(0.0421214 -0.0260463 0)
(0.00635369 0.0286029 -8.28838e-18)
(0.161917 -0.042421 7.40874e-22)
(0.146271 -0.0047862 0)
(0.193046 0.0131821 -2.00561e-17)
(0.0330385 -0.0292995 0)
(0.153104 -0.0338415 -3.96992e-18)
(0.0510022 -0.0218252 1.26721e-17)
(0.0167706 -0.0468104 1.60999e-17)
(0.167224 -0.0352729 1.58487e-17)
(0.0403068 0.0862525 1.19368e-17)
(0.0350818 -0.0184703 -6.6943e-18)
(0.0563255 0.117784 3.17261e-17)
(0.165742 -0.0390914 1.58435e-17)
(0.141195 -0.0350854 -3.96774e-18)
(0.152651 -0.0389974 0)
(0.141473 0.0100917 0)
(0.0592108 0.100725 1.60897e-17)
(0.0395936 0.0811775 1.19396e-17)
(0.190476 0.0186132 2.00541e-17)
(0.0388499 -0.00364356 -3.98777e-18)
(0.0619642 0.0208534 0)
(0.0246491 0.0111629 0)
(0.156466 0.0156628 0)
(0.0132845 -0.0151479 -1.60671e-17)
(0.053438 0.00131289 0)
(0.0557423 0.0958522 -1.63661e-17)
(-0.000442815 -0.015641 2.83459e-17)
(0.135108 0.0281305 3.16892e-17)
(0.0138365 -0.0143566 -1.60239e-17)
(0.182819 -0.00444914 0)
(0.00516144 -0.00190411 -1.60393e-17)
(0.053187 0.111587 0)
(0.167603 -0.0394924 0)
(0.140158 -0.000486405 0)
(0.0939281 0.0455766 1.2046e-17)
(0.00829211 0.0372328 0)
(0.0186376 -0.0781963 0)
(0.0427337 0.0921526 0)
(0.0740785 0.037767 0)
(0.0496256 -0.0891042 -4.02424e-18)
(0.0152132 0.0576265 0)
(0.163735 -0.0328021 1.97246e-17)
(0.156069 -0.015435 -3.9715e-18)
(0.0202734 0.0445969 0)
(0.00470886 0.0224576 -1.60098e-17)
(0.0608702 0.129061 -3.96316e-18)
(0.0217489 0.00197317 4.15339e-18)
(0.106227 -0.0365824 0)
(0.0638837 0.0287635 -1.55406e-17)
(0.128837 0.0134381 -1.59458e-17)
(0.0218059 0.0614181 4.06728e-18)
(0.0864317 0.0353607 -1.20207e-17)
(-0.0057911 0.00829222 2.04259e-17)
(0.048362 -0.0155138 -1.60183e-17)
(0.146773 0.00266475 0)
(0.0130316 -0.0395133 0)
(0.0152136 -0.0187729 0)
(0.0574771 0.0994018 0)
(0.0913936 0.0670586 -1.20187e-17)
(0.0585357 0.0428626 -4.01644e-18)
(0.117051 0.0304521 1.59579e-17)
(0.00126918 -0.0138586 9.61992e-18)
(-0.00663378 0.00740604 -4.04398e-18)
(0.0116246 0.0201169 1.67263e-17)
(0.155254 -0.00894021 0)