/*--------------------------------*- C++ -*----------------------------------*\
  =========                 |
  \\      /  F ield         | OpenFOAM: The Open Source CFD Toolbox
   \\    /   O peration     | Website:  https://openfoam.org
    \\  /    A nd           | Version:  9
     \\/     M anipulation  |
\*---------------------------------------------------------------------------*/
FoamFile
{
    format      ascii;
    class       surfaceScalarField;
    location    "0.35";
    object      phi;
}
// * * * * * * * * * * * * * * * * * * * * * * * * * * * * * * * * * * * * * //

dimensions      [0 3 -1 0 0 0 0];

internalField   nonuniform List<scalar> 
816
(
1.61992e-09
-1.19339e-08
1.0314e-08
-2.36026e-09
-2.17156e-08
2.40759e-08
1.9256e-08
-1.7636e-08
3.04513e-08
-3.01383e-08
-3.13055e-10
1.24677e-08
-1.24677e-08
2.63314e-08
5.03384e-09
-3.13652e-08
1.3342e-08
-1.3342e-08
-1.32571e-08
1.32571e-08
-2.33737e-08
-3.5357e-09
2.69094e-08
-1.31634e-08
1.08031e-08
3.76523e-08
-1.13209e-08
3.22462e-08
-2.29039e-08
-9.34226e-09
8.16724e-09
1.798e-08
-2.61473e-08
3.22904e-08
-3.19326e-08
-3.57829e-10
3.24235e-08
-3.11939e-08
-1.22951e-09
-2.02874e-08
3.12046e-08
-1.09172e-08
5.07872e-09
1.26283e-08
-1.7707e-08
-3.04486e-08
3.65853e-09
2.679e-08
4.08655e-09
2.81596e-08
1.24092e-08
-3.57829e-08
2.30579e-08
7.39346e-09
1.16736e-09
-2.14548e-08
1.95206e-08
-3.75598e-09
-1.57646e-08
-2.21421e-08
-8.74957e-09
3.08917e-08
-2.39959e-08
1.85384e-09
-2.68277e-08
6.07638e-09
2.07514e-08
-2.7307e-08
3.09002e-08
-3.59315e-09
9.01677e-10
1.0388e-08
-1.12896e-08
8.82083e-09
-3.05365e-08
1.16655e-08
1.95391e-08
-1.92577e-08
2.01594e-08
-2.17408e-08
2.67747e-08
3.87179e-08
-2.70524e-08
-3.36445e-08
1.71129e-08
1.65316e-08
2.2639e-09
3.01596e-08
-5.85754e-09
2.53966e-08
1.97538e-09
3.0315e-08
-4.23089e-09
-2.25969e-08
-3.23159e-08
1.10135e-08
2.13024e-08
6.99638e-09
5.47129e-09
-1.04923e-08
-9.17052e-09
9.02619e-09
-2.96359e-08
-1.55809e-09
-2.53478e-08
-7.19342e-09
3.25412e-08
7.17142e-09
6.17054e-09
-1.10781e-08
2.80794e-08
-3.16151e-08
-1.306e-08
-2.54605e-08
-1.84653e-09
-9.39726e-10
1.09986e-08
-1.00589e-08
2.40387e-08
-1.58714e-08
2.06851e-08
-1.16449e-09
-1.09611e-08
-2.26834e-08
1.35716e-08
1.26784e-08
8.5381e-09
-2.88733e-08
2.03352e-08
-3.75598e-09
-2.53478e-08
2.86217e-08
-2.35429e-08
7.80792e-09
-1.36655e-08
-1.8269e-09
-6.56421e-09
1.91925e-08
2.2851e-08
-1.91925e-08
-2.88493e-09
-2.90476e-08
-1.40493e-08
-1.53398e-08
2.93891e-08
-3.30492e-08
3.41333e-09
2.4859e-08
1.38589e-08
1.69314e-08
2.07209e-08
-1.27914e-08
3.42458e-08
-2.14544e-08
5.80283e-09
2.31055e-08
-2.89083e-08
-6.88302e-09
-2.26806e-08
1.25736e-08
-2.66229e-08
2.33456e-08
1.11546e-08
-3.45002e-08
1.15375e-08
2.00968e-08
-3.16343e-08
1.33772e-08
-1.33772e-08
-1.20968e-08
2.45059e-08
-1.74135e-08
5.31672e-09
3.05536e-08
4.49828e-09
5.8157e-09
-1.0314e-08
-3.14e-08
5.6971e-09
2.57029e-08
-1.19339e-08
1.40451e-08
-1.40451e-08
-1.24981e-08
1.24981e-08
1.54332e-08
-3.08214e-08
1.53881e-08
-7.04978e-09
-1.3729e-09
1.09986e-08
-2.0938e-08
2.94761e-08
-4.54012e-10
-2.15503e-08
2.20043e-08
-1.87033e-08
-3.55659e-10
1.90589e-08
1.16424e-08
-1.71335e-08
3.25667e-08
-6.08994e-10
-2.3567e-08
2.4176e-08
1.9773e-08
9.68179e-09
-2.94548e-08
-2.37085e-08
5.79518e-09
1.80519e-08
-2.38471e-08
-1.30513e-08
-1.34688e-08
-1.31634e-08
-7.33263e-10
3.08928e-08
-1.78176e-09
-3.12674e-08
-1.90072e-08
2.48101e-08
-2.61332e-08
1.62815e-08
9.8517e-09
1.55118e-08
1.41965e-08
1.20535e-08
-2.30382e-09
3.26188e-08
-1.98277e-08
1.04923e-08
-7.04978e-09
1.40779e-09
-1.4785e-08
1.09239e-08
1.44727e-08
2.91819e-08
1.79134e-08
-2.84288e-08
1.05154e-08
-1.20554e-08
-1.40778e-08
-8.34898e-09
-2.17893e-08
1.18706e-09
-2.51986e-08
2.40115e-08
5.58856e-10
-1.92621e-08
2.73952e-08
-1.31987e-08
-1.29931e-09
2.20507e-08
-1.59009e-08
3.40283e-09
5.56277e-09
2.60035e-08
-2.94559e-09
-1.8558e-09
2.56574e-08
-2.63653e-08
7.07895e-10
-1.83734e-08
-1.30266e-08
-2.52787e-08
1.75346e-08
7.7441e-09
-2.5069e-08
-2.43014e-09
2.84202e-08
5.03168e-11
-2.84705e-08
2.79474e-08
-2.29002e-09
-7.20066e-09
2.69737e-08
-7.72687e-09
7.72687e-09
2.60796e-08
2.3406e-09
1.31374e-09
-2.30699e-08
2.17561e-08
-2.70136e-10
-2.26338e-08
-2.60514e-08
-2.37739e-09
2.0598e-08
-2.05477e-08
3.96117e-10
-8.24496e-09
7.84884e-09
2.87843e-09
2.09942e-08
3.50467e-10
2.27795e-08
-2.313e-08
-9.02619e-09
-1.14319e-10
2.14168e-08
1.63774e-09
1.77288e-08
-1.93665e-08
-2.01657e-08
1.58508e-08
4.31494e-09
-2.68416e-08
2.44115e-08
-3.16611e-08
1.56335e-09
3.00977e-08
-1.48371e-08
1.48371e-08
7.80792e-09
1.08119e-09
6.64568e-09
-2.17548e-09
-2.90812e-08
3.12567e-08
-9.67978e-10
-2.44925e-08
2.85388e-08
-1.9718e-08
-5.40992e-09
2.79042e-08
-2.24943e-08
5.8157e-09
-4.39535e-10
-3.12215e-08
-2.94872e-08
-8.24496e-09
-2.09054e-08
2.24688e-08
-1.09845e-08
1.09845e-08
-2.52039e-08
-1.0634e-08
2.05699e-08
-2.27454e-08
-2.14994e-08
1.60894e-08
-1.01825e-08
3.71781e-08
-2.69956e-08
-7.11591e-10
-2.01938e-08
9.17052e-09
-9.44065e-09
-7.88926e-09
9.203e-09
6.22423e-10
-7.12901e-09
6.50659e-09
-4.37142e-10
2.1007e-08
1.73445e-08
1.20446e-08
-1.13248e-08
2.86693e-08
-2.23559e-08
-1.01839e-08
9.47228e-09
8.54093e-11
-2.23502e-08
2.22648e-08
9.03769e-09
-9.47483e-09
1.13078e-09
-2.29075e-08
2.17767e-08
1.8089e-08
-1.94619e-08
1.92288e-08
-3.05126e-09
-2.00186e-08
-2.01657e-08
-1.36655e-08
-1.34963e-08
-1.17823e-08
-2.99928e-08
1.78367e-10
2.98145e-08
-1.06452e-08
1.07307e-08
-2.97399e-08
3.05925e-10
2.94339e-08
2.24189e-08
4.98422e-11
-2.26117e-08
-1.33707e-10
-1.08031e-08
-1.9549e-08
3.07929e-08
-1.12439e-08
-1.60894e-08
1.50037e-08
1.08578e-09
-1.58508e-08
1.48828e-08
-2.28389e-08
2.24333e-08
4.05546e-10
2.28063e-08
-2.27248e-08
-8.14727e-11
-2.14994e-08
2.89106e-08
-1.14388e-08
-2.60629e-09
-2.97315e-08
1.84059e-08
1.02634e-08
1.72519e-10
-1.08274e-09
-3.19706e-08
-7.26392e-10
1.84552e-08
-3.12223e-08
-1.33535e-09
2.74149e-08
2.99917e-08
-1.15858e-08
1.96588e-08
2.01433e-08
5.86019e-09
5.7802e-09
-6.50659e-09
2.71301e-08
1.9755e-08
1.25205e-09
-1.86917e-08
1.97729e-08
9.52213e-09
-9.47228e-09
-9.60854e-09
9.47484e-09
-1.87441e-08
-1.97895e-08
3.19377e-08
-1.21482e-08
-1.06452e-08
-1.14389e-08
-7.12901e-09
-2.69812e-09
-1.78764e-08
-1.01839e-08
9.52212e-09
-9.60854e-09
-5.41614e-09
-8.46885e-10
1.86505e-08
-1.78036e-08
9.03769e-09
1.10034e-08
7.92731e-10
1.48828e-08
7.84884e-09
-1.07307e-08
-2.43272e-09
-7.88926e-09
-2.06858e-08
-1.12798e-08
3.19656e-08
1.87478e-08
-1.55554e-09
-2.48098e-08
4.40212e-10
2.63345e-08
9.76589e-10
-5.79878e-09
4.82219e-09
-1.00589e-08
2.44792e-08
-2.71773e-08
3.39231e-10
3.23051e-08
-2.88918e-08
5.79879e-09
-6.64567e-09
1.50037e-08
1.46906e-08
1.16842e-09
3.35896e-09
-1.65591e-08
-4.86066e-09
-2.74939e-08
2.09142e-09
1.17601e-08
2.01775e-08
1.73248e-08
-2.10044e-08
3.27645e-08
-2.75397e-08
6.85386e-09
5.7802e-09
-9.203e-09
-1.16899e-08
-2.10046e-08
3.26944e-08
9.44065e-09
-3.22842e-08
-1.28739e-08
3.30514e-08
-1.27454e-08
3.14932e-08
2.10746e-08
7.19833e-10
-7.83481e-09
7.83481e-09
-1.47178e-08
-2.39778e-08
2.58594e-08
2.12808e-08
1.58973e-08
-1.1745e-08
1.1745e-08
-1.46906e-08
-2.5705e-09
-1.36862e-08
1.0634e-08
3.0522e-09
1.36862e-08
-1.9412e-09
-1.86407e-09
-1.47178e-08
-2.65483e-08
-2.77078e-08
5.35762e-09
-3.34294e-08
1.20196e-08
2.14098e-08
-1.23548e-08
1.9693e-09
-2.01543e-08
3.451e-08
-1.43557e-08
-3.25927e-08
1.24385e-08
1.65911e-08
-2.09262e-08
3.29458e-08
1.77917e-08
-3.06655e-08
-1.63452e-09
9.1954e-10
1.17683e-08
-2.03786e-08
2.06966e-08
-1.11867e-08
-1.95503e-08
3.07369e-08
-1.9468e-08
3.54204e-08
-1.47237e-08
2.73026e-08
1.11829e-08
2.42375e-08
2.83261e-08
-3.1943e-08
-3.04659e-08
1.57422e-08
2.17591e-08
-3.59495e-08
2.32041e-08
-1.26743e-08
2.73686e-08
-4.58906e-09
-1.9345e-08
-1.13205e-08
1.15129e-08
2.29972e-08
3.41976e-08
-8.34074e-09
-1.48403e-08
2.3181e-08
-6.18605e-09
6.18605e-09
-5.56809e-09
5.56809e-09
6.56243e-09
-6.56243e-09
6.54236e-09
-6.54236e-09
6.99638e-09
7.17142e-09
2.35157e-08
-3.16221e-08
8.10635e-09
-1.10781e-08
2.13133e-08
1.28842e-08
1.26362e-08
-1.26362e-08
-1.4785e-08
1.44179e-08
-1.44179e-08
-3.03806e-08
1.15455e-08
1.88351e-08
-6.56421e-09
-3.28262e-08
2.02151e-08
1.26111e-08
-5.83378e-09
5.83378e-09
-2.90155e-08
1.15976e-08
1.74179e-08
-1.01655e-08
-2.03543e-08
-1.86247e-08
2.2851e-08
-1.09081e-08
2.20627e-08
-9.11961e-09
-2.8695e-08
-3.09357e-08
2.06851e-08
8.85804e-09
3.76372e-10
9.74267e-10
1.49442e-09
-1.92014e-08
-3.29324e-08
1.86141e-08
1.43184e-08
-2.1387e-08
-1.04014e-08
-1.03202e-08
-2.65692e-10
1.27812e-08
-2.72013e-08
1.23611e-08
-1.56037e-08
-2.4579e-08
4.00553e-08
-1.32653e-08
-2.0553e-08
8.82577e-09
1.17272e-08
-4.66276e-09
-2.63294e-08
1.39972e-09
2.49297e-08
-8.19193e-09
9.68864e-09
-9.68864e-09
-3.70281e-10
-1.69584e-08
-1.3578e-08
-1.36818e-08
2.57353e-08
2.51417e-08
-7.72387e-09
-2.61172e-08
-1.69498e-08
-2.25161e-09
3.12498e-08
-1.5646e-08
-1.3049e-08
-2.40301e-08
-1.87541e-08
-2.46075e-08
-4.07172e-09
-1.74786e-08
-7.07074e-09
-1.64963e-08
-1.23363e-08
-2.21639e-08
-2.88421e-08
-7.32428e-09
2.48589e-08
-2.16786e-08
-2.05671e-08
-2.51654e-08
2.3622e-08
-2.64657e-08
2.8437e-09
-6.8355e-09
-1.57681e-09
-2.87363e-09
2.32089e-08
-6.8355e-09
-3.55533e-09
3.02245e-08
3.99693e-09
-3.42214e-08
3.27078e-08
1.46578e-08
1.78834e-08
-1.27902e-08
2.55713e-08
6.74491e-09
-6.74491e-09
2.47753e-08
4.40653e-09
1.10963e-08
4.50868e-09
-1.94532e-08
2.00988e-08
-2.78227e-08
3.05975e-08
2.07035e-08
1.75837e-08
-3.0665e-08
1.30813e-08
-1.71852e-09
2.86932e-08
-9.85815e-09
2.06359e-08
2.19129e-08
-1.7916e-08
1.89433e-09
1.0388e-08
-2.07264e-08
1.25682e-08
1.03257e-08
1.34598e-08
1.94743e-08
-2.70133e-08
4.32987e-09
-1.93911e-08
4.03735e-09
1.91437e-08
-1.87501e-08
2.11177e-08
2.89379e-09
-2.09797e-08
5.99493e-09
-1.79231e-10
9.53082e-09
-2.92488e-08
-1.00172e-09
-3.11035e-08
4.31212e-09
-3.04872e-10
4.86716e-09
2.94076e-09
-1.82918e-08
2.81343e-08
2.49404e-09
-2.88234e-08
-1.12896e-08
5.99493e-09
2.28104e-08
-1.84954e-08
-2.03406e-08
-1.12814e-08
2.06115e-08
1.20073e-08
-2.20591e-08
4.86716e-09
1.46578e-08
-2.82998e-08
-2.63252e-08
2.56372e-08
-1.68215e-09
-1.66095e-08
-1.61266e-08
1.61266e-08
1.16575e-08
-3.2986e-08
-1.61019e-08
1.61019e-08
-1.88333e-08
-2.79104e-08
-1.99841e-08
-2.28248e-08
1.01234e-08
1.01481e-08
2.62356e-08
-5.62406e-09
-1.76112e-08
1.9277e-08
1.92908e-08
-3.03099e-08
1.18145e-08
-1.68517e-08
1.72281e-08
-1.86525e-08
-1.82021e-08
-1.24629e-08
-1.71602e-08
-5.52038e-09
-1.82105e-08
-9.69993e-09
1.19869e-08
-1.5126e-08
1.48603e-08
3.05544e-09
2.51372e-08
1.27241e-10
-3.17423e-08
-2.60756e-08
-1.75305e-08
-2.03402e-09
-1.80952e-08
-4.03916e-09
-5.39749e-09
-5.35472e-09
-1.20705e-08
1.33612e-08
2.46705e-08
-2.75094e-09
-1.56018e-08
-4.1922e-10
1.67663e-08
1.9618e-08
-2.16662e-08
-2.26916e-08
-2.3608e-08
-2.5348e-08
-9.63084e-09
7.03444e-09
2.58346e-09
)
;

boundaryField
{
    front
    {
        type            empty;
        value           nonuniform List<scalar> 0();
    }
    back
    {
        type            empty;
        value           nonuniform List<scalar> 0();
    }
    bottom
    {
        type            calculated;
        value           nonuniform List<scalar> 
12
(
8.42268e-09
2.74991e-08
2.05745e-08
2.09675e-08
1.75357e-08
4.82219e-09
4.86066e-09
2.60692e-08
2.70497e-08
2.62756e-08
1.75107e-08
8.4123e-09
)
;
    }
    left
    {
        type            calculated;
        value           uniform 0;
    }
    top
    {
        type            calculated;
        value           nonuniform List<scalar> 8(-2.625e-08 -2.625e-08 -2.625e-08 -2.625e-08 -2.625e-08 -2.625e-08 -2.625e-08 -2.625e-08);
    }
    right
    {
        type            calculated;
        value           uniform 0;
    }
    inner_arc
    {
        type            calculated;
        value           uniform 0;
    }
}


// ************************************************************************* //
