/*--------------------------------*- C++ -*----------------------------------*\
  =========                 |
  \\      /  F ield         | OpenFOAM: The Open Source CFD Toolbox
   \\    /   O peration     | Website:  https://openfoam.org
    \\  /    A nd           | Version:  9
     \\/     M anipulation  |
\*---------------------------------------------------------------------------*/
FoamFile
{
    format      ascii;
    class       volVectorField;
    location    "0.35";
    object      U;
}
// * * * * * * * * * * * * * * * * * * * * * * * * * * * * * * * * * * * * * //

dimensions      [0 1 -1 0 0 0 0];

internalField   nonuniform List<vector> 
578
(
(-0.249841 -0.348268 0)
(-0.153552 -0.640023 2.39243e-16)
(-0.384857 -0.53061 0)
(0.0472908 -0.747551 2.81261e-16)
(0.102424 -0.205585 0)
(0.037686 -0.823902 -2.70922e-16)
(-0.108008 -0.216974 -5.04846e-17)
(0.116354 -0.208285 5.03729e-16)
(0.574249 -0.779328 0)
(-0.10697 -0.429283 -4.46809e-16)
(0.0395833 -0.839047 1.19889e-16)
(0.353764 -0.662408 1.61658e-17)
(0.0169415 -0.712726 0)
(0.443935 -0.762167 -2.75216e-16)
(-0.448866 -0.775199 0)
(0.480022 -0.604022 6.8565e-17)
(-0.351009 -0.431549 -1.9982e-16)
(-0.60823 -0.611081 4.21876e-16)
(0.320454 -0.599763 -9.87628e-17)
(0.548899 -0.704318 -2.51832e-16)
(0.0482051 -0.807659 -2.83938e-16)
(0.380513 -0.562278 3.50671e-16)
(0.270265 -0.293213 -2.7572e-16)
(-0.0128525 -0.731309 -3.35007e-17)
(-0.018925 -0.628447 0)
(0.315855 -0.627426 4.47471e-20)
(-0.0462747 -0.729636 0)
(-0.0201289 -0.437724 2.93432e-17)
(-0.127624 -0.740246 -2.7911e-16)
(0.512018 -0.627906 0)
(-0.0331095 -0.675009 -3.87164e-16)
(0.0381069 -0.745424 2.37319e-19)
(0.601563 -0.707648 -5.92745e-17)
(-0.0316445 -0.792477 -6.59388e-17)
(-0.38733 -0.701791 -2.67779e-16)
(0.426479 -0.50465 1.57e-16)
(0.37923 -0.683301 2.74938e-16)
(0.292927 -0.574936 0)
(-0.488656 -0.594075 -2.69474e-16)
(0.156401 -0.295346 0)
(0.177169 -0.36497 -4.60411e-16)
(0.195986 -0.340588 -2.28882e-16)
(0.164364 -0.329488 -5.64733e-16)
(-0.42174 -0.707974 -8.72129e-18)
(0.632519 -0.582951 0)
(-0.166616 -0.306687 -3.73664e-20)
(-0.18226 -0.38105 5.02587e-16)
(0.593756 -0.808354 -1.36221e-16)
(-0.485406 -0.604503 2.71135e-16)
(-0.0533135 -0.807803 0)
(0.0164412 -0.400172 1.57689e-17)
(0.0257687 -0.712371 -1.09368e-19)
(0.465086 -0.405232 3.60907e-16)
(-0.0341636 -0.786905 6.57186e-17)
(0.00203447 -0.70086 0)
(-0.0285794 -0.848416 1.50373e-16)
(0.131446 -0.0888723 -3.1021e-16)
(0.502842 -0.384924 0)
(-0.421953 -0.548939 -3.34066e-16)
(0.241202 -0.303286 1.10853e-16)
(-0.510372 -0.609109 -1.40939e-16)
(-0.416113 -0.33615 -1.91485e-16)
(-0.673709 -0.530075 -3.42843e-16)
(0.419431 -0.697577 1.36904e-16)
(-0.00911035 -0.716203 2.91534e-16)
(-0.513211 -0.801865 1.42079e-16)
(0.617164 -0.75343 2.6193e-16)
(0.0696684 -0.826792 0)
(0.597183 -0.642787 3.20119e-17)
(0.38125 -0.775167 1.48159e-16)
(-0.0141376 -0.672169 0)
(0.0121688 -0.647642 -3.58334e-16)
(-0.000144985 -0.709927 -6.33988e-16)
(0.392259 -0.788423 3.10739e-16)
(0.0066197 -0.880049 0)
(0.141621 -0.24501 2.06248e-16)
(0.418936 -0.564891 4.90303e-16)
(0.313478 -0.428299 -2.99091e-16)
(0.010801 -0.71804 2.86404e-16)
(-0.203895 -0.257486 2.56142e-16)
(0.252428 -0.688879 -4.00767e-16)
(-0.133941 -0.230397 8.7067e-16)
(0.0867147 -0.269287 -5.882e-16)
(0.135331 -0.215872 0)
(-0.627312 -0.77902 1.76984e-16)
(-0.108434 -0.237817 -6.64529e-16)
(0.00662424 -0.236253 0)
(-0.0245379 -0.863557 1.48203e-16)
(0.252515 -0.542592 -3.37674e-16)
(-0.267909 -0.589353 2.97369e-18)
(-0.0460497 -0.779399 2.85403e-16)
(-0.643982 -0.783391 2.12757e-18)
(-0.259436 -0.555052 3.16016e-16)
(0.0423111 -0.755146 1.43676e-16)
(0.513515 -0.655466 -8.66246e-17)
(0.370344 -0.632193 0)
(0.000171994 -0.703238 3.15857e-16)
(0.00870764 -0.704967 0)
(-0.0318762 -0.277835 -1.03859e-16)
(-0.420041 -0.759617 -2.74138e-16)
(-0.491762 -0.736391 -1.67888e-17)
(0.341812 -0.725432 1.63897e-16)
(-0.0367138 -0.735193 0)
(-0.368843 -0.42751 0)
(-0.0069079 -0.701247 1.48358e-16)
(0.414067 -0.745922 2.63773e-16)
(0.00847896 -0.84724 0)
(0.20873 -0.379008 2.30363e-16)
(-0.0567214 -0.135221 5.25703e-16)
(0.273204 -0.458001 -4.36829e-16)
(0.440531 -0.540651 1.21212e-16)
(0.364717 -0.737643 1.09929e-16)
(0.553557 -0.6874 -3.15981e-17)
(0.402919 -0.649071 3.74459e-17)
(0.438459 -0.65476 -4.20503e-17)
(-0.0276206 -0.718751 3.24143e-16)
(0.0552926 -0.79715 0)
(-0.331597 -0.683535 -8.23441e-17)
(-0.223184 -0.501095 0)
(-0.00924555 -0.704769 3.30601e-16)
(0.26191 -0.515183 -3.94908e-16)
(0.217025 -0.378317 0)
(0.353917 -0.691677 -3.7165e-17)
(0.0388561 -0.717334 3.60695e-16)
(0.174925 -0.379945 0)
(-0.329325 -0.712469 1.517e-16)
(0.171338 -0.696562 2.79013e-16)
(0.629643 -0.713954 6.64201e-17)
(-0.40432 -0.799254 -3.22042e-16)
(-0.335385 -0.722752 0)
(-0.384062 -0.74904 3.68695e-16)
(-0.345184 -0.739377 0)
(0.0531948 -0.783908 1.61066e-16)
(0.0718882 -0.141151 4.96525e-16)
(-0.384855 -0.778619 -3.64292e-16)
(-0.336736 -0.506295 0)
(0.302982 -0.542987 -3.66898e-16)
(-0.0157312 -0.712132 -3.29746e-16)
(0.319548 -0.649803 -1.18218e-18)
(-0.320814 -0.613801 -3.66875e-16)
(-0.148458 -0.279782 0)
(-0.323441 -0.708463 0)
(-0.272338 -0.516866 0)
(0.00754076 -0.658946 0)
(0.139039 -0.275581 -5.48424e-16)
(-0.549293 -0.669692 0)
(-0.273122 -0.547636 7.51874e-16)
(-0.0477796 -0.638775 4.14357e-16)
(0.387851 -0.770179 0)
(-0.33946 -0.717974 0)
(0.479856 -0.750136 0)
(-0.284406 -0.361246 -1.87478e-16)
(0.110052 -0.130883 -6.19917e-16)
(0.125908 -0.246695 -5.7292e-16)
(-0.418792 -0.765749 -8.62419e-18)
(-0.055489 -0.746351 3.27934e-16)
(-0.135195 -0.775063 3.03626e-16)
(0.0663079 -0.771618 3.00251e-16)
(-0.083152 -0.0966626 2.7113e-16)
(0.517759 -0.77621 0)
(0.514648 -0.795853 0)
(0.494883 -0.730791 0)
(-0.0826586 -0.155173 0)
(0.391587 -0.612898 -5.46463e-18)
(2.66279e-05 -0.223961 0)
(-0.335637 -0.692246 -3.09024e-16)
(0.000450407 -0.397525 0)
(-0.349297 -0.638058 -2.7092e-18)
(0.0510648 -0.649155 0)
(-0.0419108 -0.805809 0)
(0.346257 -0.510513 -3.59464e-16)
(0.17434 -0.317914 0)
(-0.187094 -0.287914 0)
(-0.124882 -0.239136 -9.41156e-18)
(-0.294579 -0.545077 0)
(-0.0120653 -0.728445 0)
(-0.00101965 -0.735947 -3.02795e-16)
(-0.303476 -0.647003 4.31228e-17)
(0.195396 -0.299975 5.08356e-16)
(-0.0150106 -0.657329 0)
(-0.170442 -0.31719 4.22474e-18)
(-0.272288 -0.591119 -4.93934e-16)
(-0.21535 -0.494918 0)
(0.0110398 -0.729909 5.61215e-16)
(-0.401186 -0.577851 0)
(-0.0266573 -0.460787 -3.36068e-16)
(0.170541 -0.234326 -3.99742e-16)
(-0.415876 -0.791434 3.0953e-16)
(-0.448854 -0.769902 0)
(-0.0140872 -0.402815 0)
(0.448667 -0.763701 0)
(0.332514 -0.536835 -3.49389e-16)
(0.2704 -0.38747 -4.64983e-16)
(-0.314189 -0.552893 2.68984e-18)
(-0.202238 -0.386402 -4.76175e-16)
(-0.00737607 -0.780185 -5.00616e-16)
(0.0369528 -0.561341 -3.95226e-16)
(-0.037035 -0.55062 4.37432e-16)
(-0.326732 -0.537943 0)
(0.316138 -0.549451 0)
(0.0295246 -0.471855 0)
(0.0259772 -0.746922 -2.91226e-16)
(0.126122 -0.450475 4.47419e-16)
(-0.0198689 -0.774816 5.15505e-16)
(-0.00333943 -0.750066 1.50792e-16)
(0.357872 -0.643521 6.87231e-16)
(-0.387849 -0.616412 0)
(-0.599036 -0.641882 -2.46893e-18)
(0.474428 -0.787176 0)
(-0.144434 -0.191815 -6.85593e-16)
(-0.222941 -0.443093 -3.8827e-16)
(-0.477004 -0.796393 0)
(-0.36472 -0.734401 0)
(0.00874407 -0.762564 -1.45861e-16)
(-0.30718 -0.600338 0)
(0.0368534 -0.766351 -3.24304e-16)
(-0.370408 -0.636835 0)
(0.374886 -0.635665 1.35015e-18)
(-0.44497 -0.799185 2.90272e-16)
(-0.110747 -0.218111 0)
(0.442662 -0.788843 -2.95616e-16)
(-0.333055 -0.628883 3.58198e-16)
(0.241945 -0.478575 7.48984e-16)
(0.187768 -0.317816 5.39819e-16)
(-0.181328 -0.325007 0)
(-0.240602 -0.469049 5.92863e-18)
(0.00222815 -0.805489 2.78254e-16)
(0.0280756 -0.372446 0)
(-0.0242219 -0.36564 -3.84681e-16)
(-0.00210324 -0.220902 -4.51607e-16)
(-0.0750347 -0.240768 0)
(0.0352575 -0.255499 4.40175e-16)
(-0.0689022 -0.131649 8.07465e-18)
(0.243122 -0.547908 0)
(-0.250279 -0.557711 0)
(0.101652 -0.154598 4.48915e-16)
(0.101528 -0.175407 4.75539e-16)
(-0.10266 -0.17738 -4.69471e-16)
(0.0458248 -0.745986 -3.00514e-16)
(0.223692 -0.447118 0)
(-0.0910503 -0.170627 -4.71645e-16)
(0.0936315 -0.157567 4.80805e-16)
(-0.00970736 -0.794772 -7.14417e-17)
(-0.158111 -0.298723 -8.59346e-18)
(-0.0207631 -0.327873 -7.79336e-16)
(0.0777053 -0.163237 4.81264e-16)
(-0.0769288 -0.145477 0)
(-0.0467289 -0.444225 0)
(-0.0916632 -0.12931 0)
(-0.0351942 -0.837344 1.38529e-16)
(0.00648577 -0.776216 0)
(-0.353592 -0.749548 4.89847e-18)
(0.0550361 -0.670391 3.02093e-16)
(0.0939773 -0.197447 0)
(0.00657241 -0.210975 0)
(0.314527 -0.696113 2.97988e-16)
(-0.00286834 -0.398296 5.29915e-16)
(-0.515707 -0.786895 -1.36648e-16)
(0.10305 -0.164494 4.75778e-16)
(0.0417087 -0.440599 -5.11448e-16)
(0.110796 -0.219123 -6.1192e-16)
(-0.0984732 -0.177638 -3.68422e-18)
(0.0160995 -0.326548 7.85902e-16)
(0.0263481 -0.514235 -8.99246e-16)
(-0.240383 -0.672288 5.92831e-16)
(0.291974 -0.587156 -3.07346e-16)
(0.206049 -0.448136 0)
(0.0524416 -0.102878 5.46594e-16)
(-0.00837778 -0.227099 7.08773e-18)
(0.0368051 -0.113114 0)
(-0.037503 -0.114034 0)
(-0.356554 -0.739482 0)
(0.250138 -0.518679 0)
(-0.000145999 -0.818003 -1.39001e-16)
(0.0228152 -0.762623 -1.51903e-16)
(-0.0142588 -0.832142 2.73257e-16)
(-0.0407805 -0.819191 1.58128e-16)
(-0.0526001 -0.102652 -2.67199e-19)
(-0.187453 -0.318424 0)
(-0.0218698 -0.854395 2.7413e-16)
(0.180878 -0.32288 -4.24274e-18)
(-0.0246007 -0.832241 -1.3789e-16)
(0.010156 -0.832519 0)
(0.0185427 -0.796152 1.41456e-16)
(-0.0142995 -0.844864 1.36243e-16)
(-0.136483 -0.26054 0)
(0.0615756 -0.121522 -4.12093e-18)
(-0.0617819 -0.119147 -5.30384e-16)
(-0.00530796 -0.18937 2.51617e-16)
(-0.0109004 -0.403496 2.24737e-16)
(0.316563 -0.679035 3.44652e-16)
(-0.369202 -0.757504 0)
(-0.0389586 -0.82335 -2.42145e-16)
(-0.102667 -0.163098 -4.76204e-16)
(0.0110686 -0.248918 2.20504e-16)
(0.0260959 -0.467393 -2.77292e-16)
(0.0982712 -0.177349 0)
(0.326423 -0.711129 -6.73339e-16)
(0.0113083 -0.426103 8.8516e-16)
(0.0115087 -0.453606 -1.10328e-16)
(-0.0293209 -0.845863 -2.80066e-16)
(-0.321397 -0.683986 0)
(0.00657249 -0.269111 -4.08437e-16)
(0.00495784 -0.221175 -4.56577e-16)
(0.0165099 -0.303842 3.93668e-16)
(-0.00550669 -0.282907 -3.84334e-16)
(0.333562 -0.712243 -7.7963e-20)
(-0.0102767 -0.751057 0)
(-0.00540415 -0.85823 -6.71275e-17)
(-0.00485425 -0.848137 -2.01879e-16)
(0.272574 -0.551844 0)
(0.00153119 -0.875239 0)
(0.000227515 -0.871816 -1.37984e-16)
(-0.251022 -0.516959 -1.52263e-18)
(-0.014495 -0.868504 -3.41189e-16)
(0.0213033 -0.839369 -2.8858e-16)
(-0.350377 -0.71204 0)
(-0.0947821 -0.197689 3.14981e-19)
(-0.20667 -0.447247 0)
(-0.0204775 -0.863177 4.07933e-16)
(-0.290015 -0.573586 0)
(0.00711136 -0.842869 -2.72159e-16)
(-0.0254004 -0.817442 2.77973e-16)
(-0.0121155 -0.867156 7.17884e-17)
(-0.0180033 -0.757436 -3.67017e-16)
(0.0150586 -0.855618 2.53018e-16)
(-0.480942 -0.75948 0)
(-0.280998 -0.528846 0)
(0.420599 -0.763519 -3.05657e-16)
(0.0117059 -0.865705 -3.81259e-16)
(-0.0259369 -0.736268 -7.6269e-17)
(-0.511225 -0.7337 0)
(0.00166753 -0.864662 1.3702e-16)
(0.0222512 -0.856499 -7.05436e-17)
(-0.256039 -0.495612 0)
(-0.0115405 -0.87617 6.80374e-17)
(0.0371273 -0.807754 5.29462e-20)
(0.0256246 -0.845494 2.1649e-16)
(0.00512391 -0.760298 0)
(-0.0402515 -0.818281 0)
(0.0249297 -0.826892 0)
(0.0152447 -0.808097 -2.80771e-16)
(-0.000999939 -0.878289 3.9185e-16)
(0.000142394 -0.675186 -9.3636e-18)
(-0.00628111 -0.877146 1.95459e-20)
(0.363343 -0.580408 0)
(0.170739 -0.664827 -1.76292e-16)
(-0.049142 -0.118977 -2.69427e-16)
(0.049187 -0.112204 -2.7872e-16)
(-0.0526241 -0.124583 -2.64685e-16)
(0.0541511 -0.12724 3.99783e-16)
(0.0686522 -0.123173 0)
(-0.0734997 -0.12691 1.30874e-16)
(-0.00177057 -0.87226 0)
(0.0915988 -0.179487 0)
(-0.0911372 -0.187479 0)
(-0.0035146 -0.881126 -1.31537e-16)
(-0.13457 -0.234234 -1.58221e-16)
(0.206009 -0.313953 3.41225e-16)
(-0.200486 -0.307652 -9.74406e-17)
(-0.00735067 -0.859818 -7.29993e-17)
(-0.138395 -0.11093 0)
(-0.000490967 -0.877985 2.7211e-16)
(0.0462013 -0.117907 0)
(-0.00314147 -0.880037 1.37306e-16)
(0.0045578 -0.758278 0)
(-0.00790737 -0.872364 7.21641e-17)
(0.26471 -0.691141 6.38907e-16)
(0.0422734 -0.790732 1.24605e-16)
(-0.479973 -0.389551 0)
(0.332087 -0.704532 -3.39444e-16)
(-0.386741 -0.261729 1.79673e-16)
(-0.628716 -0.594318 4.04877e-16)
(0.19507 -0.71673 -1.51277e-16)
(-0.623331 -0.742425 -1.43111e-16)
(0.375351 -0.249286 1.69855e-16)
(-0.0305024 -0.754403 3.78472e-16)
(-0.104649 -0.248873 0)
(0.105329 -0.240258 3.0501e-16)
(-0.178857 -0.473715 1.98167e-16)
(-0.00195072 -0.70074 -5.94505e-16)
(0.107427 -0.252316 -1.55746e-16)
(-0.111467 -0.25318 0)
(0.0234592 -0.831703 1.37233e-16)
(0.00804708 -0.85517 -2.69535e-16)
(-0.00665026 -0.804052 -4.47344e-16)
(-0.0318587 -0.225261 1.39168e-16)
(-0.206868 -0.386252 0)
(-0.265062 -0.44575 -5.70966e-17)
(0.0952438 -0.234293 0)
(0.00659888 -0.700762 0)
(0.0967677 -0.675039 0)
(0.0578553 -0.739902 -3.12344e-16)
(0.330844 -0.688593 0)
(-0.622956 -0.673471 -2.29246e-16)
(0.0689362 -0.495248 2.8157e-16)
(0.672474 -0.516209 0)
(0.0187577 -0.857753 -1.58869e-16)
(0.0330414 -0.603853 -9.49963e-17)
(-0.0116983 -0.366463 0)
(-0.639684 -0.733881 1.0156e-18)
(0.00932424 -0.38161 0)
(-0.0511448 -0.358911 4.04614e-16)
(-0.077991 -0.738684 0)
(-0.0201991 -0.703179 -1.64391e-16)
(-0.0504445 -0.716695 -8.28682e-17)
(0.58033 -0.587773 -2.01934e-16)
(-0.14873 -0.587388 1.94317e-16)
(0.0544151 -0.817896 7.12322e-17)
(0.14484 -0.75943 0)
(-0.0501817 -0.644306 8.30187e-17)
(-0.251579 -0.716059 -8.02774e-17)
(-0.0141836 -0.836384 0)
(-0.258562 -0.58074 -1.88033e-16)
(-0.215368 -0.653699 -1.67722e-16)
(0.090073 -0.781932 3.55584e-16)
(0.305692 -0.628754 1.81702e-16)
(-0.31527 -0.645929 -1.73092e-16)
(0.402212 -0.785999 -1.97543e-16)
(-0.0544422 -0.809194 0)
(-0.361831 -0.755552 3.6921e-16)
(-0.00342058 -0.208428 0)
(0.399607 -0.77867 -8.56422e-20)
(-0.405099 -0.766518 1.84055e-16)
(-0.339207 -0.721266 0)
(0.317449 -0.69489 -1.37497e-16)
(0.105623 -0.236945 0)
(-0.0422621 -0.80823 0)
(0.0530458 -0.132076 3.29258e-17)
(0.335736 -0.726714 1.63462e-16)
(-0.538789 -0.697388 1.29107e-16)
(0.00437868 -0.878772 -2.72925e-16)
(0.614211 -0.636201 1.53478e-16)
(0.016571 -0.699745 0)
(-0.0531283 -0.131378 0)
(0.364295 -0.753923 -2.56101e-16)
(0.276 -0.589147 3.51257e-16)
(-0.189696 -0.751321 1.50142e-16)
(0.208055 -0.486412 1.48988e-18)
(-0.095217 -0.751446 -3.09214e-16)
(-0.163665 -0.722124 1.67714e-16)
(0.0412856 -0.819557 0)
(0.0647898 -0.798766 -7.87843e-17)
(0.0271291 -0.78317 1.07865e-16)
(-0.558073 -0.767822 2.70958e-16)
(-0.028352 -0.845312 -2.26178e-16)
(0.0128547 -0.669121 -3.72857e-16)
(-0.406925 -0.526441 1.79287e-16)
(-0.336268 -0.452866 -3.54334e-16)
(0.00390362 -0.227455 0)
(-0.400831 -0.780759 0)
(-0.0175303 -0.702326 0)
(-0.392015 -0.748953 -1.41335e-16)
(0.0149633 -0.700217 1.46745e-16)
(-0.420498 -0.793791 -2.68468e-16)
(-0.0320861 -0.706787 0)
(-0.0555499 -0.653156 -1.93077e-16)
(0.239236 -0.587521 1.72649e-16)
(-0.00611694 -0.880461 0)
(-0.388583 -0.669355 0)
(0.139542 -0.643795 -3.65913e-16)
(-0.147317 -0.166052 -9.349e-16)
(-0.0961009 -0.812293 3.72772e-17)
(0.0997861 -0.252006 -3.53007e-16)
(-0.0114729 -0.876086 -2.12645e-16)
(0.420829 -0.599718 -1.69402e-16)
(-0.109227 -0.264013 3.02005e-16)
(0.147732 -0.162668 0)
(-0.0746462 -0.794767 3.09504e-16)
(0.346648 -0.711201 -1.87722e-17)
(0.0223637 -0.833335 -3.73803e-17)
(-0.0246932 -0.268201 -2.23329e-16)
(-0.0648619 -0.077698 -5.39976e-16)
(-0.0656658 -0.764048 -4.37533e-17)
(0.00764243 -0.863383 4.2961e-16)
(0.387444 -0.733335 -1.32492e-19)
(0.33879 -0.728294 2.9461e-16)
(0.0550176 -0.0592928 5.67936e-16)
(0.291378 -0.366509 -1.92314e-16)
(0.341313 -0.409074 5.348e-17)
(-0.0159268 -0.845072 0)
(0.0204098 -0.86806 4.13831e-16)
(-0.534976 -0.671705 0)
(0.0103945 -0.868365 4.08947e-16)
(-0.0616834 -0.796143 -3.00529e-16)
(0.246158 -0.563969 -1.91865e-16)
(0.0126976 -0.843461 -1.64836e-16)
(0.00145494 -0.441976 5.61011e-16)
(-0.0334578 -0.71797 1.64699e-16)
(-0.586866 -0.817517 -2.49503e-16)
(-0.00157073 -0.442087 0)
(-0.570246 -0.715112 -5.01038e-17)
(0.350444 -0.733264 1.87476e-17)
(0.0743321 -0.793442 -3.11175e-16)
(-0.0520253 -0.790024 0)
(-0.102488 -0.254605 6.28702e-16)
(-0.0343683 -0.753775 -1.59475e-16)
(-0.366245 -0.764758 3.16155e-16)
(-0.0233599 -0.729708 -2.93426e-16)
(0.0225076 -0.730878 7.31438e-17)
(0.412449 -0.778678 1.49842e-16)
(-0.035009 -0.818086 -7.60834e-17)
(0.20051 -0.468579 4.20162e-16)
(0.0360755 -0.832062 0)
(-0.473154 -0.654469 9.46913e-17)
(-0.0745965 -0.797866 1.27464e-16)
(-0.226881 -0.504855 -1.82646e-16)
(0.0547888 -0.79666 -7.89404e-17)
(-0.218536 -0.4952 -1.95273e-16)
(-0.0783257 -0.773203 -1.2575e-16)
(0.0312056 -0.770897 3.5922e-17)
(0.282125 -0.619595 0)
(0.0320431 -0.69501 9.48977e-17)
(-0.265574 -0.562246 1.08427e-16)
(-0.2937 -0.627649 -4.02501e-16)
(-0.00184339 -0.445278 0)
(0.394478 -0.755245 -1.51175e-16)
(0.268334 -0.5567 -2.09953e-16)
(0.00701556 -0.714954 2.68901e-16)
(0.079101 -0.77012 -1.5593e-16)
(-0.00627562 -0.867084 -7.14342e-17)
(0.196794 -0.498414 -3.38948e-16)
(-0.00431982 -0.876811 -3.55434e-16)
(0.197243 -0.456654 2.78119e-17)
(0.314282 -0.66883 -1.8134e-16)
(0.0334352 -0.81798 0)
(0.0133091 -0.741969 4.47677e-17)
(0.0565342 -0.745011 -2.29631e-17)
(0.58435 -0.753597 6.98152e-17)
(-0.0352388 -0.724146 1.8166e-16)
(0.38595 -0.548884 5.91598e-17)
(0.420134 -0.783292 1.56796e-16)
(-0.037355 -0.48102 6.95168e-16)
(0.0236526 -0.842042 1.52046e-16)
(0.154849 -0.766525 1.65572e-16)
(-0.171212 -0.23166 0)
(0.00305177 -0.621861 -2.06709e-16)
(-0.272123 -0.592817 1.95802e-16)
(-0.33882 -0.404631 2.00917e-16)
(-0.0504201 -0.701884 1.91676e-16)
(0.0518851 -0.70496 -1.8701e-16)
(0.100693 -0.785454 0)
(0.170257 -0.243281 -6.78237e-16)
(0.242765 -0.538462 -2.58401e-16)
(0.0916337 -0.72279 0)
(-0.0279159 -0.844942 -1.54694e-16)
(-0.00763824 -0.726974 3.58788e-17)
(-0.349571 -0.61693 1.65283e-16)
(0.654444 -0.764802 -2.25532e-16)
(0.243082 -0.551377 -1.26902e-17)
(0.488055 -0.566986 1.67411e-16)
(-0.392099 -0.747219 -3.80973e-16)
(0.317653 -0.687867 0)
(-0.57166 -0.761805 0)
(0.314539 -0.589675 0)
(-0.0392803 -0.854241 1.47928e-16)
(0.518111 -0.738085 0)
(0.00441978 -0.874037 -2.52754e-16)
(0.0294913 -0.831765 1.69185e-16)
(-0.062356 -0.794954 -4.75194e-17)
(-0.0588278 -0.777579 -1.89875e-16)
(-0.374922 -0.541508 1.17948e-16)
(0.207031 -0.461491 1.03989e-19)
(-0.0956884 -0.788756 -4.51131e-17)
(0.0939158 -0.784785 5.45232e-16)
(0.00317834 -0.803538 -8.30428e-17)
(0.0311061 -0.713408 -9.02643e-20)
(-0.0662838 -0.830948 -3.69302e-17)
(-0.0828098 -0.76565 4.65515e-17)
(0.0794986 -0.761503 -2.95199e-16)
(-0.348176 -0.732363 0)
(-0.403332 -0.618306 0)
(0.431707 -0.501345 -2.27502e-16)
(-0.0758131 -0.815909 0)
(-0.486091 -0.654481 -8.38663e-17)
(-0.00390468 -0.81244 0)
(-0.502975 -0.631093 2.40189e-17)
(-0.410499 -0.494607 2.08731e-16)
)
;

boundaryField
{
    front
    {
        type            empty;
    }
    back
    {
        type            empty;
    }
    bottom
    {
        type            zeroGradient;
    }
    left
    {
        type            noSlip;
    }
    top
    {
        type            uniformFixedValue;
        uniformValue    
        {
            type            scale;
            scale           
            {
                type            squarePulse;
                start           0.3;
                duration        0.3;
            }
            xScale          
            {
                type            constant;
                value           1;
            }
            value           
            {
                type            constant;
                value           (0 -0.7 0);
            }
        }
        value           uniform (0 -0.7 0);
    }
    right
    {
        type            noSlip;
    }
    inner_arc
    {
        type            noSlip;
    }
}


// ************************************************************************* //
