/*--------------------------------*- C++ -*----------------------------------*\
  =========                 |
  \\      /  F ield         | OpenFOAM: The Open Source CFD Toolbox
   \\    /   O peration     | Website:  https://openfoam.org
    \\  /    A nd           | Version:  9
     \\/     M anipulation  |
\*---------------------------------------------------------------------------*/
FoamFile
{
    format      ascii;
    class       volScalarField;
    location    "0.64";
    object      p;
}
// * * * * * * * * * * * * * * * * * * * * * * * * * * * * * * * * * * * * * //

dimensions      [0 2 -2 0 0 0 0];

internalField   nonuniform List<scalar> 
464
(
2.43452e-06
-1.82204e-06
-4.01006e-06
-2.92169e-06
-3.17257e-06
-4.00766e-06
7.96027e-07
-2.75826e-06
-1.50189e-06
-4.37432e-07
1.95992e-06
6.08394e-06
5.06688e-07
5.64835e-06
3.9823e-06
4.26185e-06
1.79803e-06
1.65674e-06
-9.93035e-07
-2.1828e-06
-2.44967e-06
-4.39344e-06
-3.69731e-06
-3.2469e-06
-3.13488e-06
-3.4492e-06
5.60409e-06
-1.19778e-06
5.61057e-06
-4.6174e-06
-4.46888e-06
1.74136e-06
2.13928e-06
1.42925e-06
8.54061e-07
1.15521e-06
5.36451e-07
-3.96904e-07
-8.86007e-07
3.33699e-06
-1.85488e-06
-3.76668e-06
-3.81723e-06
4.48963e-06
3.26069e-06
3.43416e-06
-1.85915e-06
-1.19633e-06
3.84641e-07
-1.39686e-06
-1.31425e-06
-7.51163e-07
-5.679e-09
-2.47964e-06
-2.49585e-06
-7.63948e-07
-1.40109e-06
-3.18563e-06
-3.46388e-06
-2.89411e-07
4.12686e-07
-3.80439e-06
-2.41787e-06
-2.6193e-06
-2.27601e-06
-2.60867e-06
-4.11879e-06
7.10277e-07
2.52828e-06
-2.78157e-06
-3.95301e-06
-3.20585e-06
3.10327e-06
-1.01171e-06
-5.23811e-06
-8.4804e-07
-3.62113e-06
1.28364e-06
-2.56406e-06
4.20157e-06
-5.09555e-06
-4.50412e-06
-7.28945e-06
-5.68767e-06
-5.15933e-06
-3.22605e-06
-3.18341e-06
-4.71222e-06
-2.72467e-06
-4.14579e-06
-4.98034e-06
-3.50759e-06
-3.5292e-06
3.3026e-06
-4.08495e-06
-3.23696e-06
-2.99856e-06
-3.93735e-06
-7.68701e-06
-1.10883e-06
-2.77665e-06
-1.44238e-06
-3.45911e-06
1.15919e-06
1.89806e-06
-6.84259e-06
-5.15789e-06
-3.58178e-06
-5.37127e-06
-2.2257e-06
-4.07192e-06
-1.48876e-06
-4.09749e-06
-5.52848e-06
-2.12986e-06
-2.70406e-06
-7.65703e-06
-6.30325e-06
-7.44092e-06
-4.96075e-06
-1.85142e-06
2.37457e-07
-2.34854e-06
2.08779e-06
-3.58032e-06
-3.47159e-06
-1.25035e-06
-4.98383e-06
7.87711e-07
-7.34044e-06
-5.84811e-06
6.12321e-06
-1.14766e-07
-3.23232e-06
-5.0084e-06
-7.4558e-06
-6.42671e-06
-1.75209e-06
-1.19109e-06
-5.00738e-06
-6.40532e-06
-3.47449e-06
-4.60136e-06
-2.69903e-06
-6.76323e-06
-5.45588e-06
-2.65051e-06
-5.02232e-06
-2.85219e-06
-4.41373e-06
-3.38797e-06
-3.15817e-06
3.36494e-07
-4.10273e-06
-7.75817e-06
-5.44045e-06
1.9504e-06
-2.57546e-06
-9.99382e-07
-5.25329e-06
-1.28755e-06
-3.03562e-06
-5.3382e-06
-3.47471e-06
-2.93993e-06
-6.33284e-06
-6.94341e-08
-2.75974e-06
2.3295e-06
-6.76104e-06
-6.81186e-06
-4.06646e-06
-7.47733e-06
-4.77528e-06
-7.15918e-06
-5.09694e-06
-2.59398e-06
-2.78256e-06
1.78186e-06
1.6535e-06
-2.65231e-06
-5.04129e-06
3.3114e-06
3.22273e-06
4.28017e-06
3.86358e-06
-6.46702e-06
-6.26848e-06
-7.05688e-06
-6.57092e-06
-2.0956e-06
-6.46643e-06
-6.39692e-07
-1.68061e-06
-3.67147e-06
-4.18326e-06
-2.35e-06
-2.24439e-06
3.84809e-06
-2.85729e-06
-2.47771e-06
-3.95659e-06
-2.3763e-06
-3.57753e-06
-6.30724e-06
-1.08137e-06
-3.01908e-06
-4.20248e-06
-4.8635e-06
-7.32738e-06
-5.71792e-06
-6.27424e-06
5.55833e-07
1.24895e-06
-2.04077e-06
-6.48094e-06
4.51859e-06
-1.75861e-06
5.74162e-06
-5.16711e-06
2.84781e-06
-3.69469e-06
-3.24894e-06
-2.51488e-06
-2.58798e-06
-2.86274e-06
-2.52418e-06
-2.04496e-06
-2.12926e-06
-2.52903e-06
-2.13398e-06
-1.23124e-06
-1.58425e-06
-2.51597e-06
-7.9545e-07
-2.46894e-06
-5.8358e-07
-1.30301e-06
-1.74453e-06
-1.82742e-07
-2.41763e-06
-1.0967e-06
-8.32251e-07
-1.53833e-06
-2.28919e-06
6.07032e-07
-1.31724e-06
-1.66589e-06
-1.524e-07
-1.31884e-06
-1.00655e-06
3.09165e-07
-2.22198e-06
-3.46188e-06
-2.17339e-06
-1.1537e-06
-2.5743e-06
-1.22389e-06
-2.01049e-06
-7.96029e-07
-8.78783e-07
-1.98904e-06
-1.87733e-06
1.22774e-06
-8.47314e-07
2.51436e-07
-1.72025e-06
-1.9419e-06
2.96126e-06
-1.277e-07
-4.1948e-06
-4.39951e-07
-1.4839e-06
2.02025e-06
5.94065e-07
-1.56926e-06
-2.73208e-07
-4.49319e-06
-5.82996e-06
-5.32775e-06
-1.75697e-06
-2.00508e-06
-5.73582e-06
-6.97506e-07
2.05888e-06
-2.84149e-06
-6.2526e-06
-2.70339e-06
-1.77269e-06
-1.59975e-06
-2.76495e-06
-1.5265e-06
-2.01713e-06
-2.3134e-06
-3.15046e-06
-4.85311e-06
-6.44044e-06
-4.92851e-06
-4.91572e-06
-3.3407e-06
1.33451e-06
6.8845e-09
2.02014e-06
3.97346e-06
5.70411e-07
-3.07438e-06
-2.97822e-06
-1.7911e-07
-5.52782e-06
-5.18487e-06
-2.92535e-06
-2.64156e-06
-2.34347e-06
3.21606e-07
-2.96739e-06
-2.87547e-06
-6.17211e-06
-4.16278e-06
-2.5082e-06
6.81926e-07
-4.6561e-06
-4.90526e-06
-5.34909e-06
-5.04633e-06
-1.27801e-06
-7.19313e-08
6.38931e-07
1.64953e-06
-1.46044e-06
-3.42381e-06
-2.79216e-06
-1.20675e-06
-3.1903e-06
-2.10913e-06
-3.25527e-06
-2.5798e-06
-4.30383e-06
-2.94343e-06
-5.09502e-06
-3.23031e-06
-2.7658e-06
1.30553e-06
-3.47418e-06
-4.18574e-06
-1.8213e-06
-2.17405e-06
1.26812e-07
-4.08666e-06
-2.83704e-06
-3.19794e-06
-2.0861e-06
-3.14476e-06
-4.99266e-06
-4.83304e-06
-1.88147e-06
-5.1188e-07
-4.44761e-06
-4.35754e-06
-4.57831e-06
-3.33108e-06
-3.55834e-06
-6.96137e-07
-4.42532e-06
-5.31873e-06
2.28372e-06
-1.15985e-06
-2.27424e-06
1.11901e-06
5.7036e-06
-5.04058e-06
-2.6954e-06
7.22136e-06
2.70408e-06
1.81334e-06
5.75864e-06
-3.45086e-06
3.16003e-06
-3.93203e-06
6.17804e-06
-5.01762e-06
4.86321e-06
2.22363e-06
1.83164e-06
1.45183e-07
-1.77103e-07
6.21093e-07
-1.80998e-08
-4.03801e-06
2.88728e-06
2.30605e-06
-7.93721e-07
6.56671e-08
6.94757e-07
7.14165e-07
-2.15712e-06
-3.26729e-06
-2.72699e-06
-3.85889e-06
-3.32101e-06
2.51227e-06
-1.45027e-06
-3.18776e-06
3.78066e-06
-2.21305e-06
9.91901e-07
9.69664e-07
2.97588e-06
-1.5086e-06
3.18833e-07
-1.71052e-06
-1.78032e-07
-1.99473e-06
-3.93416e-06
-3.70117e-06
-3.43015e-06
-2.41447e-06
7.46115e-06
-1.65018e-06
-3.57778e-06
-3.62098e-06
-2.32533e-06
-3.10759e-06
2.49159e-06
6.64244e-06
9.66058e-07
2.52907e-06
5.46212e-06
5.80753e-06
5.40839e-06
-6.24677e-06
-4.96995e-06
-2.33869e-07
2.57271e-06
-4.72287e-06
-6.66586e-07
2.81338e-06
2.49928e-06
-3.89496e-06
2.40935e-06
-5.62329e-06
-3.56534e-07
1.0385e-06
-1.94028e-06
-2.24565e-06
-3.46204e-06
-2.87479e-06
-3.33401e-06
-3.88345e-06
-2.96337e-06
-1.47194e-06
2.72565e-06
1.94526e-07
2.14036e-06
-3.85805e-06
-7.84702e-07
1.29552e-06
4.50353e-07
-1.50601e-06
-2.21001e-06
-1.92854e-06
-2.00746e-06
7.17361e-06
3.27956e-06
-3.85682e-06
)
;

boundaryField
{
    back
    {
        type            empty;
    }
    front
    {
        type            empty;
    }
    left
    {
        type            zeroGradient;
    }
    top
    {
        type            zeroGradient;
    }
    right
    {
        type            zeroGradient;
    }
    bottom
    {
        type            uniformFixedValue;
        uniformValue    
        {
            type            scale;
            scale           
            {
                type            squarePulse;
                start           0.3;
                duration        0.3;
            }
            xScale          
            {
                type            constant;
                value           1;
            }
            value           
            {
                type            constant;
                value           15.1;
            }
        }
        value           uniform 0;
    }
}


// ************************************************************************* //
