/*--------------------------------*- C++ -*----------------------------------*\
  =========                 |
  \\      /  F ield         | OpenFOAM: The Open Source CFD Toolbox
   \\    /   O peration     | Website:  https://openfoam.org
    \\  /    A nd           | Version:  9
     \\/     M anipulation  |
\*---------------------------------------------------------------------------*/
FoamFile
{
    format      ascii;
    class       surfaceScalarField;
    location    "0.64";
    object      phi;
}
// * * * * * * * * * * * * * * * * * * * * * * * * * * * * * * * * * * * * * //

dimensions      [0 3 -1 0 0 0 0];

internalField   nonuniform List<scalar> 
663
(
-1.09164e-11
4.15989e-12
6.75653e-12
7.65614e-12
8.29463e-12
-1.16829e-13
1.16829e-13
1.78224e-12
-8.91682e-13
-8.90554e-13
-3.7561e-12
1.14122e-11
4.67187e-15
-1.21501e-13
-5.35333e-12
-5.56309e-12
5.97058e-13
1.18518e-12
-5.66668e-12
1.78497e-12
3.88171e-12
5.68386e-12
-1.13505e-11
-1.17727e-11
1.59326e-11
9.0232e-12
-1.01566e-11
1.13343e-12
-3.56836e-12
1.02607e-11
-1.2375e-12
-2.72269e-12
4.9541e-12
-2.23142e-12
-3.23519e-12
5.12505e-13
2.10036e-12
-1.11278e-12
-9.87574e-13
2.01773e-12
8.2631e-14
8.62941e-14
-8.62941e-14
4.94288e-12
-5.44285e-12
4.99972e-13
-7.45777e-13
5.68866e-12
-2.15237e-12
-2.16616e-12
4.31853e-12
-4.71213e-12
2.55975e-12
-2.22419e-12
1.83469e-12
3.895e-13
1.93034e-13
-1.08472e-12
-1.24163e-12
-9.82566e-13
-6.59972e-12
7.09725e-12
-4.97529e-13
1.88066e-12
-6.87088e-13
-1.19358e-12
-7.08878e-12
4.89052e-13
3.3339e-12
-2.85144e-12
-4.82465e-13
1.52988e-12
1.80403e-12
3.79824e-12
-2.12096e-12
-1.67728e-12
5.457e-13
3.25254e-12
-2.15027e-12
1.08178e-12
1.06848e-12
-5.15522e-14
-2.09871e-12
1.24775e-12
7.6998e-13
3.49889e-12
-2.25115e-12
-2.95675e-13
3.81969e-13
4.6265e-13
1.41801e-12
2.32466e-12
8.33885e-14
-2.40805e-12
-2.64218e-12
-2.80067e-12
4.76185e-12
-5.6445e-12
8.82657e-13
4.97221e-14
5.24151e-12
1.85575e-12
-4.91512e-12
-9.10529e-13
-2.77605e-12
5.3842e-12
-2.60815e-12
-5.02981e-12
4.67802e-12
3.51787e-13
-8.44619e-13
8.44619e-13
-9.82763e-13
2.03832e-12
-4.6805e-12
2.5035e-12
4.54586e-13
-2.95809e-12
-4.76203e-12
8.80386e-13
3.88164e-12
1.01153e-13
-3.52763e-12
3.42648e-12
5.86198e-12
-5.76082e-12
-1.41867e-12
3.92217e-12
-4.19471e-12
-2.3211e-12
-1.3819e-12
3.70301e-12
3.13129e-12
-5.4524e-12
-3.78403e-12
-9.77994e-13
-3.81969e-13
-9.49278e-12
1.17524e-11
-2.25957e-12
-3.18621e-12
-6.22637e-14
3.24847e-12
2.20365e-12
-3.80174e-12
1.59809e-12
-3.59382e-12
9.27768e-12
-8.41564e-13
-2.68607e-12
-8.93677e-13
2.31968e-12
-1.426e-12
1.29921e-12
-1.06393e-11
-2.10324e-13
6.0723e-12
4.59146e-12
-1.46017e-12
-1.30866e-11
-3.8658e-12
-3.22298e-12
-1.59746e-12
-3.43234e-12
1.89768e-12
-4.80551e-12
2.90783e-12
-1.54008e-12
2.5904e-12
-3.48408e-12
-4.29703e-12
1.10536e-11
-3.91605e-12
2.53415e-12
1.08831e-12
1.03691e-11
8.80996e-13
-1.12501e-11
-7.50224e-13
7.15549e-13
3.46744e-14
6.56419e-13
-4.62981e-12
3.9734e-12
2.76041e-13
8.21546e-14
-3.58196e-13
1.10255e-11
-2.57644e-12
-6.09771e-13
3.76707e-12
7.98529e-12
-4.74183e-13
-2.73582e-12
2.10927e-12
6.26547e-13
5.21039e-12
-3.31271e-12
8.76592e-12
-1.22056e-11
-1.21115e-12
-1.1771e-12
2.38825e-12
-8.46523e-12
-1.91723e-12
1.03825e-11
1.35134e-13
-1.34629e-12
2.52814e-12
-1.7124e-12
-1.8697e-13
9.0252e-13
6.21149e-13
-2.69296e-12
2.07181e-12
1.65095e-12
-5.21931e-12
-1.79168e-12
-9.4414e-13
-6.90637e-13
5.36866e-12
1.28916e-12
-3.08084e-12
6.60656e-13
-2.78162e-12
1.74244e-12
-4.62981e-12
8.21545e-14
-1.74823e-13
2.4945e-12
-6.3382e-13
9.39974e-12
-5.03747e-12
6.1759e-12
-1.13843e-12
-9.04264e-13
-1.45923e-12
2.36349e-12
3.78674e-12
-1.35192e-12
6.30352e-12
-5.68237e-12
-2.89039e-13
2.39831e-12
-1.89436e-12
3.18352e-12
-3.9734e-12
3.33958e-12
3.45277e-13
3.58196e-13
-7.03473e-13
-2.69296e-12
1.80757e-12
-1.46229e-12
-5.7281e-12
-3.389e-12
5.03995e-12
7.82543e-12
-4.05836e-12
-9.6253e-12
4.06221e-12
2.01502e-12
-3.69804e-12
2.79378e-12
4.87164e-12
2.95379e-12
7.42735e-13
-2.20197e-12
1.86157e-12
-1.91312e-12
3.84199e-12
-3.84199e-12
1.2101e-12
-3.10446e-12
-5.94145e-13
-2.63641e-12
3.23055e-12
3.33958e-12
-7.03472e-13
6.63319e-13
-1.85689e-12
-1.93246e-12
1.93246e-12
1.14707e-12
-1.74121e-12
2.49863e-12
-4.28362e-12
2.82345e-12
2.89448e-12
-1.14707e-12
4.43596e-13
-5.84011e-13
-4.2215e-12
-2.08924e-12
3.29934e-12
1.33339e-12
-2.95429e-12
-8.47454e-13
-2.11544e-12
1.8298e-13
8.58145e-13
-2.94739e-12
-3.92918e-12
8.24714e-13
6.90948e-12
-2.25424e-12
-4.65524e-12
-2.0408e-12
-1.65724e-12
6.46617e-13
1.74121e-12
1.91247e-13
-1.30842e-12
1.95637e-13
-1.99559e-12
2.85373e-12
1.48264e-12
2.1941e-12
7.20564e-12
1.57215e-12
-4.59153e-12
3.01937e-12
4.5724e-13
-2.45283e-12
-5.17374e-13
3.42521e-12
-2.11544e-12
2.60214e-13
-2.37566e-12
4.2662e-12
-2.69405e-12
-4.71571e-12
4.97593e-12
3.42488e-13
-2.20484e-12
1.86235e-12
9.70425e-13
-9.70425e-13
5.36424e-13
4.34e-13
1.01794e-11
1.4878e-12
-2.07181e-12
-4.80257e-12
-1.4878e-12
-3.84612e-13
1.12735e-12
-1.54238e-12
1.99962e-12
-1.3991e-12
-1.43284e-13
3.59342e-12
3.31607e-12
3.75037e-13
-2.47546e-13
-1.27491e-13
3.52343e-12
-4.92253e-12
-3.93838e-13
1.19848e-12
-8.04637e-13
-9.85435e-14
9.85435e-14
2.76494e-13
-4.57078e-13
7.99567e-13
4.57079e-13
-3.58535e-13
2.20574e-13
-6.14411e-13
2.20573e-13
1.51813e-13
-5.36424e-13
-5.17565e-12
-4.15078e-13
5.59073e-12
-1.51813e-13
3.72387e-13
2.14082e-12
-2.14082e-12
1.93001e-13
-1.18421e-12
-4.26819e-12
-5.05125e-12
3.86704e-12
-5.46149e-12
-5.56016e-12
5.34983e-12
3.05763e-14
-4.74449e-12
-3.06756e-13
2.36439e-12
-2.33382e-12
-5.50023e-12
7.55741e-13
2.33382e-12
2.36439e-12
2.21399e-12
-2.21399e-12
1.90724e-12
-6.14411e-13
1.29921e-12
-1.32474e-12
1.32474e-12
-2.37566e-12
7.99567e-13
2.48377e-12
-2.48377e-12
1.90724e-12
2.76494e-13
1.504e-13
4.72187e-13
-9.84848e-13
-8.84776e-13
-1.00072e-13
-4.1259e-13
-2.12132e-12
-2.81108e-12
4.9324e-12
-1.32909e-12
9.16502e-13
2.69003e-13
-1.85232e-12
-4.40577e-12
1.59469e-12
-2.69896e-12
-1.70681e-12
3.09323e-12
-4.0638e-12
5.65849e-12
6.81831e-13
8.11729e-13
2.40775e-12
-3.21948e-12
3.84907e-12
-3.03734e-12
-2.01713e-12
-1.76214e-12
4.16989e-12
1.0761e-12
-3.07366e-12
-1.45818e-13
2.14225e-12
-1.96123e-12
1.28724e-12
-2.74971e-12
-1.78642e-12
4.58468e-13
-5.91996e-12
-2.46987e-12
2.32405e-12
-1.91719e-12
-2.95737e-12
4.87498e-13
-4.2566e-13
3.04127e-12
-1.84632e-12
-1.19496e-12
3.16959e-12
1.3899e-12
-3.17633e-12
-1.56746e-12
-9.12511e-13
3.76624e-12
-1.91719e-12
1.47381e-12
-3.07764e-12
2.44841e-12
6.29227e-13
-1.4213e-12
2.89511e-12
3.30836e-12
-6.25656e-13
-2.68271e-12
1.64496e-12
-3.06627e-12
1.84751e-12
-5.14623e-12
3.29871e-12
-1.43267e-12
6.11371e-12
1.87569e-12
3.06163e-12
-5.64072e-12
3.40931e-12
-3.79066e-12
-1.35557e-12
-4.61132e-12
-1.49037e-12
3.36606e-12
1.53768e-12
-4.23172e-12
-2.34201e-12
-4.58535e-12
2.25298e-12
-3.74335e-12
-4.1658e-13
-1.49066e-12
1.49066e-12
2.08202e-12
-4.69441e-12
4.62687e-13
2.67316e-12
2.2132e-13
4.89825e-13
-3.85947e-12
7.26878e-12
-1.17184e-12
-3.52257e-12
4.51867e-13
1.03879e-12
6.80711e-12
-3.85332e-12
-1.52155e-12
-5.76337e-12
-2.02066e-12
-3.7427e-12
4.78644e-12
-3.52066e-12
-3.8245e-12
6.48189e-13
3.27532e-12
-1.03879e-12
4.24379e-13
-2.18941e-13
-1.53446e-13
6.32608e-12
-1.63587e-12
-3.64128e-12
1.14922e-11
-7.85092e-12
1.79547e-12
3.49609e-12
2.80258e-15
1.19329e-12
1.87297e-12
-2.87941e-13
7.85226e-12
-1.76797e-12
5.22485e-12
4.63321e-12
-3.15057e-12
1.1107e-13
3.63228e-12
-2.16989e-12
8.49596e-12
-3.22579e-13
9.19637e-13
8.22663e-12
-1.12205e-12
-1.72939e-12
-2.23064e-12
-1.78903e-12
1.78903e-12
4.75326e-12
4.21426e-12
1.4744e-12
5.51909e-12
4.31023e-13
3.24133e-13
-3.24133e-13
5.98059e-12
-1.82488e-12
3.19648e-12
-5.17168e-13
5.17168e-13
-1.43025e-12
-1.94588e-13
1.94588e-13
-5.00677e-12
-1.00442e-11
-6.83529e-12
-1.81173e-12
-4.51693e-14
-1.46905e-12
1.94136e-12
-1.80626e-12
4.46765e-12
4.67187e-15
4.46765e-12
4.67187e-15
-6.42647e-12
1.47211e-11
1.7368e-13
-5.68503e-14
-4.15316e-13
-8.68264e-14
1.62163e-13
1.40154e-11
9.43762e-15
-9.57316e-14
8.23997e-13
1.03757e-12
2.60449e-12
-1.94476e-12
3.70554e-14
1.57533e-13
-1.98624e-12
4.0458e-12
-6.96506e-13
-6.11915e-13
1.98624e-12
6.57708e-12
-3.72866e-12
-1.39546e-12
1.50116e-12
8.82955e-13
-4.624e-13
8.20935e-13
-3.33211e-13
-1.42563e-12
-3.03285e-12
-1.46949e-12
-1.4286e-12
4.72131e-13
-5.54762e-13
-4.06099e-12
1.91874e-12
1.0368e-12
-1.0368e-12
2.13173e-12
3.57315e-12
-3.44813e-12
-7.32694e-13
3.54568e-12
-7.36187e-12
8.40402e-12
1.7368e-13
9.00861e-12
3.70554e-14
5.10377e-12
1.00934e-12
4.39995e-12
-4.39995e-12
9.4378e-15
-3.73923e-12
9.4378e-15
-2.51549e-12
-8.83505e-12
6.61291e-13
-7.0646e-13
6.95216e-13
-8.45669e-13
1.50453e-13
-2.35459e-12
-7.2625e-13
2.60449e-12
-3.21472e-13
2.13177e-13
-6.64323e-12
-1.39546e-12
-8.82955e-13
-9.52112e-14
4.72131e-13
5.54762e-13
3.04823e-12
3.5482e-12
-3.68008e-12
-1.12033e-12
-1.70882e-12
-4.92381e-14
-4.64933e-14
3.7071e-13
)
;

boundaryField
{
    back
    {
        type            empty;
        value           nonuniform List<scalar> 0();
    }
    front
    {
        type            empty;
        value           nonuniform List<scalar> 0();
    }
    left
    {
        type            calculated;
        value           uniform 0;
    }
    top
    {
        type            calculated;
        value           uniform 0;
    }
    right
    {
        type            calculated;
        value           uniform 0;
    }
    bottom
    {
        type            calculated;
        value           nonuniform List<scalar> 8(-1.59508e-11 -5.95011e-12 1.5051e-11 -8.22375e-12 -1.48305e-11 8.13918e-12 1.56518e-11 6.11311e-12);
    }
}


// ************************************************************************* //
