/*--------------------------------*- C++ -*----------------------------------*\
  =========                 |
  \\      /  F ield         | OpenFOAM: The Open Source CFD Toolbox
   \\    /   O peration     | Website:  https://openfoam.org
    \\  /    A nd           | Version:  9
     \\/     M anipulation  |
\*---------------------------------------------------------------------------*/
FoamFile
{
    format      ascii;
    class       volVectorField;
    location    "0.64";
    object      U;
}
// * * * * * * * * * * * * * * * * * * * * * * * * * * * * * * * * * * * * * //

dimensions      [0 1 -1 0 0 0 0];

internalField   nonuniform List<vector> 
464
(
(-0.000114492 -0.000296558 4.30279e-24)
(-7.80403e-05 0.000424944 0)
(1.2993e-06 1.69335e-06 0)
(4.20404e-05 -1.86734e-06 1.82216e-22)
(-5.45366e-05 0.000354977 0)
(1.09334e-06 1.60817e-06 -6.35148e-23)
(-0.000118421 -0.000217152 9.54948e-23)
(3.98376e-05 -8.30446e-06 0)
(-0.000137585 2.36214e-05 -3.26955e-23)
(-0.000132178 0.0001971 -7.84821e-23)
(-9.22893e-05 -0.000377745 7.50328e-24)
(-4.15314e-05 -0.000313359 -8.07534e-24)
(-0.000129765 -6.63802e-05 -4.56018e-23)
(-3.2533e-05 -0.00027414 0)
(-2.80942e-05 -0.000136906 1.41726e-22)
(-1.6766e-05 -9.8494e-05 -2.4161e-22)
(-1.90656e-05 5.26564e-05 0)
(-1.22643e-05 5.30751e-05 4.13631e-23)
(1.97935e-06 -1.44429e-06 -5.00485e-23)
(-1.19149e-05 0.000165611 1.33936e-22)
(-2.67291e-06 0.000176748 -2.04106e-22)
(4.10843e-05 0.000128743 6.40512e-23)
(4.51186e-05 0.000133844 -2.88329e-23)
(4.76584e-05 1.43946e-05 0)
(3.04649e-05 1.07823e-06 -1.87157e-22)
(4.71769e-05 2.37535e-05 1.06632e-22)
(-2.37118e-05 -0.000191418 -1.53428e-22)
(2.44322e-05 -3.52413e-05 -6.30423e-23)
(-3.35148e-05 -0.00021562 0)
(4.15955e-05 7.40402e-05 0)
(5.12282e-05 6.28226e-05 1.45652e-23)
(-5.76791e-05 -7.51635e-05 -6.60859e-25)
(-4.73808e-05 -8.78417e-05 1.61204e-23)
(-3.89323e-05 -1.92995e-05 6.30337e-23)
(-4.8401e-05 -9.73657e-06 -6.35275e-23)
(-1.22188e-05 7.0261e-05 -5.67307e-23)
(-2.30641e-05 9.50886e-05 4.79515e-23)
(4.64975e-06 -8.48175e-06 -6.51058e-24)
(1.8664e-05 -4.23955e-05 1.05916e-23)
(-1.64266e-05 -7.22302e-05 0)
(-2.10098e-05 0.000161908 1.51575e-22)
(2.5239e-05 0.000162739 0)
(3.62646e-05 0.000149029 -7.16681e-23)
(-1.87525e-05 -0.000219566 -2.21137e-22)
(-3.92446e-05 -0.000279965 2.2511e-22)
(-2.52493e-05 -9.79416e-05 1.08855e-23)
(5.68286e-05 -0.000109731 9.72849e-23)
(1.56215e-05 -0.000126621 1.27969e-23)
(4.12191e-06 -1.59714e-05 0)
(1.31974e-05 -1.96542e-05 6.30316e-24)
(-2.00322e-05 0.000165117 -9.31397e-23)
(2.10521e-05 -7.11779e-05 -6.60526e-26)
(-8.29051e-06 0.000120016 -1.63961e-23)
(4.44381e-06 -0.000111722 -1.43463e-22)
(3.96076e-06 -0.000163287 -4.63913e-24)
(3.03258e-05 -9.64909e-05 4.31475e-23)
(4.98437e-05 -0.00010134 0)
(-6.32501e-05 -8.46888e-05 0)
(-5.00235e-05 -0.000121675 -2.2109e-22)
(-1.55468e-05 0.000127726 0)
(6.94745e-06 -2.22786e-05 -8.90258e-24)
(-7.4245e-05 0.000322013 4.23723e-22)
(-7.73596e-05 -3.84504e-05 3.3663e-22)
(-3.84974e-05 -7.41949e-05 -1.62109e-22)
(-0.000115159 0.00024354 -2.16715e-23)
(1.98701e-05 -7.55199e-05 -1.44725e-22)
(-4.52983e-05 -4.88135e-05 -2.29421e-22)
(7.71612e-06 -3.98026e-05 3.76885e-23)
(-6.86469e-05 -0.00035695 -7.62472e-23)
(-6.15969e-06 -0.000174535 1.69788e-22)
(-4.46462e-05 -0.000114537 2.20648e-22)
(-9.0756e-05 0.000331065 -2.16637e-22)
(-3.53793e-05 -0.00018925 0)
(2.66239e-05 -0.000127995 6.61195e-23)
(-3.52769e-05 0.000117889 -3.14948e-22)
(3.03389e-05 -6.43513e-05 5.15632e-23)
(-5.59996e-05 -6.16394e-05 -2.29946e-22)
(-0.000122789 -0.000246816 -1.09439e-22)
(-6.05096e-05 -6.5039e-05 -1.65161e-22)
(-1.92471e-05 -0.000144778 1.16218e-22)
(-5.07578e-05 0.000351703 0)
(1.14632e-05 1.15745e-05 6.14261e-23)
(-1.31027e-05 0.000164531 -4.4819e-22)
(4.04953e-06 8.05883e-06 3.51651e-22)
(-3.39455e-05 0.000290019 0)
(-7.08358e-05 -6.48464e-05 3.05136e-24)
(-8.61945e-05 0.000280762 -2.09274e-22)
(1.19184e-05 1.82876e-05 0)
(6.36778e-05 -1.74541e-05 0)
(-6.03615e-05 0.000126649 -2.26439e-22)
(-4.5199e-05 0.000303982 3.09136e-22)
(-7.75622e-05 0.00037871 0)
(-5.17457e-05 -4.83242e-07 2.3079e-22)
(-5.33607e-05 -0.000359936 -1.79408e-22)
(-4.28742e-05 1.53224e-05 -2.27038e-22)
(-7.13252e-05 -4.34341e-05 -1.68333e-22)
(-4.69996e-05 -0.000100526 1.65544e-22)
(2.08222e-05 1.42064e-05 -5.63354e-23)
(-9.0968e-06 9.04675e-05 -4.48885e-22)
(-0.000128106 9.40453e-06 1.71914e-23)
(6.62907e-05 1.90837e-06 0)
(1.8456e-05 -0.000152267 2.05242e-23)
(7.34019e-05 1.53259e-05 0)
(-5.36551e-05 -5.23685e-05 6.46721e-25)
(-4.12989e-05 -4.23203e-05 0)
(-8.69709e-06 9.62618e-05 -2.99419e-22)
(1.52607e-06 1.29639e-06 0)
(-5.33975e-05 -3.05481e-05 2.25056e-22)
(-2.90096e-05 0.000247219 -3.09509e-22)
(2.61244e-05 -0.000155018 0)
(-4.64109e-05 4.84809e-05 0)
(4.35348e-05 -0.00013226 -9.93126e-23)
(-4.31319e-05 -1.63518e-05 0)
(-2.66732e-05 0.000162582 3.22226e-22)
(6.79968e-05 -3.36892e-05 3.87917e-24)
(8.13901e-05 2.92234e-06 -2.59094e-24)
(-1.00209e-05 0.000139008 4.54146e-22)
(5.76369e-06 2.09391e-05 4.06176e-22)
(-5.3631e-06 5.33065e-05 3.61197e-22)
(1.71297e-05 4.17287e-05 -2.06089e-23)
(3.02988e-05 -0.000157143 1.05899e-22)
(-0.000124645 -6.38643e-05 -7.78883e-25)
(-0.000109962 0.000200321 1.06968e-22)
(-0.000105117 -0.000255557 -7.67844e-23)
(-5.57936e-05 -9.27355e-05 0)
(-6.00226e-05 6.28248e-05 2.25727e-22)
(-0.000117392 0.000130325 -1.07899e-22)
(-2.6626e-05 4.4512e-05 0)
(-4.75051e-05 1.01058e-05 0)
(-6.29917e-06 7.98883e-05 3.47256e-22)
(2.88617e-06 6.86747e-06 -2.73104e-22)
(-6.56901e-06 -8.27089e-05 -3.09762e-22)
(3.16692e-06 -6.85701e-06 7.13798e-24)
(8.31326e-05 2.20788e-05 0)
(1.79423e-05 9.48077e-05 0)
(-5.55024e-06 6.63361e-05 -3.60204e-22)
(3.46133e-06 1.44198e-05 -6.18928e-22)
(4.10184e-05 -3.88168e-05 -1.19553e-22)
(-0.000121176 0.000159571 1.01925e-22)
(2.00483e-06 4.04469e-05 2.25104e-22)
(6.84907e-06 5.58938e-05 0)
(-5.36389e-05 2.99416e-05 0)
(-2.67385e-05 -0.000109549 -1.07655e-23)
(7.78422e-05 -2.95191e-05 1.43884e-22)
(6.79096e-06 3.69841e-05 3.84517e-22)
(-2.48603e-05 0.000122365 -3.22985e-22)
(8.33877e-05 2.81223e-06 0)
(2.26628e-05 3.43718e-05 0)
(-2.31726e-05 -0.000110693 3.16062e-24)
(3.14761e-06 8.06242e-05 -5.05281e-22)
(7.79286e-05 3.04059e-05 6.3676e-24)
(7.41296e-05 5.92175e-05 2.02294e-22)
(-0.000105894 -0.000127561 5.08283e-23)
(-5.30189e-05 8.51956e-05 -2.26728e-22)
(-9.43307e-06 0.000114494 -3.87737e-25)
(4.94112e-06 7.16143e-05 -3.55046e-22)
(-1.37874e-05 3.07261e-05 0)
(7.22802e-05 5.0959e-06 0)
(-0.000124775 2.82025e-06 -2.02799e-23)
(-4.19681e-05 0.000255975 3.25267e-22)
(-0.000116863 2.80568e-07 0)
(6.19468e-05 3.68113e-05 -1.73544e-22)
(-2.19508e-05 8.55922e-05 6.25784e-22)
(1.33793e-06 4.47323e-05 3.50008e-23)
(7.07138e-07 8.74651e-05 1.91074e-22)
(3.92669e-06 2.41816e-05 0)
(-0.000111017 -3.56096e-05 -4.64419e-23)
(1.5499e-06 0.000147182 1.57192e-22)
(-1.8379e-05 -5.11636e-05 -1.28166e-22)
(-3.96625e-06 1.90464e-05 6.56709e-22)
(-6.08942e-06 2.85868e-05 -8.36374e-24)
(-7.07928e-05 0.000271823 -2.24043e-22)
(-8.45782e-06 6.74394e-05 -8.06834e-24)
(2.62161e-05 0.000124853 -6.36336e-23)
(-7.35345e-06 4.65906e-05 8.8363e-24)
(-1.67333e-05 2.49829e-05 -2.99738e-22)
(5.08071e-05 3.37446e-06 1.717e-22)
(3.63331e-05 3.95463e-05 -6.47901e-25)
(-9.78794e-05 -0.000178279 7.31621e-23)
(-1.58954e-05 3.72683e-06 -1.64909e-23)
(3.22745e-05 0.000111063 1.72324e-22)
(-1.70324e-05 -2.75923e-05 2.9689e-22)
(-2.9904e-06 -1.82463e-06 0)
(-4.67939e-06 2.59236e-06 1.94127e-22)
(-4.59801e-06 -2.59082e-05 2.3981e-23)
(-5.07506e-06 -1.144e-05 5.78431e-24)
(-5.6701e-06 -1.57084e-05 0)
(-3.23834e-06 -4.47064e-06 -3.04074e-22)
(-4.64338e-06 2.9246e-05 -6.86449e-22)
(-5.34718e-06 1.30777e-05 6.80169e-25)
(7.75213e-06 -0.0001661 -1.26392e-25)
(-5.22929e-06 -1.17585e-06 3.80361e-22)
(2.4399e-06 -4.26076e-05 -5.80263e-23)
(8.88655e-06 -0.000143082 -9.49142e-23)
(-3.69576e-05 -0.000143307 2.28353e-25)
(-2.23268e-05 -0.000137675 -2.29084e-25)
(-2.53188e-06 0.000168052 -1.44533e-22)
(1.27761e-05 -0.000171954 1.25042e-25)
(-2.9971e-06 -9.48035e-06 1.93493e-22)
(-3.75037e-06 -0.000168435 1.82138e-22)
(1.32561e-06 -0.000150921 0)
(-1.26019e-05 -0.000133017 0)
(4.63113e-07 -8.89355e-05 0)
(-1.4292e-05 -0.000158258 1.9969e-25)
(-3.17519e-06 2.89001e-06 0)
(3.32781e-06 -8.43784e-05 -3.20576e-23)
(-5.23544e-07 -4.75473e-05 0)
(-1.96432e-06 -4.44785e-05 -1.88513e-22)
(-4.66529e-06 -7.79515e-05 2.99313e-22)
(-5.08379e-06 4.08738e-05 3.53469e-22)
(3.54613e-06 3.53771e-05 2.64922e-22)
(-3.47428e-06 -1.23491e-05 0)
(4.08126e-06 -2.5408e-05 -3.02584e-23)
(-3.24413e-06 3.04057e-05 4.43456e-23)
(-6.28322e-07 4.82729e-05 0)
(-3.41445e-06 1.04634e-05 -3.17433e-22)
(-2.74308e-06 -1.71838e-05 -2.07069e-22)
(1.01696e-06 -4.68725e-05 6.78157e-23)
(-5.86144e-06 -5.32802e-05 -9.78158e-24)
(-3.06861e-06 -3.83078e-05 -2.39502e-22)
(-3.2438e-06 5.21452e-06 -1.44247e-22)
(-2.29404e-06 -8.66209e-05 2.35758e-22)
(-6.23679e-06 -0.000147157 -1.82358e-22)
(-1.05262e-05 -7.76055e-05 3.06654e-22)
(2.06878e-05 3.11277e-06 1.65515e-22)
(4.24899e-06 4.29476e-05 -1.56814e-22)
(-1.1485e-05 4.53464e-06 0)
(-4.63271e-05 0.000104809 6.01489e-23)
(-2.58209e-05 4.0233e-05 -3.61946e-24)
(-4.05432e-05 7.75917e-07 -1.42218e-22)
(-5.28755e-05 3.7009e-05 1.40955e-22)
(-4.9242e-05 0.000118427 -7.22853e-24)
(-6.28085e-05 8.55577e-05 0)
(-7.33304e-05 -5.27679e-05 -1.68007e-22)
(-3.6982e-05 0.000142541 4.92301e-23)
(-6.39696e-05 2.55786e-06 0)
(-6.49701e-05 6.61611e-05 -6.78126e-24)
(-7.09203e-05 6.39668e-05 -7.44334e-24)
(-7.05105e-05 3.1641e-05 1.23379e-22)
(-4.69783e-05 8.2079e-05 -1.23674e-23)
(-7.72738e-05 9.33361e-07 -1.26044e-22)
(-7.14272e-05 4.28633e-05 -4.79299e-23)
(-6.1415e-05 9.23963e-05 6.21831e-23)
(-7.92047e-05 2.31083e-05 0)
(-8.17959e-05 -3.60427e-08 0)
(-3.51718e-05 6.57406e-05 -1.4263e-23)
(-8.01328e-05 1.46502e-05 -2.2499e-24)
(-5.54347e-06 0.000147969 0)
(-6.21788e-05 3.86683e-05 0)
(-3.53501e-06 8.3951e-05 0)
(-6.83376e-05 2.02065e-05 -3.15959e-23)
(-4.49341e-05 4.68386e-05 4.80169e-23)
(-7.22557e-05 -8.029e-06 -1.58943e-22)
(-6.86918e-05 9.95584e-05 2.27139e-22)
(-7.99823e-05 -5.93295e-07 0)
(-7.70631e-05 6.3152e-06 0)
(6.91377e-05 -5.69834e-05 0)
(-3.84778e-06 4.27627e-05 -1.0094e-23)
(-7.63893e-05 -8.73815e-07 -8.88685e-23)
(-7.08301e-05 -2.21982e-05 0)
(-7.49021e-05 -1.36354e-06 8.46147e-23)
(-7.84622e-05 2.29074e-05 2.95683e-22)
(-7.72071e-05 -1.27887e-06 8.27138e-23)
(-8.32005e-05 -0.000104662 3.0056e-23)
(-7.93367e-05 -8.26227e-06 -8.27157e-23)
(-9.89846e-05 -0.000100635 -9.57081e-23)
(-8.34692e-05 -3.38407e-08 -2.1951e-25)
(5.49448e-05 -4.90478e-05 -3.79138e-24)
(-5.1681e-05 -0.000152571 -9.75621e-23)
(-8.84348e-05 -7.13831e-05 -3.04631e-23)
(1.56113e-05 0.000125728 -2.17555e-22)
(-8.72553e-05 -1.53904e-05 0)
(-0.000107169 -6.23719e-07 4.53541e-23)
(-6.06082e-05 -0.000125129 -4.68139e-23)
(-0.000112697 -0.000189617 1.28036e-23)
(-9.4316e-05 -1.09202e-07 0)
(-9.97897e-05 -2.51491e-05 0)
(-1.68166e-05 -0.000110687 -2.71089e-22)
(-3.63829e-06 -3.00067e-05 0)
(-3.88782e-05 0.000161528 -2.15425e-24)
(-0.000100994 6.01063e-05 7.5878e-25)
(7.51148e-05 -5.37638e-05 -2.04482e-24)
(-6.14257e-06 -6.43401e-05 0)
(1.93029e-05 -9.98059e-05 -4.39515e-23)
(-6.9127e-05 -0.00017495 -8.3317e-23)
(-9.82094e-05 0.000100407 -1.29471e-22)
(-6.61313e-06 -4.79816e-05 -3.74225e-22)
(-0.000107613 0.000166231 0)
(6.06043e-05 -7.87008e-05 0)
(-0.000110044 8.25149e-05 1.32827e-22)
(-0.000104694 0.000132554 7.23776e-25)
(-0.000115015 0.000106323 -6.54113e-25)
(7.11083e-05 -7.41511e-05 -1.39738e-22)
(3.24285e-05 -0.000105933 2.94249e-22)
(-6.83496e-05 -2.15639e-05 1.62523e-22)
(-1.8426e-05 -8.33737e-05 5.75835e-22)
(-6.26475e-06 -3.1349e-05 0)
(-2.45981e-05 1.36074e-05 1.50851e-24)
(-2.48956e-05 -1.60184e-05 -2.97551e-22)
(-8.44351e-05 0.000233169 2.22069e-22)
(-9.28473e-05 -0.000141453 5.72029e-23)
(-0.000118281 -4.46438e-05 -3.87946e-23)
(-7.5221e-05 -0.000271509 -2.7961e-22)
(-3.12652e-05 -0.000294582 2.21056e-22)
(-2.32656e-05 0.000113682 3.12338e-24)
(-6.65546e-05 -4.28784e-07 -1.59049e-22)
(-6.92747e-05 2.11941e-05 -3.01063e-22)
(-1.40948e-05 0.00010137 -7.86092e-24)
(-2.75748e-05 0.000204626 -6.46583e-22)
(-1.88511e-05 5.3368e-05 -3.06407e-22)
(-1.84397e-05 -0.000159864 -1.69826e-22)
(7.97027e-05 -4.41989e-05 4.69242e-25)
(-7.55212e-05 -2.32057e-05 0)
(-0.00012184 -5.44029e-05 -8.98042e-24)
(-7.70544e-05 4.46932e-05 -2.91507e-22)
(-8.80547e-05 7.06085e-05 0)
(-3.69524e-06 -2.09317e-05 2.96665e-22)
(-6.91028e-05 0.000221804 0)
(2.58138e-05 -6.53475e-06 0)
(-0.00011014 -0.000159795 -7.4427e-23)
(4.14046e-05 9.38119e-05 2.05909e-22)
(-2.65159e-05 -4.64901e-05 -1.05152e-24)
(-4.07215e-05 0.000208138 3.25259e-22)
(-1.62272e-05 -1.29839e-06 2.97533e-22)
(-0.000121797 3.09462e-06 6.84254e-23)
(5.67292e-06 -7.36325e-05 2.2914e-23)
(7.35099e-06 -5.78001e-05 2.26681e-23)
(-0.000101994 -0.000217991 7.04595e-23)
(4.94679e-05 -6.7762e-05 0)
(-8.1959e-05 0.000186325 -2.28777e-22)
(9.96077e-06 0.000171092 -9.81581e-23)
(-0.000125117 0.000157405 4.73578e-25)
(6.78533e-06 6.44084e-07 -7.60717e-23)
(-7.27044e-05 6.78266e-06 3.05002e-22)
(-2.36602e-05 -0.000164121 -1.98695e-25)
(4.82307e-05 -6.89349e-05 -1.4475e-22)
(5.10484e-05 0.000105164 -1.99482e-22)
(9.29756e-06 -9.27749e-07 -1.37907e-22)
(-3.06737e-05 7.87523e-05 -4.56655e-24)
(1.39845e-05 0.000172761 1.89634e-22)
(4.09942e-06 -1.5154e-06 7.29031e-23)
(-0.000105638 -0.000401297 0)
(-7.68093e-05 0.000141228 -2.94728e-24)
(-6.60732e-05 0.000172905 2.27154e-22)
(-8.88914e-05 4.03396e-05 1.42694e-22)
(4.04072e-05 -2.59654e-05 5.6121e-23)
(3.653e-06 -3.53567e-05 -1.95382e-23)
(-4.676e-05 -8.20531e-05 2.29278e-22)
(1.65552e-05 6.30246e-08 1.68806e-22)
(-3.71545e-05 -0.000145124 0)
(5.57485e-05 -9.24274e-05 -3.72143e-24)
(1.36959e-05 -2.51327e-06 -8.29187e-23)
(-1.81807e-05 -5.50874e-05 0)
(-2.76633e-05 -7.80654e-05 -2.88794e-22)
(4.50684e-05 -0.000135259 -1.08872e-22)
(-2.5121e-05 0.000224984 1.99427e-22)
(-4.55947e-07 1.61934e-07 0)
(-7.34726e-06 0.000101825 -1.07656e-22)
(9.71743e-08 -3.97638e-07 -1.07817e-22)
(-9.80629e-05 0.000424018 0)
(6.42946e-06 3.56804e-06 -1.16061e-22)
(-0.000134027 -5.90419e-05 6.49179e-23)
(4.48825e-06 4.63829e-06 6.79088e-23)
(-4.30108e-05 0.000327587 0)
(-8.25237e-05 -0.000404969 5.29733e-24)
(1.13935e-06 -6.69266e-07 6.86625e-23)
(4.98927e-05 -1.83641e-05 0)
(-3.8647e-05 1.92493e-05 0)
(-1.26768e-05 -0.000142775 0)
(2.47792e-05 5.98747e-05 1.7237e-22)
(5.20633e-06 -2.61568e-06 0)
(-6.62779e-06 -0.000122467 6.21782e-22)
(-6.26301e-05 -0.000200465 -6.40843e-24)
(-2.06981e-05 2.61367e-05 0)
(-1.04024e-05 -9.90825e-05 1.2949e-23)
(5.5488e-05 5.64418e-06 0)
(-6.68364e-05 -0.000298037 1.59275e-22)
(1.7085e-05 0.000145992 3.65092e-22)
(-7.46832e-06 -8.07031e-05 6.75647e-22)
(2.47262e-05 8.88211e-05 8.18491e-23)
(-4.28426e-06 -3.83997e-05 0)
(-2.51792e-05 -4.26123e-05 1.36403e-22)
(-2.27356e-05 -1.06746e-05 0)
(-6.75037e-05 -3.74473e-05 -1.73041e-24)
(-6.13091e-05 1.20038e-05 7.00227e-24)
(-7.582e-05 -6.81907e-05 0)
(-6.26219e-05 -1.43211e-05 -1.12363e-23)
(3.33026e-05 2.40337e-05 -1.23168e-22)
(-5.05334e-06 1.59086e-05 0)
(-4.9947e-06 4.11435e-05 0)
(-3.59912e-05 0.000130367 -4.48345e-24)
(-4.03055e-05 9.80829e-05 0)
(-4.10012e-06 5.42055e-05 -4.9671e-23)
(-4.9624e-06 6.56669e-05 -1.95335e-23)
(-3.32668e-05 0.000126875 -6.44068e-23)
(3.9958e-05 0.000123493 -1.68966e-22)
(1.6721e-05 0.000137357 0)
(6.69108e-05 8.34525e-05 -4.47915e-22)
(7.14088e-06 0.000157994 0)
(-5.89205e-05 -0.000251783 1.43273e-22)
(-0.000117771 0.00039643 0)
(3.58127e-06 8.91871e-07 0)
(-9.31207e-05 -0.00042883 0)
(6.41661e-07 -1.0525e-06 -4.93685e-23)
(-0.000133985 -5.18922e-06 1.75805e-23)
(-0.000122404 -0.000298158 0)
(-1.10234e-05 -0.000105713 0)
(1.26381e-07 3.81739e-07 7.27751e-23)
(-3.20539e-05 -0.000221382 0)
(-3.94384e-07 1.91034e-08 -9.6539e-23)
(-0.000122581 0.00028 3.02248e-23)
(2.72979e-05 -1.83804e-05 6.71089e-23)
(2.33062e-05 5.83739e-06 0)
(6.73865e-05 3.50447e-05 1.15277e-22)
(3.34579e-05 8.19928e-06 0)
(-9.54327e-05 0.000384096 0)
(-4.53501e-06 -6.80195e-05 0)
(1.5517e-05 -1.51879e-05 3.48297e-24)
(1.82737e-05 8.13163e-06 1.0441e-22)
(-0.000126942 0.000274099 -3.0008e-23)
(2.17673e-05 -1.01724e-05 7.67505e-23)
(1.13202e-05 1.24179e-06 1.10367e-22)
(-8.32114e-05 -0.000314735 8.17149e-23)
(-3.77662e-06 -4.88258e-05 -3.08517e-22)
(-7.53298e-05 -0.0004208 -1.06385e-22)
(-7.60632e-05 -0.000217218 8.68034e-23)
(-4.48332e-06 -3.39901e-05 -2.74231e-22)
(-5.97933e-06 -5.27911e-05 1.80927e-22)
(-2.77067e-06 -2.19848e-05 -1.30611e-22)
(-1.93734e-05 0.000187564 4.35984e-22)
(1.04075e-06 8.49384e-07 1.60647e-22)
(-7.93495e-05 -4.05705e-05 1.86057e-24)
(-1.43606e-05 -2.17207e-05 -6.51898e-24)
(3.37127e-05 3.81509e-05 2.52256e-22)
(-6.8067e-05 -1.22966e-06 4.10012e-23)
(-2.38116e-06 1.07674e-05 0)
(-3.99501e-06 2.5577e-05 -3.62624e-23)
(6.60001e-05 5.77186e-05 -1.20682e-22)
(-2.19401e-06 1.51655e-05 0)
(1.61029e-05 6.3288e-05 -1.73954e-22)
(-4.81808e-05 0.00011169 0)
(-1.68515e-06 2.72422e-05 2.0709e-23)
(-2.41299e-05 0.00010089 6.18116e-24)
(-9.77054e-06 0.000130442 -7.33547e-23)
(7.06637e-05 7.74011e-05 3.25166e-22)
(3.74824e-06 0.000110812 -5.5561e-24)
(5.95862e-05 0.000102583 -1.14767e-22)
(7.64813e-06 0.000131848 -1.28328e-22)
(5.59769e-05 8.935e-05 1.15433e-22)
(-1.14267e-05 0.000157184 2.48751e-23)
(-2.85794e-05 -7.27719e-05 0)
(-0.000134681 -0.000164258 -2.88463e-23)
(-4.65553e-05 -0.00010852 1.06866e-22)
(5.68707e-05 3.44297e-05 0)
(-2.5389e-05 0.000153034 -5.27249e-23)
(-2.38567e-05 1.48083e-05 0)
(-3.58527e-05 3.52189e-05 -2.7264e-23)
(2.7673e-06 -3.26802e-06 -5.43531e-23)
(1.165e-05 -6.26897e-06 -6.43366e-24)
(8.50676e-06 -8.11791e-06 -1.14652e-23)
(1.8812e-07 -5.08393e-07 1.07973e-22)
(-1.25742e-05 -0.000163089 0)
(-5.5228e-05 -0.000344169 1.88583e-23)
(4.68245e-05 4.82946e-05 -3.17001e-22)
)
;

boundaryField
{
    back
    {
        type            empty;
    }
    front
    {
        type            empty;
    }
    left
    {
        type            noSlip;
    }
    top
    {
        type            uniformFixedValue;
        uniformValue    
        {
            type            scale;
            scale           
            {
                type            squarePulse;
                start           0.3;
                duration        0.3;
            }
            xScale          
            {
                type            constant;
                value           1;
            }
            value           
            {
                type            constant;
                value           (0 -0.7 0);
            }
        }
        value           uniform (0 -0 0);
    }
    right
    {
        type            noSlip;
    }
    bottom
    {
        type            zeroGradient;
    }
}


// ************************************************************************* //
