/*--------------------------------*- C++ -*----------------------------------*\
  =========                 |
  \\      /  F ield         | OpenFOAM: The Open Source CFD Toolbox
   \\    /   O peration     | Website:  https://openfoam.org
    \\  /    A nd           | Version:  9
     \\/     M anipulation  |
\*---------------------------------------------------------------------------*/
FoamFile
{
    format      ascii;
    class       surfaceScalarField;
    location    "2.79";
    object      phi;
}
// * * * * * * * * * * * * * * * * * * * * * * * * * * * * * * * * * * * * * //

dimensions      [0 3 -1 0 0 0 0];

internalField   nonuniform List<scalar> 
1363
(
-5.08327e-07
3.30654e-07
1.77673e-07
2.09178e-07
-1.98635e-07
-1.05435e-08
7.59833e-07
-6.01432e-07
-1.58401e-07
-1.55207e-07
4.6431e-07
-3.09104e-07
7.13722e-07
4.61104e-08
3.7944e-07
5.22252e-08
-4.31665e-07
-9.37665e-08
9.37665e-08
5.66798e-07
-1.87358e-07
-2.94359e-07
3.03196e-07
-8.83738e-09
1.46717e-08
-3.09031e-07
-4.45851e-07
4.39738e-07
6.11342e-09
9.52126e-07
-9.53055e-07
9.28947e-10
3.40801e-07
-4.96007e-07
-4.58418e-07
4.62086e-07
-3.66772e-09
5.54496e-07
3.9763e-07
1.86298e-07
2.28798e-08
8.38954e-08
-2.3493e-07
1.51035e-07
-2.5632e-07
-2.52007e-07
1.80336e-07
-4.58892e-08
-1.34446e-07
-1.67238e-07
1.67238e-07
4.14303e-08
4.24651e-08
-7.55381e-08
-8.77517e-07
-1.77865e-07
4.93523e-09
1.7293e-07
-4.20345e-08
2.3843e-07
-1.96395e-07
-1.7206e-07
-2.73791e-07
2.39024e-07
-2.81059e-07
7.1305e-07
-6.8109e-07
-3.19599e-08
-2.2467e-07
4.68045e-08
-2.26964e-07
3.66175e-07
-1.39212e-07
-1.97351e-08
-3.5566e-07
3.75395e-07
-2.33077e-07
9.84584e-08
1.34619e-07
4.33421e-09
7.08716e-07
8.23241e-08
-3.09288e-07
8.22842e-08
-3.85303e-07
3.03019e-07
6.73602e-07
-6.03919e-07
-6.96836e-08
-8.00039e-08
2.1441e-07
-1.34406e-07
-4.43479e-07
9.18062e-08
3.51673e-07
3.0044e-07
-1.31422e-07
-1.69017e-07
-2.35703e-07
-2.07777e-07
4.60843e-08
1.92345e-07
6.29368e-07
-3.44653e-07
-2.84715e-07
3.99706e-07
-9.49224e-07
5.49519e-07
-3.9672e-08
8.57564e-08
-4.03857e-08
-5.33808e-08
4.53598e-08
4.84068e-08
3.08172e-07
-5.58703e-08
-2.52301e-07
-5.68403e-08
-3.11431e-09
5.99546e-08
1.91166e-07
-1.08882e-07
5.49647e-08
5.74403e-07
-1.43297e-07
-3.15121e-07
1.03636e-07
7.67e-08
8.37057e-08
-7.87704e-08
1.27885e-08
-9.27924e-08
2.77322e-07
-1.44077e-07
-1.33245e-07
4.11049e-07
-3.96377e-07
-4.10273e-07
-1.29088e-07
5.3936e-07
1.41433e-07
-1.41433e-07
-3.06668e-10
4.11356e-07
-1.2922e-08
1.54355e-07
6.42269e-08
7.00632e-07
-7.64859e-07
-2.0912e-07
1.89385e-07
7.32848e-07
-6.59819e-07
-7.30283e-08
-2.22962e-07
-1.62341e-07
-7.95588e-08
4.10213e-07
1.95525e-07
1.04915e-07
-1.69417e-07
-2.65493e-08
1.95967e-07
5.17578e-08
-2.4116e-08
1.11504e-08
1.29656e-08
3.07358e-07
-7.17631e-07
2.7275e-07
-1.94451e-07
-7.82992e-08
-1.18624e-07
-8.00109e-08
-2.23855e-07
2.09098e-07
1.4757e-08
-2.9377e-07
2.9377e-07
-2.36738e-08
-3.31986e-07
1.85499e-07
9.18222e-08
-1.22773e-07
-4.44644e-08
1.82594e-07
-1.5356e-08
1.37828e-08
-1.7745e-07
-5.56273e-08
1.10839e-07
7.54595e-08
-2.66274e-08
1.04095e-07
-7.74675e-08
3.37482e-07
-3.83818e-07
2.45997e-08
3.59218e-07
-5.85783e-08
1.02113e-07
-1.28662e-07
-8.3817e-07
8.1346e-07
2.47094e-08
4.92088e-07
-4.27861e-07
2.79788e-07
2.52653e-07
-5.32441e-07
1.47814e-07
3.14272e-07
-1.94518e-07
-1.893e-07
6.53687e-07
-2.53982e-07
2.7322e-07
-3.51903e-08
-2.38029e-07
-4.17241e-07
4.16934e-07
2.36808e-07
-3.65896e-07
5.85414e-07
-4.60541e-08
-9.35656e-08
2.46732e-07
-1.53167e-07
-7.98409e-07
-1.50815e-07
-6.09163e-08
3.40704e-07
-1.97631e-07
1.71004e-07
-1.35955e-08
2.15432e-07
-1.11074e-08
-2.04324e-07
3.89934e-08
-4.56234e-07
4.67953e-08
2.32365e-07
2.87184e-07
2.9823e-07
1.82568e-08
1.71128e-07
6.67719e-08
2.414e-07
-1.23875e-08
3.32771e-07
-3.20384e-07
1.45845e-07
-1.69961e-07
3.46472e-08
-2.34968e-08
-2.99427e-07
6.06785e-07
-1.41079e-07
-5.76552e-07
5.05053e-07
-9.43566e-08
-1.29499e-07
1.36546e-07
3.03192e-07
2.7322e-07
-1.72995e-07
-5.87952e-07
7.60946e-07
3.87234e-07
7.70768e-08
-7.41091e-08
6.05136e-08
8.44215e-07
-7.96497e-07
-4.77176e-08
-6.05136e-08
7.87704e-08
-7.65526e-08
-2.63856e-07
3.40409e-07
-3.9672e-08
-2.7089e-07
2.35192e-07
-1.6501e-07
-1.24396e-08
8.37057e-08
1.6808e-07
-8.57564e-08
-1.6808e-07
1.39538e-07
2.85424e-08
1.27885e-08
1.00145e-08
-5.59037e-08
-1.00145e-08
-7.12803e-08
8.12948e-08
5.59037e-08
-5.9018e-08
-1.21474e-07
3.1264e-07
1.21474e-07
2.43708e-08
7.12803e-08
-1.27151e-07
2.51068e-07
-5.50495e-07
5.9018e-08
-2.43708e-08
-6.91574e-07
5.50495e-07
6.91574e-07
-6.3661e-07
-3.1264e-07
6.3661e-07
-3.23969e-07
1.27151e-07
-1.39538e-07
3.32059e-07
1.00459e-08
-1.75056e-07
4.6328e-07
1.03518e-07
-1.16943e-07
2.01828e-08
-2.14634e-07
6.36933e-08
1.45405e-07
2.3433e-07
-3.00904e-07
6.65735e-08
-2.53217e-07
-5.84952e-07
-1.14598e-07
5.77878e-07
8.85065e-07
-8.00078e-07
-8.49865e-08
5.41853e-07
-5.77043e-07
-1.68853e-07
2.06589e-07
-3.77354e-08
-6.48921e-07
4.50026e-08
3.32079e-08
-2.68911e-07
1.9572e-07
-9.36079e-08
-8.16625e-09
6.10894e-08
-5.29231e-08
1.1268e-07
-2.16339e-07
-7.99683e-08
2.75689e-07
2.61977e-07
-2.28769e-07
-4.87174e-07
1.7807e-07
7.82447e-07
-3.61999e-08
-7.46247e-07
8.65294e-07
1.97711e-08
6.49525e-09
-4.28865e-07
4.2237e-07
9.38757e-08
1.21556e-07
3.31232e-07
-9.88673e-08
8.04698e-08
3.64577e-08
-2.78843e-07
-2.14832e-09
5.30233e-07
-5.35416e-08
1.52063e-07
6.61397e-07
-3.78337e-07
2.91568e-07
8.67693e-08
6.86994e-08
1.78033e-07
-1.45077e-07
-2.3326e-07
8.21481e-08
1.5466e-07
-4.34516e-07
3.24788e-07
1.09728e-07
-1.86071e-07
1.72174e-08
2.27345e-07
1.38831e-07
3.26136e-07
-1.42948e-07
-2.79993e-07
2.2054e-07
-6.74695e-07
4.18236e-07
2.56459e-07
-4.17961e-07
6.97781e-09
4.10984e-07
6.14229e-07
-8.67446e-07
4.51627e-07
-1.26839e-07
8.74911e-07
-7.53788e-07
-1.21124e-07
3.48238e-07
1.03389e-07
-2.95836e-07
2.42294e-07
-2.60889e-08
1.60708e-07
-3.40463e-09
-4.14557e-07
5.19634e-07
-1.78833e-07
4.41153e-07
-4.30501e-07
-1.06517e-08
2.09504e-08
-3.65603e-07
5.05678e-08
-5.05678e-08
-7.41091e-08
2.05077e-07
3.14557e-07
-7.91452e-08
7.57406e-08
-1.5446e-07
3.68517e-07
-3.68044e-07
4.84179e-07
-6.79996e-07
6.86974e-07
1.08958e-08
2.65962e-08
-2.4326e-07
4.48337e-07
-2.0884e-07
4.13273e-07
-2.04433e-07
-8.85373e-07
8.12345e-07
-6.90994e-08
-2.10411e-07
4.94992e-07
-2.84581e-07
-2.41361e-07
8.55589e-07
8.82206e-07
-5.59791e-07
-3.22415e-07
-4.97261e-07
6.676e-08
-4.57117e-07
-4.01446e-08
-3.40345e-07
4.86894e-07
-1.46549e-07
3.08433e-07
-5.18844e-07
-1.05266e-07
4.53504e-07
4.67232e-07
-2.52014e-07
-2.15218e-07
7.58464e-08
-7.58464e-08
3.88097e-07
-3.88097e-07
-8.40924e-08
-8.01281e-07
-3.61199e-07
4.72791e-07
-1.11592e-07
2.01612e-07
1.11587e-07
-3.13199e-07
-9.763e-08
3.1817e-07
-6.94598e-07
1.46022e-08
3.32005e-07
-3.32005e-07
-5.58771e-08
5.58771e-08
1.54647e-07
2.01764e-07
-4.45024e-07
6.56054e-07
2.26152e-07
1.25695e-07
1.75523e-07
-5.88262e-07
1.31145e-07
-4.76674e-07
1.37664e-07
1.93568e-07
-9.85054e-08
-3.7853e-07
4.77035e-07
3.15446e-07
-2.28676e-07
-2.66314e-07
3.76042e-07
-7.97511e-08
-3.74286e-07
-7.59421e-08
4.50228e-07
1.82651e-07
1.35378e-07
7.90819e-07
-8.98184e-08
-2.78226e-07
1.45672e-07
-8.9946e-07
-2.97743e-07
4.01133e-07
1.96322e-07
-4.83796e-07
8.13381e-08
3.72165e-07
-5.76384e-07
-3.4783e-07
9.24214e-07
4.91314e-08
-4.86105e-07
3.39557e-07
3.65647e-07
-9.42031e-07
-8.70965e-07
-3.02265e-07
3.83603e-07
-4.09287e-07
3.33344e-07
5.78536e-08
3.94078e-07
-4.51932e-07
6.30778e-08
3.71414e-07
7.88142e-08
5.07802e-07
-1.36388e-07
-8.14557e-07
8.70161e-07
-5.5604e-08
-3.74534e-07
-5.51689e-08
8.67514e-07
-6.68002e-07
-4.78737e-07
8.44384e-07
-4.0542e-07
2.96761e-08
3.75744e-07
-7.8667e-07
6.65546e-07
-9.08674e-09
9.27924e-08
3.09919e-08
1.83418e-07
1.73333e-07
-1.8242e-07
-3.54825e-07
-5.05948e-08
4.5053e-07
-2.85265e-07
-1.65264e-07
-7.56014e-07
8.68694e-07
-3.01647e-08
3.89039e-07
-3.58874e-07
-4.45942e-07
4.15778e-07
3.29769e-07
5.38348e-08
3.87622e-07
3.12595e-07
1.37935e-07
2.77752e-07
-6.52286e-07
-8.63042e-07
3.84305e-07
4.08227e-07
1.49532e-07
-5.57759e-07
-2.66697e-07
2.96373e-07
8.99759e-08
9.3617e-08
-1.83593e-07
7.78038e-07
-9.93475e-07
2.15437e-07
2.20238e-08
-1.9632e-07
-7.97154e-07
2.66556e-07
6.02139e-07
3.60487e-07
4.95465e-07
-8.55952e-07
3.42135e-08
-7.19583e-07
-5.73557e-07
1.29314e-06
-6.07178e-07
-2.47683e-07
8.54861e-07
-3.56154e-07
7.16641e-07
3.97269e-07
7.97663e-08
-5.21692e-07
4.2991e-07
9.1782e-08
1.9395e-07
-1.9395e-07
-4.44644e-08
-2.38029e-07
-5.33808e-08
-1.05225e-07
1.05225e-07
-3.75893e-07
3.75893e-07
-2.7089e-07
9.74593e-07
-3.47704e-07
-6.26889e-07
-1.22911e-07
1.22911e-07
-7.85878e-08
7.85878e-08
-1.2922e-08
5.52707e-08
-5.52707e-08
-3.49894e-07
3.49894e-07
1.82594e-07
1.49355e-07
-1.49355e-07
4.53598e-08
2.35192e-07
-2.50191e-07
5.27944e-07
3.58432e-07
5.40817e-07
-8.99249e-07
1.16811e-07
-1.16811e-07
7.52317e-07
-3.4409e-07
-4.63415e-07
1.01293e-06
1.73123e-07
-1.73123e-07
-2.53082e-07
-3.21835e-08
5.35126e-07
-4.48901e-07
-8.62252e-08
2.29212e-07
-8.03789e-07
5.74577e-07
-1.20977e-06
4.90188e-07
-4.68453e-07
6.97665e-07
-2.75371e-07
2.22891e-08
-6.163e-07
9.12129e-09
6.23703e-08
1.60091e-07
-2.22462e-07
1.52346e-07
-2.51068e-07
1.13302e-07
-4.69456e-07
-2.94163e-07
-1.94056e-07
4.88219e-07
1.31995e-07
1.23025e-07
-3.28214e-07
2.0519e-07
-6.30869e-07
8.97425e-07
6.14335e-08
-5.10832e-07
9.85699e-07
-4.74867e-07
5.11178e-07
-5.18641e-08
7.93102e-07
-7.71078e-07
6.88114e-07
-8.84434e-07
4.04613e-07
5.90321e-07
-1.02712e-06
4.36798e-07
2.14913e-07
-5.48211e-08
-5.0177e-07
3.33171e-08
-4.8597e-07
9.81436e-07
1.91036e-07
-3.23068e-07
-5.57891e-07
8.80959e-07
4.32496e-07
-7.26659e-07
6.06732e-07
-1.18029e-06
6.70485e-07
1.99817e-07
-8.70302e-07
1.44334e-07
5.05949e-07
-6.50283e-07
5.8901e-08
7.93975e-07
-1.04166e-06
-5.90216e-07
2.61796e-07
3.2842e-07
5.61245e-07
-1.03188e-06
4.70637e-07
7.53419e-07
-3.23509e-07
-3.94257e-07
2.002e-07
5.94024e-07
6.78522e-07
3.34412e-07
-3.93573e-07
5.98763e-07
1.62233e-07
3.86594e-07
4.8312e-07
-4.24219e-07
-8.29647e-08
-2.94113e-07
-4.15795e-07
9.33493e-07
-7.89159e-07
4.99728e-07
-4.20386e-07
5.10308e-07
-3.0435e-07
-2.44716e-07
5.49066e-07
2.03355e-07
7.19701e-07
-9.23057e-07
1.10229e-06
-5.4104e-07
1.02531e-06
-5.14137e-07
-8.42667e-08
-3.61398e-07
1.37119e-07
-5.00095e-07
5.22384e-07
-3.8927e-08
4.23545e-07
8.10517e-07
9.24519e-07
-6.62723e-07
-8.245e-07
1.02432e-06
-7.61021e-07
-4.19268e-07
-9.11856e-07
-1.29802e-07
4.18409e-07
6.47111e-08
6.09445e-07
-1.01125e-06
1.38531e-07
8.72715e-07
-6.48805e-07
4.83541e-07
-6.76834e-07
-8.58232e-07
-1.20703e-08
-8.58732e-07
5.35223e-07
7.13663e-07
-3.24338e-07
-4.79451e-07
-7.74737e-07
-1.17682e-06
9.8668e-08
3.35052e-07
8.62903e-07
-3.57652e-07
-5.05251e-07
1.98139e-08
-3.24164e-07
2.48037e-07
-3.32304e-07
4.42517e-07
6.02369e-07
-2.73949e-07
1.60754e-07
5.69463e-07
-7.30217e-07
-6.18066e-07
5.35102e-07
-3.4848e-07
-4.82153e-08
1.02675e-06
-4.28151e-07
8.14745e-07
3.11557e-07
2.37509e-07
4.80489e-07
2.17128e-07
6.63831e-07
-8.47368e-07
8.74903e-08
7.59877e-07
8.38475e-07
-4.33862e-07
9.27961e-07
-5.04415e-07
-6.56953e-07
6.54533e-07
2.41957e-09
4.95806e-07
-6.3024e-07
-1.26421e-07
7.62499e-07
4.68809e-08
-5.74244e-08
1.75583e-07
-7.54074e-07
4.59961e-07
-5.00839e-07
6.63071e-07
1.78958e-07
2.9772e-07
-6.29449e-07
3.69759e-07
2.59689e-07
-1.26026e-07
-1.58105e-07
-5.77866e-07
9.37888e-07
-3.60022e-07
3.42632e-08
-2.3492e-07
-2.42485e-07
4.77405e-07
-9.06046e-07
-2.7077e-07
7.92917e-07
-3.09376e-07
-5.0461e-07
1.0185e-06
-4.83277e-07
-4.22556e-07
-3.04103e-07
-1.03585e-06
-3.16854e-07
4.76083e-07
4.76063e-07
-4.27243e-07
9.26972e-07
-8.87242e-07
2.43763e-07
6.60487e-07
-7.86908e-07
3.87502e-07
4.28606e-07
5.09282e-07
-5.05041e-07
9.47169e-07
-4.42128e-07
2.44084e-08
7.35469e-07
-8.65063e-07
-4.01214e-07
-2.26756e-07
2.84593e-07
6.05477e-07
-4.29894e-07
1.02424e-07
5.5211e-07
9.04669e-07
-5.18837e-07
-4.01424e-07
9.20261e-07
-3.19923e-07
-7.43333e-08
-8.58121e-07
5.10291e-07
6.24026e-07
-2.36525e-07
-1.04998e-07
1.51879e-07
2.36214e-07
-5.26845e-07
2.9063e-07
4.36994e-08
-1.01124e-07
1.27051e-06
4.43197e-07
4.61472e-07
-4.70158e-07
-4.29091e-07
8.12956e-07
4.21032e-07
5.26137e-07
-9.63244e-07
4.93086e-07
-9.47928e-07
-3.47483e-07
3.49399e-07
-1.13184e-07
-2.34663e-07
-3.1322e-07
-4.86456e-07
-2.6952e-07
4.27625e-07
-1.90116e-07
-8.37893e-07
6.11137e-07
-3.39074e-07
-5.19047e-07
2.4088e-07
-2.53927e-07
-6.55525e-07
4.11532e-07
-2.72086e-07
7.82376e-07
6.04821e-08
2.59572e-09
-4.43859e-07
-5.19385e-07
-7.25293e-07
1.02739e-07
3.07474e-07
9.30315e-07
-2.67155e-07
2.87482e-08
2.16295e-07
1.33104e-07
-2.52717e-07
7.02162e-07
4.44753e-07
-3.07298e-07
-1.37455e-07
1.92036e-07
3.63088e-07
-2.10508e-07
8.46955e-07
-6.36447e-07
5.79384e-07
8.55124e-07
-6.43047e-08
-6.87182e-07
7.8816e-07
-2.3605e-07
7.99955e-07
5.34233e-07
6.018e-07
-3.58101e-07
4.95146e-07
2.8723e-07
-7.0803e-07
-1.9143e-07
4.76128e-08
-4.50171e-08
1.82472e-07
-4.93689e-08
2.26571e-07
-9.08637e-07
2.00607e-07
1.94878e-07
2.18395e-07
4.73241e-07
-2.9059e-07
7.32307e-07
-2.52583e-07
-8.8903e-07
8.32361e-07
-6.31754e-07
-1.07068e-07
-3.37441e-07
3.69712e-07
-3.22713e-08
-6.64643e-07
-9.88829e-08
2.08833e-07
2.27967e-07
-4.8494e-07
-3.30293e-07
-4.90789e-08
-3.51e-07
3.96642e-07
-5.11225e-07
2.65118e-07
2.10082e-07
-2.91451e-08
-2.08417e-08
4.19675e-08
1.04372e-07
1.71225e-07
1.88775e-07
1.47048e-07
1.39667e-07
-5.70814e-07
5.31512e-07
3.93028e-08
-7.0928e-07
-2.68109e-07
4.35667e-07
-2.39344e-07
1.30469e-07
1.14331e-07
1.49585e-07
7.72303e-08
-6.91833e-07
-3.33593e-07
1.36575e-07
1.08225e-07
-1.27942e-07
7.85733e-08
1.57298e-07
9.86287e-08
-3.80145e-07
1.61085e-08
2.53218e-08
-8.08163e-07
2.11258e-08
2.5142e-07
-3.75568e-07
-1.95247e-07
2.1578e-07
-1.12049e-06
3.23997e-07
-2.56643e-08
4.42295e-07
3.01694e-07
2.89253e-07
-1.61384e-08
-9.59942e-07
-1.37665e-07
-8.07879e-07
8.55418e-08
-3.59329e-09
-1.40483e-07
2.24152e-08
-1.53837e-07
-2.27071e-07
-1.33033e-07
-8.39992e-09
1.16252e-07
-1.3239e-07
-4.30568e-07
-3.30703e-07
-7.85837e-08
7.43871e-08
-1.25209e-07
6.58506e-09
-2.93498e-07
-3.89328e-07
1.56068e-07
2.55887e-07
-1.91118e-07
-2.18789e-08
2.12997e-07
-3.31979e-08
-7.06704e-07
1.00896e-07
-2.08907e-07
-6.68609e-07
-5.84475e-07
-3.31979e-08
-2.3203e-07
6.60597e-08
-4.99512e-08
1.97972e-07
-1.87544e-07
4.50501e-07
3.10445e-07
2.667e-08
-2.6755e-07
1.93217e-07
8.35554e-07
-6.44967e-08
-4.03519e-07
2.15203e-07
1.88316e-07
-1.72456e-07
-2.22056e-07
-2.14744e-07
-4.57014e-07
-1.65503e-07
-6.13795e-07
3.90832e-07
9.55703e-07
7.77704e-07
-6.28171e-07
4.24365e-07
-3.62676e-08
-2.24194e-07
-3.83763e-07
6.69845e-08
8.86192e-09
3.83763e-07
-6.69845e-08
2.38101e-07
4.24365e-07
2.06923e-07
-3.38408e-07
3.47529e-07
7.68107e-07
-5.41955e-07
2.65448e-07
-1.01215e-07
-2.16963e-08
1.04882e-07
1.1929e-08
-8.06256e-08
2.42349e-08
-1.82488e-07
-5.55416e-08
-1.01215e-07
1.10698e-07
-5.47261e-09
-3.28866e-07
-4.70274e-08
1.29406e-07
-6.25771e-08
-1.60106e-08
8.06256e-08
-2.53549e-08
-2.42349e-08
-3.10358e-08
1.82488e-07
-3.31325e-08
-1.29406e-07
-1.9949e-08
6.25771e-08
-1.10698e-07
1.04882e-07
-3.28866e-07
-8.47796e-07
-6.62682e-07
-1.44323e-07
-3.9525e-07
6.79843e-07
1.72963e-07
-2.3746e-07
1.32677e-07
2.25348e-07
1.36353e-07
7.7995e-07
-6.14188e-07
4.97924e-08
-4.4069e-07
2.25348e-07
1.03899e-07
-2.41834e-07
1.76248e-07
-9.49531e-08
5.99065e-07
3.86094e-07
-1.02003e-08
-3.86094e-07
-1.90578e-07
2.17059e-07
-2.64807e-08
-6.30306e-07
4.18015e-08
2.03466e-07
-3.61867e-07
3.93273e-07
9.12583e-07
-4.37716e-07
-4.20493e-07
4.22912e-07
3.71401e-07
-1.49131e-07
3.18222e-07
2.05484e-08
-2.18179e-07
3.64349e-07
2.17807e-07
-4.49074e-07
4.49074e-07
-3.44165e-07
-2.46148e-07
-2.84278e-07
3.18222e-07
2.49944e-07
-5.49422e-07
2.82088e-07
-1.3629e-07
-2.92575e-07
3.22424e-07
-4.84753e-08
4.45343e-07
-8.82141e-07
-1.0653e-07
1.0653e-07
-4.71248e-08
-2.28268e-07
-5.16939e-08
5.16939e-08
-5.41611e-08
5.41611e-08
-2.46932e-07
3.95061e-08
6.32531e-08
-1.86785e-07
4.36776e-07
-2.49992e-07
3.99659e-07
-3.99659e-07
1.04095e-07
1.47607e-07
2.74763e-07
6.10894e-08
-6.2122e-07
2.53346e-07
-7.53135e-08
2.22311e-07
-3.77219e-07
-6.409e-07
3.88917e-08
1.69855e-08
-1.54267e-07
-5.00575e-08
-1.91049e-07
1.11038e-07
-2.27417e-08
-1.68308e-07
-7.60452e-07
-4.77104e-08
-2.69684e-07
-1.61981e-07
-5.31913e-07
1.36663e-07
-1.33033e-07
7.9955e-08
2.79263e-07
8.74958e-08
-1.46502e-07
-1.54647e-07
1.54647e-07
6.00058e-08
2.36367e-07
-4.96232e-07
-7.74675e-08
-1.59852e-07
1.59852e-07
-7.14342e-07
1.84616e-07
3.78502e-10
2.07473e-08
-2.46626e-07
-5.04077e-07
3.28289e-07
1.75787e-07
-2.91613e-07
8.99368e-08
2.01676e-07
-5.29231e-08
-2.92311e-07
1.76679e-07
-1.763e-07
-2.04411e-07
-4.68243e-08
4.68243e-08
1.56008e-07
3.44309e-08
4.77173e-08
-1.5757e-07
-4.70602e-07
-3.14485e-08
3.42136e-08
4.43757e-08
-1.35605e-07
-2.24555e-07
-2.79522e-07
-1.8066e-07
2.08158e-07
3.41361e-08
-5.69372e-09
-1.59809e-07
-8.51194e-08
1.15815e-07
-3.20993e-07
9.39218e-08
-3.88917e-08
5.3085e-07
-6.90279e-08
2.54963e-07
1.05218e-08
5.20328e-07
1.67044e-08
2.38258e-07
5.86995e-07
3.41611e-07
4.5289e-07
1.98908e-07
3.15871e-07
1.08206e-08
-2.79731e-07
2.63027e-07
2.31009e-07
-6.74121e-08
1.27183e-07
-5.14429e-08
-7.6559e-09
2.38415e-07
-2.09667e-07
5.97517e-07
-1.12029e-09
-6.68795e-07
-4.9117e-08
2.11935e-07
1.38542e-07
-2.12382e-07
2.89458e-07
1.37888e-07
-2.47403e-07
-9.48976e-09
3.91477e-07
-2.54814e-07
3.58344e-07
6.80073e-08
1.52601e-07
3.38254e-08
6.0827e-08
-7.10812e-07
2.12675e-08
-1.02438e-07
2.36119e-07
4.94147e-08
1.36562e-07
5.10128e-07
-2.14655e-07
1.46447e-07
-1.80892e-07
2.74813e-07
6.09888e-09
-5.18009e-09
)
;

boundaryField
{
    back
    {
        type            empty;
        value           nonuniform List<scalar> 0();
    }
    front
    {
        type            empty;
        value           nonuniform List<scalar> 0();
    }
    top
    {
        type            calculated;
        value           nonuniform List<scalar> 10(-4.368e-07 -4.752e-07 -3.6e-07 -2.448e-07 -2.448e-07 -3.6e-07 -4.368e-07 -9.12e-08 -9.12e-08 -4.752e-07);
    }
    outer_arc
    {
        type            calculated;
        value           uniform 0;
    }
    bottom
    {
        type            calculated;
        value           nonuniform List<scalar> 10(7.63526e-07 4.00079e-07 4.99868e-08 -1.4634e-07 -2.86715e-07 9.77388e-07 -2.26815e-07 1.02543e-06 -1.17414e-07 7.76878e-07);
    }
    inner_arc
    {
        type            calculated;
        value           uniform 0;
    }
}


// ************************************************************************* //
