/*--------------------------------*- C++ -*----------------------------------*\
  =========                 |
  \\      /  F ield         | OpenFOAM: The Open Source CFD Toolbox
   \\    /   O peration     | Website:  https://openfoam.org
    \\  /    A nd           | Version:  9
     \\/     M anipulation  |
\*---------------------------------------------------------------------------*/
FoamFile
{
    format      ascii;
    class       volVectorField;
    location    "2.79";
    object      U;
}
// * * * * * * * * * * * * * * * * * * * * * * * * * * * * * * * * * * * * * //

dimensions      [0 1 -1 0 0 0 0];

internalField   nonuniform List<vector> 
942
(
(0.0228403 -0.0699967 0)
(-0.0246524 -0.00444469 2.70136e-17)
(0.0402039 0.111992 0)
(0.00964234 -0.0788752 -1.4282e-17)
(0.0421129 0.123166 8.56648e-18)
(0.0390437 -0.0549335 1.50903e-17)
(0.00529061 -0.00776099 3.97295e-17)
(0.049041 -0.0761279 0)
(0.00418706 -0.0484474 -3.12808e-17)
(0.00501047 -0.0530569 3.18847e-17)
(0.0522654 0.0390578 0)
(0.151926 -0.00191255 0)
(0.00917985 -0.0802294 1.33196e-17)
(0.0491672 0.0442626 0)
(0.154783 0.0113041 0)
(-0.035826 -0.00508793 -2.93563e-17)
(-0.0163187 -0.0303058 -1.15847e-17)
(0.0195727 -0.07 0)
(-0.0154534 -0.0190494 -3.46776e-18)
(-0.0201498 -0.0161402 5.30527e-18)
(0.0010542 -0.0140444 1.9754e-17)
(0.165892 -0.0113949 1.5785e-17)
(0.0195422 -0.025886 0)
(-0.0197715 -0.0377117 -3.13467e-17)
(0.0628633 0.0449017 0)
(-0.0252484 -0.0467494 2.35558e-17)
(0.0445453 0.125196 0)
(0.0205138 -0.0329019 2.00225e-17)
(-0.0376866 -0.0425732 0)
(0.0154722 -0.0510792 1.26463e-17)
(-0.0290723 -0.0332823 1.5879e-17)
(0.0378367 0.116515 0)
(-0.0333019 -0.0398874 1.49389e-17)
(-0.00110624 0.0513685 1.75709e-17)
(0.0531271 0.109248 -1.72018e-17)
(0.00934058 -0.0283037 3.30103e-17)
(0.0263349 -0.0560783 1.116e-18)
(0.00509725 -0.0414189 0)
(0.0329524 -0.0523852 -5.69946e-19)
(-0.0215224 -0.0335692 2.23723e-17)
(-0.0498472 0.0675663 -3.12975e-17)
(0.00111205 -0.139739 0)
(-0.0129159 -0.0163251 -1.54738e-17)
(0.00720434 -0.0154443 -1.32453e-17)
(0.00794742 -0.0135204 -3.35098e-17)
(-0.0308702 -0.0389818 7.55524e-18)
(-0.0153474 -0.00950521 -1.53795e-17)
(-0.017758 0.0381183 -1.45061e-17)
(-0.090432 0.0633488 1.61069e-17)
(0.0598847 0.0528541 1.88613e-17)
(-0.0196731 -0.0158571 0)
(0.0120442 -0.015937 0)
(0.00362108 -0.0186159 -2.22777e-17)
(-0.000138455 -0.0389309 1.77555e-17)
(0.00513353 -0.0656227 0)
(-0.0889552 -0.0198242 -1.17655e-17)
(0.0243372 0.00484772 -2.98024e-17)
(0.00650831 -0.0687269 -2.13627e-18)
(0.0121257 0.0120016 3.81705e-17)
(0.128975 0.0246648 1.64752e-17)
(0.0116571 -0.0376099 -1.57202e-17)
(0.0486406 0.116462 -4.0479e-17)
(0.0299085 0.0615219 1.88881e-17)
(0.023823 -0.0635696 -1.54074e-17)
(0.00735294 -0.0421779 1.461e-17)
(-0.0220785 0.0215638 1.12402e-17)
(0.0413988 0.108234 3.16509e-17)
(0.0106318 0.000865123 -1.45709e-17)
(-0.111877 0.00360194 1.48766e-17)
(0.0203637 -0.0412942 4.107e-18)
(-0.0321155 -0.0103038 0)
(0.0060572 -0.032971 0)
(-0.0402308 -0.00465268 -1.94347e-18)
(0.0143973 -0.0575011 3.7916e-18)
(-0.00625219 -0.0408727 -1.68249e-17)
(-0.00636053 -0.0162654 2.45474e-22)
(-0.030005 -0.0168813 1.95502e-18)
(0.0450439 0.0997601 1.74827e-17)
(-0.019173 -0.0215629 -1.90023e-17)
(-0.0239069 0.00663128 -3.84808e-18)
(0.0173145 -0.0213186 2.27853e-17)
(-0.0302058 -0.0429825 -8.19467e-18)
(0.0507685 0.0257967 -2.06902e-18)
(-0.0305437 0.00808685 8.47204e-18)
(-0.0236365 0.0244338 0)
(0.0328701 0.134354 0)
(0.110305 0.018033 -1.72879e-17)
(0.0849442 -0.00417605 4.75088e-18)
(0.057333 0.052842 0)
(0.0602781 0.0268801 2.3662e-17)
(0.0153637 -0.10626 -1.20344e-17)
(0.0298389 0.0525802 5.45895e-19)
(0.00650245 -0.0749017 2.40395e-18)
(-0.0601544 -0.00177983 0)
(-0.081218 -0.0555757 -4.63806e-18)
(0.0430174 -0.0125928 8.59631e-18)
(-0.0256275 -0.135503 1.47138e-17)
(0.0605855 -0.0100612 -1.38436e-17)
(0.0262277 -0.0319669 -2.0549e-17)
(0.00719843 -0.0333833 -2.93465e-17)
(0.0110323 -0.0313059 -8.82018e-18)
(0.00554258 -0.0769614 9.9531e-18)
(-0.0119202 -0.00711454 0)
(0.0179765 -0.0357992 1.1299e-17)
(-0.053852 -0.0833482 -1.77898e-17)
(0.0121542 -0.0306123 -2.8804e-17)
(-0.0286866 -0.0385153 -1.01525e-17)
(-0.033273 -0.0403599 0)
(0.00570067 0.0150025 1.57016e-17)
(-0.00464652 -0.000886 0)
(-0.101004 -0.00420071 0)
(-0.117038 0.0387319 -1.56951e-17)
(0.0864666 0.00765351 3.14627e-17)
(0.00579558 -0.0373311 0)
(0.0611047 0.0480788 0)
(0.0168698 0.0300406 2.12924e-18)
(0.123125 -0.0145906 -1.69129e-17)
(0.0127581 -0.0776652 1.80483e-17)
(0.00413271 -0.0159288 -2.60855e-24)
(0.116149 0.107535 -2.05895e-18)
(0.00774326 -0.016448 6.87273e-18)
(-0.0530858 -0.0318488 -1.77027e-17)
(-0.00303195 -0.00109772 0)
(-0.0559101 -0.00353051 1.55974e-17)
(-0.0547333 0.00288421 1.263e-17)
(-0.0181197 -0.0375233 -3.37353e-17)
(0.00628156 -0.0090335 1.78151e-17)
(-0.0213628 -0.0247463 -1.70113e-17)
(-0.0236913 -0.0296561 3.11118e-17)
(-0.00587912 -0.017094 1.62863e-17)
(0.00474181 -0.00271255 -8.38921e-18)
(-0.0036772 -0.0124301 -1.94061e-17)
(0.00523 0.00519953 0)
(-0.0463085 0.0276028 0)
(-0.0124448 0.025599 -1.74361e-17)
(-0.0155336 -0.0214505 -1.21178e-17)
(-0.0984354 0.021247 1.05222e-18)
(0.00364781 0.00984805 0)
(-0.14463 0.0468782 2.14821e-17)
(-0.136792 0.0556292 -7.35949e-18)
(-0.0926528 0.0440989 1.73342e-17)
(-0.0218452 -0.026591 0)
(0.0951016 -0.0094676 -1.73057e-17)
(-0.00554518 -0.0248684 1.87314e-17)
(0.056558 -0.0694248 -4.35532e-18)
(-0.0334214 -0.0390338 -7.9141e-18)
(0.0150784 -0.0304551 0)
(0.00786524 -0.0381716 -1.04884e-17)
(0.00801778 -0.0507523 2.64561e-17)
(0.0378764 0.139022 0)
(0.0741966 -0.0829306 4.7059e-18)
(0.143487 0.0979412 5.18792e-18)
(0.050187 0.0813428 0)
(0.0229942 -0.0374895 9.82331e-18)
(0.0482577 0.0912288 -1.71068e-17)
(0.0328108 -0.0465569 0)
(-0.0148275 0.0261157 1.9309e-17)
(0.00179627 -0.0160234 0)
(0.140138 -0.000444637 0)
(0.0187679 -0.0167959 7.1393e-18)
(0.000233799 0.0356803 -2.4938e-17)
(0.0292161 -0.0401369 0)
(0.0064958 -0.0768507 0)
(0.124839 -0.044473 8.74655e-18)
(0.128832 0.0903794 0)
(0.0482607 0.050723 -2.61411e-17)
(0.0139613 -0.0357301 0)
(0.0231769 -0.0456703 0)
(-0.0330326 -0.0430186 1.54293e-17)
(-0.00428432 0.000939457 1.84482e-17)
(0.030276 0.0323188 -1.53432e-17)
(-0.0959715 0.038236 -2.02418e-18)
(-0.0913557 -0.0279038 5.48004e-21)
(0.0180582 -0.0352851 9.87623e-18)
(0.0357255 0.148865 0)
(0.0241271 -0.0614879 -1.91713e-17)
(0.0325574 -0.00560451 -1.81794e-17)
(0.0221433 -0.0625214 0)
(-0.0304053 -0.0220905 6.31716e-19)
(0.0287627 -0.0649818 0)
(0.0176981 -0.0313899 -1.1534e-17)
(-0.0374925 -0.0432168 0)
(0.00968431 -0.0576293 -2.26069e-17)
(0.0270435 -0.0663858 2.11582e-22)
(0.0166385 -0.0659426 -1.14182e-17)
(-0.0370005 -0.0462679 0)
(0.0971411 -0.0383709 -8.99028e-18)
(0.031497 0.0800649 1.80517e-17)
(0.0455174 0.151917 2.56102e-17)
(0.0319436 -0.0686016 8.63365e-18)
(0.0706674 0.134902 3.45748e-17)
(0.0331757 -0.0669616 -8.65262e-18)
(0.0210031 -0.0476953 -1.09639e-17)
(-0.0175211 -0.0167615 -1.66136e-17)
(0.0266137 0.0650694 9.14121e-18)
(0.0114762 -0.078742 -8.21917e-18)
(0.0302882 0.0661833 0)
(0.0196188 -0.0536533 2.93792e-17)
(-0.0431072 0.0719588 -2.12299e-17)
(0.000100664 -0.0060747 1.60078e-17)
(0.000799238 -0.00930533 0)
(0.0145749 -0.0785569 8.34384e-18)
(0.010379 0.0271068 0)
(-0.0240276 -0.0347318 -1.94002e-17)
(0.0598562 -0.00118975 1.83681e-17)
(-0.0544636 0.0359062 0)
(-0.0853403 -0.0649644 1.82075e-17)
(0.0434342 0.113442 -3.97719e-17)
(-0.00375304 -0.0110861 -1.54651e-17)
(-0.00760767 -0.0323458 1.52924e-17)
(0.0339217 0.0822875 -8.86532e-18)
(0.015949 -0.0754848 3.50096e-22)
(0.00832519 -0.0585997 1.41647e-17)
(0.0586484 0.135584 8.41963e-18)
(-0.000566164 0.00228228 0)
(0.0264231 -0.0769545 -8.83061e-23)
(0.0465573 0.156215 -2.10335e-17)
(0.095808 0.11646 1.76727e-17)
(0.0407238 0.0861897 1.75621e-17)
(0.0389204 0.0723081 -2.76981e-22)
(0.031521 -0.0750608 0)
(0.0246439 -0.0768175 -1.69719e-17)
(0.0360545 -0.0690257 0)
(0.0212667 -0.0770158 0)
(0.00202248 -0.00971913 -1.77209e-17)
(0.0142844 0.0505373 1.76038e-17)
(0.0644796 0.137123 -1.24029e-17)
(0.0363495 -0.0715504 -1.74392e-17)
(0.00257028 -0.00648467 2.59767e-17)
(0.0317801 0.0452512 0)
(-0.0312552 -0.0361779 -1.61915e-17)
(0.0490698 0.12535 -3.11058e-17)
(0.0160177 0.0401374 1.70522e-17)
(0.00346507 -0.00712997 -9.33978e-18)
(0.029554 -0.0764203 -8.77042e-18)
(0.013714 -0.072236 2.81452e-22)
(0.0913745 0.119659 -1.83351e-17)
(0.0345478 -0.0742932 1.75181e-17)
(0.01246 0.0269215 -1.68369e-17)
(0.0531599 0.0913888 1.73642e-17)
(0.0526255 0.0792604 0)
(0.0233583 -0.0427083 -4.27341e-18)
(0.0390632 -0.0714558 8.64027e-18)
(0.023169 -0.0534882 -9.76412e-18)
(0.0272213 -0.05736 -1.7277e-17)
(0.00602394 0.0219609 -1.75115e-17)
(0.0396808 -0.0669079 8.69605e-18)
(0.0244887 -0.0768391 -9.42089e-18)
(0.038709 -0.0708154 -1.74459e-17)
(0.0130126 0.0309437 4.3074e-18)
(0.0669729 0.139892 -4.36755e-18)
(-0.0208944 0.0458928 -1.60848e-17)
(0.0761289 0.1349 0)
(-0.00247188 0.0143761 1.30092e-17)
(0.0309277 -0.0605328 1.71652e-17)
(0.0190923 -0.0750908 1.90794e-17)
(0.0372266 -0.0719958 0)
(0.036975 -0.0666602 0)
(0.101373 0.111878 -8.64024e-18)
(0.0234285 -0.0503044 9.72649e-18)
(0.0294779 -0.0734671 -8.58254e-18)
(0.105238 0.111891 8.49523e-18)
(0.0650386 0.128449 -2.13306e-17)
(0.0338952 -0.0616584 -4.53771e-18)
(0.0378035 -0.0632451 9.03306e-18)
(0.00706845 -0.0494897 0)
(0.0270894 -0.0550841 0)
(0.0413599 -0.0646715 0)
(-0.0195622 -0.0177182 1.64715e-17)
(0.0421914 -0.0667245 8.79437e-18)
(0.0391671 -0.0644109 1.66416e-17)
(0.0532943 0.149007 -1.5913e-17)
(-0.0156437 0.0732146 1.87675e-17)
(0.0578063 0.143293 -8.39188e-18)
(0.0475215 0.112696 1.76604e-17)
(0.0969803 0.107022 -1.75963e-17)
(-0.0130224 -0.015588 0)
(0.040811 -0.0607375 0)
(0.0656769 0.124015 -8.70049e-18)
(0.0134745 -0.0175923 -1.80933e-17)
(0.0299992 -0.0582832 0)
(-0.0117385 -0.0368823 -1.48622e-18)
(0.0203917 -0.025175 1.83661e-17)
(0.0435832 -0.0623229 0)
(0.0681815 0.0333377 3.43138e-17)
(0.14971 0.000968724 -1.69507e-17)
(0.0420255 -0.0581494 2.58196e-17)
(0.045811 -0.0634513 1.71629e-17)
(0.0334323 -0.0581768 4.44529e-18)
(0.0380238 -0.060329 4.41976e-18)
(0.0621524 0.0365947 -1.74022e-17)
(0.0358976 0.0873842 2.03496e-17)
(0.0894822 0.0949482 -7.87636e-18)
(-4.27573e-06 -0.110828 1.92725e-17)
(0.0359898 -0.0501453 4.89228e-18)
(-0.00550109 -0.0271511 -1.57607e-17)
(0.148525 0.0496903 0)
(0.151725 0.0234219 8.8011e-18)
(0.148188 0.0693562 8.17864e-18)
(0.154939 -0.0206253 0)
(0.133345 -0.0492919 0)
(0.0411253 -0.0542256 -8.83364e-18)
(0.159997 0.116583 -3.94308e-18)
(0.134179 0.0578288 -2.74891e-17)
(0.104985 -0.0434652 -2.73943e-17)
(0.0412839 -0.0700343 8.61653e-18)
(0.0715932 -0.0611983 -2.74147e-17)
(0.0280305 -0.00530464 0)
(-0.0114107 -0.00635628 -7.96726e-18)
(0.0166147 0.0247615 1.66547e-17)
(3.17189e-06 -0.00342381 1.3508e-17)
(0.0115739 0.00559417 2.67091e-22)
(0.0486551 -0.0309126 -2.38082e-18)
(-0.0410295 -0.00695921 -1.66032e-17)
(0.00208621 -0.149358 3.04701e-21)
(0.0107878 0.0101541 2.6817e-17)
(0.00456983 -0.00802505 -1.82448e-17)
(0.000983417 0.00917212 -1.32348e-21)
(0.00564681 0.00112912 -4.7227e-18)
(0.0535299 -0.0115032 0)
(-0.0257607 -0.0138415 -4.87413e-18)
(0.0127367 0.0143301 0)
(0.000952576 -0.00308326 1.91448e-17)
(-0.0352202 0.00151719 -3.4141e-17)
(0.0432627 0.0883556 -2.14688e-17)
(0.10663 0.104827 -1.74862e-17)
(0.0110028 0.00765654 0)
(0.0118177 -0.110434 -8.8628e-18)
(0.0223261 -0.154182 0)
(0.012032 -0.0169287 0)
(0.0427301 0.00663621 -3.4476e-17)
(0.031695 -0.0748492 -1.51725e-17)
(0.0464901 -0.123652 8.61041e-18)
(0.163415 0.110829 -1.54837e-17)
(0.0457466 -0.0994648 0)
(0.0549503 0.00407885 1.72484e-17)
(0.114205 0.0188832 9.84715e-18)
(-0.0109492 -0.03149 -5.08664e-19)
(0.00787431 -0.0247247 0)
(-0.0341276 -0.00600655 -1.70587e-17)
(0.0656012 -0.0351669 2.52735e-17)
(0.0784753 -0.0291074 -1.72412e-17)
(0.0502942 -0.100341 -4.48273e-18)
(0.0523647 -0.0215671 -4.30232e-17)
(0.146391 -0.0234445 -1.7414e-17)
(0.0191809 -0.0071229 0)
(0.151224 -0.0520745 1.76895e-17)
(0.019788 -0.163006 1.71157e-17)
(0.0440917 -0.065988 1.71598e-17)
(0.141522 0.0177074 -8.57998e-18)
(0.0328088 -0.0180882 1.72549e-17)
(0.140752 0.0599633 5.93183e-23)
(0.0168264 -0.132101 -4.36327e-17)
(0.146496 0.094031 -8.99521e-18)
(0.000285854 -0.0306972 -1.54039e-17)
(0.0418103 -0.0765522 0)
(0.147529 -0.05406 1.74039e-17)
(0.0309151 -0.0900025 0)
(0.140063 -0.0310536 8.55191e-18)
(0.106019 -0.0355211 1.72319e-17)
(0.161147 0.10781 2.18699e-17)
(0.127488 -0.103744 0)
(0.109758 0.028612 -2.42847e-18)
(0.0413135 -0.0685062 1.46501e-17)
(0.16478 0.0709892 -1.73385e-17)
(0.0935627 0.0525373 9.10265e-18)
(0.155308 -0.0586846 -8.71801e-18)
(0.00600947 0.000550512 3.98662e-17)
(0.109049 -0.048353 2.59135e-17)
(0.0544334 -0.0320153 -4.49885e-18)
(0.0938503 0.100183 0)
(0.0371902 -0.0327867 1.70428e-17)
(0.0129973 0.00377572 -8.65885e-18)
(0.0501669 -0.153115 -1.65908e-17)
(0.0920053 -0.0198667 8.67385e-18)
(0.13743 -0.00330349 8.58704e-18)
(0.115128 -0.0306979 8.67519e-18)
(0.147399 -0.0385018 1.77572e-17)
(0.0437238 -0.0701655 8.46311e-18)
(0.131922 0.0377483 8.56327e-18)
(-0.0061831 -0.00589239 1.94658e-17)
(0.00413836 -0.00749633 0)
(-0.0188783 0.00407163 1.74197e-17)
(-0.0482622 0.000311695 0)
(-0.00517444 -0.00835579 4.32726e-18)
(0.131534 0.0756235 2.70223e-17)
(0.168947 0.0946979 3.40892e-17)
(0.149253 0.0435091 2.64208e-18)
(0.155274 -0.0553877 -3.53614e-17)
(0.140653 0.0981168 -3.61219e-17)
(0.0150104 0.000100552 -8.85506e-18)
(-0.100008 0.0453617 -4.38093e-18)
(0.0508752 -0.0974404 0)
(0.0598597 0.0611971 1.77745e-17)
(-0.0551956 0.0157121 4.63728e-18)
(0.0659922 -0.137567 0)
(0.165952 -0.0508638 1.6904e-17)
(0.0069165 -0.00409806 4.54216e-18)
(-0.0121113 -0.0141891 8.9452e-18)
(-0.0890521 0.0291938 -1.12211e-18)
(-0.0829488 0.0383741 -7.74088e-18)
(0.0324425 -0.155552 -2.54574e-17)
(0.0884789 0.0316264 0)
(0.136988 -0.0820905 8.10165e-18)
(0.130768 -0.00592555 0)
(0.0902027 0.0130529 0)
(0.0243779 -0.0392099 0)
(0.152724 -0.0441537 0)
(0.0693688 -0.124733 8.53689e-18)
(0.00718954 -0.0114363 2.61055e-17)
(-0.0129342 -0.0162504 -1.86431e-17)
(0.126421 0.0689319 8.59219e-18)
(0.130746 -0.104357 0)
(0.157249 0.098542 2.56784e-17)
(0.171993 0.0455816 0)
(0.0456218 -0.0735083 -8.63692e-18)
(0.0372209 -0.0868537 8.63135e-18)
(0.0854866 -0.146412 8.50091e-18)
(0.0968156 0.0466407 1.72025e-17)
(0.0636814 -0.155012 8.49536e-18)
(0.101524 -0.120934 1.78756e-17)
(0.125029 -0.0737437 -3.43223e-17)
(0.0646269 -0.113497 0)
(0.0412295 -0.119233 -8.49115e-18)
(0.16106 0.00978963 1.71355e-17)
(0.178092 0.094424 -1.70944e-17)
(0.105951 0.00238419 0)
(0.0704408 -0.0181275 1.80095e-17)
(0.107389 0.0810836 1.72911e-17)
(0.0287776 0.0485455 -3.21303e-17)
(0.0550827 0.0202831 0)
(0.115319 0.0837782 1.72691e-17)
(0.0723346 0.0594094 0)
(0.115019 -0.009909 0)
(0.0178942 -0.0318654 0)
(0.0882439 -0.134886 0)
(0.105099 0.0292092 2.57752e-17)
(0.0546097 -0.141455 0)
(0.100629 -0.111746 8.60678e-18)
(0.0802351 0.068678 -1.81342e-17)
(0.0493205 -0.160354 8.47899e-18)
(0.178507 -0.0233547 -1.56553e-17)
(0.125747 -0.0394004 -1.72223e-17)
(0.0696987 0.0592098 0)
(0.045793 -0.0698754 -1.71734e-17)
(0.129817 0.0836469 -2.57545e-17)
(0.145582 -0.0119322 0)
(0.14237 0.00791798 0)
(0.111395 -0.122683 0)
(0.0274552 -0.12343 1.70853e-17)
(0.146869 -0.0423809 9.05599e-22)
(0.115168 0.020679 6.78889e-23)
(0.0894445 -0.00566642 -1.77881e-17)
(0.0351956 -0.136829 0)
(0.147246 -0.00934919 0)
(0.105944 0.0368974 0)
(0.134716 0.00593548 0)
(0.00400943 -0.00270276 0)
(0.0391112 -0.0989318 -8.58969e-18)
(0.125359 0.00906232 -1.74913e-17)
(0.106932 0.0629309 2.58246e-17)
(0.112026 -0.00760018 -8.60625e-18)
(-0.0353708 -0.0414569 1.73244e-17)
(0.144764 -0.0279527 -8.54156e-18)
(0.081967 0.0653662 8.72905e-18)
(0.122972 -0.0234871 -8.58864e-18)
(0.0418982 -0.0780588 0)
(0.0962584 0.0712172 -1.72817e-17)
(0.0906798 0.0441107 -3.43408e-17)
(0.125874 0.0811985 0)
(0.0932991 0.010741 -1.72086e-17)
(0.0766538 -0.0232152 -1.74791e-17)
(0.105185 -0.0222969 0)
(0.175245 0.07266 0)
(0.110195 0.0670149 8.63152e-22)
(0.0939437 0.093396 7.81562e-18)
(0.151566 -0.0550667 0)
(0.112396 -0.04482 -2.57524e-17)
(0.186862 0.0551223 0)
(0.0839651 0.0608622 0)
(0.0423019 -0.0691226 -1.70802e-17)
(0.106104 0.074251 -1.71626e-17)
(0.139759 -0.0544635 0)
(0.12832 0.0728098 -1.7125e-17)
(0.169149 -0.0180157 -8.55566e-18)
(0.131307 0.043418 1.71381e-17)
(0.153226 0.0661735 -1.75746e-17)
(0.122597 -0.0460751 1.721e-17)
(0.154831 -0.0735623 0)
(0.124126 0.090328 -8.55273e-18)
(0.108804 0.0739001 -3.02825e-17)
(0.142757 0.0285156 0)
(0.124546 0.0778239 0)
(0.138582 -0.0497928 2.56509e-17)
(0.0451512 -0.0680781 -1.67871e-17)
(0.107143 0.107642 0)
(0.132369 0.0597772 1.7123e-17)
(0.0940679 0.110066 3.60656e-17)
(0.138394 0.0267428 -1.71321e-17)
(0.0426772 -0.0885288 0)
(0.122008 0.0386401 3.6503e-17)
(0.114837 0.0878793 8.54918e-18)
(0.0437682 -0.0936784 0)
(0.107399 0.100477 1.71099e-17)
(0.0618134 -0.0378964 -9.44489e-18)
(0.0966851 0.103801 0)
(0.0945354 -0.0432927 0)
(0.0265613 -0.0104714 0)
(0.0598947 0.04821 1.51607e-17)
(0.0169003 0.00802207 -8.35948e-18)
(0.182045 -0.00179305 -2.08445e-17)
(0.113228 0.0941643 0)
(0.107292 0.101451 8.79277e-18)
(0.0985602 0.0842507 -1.71344e-17)
(0.106403 0.0810724 2.89006e-17)
(0.0463027 -0.0708824 0)
(0.0992977 0.090916 -7.43348e-18)
(0.11394 0.10381 0)
(0.0532419 -0.00896577 0)
(0.0427096 0.0301612 0)
(0.168307 0.0328749 0)
(0.0879104 -0.042895 8.63728e-18)
(0.0648378 0.0047663 0)
(0.114759 0.0989822 0)
(0.0473381 0.0171009 -8.72327e-18)
(0.0510949 0.0423031 -8.56033e-18)
(0.135108 0.0585154 0)
(0.0967932 0.0970856 0)
(0.135162 0.0416333 0)
(0.0628454 0.0330428 3.43898e-17)
(0.0681398 -0.0314454 2.61355e-17)
(0.123731 0.0656611 0)
(0.181359 0.0249097 1.47457e-17)
(0.0673307 0.114646 -1.73149e-17)
(0.0984809 0.0891774 1.71393e-17)
(0.0843949 0.0918116 -1.71799e-17)
(-0.00137161 -0.00658882 -3.97777e-22)
(0.10239 0.0878413 0)
(0.0398852 -0.0677164 0)
(0.0715465 0.130054 1.66085e-17)
(0.0278122 -0.0639852 0)
(0.11594 0.0914093 0)
(0.0603124 0.0455096 -1.53232e-17)
(0.0379991 -0.0557095 -2.1792e-17)
(0.0450872 0.0371868 0)
(0.0321582 0.0362982 -1.72303e-17)
(0.116011 0.0973073 0)
(0.0827197 0.0739536 -1.71735e-17)
(0.0482349 0.0491049 -8.6226e-18)
(0.0490591 0.0584151 3.4498e-17)
(0.083765 0.0796161 0)
(0.106988 0.105791 -1.70964e-17)
(0.0802904 0.114544 8.62184e-18)
(0.0663734 0.0632098 0)
(0.0620532 0.138205 2.1607e-17)
(0.0668734 0.0693264 -8.61414e-18)
(0.0687771 0.0956361 -1.72559e-17)
(0.106436 0.0426769 -1.60694e-17)
(0.0591439 0.143942 -8.69627e-18)
(0.107674 0.0566504 0)
(0.0992278 0.117571 -1.72924e-17)
(0.0351244 -0.0734101 0)
(0.025903 -0.0737275 2.5596e-17)
(0.0842344 0.100176 2.57989e-17)
(0.0805732 0.130299 1.72408e-17)
(0.00189999 0.00437421 3.48969e-17)
(0.0259025 0.0186702 -9.2146e-18)
(-0.0252515 -0.0269141 -1.75356e-17)
(0.0850091 0.128167 0)
(0.0111397 -0.0579484 0)
(0.0780717 0.123206 -1.72787e-17)
(0.0556758 0.141316 3.59776e-17)
(0.0220316 0.0149588 0)
(0.0690735 0.0861122 -2.58388e-17)
(0.0249877 -0.0731093 -3.11778e-22)
(0.0557454 0.113568 8.72717e-18)
(0.0895492 0.124124 0)
(0.0897101 0.121007 8.74256e-18)
(0.0777339 0.121014 -2.59514e-17)
(0.0568007 0.0997409 0)
(0.0193302 -0.0765603 1.98067e-17)
(0.0428335 0.126584 -3.72852e-17)
(0.00160717 -0.0729377 0)
(0.0919909 0.113706 0)
(0.0325714 -0.0729766 -1.72841e-17)
(0.0302101 -0.0741503 0)
(0.0710095 0.119746 1.72807e-17)
(0.0270239 0.0662656 5.03825e-19)
(0.014242 -0.0658031 -1.89327e-17)
(0.0556607 0.12426 -1.75347e-17)
(-0.0451346 -0.111917 -1.40926e-17)
(0.027542 -0.0721884 1.73575e-17)
(0.00191421 -0.0794177 0)
(0.00544675 0.00826477 0)
(-0.00582453 -0.024291 5.99048e-17)
(0.00140638 -0.0600707 -3.85451e-17)
(0.000358571 -0.0478423 -3.79951e-17)
(0.0985737 -0.0194745 0)
(0.0479377 0.1621 1.84839e-17)
(0.0192289 -0.0702676 -2.70918e-17)
(0.0220025 -0.0693331 2.72528e-17)
(0.000822893 -0.040601 0)
(0.00574674 -0.0379138 -1.90614e-17)
(0.041537 0.170211 -5.71534e-17)
(0.00109797 -0.0408279 -1.80596e-17)
(-0.00795386 -0.0181088 -5.26376e-23)
(0.0382246 0.112605 1.61224e-17)
(0.016602 -0.0654556 -1.8595e-17)
(-0.0245306 -0.0295529 8.96838e-18)
(0.0221756 0.0498418 0)
(0.0166569 -0.000765399 -2.05979e-17)
(0.047349 0.152433 4.17756e-17)
(0.00212392 -0.00740931 -2.02175e-17)
(0.00109805 -0.0419449 7.77386e-22)
(0.110543 -0.0219898 2.80847e-17)
(0.0103058 0.0335309 3.09184e-22)
(0.112158 0.105597 3.37309e-17)
(0.00377254 0.0142512 1.2425e-17)
(0.0308393 -0.0692268 0)
(0.00239696 -0.0511295 1.93594e-17)
(0.000668129 -0.0467242 0)
(0.0286168 -0.0249337 -1.14223e-17)
(0.0449087 0.165561 -5.98188e-19)
(0.00240087 -0.0283822 0)
(0.0431961 0.159732 5.50361e-19)
(0.045801 0.128333 1.92976e-17)
(0.00373351 -0.0266016 -2.25162e-17)
(0.00207083 -0.0303247 -5.46093e-18)
(0.0104323 -0.0535697 4.60902e-18)
(0.0303706 0.00394105 2.67941e-17)
(0.00963465 -0.0248866 2.0179e-17)
(0.0852376 0.0349798 -2.12984e-17)
(-0.0516706 0.0544742 1.66136e-17)
(0.0351322 -0.0637828 0)
(0.0197665 0.026832 1.0066e-17)
(0.000893789 -0.0172553 0)
(-0.0178686 -0.0459254 1.60516e-17)
(0.0186334 -0.055567 0)
(-0.0365772 -0.041686 -3.81799e-17)
(0.0231353 -0.0238466 -2.07206e-17)
(0.0202531 0.0304496 -1.68972e-17)
(0.00492876 -0.011834 -1.44987e-17)
(0.114931 0.0101277 0)
(0.0841582 0.0434031 9.44365e-19)
(-0.0161633 -0.0142592 0)
(0.155524 -0.0289539 -2.9583e-17)
(0.137479 -0.022077 -1.40645e-17)
(0.109437 -0.0122353 -4.9596e-18)
(-0.000674415 -0.00248656 3.68668e-17)
(0.0172908 -0.0334655 0)
(0.016189 -0.0572132 1.58808e-17)
(0.0108925 -0.0050333 0)
(0.135989 -0.0406456 -2.67928e-17)
(0.00212462 -0.0678271 -2.05383e-17)
(0.129099 -0.031009 1.90086e-17)
(0.0163529 -0.0198537 0)
(0.0356386 -0.031815 -4.9881e-18)
(0.0528164 0.14166 0)
(-0.0357729 -0.043786 1.89142e-17)
(0.00594628 -0.0676209 6.07195e-19)
(0.00132879 -0.0507385 4.05762e-17)
(0.0343007 -0.0687962 0)
(0.00340303 -0.0770222 1.76228e-17)
(0.00295417 -0.0674664 1.88272e-17)
(0.00563083 -0.0797246 9.93947e-18)
(0.0181955 -0.0366495 -3.54182e-23)
(0.0766454 0.0788888 -2.61346e-17)
(0.0500459 0.145109 0)
(-0.0258988 -0.126626 0)
(0.0224116 0.0924361 -9.56132e-18)
(0.0979449 -0.0304688 1.95455e-17)
(0.0247653 0.0841633 0)
(0.00508531 -0.0168556 9.44332e-18)
(0.0267719 0.07682 -1.59375e-17)
(0.00568601 -0.0142829 0)
(0.00991084 -0.076594 0)
(0.0133324 0.0577413 -2.40887e-22)
(0.0165869 0.0468336 1.65656e-17)
(0.00317596 -0.00896366 9.22617e-18)
(0.00886909 -0.0668561 -9.67793e-18)
(0.0782413 0.00669412 0)
(0.0814359 0.10998 1.87623e-17)
(0.0262602 -0.0732602 -9.68314e-18)
(0.0211099 0.0208756 -9.45224e-18)
(0.0191194 0.0192339 0)
(0.021241 0.0102431 0)
(0.00572128 -0.00726717 8.47732e-18)
(0.0290325 0.0436754 -1.81392e-17)
(0.00899035 0.00688298 0)
(0.0207086 0.0159892 1.58529e-17)
(0.0726132 -0.0504291 0)
(0.0231259 0.0242508 9.34685e-18)
(0.0113646 -0.0162502 -1.81052e-17)
(0.016614 0.00734294 2.41896e-18)
(0.012916 0.000422508 1.45411e-17)
(0.0262261 0.0352014 -1.92079e-17)
(0.0236836 0.0289681 -1.94129e-17)
(0.00890958 -0.0128178 0)
(0.022115 0.0157421 1.77246e-17)
(0.00944808 0.00861295 0)
(0.00995382 0.00344539 -2.28377e-18)
(-7.35223e-05 -0.0014708 0)
(0.0143504 0.0182671 0)
(0.0111404 0.011438 -9.38902e-18)
(0.034991 -0.0311014 -9.14759e-23)
(0.00305678 -0.00621512 0)
(0.0115381 0.00743833 -1.49436e-17)
(0.142972 0.116718 -1.00259e-17)
(0.0890193 0.075051 -1.84618e-17)
(0.0255801 -0.00890376 0)
(0.000640166 -0.0601127 -1.7366e-22)
(0.0823409 0.098475 -3.00886e-17)
(-0.0311645 -0.0407381 -2.19419e-17)
(0.00518838 -0.0521839 0)
(0.0360426 -0.0362663 -3.6748e-17)
(0.0749614 0.108903 -9.16268e-18)
(0.0518694 0.149119 0)
(0.0923268 0.0617071 1.86698e-17)
(0.0156704 -0.0783346 -1.05352e-17)
(0.058862 0.0892837 2.08995e-17)
(0.0211197 -0.021993 1.86181e-17)
(0.0110126 -0.00261507 1.0096e-17)
(0.0388806 0.020049 2.93782e-17)
(-0.0234501 -0.0281577 1.04904e-17)
(0.0751637 -0.10525 0)
(0.0852918 -0.0414375 -3.65293e-17)
(0.0835737 -0.0239177 -4.4681e-18)
(0.0265335 -0.0365106 2.81022e-17)
(0.00152647 -0.0729595 -1.95727e-17)
(0.133278 0.0995277 -3.14657e-17)
(-0.0194576 -0.0297557 1.56607e-17)
(0.0318922 0.0818008 -2.56673e-17)
(0.0081215 -0.0721903 4.97247e-18)
(0.145414 -0.0359203 1.89637e-17)
(0.127918 -0.0498479 -2.85213e-17)
(0.0920726 0.019069 3.98357e-17)
(-0.0459452 -0.0397341 0)
(0.0214463 -0.0769544 -2.04875e-17)
(0.0296772 0.0607795 3.20071e-17)
(0.0285552 -0.035062 -1.86855e-17)
(0.0167406 -0.0789012 1.1093e-17)
(-0.0203767 -0.0341797 -4.96624e-18)
(0.0113377 0.0668736 0)
(0.043487 -0.0289973 -9.65033e-18)
(0.0357038 -0.0597875 -2.04459e-17)
(0.0331506 -0.0434016 1.89585e-17)
(0.0193302 -0.0742337 1.23152e-17)
(0.0174403 0.0361403 -2.06757e-17)
(0.0178005 -0.0483617 1.09882e-17)
(0.138206 0.0492471 -1.53355e-17)
(0.0103603 -0.0508587 0)
(0.0568866 0.0578661 3.53512e-17)
(0.0408857 0.0350321 -1.94714e-17)
(0.0261633 0.0501107 2.47112e-17)
(0.0543854 -0.0245152 2.33191e-17)
(0.158738 0.114666 4.86321e-18)
(0.152175 0.0917836 -1.04829e-17)
(-0.0144624 0.0182904 -2.18116e-17)
(-0.042899 0.0098027 2.07067e-17)
(0.0147742 -0.00302267 0)
(0.0198819 0.0174668 0)
(0.00246437 -0.0765698 -2.15489e-17)
(0.000940989 -0.0068127 -1.05236e-17)
(0.000352764 -0.0089194 -2.10374e-17)
(0.00312583 -0.0799597 1.11264e-22)
(0.0210199 -0.0314282 9.61663e-18)
(0.0510985 -0.0467472 -1.93346e-17)
(0.000690055 -0.0158732 0)
(0.00149086 -0.0195996 0)
(-0.0326752 -0.0726098 3.51863e-17)
(0.0037839 0.0764676 -3.47864e-17)
(0.00658931 -0.0112092 -9.8263e-18)
(0.0543876 0.0591307 1.13838e-17)
(0.000427389 -0.00853795 1.98721e-17)
(0.0329287 0.121697 2.26626e-17)
(0.0510493 0.00318195 0)
(0.0910827 0.0707069 0)
(0.0387868 0.00659791 -1.01755e-17)
(0.0190563 0.129327 1.18701e-17)
(0.0826306 0.0799909 -9.22946e-18)
(0.00623504 -0.010536 -1.52203e-17)
(0.0112725 -0.0370983 1.01423e-17)
(-0.0425118 -0.00939504 -2.51393e-18)
(-0.0360202 -0.0167455 -3.46806e-17)
(0.0483817 0.154076 -2.42871e-17)
(0.0359205 -0.0554304 5.88078e-18)
(0.0734546 0.0832124 2.49475e-17)
(0.0228953 -0.00306266 1.11041e-22)
(-0.013923 -0.145934 1.74353e-17)
(0.0374649 -0.0107604 2.04838e-17)
(0.0613031 0.0351883 -9.84569e-18)
(0.0401815 0.129941 -3.3039e-17)
(0.00217238 -0.0357279 2.14966e-17)
(0.0458166 -0.00891108 -1.00974e-17)
(0.0600325 -0.0143797 -2.01399e-17)
(0.0322472 -0.0480553 1.75385e-17)
(0.0493572 0.0700592 -2.39468e-18)
(0.00507107 -0.00807369 4.95181e-18)
(0.028065 0.0679778 4.41227e-18)
(-0.0521742 -0.00657074 0)
(-0.0476527 -0.0127425 6.72997e-18)
(0.0484892 0.145821 1.08274e-17)
(-0.0514366 -0.0724936 2.37544e-17)
(0.00603618 -1.37796e-05 0)
(0.0560072 0.00113183 -4.20065e-18)
(0.0498074 -0.03662 2.4039e-17)
(0.0501805 0.0664742 1.33433e-17)
(-0.00592779 -0.0476429 0)
(0.000620866 -0.00776119 -2.08247e-17)
(0.0036384 -0.0873508 1.09325e-17)
(-0.018888 0.00633115 -2.78733e-18)
(0.0119637 0.0246656 -1.45433e-18)
(-0.0173366 -0.0264882 5.31376e-18)
(-4.28167e-05 -0.00667832 2.28375e-17)
(-0.00252706 -0.0506637 0)
(0.00472306 -0.0119712 0)
(-0.0364283 -0.112684 0)
(-0.0223819 -0.0329637 -1.17665e-17)
(0.0851274 0.0772045 0)
(-0.0156311 -0.0332565 1.9453e-17)
(0.01099 -0.0721816 -1.13598e-17)
(0.000123476 -0.0153664 -1.1658e-17)
(-0.00100495 -0.0496755 0)
(0.0774019 0.0575427 -5.90064e-18)
(0.0427589 0.0347349 0)
(-0.0208768 -0.0363323 6.63626e-19)
(0.00181087 -0.013649 1.12223e-17)
(0.00113392 -0.0166078 1.64474e-17)
(0.0253343 -0.049794 0)
(0.0137132 -0.0261938 2.12601e-17)
(-0.00328962 -0.0346055 0)
(0.000938827 -0.0450337 0)
(0.0101371 -0.0617816 1.42145e-18)
(0.0655129 0.0898094 -2.06705e-17)
(0.00520726 -0.00856116 -1.21428e-18)
(0.0817989 -0.0723786 0)
(-0.000661212 -0.0237363 4.08997e-17)
(-0.0102509 -0.0481512 1.15767e-18)
(0.0209374 0.103448 -1.0277e-17)
(0.0245755 -0.0280007 0)
(0.0928828 0.0528348 -9.07527e-18)
(0.0255155 -0.0421715 -2.47705e-17)
(0.101869 -0.0741814 2.26244e-17)
(0.0759464 0.0808527 1.08418e-17)
(0.0290474 -0.042194 1.00274e-17)
(0.0437449 0.0242439 -1.08599e-17)
(0.00266988 -0.0172674 -2.18938e-17)
(0.0962877 -0.103468 -2.05892e-17)
(0.0429138 0.0268833 0)
(0.15285 -0.0428525 1.44577e-17)
(0.0286685 -0.0578346 5.02823e-18)
(0.115301 0.074252 1.94023e-17)
(0.0481047 0.146253 5.24078e-18)
(0.049969 0.151539 0)
(-0.0297575 -0.0725976 1.91942e-17)
(-0.00217062 -0.073691 3.09891e-17)
(0.128786 0.0728398 0)
(0.0348971 -0.0507106 3.1996e-18)
(0.00203079 -0.00427828 -1.43469e-17)
(0.0968434 0.0924881 0)
(0.00698644 -0.0602883 -1.35543e-18)
(0.0631509 -0.0346696 -1.95121e-17)
(0.0803956 0.00346901 -3.07721e-22)
(0.151222 -0.0478615 -5.60595e-22)
(0.0318899 -0.0579036 -5.18057e-18)
(0.0287671 -0.0391842 -2.33502e-17)
(-0.0220264 -0.0191412 2.58864e-17)
(0.0099135 0.00462767 4.62936e-17)
(0.0816433 0.022826 -2.3678e-17)
(0.0237343 -0.00674087 3.43306e-17)
(0.0935597 0.062515 4.8825e-18)
(0.00698599 -0.0294001 1.1483e-17)
(0.0228927 0.0563359 2.28748e-17)
(0.0321348 -0.0481016 0)
(0.106872 -0.0899511 -3.18062e-17)
(0.0241039 -0.0319323 -2.00396e-17)
(0.0422805 0.0396322 5.55048e-18)
(-0.0596706 -0.111237 0)
(0.0166546 0.0383906 -2.45363e-17)
(0.0314616 -0.0438894 -2.34872e-17)
(0.0533868 -0.0142593 0)
(0.0114889 -0.0249935 1.2796e-17)
(0.0135178 -0.0744079 1.43812e-17)
(0.0382188 -0.0580026 -1.1838e-17)
(0.0356462 -0.0467754 1.43401e-18)
(0.013529 -0.0499308 0)
(0.000954638 -0.0793682 2.19342e-22)
(0.0758189 0.0969375 0)
(0.0141823 -0.0165839 2.0611e-17)
(0.028249 -0.0463116 -2.92446e-18)
(-0.0313341 -0.0383518 1.19632e-17)
(0.00175262 -0.0323997 0)
(0.00394743 -0.0321162 2.54537e-17)
(0.0169298 0.0774127 2.35651e-17)
(0.038437 -0.0610051 -5.91317e-18)
(-0.0696303 -0.0786654 -1.92209e-17)
(0.0227266 -0.0291506 -4.03755e-17)
(0.0271463 0.0711624 0)
(0.0476412 0.0505451 0)
(0.054332 0.0650119 -2.46666e-17)
(0.0467511 0.0587511 3.19804e-17)
(0.0570698 0.0223457 1.01867e-17)
(0.15333 0.100866 1.15103e-17)
(0.0291028 -0.04917 8.37685e-18)
(0.00084286 -0.0316284 -1.26946e-17)
(0.0467892 0.158812 0)
(0.0579351 0.0771203 0)
(-0.00496716 -0.0806965 0)
(0.0203237 -0.0783183 -8.44143e-19)