/*--------------------------------*- C++ -*----------------------------------*\
  =========                 |
  \\      /  F ield         | OpenFOAM: The Open Source CFD Toolbox
   \\    /   O peration     | Website:  https://openfoam.org
    \\  /    A nd           | Version:  9
     \\/     M anipulation  |
\*---------------------------------------------------------------------------*/
FoamFile
{
    format      ascii;
    class       volScalarField;
    location    "0.69";
    object      p;
}
// * * * * * * * * * * * * * * * * * * * * * * * * * * * * * * * * * * * * * //

dimensions      [0 2 -2 0 0 0 0];

internalField   nonuniform List<scalar> 
464
(
2.60571e-09
-4.27319e-09
-1.58532e-09
-1.10289e-09
-5.27965e-09
-1.59966e-09
1.06343e-09
-1.02995e-09
-1.07897e-09
-5.81233e-10
2.50481e-09
6.13202e-09
7.76845e-10
6.03012e-09
2.21483e-09
2.12204e-09
4.97557e-10
4.55796e-10
-3.27045e-10
-1.00702e-09
-1.16894e-09
-1.83582e-09
-1.52691e-09
-1.2605e-09
-1.19401e-09
-1.3433e-09
4.31485e-09
-4.03138e-10
4.07842e-09
-1.84177e-09
-1.78001e-09
6.68639e-10
9.34063e-10
4.77974e-10
1.91115e-10
1.55938e-10
-8.83549e-11
-1.19347e-10
-2.75006e-10
1.48873e-09
-9.43354e-10
-1.63149e-09
-1.63045e-09
4.9686e-09
4.04332e-09
1.60347e-09
-6.62646e-10
-3.3094e-10
2.29363e-10
-4.77896e-10
-7.64416e-10
-2.04481e-10
-2.60536e-10
-9.18528e-10
-9.04055e-10
-2.01339e-10
-4.72676e-10
-1.2268e-09
-1.31013e-09
-3.83984e-10
2.15495e-10
-3.57707e-09
-9.82589e-10
-1.04757e-09
-2.24512e-09
-1.02267e-09
-1.54049e-09
3.78154e-10
3.32984e-09
-9.83123e-10
-1.47589e-09
-3.06063e-09
2.58877e-09
-2.74301e-10
-2.39678e-09
-2.56151e-10
-1.37111e-09
1.23686e-09
-1.03174e-09
2.85456e-09
-5.25776e-09
-1.77036e-09
-8.08835e-09
-2.21893e-09
-5.22986e-09
-1.24674e-09
-2.64226e-09
-1.87093e-09
-1.02512e-09
-1.93048e-09
-4.74694e-09
-3.74708e-09
-1.3434e-09
4.79702e-09
-1.53472e-09
-1.23548e-09
-1.14202e-09
-1.55629e-09
-4.40319e-09
-7.94756e-10
-1.05925e-09
-4.21305e-10
-1.33591e-09
3.98112e-10
5.34566e-10
-7.95255e-09
-2.02347e-09
-1.36462e-09
-4.79262e-09
-7.99943e-10
-1.57869e-09
-4.91344e-10
-1.52751e-09
-3.32714e-09
-7.89467e-10
-1.03625e-09
-7.0603e-09
-2.49034e-09
-4.85408e-09
-1.98544e-09
-6.26297e-10
6.25168e-10
-2.03256e-09
2.38912e-09
-1.36111e-09
-1.4139e-09
-8.20855e-10
-1.89539e-09
1.70247e-10
-7.40303e-09
-2.30237e-09
6.61623e-09
4.17134e-12
-1.26647e-09
-2.08659e-09
-6.13423e-09
-2.57117e-09
-6.2312e-10
-8.90913e-10
-2.23077e-09
-2.67097e-09
-1.35715e-09
-1.6836e-09
-1.01826e-09
-2.73353e-09
-2.71689e-09
-1.02129e-09
-1.98921e-09
-1.07288e-09
-2.0487e-09
-1.33528e-09
-1.25234e-09
4.89286e-10
-1.70072e-09
-5.67247e-09
-2.36615e-09
4.93721e-10
-9.96822e-10
-6.2387e-10
-4.23421e-09
-5.7717e-10
-1.22646e-09
-2.28847e-09
-1.68631e-09
-1.51178e-09
-2.60245e-09
7.19894e-11
-1.3326e-09
9.19127e-10
-2.55012e-09
-2.44941e-09
-3.24175e-09
-3.43173e-09
-2.00469e-09
-2.79617e-09
-1.89962e-09
-1.00892e-09
-1.1358e-09
1.49106e-09
4.19152e-10
-1.08651e-09
-1.85387e-09
9.69089e-10
9.43915e-10
1.39395e-09
1.15868e-09
-2.3484e-09
-2.27124e-09
-3.01697e-09
-2.31858e-09
-6.62921e-10
-2.31482e-09
-2.26313e-11
-4.96218e-10
-1.35437e-09
-1.50394e-09
-1.1718e-09
-7.71439e-10
1.21614e-09
-9.60844e-10
-8.02833e-10
-1.39893e-09
-6.49632e-10
-1.25122e-09
-2.25671e-09
-1.63025e-10
-9.16722e-10
-1.3893e-09
-1.64146e-09
-3.78735e-09
-2.43132e-09
-2.28956e-09
3.4396e-10
1.87285e-10
-1.14597e-09
-2.32091e-09
1.58355e-09
-4.30182e-10
4.11393e-09
-1.79063e-09
8.34413e-10
-1.16583e-09
-1.10887e-09
-9.94313e-10
-1.01742e-09
-1.19491e-09
-1.00247e-09
-8.96661e-10
-9.22058e-10
-1.01802e-09
-9.29518e-10
-6.40009e-10
-7.33669e-10
-1.01525e-09
-4.93986e-10
-1.00154e-09
-3.72581e-10
-6.17094e-10
-7.80084e-10
-2.46095e-10
-9.85974e-10
-5.19145e-10
-4.83793e-10
-6.96881e-10
-9.38779e-10
3.49996e-11
-6.02325e-10
-8.93013e-10
-2.08003e-10
-8.89839e-10
-4.77024e-10
-5.61368e-11
-9.00812e-10
-1.533e-09
-8.85435e-10
-5.28551e-10
-9.88527e-10
-8.64364e-10
-8.16683e-10
-3.12066e-10
-4.36022e-10
-8.32856e-10
-7.39245e-10
6.83206e-10
-3.97195e-10
3.03614e-10
-6.80411e-10
-7.03071e-10
1.68892e-09
8.51949e-11
-1.8038e-09
-2.33495e-10
-5.8058e-10
1.07977e-09
8.54279e-10
-6.07205e-10
-9.16374e-11
-1.62724e-09
-2.08429e-09
-2.89284e-09
-8.05562e-10
-7.38542e-10
-2.01712e-09
-1.56924e-10
1.41019e-09
-1.38743e-09
-2.25685e-09
-1.8873e-09
-6.33507e-10
-8.12598e-10
-1.61075e-09
-8.56761e-10
-7.39501e-10
-8.51541e-10
-1.21049e-09
-1.78262e-09
-2.34923e-09
-1.82397e-09
-1.81009e-09
-2.36264e-09
9.81059e-10
2.36388e-10
2.04536e-09
5.37042e-09
-3.0775e-11
-1.17187e-09
-1.15122e-09
-3.98573e-10
-4.06778e-09
-2.02609e-09
-1.08009e-09
-1.00508e-09
-9.37462e-10
4.75718e-10
-1.17112e-09
-1.23633e-09
-2.24561e-09
-2.75062e-09
-9.20996e-10
7.38437e-10
-1.90536e-09
-1.81261e-09
-3.53798e-09
-1.86019e-09
-6.49831e-10
1.86487e-10
4.09352e-10
1.73386e-09
-5.06154e-10
-2.0287e-09
-1.25783e-09
-1.61262e-09
-1.22375e-09
-8.60011e-10
-1.17736e-09
-9.99028e-10
-1.7512e-09
-1.09638e-09
-2.0731e-09
-1.45122e-09
-9.91473e-10
3.03116e-09
-1.74316e-09
-2.2903e-09
-8.01652e-10
-7.89333e-10
2.29735e-10
-1.52849e-09
-1.08046e-09
-1.19557e-09
-7.60643e-10
-1.14445e-09
-1.84134e-09
-1.78396e-09
-6.63652e-10
-2.55523e-09
-1.74686e-09
-6.83258e-09
-1.80195e-09
-4.59828e-09
-1.41357e-09
8.6227e-11
-1.74905e-09
-5.37385e-09
3.05863e-09
-3.99527e-10
-8.37148e-10
1.77803e-10
7.3189e-09
-2.03369e-09
-9.45693e-10
6.83413e-09
1.98022e-09
5.56701e-10
4.89465e-09
-1.32215e-09
3.05641e-09
-1.7235e-09
3.74572e-09
-2.05135e-09
1.88458e-09
7.77383e-10
5.23631e-10
6.61385e-11
-1.74365e-10
2.66124e-10
-1.39764e-10
-1.59031e-09
7.96033e-10
6.41619e-10
-5.15845e-10
-1.42836e-10
-1.13755e-10
-6.78919e-11
-9.85813e-10
-1.364e-09
-1.19197e-09
-1.5598e-09
-1.5219e-09
2.47049e-09
-2.48563e-09
-1.273e-09
4.93814e-09
-7.72003e-10
6.08088e-10
1.95768e-09
5.65552e-09
-5.17471e-10
2.53369e-09
-5.86725e-10
-9.88204e-10
-7.13266e-10
-1.51695e-09
-1.43946e-09
-1.32158e-09
-2.5031e-09
8.88811e-09
-5.75471e-10
-1.41471e-09
-3.69934e-09
-8.44624e-10
-1.22442e-09
2.90442e-09
6.04394e-09
2.5202e-09
2.00166e-09
3.10945e-09
2.67883e-09
2.27512e-09
-7.98256e-09
-1.93937e-09
-8.8865e-11
8.04686e-10
-1.86607e-09
-3.48782e-10
8.4857e-10
6.78752e-10
-1.54117e-09
6.28649e-10
-2.28163e-09
-3.19438e-10
4.75735e-11
-8.55981e-10
-9.91225e-10
-1.37679e-09
-1.20906e-09
-1.36139e-09
-1.76477e-09
-1.20887e-09
-8.40812e-10
1.0996e-09
6.29059e-10
1.08461e-09
-1.51747e-09
-5.05673e-10
2.50171e-10
-2.60513e-11
-5.23385e-10
-7.82743e-10
-6.7289e-10
-6.88226e-10
8.5058e-09
5.09084e-09
-1.53627e-09
)
;

boundaryField
{
    back
    {
        type            empty;
    }
    front
    {
        type            empty;
    }
    left
    {
        type            zeroGradient;
    }
    top
    {
        type            zeroGradient;
    }
    right
    {
        type            zeroGradient;
    }
    bottom
    {
        type            uniformFixedValue;
        uniformValue    
        {
            type            scale;
            scale           
            {
                type            squarePulse;
                start           0.3;
                duration        0.3;
            }
            xScale          
            {
                type            constant;
                value           1;
            }
            value           
            {
                type            constant;
                value           15.1;
            }
        }
        value           uniform 0;
    }
}


// ************************************************************************* //
