/*--------------------------------*- C++ -*----------------------------------*\
  =========                 |
  \\      /  F ield         | OpenFOAM: The Open Source CFD Toolbox
   \\    /   O peration     | Website:  https://openfoam.org
    \\  /    A nd           | Version:  9
     \\/     M anipulation  |
\*---------------------------------------------------------------------------*/
FoamFile
{
    format      ascii;
    class       surfaceScalarField;
    location    "0.69";
    object      phi;
}
// * * * * * * * * * * * * * * * * * * * * * * * * * * * * * * * * * * * * * //

dimensions      [0 3 -1 0 0 0 0];

internalField   nonuniform List<scalar> 
663
(
-7.59749e-15
6.03873e-15
1.55876e-15
3.56403e-15
7.76496e-15
-3.31401e-17
3.31401e-17
6.12595e-16
-3.01242e-16
-3.11353e-16
-3.44759e-15
7.01162e-15
3.53256e-18
-3.66727e-17
-6.65338e-15
-9.44109e-16
2.01697e-16
4.10897e-16
-7.73471e-15
3.01724e-15
4.71747e-15
1.27641e-15
-9.01112e-15
-4.97224e-15
1.1011e-14
5.66486e-15
-4.40521e-15
-1.25965e-15
-3.63614e-15
5.76877e-15
-1.03918e-16
-2.43668e-16
8.43163e-16
-5.99496e-16
-3.41628e-16
9.79602e-17
1.13638e-15
-8.08095e-16
-3.2828e-16
1.13691e-15
-5.32925e-19
2.34381e-17
-2.34381e-17
1.9686e-15
-2.36474e-15
3.96143e-16
-4.46512e-16
2.41511e-15
-7.56264e-16
-9.04977e-16
1.66124e-15
-1.85311e-15
1.09685e-15
-7.82962e-16
6.47542e-16
1.3542e-16
6.38287e-17
-3.65071e-16
-4.37641e-16
-3.45321e-16
-2.25952e-15
2.17776e-15
8.1757e-17
6.64756e-16
-2.3101e-16
-4.33746e-16
-1.67109e-15
-5.88434e-16
1.24568e-15
-1.04432e-15
-2.01368e-16
6.00439e-16
6.45245e-16
5.30764e-16
-1.78697e-17
-5.12895e-16
2.27215e-16
3.03549e-16
-1.82109e-16
-2.9159e-16
4.73698e-16
5.68704e-16
-7.50813e-16
7.86773e-16
3.50135e-16
1.75666e-15
-9.69886e-16
-1.01545e-16
1.24983e-16
1.70744e-16
4.94013e-16
1.16251e-16
4.94475e-17
-1.65699e-16
-1.34846e-15
-1.01629e-15
2.00432e-15
-2.27881e-15
2.74494e-16
1.51205e-16
1.16818e-15
1.00958e-15
-3.23702e-15
-2.25377e-16
-1.00606e-15
2.11109e-15
-1.10503e-15
-1.97862e-15
1.81596e-15
1.62653e-16
-2.95727e-16
2.95727e-16
-3.32555e-16
7.78135e-16
-2.12659e-15
9.07166e-16
1.80488e-16
-1.08765e-15
-2.10534e-15
3.58656e-16
1.74668e-15
2.4817e-16
-1.56792e-15
1.31975e-15
2.55779e-15
-2.30962e-15
-5.87134e-16
1.4943e-15
-1.5932e-15
-7.45298e-16
-8.52931e-16
1.59823e-15
1.7133e-15
-2.4586e-15
-1.76238e-15
-3.4296e-16
-1.24983e-16
-3.26043e-15
5.93117e-15
-2.67074e-15
-1.45409e-15
3.05394e-16
1.14869e-15
1.14509e-15
-1.51322e-15
3.68136e-16
-4.95758e-15
6.23399e-15
-5.77943e-16
-9.89979e-16
-9.06907e-16
1.42416e-15
-5.17249e-16
4.76215e-16
-6.23189e-15
4.28405e-17
2.51495e-15
2.20971e-15
-4.96407e-16
-8.21802e-15
-5.40964e-16
-1.13012e-15
-6.90055e-16
-1.28856e-15
4.77966e-16
-6.76335e-16
1.98369e-16
-5.93641e-16
9.31761e-16
-1.83867e-15
-6.16644e-15
7.7252e-15
-1.61779e-15
7.64857e-16
3.02199e-16
4.72378e-15
2.79904e-15
-7.52282e-15
-2.4873e-16
2.37776e-16
1.09544e-17
9.51091e-16
-2.53644e-15
1.58535e-15
9.34872e-17
2.21855e-17
-1.15673e-16
5.67487e-15
-8.91688e-16
-5.62399e-16
3.87795e-15
2.05322e-15
-1.55243e-16
-9.97963e-16
7.6672e-16
2.31243e-16
7.87309e-16
-3.09343e-16
3.00413e-15
-5.41897e-15
2.32876e-16
-1.00894e-15
7.76063e-16
-4.20635e-15
-2.89828e-15
7.10463e-15
6.31243e-16
-3.98367e-16
1.23716e-15
-4.72701e-16
-6.15327e-17
2.99308e-16
2.50739e-16
-4.85544e-16
2.34805e-16
2.37225e-15
-6.00839e-15
-6.61773e-16
-3.3619e-16
-3.64959e-16
2.18092e-15
4.93432e-16
-1.15521e-15
5.55663e-16
-5.73532e-16
2.64073e-16
-2.53644e-15
2.21857e-17
5.43783e-16
8.80373e-16
-6.70504e-16
3.67463e-15
-1.95785e-15
2.58895e-15
-6.31102e-16
2.97577e-16
-3.4902e-16
5.14429e-17
1.42104e-15
-4.65156e-16
1.28205e-15
-1.03131e-15
-1.34291e-16
9.01011e-16
-7.37756e-16
1.23119e-15
-1.58535e-15
9.14849e-16
1.26824e-16
1.15673e-16
-2.42497e-16
-4.85544e-16
6.34527e-16
-5.07703e-16
-2.32281e-15
-2.55722e-15
4.92948e-15
4.10355e-15
-2.256e-16
-5.47901e-15
4.5349e-15
1.31802e-15
-3.64468e-16
6.62045e-16
4.09452e-15
9.03451e-18
-3.33858e-16
-1.5162e-17
1.03749e-15
-4.68782e-16
1.53731e-15
-1.53731e-15
4.9572e-16
-1.23348e-15
-2.41606e-16
-9.69808e-16
1.21141e-15
9.14849e-16
-2.42497e-16
2.20723e-16
-6.5447e-16
-7.54192e-16
7.54192e-16
4.16267e-16
-6.57873e-16
6.82686e-16
-2.05561e-15
1.55921e-15
1.0969e-15
-4.16268e-16
1.73771e-16
-1.4373e-16
-5.32605e-16
-8.57439e-16
1.35316e-15
4.79284e-16
-1.39738e-15
-1.15842e-16
-8.54237e-16
1.00045e-16
3.92684e-16
-1.25012e-15
-1.50821e-15
2.74732e-16
2.23395e-15
-5.76123e-17
-2.17634e-15
-6.36276e-18
-3.58105e-16
4.29304e-16
6.57873e-16
9.63191e-17
-8.08219e-16
1.23953e-19
-8.63953e-16
1.25664e-15
1.53729e-15
1.86289e-15
1.81174e-15
6.55747e-16
-1.79014e-15
1.13439e-15
2.59656e-16
-1.12361e-15
-9.31498e-17
2.91519e-16
-8.54237e-16
1.39795e-16
-9.94031e-16
1.38036e-15
-7.24608e-16
-1.91896e-15
2.05875e-15
6.77261e-17
-6.20892e-18
-6.15171e-17
-2.07417e-18
2.07417e-18
-8.38223e-17
8.17482e-17
3.91611e-15
9.10757e-17
-2.34805e-16
-1.87478e-15
-9.10756e-17
-9.58684e-17
-2.3799e-16
-7.26636e-16
9.86292e-16
-7.65147e-16
3.85105e-17
3.28036e-16
1.90591e-15
1.37974e-16
-6.33717e-16
4.95743e-16
1.34085e-15
-2.106e-15
-1.42517e-16
9.80546e-16
-8.38029e-16
1.69208e-16
-1.69208e-16
3.07182e-16
7.13618e-17
-3.63565e-18
-7.1362e-17
-9.78461e-17
3.00657e-16
-4.43174e-16
3.00657e-16
-1.7969e-16
8.3822e-17
-2.07256e-15
-2.79335e-16
2.3519e-15
1.7969e-16
1.20966e-16
8.44608e-16
-8.44608e-16
1.08357e-16
-3.57702e-16
-2.1009e-15
-2.27682e-15
1.91912e-15
-2.36547e-15
-2.30267e-15
2.34551e-15
4.9225e-17
-2.19169e-15
-8.51266e-17
1.00219e-15
-9.52966e-16
-2.36619e-15
1.74497e-16
9.52966e-16
1.00219e-15
9.81514e-16
-9.81514e-16
8.96388e-16
-4.43174e-16
4.76215e-16
-6.56909e-16
6.56909e-16
-9.94031e-16
-3.63564e-18
4.45971e-16
-4.45971e-16
8.96388e-16
3.07182e-16
2.06763e-17
-7.76298e-17
-5.39433e-16
-2.5755e-16
-2.81883e-16
-3.3518e-16
-6.03862e-16
-1.50577e-15
2.10963e-15
-4.42447e-16
1.07268e-16
-7.4311e-17
-6.78173e-16
-1.93657e-15
4.30804e-16
-8.65483e-16
-1.07109e-15
1.03583e-15
-2.03875e-15
2.46955e-15
8.6684e-17
7.35582e-16
8.83852e-16
-1.61943e-15
1.78543e-15
-1.04985e-15
-7.78799e-16
-1.23528e-15
2.11913e-15
2.57032e-16
-1.09585e-15
-5.23588e-16
7.14341e-16
-7.92818e-16
3.55875e-16
-1.56356e-15
-7.3997e-16
1.5935e-16
-2.52482e-15
-1.36213e-15
8.38546e-16
-8.34681e-16
-1.02885e-15
-3.33279e-16
-7.2501e-16
1.03862e-15
-9.77397e-16
-6.12266e-17
7.80946e-16
4.00161e-16
-1.14013e-15
-6.28693e-16
-2.79922e-16
1.53656e-15
-8.34681e-16
4.09931e-16
-8.43483e-16
2.20462e-16
6.23021e-16
-5.19921e-16
9.29853e-16
8.45793e-16
-4.78538e-16
-3.67255e-16
3.99063e-16
-9.18985e-16
5.79315e-17
-9.05329e-16
8.47397e-16
-4.4442e-16
1.43829e-15
4.01373e-16
1.12173e-15
-9.25569e-16
3.26074e-16
-9.5994e-16
5.46115e-17
-1.77846e-15
-4.09981e-16
8.11354e-16
4.67422e-16
-1.19203e-15
-7.8172e-17
-5.4953e-16
4.92518e-16
-9.025e-16
-1.36496e-16
-7.59891e-16
7.59891e-16
7.49444e-16
-1.0188e-15
-1.73235e-16
1.0651e-15
3.17938e-17
2.05741e-16
-1.38067e-15
1.70675e-15
1.0494e-16
-1.12374e-15
1.60909e-16
5.98982e-16
2.70358e-15
-2.69455e-15
-5.28093e-16
-1.6852e-15
6.24705e-17
-1.74767e-15
2.76605e-15
-1.38495e-15
-1.62108e-15
-9.70242e-17
1.72012e-15
-5.98982e-16
1.55808e-16
-6.36357e-16
5.1539e-16
1.22157e-15
-1.04195e-15
-3.0399e-15
4.93401e-15
-1.89411e-15
1.56242e-15
1.58149e-15
1.75164e-16
7.14836e-16
2.04149e-16
-1.80883e-16
2.24104e-15
6.65862e-17
2.3991e-15
3.26139e-15
-1.7241e-15
2.94789e-16
6.0771e-16
-1.20973e-15
2.4313e-15
-1.06348e-16
3.08046e-16
3.58943e-15
-3.68202e-16
-6.76114e-16
-1.35528e-15
-6.81955e-16
6.81955e-16
6.83635e-16
1.62399e-15
7.91126e-16
7.39191e-15
-3.3998e-15
1.02797e-16
-1.02797e-16
2.5736e-15
-6.3479e-16
1.29304e-15
-1.66626e-16
1.66626e-16
-6.54825e-16
-6.02772e-17
6.02772e-17
-5.78869e-16
-9.64722e-15
-1.43308e-15
-6.42141e-16
-1.2329e-17
-5.20646e-16
9.0177e-16
-1.19947e-15
3.04764e-15
3.53255e-18
3.04764e-15
3.53255e-18
-2.04475e-15
9.80971e-15
5.37925e-17
-2.06525e-17
-1.44897e-15
-2.57183e-17
-5.11198e-16
8.11269e-15
4.31634e-18
-2.77544e-17
1.86063e-16
8.51423e-16
1.43339e-15
-7.09071e-16
8.79603e-18
5.14811e-17
-5.27728e-16
5.76628e-16
-6.81806e-16
-1.26413e-16
5.27728e-16
1.69699e-15
-1.50397e-15
-1.43772e-16
5.353e-16
4.58119e-17
2.57864e-16
-1.60018e-16
-3.53071e-16
-8.02061e-16
-4.58283e-16
-1.27792e-16
-4.99174e-16
3.07306e-16
-3.06774e-16
-1.86358e-15
1.14924e-15
4.76025e-16
-4.76025e-16
1.09334e-15
1.49205e-15
-1.31487e-15
-2.15169e-16
1.40392e-15
-2.48254e-15
8.02019e-15
5.37925e-17
7.53382e-15
8.79595e-18
5.94294e-15
-1.92202e-15
2.99581e-15
-2.99581e-15
4.31632e-18
-3.48031e-15
4.31632e-18
-4.39074e-15
-4.62039e-15
2.26616e-16
-2.38945e-16
2.29651e-16
-2.78656e-16
4.90048e-17
-8.75171e-16
-2.80034e-16
1.43339e-15
-1.05939e-16
6.91007e-17
-3.62433e-15
-1.43772e-16
-4.58119e-17
-1.98897e-17
3.07306e-16
3.06774e-16
1.20061e-15
1.59675e-15
-1.46529e-15
-3.68445e-16
-6.25356e-16
-1.46422e-17
-1.31123e-17
1.20582e-16
)
;

boundaryField
{
    back
    {
        type            empty;
        value           nonuniform List<scalar> 0();
    }
    front
    {
        type            empty;
        value           nonuniform List<scalar> 0();
    }
    left
    {
        type            calculated;
        value           uniform 0;
    }
    top
    {
        type            calculated;
        value           uniform 0;
    }
    right
    {
        type            calculated;
        value           uniform 0;
    }
    bottom
    {
        type            calculated;
        value           nonuniform List<scalar> 8(-1.1329e-14 -3.99211e-15 1.02261e-14 -6.49524e-15 -1.00649e-14 6.47611e-15 1.11581e-14 4.02092e-15);
    }
}


// ************************************************************************* //
