/*--------------------------------*- C++ -*----------------------------------*\
  =========                 |
  \\      /  F ield         | OpenFOAM: The Open Source CFD Toolbox
   \\    /   O peration     | Website:  https://openfoam.org
    \\  /    A nd           | Version:  9
     \\/     M anipulation  |
\*---------------------------------------------------------------------------*/
FoamFile
{
    format      ascii;
    class       volVectorField;
    location    "0.69";
    object      U;
}
// * * * * * * * * * * * * * * * * * * * * * * * * * * * * * * * * * * * * * //

dimensions      [0 1 -1 0 0 0 0];

internalField   nonuniform List<vector> 
464
(
(-1.57159e-07 -1.64429e-07 -6.59326e-27)
(-1.04467e-07 2.96857e-07 0)
(2.97453e-10 5.32705e-10 0)
(1.4415e-08 -6.20996e-10 6.91203e-26)
(-7.44355e-08 2.40346e-07 0)
(2.42047e-10 4.47389e-10 -2.52209e-26)
(-1.51022e-07 -1.09066e-07 1.09051e-25)
(1.36659e-08 -2.82192e-09 0)
(-1.85591e-07 1.29299e-08 -1.69839e-26)
(-1.7633e-07 1.07857e-07 -8.15645e-26)
(-1.25547e-07 -2.10712e-07 8.72429e-27)
(-5.29713e-08 -1.48438e-07 -8.805e-27)
(-1.64653e-07 -3.35078e-08 -7.57529e-27)
(-3.90474e-08 -1.40628e-07 0)
(-8.30659e-09 -1.97832e-08 6.40984e-26)
(-4.10549e-09 -1.09567e-08 -1.26545e-25)
(-6.90949e-09 3.33135e-08 0)
(-4.55015e-09 3.11015e-08 1.075e-26)
(6.32169e-10 -3.69093e-10 -1.69587e-26)
(-3.5435e-10 7.0988e-08 6.27285e-26)
(2.41995e-09 7.44818e-08 -9.53018e-26)
(1.76586e-08 4.92928e-08 2.68363e-26)
(2.01482e-08 5.20249e-08 -1.21059e-26)
(1.66823e-08 5.01022e-09 0)
(1.01827e-08 3.91693e-10 -7.09904e-26)
(1.67325e-08 8.25354e-09 4.17955e-26)
(-1.55806e-08 -5.22566e-08 -1.24384e-25)
(8.82456e-09 -1.22056e-08 -2.05397e-26)
(-2.13062e-08 -5.58495e-08 0)
(1.60784e-08 2.67833e-08 0)
(1.95335e-08 2.26452e-08 5.80317e-27)
(-1.26785e-08 -3.34419e-09 -2.43515e-28)
(-1.01407e-08 -5.5888e-09 7.62729e-27)
(-1.10602e-08 1.20431e-08 1.83995e-26)
(-1.44882e-08 1.43985e-08 -1.85437e-26)
(-4.15991e-09 3.76329e-08 -4.15737e-27)
(-8.21679e-09 4.92644e-08 1.89719e-27)
(1.55029e-09 -2.70702e-09 -2.16874e-27)
(6.94144e-09 -1.48926e-08 4.41881e-27)
(-3.19605e-09 -4.45819e-09 0)
(-4.11216e-09 7.10789e-08 7.82244e-26)
(1.2474e-08 6.48359e-08 0)
(1.72279e-08 5.89762e-08 -3.03588e-26)
(-2.01753e-08 -7.53086e-08 -2.56129e-25)
(-4.15308e-08 -1.09816e-07 2.61291e-25)
(-5.42086e-09 -9.15027e-09 5.25344e-27)
(2.40785e-08 -4.17126e-08 3.35253e-26)
(7.19008e-09 -4.94935e-08 4.3695e-27)
(1.5711e-09 -5.5607e-09 0)
(4.59248e-09 -6.61409e-09 2.09974e-27)
(-4.57574e-09 7.32783e-08 -5.04749e-26)
(8.32361e-09 -2.59936e-08 3.24607e-28)
(-2.21868e-09 5.37274e-08 -1.76246e-26)
(7.54482e-09 -4.64715e-08 -5.50417e-26)
(6.1564e-09 -6.81621e-08 -1.70013e-27)
(1.23872e-08 -3.59514e-08 1.05679e-26)
(2.04147e-08 -3.79177e-08 0)
(-2.02442e-08 -4.07223e-08 0)
(-1.60278e-08 -5.89824e-08 -8.30865e-26)
(-4.75748e-09 5.85627e-08 0)
(2.54787e-09 -7.63114e-09 -6.50369e-27)
(-8.52623e-08 1.41021e-07 3.89722e-25)
(-2.74051e-08 -2.1242e-08 1.32544e-25)
(-8.88717e-09 -3.249e-08 -6.28477e-26)
(-1.45322e-07 1.20821e-07 -8.65513e-27)
(1.37012e-08 -3.0765e-08 -5.51085e-26)
(-1.64163e-08 -3.5131e-08 -8.65676e-26)
(3.03412e-09 -1.43294e-08 2.11416e-26)
(-9.08037e-08 -1.79503e-07 -9.43417e-26)
(1.51962e-09 -7.42553e-08 6.14141e-26)
(-1.49692e-08 -5.80822e-08 8.29143e-26)
(-1.15738e-07 1.63483e-07 -2.05368e-25)
(-1.72686e-08 -4.02578e-08 0)
(1.16835e-08 -4.92995e-08 1.81284e-26)
(-8.31538e-09 1.32662e-08 -1.39578e-25)
(1.16457e-08 -2.31486e-08 1.57963e-26)
(-2.01794e-08 -3.84944e-08 -8.653e-26)
(-1.773e-07 -1.45489e-07 -1.12532e-25)
(-1.82471e-08 -2.99772e-08 -6.45573e-26)
(-7.73256e-09 -2.55502e-08 7.20771e-26)
(-7.07506e-08 1.94356e-07 0)
(3.74123e-09 3.77252e-09 2.42047e-26)
(-1.6587e-08 7.84833e-08 -4.75329e-25)
(1.33586e-09 2.52224e-09 1.37813e-25)
(-4.30478e-08 1.41199e-07 0)
(-2.45088e-08 -3.4181e-08 1.01529e-27)
(-8.61254e-08 1.09231e-07 -1.8659e-25)
(4.1069e-09 6.06239e-09 0)
(2.32233e-08 -6.09943e-09 0)
(-1.56823e-08 1.6522e-08 -1.03126e-25)
(-5.23893e-08 1.31e-07 2.85179e-25)
(-1.07701e-07 2.08516e-07 0)
(-1.67524e-08 -1.72461e-08 8.72656e-26)
(-7.31751e-08 -2.24342e-07 -2.45835e-25)
(-1.27669e-08 -1.34594e-08 -8.58307e-26)
(-2.5639e-08 -2.66979e-08 -6.60413e-26)
(-1.29036e-08 -4.54179e-08 6.47072e-26)
(6.97179e-09 4.75376e-09 -2.21989e-26)
(-3.31035e-09 1.38787e-08 -2.74834e-25)
(-1.45556e-07 3.82244e-09 7.10613e-29)
(2.41443e-08 7.6082e-10 0)
(9.07072e-09 -6.05095e-08 6.86189e-27)
(2.75223e-08 5.61286e-09 0)
(-1.29474e-08 2.2949e-09 2.38284e-28)
(-1.0224e-08 5.56363e-09 0)
(-1.11631e-08 5.33583e-08 -3.67341e-25)
(4.86028e-10 3.12605e-10 0)
(-1.9035e-08 -2.74588e-08 8.48998e-26)
(-2.90146e-08 9.13027e-08 -2.85485e-25)
(1.43023e-08 -6.26224e-08 0)
(-1.13621e-08 -4.05653e-09 0)
(1.9149e-08 -5.10532e-08 -3.42244e-26)
(-1.48644e-08 -2.37051e-08 0)
(-1.12968e-08 3.11169e-08 1.84685e-25)
(2.55502e-08 -1.20128e-08 1.4225e-27)
(3.14695e-08 1.1914e-09 -9.8557e-28)
(-1.01784e-08 4.73141e-08 3.96796e-25)
(2.08133e-09 7.07451e-09 1.61509e-25)
(-2.76183e-09 8.95114e-09 2.21103e-25)
(6.32081e-09 1.45136e-08 -8.18962e-27)
(1.49245e-08 -6.25422e-08 3.67865e-26)
(-1.23152e-07 -2.54488e-08 -1.38279e-27)
(-1.08991e-07 7.88067e-08 8.47497e-26)
(-1.20144e-07 -1.1414e-07 -9.30236e-26)
(-1.93406e-08 -4.93984e-08 0)
(-1.39134e-08 8.0379e-10 9.28523e-26)
(-9.84882e-08 4.54826e-08 -8.54882e-26)
(-6.18199e-09 -4.68969e-09 0)
(-1.59802e-08 2.10535e-08 0)
(-7.31178e-09 3.16383e-08 3.68235e-25)
(1.01939e-09 2.18581e-09 -1.07029e-25)
(-8.01113e-09 -3.24724e-08 -3.10909e-25)
(1.12493e-09 -2.21264e-09 5.268e-27)
(3.30535e-08 8.33843e-09 0)
(7.50597e-09 3.552e-08 0)
(-4.62078e-09 1.75309e-08 -3.14682e-25)
(1.31295e-09 4.93832e-09 -2.47548e-25)
(1.49318e-08 -1.36064e-08 -4.30308e-26)
(-1.37451e-07 7.10087e-08 9.2554e-26)
(9.91487e-10 1.57426e-08 1.02269e-25)
(2.85713e-09 2.07727e-08 0)
(-1.45496e-08 -8.02188e-09 0)
(-9.00672e-09 -5.57209e-08 -4.64825e-27)
(3.00868e-08 -1.06392e-08 5.37732e-26)
(2.6427e-09 1.31646e-08 1.5466e-25)
(-6.76266e-09 1.60677e-08 -1.68077e-25)
(3.41807e-08 1.25042e-09 0)
(8.10721e-09 1.17951e-08 0)
(-3.14804e-09 -4.77714e-08 1.61106e-27)
(1.6515e-09 3.20528e-08 -2.34001e-25)
(3.29932e-08 1.18029e-08 2.52228e-27)
(2.94255e-08 2.19876e-08 8.10634e-26)
(-4.95867e-08 -2.97217e-08 4.59491e-26)
(-1.18663e-08 5.32117e-09 -9.32641e-26)
(-6.03281e-09 2.66034e-08 -2.8434e-28)
(2.25219e-09 2.75602e-08 -1.52747e-25)
(-5.19194e-09 2.37816e-08 0)
(3.17949e-08 2.19203e-09 0)
(-1.04557e-07 9.0612e-10 -4.35825e-27)
(-3.5126e-08 8.28169e-08 2.50785e-25)
(-4.52725e-08 6.12951e-11 0)
(2.85129e-08 1.47337e-08 -6.90127e-26)
(-4.50598e-09 6.31493e-09 2.69533e-25)
(7.8223e-10 1.80386e-08 1.27588e-26)
(7.71676e-10 3.59803e-08 9.52409e-26)
(1.58049e-09 8.75515e-09 0)
(-3.59915e-08 -6.34517e-09 -1.51956e-26)
(1.96869e-09 6.07992e-08 7.69766e-26)
(-3.82699e-09 1.05327e-09 -4.75202e-26)
(-7.01835e-10 -2.96903e-10 2.47136e-25)
(-9.74838e-10 -1.43027e-09 -6.84548e-27)
(-5.95366e-08 9.17763e-08 -1.69755e-25)
(-1.75137e-09 6.42215e-09 -2.29804e-26)
(1.13401e-08 4.77312e-08 -2.66623e-26)
(-1.06125e-09 1.91534e-09 1.3938e-26)
(-4.36051e-09 -8.02507e-09 -1.11331e-25)
(2.50046e-08 1.68204e-09 6.81785e-26)
(1.98621e-08 1.63649e-08 -2.64941e-28)
(-5.61039e-08 -4.76993e-08 6.61869e-26)
(-4.97686e-09 1.60142e-08 -4.61254e-27)
(1.76329e-08 4.52053e-08 7.14209e-26)
(-6.18284e-09 -2.48636e-08 1.0926e-25)
(-8.30641e-10 3.56289e-09 0)
(-1.35971e-09 8.87187e-09 5.66348e-26)
(-7.81676e-10 1.24413e-09 1.24895e-26)
(-1.22222e-09 4.58783e-09 1.76823e-27)
(-2.1049e-09 -1.4072e-08 0)
(-1.13285e-09 -6.01726e-09 -1.09504e-25)
(-9.46997e-10 1.39637e-09 -2.92811e-25)
(-1.26232e-09 -4.84687e-09 2.45903e-28)
(5.22552e-09 -6.81798e-08 -4.17749e-29)
(-1.70478e-09 -9.00755e-09 1.36979e-25)
(1.20562e-09 -1.67864e-08 -5.20865e-28)
(4.85402e-09 -5.77319e-08 -2.78275e-26)
(-1.11319e-08 -6.72269e-08 8.31317e-29)
(-6.75524e-09 -6.47218e-08 -8.33951e-29)
(1.23725e-09 7.08606e-08 -7.07779e-26)
(8.66009e-09 -7.06162e-08 4.13305e-29)
(-6.65712e-10 1.60215e-09 6.21504e-26)
(8.88075e-10 -7.16784e-08 6.17659e-26)
(2.07783e-09 -6.30112e-08 0)
(-3.47613e-09 -6.06984e-08 0)
(7.3712e-10 -3.70071e-08 0)
(-3.30396e-09 -7.03306e-08 7.10034e-29)
(-9.21393e-10 -3.6413e-09 0)
(1.8062e-09 -3.38959e-08 -1.18424e-26)
(1.23154e-10 -2.01357e-08 0)
(-4.50516e-10 -1.9706e-08 -6.10018e-26)
(-1.31556e-09 -3.55245e-08 1.02432e-25)
(-1.58431e-09 4.09446e-09 1.72369e-25)
(1.53428e-09 1.33355e-08 1.13931e-25)
(-1.28775e-09 -8.88776e-09 0)
(1.66179e-09 -9.28359e-09 -1.72659e-26)
(-1.02794e-09 1.50183e-08 1.31334e-27)
(4.4101e-11 2.01646e-08 0)
(-7.3693e-10 -1.80957e-09 -1.1392e-25)
(-5.51521e-10 2.88617e-10 -7.00439e-26)
(7.02065e-10 -1.91193e-08 1.41679e-26)
(-2.94682e-09 -8.90099e-09 2.826e-26)
(-9.31577e-10 -1.79936e-08 -8.19586e-26)
(-1.00894e-09 6.10283e-09 -4.22572e-26)
(-3.36681e-10 -3.75283e-08 7.62937e-26)
(-8.50291e-10 -6.39189e-08 -6.18402e-26)
(2.22279e-09 -3.26907e-08 1.17825e-25)
(1.42948e-08 1.67642e-09 6.71828e-26)
(8.00508e-09 1.83887e-08 -6.35802e-26)
(2.12295e-09 2.3885e-09 0)
(-1.27499e-08 4.80901e-08 2.70158e-26)
(-3.6212e-09 1.80185e-08 -1.58409e-27)
(-9.39728e-09 9.72143e-10 -5.93789e-26)
(-1.46399e-08 1.75e-08 5.88544e-26)
(-1.48283e-08 5.56801e-08 -4.04643e-27)
(-2.02062e-08 4.20322e-08 0)
(-2.45386e-08 -2.6135e-08 -6.61732e-26)
(-1.1259e-08 6.66647e-08 3.0774e-26)
(-1.93518e-08 1.86774e-09 0)
(-2.3115e-08 3.83602e-08 -3.13445e-27)
(-2.4609e-08 3.48473e-08 -3.34049e-27)
(-2.26526e-08 1.60984e-08 5.23706e-26)
(-1.67492e-08 4.67995e-08 6.05779e-27)
(-2.58807e-08 1.25714e-09 -5.34606e-26)
(-2.56525e-08 2.76003e-08 -2.56462e-26)
(-2.06909e-08 4.72237e-08 3.20359e-26)
(-2.74069e-08 1.32377e-08 0)
(-2.89242e-08 9.02165e-10 0)
(-1.25667e-08 4.08372e-08 -5.51211e-27)
(-2.86963e-08 1.02e-08 -1.04552e-27)
(-6.21774e-10 6.35609e-08 0)
(-2.23585e-08 2.8705e-08 0)
(-9.53114e-10 3.58606e-08 0)
(-2.41181e-08 1.94937e-08 -1.78187e-26)
(-1.61061e-08 3.41286e-08 -2.66598e-27)
(-2.47217e-08 -1.0715e-08 -6.24808e-26)
(-1.63833e-08 1.04078e-08 1.03445e-25)
(-2.86844e-08 5.73157e-10 0)
(-2.72055e-08 6.90139e-09 0)
(3.04404e-08 -2.18738e-08 0)
(-1.36141e-09 1.85754e-08 -2.11973e-26)
(-2.60749e-08 1.33012e-10 -3.85136e-26)
(-1.93073e-08 5.36449e-09 0)
(-2.4156e-08 3.96064e-09 3.66959e-26)
(-1.99462e-08 -1.4565e-09 1.18863e-25)
(-2.3126e-08 -7.80717e-11 3.45078e-26)
(-2.20853e-08 -1.45068e-08 2.12584e-26)
(-2.18103e-08 1.73553e-09 -3.45086e-26)
(-3.14947e-08 -1.72921e-08 -7.76208e-26)
(-2.12692e-08 1.64218e-10 -8.95292e-29)
(2.05903e-08 -1.74797e-08 -1.39038e-27)
(-1.54859e-08 -2.38657e-08 -5.44232e-26)
(-2.1684e-08 -7.86794e-09 -2.15465e-26)
(7.08006e-09 4.87668e-08 -9.45651e-26)
(-2.1036e-08 -3.92892e-10 0)
(-3.00579e-08 -3.10561e-11 1.47636e-26)
(-1.52708e-08 -1.59702e-08 -2.15677e-26)
(-1.11739e-07 -7.49588e-08 2.00178e-26)
(-2.26571e-08 7.5935e-11 0)
(-2.51348e-08 -2.97549e-09 0)
(-5.42246e-09 -5.39769e-08 -9.87247e-26)
(-1.23316e-09 -1.52823e-08 0)
(-1.33417e-08 2.72827e-08 -1.82167e-26)
(-2.80449e-08 8.77763e-09 3.24728e-28)
(2.98945e-08 -1.97809e-08 -5.27017e-28)
(-2.01419e-09 -3.13816e-08 0)
(8.15084e-09 -3.77543e-08 -1.07338e-26)
(-2.59816e-08 -3.35e-08 -5.94541e-26)
(-3.14384e-08 1.7394e-08 -6.41634e-26)
(-2.36065e-09 -2.58152e-08 -1.35632e-25)
(-7.51066e-08 5.08002e-08 0)
(2.40815e-08 -2.89851e-08 0)
(-4.24194e-08 1.67357e-08 6.58335e-26)
(-4.89107e-08 3.08392e-08 4.25845e-28)
(-6.59494e-08 2.85145e-08 -3.5144e-28)
(3.01456e-08 -2.81367e-08 -5.23443e-26)
(1.78244e-08 -4.2667e-08 1.11684e-25)
(-2.42402e-08 -1.90148e-08 6.38648e-26)
(-6.44534e-09 -4.47897e-08 2.11626e-25)
(-2.35506e-09 -1.98092e-08 0)
(-7.2384e-09 -1.31752e-08 1.17588e-27)
(-8.64086e-09 -2.27646e-08 -1.09505e-25)
(-5.862e-08 6.93987e-08 1.6816e-25)
(-3.51243e-08 -2.80368e-08 4.13586e-26)
(-5.56012e-08 -1.06542e-08 -1.39088e-26)
(-6.32707e-08 -9.22809e-08 -2.76813e-25)
(-4.36607e-08 -1.72961e-07 3.09574e-25)
(-8.08785e-09 5.53927e-08 8.39908e-27)
(-2.15399e-08 -1.18548e-08 -6.23141e-26)
(-1.90217e-08 -5.30843e-09 -1.19655e-25)
(-4.88079e-09 4.78822e-08 6.86774e-27)
(-1.86262e-08 5.50226e-08 -4.75271e-25)
(-3.90885e-09 -1.0145e-09 -1.22211e-25)
(-2.51769e-09 -6.93216e-08 -6.14288e-26)
(3.26929e-08 -1.6453e-08 7.54892e-29)
(-2.71517e-08 -1.59798e-08 0)
(-8.53595e-08 -1.70299e-08 -1.47166e-27)
(-1.84438e-08 1.10711e-09 -1.18989e-25)
(-2.18989e-08 8.10084e-09 0)
(-1.33826e-09 -1.20551e-08 1.07513e-25)
(-3.88163e-08 5.63059e-08 0)
(8.62189e-09 -2.2142e-09 0)
(-7.69719e-08 -4.92803e-08 -6.71947e-26)
(1.66282e-08 3.46305e-08 8.40177e-26)
(-9.71235e-09 -3.35417e-08 -3.90792e-28)
(-2.21327e-08 4.91865e-08 2.27589e-25)
(-5.28165e-09 -1.58501e-08 1.09896e-25)
(-7.01325e-08 7.48546e-10 1.84136e-26)
(2.60363e-09 -2.85992e-08 7.54755e-27)
(3.09351e-09 -2.16667e-08 1.88958e-26)
(-8.56407e-08 -7.57352e-08 8.10305e-26)
(1.90661e-08 -2.45291e-08 0)
(-3.75459e-08 4.16353e-08 -1.2998e-25)
(7.68846e-09 7.05615e-08 -4.3185e-26)
(-1.89481e-07 1.04155e-07 -2.85896e-26)
(2.11423e-09 2.16222e-10 -2.96197e-26)
(-2.17853e-08 -6.04435e-09 1.20082e-25)
(-5.43173e-09 -7.28696e-08 -7.06525e-29)
(2.37812e-08 -2.724e-08 -5.47607e-26)
(2.09819e-08 3.94664e-08 -8.16097e-26)
(2.9441e-09 -3.03338e-10 -5.19576e-26)
(-6.24936e-09 3.5086e-09 -7.8224e-27)
(8.33683e-09 7.01607e-08 8.53334e-26)
(1.24044e-09 -4.98588e-10 2.63228e-26)
(-1.56585e-07 -2.68467e-07 0)
(-2.3747e-08 2.30725e-08 -1.46176e-27)
(-2.42923e-08 3.24044e-08 1.29024e-25)
(-2.12041e-08 3.14897e-09 5.88068e-26)
(1.43019e-08 -8.97302e-09 2.01881e-26)
(1.5972e-09 -1.34499e-08 -2.51684e-26)
(-1.66307e-08 -4.69298e-08 8.62783e-26)
(5.34657e-09 2.33674e-11 6.35994e-26)
(-1.01911e-08 -6.59818e-08 0)
(2.57504e-08 -3.61335e-08 -1.33631e-27)
(4.40018e-09 -8.2888e-10 -2.99399e-26)
(-6.66185e-09 -3.477e-08 0)
(-9.90888e-09 -4.48418e-08 -1.06366e-25)
(2.08019e-08 -5.30094e-08 -3.75949e-26)
(-3.45447e-08 1.75675e-07 3.87347e-25)
(-1.89687e-10 2.69632e-11 0)
(-1.0044e-08 7.5281e-08 -2.0916e-25)
(6.93723e-12 -1.7868e-10 -4.2231e-26)
(-1.33199e-07 2.75498e-07 0)
(1.95586e-09 1.17366e-09 -4.60071e-26)
(-1.9197e-07 -3.46706e-08 2.63987e-26)
(1.39693e-09 1.45639e-09 2.69657e-26)
(-5.75905e-08 1.98866e-07 0)
(-1.14584e-07 -2.44258e-07 7.4893e-27)
(2.91687e-10 -1.04667e-10 2.32661e-26)
(1.76905e-08 -6.36617e-09 0)
(-1.33125e-08 2.44015e-08 0)
(-1.49606e-08 -6.77856e-08 0)
(9.4294e-09 2.13278e-08 6.97729e-26)
(1.57926e-09 -8.44135e-10 0)
(-8.62752e-09 -4.11785e-08 6.08067e-25)
(-2.866e-08 -4.38187e-08 -8.65245e-27)
(-7.30738e-09 2.45369e-08 0)
(-5.65532e-09 -2.23662e-08 3.33318e-26)
(1.96612e-08 2.0327e-09 0)
(-6.50162e-08 -1.13583e-07 1.56828e-25)
(8.21488e-09 5.75613e-08 1.6015e-25)
(-2.76843e-09 -1.19996e-08 4.21748e-25)
(9.99699e-09 3.27505e-08 3.34871e-26)
(-6.04766e-10 -1.39844e-09 0)
(-5.6557e-09 4.38183e-09 5.06471e-26)
(-6.69175e-09 1.30112e-08 0)
(-1.69199e-08 2.9838e-09 -4.99332e-28)
(-2.08218e-08 1.8513e-08 2.69312e-27)
(-1.76428e-08 -5.10534e-09 0)
(-1.84897e-08 9.6547e-09 -7.77007e-27)
(1.1592e-08 8.24517e-09 -4.82744e-26)
(-1.78609e-09 1.28388e-08 0)
(-1.67469e-09 2.14037e-08 0)
(-1.18066e-08 6.29896e-08 -8.99335e-27)
(-1.4319e-08 5.24145e-08 0)
(-1.26433e-09 2.57859e-08 -9.28248e-27)
(-1.75688e-09 2.93148e-08 2.96909e-26)
(-7.8825e-09 5.66616e-08 -3.08767e-26)
(1.97393e-08 4.94417e-08 -6.8977e-26)
(1.14362e-08 5.66917e-08 0)
(2.73717e-08 3.14068e-08 -1.79803e-25)
(4.50713e-09 6.42599e-08 0)
(-4.22076e-08 -7.46247e-08 1.42661e-25)
(-1.63149e-07 2.66664e-07 0)
(1.07823e-09 2.95053e-10 0)
(-1.33853e-07 -2.80641e-07 0)
(1.22526e-10 -3.25628e-10 -1.70579e-26)
(-1.96278e-07 -2.51102e-09 4.44606e-26)
(-1.77372e-07 -1.89483e-07 0)
(-1.29604e-08 -7.83268e-08 0)
(2.33344e-11 1.56381e-10 2.49627e-26)
(-3.86677e-08 -1.73581e-07 0)
(-1.55629e-10 2.27069e-11 -3.31118e-26)
(-1.72116e-07 1.63608e-07 3.71231e-26)
(9.39948e-09 -6.25501e-09 2.41887e-26)
(7.66818e-09 2.00381e-09 0)
(2.52456e-08 1.2639e-08 4.52418e-26)
(1.12985e-08 2.8578e-09 0)
(-1.35225e-07 2.26868e-07 0)
(-6.26048e-09 -3.78149e-08 0)
(5.25448e-09 -5.06214e-09 1.23282e-27)
(5.95477e-09 2.70289e-09 4.13909e-26)
(-1.82628e-07 1.741e-07 -3.68487e-26)
(7.25772e-09 -3.41621e-09 2.75299e-26)
(3.58178e-09 3.99087e-10 4.29736e-26)
(-9.55819e-08 -1.39538e-07 1.01103e-25)
(-3.03637e-09 -1.28175e-08 -2.79847e-25)
(-1.03153e-07 -2.97493e-07 -1.89547e-25)
(-4.31207e-08 -5.63616e-08 6.61454e-26)
(-1.326e-09 -3.43576e-09 -1.61052e-25)
(-1.10196e-09 -4.44116e-09 7.99444e-26)
(-5.65987e-10 -9.9228e-10 -5.77077e-26)
(-2.38037e-08 1.17057e-07 5.34958e-25)
(2.52476e-10 1.66079e-10 6.29243e-26)
(-1.88571e-08 -9.34508e-10 5.36931e-28)
(-3.66928e-09 7.42249e-09 -1.9929e-27)
(1.21323e-08 1.32882e-08 1.00101e-25)
(-2.18502e-08 1.06706e-08 2.60055e-26)
(-8.0305e-10 7.20908e-09 0)
(-1.60174e-09 1.52344e-08 -9.89272e-27)
(2.55068e-08 2.11092e-08 -4.73603e-26)
(-8.43424e-10 8.3387e-09 0)
(6.30638e-09 2.28851e-08 -7.04145e-26)
(-1.63678e-08 5.65483e-08 0)
(-5.13149e-10 1.24993e-08 -1.25134e-28)
(-3.56135e-09 4.4245e-08 2.20975e-27)
(1.61788e-09 5.58185e-08 -3.23822e-26)
(2.99333e-08 2.96844e-08 1.30669e-25)
(7.21541e-09 4.67314e-08 -2.32917e-27)
(2.62138e-08 3.98205e-08 -4.63216e-26)
(4.02978e-09 5.27304e-08 -5.7383e-26)
(2.57729e-08 3.53084e-08 4.75512e-26)
(-2.33827e-09 6.88882e-08 1.79664e-26)
(-5.87673e-09 -2.62012e-09 0)
(-1.94898e-07 -1.07147e-07 -3.16891e-26)
(-1.06169e-08 -1.09342e-08 5.64765e-26)
(2.08605e-08 1.22013e-08 0)
(-7.2135e-09 6.97943e-08 -3.35146e-26)
(-7.9621e-09 2.12768e-08 0)
(-1.2527e-08 2.99148e-08 2.53234e-27)
(8.12729e-10 -1.00885e-09 -1.8932e-26)
(3.76e-09 -2.07394e-09 -2.78725e-27)
(2.75799e-09 -2.64512e-09 -4.22957e-27)
(-3.32792e-11 -1.14243e-10 3.72199e-26)
(-1.74465e-08 -1.02393e-07 0)
(-7.22514e-08 -2.40142e-07 4.96079e-26)
(1.73683e-08 1.71274e-08 -1.25829e-25)
)
;

boundaryField
{
    back
    {
        type            empty;
    }
    front
    {
        type            empty;
    }
    left
    {
        type            noSlip;
    }
    top
    {
        type            uniformFixedValue;
        uniformValue    
        {
            type            scale;
            scale           
            {
                type            squarePulse;
                start           0.3;
                duration        0.3;
            }
            xScale          
            {
                type            constant;
                value           1;
            }
            value           
            {
                type            constant;
                value           (0 -0.7 0);
            }
        }
        value           uniform (0 -0 0);
    }
    right
    {
        type            noSlip;
    }
    bottom
    {
        type            zeroGradient;
    }
}


// ************************************************************************* //
