/*--------------------------------*- C++ -*----------------------------------*\
  =========                 |
  \\      /  F ield         | OpenFOAM: The Open Source CFD Toolbox
   \\    /   O peration     | Website:  https://openfoam.org
    \\  /    A nd           | Version:  9
     \\/     M anipulation  |
\*---------------------------------------------------------------------------*/
FoamFile
{
    format      ascii;
    class       surfaceScalarField;
    location    "0.89";
    object      phi;
}
// * * * * * * * * * * * * * * * * * * * * * * * * * * * * * * * * * * * * * //

dimensions      [0 3 -1 0 0 0 0];

internalField   nonuniform List<scalar> 
1363
(
-5.04224e-07
3.17923e-07
1.86301e-07
-1.38463e-07
-1.42445e-07
2.80909e-07
7.08369e-07
-5.59499e-07
-1.4887e-07
-1.52588e-07
4.62702e-07
-3.10114e-07
6.59692e-07
4.86768e-08
3.58577e-07
-1.78909e-08
-3.40686e-07
-1.18608e-07
1.18608e-07
3.11962e-07
4.66151e-08
-2.95272e-07
3.03564e-07
-8.29185e-09
1.38512e-08
-3.09123e-07
-6.38893e-07
5.97698e-07
4.11949e-08
6.54852e-07
-8.86874e-07
2.32022e-07
3.42683e-07
-4.95272e-07
-6.67146e-07
7.04121e-07
-3.69747e-08
9.85651e-08
5.56287e-07
-2.29868e-08
-1.15476e-07
3.37231e-07
-2.13897e-07
-1.23334e-07
-2.58204e-07
-2.4602e-07
-2.20051e-07
-6.84774e-09
2.26899e-07
-3.51196e-07
3.51196e-07
1.09754e-07
2.27477e-07
-4.53959e-07
-4.32914e-07
-1.4072e-07
-1.65625e-08
1.57282e-07
-1.66172e-08
1.39609e-07
-1.22992e-07
-3.23995e-07
-3.14898e-07
1.94581e-07
-2.11198e-07
6.87425e-07
-6.35824e-07
-5.16006e-08
-2.14393e-07
7.36731e-08
-1.70009e-07
2.49813e-07
-7.98039e-08
-2.7131e-08
-3.49583e-07
3.76714e-07
-2.02687e-07
7.77794e-08
1.24908e-07
1.22327e-08
6.75192e-07
2.91321e-08
-1.99141e-07
-1.36728e-07
-3.50195e-07
4.86923e-07
6.27007e-07
-5.537e-07
-7.33071e-08
2.28185e-08
1.11321e-07
-1.34139e-07
-4.62506e-07
1.76909e-07
2.85598e-07
2.97997e-07
-1.29438e-07
-1.6856e-07
-2.48551e-07
-2.13955e-07
1.67984e-08
1.2281e-07
4.26299e-07
-5.83646e-07
1.57347e-07
5.49305e-07
-7.50542e-07
2.01237e-07
2.95089e-08
-1.27105e-08
-3.2637e-08
-8.59713e-08
5.75321e-08
6.10761e-08
5.68141e-08
-1.17717e-07
6.09033e-08
3.84501e-07
-1.5685e-09
-3.82932e-07
2.80041e-07
-4.16769e-07
-2.44563e-07
6.70862e-07
-1.78143e-07
-4.89004e-07
-3.17482e-07
9.74309e-08
4.36382e-08
-6.02007e-08
7.48437e-08
-5.20251e-08
1.87242e-07
-1.1054e-07
-7.67012e-08
4.10356e-07
-3.96505e-07
-5.5446e-07
2.36281e-07
3.18179e-07
2.67261e-07
-2.67261e-07
-1.7472e-09
4.12103e-07
1.54554e-07
1.12707e-07
7.54282e-07
1.31711e-07
-8.85992e-07
-2.07965e-07
1.80834e-07
6.95306e-07
-6.06718e-07
-8.85877e-08
-5.04235e-07
1.54041e-07
-9.33009e-08
4.11224e-07
1.91957e-07
1.0604e-07
1.94028e-07
-3.02013e-07
1.07985e-07
5.94818e-08
4.0373e-08
4.63864e-07
-5.04237e-07
-1.6577e-08
-5.37883e-07
2.82478e-07
-2.07525e-07
-7.49532e-08
7.32474e-08
-2.15693e-07
-2.27071e-07
2.11069e-07
1.60021e-08
3.23131e-08
-3.23131e-08
-1.87635e-08
-3.3082e-07
1.00582e-07
8.66595e-08
-6.64882e-08
-2.84708e-07
2.18881e-07
1.32315e-07
2.0289e-08
-1.5715e-07
-4.55365e-08
-2.71025e-07
2.48038e-07
-8.02097e-09
9.25614e-08
-8.45404e-08
2.72361e-07
-3.84693e-07
1.06795e-07
2.77898e-07
-7.69966e-08
-3.11325e-07
9.31198e-09
-8.1548e-07
7.90214e-07
2.52661e-08
6.71994e-07
8.22872e-08
4.82109e-07
9.65776e-08
-5.78687e-07
2.60794e-07
4.43327e-07
-3.42398e-07
-4.22952e-08
8.25365e-07
-2.7606e-07
2.34034e-07
-2.23545e-08
-2.11679e-07
-4.17985e-07
4.16238e-07
6.40137e-07
-4.03856e-07
5.48537e-07
-2.30358e-07
2.27666e-07
-6.20028e-08
-1.65664e-07
-4.14172e-07
-3.3637e-07
-1.10886e-07
5.92995e-07
-1.95763e-07
1.87742e-07
-1.6008e-08
2.165e-07
-2.67524e-09
-2.13825e-07
3.81872e-08
-4.56172e-07
6.70188e-08
2.49841e-07
-9.28971e-09
5.57827e-07
-2.24397e-10
1.81059e-07
1.59403e-07
-1.02589e-07
-8.32953e-08
1.64383e-07
-8.1088e-08
3.3119e-07
-2.90817e-07
1.67274e-07
2.9659e-07
-2.09913e-07
1.93336e-07
-2.775e-07
-2.60383e-07
1.67758e-07
-9.67977e-08
-1.30273e-07
1.18973e-07
4.78725e-07
2.34034e-07
4.43132e-07
-7.98257e-07
3.55126e-07
3.88971e-07
7.37311e-08
-7.64331e-08
6.04251e-08
4.65494e-07
-3.74146e-07
-9.13482e-08
-6.04251e-08
6.02007e-08
1.0579e-07
-8.30486e-08
-2.27416e-08
2.95089e-08
-8.31634e-08
-1.0931e-07
-1.35785e-07
-2.1365e-08
4.36382e-08
1.64216e-08
1.27105e-08
-1.64216e-08
-3.71128e-08
5.35344e-08
7.48437e-08
2.53937e-07
-2.60784e-07
-2.53937e-07
2.38126e-07
1.58111e-08
2.60784e-07
-2.62353e-07
-2.36111e-07
5.16152e-07
2.36111e-07
9.50792e-08
-2.38126e-07
1.20408e-07
8.20495e-09
-2.18118e-07
2.62353e-07
-9.50792e-08
-4.95619e-07
2.18118e-07
4.95619e-07
-7.40181e-07
-5.16152e-07
7.40181e-07
-2.24029e-07
-1.20408e-07
3.71128e-08
6.1089e-07
2.05036e-08
-1.56289e-07
3.06175e-07
5.78719e-09
-7.63306e-08
2.01014e-08
-2.27626e-07
6.03232e-08
1.50745e-07
6.63428e-08
-2.35922e-07
1.69579e-07
-2.52208e-07
-5.63272e-07
3.64221e-08
2.69753e-07
9.06009e-07
-5.30112e-07
-3.75897e-07
5.08435e-07
-5.3079e-07
-1.76686e-07
2.08505e-07
-3.18187e-08
-5.95814e-07
4.21141e-08
1.15512e-08
-2.60102e-07
-2.5677e-07
-5.45559e-08
-8.04682e-09
6.08513e-08
-5.28045e-08
-6.66547e-07
1.61178e-07
-4.1451e-07
1.5774e-07
2.38102e-07
-2.26551e-07
-4.87051e-07
1.76937e-07
3.33537e-07
8.38108e-08
-4.17347e-07
6.16624e-07
2.89385e-07
-4.22257e-08
-5.24649e-07
5.66875e-07
8.18972e-08
1.34603e-07
3.3745e-07
-8.76088e-08
2.25287e-07
-8.63424e-08
-7.07586e-07
4.10479e-07
2.99126e-07
-3.33341e-08
1.47034e-07
6.4318e-07
-3.7706e-07
2.80483e-07
9.65765e-08
1.03362e-07
-1.65365e-07
-1.53812e-07
-2.23248e-07
5.13633e-07
1.26503e-07
-4.31083e-07
3.16659e-07
1.14423e-07
-1.90032e-07
1.33461e-08
1.00603e-07
1.49209e-07
2.43252e-07
-1.50599e-07
-2.76968e-07
1.9603e-07
-6.47338e-07
3.59469e-08
6.11391e-07
-3.86879e-07
2.32359e-08
3.63643e-07
5.83324e-07
-8.35531e-07
4.50388e-07
-1.33728e-07
8.47119e-07
-7.32796e-07
-1.14323e-07
3.46916e-07
1.03472e-07
-2.83414e-07
2.50079e-07
-3.57802e-08
1.60688e-07
-1.59177e-08
-3.70962e-07
5.18827e-07
-1.76143e-07
4.20465e-07
-3.95704e-07
-2.4761e-08
-2.62893e-07
-3.20753e-07
-7.09948e-09
7.09948e-09
-7.64331e-08
2.09309e-07
3.09518e-07
-6.07524e-08
4.48347e-08
1.13897e-08
5.24547e-07
6.62391e-09
6.87686e-08
-6.36141e-07
6.59377e-07
2.24095e-08
4.95029e-08
-2.38354e-07
4.47664e-07
-2.06766e-07
4.14091e-07
-2.07325e-07
-8.49034e-07
7.60446e-07
-4.02488e-08
-2.17832e-07
4.93178e-07
-2.75346e-07
-2.43428e-07
8.26752e-07
8.55437e-07
-6.72893e-07
-1.82544e-07
-4.71484e-07
7.57802e-08
-4.36094e-07
-3.53897e-08
-3.2955e-07
4.88135e-07
-1.58584e-07
2.98927e-07
-5.16759e-07
-1.13111e-07
4.60027e-07
4.65584e-07
-2.44736e-07
-2.20848e-07
7.68534e-08
-7.68534e-08
3.68151e-07
-3.68151e-07
-9.68348e-08
-7.52199e-07
-3.49937e-07
4.81202e-07
-1.31266e-07
1.81716e-07
6.51736e-08
-2.4689e-07
-7.7835e-08
2.73865e-07
-6.78511e-07
4.23693e-08
2.96437e-07
-2.96437e-07
-6.96113e-08
6.96113e-08
1.63628e-07
2.06518e-07
-4.44873e-07
7.17979e-07
1.37458e-07
1.38198e-07
1.45936e-07
-5.34941e-07
9.88474e-08
-4.69768e-07
1.28956e-07
2.08494e-07
-1.13874e-07
-3.75871e-07
4.89745e-07
3.12667e-07
-2.1609e-07
-2.56233e-07
3.70657e-07
-6.50099e-08
-3.67329e-07
-1.02714e-07
4.70042e-07
1.90238e-07
1.10546e-07
7.50284e-07
-3.1713e-07
3.23754e-07
1.2805e-07
-8.60846e-07
-2.95704e-07
3.99175e-07
2.02928e-07
-4.88982e-07
8.00481e-08
3.79979e-07
-6.73e-07
-1.83435e-07
8.56435e-07
5.64334e-08
-4.85228e-07
3.26644e-07
2.21599e-07
-8.94599e-07
-8.25506e-07
-3.11567e-07
3.91615e-07
-4.2017e-07
3.17456e-07
6.4335e-08
4.05316e-07
-4.69651e-07
8.28527e-08
3.75233e-07
9.48099e-08
5.19201e-07
-1.43968e-07
-7.96989e-07
8.23958e-07
-2.69692e-08
-1.59783e-07
-8.13024e-08
8.41749e-07
-6.29008e-07
-6.27845e-07
8.49444e-07
-3.92329e-07
-1.69249e-08
4.09254e-07
-7.53188e-07
6.38865e-07
-8.38697e-09
5.20251e-08
1.15679e-07
-4.35825e-09
1.31959e-07
-1.40346e-07
-3.78462e-07
-1.38674e-08
1.38756e-07
-4.6764e-07
3.28884e-07
-9.58524e-07
2.91977e-07
-4.04911e-08
4.18184e-07
-3.77693e-07
-4.68374e-07
4.27883e-07
3.46649e-07
4.49654e-08
4.10984e-07
4.1849e-07
-2.79735e-07
-9.85706e-08
-6.12126e-08
-9.31562e-07
3.03717e-07
3.87437e-08
3.04978e-07
-3.43722e-07
-2.93734e-07
2.76809e-07
-1.48876e-07
3.70741e-07
-2.21865e-07
2.71412e-07
-1.18072e-06
9.09307e-07
-6.87112e-07
-6.99902e-07
-4.80817e-07
-4.89887e-07
7.81865e-07
5.33529e-07
1.41804e-07
-6.75332e-07
3.97227e-08
-6.92448e-07
-2.35212e-07
9.27659e-07
-6.3325e-07
4.90829e-07
1.42421e-07
-2.78501e-07
8.12029e-07
4.00072e-07
8.96723e-08
-6.5702e-07
9.06571e-07
-2.4955e-07
3.00045e-07
-3.00045e-07
-2.84708e-07
-2.11679e-07
-8.59713e-08
-1.75014e-07
1.75014e-07
-1.12365e-07
1.12365e-07
-8.31634e-08
5.13593e-07
-4.25224e-07
-8.83697e-08
-2.41394e-07
2.41394e-07
-8.66864e-08
8.66864e-08
1.54554e-07
-6.04948e-08
6.04948e-08
-2.39849e-07
2.39849e-07
2.18881e-07
1.80824e-07
-1.80824e-07
5.75321e-08
-1.0931e-07
-2.65283e-07
1.66712e-07
2.54142e-07
6.40909e-07
-8.95051e-07
2.96621e-07
-2.96621e-07
4.48019e-07
-4.09275e-07
-4.87815e-07
6.89053e-07
1.1735e-07
-1.1735e-07
-1.70621e-07
-2.97019e-07
4.44397e-07
-4.75567e-07
3.11694e-08
-5.69155e-08
-4.70543e-07
5.27458e-07
-6.11903e-07
-8.0545e-08
-4.76246e-07
4.19331e-07
-5.13918e-07
3.43297e-07
-1.06254e-08
-6.22625e-07
3.3018e-07
-3.75855e-07
4.56748e-08
1.81303e-07
-8.20495e-09
5.06955e-07
-7.85456e-07
-1.51562e-07
1.39508e-08
1.37612e-07
1.68345e-07
3.32614e-07
-6.76939e-07
3.44325e-07
-8.82832e-07
3.92945e-07
7.37224e-08
-6.99084e-07
5.18445e-07
1.8064e-07
2.57783e-08
-6.30579e-08
3.55471e-07
-1.04258e-06
3.96588e-07
-1.09649e-06
2.27949e-08
4.91808e-07
-1.04232e-06
5.50515e-07
1.69984e-07
-5.45839e-07
-3.77171e-07
-9.90757e-08
-5.57968e-07
6.99772e-07
3.51223e-08
-3.74766e-07
-4.58004e-07
8.3277e-07
1.63879e-07
-3.15442e-07
6.73724e-07
-9.08936e-07
5.15248e-07
7.77101e-08
-5.92958e-07
-2.52818e-07
9.05682e-07
-6.52864e-07
4.36342e-08
8.60408e-07
-3.69579e-07
-6.52428e-07
-1.32205e-07
7.84632e-07
1.40814e-07
-6.47052e-07
5.06238e-07
8.3974e-07
6.68304e-08
-2.81194e-08
4.20703e-08
2.00211e-07
6.49912e-07
3.91407e-08
-4.37264e-07
7.81589e-07
-5.27361e-07
-3.0614e-07
4.75459e-07
-4.31824e-07
-6.45995e-07
-6.04681e-07
2.48505e-07
6.1877e-07
-8.71588e-07
-3.95236e-08
-3.68599e-07
4.65946e-07
-2.08634e-07
-6.32166e-07
8.408e-07
-7.90105e-08
5.62118e-07
-4.83107e-07
8.39009e-07
-6.98195e-07
5.34711e-07
-5.08932e-07
2.53254e-07
-1.31804e-07
8.29115e-07
-3.20492e-07
6.63789e-07
2.1804e-09
2.41768e-07
8.18257e-07
8.41346e-07
-9.7355e-07
-6.99777e-07
7.77487e-07
-9.10418e-07
1.48257e-09
-9.91371e-07
6.21792e-07
4.4029e-07
3.51687e-08
4.75412e-07
-6.18202e-07
-6.23265e-08
6.80529e-07
-2.59674e-07
5.88558e-07
-5.79062e-07
-4.99791e-07
-9.31671e-08
-7.99009e-07
8.65839e-07
3.86935e-07
1.96621e-08
-4.90205e-07
-1.62256e-07
-6.61913e-07
4.61097e-07
-2.80519e-08
1.01104e-06
-1.68212e-07
-8.42828e-07
3.99706e-07
-6.08341e-07
7.68148e-07
-5.14893e-07
6.42441e-07
8.00377e-07
-1.57449e-08
3.18029e-07
1.6321e-07
-4.81239e-07
-9.53736e-07
3.07741e-07
4.43512e-08
1.92482e-08
3.8505e-07
-6.37757e-07
3.31617e-07
4.07899e-07
4.329e-07
4.63052e-07
4.60411e-07
3.72359e-07
-7.66272e-07
4.5486e-07
3.11412e-07
4.8927e-07
-4.66475e-07
6.2322e-07
-3.81453e-07
-6.1807e-07
2.65269e-07
3.528e-07
2.89978e-07
-3.0586e-07
4.04115e-07
8.33456e-07
3.35296e-07
-5.43873e-08
8.93707e-09
-1.05034e-06
4.45659e-07
-8.00258e-07
2.72896e-07
1.94061e-07
3.1736e-07
-2.33995e-07
3.6531e-07
-1.31315e-07
3.20834e-08
-5.08077e-07
-6.71324e-07
5.95492e-07
7.58313e-08
-4.92517e-07
3.64861e-07
-4.8884e-07
1.23979e-07
-1.01669e-06
3.5478e-07
3.38288e-07
2.5027e-07
-6.7742e-07
9.45131e-07
-7.92918e-08
-7.57699e-08
-2.39672e-07
-3.94901e-07
1.84495e-07
4.94882e-07
5.22783e-07
-4.96746e-07
4.57222e-07
-4.21054e-07
7.82875e-07
7.54747e-07
-3.50633e-07
-1.65129e-07
2.18603e-08
5.73632e-07
-6.4173e-07
8.70778e-07
-2.29047e-07
-4.82823e-07
7.94235e-07
-5.65899e-07
-2.5369e-07
3.33694e-07
1.76551e-07
4.58122e-07
-4.49184e-07
-3.86319e-07
6.51589e-07
5.44643e-07
-4.35454e-07
-3.01408e-07
7.36862e-07
4.97888e-08
-7.79083e-08
-6.85883e-07
5.02448e-07
1.89883e-07
-3.55012e-07
3.55191e-07
-1.98953e-08
-6.41243e-08
-1.7904e-07
2.43164e-07
3.79672e-07
-4.34059e-07
1.16792e-06
1.09404e-07
4.35239e-07
-5.48365e-07
-3.46686e-07
4.74715e-07
2.32264e-07
6.38514e-07
-1.03834e-06
4.89975e-07
-7.8214e-07
-1.33649e-07
1.31574e-07
-1.95699e-07
-7.73023e-07
-6.26166e-07
-3.469e-07
-2.46494e-07
7.54571e-07
-3.2167e-07
-4.07916e-07
7.4161e-07
-2.02711e-07
-4.83172e-07
-2.31032e-07
1.7571e-07
-6.54341e-07
1.73307e-07
-1.38593e-07
6.41041e-07
2.79809e-08
5.48718e-08
-4.58996e-07
-5.79344e-07
-6.97457e-07
1.19393e-07
2.91831e-07
8.05896e-07
-3.10355e-07
3.3291e-08
1.54324e-07
-2.27493e-08
-2.18909e-07
4.16471e-07
3.14487e-07
-2.2949e-07
-8.4997e-08
9.5578e-08
2.13759e-07
-1.2065e-07
7.91765e-07
-6.71115e-07
3.68083e-07
8.35922e-07
-8.56377e-08
-5.90418e-07
4.94743e-07
1.56845e-07
7.54619e-07
6.70454e-07
6.73891e-07
-3.50785e-07
4.9484e-07
1.46201e-07
-7.23421e-07
-1.37424e-07
1.89673e-08
3.59045e-08
4.90925e-08
-7.18418e-08
2.13029e-07
-8.66957e-07
1.43535e-07
1.90594e-07
2.23497e-07
4.71484e-07
-2.81246e-07
7.14646e-07
-1.48978e-07
-8.20093e-07
7.84835e-07
-6.413e-07
-8.73785e-08
-3.34228e-07
3.73346e-07
-3.91183e-08
-6.11017e-07
-9.75664e-08
2.09044e-07
2.27756e-07
-4.84513e-07
-3.20885e-07
-4.8675e-08
-2.95392e-07
3.97112e-07
-4.23462e-07
2.64899e-07
2.10301e-07
-1.77164e-08
-1.89477e-08
5.27466e-08
7.53837e-08
1.71342e-07
1.88658e-07
1.16434e-07
8.19546e-08
-4.54805e-07
3.46665e-07
1.08141e-07
-6.74275e-07
-2.63531e-07
4.35059e-07
-2.32131e-07
1.30129e-07
1.14671e-07
1.24823e-07
3.9431e-08
-6.67499e-07
-3.28953e-07
1.36584e-07
1.08216e-07
-2.05174e-07
1.33332e-07
1.64981e-07
7.85459e-09
-3.13109e-07
-1.79137e-07
2.88891e-07
-7.71841e-07
3.37988e-08
1.91818e-07
-4.06861e-07
-4.79448e-08
5.07692e-07
-3.81562e-07
7.41659e-09
-1.86021e-07
4.46037e-07
3.01471e-07
2.06778e-07
2.03248e-07
-9.31029e-07
-1.3832e-07
-7.83995e-07
9.98785e-08
-2.24529e-08
-8.80875e-08
2.43241e-08
-1.53762e-07
-2.2478e-07
-1.89159e-07
-7.81018e-08
7.95384e-08
1.2371e-07
-1.85552e-07
-3.14771e-07
-1.05399e-07
-3.01803e-07
2.23893e-07
-1.50645e-07
-2.32563e-07
-3.90289e-07
1.67042e-07
1.54138e-07
-6.22473e-07
4.48408e-07
1.74065e-07
-6.58699e-08
-6.25299e-07
2.11854e-07
2.92434e-08
-4.62158e-07
-3.77617e-07
-6.58699e-08
-2.25308e-07
2.15062e-08
-2.00643e-07
-4.40806e-08
-1.87461e-07
6.78245e-07
-3.23119e-07
2.03997e-07
2.70352e-08
-1.04943e-07
7.90148e-07
7.30498e-08
-4.03306e-07
2.15843e-07
1.87464e-07
-1.72539e-07
-2.22152e-07
-2.14648e-07
-4.57085e-07
-1.71193e-07
-4.89596e-07
-1.46391e-08
9.23836e-07
4.2474e-07
-1.19761e-07
4.07718e-07
-3.95672e-08
3.09066e-08
-3.55918e-07
7.22865e-08
4.56688e-09
3.55918e-07
-7.22865e-08
2.40094e-07
4.07718e-07
2.04778e-07
-4.62326e-07
-1.60299e-07
7.32127e-07
-5.94669e-07
3.16767e-07
-2.49367e-07
7.97309e-09
2.86342e-07
1.02791e-08
-6.82194e-08
-1.81346e-07
-1.81817e-07
-2.98617e-08
-2.49367e-07
2.55426e-07
-8.04119e-08
-1.05247e-07
-7.11846e-09
1.99169e-07
-7.08782e-08
-1.58082e-08
6.82194e-08
-1.28714e-07
1.81346e-07
-1.20851e-07
1.81817e-07
-9.93548e-10
-1.99169e-07
1.83447e-08
7.08782e-08
-2.55426e-07
2.86342e-07
-1.05247e-07
-6.2146e-07
-7.57487e-07
-5.55454e-07
-4.88087e-07
6.64637e-07
2.30114e-07
-1.57064e-07
1.32912e-07
9.94594e-08
9.08277e-08
7.63179e-07
-5.53042e-07
5.47429e-08
-4.39962e-07
9.94594e-08
3.01199e-07
-2.14644e-08
-1.32928e-07
1.48739e-07
4.23358e-07
1.56039e-07
-4.36734e-08
-1.56039e-07
-1.92697e-07
2.22925e-07
-3.02281e-08
-4.62107e-07
9.39712e-08
1.72497e-07
-3.21366e-07
3.92779e-07
4.58746e-07
-6.39385e-07
-5.29874e-08
4.05788e-07
9.29376e-08
-1.43413e-07
2.76148e-07
2.93081e-08
-2.25071e-07
3.6426e-07
3.60688e-08
-4.32985e-07
4.32985e-07
-3.57924e-07
-2.64426e-07
-2.85138e-07
2.76148e-07
2.48939e-07
2.33142e-08
2.8382e-07
-7.33491e-08
-4.513e-07
4.66345e-07
-4.506e-07
3.06199e-07
-8.56714e-07
9.99977e-08
-9.99977e-08
-1.74193e-07
-2.28416e-07
-5.2109e-08
5.2109e-08
-1.53535e-08
1.53535e-08
-2.46784e-07
3.9091e-08
4.86565e-08
1.09307e-07
5.59135e-08
-1.65221e-07
3.83896e-07
-3.83896e-07
9.25614e-08
2.59295e-07
3.0758e-07
6.08513e-08
-6.02839e-07
7.16255e-08
-2.3699e-07
-4.92259e-08
-3.63315e-07
-7.50769e-07
6.31894e-08
6.42186e-09
-1.55312e-07
-5.85125e-08
-1.89487e-07
-2.62057e-08
-1.09512e-07
-7.9975e-08
-7.29085e-07
-4.27566e-08
-1.66411e-07
-1.74275e-07
-5.63012e-07
7.49247e-08
-1.89159e-07
-1.17412e-07
3.9531e-07
7.23526e-08
-1.46612e-07
-1.91904e-07
1.91904e-07
1.13228e-08
2.65486e-07
-4.69824e-07
-8.45404e-08
-1.09369e-07
1.09369e-07
-6.80408e-07
2.02245e-07
5.8993e-09
2.78995e-08
-7.11876e-07
1.06795e-07
5.3796e-08
-1.60591e-07
-2.26231e-07
8.03271e-08
1.45904e-07
-5.28045e-08
-2.69549e-08
1.40612e-07
-1.34713e-07
-1.89253e-07
-4.68022e-08
4.68022e-08
1.30077e-07
2.10027e-07
3.03606e-07
1.52449e-07
-2.7221e-07
4.08605e-08
-1.85796e-07
4.43978e-08
-9.61542e-08
3.19686e-07
-2.12891e-07
1.39646e-07
1.91627e-07
5.84526e-08
2.68044e-09
-1.73873e-07
-7.5962e-08
9.56635e-08
-3.20375e-07
9.55953e-08
-6.31894e-08
2.62634e-07
-2.47889e-08
2.653e-07
3.48572e-09
2.59148e-07
5.56854e-08
2.09615e-07
3.3019e-07
3.50283e-07
6.8433e-07
4.0827e-07
6.39938e-07
4.04674e-08
-3.0057e-07
2.44884e-07
1.99064e-07
1.31879e-07
9.24358e-08
-4.76011e-08
2.20235e-07
2.54931e-07
-2.2164e-07
3.33676e-07
-2.146e-09
-2.71013e-07
-4.22771e-08
2.24703e-07
1.41025e-07
-2.13792e-07
2.87523e-07
6.9968e-08
-2.53459e-07
1.69363e-08
4.00849e-07
-3.25925e-07
3.99856e-07
-3.7319e-07
1.52614e-07
2.16297e-07
1.87665e-08
-6.92268e-07
3.28484e-08
1.63163e-07
2.01872e-07
4.90884e-08
1.23563e-07
2.15475e-07
-1.71009e-07
4.61501e-08
-1.78987e-07
2.74583e-07
6.00233e-09
-2.38522e-09
)
;

boundaryField
{
    back
    {
        type            empty;
        value           nonuniform List<scalar> 0();
    }
    front
    {
        type            empty;
        value           nonuniform List<scalar> 0();
    }
    top
    {
        type            calculated;
        value           nonuniform List<scalar> 10(-4.368e-07 -4.752e-07 -3.6e-07 -2.448e-07 -2.448e-07 -3.6e-07 -4.368e-07 -9.12e-08 -9.12e-08 -4.752e-07);
    }
    outer_arc
    {
        type            calculated;
        value           uniform 0;
    }
    bottom
    {
        type            calculated;
        value           nonuniform List<scalar> 10(7.08583e-07 3.44068e-07 3.66641e-08 -1.2813e-07 -1.98389e-07 9.37805e-07 -1.64254e-07 9.96452e-07 -6.401e-08 7.47211e-07);
    }
    inner_arc
    {
        type            calculated;
        value           uniform 0;
    }
}


// ************************************************************************* //
