/*--------------------------------*- C++ -*----------------------------------*\
  =========                 |
  \\      /  F ield         | OpenFOAM: The Open Source CFD Toolbox
   \\    /   O peration     | Website:  https://openfoam.org
    \\  /    A nd           | Version:  9
     \\/     M anipulation  |
\*---------------------------------------------------------------------------*/
FoamFile
{
    format      ascii;
    class       volScalarField;
    location    "0.77";
    object      p;
}
// * * * * * * * * * * * * * * * * * * * * * * * * * * * * * * * * * * * * * //

dimensions      [0 2 -2 0 0 0 0];

internalField   nonuniform List<scalar> 
90
(
-7.27921e-23
2.16188e-22
7.92008e-22
1.91817e-21
1.00411e-21
-8.1973e-22
1.26035e-24
-1.48403e-22
-4.0168e-24
-1.6722e-22
1.57826e-22
-2.00273e-22
-1.1689e-22
6.50045e-22
-2.58343e-22
-2.70406e-21
3.92827e-21
-3.9629e-22
-4.29113e-22
7.14314e-23
6.94202e-23
1.71498e-23
1.15644e-22
3.20188e-22
4.28948e-23
4.69216e-22
-2.57653e-22
2.4274e-22
9.28048e-22
-1.66537e-22
-9.16319e-23
7.35326e-22
5.78529e-22
3.72987e-22
5.39272e-22
-2.98061e-21
-9.63971e-23
5.95683e-21
6.44039e-22
-6.93386e-23
-2.4682e-22
-3.19563e-22
7.47722e-22
-5.14649e-23
-1.16048e-23
8.07885e-22
-4.62759e-23
-1.26516e-21
-5.57133e-22
9.64274e-22
7.88081e-23
6.45998e-23
-2.48517e-22
6.81792e-22
-2.28951e-23
-8.66094e-22
-1.39226e-24
1.43774e-22
-7.08017e-23
8.68294e-22
-1.41927e-22
7.96441e-22
1.22844e-21
-2.82877e-23
-4.6117e-22
-1.36476e-22
7.94218e-22
9.5982e-22
4.9843e-21
5.44117e-22
-1.6664e-21
-1.63257e-22
4.35452e-22
-1.37528e-21
-2.59539e-21
-1.27152e-23
-1.67105e-22
5.59545e-22
1.91517e-22
6.36143e-24
5.6159e-21
-3.77192e-23
1.70687e-22
-2.82636e-21
1.52738e-22
1.26198e-21
-1.0224e-22
-1.34114e-22
-1.9626e-21
-2.76637e-22
)
;

boundaryField
{
    back
    {
        type            empty;
    }
    front
    {
        type            empty;
    }
    bottom
    {
        type            zeroGradient;
    }
    outer_arc
    {
        type            zeroGradient;
    }
    right
    {
        type            uniformFixedValue;
        uniformValue    
        {
            type            scale;
            scale           
            {
                type            squarePulse;
                start           0.3;
                duration        0.3;
            }
            xScale          
            {
                type            constant;
                value           1;
            }
            value           
            {
                type            constant;
                value           15.1;
            }
        }
        value           uniform 0;
    }
    inner_arc
    {
        type            zeroGradient;
    }
}


// ************************************************************************* //
