/*--------------------------------*- C++ -*----------------------------------*\
  =========                 |
  \\      /  F ield         | OpenFOAM: The Open Source CFD Toolbox
   \\    /   O peration     | Website:  https://openfoam.org
    \\  /    A nd           | Version:  9
     \\/     M anipulation  |
\*---------------------------------------------------------------------------*/
FoamFile
{
    format      ascii;
    class       surfaceScalarField;
    location    "0.77";
    object      phi;
}
// * * * * * * * * * * * * * * * * * * * * * * * * * * * * * * * * * * * * * //

dimensions      [0 3 -1 0 0 0 0];

internalField   nonuniform List<scalar> 
122
(
-1.45577e-29
4.8329e-30
-2.02557e-30
1.48548e-28
-3.37253e-29
-7.80005e-29
-1.40341e-28
1.49357e-28
1.12448e-28
-1.99609e-28
2.19857e-28
4.53231e-28
-4.56937e-28
-2.16647e-29
-1.68009e-30
1.98853e-30
1.30104e-30
6.15173e-29
-4.06712e-29
-9.12193e-30
-1.97523e-29
2.54402e-29
3.02121e-29
-6.08821e-29
-1.01389e-28
1.74083e-28
-7.03227e-29
1.59401e-28
-6.87001e-29
3.40159e-29
-2.18556e-28
-1.01321e-28
3.40311e-29
-2.80164e-29
-2.76452e-29
2.40552e-30
7.57031e-30
3.29666e-29
-4.04725e-29
-3.75946e-29
2.37683e-29
-3.10581e-29
-1.07191e-31
2.4499e-30
-4.44696e-29
1.95709e-29
1.59593e-29
-7.66237e-30
-3.38902e-29
2.59621e-29
-9.40631e-30
-5.65334e-29
4.46575e-29
-3.26518e-28
1.96148e-28
6.80018e-30
-1.96279e-29
-1.54339e-29
-4.68559e-30
-5.29709e-31
4.55212e-30
1.62399e-29
-1.08635e-29
-6.84337e-29
1.06362e-28
8.82168e-29
-1.36868e-31
1.26469e-29
-1.14787e-29
9.60102e-30
2.63222e-29
-5.11207e-30
1.40383e-29
4.01728e-29
-1.38447e-29
1.85476e-29
1.24211e-29
1.14499e-29
5.86021e-29
-4.29789e-29
-3.48113e-30
-2.44357e-29
-1.02252e-28
1.13287e-29
-2.44728e-29
-1.40538e-29
6.13941e-31
9.10941e-30
4.9815e-29
-5.62631e-29
-4.33782e-29
-8.94265e-30
-1.09823e-32
-8.76027e-29
6.79203e-29
7.12771e-30
3.54893e-30
2.235e-29
-1.14603e-29
-2.04545e-29
-3.17659e-29
4.70165e-29
5.63595e-29
-4.70872e-29
-2.36371e-29
9.38277e-29
-1.46764e-29
5.20867e-29
-2.84548e-29
-3.91088e-29
2.50332e-28
-2.60808e-28
-1.59831e-28
1.08548e-28
1.56562e-29
6.50641e-29
8.03731e-30
-1.60234e-29
1.01246e-29
2.03813e-29
-8.22792e-29
5.73852e-30
)
;

boundaryField
{
    back
    {
        type            empty;
        value           nonuniform List<scalar> 0();
    }
    front
    {
        type            empty;
        value           nonuniform List<scalar> 0();
    }
    bottom
    {
        type            calculated;
        value           uniform 0;
    }
    outer_arc
    {
        type            calculated;
        value           uniform 0;
    }
    right
    {
        type            calculated;
        value           nonuniform List<scalar> 4(-2.80043e-30 -1.87682e-29 -1.35975e-29 -9.47543e-30);
    }
    inner_arc
    {
        type            calculated;
        value           uniform 0;
    }
}


// ************************************************************************* //
