/*--------------------------------*- C++ -*----------------------------------*\
  =========                 |
  \\      /  F ield         | OpenFOAM: The Open Source CFD Toolbox
   \\    /   O peration     | Website:  https://openfoam.org
    \\  /    A nd           | Version:  9
     \\/     M anipulation  |
\*---------------------------------------------------------------------------*/
FoamFile
{
    format      ascii;
    class       volVectorField;
    location    "0.77";
    object      U;
}
// * * * * * * * * * * * * * * * * * * * * * * * * * * * * * * * * * * * * * //

dimensions      [0 1 -1 0 0 0 0];

internalField   nonuniform List<vector> 
90
(
(-3.16291e-22 -4.4468e-23 3.093e-39)
(-2.48599e-21 -2.23543e-21 -3.38443e-38)
(3.8408e-21 1.75858e-21 7.05321e-38)
(4.53622e-21 -4.26867e-21 -6.98522e-38)
(-6.06808e-21 -8.893e-21 -1.66785e-37)
(-1.307e-21 -1.16365e-21 2.68884e-38)
(-1.53313e-22 -1.0583e-22 -3.50139e-39)
(-3.42867e-22 3.48581e-23 -6.19975e-39)
(7.91836e-23 1.20776e-21 0)
(-6.19737e-22 -1.81827e-22 0)
(1.33743e-21 -3.87437e-22 1.23094e-38)
(-7.29175e-22 5.10622e-21 -7.8482e-39)
(2.48719e-22 2.39e-22 -1.46016e-39)
(9.97747e-22 6.56247e-22 1.27346e-39)
(-1.40938e-21 3.31174e-21 0)
(-4.77701e-21 -3.53038e-21 0)
(-2.80637e-21 -8.23996e-21 2.33805e-37)
(2.44751e-21 6.05505e-22 2.49688e-38)
(2.83561e-22 -2.65512e-21 0)
(3.22038e-22 4.40794e-22 1.16206e-38)
(8.41136e-22 4.88768e-22 -8.73933e-40)
(-3.72663e-22 -6.49965e-22 -5.73111e-39)
(3.60857e-22 -4.34005e-22 1.71048e-38)
(1.05081e-21 -2.78496e-22 -1.27375e-38)
(2.68425e-22 -2.64061e-22 1.28728e-39)
(-1.66242e-22 -1.22021e-21 -1.44717e-38)
(2.34371e-22 3.72788e-23 5.68994e-39)
(-1.37554e-21 -8.86509e-22 -4.12788e-39)
(8.56105e-21 1.88472e-21 0)
(-2.21188e-22 -4.31882e-22 7.63366e-39)
(-9.35474e-23 -8.22995e-23 -3.85797e-39)
(1.00312e-21 -2.96726e-23 4.41628e-38)
(6.98631e-22 9.02109e-23 1.34688e-38)
(-1.60339e-23 1.56637e-22 -2.96535e-38)
(2.82983e-22 -1.68754e-22 9.37449e-39)
(-8.88871e-22 2.85591e-21 7.06923e-38)
(-1.6264e-21 -1.6586e-21 0)
(9.60825e-22 -1.92573e-21 0)
(7.1386e-23 -6.87862e-24 -1.43878e-38)
(1.02735e-22 2.83099e-22 -1.89747e-39)
(-5.01488e-22 2.63595e-23 1.6557e-39)
(-1.24369e-22 4.81774e-22 2.17053e-38)
(-1.70389e-22 -4.46668e-22 4.59581e-39)
(-4.87186e-22 -3.09744e-23 2.78048e-39)
(-5.64555e-22 -8.56064e-23 1.13959e-39)
(-6.697e-22 -1.73085e-21 -3.08178e-38)
(2.49255e-22 -3.39805e-22 3.87479e-39)
(-1.31794e-21 2.01293e-21 -2.93164e-38)
(1.11424e-21 -5.18955e-22 2.9641e-38)
(-5.4525e-22 2.21355e-21 -3.88716e-39)
(2.06393e-22 1.31944e-22 0)
(-1.05739e-22 -9.20879e-23 -2.76929e-40)
(-1.21506e-21 1.50883e-21 1.95031e-41)
(-5.5131e-22 -7.49724e-22 0)
(-1.30351e-22 -1.24867e-22 6.3447e-40)
(-2.37073e-21 -9.80932e-22 3.36894e-40)
(-4.49346e-22 -3.54713e-23 -9.87407e-40)
(4.78118e-22 -7.4428e-22 0)
(-6.4784e-22 -6.54247e-23 0)
(6.37416e-22 -5.64106e-22 -4.96591e-38)
(-3.68854e-22 1.98944e-22 -1.40319e-38)
(-1.24071e-21 -1.61235e-21 0)
(2.02945e-23 -4.74601e-22 -5.74085e-38)
(-2.56308e-21 -2.4089e-22 3.92995e-39)
(-1.37368e-21 -7.70216e-22 -3.21469e-38)
(2.23678e-21 5.1959e-22 -4.19689e-39)
(9.45745e-22 6.97211e-22 0)
(1.04344e-21 -1.18814e-21 0)
(7.31866e-21 -8.99228e-22 -2.09717e-38)
(1.02584e-20 -1.89535e-21 -3.38376e-38)
(-4.56271e-21 1.79131e-21 0)
(-7.22788e-22 -2.45412e-22 -7.21214e-39)
(-3.01351e-21 1.05496e-21 0)
(1.48459e-21 -2.73319e-21 -1.05538e-37)
(5.36148e-21 -1.47772e-22 3.41639e-38)
(4.05895e-24 -5.66396e-22 5.79015e-40)
(-3.3582e-22 -8.9701e-23 1.68592e-39)
(-9.24749e-22 -1.04255e-21 0)
(-1.01441e-21 2.30868e-22 1.85857e-38)
(-5.60913e-22 -1.48049e-22 -3.95e-39)
(4.9565e-21 -6.20504e-24 -2.33796e-37)
(-5.72276e-22 -6.53515e-23 -1.60793e-40)
(6.27446e-22 -1.29746e-21 -5.97181e-39)
(-1.96164e-21 2.72844e-23 -7.53088e-38)
(-5.484e-22 -2.51369e-21 -5.04902e-39)
(3.78198e-23 -7.31815e-22 3.61004e-38)
(-7.52226e-22 -1.34604e-22 -3.85282e-39)
(-6.80896e-22 -1.46009e-22 6.73637e-40)
(-1.59838e-21 -2.50266e-21 1.83916e-37)
(-4.49701e-22 -1.22283e-22 6.98444e-39)
)
;

boundaryField
{
    back
    {
        type            empty;
    }
    front
    {
        type            empty;
    }
    bottom
    {
        type            uniformFixedValue;
        uniformValue    
        {
            type            scale;
            scale           
            {
                type            squarePulse;
                start           0.3;
                duration        0.3;
            }
            xScale          
            {
                type            constant;
                value           1;
            }
            value           
            {
                type            constant;
                value           (0 0.7 0);
            }
        }
        value           uniform (0 0 0);
    }
    outer_arc
    {
        type            noSlip;
    }
    right
    {
        type            zeroGradient;
    }
    inner_arc
    {
        type            noSlip;
    }
}


// ************************************************************************* //
