/*--------------------------------*- C++ -*----------------------------------*\
  =========                 |
  \\      /  F ield         | OpenFOAM: The Open Source CFD Toolbox
   \\    /   O peration     | Website:  https://openfoam.org
    \\  /    A nd           | Version:  9
     \\/     M anipulation  |
\*---------------------------------------------------------------------------*/
FoamFile
{
    format      ascii;
    class       surfaceScalarField;
    location    "2.81";
    object      phi;
}
// * * * * * * * * * * * * * * * * * * * * * * * * * * * * * * * * * * * * * //

dimensions      [0 3 -1 0 0 0 0];

internalField   nonuniform List<scalar> 
2420
(
5.23711e-07
-6.84407e-07
1.60696e-07
1.83091e-07
-1.83091e-07
4.31607e-07
-4.42393e-07
1.07866e-08
-4.43371e-07
4.43371e-07
-3.85246e-07
1.66878e-07
2.18369e-07
6.29396e-08
-9.18327e-08
2.88931e-08
1.95496e-07
2.3611e-07
-5.51053e-07
3.06939e-08
5.20359e-07
1.147e-06
-1.24088e-06
9.38747e-08
-3.04819e-07
-8.04273e-08
-1.23302e-06
4.82737e-07
7.50279e-07
-7.35148e-07
-4.97868e-07
-5.51053e-07
-9.14055e-08
-6.30804e-08
1.54486e-07
-2.91346e-08
-3.81355e-07
4.1049e-07
-7.76496e-08
1.81301e-07
-1.03652e-07
-6.46013e-08
1.67313e-07
-1.02712e-07
1.8824e-07
-3.74677e-07
1.86438e-07
1.33076e-07
-1.83563e-07
5.04872e-08
-1.22325e-07
3.09196e-08
-3.21047e-08
2.13983e-07
-1.81878e-07
3.98663e-09
-3.26229e-07
4.66298e-07
-1.40069e-07
-4.12482e-07
8.6253e-08
-1.39342e-07
6.63053e-07
-5.1249e-08
-1.33522e-08
4.33761e-08
-1.21026e-07
-4.20944e-07
-8.26802e-07
1.24775e-06
-9.80949e-07
5.60005e-07
2.02499e-07
-9.79974e-08
-1.04502e-07
-5.98555e-07
-2.63506e-07
8.6206e-07
1.03153e-07
5.84696e-07
-6.8785e-07
-4.44797e-07
4.29323e-07
1.54741e-08
1.35318e-07
6.20514e-08
-1.97369e-07
-1.41266e-07
3.29505e-07
-1.58967e-08
1.51215e-07
7.88672e-09
5.50529e-08
1.04614e-07
7.84772e-08
-4.36066e-08
-4.0119e-07
-1.32592e-09
-1.81765e-07
8.09074e-08
-1.13012e-07
3.94873e-07
4.62424e-08
-4.41116e-07
3.26525e-07
-3.70131e-07
2.21558e-07
-2.44543e-07
2.29858e-08
9.17092e-08
-7.22137e-08
-1.94954e-08
-4.99976e-08
-3.93373e-07
2.10433e-07
2.32937e-07
1.15038e-07
-2.33286e-08
-1.32687e-07
2.38108e-07
-1.05421e-07
-5.29993e-08
3.79524e-07
2.02075e-09
-9.38535e-08
-3.3924e-07
-5.22716e-07
4.93582e-07
-7.93024e-07
-4.47853e-07
1.25138e-07
1.00989e-07
-2.26127e-07
1.95916e-07
-3.68928e-08
-1.59023e-07
-1.63448e-09
9.35258e-09
-7.7181e-09
9.25182e-07
-4.42446e-07
-8.16331e-07
6.67204e-07
1.49127e-07
2.27303e-07
-3.13876e-08
8.93922e-08
-6.87947e-07
-8.31695e-08
4.63761e-08
3.67934e-08
-1.0399e-07
-5.80417e-07
-7.53197e-07
7.83891e-07
2.66951e-07
-2.20369e-07
-4.65822e-08
-6.3157e-07
3.68064e-07
-2.51243e-07
5.11876e-08
2.00055e-07
-9.13183e-07
8.82179e-07
3.10039e-08
1.24147e-07
-2.65412e-07
-1.76085e-08
1.19993e-08
-4.36074e-07
1.87955e-07
-2.64717e-07
7.67611e-08
-1.37481e-07
-2.43874e-07
1.84296e-07
1.39913e-07
-3.24209e-07
-1.0061e-07
1.01847e-07
-1.23753e-09
-9.46225e-07
-3.47236e-08
-6.64308e-08
1.90577e-07
7.92729e-08
8.93814e-08
1.13118e-07
1.51468e-07
1.15483e-07
-6.12802e-08
-3.93294e-08
2.57524e-07
-1.32386e-07
1.03828e-08
2.11175e-07
1.07336e-07
1.75335e-07
-2.82671e-07
-1.74317e-07
-7.49095e-08
2.49227e-07
3.12507e-07
-1.28211e-07
2.40049e-07
-5.20933e-08
-3.06785e-07
1.1565e-07
1.91135e-07
-3.61377e-07
1.37437e-07
2.2394e-07
-1.30106e-07
-2.31271e-07
1.18553e-07
-1.07767e-07
-3.51805e-08
1.68256e-07
2.13457e-08
-1.54033e-07
2.10164e-08
-4.98531e-08
2.88367e-08
-9.33411e-08
-9.02219e-08
-1.55751e-07
-9.54915e-08
-8.04724e-07
-1.16067e-08
1.39216e-07
4.4548e-07
-4.66367e-07
1.6322e-07
3.03147e-07
2.10632e-07
-9.20787e-08
-1.67124e-07
2.53979e-07
-8.68552e-08
1.43343e-07
9.47652e-08
-2.58518e-07
9.13934e-08
1.99268e-07
-2.50624e-07
5.13561e-08
-6.17431e-08
-2.14264e-08
-8.81678e-07
1.61494e-07
7.20184e-07
8.36867e-09
-1.06366e-07
-1.86155e-07
-2.80212e-07
1.91303e-07
-2.28196e-07
-4.73355e-09
-3.33233e-07
3.37966e-07
2.06683e-07
-9.41832e-07
2.94763e-07
-1.0346e-07
3.25601e-07
-2.18265e-07
8.14063e-07
-1.15547e-07
-6.98516e-07
-3.04423e-07
-7.50418e-07
-1.3126e-07
6.17206e-07
-1.19914e-07
-1.86871e-07
1.97871e-07
1.39621e-09
1.67866e-07
1.26897e-07
4.21251e-08
-3.67872e-07
3.25747e-07
7.1303e-08
-5.23139e-07
4.51836e-07
-4.43374e-07
-4.66474e-08
4.90021e-07
-2.60675e-07
1.04924e-07
-6.73443e-07
1.52737e-07
5.20706e-07
-3.2404e-07
2.71041e-07
8.52207e-08
-6.42043e-08
1.24673e-07
5.66286e-08
1.67966e-07
-3.72357e-07
2.04391e-07
3.10848e-07
-1.52323e-07
-1.58525e-07
-3.38518e-07
3.33784e-07
-9.06395e-07
1.53198e-07
-4.48838e-07
-2.24605e-07
-4.2635e-08
4.2635e-08
1.19475e-07
5.37528e-08
-1.73228e-07
-2.74151e-07
-1.25327e-07
3.99478e-07
-5.22716e-07
9.35258e-09
1.63465e-07
-1.12277e-07
2.27303e-07
3.5658e-08
7.7181e-09
-3.5658e-08
5.69385e-08
-2.12805e-08
2.87055e-08
2.85404e-07
-3.1411e-07
1.89146e-07
1.02712e-07
-2.91858e-07
-2.85404e-07
3.27529e-07
-1.23416e-07
3.1411e-07
-1.90694e-07
1.36479e-07
3.13876e-08
-5.42155e-08
-1.36479e-07
1.90694e-07
-6.28137e-07
5.76833e-07
5.13037e-08
6.28137e-07
-5.38745e-07
-5.76833e-07
2.91858e-07
2.84975e-07
-3.27529e-07
4.67442e-07
-4.67442e-07
5.38745e-07
1.68359e-07
-2.43268e-07
-2.81692e-08
-2.95871e-07
5.21383e-08
-2.72507e-07
-2.2938e-07
3.56344e-07
-1.26965e-07
6.36449e-08
-1.07049e-07
-3.52795e-07
1.93285e-07
-1.94295e-07
1.01007e-09
-9.47508e-07
1.54484e-07
2.53612e-07
1.02732e-07
2.82318e-07
1.25272e-07
-9.29996e-07
-1.27465e-06
6.08661e-07
-7.24208e-07
-6.69607e-09
7.72468e-12
-6.64385e-08
3.04122e-07
-1.36809e-07
-3.84082e-07
7.41133e-08
3.09969e-07
-2.84079e-07
2.29864e-07
-9.01679e-07
1.08875e-07
7.92804e-07
-7.40185e-07
7.93515e-08
2.31497e-07
1.17322e-08
-1.17244e-08
8.77162e-08
2.86329e-07
-3.74045e-07
-1.03572e-07
-1.87526e-08
-2.15863e-08
-2.35553e-07
-1.4853e-07
2.55274e-08
-2.35067e-08
-3.5871e-07
-8.46641e-08
6.25667e-08
2.04024e-08
-8.29691e-08
-4.34829e-07
5.90621e-08
3.75767e-07
-1.02042e-07
4.07621e-08
-3.47113e-07
2.42635e-07
4.17509e-08
-2.84386e-07
-3.45028e-07
1.09475e-07
-5.86984e-08
-1.35154e-08
-6.00674e-08
1.06444e-07
-1.77603e-07
-1.12701e-08
1.88873e-07
-6.91731e-07
3.52491e-07
-4.59143e-07
1.79637e-08
4.41179e-07
-3.42663e-08
6.50318e-08
-4.00081e-07
-1.00031e-07
2.15681e-07
-1.76249e-07
-1.6878e-07
-1.16553e-07
-1.27393e-07
2.43946e-07
-2.24202e-07
1.07649e-07
1.36841e-08
-2.40398e-07
2.26714e-07
-6.16323e-09
2.20146e-07
-4.18757e-07
3.70888e-07
4.78691e-08
1.36818e-07
-1.48088e-07
-2.29493e-07
3.97459e-07
6.35894e-08
-1.53799e-09
9.05764e-07
-1.13513e-06
2.29366e-07
-1.14354e-08
-6.80295e-07
1.18149e-07
7.61398e-07
1.34328e-08
-1.17005e-07
2.72006e-07
-1.08542e-07
8.55545e-08
-1.01451e-07
1.90232e-07
3.05359e-09
8.15433e-08
8.37008e-07
-9.18551e-07
9.77083e-08
-2.73957e-07
1.29955e-08
5.81706e-08
3.37407e-07
9.19155e-08
-4.24447e-07
3.63627e-07
6.08198e-08
-8.135e-08
5.00992e-07
-4.74835e-07
-2.61561e-08
2.52795e-08
4.75712e-07
-2.17587e-07
-5.83024e-07
5.80242e-09
5.77221e-07
-9.43429e-09
-5.7359e-07
-3.21902e-07
4.49775e-07
-1.27873e-07
1.43934e-07
6.86198e-08
-2.12553e-07
-1.80729e-07
3.24663e-07
8.31993e-08
1.07378e-07
4.23628e-07
-5.27397e-08
-4.20413e-07
9.85107e-08
-4.56872e-07
7.67653e-08
6.0053e-08
-4.60694e-07
4.85974e-07
5.91594e-07
3.17321e-07
-9.08915e-07
2.2764e-07
9.25134e-08
-2.99467e-08
1.04622e-06
-4.54626e-07
3.61692e-08
6.46572e-09
-3.76996e-07
-4.74515e-08
-1.49287e-07
9.71938e-08
8.80761e-07
-4.62791e-07
-4.1797e-07
-7.26919e-07
-2.20589e-07
-1.95148e-08
4.61336e-07
-1.60363e-07
-8.41804e-08
2.46707e-07
-1.6826e-07
-7.84475e-08
8.94328e-07
9.51321e-10
4.22677e-07
-1.05359e-06
1.15007e-07
3.68952e-07
-4.83959e-07
-4.2718e-07
5.01844e-08
1.64134e-07
-1.52402e-07
3.72883e-07
-2.80967e-07
8.05219e-08
-1.86337e-07
1.05815e-07
3.779e-07
-9.15708e-08
5.51391e-07
-7.56789e-08
1.56712e-07
5.48936e-08
1.91814e-07
7.22731e-07
-6.90318e-07
-3.2413e-08
3.24545e-07
4.83377e-08
1.77581e-07
-2.0575e-07
3.53638e-07
-4.34988e-07
2.41546e-07
-6.61097e-08
-1.75436e-07
4.93582e-07
1.99813e-07
-1.16613e-07
3.3815e-08
5.46466e-08
3.23253e-07
7.23854e-08
3.49926e-08
1.57088e-07
4.27243e-08
3.33828e-07
5.46934e-07
-9.16294e-09
-4.18017e-07
1.4381e-07
7.86932e-08
-2.22503e-07
6.8705e-07
-2.03307e-07
-4.83743e-07
-2.08842e-07
2.10733e-07
-1.89077e-09
6.71408e-07
-6.82012e-07
1.06035e-08
6.36522e-08
9.34363e-08
-1.70545e-07
-3.52172e-07
-3.08346e-07
1.37801e-07
-1.06554e-07
1.49279e-07
1.7067e-07
1.8203e-08
4.61732e-07
-3.23358e-07
-1.38374e-07
3.72414e-07
2.12892e-07
-2.54643e-07
-1.58183e-08
4.59916e-08
2.57496e-07
-3.03488e-07
5.42402e-07
-4.68289e-07
-1.36666e-08
9.04319e-08
4.59853e-07
-1.18013e-08
-4.48052e-07
5.20359e-07
-9.12748e-07
6.46572e-09
4.33057e-07
-2.78861e-07
-1.54196e-07
-3.59143e-07
4.68426e-07
-1.09283e-07
2.50152e-08
-3.66952e-09
2.50152e-08
-4.93231e-07
4.65138e-07
2.80927e-08
4.70567e-07
8.08237e-08
-4.17639e-07
4.70234e-07
-5.25952e-08
-4.30414e-07
4.10899e-07
1.20158e-08
8.42079e-08
-9.62237e-08
6.06633e-07
-1.36066e-07
1.15462e-07
-1.68318e-07
5.28561e-08
-3.51503e-07
5.40649e-07
-3.13018e-07
3.9354e-07
2.42149e-08
-1.65078e-09
6.22033e-08
4.65311e-07
1.41322e-07
-3.55811e-07
4.70818e-07
-1.78466e-07
2.24457e-07
1.02589e-07
-3.33774e-08
5.07873e-08
-4.0498e-07
3.93373e-07
-4.0498e-07
-1.89095e-08
-8.5944e-08
4.54896e-07
3.98902e-07
-4.00206e-07
1.30329e-09
-3.75127e-07
3.76079e-07
1.08635e-07
-6.49917e-08
6.49917e-08
4.27099e-07
-1.62e-08
-4.10138e-08
1.25222e-07
4.57997e-07
2.79762e-08
3.80683e-07
1.8219e-08
3.05834e-07
-5.48549e-07
4.7287e-07
1.90392e-08
-4.65094e-07
-5.37238e-07
7.20133e-08
4.65225e-07
1.36038e-07
-2.15956e-07
2.06521e-07
-3.52172e-07
-7.21004e-08
4.58433e-07
4.18223e-07
3.77432e-07
-5.41792e-08
3.06604e-07
-3.06604e-07
-1.58936e-07
-8.14622e-08
-1.47336e-07
-4.03487e-07
4.54274e-07
5.71152e-07
-5.51176e-07
-1.99763e-08
-1.91811e-07
6.57122e-07
-4.76536e-07
5.95989e-07
-1.23119e-07
7.42811e-08
2.23587e-07
-2.97868e-07
4.53834e-07
-5.95613e-07
1.41779e-07
-1.24868e-07
-2.71332e-09
-8.03853e-08
6.51538e-07
7.03503e-07
-8.19682e-07
1.16179e-07
-6.18143e-09
6.18143e-09
1.02772e-07
-2.13945e-07
2.13945e-07
-1.65322e-07
4.14016e-07
1.02693e-07
-5.16709e-07
1.08482e-07
-1.08482e-07
-4.56227e-07
-9.81494e-08
9.81494e-08
6.37792e-07
-4.59923e-07
-1.77869e-07
1.45301e-07
-1.45301e-07
-2.19426e-08
6.82991e-07
-2.37601e-07
-4.4539e-07
6.30138e-07
3.40718e-07
1.09057e-07
-5.02692e-07
1.87123e-07
-3.14996e-07
7.76504e-07
-7.30016e-08
6.09088e-07
-6.41501e-07
-5.64214e-07
-2.55468e-07
-1.61664e-08
4.74599e-07
-8.77364e-09
4.45981e-07
2.14424e-07
2.08898e-07
5.38821e-07
-4.17528e-08
-3.72479e-08
-1.21688e-07
2.04522e-07
4.78469e-07
-5.09044e-07
4.07548e-08
5.7449e-07
-1.09266e-07
6.74704e-07
-2.28723e-07
4.68607e-07
1.88515e-07
-8.07304e-07
-4.02439e-07
-3.62237e-07
7.64676e-07
2.95061e-07
-1.88654e-07
-1.06407e-07
-6.8259e-08
8.44763e-07
-6.45069e-07
-3.69429e-08
1.13061e-07
3.09771e-07
-4.22832e-07
4.28899e-07
-6.22254e-09
-3.99568e-07
-1.95994e-07
1.58746e-07
1.04614e-07
3.95999e-07
-6.33599e-07
-7.32112e-08
7.32112e-08
-7.74768e-07
-2.16405e-07
9.91173e-07
-7.94656e-07
2.30442e-07
5.0906e-07
4.72151e-07
-4.32523e-08
-7.322e-07
1.15347e-06
-4.2127e-07
6.17674e-08
4.29199e-07
-6.09929e-07
-4.76257e-07
-3.18399e-07
2.31806e-07
4.42898e-07
3.21285e-07
-7.23724e-07
-8.43027e-07
2.65302e-07
-2.67516e-07
2.21315e-09
7.00413e-07
2.86768e-07
-6.56707e-07
3.69939e-07
-2.673e-07
7.38443e-07
-4.71144e-07
7.4652e-07
4.51372e-07
4.55075e-07
-7.86757e-07
9.66852e-07
-1.80095e-07
-4.73038e-07
1.02706e-07
-6.37716e-07
5.3501e-07
7.29666e-07
1.25025e-07
3.52421e-08
-1.60267e-07
-9.48605e-07
-1.13424e-06
4.06311e-07
7.27927e-07
-9.20426e-08
5.06059e-07
-5.91943e-08
2.85908e-07
-2.86134e-08
2.86134e-08
3.96689e-07
7.56782e-07
7.2513e-07
-1.08013e-07
-6.17117e-07
-2.11263e-08
-1.74868e-07
4.96407e-07
2.04006e-07
-5.69696e-07
8.00138e-07
-7.37549e-07
-9.38723e-07
7.86786e-07
1.51936e-07
1.08854e-07
-1.53504e-07
-7.85218e-07
-2.89948e-07
-1.0358e-06
2.49043e-07
-2.06604e-07
9.45406e-07
-7.38802e-07
7.02676e-07
4.06217e-07
-1.10889e-06
-6.92125e-07
8.08304e-07
-3.33124e-07
-7.6458e-07
3.47227e-08
7.29858e-07
8.01089e-07
-4.59744e-07
-3.41345e-07
-7.49816e-07
1.8012e-07
8.13348e-07
3.68009e-07
-6.14049e-07
5.87068e-07
2.69809e-08
-3.94502e-08
-9.68894e-07
7.6229e-07
-3.31451e-07
6.52736e-07
-1.15121e-07
-2.53409e-07
6.37478e-07
2.18747e-07
-8.56225e-07
7.30092e-07
-1.43025e-07
4.99216e-07
2.30876e-07
4.24866e-07
-8.41475e-08
2.88644e-07
1.2821e-06
-6.58755e-07
-6.23349e-07
8.15395e-07
-3.16179e-07
4.44276e-07
3.71119e-07
-1.19196e-06
4.37286e-07
7.54676e-07
1.19773e-06
-6.35852e-07
-5.61879e-07
4.70083e-07
-5.86384e-07
1.16301e-07
6.42349e-07
-2.68656e-07
-3.64943e-07
1.12548e-06
-4.87999e-07
-5.9336e-07
9.99578e-07
-1.04549e-06
4.25159e-07
6.20336e-07
-1.67633e-07
2.42997e-07
5.59292e-07
-8.02289e-07
-3.09235e-07
-1.13597e-07
1.94631e-07
-5.46022e-07
3.51391e-07
7.8182e-07
5.00284e-07
-8.55062e-07
1.47118e-07
7.07944e-07
7.04206e-07
3.36422e-07
-6.09755e-07
2.73332e-07
1.04566e-07
9.04302e-07
-1.00887e-06
-6.39184e-07
-6.21414e-07
6.97204e-07
-7.57901e-08
-3.43387e-07
-4.64036e-07
-3.73307e-07
7.0973e-07
-5.64811e-07
-6.59951e-07
1.22476e-06
8.69435e-07
-8.02558e-07
-6.23473e-07
1.42603e-06
-3.90627e-07
8.08267e-07
-4.1764e-07
1.36737e-06
-6.07455e-07
-7.59914e-07
4.21171e-07
-1.01453e-06
-8.64328e-07
-2.77966e-07
8.37258e-07
1.35204e-07
5.78415e-07
-7.13619e-07
1.27985e-06
-3.75551e-07
1.41842e-08
-6.17163e-07
6.02979e-07
1.05762e-06
-3.81118e-07
-3.63104e-07
-2.4665e-07
1.28223e-06
-5.19938e-07
6.50039e-07
2.14409e-07
-8.64447e-07
-6.40109e-07
1.86948e-08
6.07506e-07
-2.39442e-07
-5.2552e-07
7.49541e-07
-2.24021e-07
4.3324e-07
-6.92369e-09
-4.26317e-07
5.16438e-07
-2.85561e-07
-3.2603e-08
-6.4015e-07
1.15097e-06
-5.10819e-07
-1.27964e-06
6.72188e-07
9.17468e-07
-2.67429e-07
1.31297e-06
-1.12706e-06
-1.85911e-07
-1.08926e-06
4.29311e-07
-6.69626e-07
-1.85436e-07
-1.05553e-07
1.05553e-07
1.45193e-07
-1.45193e-07
1.12993e-07
-1.12993e-07
-1.81765e-07
-3.66952e-09
-6.7656e-07
6.7656e-07
-2.20859e-07
2.20859e-07
2.37871e-07
-2.37871e-07
-8.35829e-08
-1.71162e-07
1.71162e-07
2.10433e-07
-2.41389e-07
2.41389e-07
5.85726e-08
-5.85726e-08
1.92562e-07
-1.92562e-07
-3.18164e-08
3.18164e-08
2.69844e-07
8.23939e-07
-1.09378e-06
-2.7577e-07
2.7577e-07
-4.40798e-07
4.40798e-07
-3.0249e-07
9.80836e-07
-6.78346e-07
8.94187e-07
-1.26974e-06
6.14977e-07
3.06577e-07
6.64711e-07
3.92911e-07
1.61994e-07
-5.25098e-07
7.21611e-07
3.22057e-07
2.20706e-07
7.08293e-08
-2.91535e-07
5.57581e-07
-9.76667e-07
1.20603e-06
3.42215e-07
3.07281e-07
-6.49495e-07
-4.32864e-07
1.93422e-07
-5.76226e-07
-1.62576e-07
-4.09696e-07
-6.04835e-07
2.5938e-07
-2.19647e-07
5.90766e-07
-5.68866e-07
-5.40028e-07
-4.56062e-07
4.70246e-07
3.6877e-07
-1.34544e-06
-8.25576e-07
2.4935e-07
-2.80313e-08
-2.17903e-07
4.30355e-08
-4.3207e-07
4.50765e-07
7.01739e-07
-3.85456e-07
-4.17073e-07
4.38852e-07
-5.16447e-07
3.827e-07
-4.05707e-07
8.35018e-07
-1.01134e-06
6.01645e-07
-9.60433e-08
5.29284e-07
-8.99105e-07
7.39896e-07
1.59209e-07
6.31987e-07
2.23618e-07
-8.55606e-07
9.34554e-07
-4.73562e-07
4.19944e-07
5.36181e-08
-8.54394e-07
3.28874e-07
-1.20347e-06
2.80763e-07
9.22708e-07
7.12439e-07
4.3853e-07
-2.38648e-07
2.96791e-07
-1.41366e-06
2.86601e-07
-1.1737e-06
-1.41468e-06
3.28621e-07
1.08606e-06
2.06479e-07
6.40725e-07
-9.08154e-07
-9.88884e-07
3.10538e-07
5.69385e-08
-1.28269e-06
8.92546e-07
3.90142e-07
-3.39582e-07
6.46159e-07
-1.03865e-06
-2.31091e-07
1.26179e-06
-3.59735e-07
1.11183e-07
5.35944e-07
-1.88349e-07
7.59873e-07
-5.71523e-07
-8.04862e-07
9.36057e-07
-1.09505e-07
1.80334e-07
5.57216e-08
-4.3445e-07
-8.74597e-07
-6.91047e-07
-2.08059e-07
-5.0102e-07
1.2578e-06
9.83658e-07
-2.43761e-07
-1.13289e-06
-2.35643e-07
-2.50326e-07
4.85969e-07
-1.06668e-06
-1.12808e-06
-1.13042e-06
7.44961e-07
1.21238e-06
-1.08711e-06
-3.48159e-07
-6.11168e-07
7.26475e-07
-1.06197e-06
3.3549e-07
-5.40756e-07
2.53624e-07
9.8129e-07
1.03701e-06
-5.81149e-07
2.49698e-07
-4.21844e-08
8.66123e-07
-6.4135e-07
-5.36242e-07
-3.31285e-07
8.67527e-07
-4.5492e-08
3.49614e-07
-9.54067e-07
4.0911e-07
4.60326e-07
1.60829e-07
7.75228e-07
9.50339e-07
-1.07778e-07
-8.4256e-07
-3.39106e-07
-1.78331e-07
-6.36852e-07
8.15184e-07
9.72226e-07
-8.11397e-07
-1.14135e-06
6.01322e-07
-5.37428e-07
5.9315e-07
-1.8536e-07
2.96543e-07
1.26132e-06
-3.73331e-07
-1.51768e-07
7.60767e-07
-4.01171e-07
-7.7253e-07
4.54243e-08
1.54631e-07
-2.96644e-08
7.56223e-07
3.29408e-07
-1.4623e-06
-2.2024e-07
1.75796e-07
4.44438e-08
-9.0699e-07
1.20983e-07
7.86008e-07
-6.01802e-08
-2.31355e-07
1.00442e-07
-7.91488e-07
-9.22287e-07
7.42192e-07
-1.27534e-08
-9.1306e-08
1.04059e-07
1.74815e-07
-6.98913e-08
-1.02381e-06
6.90686e-07
-6.52563e-07
-4.88786e-07
7.02578e-07
-5.43369e-07
1.1993e-06
7.82892e-07
-5.5081e-07
-2.32082e-07
4.57809e-07
-1.11677e-06
9.95517e-08
-1.11456e-06
4.61997e-07
-7.24418e-07
-4.33511e-07
-1.38722e-07
6.78945e-07
-5.40223e-07
-1.0557e-06
-6.11275e-08
9.27251e-07
-4.22488e-07
6.95095e-07
-5.79092e-07
-4.82874e-07
3.879e-07
-2.1458e-07
6.2369e-07
-9.07769e-07
7.39047e-07
1.68721e-07
-8.7946e-07
6.58727e-07
2.20733e-07
-5.5559e-08
-1.6406e-07
7.00004e-07
-9.56216e-07
5.33728e-07
-9.70655e-07
7.49772e-07
1.01004e-08
1.1012e-06
2.97326e-07
-1.39852e-06
2.36744e-07
-5.77892e-07
4.05759e-08
-2.8079e-08
-1.2497e-08
-6.23001e-07
-2.55948e-08
6.48596e-07
7.93766e-07
9.63613e-08
-1.41853e-07
3.04127e-07
-1.25819e-06
4.94219e-07
-1.7025e-07
2.23106e-07
1.18167e-06
2.829e-08
-6.73359e-07
-1.75264e-07
-7.6273e-07
9.37995e-07
-2.31601e-07
3.235e-07
9.39426e-09
-3.32895e-07
-6.89287e-08
-1.77771e-07
5.27384e-07
-4.26189e-08
4.21725e-07
-3.79106e-07
-9.36429e-08
-7.51575e-07
-4.28801e-07
-1.18214e-07
5.47015e-07
-4.78234e-07
2.21715e-08
6.13017e-07
-5.12575e-07
2.90006e-07
4.19724e-07
3.63863e-07
-3.19419e-07
6.813e-08
6.81642e-07
-2.38934e-07
-8.53236e-07
2.16384e-07
-7.72001e-07
5.96736e-07
8.40394e-07
-9.82019e-08
1.24488e-07
-1.94379e-07
6.96482e-08
7.46751e-07
1.35216e-07
3.13456e-07
-4.48672e-07
2.81714e-07
-1.85352e-07
5.46874e-07
-7.24644e-07
-6.01431e-08
4.73896e-08
-3.45672e-07
4.11538e-08
3.04518e-07
-7.21203e-07
-9.55363e-07
-5.67523e-07
-7.83618e-07
7.5263e-07
3.0988e-08
-1.40413e-07
-2.20967e-07
1.60824e-07
7.94453e-08
-6.98625e-08
-9.58278e-09
-5.03829e-07
-7.17732e-08
8.57781e-07
-5.70268e-07
6.01256e-07
-1.79813e-07
-2.30114e-08
1.02457e-07
9.15207e-07
1.43061e-06
3.76185e-07
5.92132e-07
-8.23733e-07
-1.19943e-06
9.55665e-07
-9.021e-07
3.14333e-08
-7.78184e-07
7.06411e-07
7.17368e-07
3.0253e-07
2.35703e-07
-2.78322e-07
-1.29071e-07
-3.87981e-07
-1.07432e-06
-4.22477e-08
-4.90583e-08
-4.2884e-08
6.88793e-07
1.71087e-07
-8.5988e-07
-2.6536e-07
8.26872e-07
-5.61512e-07
4.80758e-07
-3.315e-07
3.03511e-07
2.22061e-07
-2.12667e-07
3.51287e-07
-4.77767e-08
-4.16443e-07
-5.19896e-07
-2.37893e-07
7.57788e-07
-1.26258e-06
-1.93941e-07
8.52667e-07
-2.0572e-07
4.55417e-07
2.88451e-07
1.70744e-07
-4.59195e-07
2.08443e-07
3.38572e-07
-2.58245e-07
-6.36627e-08
3.21908e-07
9.83748e-08
-4.9015e-07
3.91775e-07
-4.41052e-07
-9.86957e-08
2.33911e-07
-3.2965e-07
6.18101e-07
-7.85255e-07
8.1786e-07
-1.00492e-07
2.3883e-07
-1.11016e-06
1.61336e-07
-7.01558e-07
-1.21707e-07
-4.09544e-07
2.03824e-07
4.64798e-07
9.61233e-07
-7.5916e-07
3.94218e-07
1.10336e-07
1.23575e-07
6.23919e-07
9.48729e-08
8.54611e-08
-2.21164e-07
3.67128e-07
3.61851e-07
8.6291e-07
6.32674e-07
-7.33166e-07
-3.77737e-07
4.48425e-08
-7.74947e-07
3.29556e-07
2.67549e-08
5.76224e-07
8.50257e-07
-6.29524e-07
2.283e-07
7.40252e-09
1.82492e-07
2.00208e-07
-2.20366e-07
1.49198e-07
2.0209e-07
1.80523e-07
2.91155e-07
-9.05736e-11
-2.20275e-07
1.62426e-08
-4.43216e-08
-1.18648e-07
-1.86465e-08
1.37294e-07
-8.3927e-07
3.80729e-07
4.58541e-07
-5.88057e-07
4.58986e-07
3.61232e-07
5.37127e-08
-3.02142e-07
-4.57019e-07
-6.88842e-08
-4.8777e-07
2.48836e-07
1.8508e-09
1.89284e-07
-5.48115e-07
8.57515e-07
6.16104e-07
2.18914e-07
5.16803e-07
-2.03346e-07
9.67482e-08
-3.61866e-07
3.22157e-08
-3.05207e-07
-7.25297e-08
-1.60708e-07
-1.68333e-07
2.95639e-07
-2.82253e-07
-5.18337e-07
-2.68228e-07
7.86565e-07
6.21908e-07
-5.93617e-07
9.77955e-07
-1.16797e-07
7.71991e-08
1.14131e-07
-1.9133e-07
-1.46152e-06
3.87197e-07
1.56102e-07
-2.75407e-07
1.19305e-07
6.03739e-07
1.81684e-08
-5.55422e-08
-1.2981e-07
6.82128e-07
-4.36478e-07
5.73715e-08
1.32771e-06
-4.36404e-07
-7.36725e-11
-4.7354e-07
-7.39271e-07
-8.08776e-07
2.90439e-07
-4.31161e-07
5.99648e-07
-1.68487e-07
2.12774e-07
5.4815e-08
2.77365e-07
-2.93988e-07
-1.45779e-07
4.39767e-07
-4.21913e-07
6.16544e-07
-1.12139e-08
-2.86655e-07
7.85302e-07
-4.55746e-07
3.35549e-07
-3.10305e-08
1.30952e-07
-3.99409e-07
-5.17074e-07
7.21596e-07
1.01704e-07
-5.7694e-07
-3.60294e-08
1.96853e-07
9.54846e-08
-3.61957e-07
2.75817e-07
-1.19716e-07
6.14343e-07
-4.76789e-07
6.11992e-07
3.69803e-08
-5.00431e-07
4.63451e-07
5.48258e-07
1.73339e-07
-1.49516e-07
1.55206e-07
-5.6895e-09
2.99519e-07
-2.04596e-09
7.14626e-07
-5.4354e-07
-1.05142e-07
4.66584e-07
-3.61442e-07
5.79036e-07
-2.81189e-09
-1.01133e-06
8.25669e-07
5.10151e-07
-4.52115e-07
3.40974e-08
-1.62761e-07
6.53369e-07
-1.05111e-07
2.33942e-08
-6.17012e-07
6.58631e-07
-5.31756e-08
-6.05455e-07
2.80346e-07
-9.32228e-08
-5.9334e-07
6.23093e-07
-2.97524e-08
-5.06851e-07
6.15446e-07
-1.08595e-07
1.22859e-07
1.7709e-07
-4.61378e-08
2.04835e-07
-7.83134e-09
-3.87821e-07
-2.68886e-07
1.963e-07
-4.39216e-07
-2.63582e-07
-3.69924e-07
-3.10084e-07
-1.38588e-07
3.16381e-07
3.49404e-09
-1.28089e-09
3.32823e-07
-4.43749e-07
-1.12335e-07
5.56085e-07
2.37462e-07
-1.89962e-07
-4.74998e-08
-2.51384e-07
-6.04841e-07
5.1128e-07
7.93778e-07
1.84177e-07
2.27991e-07
3.02236e-07
6.52907e-08
5.53904e-07
9.9465e-08
-1.21824e-07
-1.53583e-07
2.41952e-07
-2.96514e-07
5.4562e-08
-6.07311e-07
4.32865e-07
-5.67866e-08
-4.5429e-07
2.99445e-07
4.40572e-07
-5.49837e-07
-9.38723e-08
4.4814e-08
-4.94347e-07
5.17741e-07
2.28348e-08
3.04042e-07
1.79154e-09
-5.2507e-07
5.80541e-07
-5.54719e-08
2.11239e-08
-5.0311e-07
5.81296e-07
-7.81857e-08
7.23654e-08
3.53381e-07
-4.25746e-07
4.38774e-07
-3.83297e-07
2.05621e-07
1.07836e-07
-3.13457e-07
-5.79251e-08
-6.3782e-08
5.90884e-07
5.72641e-07
5.04511e-08
8.94008e-08
-1.51722e-07
6.2321e-08
5.87323e-07
-2.81984e-07
1.43292e-08
5.37708e-07
-2.499e-07
-1.33397e-07
5.35489e-07
2.21941e-09
4.82212e-07
-5.63983e-07
5.82152e-07
-5.15032e-07
2.06856e-08
5.62265e-08
-2.61319e-07
2.75648e-07
5.05737e-07
9.99454e-09
5.70547e-07
-1.83307e-07
1.00796e-08
-4.63328e-07
-5.19245e-07
4.47145e-07
1.96198e-07
3.90404e-07
1.15655e-07
-5.05038e-07
-4.64648e-08
1.16347e-07
1.78714e-07
-2.71579e-08
4.88464e-07
1.7273e-08
2.95021e-07
4.68209e-07
-7.78055e-08
9.62206e-08
1.98801e-07
-6.16734e-07
-4.89467e-08
6.6568e-07
8.68359e-08
-7.03953e-07
-6.24712e-08
-6.26117e-07
-4.72417e-08
3.30004e-07
1.38206e-07
-4.88124e-07
8.04709e-08
4.07653e-07
-6.72582e-07
1.72923e-08
-6.18291e-08
4.45368e-08
2.51352e-08
-1.65098e-07
-9.30392e-07
5.50636e-07
3.79756e-07
-1.30782e-07
-2.43263e-07
-3.71724e-07
5.56227e-07
-3.04065e-07
3.01329e-07
2.06731e-07
2.16701e-09
6.77552e-08
1.69707e-07
2.13491e-07
-1.31495e-07
2.74839e-07
-1.6231e-07
2.72145e-08
1.35095e-07
-5.0643e-07
4.02492e-08
4.66181e-07
1.24882e-07
7.19712e-08
-2.76258e-07
4.3784e-07
-3.89613e-07
-6.63975e-07
-4.50283e-08
-5.99783e-07
-1.82266e-07
1.99564e-08
-2.63662e-07
-1.08063e-07
-1.56392e-07
1.18793e-07
3.75994e-08
-2.86242e-07
5.85121e-07
-5.51023e-07
-2.28758e-07
8.01225e-07
-6.46741e-07
9.84232e-08
-1.49295e-07
2.26273e-07
2.45193e-07
1.46006e-07
1.03392e-07
-6.02879e-08
3.64048e-07
-3.12246e-08
-5.63958e-07
7.01608e-07
-1.23193e-07
5.36174e-07
-3.68344e-08
-6.58119e-07
6.94953e-07
-8.93466e-08
6.8236e-07
-5.93014e-07
5.86358e-07
2.01739e-07
2.27186e-08
5.97777e-07
-3.42503e-07
7.88412e-08
-6.75424e-07
1.51591e-07
5.23833e-07
4.23526e-07
3.99241e-08
2.03544e-08
1.86377e-07
8.45307e-08
-6.72323e-07
6.16851e-07
5.38067e-07
4.82913e-08
6.98429e-07
-7.07203e-07
-2.93185e-07
-4.93179e-08
5.98887e-07
-2.02263e-08
2.43332e-07
1.17569e-07
2.82327e-07
1.79195e-07
2.66672e-07
-1.35069e-07
2.99348e-07
1.54344e-08
-3.14783e-07
-4.67534e-08
-6.17222e-07
2.79456e-07
-2.07091e-07
6.72953e-07
-6.22502e-07
7.122e-07
-2.23026e-07
-4.89173e-07
2.57109e-07
1.1756e-07
1.66266e-08
1.48558e-08
-3.14824e-08
-2.48985e-07
3.03094e-07
-5.62052e-07
6.2382e-07
-1.71907e-07
1.24407e-07
2.36135e-07
4.16601e-07
-6.16982e-07
6.57737e-07
6.28737e-07
-4.20521e-07
1.3496e-07
-6.04174e-07
-6.81482e-08
-4.07816e-07
5.39229e-07
-2.0353e-07
-4.46473e-08
2.48177e-07
1.48411e-07
6.25359e-07
-7.14706e-07
-2.45499e-07
3.00061e-07
6.83808e-09
-4.90424e-08
-5.16325e-07
-7.71679e-07
4.94665e-08
-7.89651e-07
-2.05574e-07
-6.99479e-07
9.40235e-08
1.75952e-07
-1.09866e-06
-5.57313e-08
1.71128e-07
1.72339e-07
1.10351e-07
1.99743e-07
2.38097e-07
-6.77029e-07
2.17487e-07
1.69606e-07
-1.91549e-07
2.14696e-07
5.71869e-07
2.11613e-08
3.76667e-07
1.0755e-07
5.43712e-07
3.70654e-07
2.78196e-07
4.8648e-07
-9.299e-08
3.82957e-08
3.17739e-07
-3.71357e-07
-1.24578e-07
-5.51134e-07
2.82248e-07
-3.4216e-07
-6.9065e-07
-6.00014e-07
8.34917e-08
-1.28139e-07
1.37021e-07
1.29645e-07
1.88927e-07
1.5454e-07
8.39895e-08
-5.41799e-07
7.40862e-07
5.35402e-07
3.20204e-07
-3.59743e-07
-1.81013e-07
6.20683e-07
-7.43876e-07
1.45194e-07
-7.45208e-07
-8.39989e-08
-2.27273e-07
7.19168e-07
9.40343e-08
7.87657e-08
-5.53893e-07
7.68588e-07
-3.33656e-07
-3.60852e-07
4.22432e-07
3.26435e-08
-3.96034e-07
7.39212e-07
-3.43177e-07
-5.1249e-08
2.80058e-07
-5.98682e-07
-4.74215e-07
3.48448e-07
-4.1211e-07
-7.14433e-07
7.26006e-07
-4.0931e-07
3.59992e-07
5.06962e-07
-7.11437e-08
-3.38687e-07
5.9523e-08
6.94797e-07
-7.76919e-07
9.80741e-07
-2.85646e-07
1.78393e-07
4.36898e-07
-4.71418e-07
-2.70503e-07
-2.80549e-07
-1.41163e-07
-3.48987e-07
8.04141e-08
9.23859e-08
2.72865e-07
-4.99242e-07
1.04988e-06
-4.14145e-07
5.55924e-07
5.86637e-07
-2.38189e-07
-6.04042e-07
6.44291e-07
9.28174e-08
4.5281e-07
-1.69906e-07
3.0815e-07
-7.46813e-08
7.03178e-08
-1.09048e-06
2.31971e-07
2.13896e-07
-3.00436e-07
5.82683e-07
-3.71317e-07
-2.05623e-07
-1.67912e-07
4.10958e-07
2.57235e-07
3.44747e-07
1.36462e-07
-7.50626e-07
3.08272e-07
-4.48055e-07
5.99646e-07
-4.31131e-07
6.96884e-08
2.2368e-07
-1.37637e-07
4.82384e-07
1.17838e-07
4.99368e-07
-5.17206e-07
7.10721e-07
-1.36282e-07
-5.93357e-08
2.84445e-07
8.73383e-07
1.19178e-07
4.18287e-07
-8.24394e-08
-5.89218e-07
2.4346e-07
-3.44494e-07
1.24427e-08
-1.48725e-07
8.62799e-07
-4.45725e-07
-1.95625e-07
1.70931e-07
1.62003e-07
1.55775e-08
4.58244e-07
-3.77719e-07
8.01086e-08
3.80402e-08
-4.78172e-08
-5.09242e-08
-3.07785e-07
1.32775e-07
-7.74959e-09
2.97801e-07
3.39708e-08
1.05425e-06
-4.94244e-07
2.95456e-08
1.31128e-07
-6.88066e-08
-6.49805e-07
6.53792e-07
1.58961e-07
1.94565e-07
-3.53526e-07
2.91484e-07
-1.05046e-07
-1.63493e-07
-1.47852e-07
-2.81428e-08
-4.61238e-08
1.14442e-07
-4.64793e-08
2.54562e-07
-5.24719e-08
3.76579e-07
-2.09701e-07
1.02428e-07
-4.18678e-09
3.80372e-07
2.30344e-07
-1.19757e-08
4.79665e-09
3.17265e-07
1.49033e-07
-2.61465e-07
-2.26148e-08
1.44656e-07
-1.05017e-07
1.66253e-07
-6.12355e-08
5.28968e-07
-8.60887e-09
1.87342e-07
5.97941e-07
4.35045e-07
3.64033e-07
2.59657e-07
4.54348e-07
5.99901e-07
-6.53959e-07
-5.05629e-07
-4.11488e-07
3.41973e-07
-2.25541e-08
5.28968e-07
2.32682e-08
-1.63923e-07
-2.21995e-07
9.09038e-08
-4.60897e-08
2.95367e-07
-1.96943e-07
-1.81205e-07
-6.18803e-07
2.45764e-07
-7.89332e-09
-2.6875e-07
-7.01998e-09
-5.65143e-07
-1.11417e-07
1.34369e-07
-2.13754e-08
-8.74657e-08
-3.27908e-07
8.83243e-07
-1.87383e-07
-1.34369e-07
8.74657e-08
1.87383e-07
-1.62216e-08
4.04447e-07
-2.11885e-07
3.27908e-07
-8.83243e-07
2.45764e-07
-2.6875e-07
-5.65143e-07
4.04447e-07
1.87252e-07
-8.47959e-08
-1.27308e-07
4.50573e-07
2.3403e-07
-1.27692e-07
1.27692e-07
-1.27308e-07
-3.49047e-07
-2.56612e-07
2.04931e-07
4.17077e-07
-2.03182e-07
3.20804e-07
1.78192e-07
-2.81652e-07
1.693e-08
-1.22483e-07
-1.69301e-08
-1.75632e-07
-7.68428e-07
-5.06227e-07
9.85569e-08
-2.10671e-08
-7.1111e-08
2.30072e-07
-1.85353e-07
7.38781e-08
-2.60749e-07
1.1429e-07
-9.89017e-07
-2.00018e-07
-4.59674e-07
1.80813e-07
6.75842e-07
3.52582e-08
-4.56358e-07
-4.92711e-08
2.93614e-07
1.87584e-07
1.38234e-07
-3.40721e-08
3.67907e-08
4.01062e-07
-3.54979e-07
-4.60825e-08
3.89369e-07
-7.21046e-08
5.28248e-08
-5.28248e-08
-1.96212e-07
-4.49978e-08
-4.51562e-07
2.50414e-08
2.6039e-08
-1.48522e-07
-4.517e-08
4.46232e-07
4.42083e-07
-4.54402e-07
1.31044e-07
-3.15875e-07
6.7717e-07
-1.75934e-07
3.10791e-07
-2.72089e-07
1.1878e-07
-4.14925e-07
-1.03018e-07
-4.5707e-08
2.11711e-07
4.03841e-07
4.52797e-07
-5.1401e-08
-5.16165e-08
-4.98531e-08
-3.01874e-07
-3.61008e-08
5.56807e-07
-2.46742e-07
8.51539e-08
-8.51539e-08
1.67511e-07
-6.1958e-08
-1.67511e-07
5.26385e-08
-5.88199e-08
5.88199e-08
-6.46213e-08
-1.83154e-07
-1.71686e-07
1.97446e-08
-1.69039e-07
-1.08577e-06
-6.86223e-08
1.52114e-07
1.65984e-08
3.6729e-08
-3.23311e-07
-6.22914e-07
-4.79008e-08
2.26093e-07
-1.02986e-07
1.38816e-07
-1.48399e-07
-3.42663e-08
-1.41331e-07
4.47499e-07
-4.47499e-07
3.46384e-07
1.34004e-07
-5.26649e-08
-4.0261e-07
-2.4317e-07
3.72152e-08
2.05955e-07
1.64764e-07
1.74998e-08
3.75531e-08
-1.25336e-07
-4.10728e-08
-5.6793e-08
2.76004e-08
-1.07544e-07
-1.80721e-08
-1.10067e-07
-3.48015e-08
3.48015e-08
8.16635e-08
8.45893e-08
2.70503e-07
3.32845e-08
-9.80165e-08
6.4732e-08
-7.89925e-08
2.70652e-08
-7.46674e-08
-4.52797e-07
5.55107e-08
7.46674e-08
-9.29184e-08
3.04361e-08
6.24822e-08
-8.523e-08
1.84678e-09
1.42061e-07
2.88367e-08
-1.05229e-06
6.20404e-07
4.31885e-07
-3.40721e-08
-1.4184e-07
-6.12355e-08
1.4184e-07
5.23474e-08
1.60576e-08
-9.07389e-08
1.82274e-09
-2.08638e-08
-1.82274e-09
2.08638e-08
4.71761e-08
-4.71761e-08
-1.97572e-07
1.41358e-07
-3.06225e-07
-1.34891e-07
-1.52746e-07
1.78785e-07
-5.87034e-09
-1.39322e-07
1.39322e-07
-4.94244e-07
6.05803e-08
4.10728e-08
-1.16436e-07
1.51386e-08
-1.34004e-07
1.40868e-07
-9.77849e-08
3.03277e-08
1.41482e-07
3.90981e-07
3.50051e-07
-9.0394e-08
-1.34568e-07
-1.567e-07
-1.71686e-07
-1.12641e-07
-4.25593e-09