/*--------------------------------*- C++ -*----------------------------------*\
  =========                 |
  \\      /  F ield         | OpenFOAM: The Open Source CFD Toolbox
   \\    /   O peration     | Website:  https://openfoam.org
    \\  /    A nd           | Version:  9
     \\/     M anipulation  |
\*---------------------------------------------------------------------------*/
FoamFile
{
    format      ascii;
    class       volScalarField;
    location    "0.77";
    object      p;
}
// * * * * * * * * * * * * * * * * * * * * * * * * * * * * * * * * * * * * * //

dimensions      [0 2 -2 0 0 0 0];

internalField   nonuniform List<scalar> 
464
(
4.40473e-14
-8.83292e-14
-1.48647e-14
-1.33744e-14
-1.02726e-13
-1.49199e-14
1.88313e-14
-1.31385e-14
-1.58716e-14
-1.18091e-14
4.49539e-14
1.02592e-13
1.41328e-14
1.04253e-13
2.22539e-14
1.68904e-14
-1.41719e-14
-1.41127e-14
-1.104e-14
-1.37561e-14
-1.44007e-14
-1.5964e-14
-1.50059e-14
-1.38597e-14
-1.36544e-14
-1.41446e-14
6.46184e-14
-1.12313e-14
5.75083e-14
-1.58539e-14
-1.56138e-14
-3.11859e-15
-7.86478e-16
-9.09863e-15
-1.06102e-14
-1.43812e-14
-1.48671e-14
-1.03934e-14
-1.08248e-14
5.69835e-15
-1.38633e-14
-1.55723e-14
-1.5404e-14
8.80198e-14
7.49973e-14
8.21612e-15
-1.19429e-14
-1.06336e-14
-9.22212e-15
-1.1486e-14
-1.34996e-14
-1.05514e-14
-1.28981e-14
-1.20947e-14
-1.17999e-14
-1.05035e-14
-1.13903e-14
-1.06388e-14
-1.02705e-14
-1.34442e-14
-9.30406e-15
-6.04832e-14
-9.92942e-15
-1.1996e-14
-3.89158e-14
-1.27425e-14
-6.47686e-15
-8.71988e-15
6.08335e-14
-1.15828e-14
-9.38374e-15
-5.14956e-14
4.00125e-14
-1.05804e-14
-2.10654e-14
-1.07439e-14
-7.90456e-15
1.9438e-14
-1.13725e-14
3.8116e-14
-9.05593e-14
-1.54519e-14
-1.44031e-13
-1.68705e-14
-9.03789e-14
-9.53539e-15
-4.26828e-14
-1.58123e-14
-1.315e-14
-1.8015e-14
-8.07365e-14
-6.55933e-14
-6.5345e-15
9.02399e-14
-5.5756e-15
-8.32578e-15
-1.14033e-14
-1.47965e-14
-5.66763e-14
-1.24933e-14
-1.32663e-14
-1.0781e-14
-1.41598e-14
-6.30168e-15
-9.5411e-15
-1.42833e-13
-1.62458e-14
-7.01877e-15
-7.99259e-14
-1.19291e-14
-7.31818e-15
-1.13276e-14
-5.52365e-15
-4.3911e-14
-1.24266e-14
-1.32365e-14
-1.19698e-13
-1.78045e-14
-6.95123e-14
-1.62482e-14
-1.15128e-14
1.2126e-14
-3.37799e-14
4.16554e-14
-9.13573e-15
-9.3366e-15
-1.28002e-14
-6.39892e-15
-1.18251e-14
-1.28839e-13
-1.71774e-14
1.15773e-13
-9.98321e-15
-1.39724e-14
-1.68183e-14
-9.9761e-14
-1.81277e-14
-1.19167e-14
-1.4402e-14
-1.74879e-14
-1.86728e-14
-7.2798e-15
-8.92132e-15
-1.31506e-14
-1.8725e-14
-2.81811e-14
-1.3194e-14
-1.62008e-14
-1.1989e-14
-1.69906e-14
-1.4191e-14
-1.39667e-14
7.29007e-15
-1.13116e-14
-8.73182e-14
-1.78363e-14
-1.6663e-14
-1.30936e-14
-9.76753e-15
-6.77212e-14
-7.28741e-15
-1.38334e-14
-1.63562e-14
-1.59959e-14
-1.55889e-14
-1.84e-14
-5.52121e-16
-1.50357e-14
-3.20883e-15
-9.08011e-15
-3.66181e-15
-5.14427e-14
-3.18034e-14
-1.66062e-14
-1.41919e-14
-4.70215e-15
-1.30677e-14
-1.35009e-14
2.16525e-14
-1.26536e-14
-1.35433e-14
-4.23669e-15
-1.71655e-14
-1.79352e-14
-1.00323e-14
-1.6687e-14
-7.49256e-16
-1.12257e-16
-2.2683e-14
1.01505e-15
-1.10748e-14
1.40027e-15
-9.49951e-15
-1.07883e-14
-1.05229e-14
-1.02799e-14
-1.4642e-14
-1.15704e-14
-1.25467e-14
-1.12498e-14
-1.11302e-14
-1.06475e-14
-1.06339e-14
-1.10298e-14
7.03336e-16
-9.75248e-15
-1.09469e-14
-1.10443e-14
-1.09085e-14
-4.28209e-14
-1.79892e-14
-2.68654e-15
-8.7666e-15
-1.39212e-14
-1.46966e-14
-1.7913e-15
-4.91849e-15
-1.02868e-14
5.93916e-14
-1.02707e-14
-1.70688e-14
-1.11479e-14
-1.11217e-14
-1.23043e-14
-1.29377e-14
-1.35699e-14
-1.2623e-14
-1.27499e-14
-1.25935e-14
-1.22764e-14
-1.24797e-14
-1.2621e-14
-1.21238e-14
-1.06729e-14
-1.2727e-14
-1.16997e-14
-1.22819e-14
-1.16181e-14
-1.18409e-14
-1.2961e-14
-1.0938e-14
-1.0952e-14
-1.24979e-14
-1.14366e-14
-1.00431e-14
-1.35141e-14
-1.09446e-14
-1.40949e-14
-1.20379e-14
-1.41524e-14
-9.73705e-15
-1.25777e-14
-8.73997e-15
-1.32522e-14
-9.09088e-15
-1.00918e-14
-1.29883e-14
-1.44712e-14
-8.32951e-15
-6.18107e-15
-1.00302e-14
-8.3088e-15
-7.1197e-15
3.6233e-15
-8.1108e-15
2.32518e-15
-6.69598e-15
-1.21565e-14
1.63946e-14
-5.09541e-16
-1.60739e-14
-6.86623e-15
-5.81343e-15
7.58776e-15
1.51453e-14
-5.87745e-15
-3.5581e-15
-9.56365e-15
-8.48248e-15
-3.43129e-14
-9.23781e-15
-1.22766e-14
-9.62283e-15
-1.02926e-14
1.67904e-14
-1.52157e-14
-7.23417e-15
-2.81139e-14
-1.19256e-14
-1.04985e-14
-2.13372e-14
-1.18725e-14
-1.22342e-14
-1.22523e-14
-7.30169e-15
-7.93071e-15
-4.02273e-15
-4.06222e-15
-3.97081e-15
-3.53922e-14
1.1415e-14
3.58867e-15
3.35761e-14
9.92412e-14
-1.29629e-14
-6.51055e-15
-6.77894e-15
-1.4498e-14
-6.21258e-14
-8.73916e-15
-1.16578e-14
-1.31004e-14
-9.19078e-15
7.45931e-15
-7.96295e-15
-1.0787e-14
-5.78621e-15
-3.92729e-14
-1.28044e-14
1.1147e-14
-1.61053e-14
-5.27196e-15
-5.05661e-14
-3.55752e-15
-8.79966e-15
-9.00501e-15
-8.49927e-15
2.86869e-14
-1.15395e-14
-2.68876e-14
-1.44171e-14
-2.94401e-14
-1.37409e-14
-8.26319e-15
-1.12411e-14
-1.28938e-14
-1.5637e-14
-1.33401e-14
-1.18787e-14
-1.50499e-14
-1.30296e-14
6.2575e-14
-1.91414e-14
-2.7573e-14
-8.59898e-15
-1.24142e-14
-8.97072e-15
-7.89318e-15
-1.33071e-14
-1.10815e-14
-1.21819e-14
-1.34831e-14
-5.98223e-15
-7.11724e-15
-1.17858e-14
-5.69335e-14
-1.53709e-14
-1.311e-13
-1.55447e-14
-8.5313e-14
-1.43478e-14
6.78901e-15
-1.53933e-14
-9.12444e-14
5.62688e-14
-1.12675e-14
-1.25511e-14
-1.56456e-14
1.34844e-13
-1.64437e-14
-1.28979e-14
1.14071e-13
2.62733e-14
-1.32326e-14
7.96726e-14
-1.40708e-14
5.03575e-14
-1.58473e-14
4.70477e-14
-1.66364e-14
3.02963e-15
-7.28273e-15
-1.16404e-14
-5.55979e-15
-1.01862e-14
-2.99451e-15
-9.70976e-15
-1.49048e-14
-1.87271e-14
-1.3764e-14
-1.3497e-14
-1.29349e-14
-1.43046e-14
-1.25375e-14
-1.34258e-14
-1.44482e-14
-1.40137e-14
-1.4973e-14
-1.54632e-14
4.05251e-14
-4.85247e-14
-1.39307e-14
8.95595e-14
-1.24023e-14
7.0432e-15
3.93686e-14
1.12274e-13
-1.16364e-14
5.73169e-14
-1.18496e-14
-2.3701e-14
-1.21879e-14
-1.46556e-14
-1.44951e-14
-1.40669e-14
-4.30441e-14
1.58594e-13
-1.17693e-14
-1.43458e-14
-6.18948e-14
-1.25824e-14
-1.37667e-14
5.13953e-14
1.00599e-13
5.26594e-14
2.91511e-14
3.57639e-14
2.00889e-14
1.08755e-14
-1.46506e-13
-1.59686e-14
-5.26588e-15
-1.14764e-14
-1.58262e-14
-9.74637e-15
-1.67257e-14
-1.64163e-14
-1.48659e-14
-1.56466e-14
-1.73106e-14
-1.27406e-14
-1.30272e-14
-1.26246e-14
-1.33771e-14
-1.43891e-14
-1.38746e-14
-1.43943e-14
-1.61236e-14
-1.38682e-14
-1.41577e-14
-7.47641e-16
1.35549e-14
6.03372e-15
-1.47281e-14
-1.30004e-14
-1.35321e-14
-1.22852e-14
-1.16596e-14
-1.24247e-14
-1.2087e-14
-1.216e-14
1.50434e-13
9.69232e-14
-1.48243e-14
)
;

boundaryField
{
    back
    {
        type            empty;
    }
    front
    {
        type            empty;
    }
    left
    {
        type            zeroGradient;
    }
    top
    {
        type            zeroGradient;
    }
    right
    {
        type            zeroGradient;
    }
    bottom
    {
        type            uniformFixedValue;
        uniformValue    
        {
            type            scale;
            scale           
            {
                type            squarePulse;
                start           0.3;
                duration        0.3;
            }
            xScale          
            {
                type            constant;
                value           1;
            }
            value           
            {
                type            constant;
                value           15.1;
            }
        }
        value           uniform 0;
    }
}


// ************************************************************************* //
