/*--------------------------------*- C++ -*----------------------------------*\
  =========                 |
  \\      /  F ield         | OpenFOAM: The Open Source CFD Toolbox
   \\    /   O peration     | Website:  https://openfoam.org
    \\  /    A nd           | Version:  9
     \\/     M anipulation  |
\*---------------------------------------------------------------------------*/
FoamFile
{
    format      ascii;
    class       surfaceScalarField;
    location    "0.77";
    object      phi;
}
// * * * * * * * * * * * * * * * * * * * * * * * * * * * * * * * * * * * * * //

dimensions      [0 3 -1 0 0 0 0];

internalField   nonuniform List<scalar> 
663
(
-1.022e-19
1.14331e-19
-1.2131e-20
2.98361e-20
1.24169e-19
-9.07923e-23
9.07923e-23
1.84569e-21
-9.01585e-22
-9.44103e-22
-5.46269e-20
8.4463e-20
1.30144e-23
-1.03808e-22
-1.22309e-19
2.01087e-20
6.01486e-22
1.2442e-21
-1.44169e-19
5.99461e-20
8.42233e-20
-1.17252e-20
-1.32444e-19
-3.23596e-20
1.46691e-19
7.00977e-20
-3.05937e-20
-3.9504e-20
-6.23627e-20
6.34027e-20
6.69503e-21
2.15494e-20
-2.23629e-20
8.13477e-22
2.28644e-20
-1.31496e-21
4.47231e-21
-6.46116e-21
1.98885e-21
5.13335e-21
-6.61035e-22
6.41454e-23
-6.41454e-23
6.21126e-21
-7.35864e-21
1.14738e-21
-1.2387e-21
7.44996e-21
-2.35418e-21
-2.83236e-21
5.18654e-21
-5.78962e-21
3.43545e-21
-2.38506e-21
1.97339e-21
4.11669e-22
1.89613e-22
-1.0912e-21
-1.33238e-21
-1.05268e-21
-5.31036e-21
-1.81835e-21
7.12871e-21
2.02495e-21
-6.88761e-22
-1.33619e-21
1.70759e-20
-2.23863e-20
3.87291e-21
-3.22651e-21
-6.46398e-22
1.89415e-21
1.97876e-21
-2.33945e-20
2.16059e-20
1.78859e-21
1.56303e-21
-2.49575e-20
2.03241e-20
-1.88559e-20
-1.46822e-21
1.35958e-20
6.72829e-21
4.26492e-21
8.68424e-22
6.2137e-21
-1.94878e-21
-3.04975e-22
3.6912e-22
5.28735e-22
1.49622e-21
-2.18739e-20
1.26818e-21
2.06058e-20
-4.26475e-21
-3.09389e-21
6.19615e-21
-7.09149e-21
8.95335e-22
4.06528e-22
-1.29894e-20
1.1171e-20
-4.35831e-20
9.90424e-22
-3.10789e-21
6.60103e-21
-3.49314e-21
-6.16196e-21
5.66527e-21
4.96684e-22
-8.97858e-22
8.97858e-22
-9.93735e-22
2.40668e-21
-6.67143e-21
2.7897e-21
5.6878e-22
-3.35848e-21
-6.38112e-21
1.07503e-21
5.30609e-21
6.1716e-22
-4.81793e-21
4.20077e-21
7.87871e-21
-7.26155e-21
-1.85923e-21
4.64893e-21
-4.96712e-21
-5.65828e-22
-3.87983e-21
4.44565e-21
7.14021e-21
-7.70604e-21
-5.46766e-21
-9.13457e-22
-3.69121e-22
-6.90369e-21
5.62695e-20
-4.93658e-20
-3.69757e-21
6.3607e-21
-2.66313e-21
3.91594e-21
-4.71613e-21
8.002e-22
-9.42498e-20
8.25246e-20
-1.65215e-21
-3.16579e-21
-1.05083e-20
7.67147e-21
2.83679e-21
1.46664e-21
-7.18637e-20
7.03788e-24
7.87167e-21
7.30121e-21
-1.60996e-22
-1.01153e-19
2.21193e-20
-5.04344e-21
-2.16008e-21
-4.00188e-21
-2.08593e-21
2.71218e-20
-2.50359e-20
-1.86226e-21
-3.40813e-21
-7.10013e-21
-1.1562e-19
1.03489e-19
-4.83e-21
9.50175e-22
-2.43538e-22
3.69922e-20
6.07095e-20
-9.77016e-20
-7.36612e-22
7.03778e-22
3.28343e-23
1.82259e-20
-2.70673e-20
8.84136e-21
2.78826e-22
5.79557e-23
-3.36782e-22
5.52181e-20
9.21407e-22
-4.61897e-21
7.01048e-20
-1.38353e-20
-4.57783e-22
-3.08161e-21
2.36557e-21
7.1604e-22
-2.83331e-20
2.62472e-20
5.85232e-21
-4.0444e-20
1.91671e-20
-9.58608e-21
-9.58103e-21
-3.92291e-20
-5.48441e-20
9.40732e-20
1.25729e-20
6.59419e-21
2.95257e-21
-9.14064e-22
-1.84274e-22
8.88053e-22
2.66533e-21
1.03266e-20
-1.29919e-20
4.76344e-20
-1.09997e-19
-2.05232e-21
-1.02929e-21
-1.08843e-21
6.7537e-21
1.54785e-21
-3.60017e-21
6.37031e-21
1.52356e-20
-1.24856e-20
-2.70673e-20
5.79583e-23
1.4445e-20
-6.77351e-21
-1.23267e-20
1.8179e-20
-6.15311e-21
8.01403e-21
-1.86091e-21
1.69146e-20
7.37123e-21
-2.42858e-20
4.44095e-21
4.85891e-21
-2.13651e-20
2.40304e-20
-4.43293e-22
2.80886e-21
-2.32078e-21
3.86862e-21
-8.84136e-21
-3.48532e-21
3.91584e-22
3.36778e-22
-7.28362e-22
1.03266e-20
1.9293e-21
-1.53771e-21
-7.24154e-21
-3.93395e-20
8.69739e-20
4.26322e-20
2.74725e-20
-6.18706e-20
8.19793e-20
8.22262e-21
2.80823e-20
-1.11677e-20
6.95359e-20
-2.69036e-20
-1.59064e-20
2.32776e-20
2.76308e-21
1.08327e-20
8.77637e-21
-8.77637e-21
1.57388e-21
-3.89466e-21
-7.56823e-22
-2.99947e-21
3.7563e-21
-3.48531e-21
-7.28359e-22
6.56561e-22
-1.99275e-21
-2.32583e-21
2.32583e-21
1.27594e-21
-2.03276e-21
-1.17129e-20
-6.6211e-21
6.46011e-21
3.42533e-21
-1.27594e-21
5.47582e-22
2.56969e-22
2.68648e-20
-2.7113e-21
4.28518e-21
1.47152e-21
-4.35222e-21
-3.63919e-22
-2.60494e-21
2.7911e-22
1.24248e-21
-3.95378e-21
-4.71973e-21
8.25077e-22
1.86632e-21
2.31183e-20
-2.49846e-20
2.19453e-20
6.13698e-21
6.84128e-21
2.03276e-21
2.93072e-22
-4.22558e-21
-2.23558e-21
-2.71311e-21
3.9556e-21
3.01964e-20
3.20468e-20
-1.38678e-20
7.34825e-21
-1.48818e-20
7.53358e-21
7.83292e-22
-3.49641e-21
1.90932e-21
-2.69452e-20
-2.60494e-21
3.70034e-22
-2.97497e-21
5.18128e-21
2.16697e-21
-5.94076e-21
6.3108e-21
-1.82578e-21
2.39946e-20
-2.21688e-20
-1.08256e-20
1.08256e-20
-8.3562e-21
-2.46943e-21
1.82115e-20
-1.27349e-20
1.29919e-20
-5.83183e-21
1.2735e-20
2.37951e-21
-1.82859e-20
-2.23499e-21
3.01828e-21
-2.2728e-21
3.78083e-23
-2.53763e-20
2.72426e-20
-1.38241e-21
-1.19701e-20
1.33525e-20
4.24814e-21
-6.52095e-21
1.18191e-21
8.67459e-21
-9.8565e-21
5.47798e-21
-5.47798e-21
4.09557e-21
7.40729e-21
-9.23307e-21
-7.40729e-21
1.92931e-21
4.13492e-21
-2.95301e-21
4.13492e-21
-5.97668e-21
8.3562e-21
-6.45507e-21
-7.52468e-22
7.20754e-21
5.97668e-21
-1.84177e-21
2.61038e-21
-2.61038e-21
2.9863e-22
-6.0665e-22
-7.09939e-21
-7.00571e-21
6.39906e-21
-7.17946e-21
-7.1216e-21
7.12864e-21
8.59408e-23
-6.75197e-21
-2.53747e-22
2.99495e-21
-2.90901e-21
-7.25767e-21
5.05701e-22
2.90901e-21
2.99495e-21
2.86592e-21
-2.86592e-21
2.61217e-21
-2.953e-21
1.46664e-21
-2.06738e-21
2.06738e-21
-2.97497e-21
-9.23307e-21
-9.52337e-21
9.52337e-21
2.61217e-21
4.09557e-21
1.29035e-22
-1.51447e-22
-1.61434e-21
-8.88517e-22
-7.25823e-22
-1.03997e-21
-1.15014e-21
-5.45462e-21
6.60476e-21
-1.32354e-21
2.83572e-22
-5.23338e-22
-1.67348e-21
-5.84716e-21
3.92535e-22
-5.33306e-22
-5.31385e-21
-1.73321e-22
-7.19235e-21
7.58488e-21
-7.23309e-22
6.45123e-21
-1.41108e-21
-5.04015e-21
5.25265e-21
1.19858e-21
-1.25662e-21
-9.16663e-21
7.75555e-21
-1.42994e-21
4.24237e-21
-9.28252e-21
-6.12004e-23
-2.31358e-22
-2.89449e-21
-7.17778e-21
1.34788e-21
5.333e-22
-7.71276e-21
-4.5703e-21
-4.71222e-21
-2.44167e-21
8.20369e-21
-1.2774e-20
-1.189e-20
-1.01089e-20
-2.39743e-21
1.25064e-20
-6.38776e-21
-4.87049e-21
6.21837e-21
3.3332e-21
-8.53412e-22
4.80901e-21
-2.44167e-21
-6.77574e-21
1.38785e-20
-2.05687e-20
6.69016e-21
4.70146e-21
-1.14772e-20
-1.42184e-20
-4.54559e-21
1.8764e-20
-8.63168e-21
1.33331e-20
-1.95053e-20
2.30885e-20
-3.58319e-21
5.24682e-21
-1.4324e-20
-8.97158e-21
3.46542e-21
2.75502e-20
-2.67368e-20
6.78058e-21
1.63079e-20
-5.53876e-21
3.79179e-21
-1.27634e-20
4.352e-22
1.73177e-21
2.39671e-20
2.51032e-20
-7.21578e-21
1.10076e-20
-2.22043e-22
-2.39013e-21
2.39013e-21
5.49977e-21
1.39479e-20
-1.22161e-20
3.36396e-21
6.13739e-23
6.47055e-22
-8.79424e-21
-1.79425e-20
1.78815e-20
-3.9336e-21
-3.16576e-23
2.42178e-21
1.58404e-20
-4.2744e-20
-1.60317e-21
2.99963e-21
2.32843e-20
-2.02847e-20
3.91247e-20
-4.34655e-21
-5.0267e-21
-9.17094e-21
6.42845e-21
-2.42178e-21
-5.31222e-22
-1.16917e-20
1.35335e-20
-2.45325e-20
-1.7451e-20
-5.15971e-20
3.34675e-20
1.81296e-20
2.41737e-20
4.76692e-21
1.44678e-21
2.92536e-21
-1.62585e-20
-7.00736e-22
-7.02649e-21
2.08082e-20
7.50776e-21
5.18701e-20
-2.16737e-20
7.59629e-21
-1.86039e-20
-1.70039e-20
-7.52861e-21
-3.14808e-22
9.16294e-22
2.64938e-20
-1.10674e-21
-2.11978e-21
-7.01971e-21
-2.11369e-21
2.11369e-21
-2.78133e-20
5.14501e-21
2.30494e-21
1.35236e-19
-8.33006e-20
2.99307e-22
-2.99307e-22
8.01346e-21
-2.00842e-21
4.07981e-21
-4.88917e-22
4.88917e-22
-1.94648e-21
-1.74105e-22
1.74105e-22
2.18128e-20
-1.56071e-19
2.23136e-20
-1.96024e-21
-3.25094e-23
1.12249e-21
2.80059e-21
-7.55094e-21
4.03059e-20
1.30146e-23
4.03059e-20
1.30146e-23
-2.58529e-21
1.26755e-19
1.55157e-22
-6.43652e-23
-3.1397e-20
-7.09728e-23
-1.32386e-20
9.18466e-20
1.33756e-23
-7.75207e-23
-5.30334e-21
8.06643e-21
1.54714e-20
-2.18411e-21
2.28614e-23
1.51242e-22
2.39467e-21
-2.2986e-20
-8.04915e-21
3.82357e-21
-2.39467e-21
-1.01157e-20
-4.64342e-21
9.27984e-21
1.63652e-21
-7.96488e-21
1.1509e-20
-1.34383e-20
-5.33311e-21
-1.94126e-21
1.80965e-20
1.34185e-20
-1.51665e-21
1.85999e-21
-1.19895e-21
-5.74557e-21
5.80677e-21
1.36664e-21
-1.36664e-21
3.51088e-21
4.65467e-21
-4.216e-21
-6.39923e-22
4.36432e-21
-4.25668e-21
1.29434e-19
1.55157e-22
1.13659e-19
2.28602e-23
1.03839e-19
-5.25811e-20
3.96451e-20
-3.96451e-20
1.3375e-23
-5.55005e-20
1.3375e-23
-8.63107e-20
-4.61335e-20
6.81613e-22
-7.14121e-22
6.79532e-22
-8.23685e-22
1.44153e-22
-2.71922e-21
-8.80945e-22
1.54714e-20
-3.12123e-22
2.02171e-22
-3.85727e-20
9.27984e-21
7.96488e-21
-4.51362e-23
1.85999e-21
1.19895e-21
3.79445e-21
4.94183e-21
-4.59371e-21
-1.15826e-21
-1.93363e-21
-4.12866e-23
-3.6235e-23
3.53411e-22
)
;

boundaryField
{
    back
    {
        type            empty;
        value           nonuniform List<scalar> 0();
    }
    front
    {
        type            empty;
        value           nonuniform List<scalar> 0();
    }
    left
    {
        type            calculated;
        value           uniform 0;
    }
    top
    {
        type            calculated;
        value           uniform 0;
    }
    right
    {
        type            calculated;
        value           uniform 0;
    }
    bottom
    {
        type            calculated;
        value           nonuniform List<scalar> 8(-1.54006e-19 -5.19356e-20 1.34258e-19 -9.49328e-20 -1.32019e-19 9.51456e-20 1.52232e-19 5.12579e-20);
    }
}


// ************************************************************************* //
