/*--------------------------------*- C++ -*----------------------------------*\
  =========                 |
  \\      /  F ield         | OpenFOAM: The Open Source CFD Toolbox
   \\    /   O peration     | Website:  https://openfoam.org
    \\  /    A nd           | Version:  9
     \\/     M anipulation  |
\*---------------------------------------------------------------------------*/
FoamFile
{
    format      ascii;
    class       volVectorField;
    location    "0.77";
    object      U;
}
// * * * * * * * * * * * * * * * * * * * * * * * * * * * * * * * * * * * * * //

dimensions      [0 1 -1 0 0 0 0];

internalField   nonuniform List<vector> 
464
(
(-2.93083e-12 -1.75934e-12 -1.87139e-31)
(-1.90516e-12 3.98549e-12 0)
(7.14575e-16 1.52843e-15 0)
(4.33654e-14 -1.90347e-15 8.12924e-31)
(-1.36576e-12 3.15158e-12 0)
(5.48453e-16 1.20099e-15 -2.28257e-31)
(-2.79891e-12 -1.00902e-12 1.8707e-30)
(4.11083e-14 -8.48577e-15 0)
(-3.44594e-12 1.39594e-13 -1.54335e-31)
(-3.26373e-12 1.13744e-12 -1.46104e-30)
(-2.33096e-12 -2.27695e-12 1.51864e-31)
(-9.85445e-13 -1.25569e-12 -1.53716e-31)
(-3.04756e-12 -3.09703e-13 2.95976e-32)
(-7.03593e-13 -1.36765e-12 0)
(-3.13905e-14 7.60249e-13 3.73314e-31)
(8.91269e-15 6.70807e-13 -1.13106e-30)
(2.89651e-14 2.03267e-13 0)
(1.09069e-14 1.54677e-13 -3.28395e-31)
(1.89139e-15 -9.76889e-16 -5.12289e-31)
(-3.62751e-15 2.20818e-13 8.11965e-31)
(4.00153e-15 2.30752e-13 -1.20097e-30)
(5.54865e-14 1.53631e-13 2.2777e-31)
(6.28511e-14 1.62616e-13 -1.16751e-31)
(5.06277e-14 1.51681e-14 0)
(3.02407e-14 1.19633e-15 -8.34918e-31)
(5.10818e-14 2.50087e-14 4.13074e-31)
(-2.39092e-13 2.30815e-13 -1.95145e-30)
(2.71311e-14 -3.68499e-14 -6.65208e-31)
(-3.33628e-13 3.67224e-13 0)
(5.04635e-14 8.2379e-14 0)
(6.10783e-14 6.95847e-14 5.36944e-32)
(2.2361e-13 6.88538e-13 2.11188e-33)
(1.70817e-13 7.61945e-13 2.07252e-32)
(1.91198e-13 4.98656e-13 -5.48266e-31)
(2.24824e-13 4.38116e-13 5.52562e-31)
(5.22357e-15 1.49993e-13 9.03966e-31)
(-9.25272e-16 1.86883e-13 -8.30594e-31)
(4.59727e-15 -7.91081e-15 -7.90103e-32)
(2.15672e-14 -4.52294e-14 1.92051e-32)
(5.72019e-14 6.37882e-13 0)
(-1.2544e-14 2.22075e-13 1.20095e-30)
(3.73124e-14 2.02034e-13 0)
(5.24101e-14 1.84227e-13 -3.07305e-31)
(-3.78839e-13 -1.56734e-13 -4.62588e-30)
(-7.50391e-13 -5.48513e-13 4.72034e-30)
(5.50608e-14 7.46824e-13 2.78646e-32)
(7.6078e-14 -1.30049e-13 6.77522e-31)
(2.2202e-14 -1.54047e-13 5.96139e-33)
(4.9015e-15 -1.68361e-14 0)
(1.39201e-14 -1.97136e-14 7.64967e-32)
(-1.30074e-14 2.27863e-13 -8.14626e-31)
(2.62519e-14 -8.00572e-14 -3.55891e-32)
(-6.3261e-15 1.62289e-13 -5.39067e-31)
(1.95767e-14 -1.45412e-13 -7.01431e-31)
(1.51853e-14 -2.12232e-13 -2.22887e-32)
(3.91293e-14 -1.11406e-13 6.14517e-31)
(6.45731e-14 -1.17732e-13 0)
(-1.41149e-14 -1.44098e-13 0)
(-1.3523e-14 -2.0499e-13 -5.86153e-31)
(-1.12017e-14 1.80491e-13 0)
(7.8824e-15 -2.2972e-14 5.65825e-31)
(-1.55944e-12 9.89225e-13 6.52223e-30)
(6.25911e-14 -1.08767e-13 1.12434e-30)
(-2.0164e-14 -1.03158e-13 -7.10899e-31)
(-2.68695e-12 1.10018e-12 -6.8746e-32)
(3.88547e-14 -9.61663e-14 -7.35414e-31)
(8.86321e-14 -2.75845e-13 -4.02285e-31)
(9.55972e-15 -4.39194e-14 -4.84201e-31)
(-1.69777e-12 -1.67688e-12 -1.69624e-30)
(1.49344e-15 -2.30557e-13 6.91794e-31)
(-1.60333e-15 -2.16641e-13 5.84938e-31)
(-2.14704e-12 1.47752e-12 -3.46454e-30)
(-2.23389e-13 5.95571e-13 0)
(3.65253e-14 -1.53563e-13 6.36432e-31)
(5.19218e-14 -8.07958e-13 -1.11484e-30)
(3.65052e-14 -7.09733e-14 6.41628e-31)
(7.32939e-14 -2.3658e-13 -4.71502e-31)
(-3.32824e-12 -1.66999e-12 -1.85171e-30)
(-2.37641e-14 -1.00425e-13 -6.76298e-31)
(-8.4738e-14 6.23407e-13 8.59301e-31)
(-1.32321e-12 2.07987e-12 0)
(1.09748e-14 1.10495e-14 2.19547e-31)
(-3.05703e-13 6.79723e-13 -8.37496e-30)
(3.93678e-15 7.20186e-15 1.03807e-30)
(-7.9564e-13 1.25354e-12 0)
(2.61135e-14 -1.48293e-13 2.19748e-32)
(-1.5367e-12 5.06866e-13 -3.09603e-30)
(1.23632e-14 1.79662e-14 0)
(7.17068e-14 -1.86007e-14 0)
(5.66853e-14 -7.96149e-13 -9.30884e-31)
(-9.61455e-13 8.87839e-13 4.80306e-30)
(-2.01525e-12 2.2172e-12 0)
(2.14519e-13 -3.88558e-13 3.68472e-31)
(-1.34795e-12 -2.74279e-12 -4.56026e-30)
(2.02948e-13 -4.74589e-13 -3.61282e-31)
(9.4836e-14 -1.67939e-13 -5.435e-31)
(-2.40794e-14 -1.47129e-13 6.77868e-31)
(2.07249e-14 1.42027e-14 -2.01353e-31)
(-3.20452e-14 -4.37841e-13 -3.74738e-30)
(-2.65154e-12 2.50211e-14 -5.57988e-32)
(7.44963e-14 2.3466e-15 0)
(2.71468e-14 -1.88399e-13 4.61968e-32)
(8.5799e-14 1.73422e-14 0)
(2.42511e-13 6.06856e-13 -2.06651e-33)
(2.03457e-13 5.92719e-13 0)
(-2.03492e-13 5.78511e-13 -6.68118e-30)
(1.41251e-15 7.52261e-16 0)
(1.43852e-13 -2.95583e-13 3.93e-31)
(-5.1996e-13 3.35178e-13 -4.80821e-30)
(4.19284e-14 -1.95573e-13 0)
(2.23647e-13 -6.11611e-13 0)
(6.01078e-14 -1.59365e-13 -6.9165e-31)
(1.50567e-13 -3.57606e-13 0)
(-1.2241e-13 -6.23321e-13 2.32211e-30)
(7.96525e-14 -3.67883e-14 2.34121e-32)
(9.88874e-14 3.8056e-15 -1.26573e-32)
(-1.85237e-13 9.79253e-14 6.60071e-30)
(6.38468e-15 2.10477e-14 1.15077e-30)
(-3.76883e-14 -2.20929e-13 3.01431e-30)
(1.95908e-14 4.39106e-14 -6.22608e-32)
(4.52567e-14 -1.95369e-13 6.58062e-31)
(-2.18459e-12 -1.26316e-13 -2.54789e-32)
(-1.93786e-12 3.81768e-13 1.38307e-30)
(-2.19326e-12 -8.35168e-13 -1.62922e-30)
(1.82318e-14 -2.09496e-13 0)
(2.51182e-13 -6.32482e-13 6.15566e-31)
(-1.67443e-12 9.2466e-14 -1.39512e-30)
(1.4344e-13 -5.95232e-13 0)
(1.75286e-13 3.68809e-13 0)
(-1.3399e-13 1.73123e-13 6.48803e-30)
(3.10086e-15 6.32087e-15 -8.06193e-31)
(-1.49298e-13 -1.74821e-13 -5.30444e-30)
(3.42376e-15 -6.48185e-15 -4.63063e-31)
(1.04405e-13 2.59627e-14 0)
(2.36882e-14 1.10019e-13 0)
(-7.96469e-14 -8.42412e-14 -5.23474e-30)
(4.10995e-15 1.47721e-14 -1.73806e-30)
(4.60434e-14 -4.13113e-14 -7.38973e-31)
(-2.50354e-12 5.16986e-13 1.57474e-30)
(2.96261e-15 4.84165e-14 8.23993e-31)
(8.94266e-15 6.40406e-14 0)
(2.59968e-13 -5.08621e-13 0)
(-3.32473e-15 -1.99482e-13 4.88413e-32)
(9.45521e-14 -3.27702e-14 7.75784e-31)
(8.3017e-15 4.00876e-14 1.07443e-30)
(-2.18805e-15 -7.39688e-13 -1.87224e-30)
(1.08271e-13 4.06314e-15 0)
(2.4831e-14 3.54934e-14 0)
(-9.43748e-15 -1.50296e-13 -8.81496e-33)
(4.48876e-15 9.84839e-14 -1.97e-30)
(1.04357e-13 3.699e-14 2.65687e-32)
(9.29185e-14 6.82557e-14 8.36958e-31)
(-5.803e-13 3.48515e-13 5.8986e-31)
(1.84591e-13 -7.35783e-13 -6.18296e-31)
(-9.64939e-14 -2.61041e-13 -4.36258e-33)
(6.82421e-15 8.52279e-14 -1.14589e-30)
(2.99587e-14 2.10888e-13 0)
(1.0013e-13 7.02635e-15 0)
(-1.77431e-12 1.47067e-15 -6.7893e-32)
(-6.02255e-13 2.74164e-14 3.92326e-30)
(-3.72498e-13 -3.26134e-15 0)
(8.87634e-14 4.63813e-14 -8.28144e-31)
(6.77241e-14 -7.08718e-13 1.95582e-30)
(2.07474e-15 5.47819e-14 3.33221e-32)
(1.19144e-15 1.08983e-13 9.40041e-31)
(4.98121e-15 2.67705e-14 0)
(-1.3755e-13 1.62564e-13 -1.90433e-31)
(4.22216e-15 1.86476e-13 9.08423e-31)
(9.12661e-14 5.91566e-13 3.01824e-31)
(1.90541e-14 -2.21484e-13 8.60114e-31)
(4.09869e-14 -3.59612e-13 -2.17688e-31)
(-1.01625e-12 1.18953e-13 -2.63093e-30)
(1.0486e-14 -4.81855e-13 -6.00708e-31)
(3.54309e-14 1.48425e-13 -2.26294e-31)
(3.3678e-14 -4.41568e-13 4.06074e-31)
(9.39887e-14 -4.65264e-13 -2.61679e-31)
(7.65755e-14 5.42636e-15 8.20966e-31)
(5.90358e-14 5.15327e-14 -3.221e-33)
(-7.96837e-13 2.90822e-13 9.73582e-31)
(7.63216e-14 3.37316e-13 1.03309e-31)
(5.21693e-14 1.41551e-13 8.10109e-31)
(4.78864e-14 -2.517e-13 2.44746e-31)
(1.61658e-14 1.14133e-13 0)
(2.85062e-14 1.85542e-13 -1.12869e-30)
(2.98187e-14 3.3513e-13 2.28925e-31)
(3.36324e-14 2.55921e-13 -2.5352e-32)
(1.76125e-14 -1.33773e-13 0)
(1.25014e-14 -8.1967e-14 3.07437e-32)
(1.04133e-14 -2.62529e-13 -2.18206e-30)
(3.78966e-14 -2.6889e-13 2.1468e-34)
(1.36753e-14 -2.11033e-13 -6.5988e-34)
(2.87302e-14 -1.90023e-13 -3.84575e-32)
(3.63321e-15 -5.17027e-14 -9.00617e-31)
(1.38839e-14 -1.78946e-13 -6.56359e-31)
(-1.75179e-14 -2.20127e-13 6.04917e-34)
(-1.27697e-14 -2.05786e-13 -6.06834e-34)
(8.70412e-16 2.17153e-13 -8.3527e-31)
(2.37728e-14 -2.19911e-13 6.5286e-34)
(1.73541e-14 1.59245e-13 -5.36043e-31)
(-2.53997e-16 -2.20144e-13 6.67517e-31)
(4.2807e-15 -1.93542e-13 0)
(-9.17789e-15 -1.86343e-13 0)
(9.87496e-16 -1.12225e-13 0)
(-1.05458e-14 -2.16102e-13 6.51005e-34)
(1.776e-14 -1.19943e-13 0)
(4.86153e-15 -1.04398e-13 -1.38931e-32)
(-2.10593e-16 -5.96683e-14 0)
(-1.75213e-15 -5.67603e-14 -5.2985e-31)
(-4.54739e-15 -1.0423e-13 6.32106e-31)
(-8.426e-15 -2.71028e-13 1.78156e-30)
(4.82413e-15 4.11169e-14 8.50883e-31)
(6.83092e-15 -5.78883e-14 0)
(5.2573e-15 -2.85345e-14 4.18218e-31)
(-8.8465e-17 4.6049e-14 -6.54994e-31)
(-3.40217e-16 5.99682e-14 0)
(2.07491e-14 -1.69388e-13 -1.30223e-31)
(1.00106e-14 2.06566e-13 3.53485e-31)
(1.78918e-15 -5.80571e-14 4.78572e-31)
(-3.9416e-14 2.21575e-13 7.99135e-31)
(-2.18644e-15 -5.13482e-14 -5.05764e-31)
(1.4938e-14 8.56772e-14 8.32119e-31)
(-2.46064e-15 -1.1145e-13 6.62672e-31)
(-4.45384e-15 -1.94629e-13 -6.6832e-31)
(4.26768e-15 -1.02304e-13 1.44136e-30)
(4.07849e-14 5.38798e-15 8.0501e-31)
(2.09789e-14 5.79534e-14 -7.63101e-31)
(4.19132e-15 7.54392e-15 0)
(-2.43252e-14 1.55704e-13 3.74795e-31)
(-9.87755e-15 5.72597e-14 -2.26161e-32)
(-2.08008e-14 3.2444e-15 -7.54321e-31)
(-2.61933e-14 5.75775e-14 7.47658e-31)
(-2.14138e-14 1.84913e-13 -9.04634e-32)
(-1.44455e-14 1.49025e-13 0)
(3.10336e-15 -1.00684e-13 -5.89153e-31)
(-1.89444e-14 2.16827e-13 7.78951e-31)
(-2.4526e-14 6.72451e-15 0)
(5.07061e-14 1.96748e-13 -1.92534e-32)
(2.56525e-14 1.53262e-13 -6.64375e-33)
(-1.44458e-14 5.82528e-14 6.75813e-31)
(3.5552e-14 2.32212e-13 7.64928e-31)
(4.047e-15 5.70787e-15 -6.87921e-31)
(9.58358e-14 1.75728e-13 -6.77256e-31)
(-1.07369e-16 1.81359e-13 7.00584e-31)
(3.05859e-14 5.95482e-14 0)
(6.69704e-14 5.66474e-15 0)
(5.00417e-14 2.4635e-13 -1.12613e-32)
(1.08177e-13 6.5872e-14 -2.04128e-32)
(-3.39056e-15 1.93006e-13 0)
(1.26513e-13 2.3744e-13 0)
(-4.11694e-15 1.06614e-13 0)
(1.85888e-13 2.16631e-13 -5.71919e-31)
(9.62146e-14 2.78306e-13 -1.42558e-30)
(2.42503e-13 -1.68065e-13 -4.74829e-31)
(1.52608e-13 -7.21274e-13 9.33762e-31)
(1.57608e-13 4.69402e-15 0)
(2.05282e-13 7.43705e-14 0)
(9.57931e-14 -6.83615e-14 0)
(-4.40795e-15 5.38035e-14 -6.35142e-31)
(2.55449e-13 -2.00226e-15 -5.62583e-31)
(3.26327e-13 3.50499e-13 0)
(2.96019e-13 9.03099e-14 5.37863e-31)
(3.44295e-13 -2.80303e-13 9.34978e-31)
(3.37048e-13 -2.90461e-16 4.62414e-31)
(6.71397e-14 6.30442e-13 8.48944e-32)
(3.57612e-13 1.16031e-13 -4.62425e-31)
(-1.10444e-13 4.8512e-13 -8.297e-31)
(3.60843e-13 -4.89559e-15 -8.87609e-34)
(6.41674e-14 -5.34886e-14 -2.28834e-32)
(-4.46722e-14 8.04869e-13 -4.89515e-31)
(1.80038e-13 4.97172e-13 -8.60449e-32)
(2.18988e-14 1.51537e-13 -8.64084e-31)
(3.31209e-13 1.39504e-13 0)
(4.55779e-14 -5.23102e-16 1.85559e-31)
(6.52444e-14 8.01826e-13 -3.52835e-32)
(-1.9867e-12 -3.66955e-13 3.97826e-31)
(2.78666e-13 -3.69753e-15 0)
(1.82396e-13 1.64333e-13 0)
(-7.04174e-15 -1.76367e-13 -5.51182e-31)
(-9.51902e-16 -4.66812e-14 0)
(-8.93601e-14 -7.59644e-13 -4.69687e-31)
(5.11681e-14 -3.51471e-13 3.52659e-33)
(9.44322e-14 -6.12017e-14 -1.91662e-33)
(-3.98239e-15 -9.53152e-14 0)
(2.57435e-14 -1.17233e-13 -6.28062e-31)
(-2.15274e-13 7.067e-13 -7.51356e-31)
(-1.10289e-13 -4.84383e-13 -7.5116e-31)
(-3.38803e-17 -9.17831e-14 -3.9302e-31)
(-1.19042e-12 -8.47323e-14 0)
(7.60248e-14 -8.97036e-14 0)
(-3.46697e-13 -3.11091e-13 7.69639e-31)
(-5.66724e-13 -3.64448e-13 5.64269e-33)
(-9.30434e-13 -1.72788e-13 -4.82167e-33)
(9.53968e-14 -8.77426e-14 -7.6016e-31)
(5.28878e-14 -1.33583e-13 1.50393e-30)
(1.81749e-13 -2.09015e-13 4.83845e-31)
(3.6772e-15 -1.75555e-13 9.59107e-31)
(7.35555e-15 -1.0217e-13 0)
(1.26716e-13 -4.5234e-13 3.41474e-32)
(9.16442e-14 -3.3371e-13 -2.45295e-31)
(-9.29472e-13 -1.63816e-13 2.60544e-30)
(-2.82799e-13 5.48888e-13 3.63016e-31)
(-6.47032e-13 1.14704e-13 -1.78906e-31)
(-1.08241e-12 -1.34585e-13 -4.54875e-30)
(-8.11791e-13 -1.99609e-12 5.7711e-30)
(-1.0237e-14 1.85552e-13 4.12013e-31)
(2.66715e-13 -2.72032e-13 -4.50038e-31)
(3.19936e-13 -3.53639e-13 -9.02254e-31)
(-9.91897e-15 1.50195e-13 3.9906e-31)
(-2.96184e-13 -2.86705e-13 -7.24656e-30)
(9.57718e-14 -5.9958e-13 -6.14918e-31)
(-8.84159e-15 -2.16299e-13 -6.91951e-31)
(1.03551e-13 -5.11382e-14 -1.10925e-33)
(1.48188e-13 -1.30726e-13 0)
(-1.3532e-12 1.79112e-14 1.84125e-32)
(3.02658e-13 -4.35316e-13 -9.82622e-31)
(1.72366e-13 -4.91031e-13 0)
(2.11296e-15 -4.72031e-14 3.10894e-31)
(-5.44573e-13 -4.40892e-13 0)
(2.56538e-14 -6.64986e-15 0)
(-1.22168e-12 6.9692e-14 -9.88054e-31)
(5.24717e-14 1.07214e-13 7.39442e-31)
(5.23929e-14 -2.53071e-13 -1.36937e-33)
(-3.08511e-13 -5.05902e-13 3.3721e-30)
(7.44944e-14 -3.42896e-13 2.27287e-31)
(-9.90769e-13 -7.23268e-15 2.07046e-31)
(7.89509e-15 -8.86834e-14 1.58196e-32)
(9.72775e-15 -6.70544e-14 -5.15346e-31)
(-1.45865e-12 -1.45565e-13 1.3711e-30)
(5.98169e-14 -7.54212e-14 0)
(-4.2933e-13 -5.56362e-13 -1.6396e-30)
(2.0326e-14 2.19332e-13 -4.31298e-31)
(-3.5782e-12 1.34032e-12 -6.87229e-31)
(6.09603e-15 6.16371e-16 -3.32832e-31)
(3.20941e-13 -2.20237e-13 8.84803e-31)
(-1.47078e-14 -2.28129e-13 -6.47788e-34)
(7.26565e-14 -8.52437e-14 -7.44109e-31)
(6.63391e-14 1.22704e-13 -6.92852e-31)
(8.54588e-15 -9.63953e-16 -6.36174e-31)
(1.24556e-13 -7.30273e-13 -2.27136e-31)
(2.32847e-14 2.18236e-13 9.23859e-31)
(3.56454e-15 -1.51736e-15 3.28797e-31)
(-2.93872e-12 -3.47967e-12 0)
(-6.78838e-14 -7.19614e-13 -1.60423e-32)
(-1.83438e-13 -7.23697e-13 1.62727e-30)
(2.6961e-13 -3.30765e-13 4.93823e-31)
(4.36005e-14 -2.70887e-14 3.62494e-31)
(5.02837e-15 -4.15908e-14 8.45733e-31)
(3.50511e-14 -2.31113e-13 4.7013e-31)
(1.56998e-14 1.32415e-16 7.78717e-31)
(-2.08466e-14 -2.10983e-13 0)
(8.01528e-14 -1.13107e-13 -2.249e-32)
(1.28773e-14 -2.41531e-15 -3.73978e-31)
(2.26419e-14 -1.97446e-13 0)
(1.90578e-14 -2.10885e-13 -4.48873e-31)
(6.44848e-14 -1.65756e-13 -6.80617e-31)
(-6.33601e-13 2.54987e-12 7.76891e-30)
(-6.33343e-16 5.85686e-17 0)
(-1.84147e-13 1.0559e-12 -4.19506e-30)
(-6.06142e-18 -5.89839e-16 -3.55008e-31)
(-2.44563e-12 3.48465e-12 0)
(5.57425e-15 3.51435e-15 -4.66771e-31)
(-3.59724e-12 -3.9335e-13 1.97611e-31)
(3.98214e-15 4.2058e-15 2.44048e-31)
(-1.05708e-12 2.3667e-12 0)
(-2.12242e-12 -2.88432e-12 1.39829e-31)
(6.77885e-16 -1.78296e-16 7.02821e-31)
(5.39857e-14 -1.93036e-14 0)
(1.34855e-13 3.46085e-13 0)
(-2.7006e-13 -5.86575e-13 0)
(2.94487e-14 6.52009e-14 5.45042e-31)
(4.51898e-15 -2.4238e-15 0)
(-1.70684e-13 -7.85797e-14 1.02971e-29)
(-3.33219e-13 6.1772e-13 -1.86713e-31)
(6.3588e-14 2.77953e-13 0)
(-7.70972e-14 2.39729e-13 7.17605e-31)
(6.00234e-14 6.25663e-15 0)
(-1.14741e-12 -4.82929e-13 2.58037e-30)
(2.4724e-14 1.78895e-13 1.45658e-30)
(-2.94523e-14 4.01435e-13 5.41805e-30)
(3.15177e-14 1.01162e-13 2.76779e-31)
(1.81369e-14 3.78217e-13 0)
(1.35288e-13 5.81387e-13 -3.22245e-31)
(1.14606e-13 4.31643e-13 0)
(3.04441e-13 4.58483e-13 -1.66386e-31)
(2.11357e-13 2.83165e-13 1.94542e-33)
(2.40976e-13 5.55371e-13 0)
(2.84094e-13 3.67109e-13 -3.01309e-31)
(3.50937e-14 2.48423e-14 -4.77106e-31)
(1.81094e-14 1.20091e-13 0)
(5.93345e-16 7.46757e-14 0)
(-1.26877e-14 2.13583e-13 -4.19375e-31)
(9.13798e-15 2.20592e-13 0)
(-1.80418e-15 7.71655e-14 4.22422e-31)
(-6.02391e-15 8.53416e-14 1.39071e-30)
(-1.95041e-14 1.80068e-13 -4.26648e-31)
(5.99004e-14 1.54936e-13 -8.319e-31)
(3.17916e-14 1.77299e-13 0)
(8.66074e-14 9.77507e-14 -1.80923e-30)
(1.18273e-14 1.98262e-13 0)
(-6.90976e-13 1.77788e-13 2.34087e-30)
(-3.00806e-12 3.47296e-12 0)
(3.06865e-15 8.63457e-16 0)
(-2.49259e-12 -3.57545e-12 0)
(3.11175e-16 -9.78686e-16 -2.89043e-31)
(-3.68103e-12 -1.91458e-14 9.29919e-31)
(-3.31519e-12 -2.34521e-12 0)
(-2.26733e-13 -1.10218e-12 0)
(9.33413e-17 5.10509e-16 5.2974e-31)
(-6.81594e-13 -2.52797e-12 0)
(-5.05535e-16 3.97511e-17 -6.84102e-31)
(-3.20882e-12 1.86729e-12 6.76348e-31)
(2.83436e-14 -1.8724e-14 3.95581e-31)
(2.26503e-14 6.02034e-15 0)
(7.86303e-14 3.88038e-14 4.4575e-31)
(3.37633e-14 8.70859e-15 0)
(-2.52575e-12 2.6181e-12 0)
(-1.16639e-13 -4.13535e-13 0)
(1.56284e-14 -1.49745e-14 2.27515e-32)
(1.75175e-14 7.98012e-15 4.19937e-31)
(-3.40717e-12 2.16008e-12 -6.71349e-31)
(2.14963e-14 -1.0165e-14 4.23507e-31)
(1.04363e-14 1.1772e-15 4.82888e-31)
(-1.7469e-12 -1.00905e-12 1.81781e-30)
(-5.14862e-14 6.25943e-14 -4.64185e-30)
(-1.89227e-12 -4.03362e-12 -3.71897e-30)
(-6.13466e-13 3.97146e-13 9.21547e-31)
(-4.61188e-15 2.25645e-13 -1.93774e-30)
(1.07451e-14 3.99103e-13 5.00302e-31)
(4.97431e-15 2.02636e-13 -3.61142e-31)
(-4.24533e-13 1.43524e-12 9.7298e-30)
(6.06856e-16 2.95589e-16 5.28964e-31)
(3.10113e-13 3.87035e-13 1.78915e-31)
(8.04579e-14 4.30459e-13 2.85731e-32)
(3.72227e-14 4.02611e-14 9.09754e-31)
(2.74449e-13 2.45247e-13 9.81e-31)
(6.73971e-15 4.65753e-14 0)
(3.11371e-15 7.38619e-14 2.625e-31)
(8.01135e-14 6.52418e-14 -4.66623e-31)
(3.39625e-16 3.20455e-14 0)
(1.9845e-14 7.01856e-14 -5.50054e-31)
(-3.39548e-15 2.11972e-13 0)
(-1.21466e-15 3.57124e-14 -2.97995e-31)
(-1.0849e-14 1.39299e-13 2.71554e-32)
(2.14381e-15 1.74588e-13 -4.55291e-31)
(9.45948e-14 9.28367e-14 1.33175e-30)
(1.84502e-14 1.46236e-13 -2.65982e-32)
(8.22583e-14 1.24568e-13 -4.87225e-31)
(1.15003e-14 1.62939e-13 -5.25791e-31)
(8.0066e-14 1.1072e-13 5.27107e-31)
(-8.08063e-15 2.10567e-13 4.26559e-31)
(1.18361e-13 7.05301e-13 0)
(-3.63808e-12 -1.35558e-12 -5.3906e-31)
(1.04841e-13 8.06201e-13 3.79802e-31)
(6.44744e-14 3.73089e-14 0)
(-1.57841e-14 2.2014e-13 -8.62328e-31)
(9.59215e-14 3.31641e-13 0)
(1.01765e-13 3.01675e-13 8.47274e-31)
(2.27831e-15 -2.91668e-15 -3.75454e-31)
(1.09964e-14 -6.1091e-15 -8.03707e-33)
(8.04654e-15 -7.67074e-15 -1.24886e-32)
(-1.93858e-16 -1.89392e-16 6.51044e-31)
(-3.21955e-13 -1.26622e-12 0)
(-1.30883e-12 -3.22874e-12 1.03409e-30)
(5.38832e-14 5.23607e-14 -1.14477e-30)
)
;

boundaryField
{
    back
    {
        type            empty;
    }
    front
    {
        type            empty;
    }
    left
    {
        type            noSlip;
    }
    top
    {
        type            uniformFixedValue;
        uniformValue    
        {
            type            scale;
            scale           
            {
                type            squarePulse;
                start           0.3;
                duration        0.3;
            }
            xScale          
            {
                type            constant;
                value           1;
            }
            value           
            {
                type            constant;
                value           (0 -0.7 0);
            }
        }
        value           uniform (0 -0 0);
    }
    right
    {
        type            noSlip;
    }
    bottom
    {
        type            zeroGradient;
    }
}


// ************************************************************************* //
