/*--------------------------------*- C++ -*----------------------------------*\
  =========                 |
  \\      /  F ield         | OpenFOAM: The Open Source CFD Toolbox
   \\    /   O peration     | Website:  https://openfoam.org
    \\  /    A nd           | Version:  9
     \\/     M anipulation  |
\*---------------------------------------------------------------------------*/
FoamFile
{
    format      ascii;
    class       volScalarField;
    location    "0.76";
    object      p;
}
// * * * * * * * * * * * * * * * * * * * * * * * * * * * * * * * * * * * * * //

dimensions      [0 2 -2 0 0 0 0];

internalField   nonuniform List<scalar> 
90
(
-9.74915e-23
1.13467e-22
5.82599e-22
1.64389e-21
6.21104e-22
-8.16094e-22
-2.05079e-23
-1.4099e-22
-2.11958e-22
-1.57765e-22
9.39322e-23
-2.05437e-22
-1.91419e-22
6.2748e-22
-4.30973e-22
-3.11468e-21
3.40758e-21
-6.21991e-22
-6.77115e-22
2.81702e-23
5.20685e-23
5.64052e-23
9.66641e-23
2.29355e-22
2.2136e-23
4.06478e-22
-2.90026e-22
3.05837e-22
5.03532e-22
-2.26797e-22
-1.34588e-22
6.37032e-22
4.99051e-22
3.00333e-22
4.09673e-22
-3.00041e-21
-7.51822e-23
5.01903e-21
5.73596e-22
-9.74388e-23
-2.52244e-22
-3.30437e-22
7.40616e-22
-6.06717e-23
-1.01644e-23
5.92859e-22
-1.58915e-22
-1.18804e-21
-6.19818e-22
8.51909e-22
3.05479e-23
1.12751e-23
-2.01328e-22
6.77436e-22
-8.3459e-23
-7.60572e-22
-3.83549e-24
-3.33066e-23
-6.43379e-23
7.62247e-22
-2.15517e-22
8.3483e-22
1.11456e-21
1.06717e-22
-4.60475e-22
-2.13388e-22
6.29864e-22
7.42333e-22
4.24153e-21
1.83298e-22
-1.45483e-21
-1.40639e-22
6.43457e-22
-1.34655e-21
-2.9334e-21
-1.15924e-22
-1.23916e-22
6.18761e-22
1.43114e-22
2.65688e-23
4.96183e-21
-4.43868e-23
-4.89039e-23
-2.65835e-21
1.82634e-22
9.94354e-22
-9.49059e-23
-1.48673e-22
-1.78366e-21
-2.79281e-22
)
;

boundaryField
{
    back
    {
        type            empty;
    }
    front
    {
        type            empty;
    }
    bottom
    {
        type            zeroGradient;
    }
    outer_arc
    {
        type            zeroGradient;
    }
    right
    {
        type            uniformFixedValue;
        uniformValue    
        {
            type            scale;
            scale           
            {
                type            squarePulse;
                start           0.3;
                duration        0.3;
            }
            xScale          
            {
                type            constant;
                value           1;
            }
            value           
            {
                type            constant;
                value           15.1;
            }
        }
        value           uniform 0;
    }
    inner_arc
    {
        type            zeroGradient;
    }
}


// ************************************************************************* //
