/*--------------------------------*- C++ -*----------------------------------*\
  =========                 |
  \\      /  F ield         | OpenFOAM: The Open Source CFD Toolbox
   \\    /   O peration     | Website:  https://openfoam.org
    \\  /    A nd           | Version:  9
     \\/     M anipulation  |
\*---------------------------------------------------------------------------*/
FoamFile
{
    format      ascii;
    class       surfaceScalarField;
    location    "0.76";
    object      phi;
}
// * * * * * * * * * * * * * * * * * * * * * * * * * * * * * * * * * * * * * //

dimensions      [0 3 -1 0 0 0 0];

internalField   nonuniform List<scalar> 
122
(
-3.57677e-29
2.6204e-29
-6.47508e-30
1.57485e-28
-3.02732e-29
-8.10148e-29
-1.22103e-28
1.52021e-28
1.3729e-28
-1.88478e-28
2.59137e-28
5.1271e-28
-5.19388e-28
-7.04816e-29
2.60265e-29
1.49505e-29
3.08666e-29
4.58442e-29
-5.33833e-29
-2.9034e-29
-5.50435e-29
1.57297e-29
2.91152e-29
-5.18794e-29
-1.15959e-28
2.06092e-28
-8.67551e-29
2.16355e-28
-7.72225e-29
3.50578e-29
-2.60596e-28
-1.42363e-28
1.78204e-29
-5.42269e-29
-7.20564e-30
-4.1037e-30
-4.19055e-30
2.00493e-29
-2.82244e-29
-6.2677e-29
4.53182e-29
-2.38531e-29
-3.47752e-29
1.91025e-29
-3.28789e-29
2.50927e-29
1.12201e-29
2.39908e-29
-5.24311e-29
5.34436e-29
-3.99031e-29
-8.21428e-29
5.98077e-29
-3.96798e-28
1.95837e-28
3.12077e-29
-6.08412e-29
-2.80238e-30
5.23794e-30
5.13486e-30
2.21063e-29
3.08291e-29
1.07712e-29
-9.10008e-29
1.40947e-28
1.15991e-28
1.11831e-29
3.42298e-30
-2.93991e-31
1.64195e-29
8.52245e-30
3.20005e-29
3.54012e-29
5.79605e-29
-5.36569e-29
5.30132e-29
4.08439e-29
4.17922e-29
6.33683e-29
-4.70438e-29
-1.21179e-29
-2.11922e-29
-1.3471e-28
-1.05347e-29
-6.18789e-29
-4.16218e-29
2.69449e-30
1.52608e-29
7.8953e-29
-6.06624e-29
-8.66294e-29
-1.27492e-29
5.1874e-30
-1.15287e-28
1.15872e-28
2.52798e-29
1.79448e-30
6.3804e-29
-2.61551e-29
-1.78881e-29
-4.65204e-29
4.68485e-29
8.98903e-29
-7.5975e-29
1.27683e-29
8.17237e-29
-3.29226e-30
5.78535e-29
-1.51583e-29
-6.38355e-29
2.99524e-28
-2.87046e-28
-2.22295e-28
1.47388e-28
3.86338e-29
4.49565e-29
-6.86925e-30
-2.93392e-29
2.28536e-29
6.80862e-29
-1.10095e-28
1.84912e-29
)
;

boundaryField
{
    back
    {
        type            empty;
        value           nonuniform List<scalar> 0();
    }
    front
    {
        type            empty;
        value           nonuniform List<scalar> 0();
    }
    bottom
    {
        type            calculated;
        value           uniform 0;
    }
    outer_arc
    {
        type            calculated;
        value           uniform 0;
    }
    right
    {
        type            calculated;
        value           nonuniform List<scalar> 4(-2.45436e-29 -7.60879e-29 -7.12012e-29 -3.55022e-29);
    }
    inner_arc
    {
        type            calculated;
        value           uniform 0;
    }
}


// ************************************************************************* //
