/*--------------------------------*- C++ -*----------------------------------*\
  =========                 |
  \\      /  F ield         | OpenFOAM: The Open Source CFD Toolbox
   \\    /   O peration     | Website:  https://openfoam.org
    \\  /    A nd           | Version:  9
     \\/     M anipulation  |
\*---------------------------------------------------------------------------*/
FoamFile
{
    format      ascii;
    class       volVectorField;
    location    "0.76";
    object      U;
}
// * * * * * * * * * * * * * * * * * * * * * * * * * * * * * * * * * * * * * //

dimensions      [0 1 -1 0 0 0 0];

internalField   nonuniform List<vector> 
90
(
(-1.21863e-21 1.33998e-23 5.33783e-39)
(-2.30367e-21 -2.71095e-21 -3.8385e-38)
(4.6754e-21 2.82873e-22 5.77728e-38)
(4.04611e-21 -5.87363e-21 -5.7216e-38)
(-6.93971e-21 -1.01033e-20 -1.43724e-37)
(-1.45583e-21 -1.41239e-21 3.04958e-38)
(-7.08945e-22 -9.72227e-23 -6.19913e-39)
(-1.42103e-21 -2.83246e-22 -7.16438e-39)
(-8.42345e-22 1.93861e-21 0)
(-2.015e-21 -4.44168e-22 0)
(9.23041e-22 -4.90029e-22 1.0097e-38)
(-9.02754e-22 6.3707e-21 -7.55584e-39)
(1.27802e-23 1.92079e-22 -2.39116e-39)
(4.9631e-22 1.2919e-21 9.16352e-40)
(-2.75656e-21 4.40653e-21 0)
(-6.15582e-21 -3.07304e-21 0)
(-3.12333e-21 -9.87125e-21 1.89295e-37)
(4.02929e-21 1.26179e-21 2.6348e-38)
(-6.32621e-23 -3.05193e-21 0)
(-6.5779e-23 8.70348e-23 7.2257e-39)
(5.59751e-22 4.1195e-22 -2.60663e-39)
(-8.58639e-22 -1.03198e-21 -5.03672e-39)
(-5.58577e-22 -8.43156e-22 1.51384e-38)
(5.87615e-22 -4.05849e-22 -8.47559e-39)
(-6.25282e-22 -5.05918e-22 2.19483e-39)
(-4.88651e-22 -1.84433e-21 -1.20175e-38)
(-3.70881e-22 -1.50264e-22 7.06926e-39)
(-1.95467e-21 -1.46912e-21 -3.32238e-39)
(1.04507e-20 1.32154e-21 0)
(-1.00744e-21 -6.04344e-22 1.06901e-38)
(-8.93783e-22 -3.36105e-22 -6.86336e-39)
(9.95163e-22 -2.84437e-22 3.9008e-38)
(3.90448e-22 9.42249e-23 1.19429e-38)
(-9.32732e-22 -1.37601e-22 -2.31978e-38)
(-3.67868e-23 -2.39259e-22 6.73212e-39)
(-1.304e-21 3.53685e-21 7.11617e-38)
(-2.03112e-21 -2.25051e-21 0)
(1.52192e-21 -2.95156e-21 0)
(7.30511e-23 -1.67446e-22 -1.26179e-38)
(-1.22209e-22 7.80229e-23 -2.08929e-39)
(-9.13869e-22 -3.73638e-22 6.69929e-40)
(-6.55652e-22 -8.52392e-23 2.45062e-38)
(-1.16948e-21 -6.27089e-22 4.09097e-39)
(-1.84725e-21 -4.07801e-23 3.12742e-39)
(-2.10178e-21 -3.00726e-22 1.27051e-39)
(-8.80872e-22 -2.24371e-21 -2.37413e-38)
(2.67845e-23 -5.43306e-22 -4.28174e-39)
(-3.20622e-21 1.82727e-21 -3.09356e-38)
(8.08771e-22 -9.4596e-22 3.11912e-38)
(-1.21047e-21 4.05051e-21 -3.32891e-39)
(-3.22171e-23 6.74269e-24 0)
(-1.95116e-22 -1.80377e-22 1.74489e-39)
(-3.12262e-21 1.66369e-21 2.17259e-41)
(-9.64408e-22 -1.18037e-21 0)
(-2.84935e-22 -2.37714e-22 -4.02259e-39)
(-3.81979e-21 -1.3077e-21 3.03087e-40)
(-1.992e-21 -9.51539e-23 -1.20862e-39)
(4.3657e-22 -1.08345e-21 0)
(-1.90846e-21 -3.42182e-22 0)
(4.46629e-22 -9.63957e-22 -4.33695e-38)
(-1.26859e-21 -2.56266e-22 -1.63288e-38)
(-1.86008e-21 -2.3279e-21 0)
(-4.58549e-23 -6.58167e-22 -5.20864e-38)
(-3.81887e-21 -5.06416e-22 2.70801e-39)
(-2.49048e-21 -1.80516e-21 -3.36516e-38)
(2.90058e-21 -6.17535e-22 -7.68508e-39)
(6.03243e-22 5.66441e-22 0)
(7.0643e-22 -1.20047e-21 0)
(9.26133e-21 -1.47858e-21 -1.8245e-38)
(1.10719e-20 -2.85143e-21 -4.5619e-38)
(-6.71144e-21 2.10333e-21 0)
(-1.96796e-21 -5.57017e-22 -6.86908e-39)
(-4.58761e-21 1.48261e-21 0)
(2.92333e-25 -3.32094e-21 -9.90511e-38)
(7.08896e-21 -8.44923e-22 4.60589e-38)
(-1.83556e-22 -8.11696e-22 3.39984e-39)
(-6.75043e-22 -1.34887e-22 9.9662e-40)
(-1.70357e-21 -1.38289e-21 0)
(-1.72101e-21 2.56446e-22 1.45731e-38)
(-1.29031e-21 -2.6352e-22 -2.33501e-39)
(6.14311e-21 -7.37469e-22 -2.06766e-37)
(-2.16201e-21 -2.47881e-22 -9.87018e-41)
(5.23556e-22 -1.64397e-21 6.599e-39)
(-4.23779e-21 -1.41179e-22 -6.98707e-38)
(-1.80653e-21 -3.12002e-21 -4.83262e-39)
(-8.41193e-23 -6.66795e-22 2.78108e-38)
(-2.23036e-21 -3.19438e-22 -3.95868e-39)
(-2.05421e-21 -2.61207e-22 3.67413e-40)
(-3.39095e-21 -2.97701e-21 1.71518e-37)
(-1.29083e-21 -3.59512e-22 6.65221e-39)
)
;

boundaryField
{
    back
    {
        type            empty;
    }
    front
    {
        type            empty;
    }
    bottom
    {
        type            uniformFixedValue;
        uniformValue    
        {
            type            scale;
            scale           
            {
                type            squarePulse;
                start           0.3;
                duration        0.3;
            }
            xScale          
            {
                type            constant;
                value           1;
            }
            value           
            {
                type            constant;
                value           (0 0.7 0);
            }
        }
        value           uniform (0 0 0);
    }
    outer_arc
    {
        type            noSlip;
    }
    right
    {
        type            zeroGradient;
    }
    inner_arc
    {
        type            noSlip;
    }
}


// ************************************************************************* //
