/*--------------------------------*- C++ -*----------------------------------*\
  =========                 |
  \\      /  F ield         | OpenFOAM: The Open Source CFD Toolbox
   \\    /   O peration     | Website:  https://openfoam.org
    \\  /    A nd           | Version:  9
     \\/     M anipulation  |
\*---------------------------------------------------------------------------*/
FoamFile
{
    format      ascii;
    class       volScalarField;
    location    "0.44";
    object      p;
}
// * * * * * * * * * * * * * * * * * * * * * * * * * * * * * * * * * * * * * //

dimensions      [0 2 -2 0 0 0 0];

internalField   nonuniform List<scalar> 
1655
(
13.3245
13.3297
13.3191
13.3267
13.3345
13.335
13.318
13.3255
13.3156
13.3341
13.3244
13.3242
13.3268
13.3336
13.3217
13.3076
13.2863
13.3166
13.3332
13.3343
13.3206
13.3153
13.3311
13.3317
13.3243
13.2972
13.312
13.3182
13.3197
13.3315
13.3124
13.32
13.336
13.3252
13.3168
13.3274
13.3347
13.3304
13.3361
13.3289
13.3241
13.3328
13.3363
13.3324
13.3323
13.3264
13.3264
13.3316
13.3349
13.3363
13.3349
13.3192
13.3179
13.3178
13.3187
13.3281
13.3243
13.3246
13.326
13.3261
13.3129
13.3341
13.3245
13.325
13.3316
13.3143
13.3291
13.325
13.3165
13.3327
13.3248
13.3163
13.3287
13.3224
13.3207
13.3326
13.3207
13.3198
13.3237
13.3275
13.331
13.3325
13.317
13.3322
13.3343
13.3302
13.3212
13.3262
13.3262
13.3309
13.3326
13.3206
13.3331
13.3354
13.3326
13.3333
13.3293
13.3258
13.3216
13.3372
13.3205
13.3301
13.3355
13.3303
13.3143
13.3341
13.3251
13.3306
13.337
13.3305
13.3363
13.3247
13.331
13.3348
13.3276
13.3318
13.3262
13.3264
13.3259
13.3153
13.3297
13.324
13.3161
13.3274
13.3292
13.3288
13.3362
13.3323
13.3019
13.3377
13.3347
13.3364
13.3256
13.3292
13.328
13.3286
13.3336
13.3159
13.326
13.3285
13.3222
13.3126
13.3012
13.3239
13.2929
13.3202
13.327
13.328
13.3282
13.3025
13.3071
13.2975
13.3158
13.3116
13.3294
13.3365
13.3315
13.3301
13.3266
13.3311
13.3302
13.3245
13.3183
13.3286
13.3268
13.3255
13.3186
13.3283
13.3296
13.3191
13.2985
13.3212
13.3297
13.323
13.3305
13.3243
13.3349
13.3199
13.3371
13.3363
13.3288
13.3219
13.335
13.3276
13.3316
13.3353
13.3321
13.3362
13.3196
13.3234
13.3324
13.334
13.3234
13.3177
13.3315
13.3294
13.3215
13.3336
13.3261
13.3242
13.3274
13.3271
13.317
13.317
13.3339
13.3161
13.3356
13.3248
13.3376
13.3237
13.3187
13.3176
13.3291
13.328
13.3364
13.3283
13.328
13.3252
13.3164
13.3255
13.3324
13.3248
13.3359
13.3273
13.3358
13.3284
13.3238
13.3339
13.3141
13.3133
13.3329
13.3097
13.3093
13.3226
13.3356
13.3334
13.331
13.3264
13.3227
13.3063
13.3281
13.3311
13.3067
13.3258
13.328
13.324
13.3066
13.32
13.3276
13.3262
13.3325
13.3277
13.3338
13.3186
13.3352
13.3176
13.3374
13.3289
13.3194
13.3356
13.3236
13.3344
13.3206
13.3162
13.3336
13.3289
13.3353
13.3368
13.3361
13.3355
13.3129
13.3234
13.3321
13.3333
13.3252
13.3267
13.305
13.3296
13.3188
13.3182
13.3215
13.33
13.3283
13.3202
13.3232
13.3269
13.3242
13.3364
13.3352
13.3195
13.3236
13.3248
13.3346
13.3222
13.3269
13.3349
13.3248
13.3154
13.3265
13.3374
13.3364
13.3352
13.3352
13.3333
13.3154
13.3203
13.3359
13.3283
13.3292
13.3128
13.3294
13.2991
13.3325
13.3218
13.328
13.3281
13.3258
13.3208
13.3071
13.3367
13.3232
13.3337
13.3364
13.3339
13.336
13.326
13.3257
13.3292
13.3367
13.3338
13.3348
13.3257
13.3339
13.3231
13.3291
13.3172
13.3335
13.3348
13.3236
13.3278
13.3367
13.3298
13.328
13.3118
13.3188
13.3316
13.3343
13.3349
13.3363
13.3287
13.3297
13.3338
13.3112
13.3357
13.3201
13.3069
13.3279
13.3221
13.3301
13.2957
13.3236
13.3348
13.3195
13.3127
13.3326
13.3263
13.3374
13.3317
13.3264
13.3318
13.3321
13.3359
13.3323
13.317
13.3332
13.33
13.3334
13.327
13.3327
13.3298
13.3329
13.3149
13.3293
13.3135
13.3342
13.3216
13.3128
13.3293
13.3293
13.3116
13.3184
13.3341
13.3335
13.3236
13.3283
13.3137
13.3024
13.3282
13.3205
13.3339
13.3176
13.333
13.3146
13.3303
13.334
13.335
13.3242
13.3345
13.331
13.3335
13.3347
13.3122
13.3111
13.3337
13.3344
13.3106
13.3255
13.3079
13.3125
13.3103
13.334
13.3121
13.3298
13.3047
13.3162
13.3059
13.3078
13.3252
13.3164
13.3276
13.3343
13.3301
13.3124
13.3352
13.31
13.3169
13.3311
13.3345
13.3353
13.3129
13.3058
13.3037
13.3347
13.3024
13.3075
13.3148
13.3295
13.3337
13.3285
13.3341
13.3268
13.3191
13.3249
13.3097
13.3258
13.307
13.3336
13.3044
13.3285
13.3306
13.3192
13.3043
13.3175
13.3208
13.3342
13.3291
13.307
13.3055
13.3054
13.3189
13.3204
13.3322
13.3096
13.3342
13.3198
13.3203
13.3217
13.3191
13.3063
13.3278
13.2965
13.3333
13.3065
13.3249
13.3203
13.3076
13.3283
13.326
13.3339
13.3239
13.3194
13.3296
13.3087
13.3277
13.3227
13.3186
13.3084
13.3262
13.3173
13.327
13.3246
13.3217
13.3282
13.3225
13.3062
13.324
13.3242
13.3237
13.3214
13.3264
13.3338
13.3236
13.3312
13.3205
13.3244
13.3273
13.3218
13.3187
13.3108
13.3135
13.3136
13.3106
13.3222
13.3213
13.312
13.3095
13.3249
13.3231
13.3203
13.3173
13.3254
13.3283
13.3255
13.3275
13.3348
13.3289
13.3355
13.3245
13.3306
13.3261
13.3332
13.3166
13.334
13.3267
13.326
13.3349
13.3247
13.3289
13.3211
13.3316
13.3247
13.3225
13.2879
13.3245
13.3212
13.3078
13.32
13.3219
13.328
13.3261
13.3185
13.3293
13.3082
13.3197
13.3339
13.3139
13.3179
13.3101
13.3228
13.318
13.3231
13.3238
13.3238
13.3315
13.3201
13.3187
13.3232
13.3346
13.3109
13.3167
13.3251
13.3255
13.3337
13.3152
13.3289
13.326
13.3222
13.3123
13.3255
13.3116
13.3222
13.3134
13.3148
13.3165
13.3115
13.3124
13.3232
13.3254
13.3182
13.3229
13.3201
13.3001
13.32
13.3278
13.2934
13.2902
13.3152
13.3244
13.3186
13.3089
13.3213
13.3231
13.2943
13.3037
13.3265
13.322
13.3079
13.3248
13.3097
13.3151
13.3096
13.3129
13.3053
13.3208
13.3126
13.33
13.3137
13.3148
13.3163
13.3254
13.3135
13.3245
13.3179
13.3268
13.3242
13.3196
13.3257
13.3253
13.3225
13.3176
13.3242
13.3253
13.3145
13.3253
13.3239
13.3343
13.3216
13.3264
13.3254
13.2994
13.3214
13.3227
13.3146
13.319
13.3196
13.3239
13.3158
13.3241
13.3154
13.31
13.3206
13.3213
13.3277
13.3177
13.3118
13.3218
13.3289
13.3243
13.3257
13.3231
13.3193
13.3191
13.3291
13.33
13.329
13.3262
13.3278
13.3321
13.3208
13.3296
13.326
13.3233
13.3265
13.3128
13.3259
13.307
13.3248
13.3351
13.3239
13.3233
13.3262
13.3283
13.3332
13.3241
13.3227
13.3252
13.3291
13.3221
13.3232
13.3239
13.3149
13.3231
13.3234
13.3268
13.3308
13.3319
13.3293
13.3148
13.3258
13.328
13.305
13.3218
13.3052
13.3157
13.3161
13.3335
13.3306
13.3299
13.3156
13.3001
13.3224
13.3259
13.3306
13.3163
13.331
13.303
13.327
13.3309
13.3204
13.3301
13.2999
13.3334
13.3292
13.3237
13.3336
13.331
13.33
13.3271
13.3275
13.3285
13.3052
13.3341
13.3236
13.301
13.3251
13.3247
13.3287
13.3228
13.3299
13.3273
13.3294
13.3298
13.3332
13.2983
13.3021
13.3323
13.3318
13.3291
13.3185
13.3333
13.3024
13.3031
13.3312
13.3323
13.3361
13.3304
13.3281
13.3034
13.3306
13.3268
13.3005
13.3313
13.332
13.3342
13.3168
13.3205
13.3238
13.3275
13.3232
13.3231
13.3305
13.3308
13.3313
13.3302
13.3207
13.3221
13.3334
13.3182
13.3285
13.3191
13.3317
13.3004
13.3268
13.3308
13.333
13.3353
13.3164
13.3343
13.3336
13.3312
13.3339
13.3339
13.3334
13.3317
13.3166
13.3177
13.3322
13.3345
13.2986
13.3338
13.3178
13.3246
13.292
13.3338
13.3337
13.2983
13.3331
13.3318
13.3335
13.2981
13.3243
13.3329
13.3344
13.3346
13.3221
13.3001
13.3331
13.3348
13.3323
13.3302
13.334
13.3333
13.3244
13.332
13.3303
13.3334
13.3317
13.332
13.3336
13.3327
13.3212
13.3292
13.2974
13.3341
13.3339
13.3327
13.2953
13.3309
13.3256
13.3331
13.329
13.3237
13.3348
13.3327
13.3325
13.3342
13.3263
13.3327
13.331
13.326
13.3341
13.3328
13.3354
13.2961
13.3331
13.3299
13.3344
13.3285
13.3325
13.3335
13.3332
13.3337
13.3313
13.3299
13.3253
13.3258
13.3314
13.3277
13.3205
13.2961
13.334
13.3311
13.2967
13.3301
13.3331
13.3233
13.3328
13.3291
13.3327
13.3338
13.3342
13.3284
13.3364
13.3299
13.3346
13.3211
13.3308
13.3207
13.3334
13.3275
13.3322
13.3287
13.3283
13.3336
13.3348
13.3335
13.3308
13.3344
13.3325
13.3264
13.3336
13.2947
13.2946
13.3304
13.334
13.3331
13.3335
13.2947
13.3326
13.3275
13.3313
13.3342
13.3322
13.3218
13.3333
13.3326
13.3303
13.3263
13.3334
13.3319
13.3329
13.3327
13.3323
13.3337
13.3342
13.3283
13.3303
13.3309
13.3188
13.3349
13.3324
13.293
13.3337
13.3319
13.3231
13.3335
13.3306
13.333
13.3317
13.3338
13.334
13.332
13.3298
13.3329
13.3032
13.336
13.3322
13.3252
13.3318
13.3335
13.3327
13.3242
13.3333
13.3321
13.2958
13.3326
13.3323
13.3261
13.2956
13.3343
13.3016
13.3329
13.3299
13.3315
13.3323
13.3341
13.3341
13.3327
13.331
13.3332
13.3332
13.3323
13.334
13.2921
13.3293
13.3336
13.3326
13.3331
13.3322
13.332
13.3303
13.3335
13.3344
13.3313
13.3271
13.3329
13.2909
13.3326
13.3334
13.3314
13.3328
13.3331
13.327
13.332
13.3323
13.3325
13.3288
13.3309
13.3324
13.3324
13.3301
13.3329
13.3321
13.3331
13.3334
13.3301
13.3319
13.3292
13.3295
13.3281
13.3304
13.3006
13.3319
13.3313
13.328
13.3332
13.3318
13.3322
13.3314
13.3281
13.3025
13.3375
13.2934
13.3288
13.3334
13.3343
13.33
13.3334
13.3321
13.3347
13.3312
13.298
13.3328
13.3265
13.3278
13.3335
13.3354
13.331
13.3302
13.3331
13.3211
13.3342
13.3318
13.3312
13.2939
13.3264
13.3304
13.3305
13.3325
13.3171
13.3138
13.3368
13.3332
13.3325
13.3016
13.3325
13.3313
13.3297
13.3336
13.3301
13.3278
13.3306
13.332
13.3332
13.3293
13.3329
13.3315
13.2998
13.2968
13.333
13.3294
13.3043
13.3325
13.3288
13.3226
13.3042
13.3278
13.331
13.3126
13.336
13.3331
13.3186
13.3313
13.3311
13.3325
13.3321
13.322
13.3341
13.3122
13.3315
13.332
13.3345
13.3262
13.3324
13.3279
13.3273
13.3342
13.3131
13.3245
13.331
13.33
13.3224
13.3327
13.3262
13.3344
13.3329
13.3267
13.3331
13.3315
13.3257
13.3243
13.3244
13.3206
13.3146
13.3248
13.3259
13.3332
13.314
13.316
13.3321
13.3319
13.3365
13.3179
13.3333
13.3239
13.3338
13.3262
13.3288
13.3139
13.3309
13.3337
13.3115
13.3169
13.3322
13.3292
13.3341
13.3319
13.334
13.3146
13.3104
13.3121
13.3331
13.3318
13.3218
13.3329
13.3325
13.3333
13.3325
13.3311
13.3344
13.3363
13.3091
13.3069
13.331
13.3326
13.3223
13.3085
13.3092
13.3239
13.3335
13.3335
13.3335
13.3315
13.3051
13.3274
13.324
13.3321
13.3338
13.3009
13.3328
13.3332
13.3339
13.3331
13.315
13.3314
13.308
13.3176
13.2847
13.3336
13.3336
13.2959
13.324
13.3158
13.3264
13.3013
13.3009
13.3119
13.3259
13.3331
13.3341
13.3339
13.3212
13.3237
13.3105
13.3264
13.2972
13.3277
13.29
13.3082
13.3372
13.3236
13.3031
13.2916
13.3217
13.2993
13.2938
13.2933
13.3164
13.3154
13.3335
13.3339
13.3339
13.3337
13.3126
13.3365
13.3351
13.3255
13.312
13.3054
13.3372
13.3338
13.3225
13.3344
13.3347
13.3074
13.3345
13.3197
13.3044
13.2912
13.3248
13.3016
13.3238
13.3098
13.3342
13.3348
13.2935
13.3344
13.3337
13.3332
13.2894
13.3262
13.2977
13.3038
13.3329
13.3239
13.3129
13.305
13.2994
13.3247
13.3328
13.289
13.3019
13.2938
13.3002
13.2905
13.3203
13.3253
13.3178
13.3327
13.3207
13.3244
13.2894
13.3262
13.3264
13.2941
13.337
13.3215
13.3371
13.327
13.3293
13.3253
13.2996
13.2901
13.3274
13.3344
13.3351
13.3242
13.3041
13.2949
13.2999
13.329
13.3174
13.3152
13.3302
13.3159
13.3267
13.3167
13.3354
13.3147
13.3138
13.2999
13.332
13.3253
13.3343
13.3337
13.3336
13.3246
13.3345
13.3178
13.3313
13.3313
13.3363
13.3341
13.326
13.2967
13.3237
13.3281
13.3171
13.3269
13.324
13.3189
13.3267
13.3144
13.3243
13.3063
13.3285
13.3276
13.3227
13.3232
13.3193
13.336
13.3314
13.3147
13.3362
13.302
13.3106
13.333
13.3319
13.3246
13.3345
13.3349
13.3312
13.3247
13.3333
13.3341
13.3351
13.3338
13.3247
13.3315
13.3243
13.3326
13.3321
13.3245
13.3342
13.3351
13.3316
13.3246
13.3248
13.3334
13.3336
13.3292
13.3083
13.3347
13.3321
13.3328
13.3295
13.3293
13.3372
13.3238
13.336
13.3374
13.3051
13.3338
13.3252
13.3248
13.3204
13.3359
13.3324
13.327
13.3275
13.3324
13.326
13.3327
13.321
13.3373
13.3379
13.3244
13.3346
13.3313
13.315
13.325
13.3246
13.3379
13.3362
13.3022
13.3345
13.3328
13.3133
13.331
13.3369
13.3225
13.3316
13.3168
13.3321
13.3252
13.3324
13.3245
13.3139
13.3312
13.3364
13.3246
13.3234
13.297
13.3305
13.3373
13.3342
13.3304
13.3325
13.3347
13.3001
13.325
13.3325
13.333
13.3367
13.3285
13.3345
13.3324
13.3322
13.334
13.3362
13.3242
13.3257
13.3259
13.3325
13.3323
13.323
13.3267
13.3266
13.3282
13.3145
13.3142
13.3247
13.3324
13.3324
13.3325
13.3283
13.3129
13.3219
13.3374
13.3346
13.3304
13.3359
13.3313
13.3314
13.3366
13.3146
13.3337
13.3303
13.3337
13.3333
13.328
13.3301
13.3349
13.3369
13.3351
13.3286
13.3316
13.32
13.3323
13.3255
13.3374
13.3346
13.3289
13.3374
13.3279
13.3286
13.3375
13.3321
13.3255
13.3203
13.3316
13.3349
13.3377
13.3181
13.3353
13.3231
13.3328
13.3148
13.3282
13.3323
13.3279
13.3357
13.3335
13.3302
13.334
13.3311
13.3344
13.3351
13.3351
13.3346
13.335
13.3349
13.3274
13.3289
13.3204
13.3264
13.3329
13.3253
13.3273
13.3267
13.3201
13.3164
13.3253
13.3351
13.3026
13.3363
13.3331
13.3293
13.3251
13.3273
13.3326
13.3346
13.3372
13.3278
13.3258
13.3324
13.3364
13.3191
13.3242
13.3321
13.3231
13.3282
13.3159
13.3326
13.3322
13.3183
13.3111
13.3265
13.3354
13.3167
13.335
13.3329
13.3306
13.3336
13.3347
13.3348
13.3248
13.3361
13.3325
13.3345
13.3299
13.3327
13.3336
13.3323
13.3323
13.3106
13.323
13.335
13.3329
13.3282
13.3372
13.3338
13.324
13.3175
13.3277
13.3326
13.3142
13.3267
13.3244
13.3307
13.3362
13.2976
13.3332
13.3247
13.3344
13.3218
13.3335
13.3161
13.3318
13.3295
13.3133
13.3295
13.3071
13.3276
13.3326
13.3369
13.3177
13.3317
13.3342
13.3273
13.3241
13.3231
13.3366
13.3274
13.3111
13.3246
13.3278
13.3317
13.3239
13.3156
13.3234
13.3348
13.3145
13.3344
13.3367
13.3362
13.3271
13.3318
13.3345
13.3361
13.3241
13.3306
13.3249
13.3166
13.3301
13.3372
13.3219
13.3325
13.3345
13.2903
13.3306
13.3271
13.3344
13.3354
13.3352
13.3304
13.3347
13.3374
13.3333
13.327
13.3265
13.3282
13.3348
13.3216
13.3248
13.3315
13.3256
13.337
13.3246
13.3212
13.3368
13.3256
13.3218
13.3328
13.3333
13.3257
13.3337
13.3362
13.331
13.3159
13.3369
13.3343
13.3366
13.3336
13.3156
)
;

boundaryField
{
    back
    {
        type            empty;
    }
    front
    {
        type            empty;
    }
    top
    {
        type            zeroGradient;
    }
    outer_arc
    {
        type            zeroGradient;
    }
    bottom
    {
        type            uniformFixedValue;
        uniformValue    
        {
            type            table;
            format          csv;
            file            "outlet_p.csv";
            nHeaderLine     1;
            refColumn       0;
            componentColumns List<label> 1(1);
            separator       ",";
            mergeSeparators 0;
        }
        value           uniform 13.3132;
    }
    inner_arc
    {
        type            zeroGradient;
    }
}


// ************************************************************************* //
