/*--------------------------------*- C++ -*----------------------------------*\
  =========                 |
  \\      /  F ield         | OpenFOAM: The Open Source CFD Toolbox
   \\    /   O peration     | Website:  https://openfoam.org
    \\  /    A nd           | Version:  9
     \\/     M anipulation  |
\*---------------------------------------------------------------------------*/
FoamFile
{
    format      ascii;
    class       volVectorField;
    location    "0.32";
    object      U;
}
// * * * * * * * * * * * * * * * * * * * * * * * * * * * * * * * * * * * * * //

dimensions      [0 1 -1 0 0 0 0];

internalField   nonuniform List<vector> 
1655
(
(0.0706926 -0.0482494 -4.94768e-18)
(-0.00991449 0.0221131 3.27285e-17)
(0.0362241 0.0352133 2.67635e-17)
(0.0467141 -0.0104232 -1.58853e-17)
(0.0981045 0.130665 0)
(0.121244 0.0862209 9.96377e-18)
(-0.0143908 0.0290294 0)
(0.0388795 0.156517 -1.78843e-17)
(0.0754147 0.22394 0)
(0.0973621 0.123944 -8.67584e-18)
(0.105294 -0.0536666 3.95226e-17)
(0.106816 -0.058427 -3.89341e-17)
(0.0274607 0.0913088 1.02517e-21)
(0.0289806 -0.0674681 -2.04464e-17)
(-0.00665608 -0.0532555 2.06357e-17)
(-0.056091 0.0437946 0)
(-0.180313 0.100854 3.49923e-17)
(0.129593 0.172799 1.06136e-17)
(0.138311 0.057867 -3.96729e-17)
(0.0220441 -0.0304692 -1.13592e-17)
(-0.0431932 -0.0486848 4.62875e-18)
(0.0714488 0.24043 0)
(0.0746428 0.152135 -2.1491e-17)
(0.0679254 0.141751 9.97951e-18)
(0.0828276 -0.0574433 -6.21753e-18)
(-0.203664 0.121233 -4.13498e-17)
(-0.0761126 0.0837481 -1.82777e-17)
(0.0562311 0.229344 -2.14558e-17)
(0.0508729 0.226026 2.89234e-17)
(-0.0428127 -0.0661763 -2.0454e-17)
(-0.0887658 0.0179452 5.15574e-17)
(0.108558 0.0426915 -5.50106e-18)
(0.0210801 -0.190147 -7.45325e-18)
(0.0369808 0.0484965 0)
(0.128536 0.1616 0)
(0.029757 0.0466958 0)
(0.132054 0.0960003 -2.67009e-17)
(-0.00486726 0.00061292 0)
(0.0210906 -0.180104 -1.01882e-17)
(-0.00292922 0.00478286 -3.53256e-17)
(-0.0580695 0.0133486 1.9824e-17)
(0.0794232 0.145385 1.73582e-17)
(0.021944 -0.163897 -1.06766e-17)
(0.141953 0.0447484 3.14116e-17)
(0.016429 -0.0492986 0)
(0.0765477 -0.0199173 0)
(0.0742016 -0.00984732 4.94071e-17)
(0.00666939 -0.00496376 0)
(0.116108 0.111037 1.92898e-17)
(0.0287769 -0.158877 2.59833e-18)
(0.138689 0.0939019 2.96311e-17)
(0.0787028 0.0337098 -1.98232e-17)
(-0.040879 -0.170075 -2.19096e-17)
(0.0725669 0.218863 1.91988e-17)
(0.107663 0.193365 -2.47134e-17)
(0.0189832 0.00983007 0)
(-0.0937668 0.121668 -9.55614e-18)
(0.0838672 -0.0408003 0)
(0.126597 -0.0405071 0)
(-0.0335329 -0.0687031 2.11166e-17)
(-0.126645 0.0223704 -5.14821e-17)
(0.13153 0.0692947 0)
(0.0818072 -0.0598124 0)
(0.0528944 0.188881 -4.93666e-18)
(0.166786 0.0313096 0)
(-0.0168208 0.0275183 0)
(0.156197 -0.000747346 4.58357e-17)
(0.104482 -0.0455131 -2.27189e-17)
(0.128045 0.142689 0)
(0.0701659 0.133849 -1.98552e-17)
(0.080861 -0.0379131 2.52512e-17)
(0.00555313 0.0241739 -1.21823e-18)
(-0.0406588 -0.111113 -1.26909e-18)
(0.0427293 -0.0367435 1.89643e-17)
(-0.0872421 0.00980115 -2.38861e-17)
(0.0155715 -0.0412228 1.11864e-17)
(0.0451665 0.20513 -6.56685e-18)
(0.119731 0.121329 0)
(-0.0664279 0.0631841 0)
(-0.0450732 -0.0607556 0)
(0.162042 0.0259263 2.51519e-17)
(0.00409269 -0.0180668 -1.13754e-17)
(0.110587 0.19751 2.52581e-17)
(0.158732 0.0466508 1.26377e-17)
(-0.0420773 -0.128439 0)
(0.069291 0.0653135 0)
(-0.0730699 0.00878617 -1.44629e-17)
(-0.0451215 -0.076571 0)
(0.0453005 -0.0572652 -9.89947e-18)
(0.058099 0.0619455 0)
(0.0705767 0.0873138 0)
(0.0155008 0.0352188 1.25918e-17)
(0.157735 0.0623911 2.42333e-17)
(0.110143 0.100559 0)
(-0.008271 0.0506201 0)
(0.152026 0.0666951 4.03478e-17)
(0.137601 0.00221055 -3.88846e-17)
(0.106482 -0.0373928 0)
(0.0971601 0.0473019 -1.17673e-17)
(-0.000669984 -0.211966 2.45384e-17)
(-0.00665628 0.0367626 -7.93459e-17)
(0.134677 0.0146696 -2.56317e-17)
(0.112908 0.113216 -2.5175e-17)
(0.153735 0.0161006 2.69007e-17)
(0.125747 0.194206 0)
(0.143447 0.0784652 -1.55052e-18)
(0.0699051 0.183679 -2.18061e-17)
(-0.0384773 -0.0386328 0)
(-0.0036659 -0.205422 0)
(0.0244941 0.0240043 -2.23844e-17)
(0.00276672 -0.211605 1.71694e-17)
(0.0800577 -0.0457087 2.01447e-17)
(0.0179729 0.0369936 1.3553e-17)
(-0.0383359 -0.151295 2.26237e-17)
(0.0747324 0.17043 2.07151e-17)
(0.0784799 0.0880449 -1.30808e-17)
(0.0704322 0.179398 -2.21606e-17)
(0.121109 -0.0338119 0)
(0.0501548 -0.0611057 1.96124e-17)
(0.123113 0.191748 -4.37997e-17)
(0.00904485 0.00947709 -3.82841e-17)
(-0.0682959 0.00235918 3.88586e-17)
(-0.101325 0.0123009 -3.06296e-17)
(0.193239 -0.0139059 2.84315e-17)
(0.157541 0.00913598 9.97708e-18)
(0.0648476 0.172676 0)
(0.0284602 -0.139636 -2.45581e-17)
(0.00730874 -0.0140569 2.23423e-17)
(-0.0728978 0.0687553 -3.08309e-18)
(-0.0225196 -0.164673 -2.93708e-18)
(0.130566 0.107543 5.69441e-18)
(0.00412651 -0.213488 3.02871e-17)
(0.060686 0.191969 1.91142e-17)
(0.066022 0.164822 2.00844e-17)
(-0.0189871 0.0218119 0)
(0.0364112 -0.0551138 0)
(0.0912928 0.138076 -1.16793e-17)
(-0.0281244 -0.132664 1.98783e-17)
(-0.0567991 0.0855036 1.04536e-17)
(0.147466 -0.00606606 -1.03828e-17)
(-0.0347767 -0.0827253 1.3781e-17)
(-0.116138 0.144979 1.86548e-17)
(-0.129755 0.135785 0)
(-0.123065 -0.044093 0)
(-0.222094 0.100234 -1.15857e-17)
(-0.149987 -0.0366632 0)
(-0.0959588 -0.0418666 -4.08294e-17)
(-0.0435332 -0.0483821 3.29258e-17)
(-0.0707137 -0.0441482 2.12332e-17)
(-0.224925 0.049752 0)
(-0.217396 0.0204663 1.99545e-17)
(-0.235111 0.0809973 -1.07258e-17)
(-0.172196 -0.0232446 2.0917e-17)
(-0.20072 -0.00503837 1.82279e-17)
(0.0721844 0.0680382 0)
(0.0268804 -0.127352 3.9574e-17)
(0.146596 0.0311096 2.55733e-18)
(-0.0153248 0.0122462 1.09301e-17)
(0.0743681 0.174495 0)
(0.148366 0.0231529 -2.72936e-17)
(-0.0200215 0.00856128 3.11298e-17)
(0.118073 -0.122539 0)
(0.079166 0.211398 -4.71569e-22)
(-0.0155359 0.0228937 0)
(-0.0568712 -0.012088 0)
(0.115229 -0.0437742 -1.05184e-17)
(0.0642666 0.217969 0)
(0.0723339 0.17002 -4.17374e-17)
(0.134139 0.011679 6.31132e-18)
(0.107015 0.0808115 0)
(-0.0932155 0.086 0)
(0.100316 0.188708 0)
(-0.0162881 -0.0052809 1.28315e-17)
(0.0752073 0.190938 2.20425e-17)
(-0.0480675 -0.101831 1.32617e-18)
(0.074444 0.185456 2.19556e-17)
(0.126786 0.109478 5.71616e-18)
(0.0888806 0.0449939 0)
(-0.0202131 -0.18702 -2.34413e-17)
(0.0211936 -0.0454071 1.85941e-17)
(0.0354001 0.028281 2.74519e-17)
(0.103775 0.184445 1.71145e-17)
(0.125726 0.0785238 -3.62351e-17)
(0.174031 -0.014073 -6.21796e-18)
(0.0152195 -0.0462571 -1.19568e-17)
(-0.00117389 -0.210421 0)
(0.0173816 -0.0365508 0)
(-0.011745 -0.200881 0)
(0.122108 0.178798 0)
(0.101648 0.180268 -1.6631e-17)
(0.0195524 -0.0451495 -2.14941e-17)
(0.149716 0.0752441 0)
(0.115095 0.175411 -2.22258e-17)
(0.0946236 0.0295441 2.78888e-17)
(0.0210837 -0.229461 0)
(-0.0320961 0.0105011 -1.34573e-17)
(0.117626 0.178508 0)
(0.00852473 -0.221509 0)
(0.0177146 -0.0221234 2.57836e-17)
(0.104799 0.176715 0)
(0.151355 -0.0202514 1.41967e-17)
(0.132684 -0.0172757 -6.37909e-18)
(-0.0636698 0.0263873 2.34513e-17)
(-0.0795003 0.009784 5.22202e-17)
(0.0918334 0.117226 -1.98503e-17)
(-0.0249016 -0.0681924 1.56587e-17)
(0.0364663 -0.203138 0)
(0.117134 0.172387 0)
(-0.0213994 -0.179411 6.95649e-17)
(-0.00363151 0.0358328 0)
(0.194376 0.029678 3.72645e-17)
(0.140999 0.0243312 -1.03014e-17)
(0.0263842 -0.0451561 0)
(0.0671946 0.175153 2.18245e-17)
(0.0335008 -0.0655155 -2.20478e-18)
(0.162089 -0.00959522 4.83457e-17)
(0.00983591 0.0371794 -1.22451e-17)
(0.089393 -0.0965067 0)
(0.192201 0.0105897 2.11885e-17)
(0.102972 0.172999 0)
(0.00714097 -0.0147546 0)
(-0.0346416 -0.0900069 -4.51808e-17)
(0.0279844 -0.191726 3.15205e-17)
(0.0982732 0.168244 2.22313e-17)
(0.0300585 -0.202342 -2.27221e-17)
(0.0437401 -0.242872 2.18283e-17)
(0.0475609 -0.241613 -2.17488e-17)
(0.0883514 0.109401 0)
(0.192147 -0.00976355 2.68713e-17)
(0.207214 -0.0228187 2.15272e-17)
(0.0610923 -0.184296 0)
(0.198649 -0.0549986 -2.68825e-17)
(0.214666 -0.0713282 2.6846e-17)
(0.118189 0.132234 -4.28789e-17)
(0.0378957 -0.213163 -2.24339e-17)
(0.0600884 -0.193057 2.19829e-17)
(0.030798 -0.236726 0)
(0.114711 0.16974 0)
(0.037602 -0.233514 2.7118e-17)
(0.20886 -0.108192 2.14642e-17)
(0.0388683 0.024969 -2.09869e-17)
(0.00391664 -0.0163284 3.94581e-17)
(0.221553 -0.125525 -2.68097e-17)
(-0.0405845 0.0543824 1.87607e-17)
(0.101497 0.165772 5.56294e-18)
(-0.0494898 -0.016769 -2.78583e-17)
(-0.113832 0.0433895 1.66645e-17)
(0.07727 0.204587 0)
(0.0229381 -0.225889 -5.43665e-18)
(0.0994539 0.172105 0)
(0.158134 0.0531055 -1.79338e-17)
(-0.0407145 -0.0122155 4.47365e-18)
(0.119246 0.152938 -2.18471e-17)
(0.161176 0.0336985 -1.56129e-17)
(0.0442708 -0.21453 2.20655e-17)
(0.206107 0.0192596 -2.65929e-17)
(0.00172116 -0.216848 -2.26293e-17)
(0.100682 0.162326 -5.54066e-18)
(0.0641399 -0.0208373 2.98697e-17)
(0.034607 -0.18133 2.08173e-17)
(0.14108 -0.16651 1.62308e-17)
(-0.0231929 -0.178014 2.2426e-17)
(0.0617564 -0.246845 2.16701e-17)
(0.157492 0.0161427 2.14486e-17)
(0.116354 0.151879 2.19035e-17)
(0.0792731 0.162343 2.21071e-17)
(0.0391794 -0.180612 0)
(0.0288449 -0.100971 -3.07425e-17)
(0.025589 -0.208649 1.18635e-17)
(0.0363752 -0.111238 0)
(-0.0262577 -0.142097 -2.35261e-17)
(0.121186 0.150563 1.68288e-17)
(0.00700262 -0.0265141 1.15508e-17)
(-0.0118124 -0.188116 0)
(0.109121 0.107509 -7.4969e-22)
(0.118614 0.152357 -1.69565e-17)
(-0.115477 0.0401148 0)
(0.103785 0.160407 2.77006e-17)
(0.118207 0.184976 -2.78994e-17)
(0.17655 -0.210538 5.31132e-18)
(0.111257 0.180925 2.26904e-17)
(0.0834969 0.1558 5.54637e-18)
(0.115047 0.138471 2.2493e-17)
(-0.0339131 -0.1416 1.98343e-17)
(0.0247728 -0.0410745 -3.76764e-17)
(0.119213 0.163778 -2.25288e-17)
(0.11126 0.174245 2.23735e-17)
(0.0117393 -0.212963 1.97088e-17)
(0.041341 -0.193583 0)
(0.124368 0.164781 0)
(0.119609 0.170618 2.2027e-17)
(-0.0504335 0.0244131 2.14241e-17)
(0.0394271 -0.146906 4.5976e-17)
(0.0953921 0.187868 0)
(0.111482 0.168807 -2.23406e-17)
(0.0431465 -0.236038 5.51863e-18)
(0.0224939 0.0946198 0)
(0.205848 -0.0011432 -3.74974e-17)
(-0.0337452 0.0628181 -2.17401e-17)
(-0.0151698 -0.198498 -5.45584e-17)
(0.0177227 -0.223539 -2.2927e-17)
(0.0636283 0.0594161 0)
(0.0310228 0.0240566 3.40949e-17)
(0.0558266 -0.243817 -5.48242e-18)
(0.0675494 -0.244212 -4.33247e-17)
(0.115476 0.181714 -2.37964e-17)
(0.0261675 -0.231964 -5.55661e-18)
(0.0121469 -0.21355 5.43379e-18)
(0.112035 0.164502 -5.56109e-18)
(0.0824829 -0.248327 -2.15905e-17)
(0.115331 0.155897 0)
(-0.139322 0.0760799 1.1756e-17)
(-0.00170914 -0.204182 -5.47016e-18)
(0.158889 -0.1841 -5.40802e-18)
(0.0789586 0.166488 0)
(0.109792 0.16609 0)
(-0.0600477 0.091919 -2.16607e-17)
(0.108444 0.184732 -2.23363e-17)
(0.0899239 -0.24443 6.29163e-22)
(0.00922794 -0.222368 2.39736e-17)
(0.108614 0.177363 0)
(0.0391426 -0.125813 -2.31838e-17)
(0.0180413 -0.218981 3.03097e-18)
(0.0520961 -0.238532 -5.50361e-18)
(0.0258641 -0.228176 -2.2328e-17)
(0.0632681 -0.0208708 3.15778e-17)
(0.0201438 -0.0104532 1.08248e-17)
(0.0832089 0.159786 -2.79375e-17)
(-0.00071862 -0.215475 0)
(0.128063 0.152887 -2.17913e-17)
(0.0484498 -0.204821 0)
(0.109078 0.171114 2.23144e-17)
(0.00214411 0.0316467 9.93213e-18)
(0.0142119 -0.205746 -2.18952e-17)
(0.114153 0.165043 2.22606e-17)
(0.0416322 -0.228547 -1.63113e-17)
(0.124931 0.153256 1.63757e-17)
(0.042257 -0.164159 -2.298e-17)
(0.0701007 -0.251006 0)
(0.11618 0.166709 0)
(0.0116256 -0.221063 2.36544e-17)
(0.0709573 -0.24933 2.17825e-17)
(0.106383 0.11828 0)
(0.194457 -0.0314705 -2.68053e-17)
(-0.0368338 -0.106035 0)
(0.0654542 -0.24524 -3.82594e-17)
(0.0342294 -0.103854 0)
(0.0358951 -0.237232 5.53321e-18)
(0.0179712 -0.228716 0)
(-0.012101 -0.176666 0)
(0.025114 0.067736 0)
(0.107099 0.135295 2.17133e-17)
(0.210456 -0.0460225 0)
(0.0330872 -0.22638 2.22635e-17)
(0.0933094 0.197421 0)
(0.105017 -0.247234 0)
(0.0645267 -0.250306 0)
(0.0827 -0.253227 -4.35548e-22)
(0.108897 0.160431 -2.21384e-17)
(0.0877502 -0.227874 2.70756e-17)
(-0.0385874 -0.0996941 -1.90396e-17)
(0.0455199 -0.192667 0)
(0.0886468 0.202097 -5.95386e-18)
(0.192297 -0.220518 2.13243e-17)
(-0.0155373 0.0503089 2.27004e-17)
(0.0130914 -0.00553039 -1.94483e-17)
(-0.00866175 -0.205594 5.73476e-18)
(0.0234956 0.0610527 -2.19539e-17)
(0.105854 0.170093 0)
(0.0777943 -0.225117 0)
(-0.0224901 0.0387902 0)
(0.0321426 -0.218958 2.22963e-17)
(-0.0170418 0.0452671 0)
(0.102701 -0.253346 0)
(0.0265247 0.0549772 0)
(0.110918 0.162238 5.53817e-18)
(0.139883 0.1449 1.63172e-17)
(0.0672935 0.180968 -8.87775e-22)
(0.0684867 -0.197616 5.44783e-18)
(0.052458 -0.246751 -2.18469e-17)
(0.0549164 -0.15827 -5.60875e-18)
(0.19506 -0.211772 0)
(0.0765007 0.161505 -2.29375e-17)
(0.181343 -0.225708 -2.66211e-17)
(0.0377425 -0.240262 -5.49434e-18)
(0.0912929 0.191856 0)
(0.111533 -0.251632 0)
(0.106162 0.161843 -1.57443e-21)
(0.112565 0.142101 0)
(0.0578052 -0.235488 -5.42249e-18)
(-0.0636476 0.0415122 2.064e-17)
(0.111665 0.140743 -2.17543e-17)
(0.134851 0.144382 -2.17724e-17)
(0.0937487 0.182908 0)
(0.0808978 -0.249329 0)
(0.123563 -0.250648 -2.14472e-17)
(0.113761 -0.242374 2.1488e-17)
(0.116651 0.163117 0)
(0.0826576 0.200029 0)
(0.133769 0.1152 0)
(0.0900556 -0.252705 -2.15872e-17)
(0.042482 -0.13551 4.58183e-17)
(0.205295 -0.205934 5.32094e-18)
(0.0871998 0.153796 -2.76844e-17)
(0.132214 0.149092 -5.43531e-18)
(0.0466636 -0.223794 -2.21134e-17)
(0.0974577 0.179429 2.23894e-17)
(0.109399 0.133766 -2.72796e-17)
(-0.0326966 0.0286515 0)
(0.140734 0.148053 0)
(0.0323588 0.0432207 0)
(0.220121 -0.197956 5.31697e-18)
(0.175163 -0.23238 5.3467e-18)
(0.135743 0.150572 0)
(0.053446 -0.224098 0)
(0.231576 -0.183974 -2.12646e-17)
(0.096017 0.175076 0)
(0.20404 -0.0807685 0)
(0.164018 -0.236804 -1.60638e-17)
(0.133591 -0.247937 2.14257e-17)
(0.13475 0.109937 2.17591e-17)
(0.210289 -0.205651 -5.31581e-18)
(0.0713054 0.0718749 5.50142e-18)
(0.128463 -0.243766 0)
(0.144776 -0.242896 2.14354e-17)
(-0.0651155 0.0339989 -1.3875e-17)
(0.218853 -0.0981832 0)
(0.0881872 -0.252168 1.6261e-17)
(0.0305065 -0.215065 2.18431e-17)
(0.209565 0.102533 2.6928e-17)
(0.0290806 -0.236651 0)
(0.123207 0.0990994 -7.20498e-21)
(0.144376 -0.245129 0)
(0.0985321 0.115827 -7.13913e-18)
(0.222179 -0.193067 1.5954e-17)
(0.225936 -0.171728 -1.59833e-17)
(0.0816277 -0.218383 2.17572e-17)
(0.0859035 0.10593 9.39309e-18)
(0.0301836 0.0371857 0)
(0.23545 -0.178491 0)
(-0.0898013 0.109001 1.88211e-17)
(0.181116 -0.21541 0)
(0.116478 0.139534 2.72477e-17)
(0.138218 -0.238181 0)
(0.174155 -0.229682 0)
(0.229796 -0.181798 -2.66045e-17)
(0.18559 0.120615 2.15811e-17)
(0.132003 0.15104 0)
(0.191141 0.113994 -6.80437e-21)
(0.119873 0.149859 2.17375e-17)
(0.206287 0.098197 -5.39217e-18)
(0.271694 -0.0853971 -2.13699e-17)
(0.205667 0.0832478 -5.37589e-18)
(0.194101 -0.218918 5.31962e-18)
(0.212592 0.0896256 -4.306e-17)
(0.20352 -0.205331 2.66037e-17)
(0.143509 0.117673 0)
(0.162368 -0.231722 0)
(0.203377 0.110029 0)
(0.0996167 0.091153 0)
(0.182928 -0.19349 -5.33218e-18)
(0.191551 -0.206756 -5.32723e-18)
(0.18705 -0.206854 5.32882e-18)
(0.262122 -0.0814434 -2.14054e-17)
(0.132255 0.108406 -2.17783e-17)
(0.0737723 0.166269 4.41066e-17)
(0.184988 -0.222901 -5.32571e-18)
(0.151876 -0.237974 0)
(0.209659 -0.186145 5.36814e-18)
(0.192259 -0.189134 0)
(0.183439 -0.173584 -2.13847e-17)
(0.068829 -0.187374 1.63065e-17)
(0.204698 -0.211671 5.32154e-18)
(0.125812 0.148102 5.43539e-18)
(0.275016 -0.0658318 2.13962e-17)
(0.191084 -0.168719 -5.34332e-18)
(0.176987 -0.151236 -3.74712e-17)
(0.22274 -0.151483 -1.60121e-17)
(0.222011 -0.152028 1.60888e-17)
(0.0988643 0.0782364 -1.04347e-17)
(0.105127 -0.232888 -2.70118e-17)
(0.145175 0.147251 0)
(0.219535 -0.176188 -5.32144e-18)
(0.184534 0.0849036 5.39494e-18)
(0.201582 -0.154709 -5.34151e-18)
(0.213801 -0.196459 -1.59569e-17)
(0.125503 0.0933467 -2.15705e-17)
(0.135236 0.0802525 0)
(0.134236 0.146033 0)
(0.115768 -0.241253 -5.40026e-18)
(0.278 -0.0547812 -4.82004e-17)
(0.16168 0.115053 -2.16176e-17)
(0.230735 -0.175231 5.3178e-18)
(0.236821 0.0464514 -5.37918e-18)
(0.232991 -0.0808364 -2.14534e-17)
(0.213512 -0.169253 5.33334e-18)
(0.000263214 0.0107972 -3.0933e-19)
(0.103089 0.0739428 0)
(0.232343 -0.163438 1.59787e-17)
(0.241557 0.0546217 2.68791e-17)
(0.234105 -0.0449982 0)
(0.182329 -0.145913 2.14095e-17)
(0.0718857 0.0680954 1.09948e-17)
(0.260861 -0.0552941 2.68033e-17)
(0.0211231 -0.0071075 0)
(0.23199 -0.0591119 1.61068e-17)
(0.169809 0.075513 -2.16315e-17)
(0.243839 -0.0522806 -5.37608e-18)
(0.251764 -0.08835 3.32716e-21)
(0.154994 0.0915183 -1.62362e-17)
(0.111597 0.12528 1.645e-17)
(0.226213 -0.0723267 -2.68254e-17)
(0.18962 0.0876245 -5.40383e-18)
(0.206167 -0.147497 -5.34373e-18)
(0.141256 0.0740061 0)
(0.239214 0.0370464 2.15074e-17)
(0.257987 -0.0723439 0)
(0.255909 -0.120252 1.6001e-17)
(0.0120503 0.0158526 1.96928e-17)
(0.00382709 0.0182009 0)
(0.24454 -0.0432794 -2.14773e-17)
(0.247529 -0.0930888 0)
(0.164894 -0.160699 4.30049e-17)
(0.2664 -0.0638488 0)
(-0.0115879 0.020062 -2.10342e-17)
(0.244899 -0.142984 2.66376e-17)
(0.207918 -0.0533169 -1.62499e-17)
(0.240213 -0.0671411 -3.51992e-21)
(0.243574 -0.11177 5.34518e-18)
(0.241361 0.00194074 -2.68274e-17)
(0.210588 -0.0413625 2.16934e-17)
(0.165743 0.108237 2.16196e-17)
(-0.0141851 0.0106766 -1.21401e-17)
(0.0328893 0.00289758 2.06273e-17)
(0.0328109 0.0185788 1.37012e-18)
(-0.011875 0.0249718 2.58719e-18)
(0.0355416 0.0387542 6.85969e-22)
(0.00502137 -0.00594934 -4.43368e-17)
(0.0288587 0.000266096 0)
(0.0286006 -0.0116598 -1.91896e-17)
(0.0377061 0.0148269 -3.21971e-17)
(0.0715408 0.0222563 -5.67442e-17)
(0.0351958 0.0167184 -2.18706e-17)
(0.0330775 0.00116809 0)
(-0.0159037 0.0129403 3.18849e-17)
(0.0318905 0.0232562 2.20307e-17)
(-0.00886639 0.00245805 2.37973e-17)
(0.0375365 -5.30945e-07 0)
(0.210571 -0.129514 1.60518e-17)
(0.0360101 0.009585 -3.38994e-17)
(0.00421472 -0.00573611 0)
(0.222024 -0.0924677 -5.36224e-18)
(-0.186793 0.0813011 0)
(0.201486 -0.0642209 -1.6152e-17)
(0.241997 -0.102448 5.34745e-18)
(0.0319713 -0.0022413 0)
(-0.111781 -0.03871 0)
(0.188163 -0.131192 5.35609e-18)
(0.228483 0.0294125 -2.15362e-17)
(0.17828 0.0928088 -5.39785e-18)
(0.276188 -0.0753337 1.60428e-17)
(0.197644 0.0224572 -3.78055e-17)
(0.236152 -0.153485 5.35965e-18)
(0.208067 0.038312 -1.60005e-17)
(0.140418 0.102973 0)
(0.0687546 0.00941082 -7.61449e-21)
(0.271741 -0.0952929 2.67026e-17)
(0.155193 -0.24151 -5.34083e-18)
(0.177438 0.0676079 7.64881e-21)
(0.231726 0.0142146 -1.60179e-17)
(0.153814 -0.137157 -5.42113e-18)
(0.212617 0.0740793 4.30516e-17)
(-0.0976363 -0.042105 1.99125e-17)
(0.185242 0.0772618 4.86456e-17)
(0.231613 0.0342269 -2.67281e-17)
(0.265405 -0.103833 -1.60131e-17)
(0.216686 -0.0838534 2.68197e-17)
(0.115188 0.133319 -4.35715e-17)
(0.0740048 -0.00517242 2.17567e-17)
(0.20387 -0.19519 -2.66301e-17)
(0.192151 -0.0568976 2.15985e-17)
(0.197198 -0.0464369 -3.6431e-21)
(0.138184 0.118672 0)
(0.0947163 0.0162859 3.68606e-17)
(0.213613 0.0297744 1.61761e-17)
(0.198838 -0.0353899 2.19558e-17)
(0.158708 0.0580485 4.26308e-17)
(0.261319 -0.0958334 2.13986e-17)
(0.253127 0.00477256 5.37784e-18)
(0.258766 -0.119683 -1.60261e-17)
(0.189786 -0.124033 -2.14325e-17)
(0.262083 -0.0716195 5.35635e-18)
(0.2617 -0.0477622 0)
(0.260551 -0.0247222 -5.37005e-18)
(0.253922 -0.142187 -5.32931e-18)
(0.0937279 0.0009621 -2.17709e-17)
(0.148189 -0.141037 4.29705e-17)
(-0.067956 -0.0548078 -2.02884e-17)
(0.25884 -0.00272544 -1.61062e-17)
(0.20276 0.0663171 -2.15394e-17)
(0.256454 0.0179729 -1.6089e-17)
(-0.170594 0.0189961 5.39056e-18)
(0.1482 0.0411963 1.56947e-17)
(0.150562 0.0984404 2.16516e-17)
(-0.176817 0.0454359 1.0581e-17)
(-0.179429 0.0643116 0)
(-0.131193 -0.0356709 -1.15664e-17)
(-0.0501738 -0.070997 -3.73191e-17)
(-0.08103 0.10441 4.34904e-17)
(-0.146629 -0.0195151 5.02604e-18)
(0.228534 -0.113735 -2.13901e-17)
(0.203249 -0.0926941 5.36583e-18)
(-0.113742 0.0900609 0)
(-0.163177 -0.00140155 -4.45325e-17)
(-0.0833111 -0.053487 0)
(0.253091 0.0371683 -2.68282e-17)
(0.0845705 -0.0214557 2.17333e-17)
(0.18341 -0.0659465 2.15311e-17)
(0.239773 -0.165199 -2.12735e-17)
(0.138557 0.00786428 2.69339e-17)
(0.100602 -0.0158065 -2.17437e-17)
(0.265271 -0.109135 0)
(0.100391 -0.0436993 -4.3365e-17)
(0.168169 0.0505154 -2.59435e-17)
(0.260823 -0.13169 2.66849e-17)
(0.185987 0.0233278 2.16234e-17)
(0.267465 -0.0854842 -1.60461e-17)
(0.267905 -0.0616345 0)
(0.267072 -0.0382501 5.36864e-18)
(0.250496 -0.00546915 -1.07418e-17)
(0.243366 -0.16919 -5.32022e-18)
(0.261812 0.00941933 1.60998e-17)
(0.265318 -0.0157639 0)
(0.16719 -0.0275116 2.38162e-17)
(0.191563 -0.0736173 -2.69119e-17)
(0.262628 0.00554945 4.82602e-17)
(0.165689 -0.0490254 0)
(0.13836 -0.0542831 1.07731e-17)
(0.207166 -0.101199 0)
(0.264411 -0.113845 5.33556e-18)
(0.156133 -0.0763721 -2.69329e-17)
(0.0704864 0.057827 -1.87489e-17)
(0.221358 -0.189864 1.5964e-17)
(0.156983 -0.0559249 0)
(0.178944 -0.0801799 -2.83721e-17)
(0.134441 0.104672 2.1766e-17)
(0.211271 -0.121286 -5.3519e-18)
(0.174653 -0.0320716 -2.36425e-17)
(0.253376 0.0417887 -2.14689e-17)
(-0.0572713 0.0437219 -5.48736e-18)
(0.258891 0.0253581 0)
(0.162694 -0.12723 0)
(0.263836 -0.128881 -5.33018e-18)
(0.243015 -0.133698 0)
(0.22655 -0.143094 2.66882e-17)
(0.137067 -0.0930729 0)
(0.259468 -0.136973 5.32978e-18)
(0.229711 0.0701392 0)
(0.27425 -0.0863197 1.60314e-17)
(0.144275 -0.0294434 0)
(0.228976 -0.122722 2.13901e-17)
(0.238746 0.0420105 5.36305e-18)
(0.228502 0.0204806 3.76805e-17)
(0.253936 -0.130074 -2.66709e-17)
(0.246247 -0.162196 0)
(0.210838 0.0566203 0)
(0.165994 -0.000368208 2.12069e-17)
(0.172399 -0.0728463 3.32603e-17)
(0.149318 -0.0499004 0)
(0.167379 -0.105577 0)
(0.240087 0.0226561 3.7464e-17)
(0.27435 -0.0196282 2.14428e-17)
(0.179725 0.00481557 -5.49507e-18)
(0.196215 0.117341 0)
(0.197478 0.0154286 2.15984e-17)
(0.234069 -0.008365 1.07645e-17)
(0.219017 0.0966852 -5.38115e-18)
(0.170258 0.0498272 0)
(0.198438 0.0481782 5.36334e-18)
(0.167076 0.00887613 -9.71211e-18)
(0.225884 0.0850098 0)
(0.236411 0.0598204 0)
(0.240969 0.00867082 -1.07501e-17)
(0.253616 -0.152106 5.32347e-18)
(0.251933 0.0245392 -1.07427e-17)
(0.112328 -0.0373562 5.41538e-18)
(0.14648 -0.0614747 1.07434e-17)
(0.0923016 0.116225 1.0202e-17)
(0.248113 0.0545108 0)
(0.253644 0.0433923 1.07274e-17)
(0.250379 0.0349532 -5.18591e-21)
(0.211711 0.0142045 5.39375e-18)
(0.154845 0.0996906 0)
(0.258989 0.0375298 5.3654e-17)
(0.188512 -0.10644 2.68391e-17)
(0.232173 0.0754955 -5.37569e-18)
(0.170129 0.0039307 -1.60977e-17)
(0.231309 0.0529984 0)
(0.166074 -0.0993882 -2.79128e-17)
(0.159913 -0.0830225 3.7976e-17)
(0.25445 -0.147033 -5.32572e-18)
(0.185436 -0.0982291 5.36967e-18)
(0.137795 -0.112319 2.29117e-17)
(0.242351 0.0184421 -3.22703e-17)
(0.18213 0.128103 0)
(0.173612 0.129713 -2.70457e-17)
(0.180835 0.0104711 0)
(0.270315 -0.108307 -2.13467e-17)
(0.240889 0.0694008 4.83454e-17)
(0.184035 0.108262 -6.98352e-21)
(0.127911 -0.0651071 2.16219e-17)
(0.274345 -0.0146617 2.68202e-17)
(0.0522763 -0.022641 0)
(0.268138 -0.118506 -5.33327e-18)
(0.273887 -0.0979242 1.60075e-17)
(0.142107 0.146332 0)
(0.172992 0.0230668 5.699e-18)
(0.207505 0.0862985 2.15757e-17)
(0.241881 -0.161688 -1.59761e-17)
(-0.044276 0.0264378 0)
(0.266054 0.0202474 0)
(0.249516 0.0523381 0)
(0.113893 0.156294 0)
(0.247602 -0.152309 2.13025e-17)
(0.08757 0.149777 2.7618e-17)
(0.143753 -0.0968721 -2.16379e-17)
(0.225271 0.0883447 -5.37933e-18)
(0.188999 0.0570596 -2.16184e-17)
(0.254582 -0.0977059 1.60473e-17)
(0.175385 0.0192696 0)
(-0.00289628 -0.00607598 5.45859e-18)
(0.156394 0.0835861 4.88115e-17)
(0.202736 0.111496 0)
(0.262517 0.0261226 -2.68229e-17)
(0.150677 0.0922291 -5.4262e-18)
(0.191134 0.0723342 -1.62141e-17)
(0.188153 0.12315 0)
(0.22003 -0.00455063 -4.38889e-21)
(0.237225 0.0640281 -4.30138e-17)
(0.189165 0.00236073 -5.49963e-18)
(0.163487 -0.0796204 0)
(0.138481 0.102409 0)
(0.137341 -0.0999383 -1.77938e-17)
(0.135083 -0.106337 3.33143e-21)
(0.246348 0.0591816 -2.14826e-17)
(0.26099 0.0205405 -1.6101e-17)
(0.215032 0.0973805 -2.15467e-17)
(0.164726 -0.121288 0)
(0.170293 0.0132862 2.53107e-17)
(0.224366 0.00396906 1.08777e-17)
(0.208459 0.104089 -5.7551e-21)
(0.175138 0.0141303 -5.50925e-18)
(0.122328 0.119222 0)
(-0.0205413 -0.00826232 -3.79736e-17)
(-0.0176616 0.00519599 -4.4034e-17)
(0.169552 0.0554131 0)
(0.175222 0.0616522 2.1654e-17)
(0.217471 0.0887363 2.15387e-17)
(0.206467 -0.176102 0)
(0.154311 0.0926673 -2.16903e-17)
(0.0772209 -0.051222 -2.16609e-17)
(0.0448682 -0.0281639 2.24033e-17)
(0.180229 0.126809 1.6224e-17)
(0.16898 0.0587797 0)
(0.0688422 0.086192 -2.15344e-17)
(0.203814 0.075887 -2.15765e-17)
(0.209437 0.00635266 5.4945e-18)
(0.118439 -0.0728102 0)
(0.191698 0.115429 0)
(0.189641 0.100707 -1.6182e-17)
(0.0730968 -0.0587242 2.16543e-17)
(0.184248 0.0624863 -5.40658e-18)
(0.171191 0.055541 0)
(0.0648276 0.0814186 0)
(0.277061 -0.0761938 -3.74091e-17)
(0.274086 -0.0114146 -5.36063e-18)
(0.134183 -0.115994 5.76406e-18)
(0.230841 0.0810931 2.68923e-17)
(0.26893 0.00382143 1.60925e-17)
(0.268984 -0.00772813 -3.75462e-17)
(0.20094 0.0919129 -2.69727e-17)
(0.194188 0.106574 -2.15883e-17)
(0.184704 0.119286 2.70157e-17)
(0.201198 0.101784 4.85633e-17)
(0.271078 0.00104675 1.60869e-17)
(0.269331 0.00821758 -1.60798e-17)
(0.158613 0.0798844 -5.51994e-18)
(0.240109 -0.142959 0)
(0.223535 0.0813035 -4.30695e-17)
(0.276956 -0.0323427 -2.14466e-17)
(0.171805 0.046168 -2.16527e-17)
(0.0301777 -0.0319949 2.17475e-17)
(0.236472 0.0720747 -2.14998e-17)
(0.167678 0.12838 0)
(0.15541 0.121385 0)
(0.0410937 -0.229711 0)
(0.276038 -0.0637748 2.14038e-17)
(0.124824 0.138191 0)
(0.152253 0.0875413 -1.627e-17)
(0.180363 0.0486122 0)
(0.151297 0.0889093 0)
(0.139388 0.108238 0)
(0.14947 0.109328 -5.42818e-18)
(0.174143 0.0502076 0)
(0.212815 -0.188795 2.12969e-17)
(0.276007 -0.0413677 -5.35933e-18)
(0.168447 0.125317 0)
(0.133924 0.104546 -2.75087e-17)
(0.0961758 -0.0999097 -2.16647e-17)
(0.146219 0.0954804 0)
(0.277989 -0.0541087 5.3534e-18)
(0.130011 -0.182796 0)
(0.100562 -0.165172 1.62966e-17)
(0.144997 0.100576 0)
(0.106081 0.111432 0)
(0.120024 -0.128485 -2.16447e-17)
(0.156115 0.113596 0)
(0.177432 0.114663 -2.16402e-17)
(0.14941 0.102339 5.42659e-18)
(0.0290525 -0.0434679 0)
(0.260909 -0.0108589 1.61193e-17)
(0.16206 0.103185 5.41845e-18)
(0.0831381 0.0915862 0)
(0.136807 0.100636 -1.47664e-17)
(0.267582 -0.0457326 -2.68347e-17)
(0.10198 -0.0897134 -3.98285e-21)
(0.150865 0.143803 -2.17066e-17)
(0.108184 0.118422 2.17903e-17)
(0.170388 0.117028 -2.16513e-17)
(0.18458 0.0293456 0)
(0.124675 0.132612 -1.63111e-17)
(0.149235 0.122328 0)
(0.243978 -0.0370155 -2.15474e-17)
(0.17774 0.105286 0)
(0.201944 0.0593508 5.40181e-18)
(0.14336 0.140141 5.43434e-18)
(0.182942 0.0918292 0)
(0.168017 0.135776 5.41487e-18)
(0.157335 0.0810066 1.89559e-17)
(0.16252 0.111763 1.62586e-17)
(0.123624 0.172876 0)
(0.212152 0.0375597 -1.61779e-17)
(0.0608524 -0.0789183 0)
(0.148032 0.0922753 0)
(0.153743 0.0844092 -1.95237e-17)
(0.161704 0.12674 0)
(0.0593428 -0.0911064 0)
(0.172423 0.0279933 -5.64799e-18)
(0.109697 -0.140606 2.70745e-17)
(0.152478 0.13438 -2.17045e-17)
(0.221831 0.0719307 -2.15371e-17)
(0.00293481 -0.187842 2.23955e-17)
(0.0956286 0.109043 2.21388e-17)
(0.156086 0.142473 0)
(0.168464 0.100404 -5.41706e-18)
(0.140937 0.0983769 0)
(0.065405 -0.0839179 -1.12255e-17)
(0.158723 0.133793 4.74869e-21)
(0.172887 0.13216 0)
(0.209635 -0.0293319 -2.74386e-17)
(0.14507 0.0955957 0)
(0.137739 0.131114 -5.42856e-18)
(0.0998934 0.11817 1.73043e-17)
(0.113401 -0.139823 2.16256e-17)
(0.149012 0.140218 2.17195e-17)
(0.206245 0.0527906 1.61918e-17)
(0.140299 0.0986458 -9.09478e-18)
(0.22681 0.0640157 4.30678e-17)
(0.162034 0.137814 2.16747e-17)
(0.136469 0.136607 -5.43154e-18)
(0.14513 0.143138 0)
(0.130801 0.130333 0)
(0.0848188 0.14801 2.20731e-17)
(0.209462 0.0696559 1.61823e-17)
(0.232806 -0.0308167 2.73927e-17)
(0.0931264 -0.117178 -5.37449e-18)
(0.184791 0.101964 0)
(0.0746987 -0.102546 0)
(0.277361 -0.0343505 0)
(-0.0113101 -0.0476229 -2.17453e-17)
(0.124581 0.151028 0)
(0.0820429 0.151922 -2.24383e-17)
(-0.0152206 -0.0308381 3.85084e-17)
(0.142719 0.112067 4.33054e-17)
(0.158723 0.0825936 -2.1689e-17)
(0.260539 -0.0379856 0)
(0.163379 0.0782629 -2.16831e-17)
(0.22033 0.0545218 0)
(0.154117 0.142253 0)
(0.132119 0.125063 0)
(0.115427 0.119039 1.64995e-17)
(0.107161 0.164671 0)
(0.00898332 -0.223652 0)
(0.197829 0.0368174 0)
(0.118859 0.116947 0)
(0.115953 -0.248661 -5.39348e-18)
(0.108475 0.157887 0)
(0.275583 -0.0459246 2.67873e-17)
(0.139857 0.135185 -5.4404e-18)
(0.104414 0.166867 0)
(0.170848 0.066682 -2.16582e-17)
(0.223714 0.0464699 -5.38662e-18)
(0.0648508 -0.0958243 5.60015e-18)
(0.144002 0.111098 0)
(0.12167 0.114322 -2.11974e-17)
(0.132327 0.139803 -2.18369e-17)
(0.177262 0.0315325 5.5164e-18)
(0.117839 0.11629 -1.64371e-17)
(0.166972 0.0639529 2.76144e-17)
(0.0994987 -0.1364 -2.1584e-17)
(0.134513 0.134896 0)
(0.0848483 -0.124652 0)
(0.0238308 -0.0800285 0)
(0.0808221 0.154654 0)
(0.109734 0.123545 -1.64807e-17)
(0.120871 0.14999 -5.48059e-18)
(0.127475 0.139271 2.18534e-17)
(-0.158451 0.098347 1.28545e-17)
(0.166617 0.0677962 -5.46664e-18)
(0.057903 -0.079001 2.26128e-17)
(0.153805 0.12803 0)
(0.106514 0.125106 -1.74564e-17)
(0.172727 0.0877417 5.41556e-18)
(0.273566 -0.0263549 0)
(0.14769 0.129152 -2.17438e-17)
(0.166639 0.0914157 5.4166e-18)
(0.103409 0.157282 -2.76364e-17)
(0.112306 -0.158932 0)
(0.125418 0.14339 -4.38071e-17)
(0.0863074 0.145079 0)
(0.113392 0.142963 0)
(0.0518162 -0.143601 5.59849e-18)
(0.108699 0.14676 0)
(0.104534 0.127905 -1.65287e-17)
(0.111908 0.120667 -5.49236e-18)
(0.0790011 -0.120167 -2.71784e-17)
(0.195059 0.0433822 5.40279e-18)
(0.183708 0.0429867 0)
(0.133887 -0.243653 -4.29844e-17)
(0.0887707 0.107762 5.32317e-18)
(0.169552 0.0789557 1.62506e-17)
(0.0804366 -0.137497 -1.62404e-17)
(0.137201 0.124626 -2.17989e-17)
(0.122318 0.112927 0)
(0.26578 -0.0278158 2.14956e-17)
(0.14189 0.129366 4.89404e-17)
(0.0478997 0.0598594 -2.85147e-17)
(0.159496 0.0891334 2.16921e-17)
(0.0776553 -0.199467 -2.17692e-17)
(0.101822 0.130314 -1.97189e-17)
(0.106385 0.12503 -5.50912e-18)