/*--------------------------------*- C++ -*----------------------------------*\
  =========                 |
  \\      /  F ield         | OpenFOAM: The Open Source CFD Toolbox
   \\    /   O peration     | Website:  https://openfoam.org
    \\  /    A nd           | Version:  9
     \\/     M anipulation  |
\*---------------------------------------------------------------------------*/
FoamFile
{
    format      ascii;
    class       volVectorField;
    location    "0.25";
    object      U;
}
// * * * * * * * * * * * * * * * * * * * * * * * * * * * * * * * * * * * * * //

dimensions      [0 1 -1 0 0 0 0];

internalField   nonuniform List<vector> 
578
(
(-0.115 -0.145 0)
(-0.0642 -0.253 2.65e-16)
(-0.177 -0.222 -9.95e-17)
(0.021 -0.308 -2.03e-17)
(0.039 -0.0842 -4.96e-17)
(0.015 -0.357 -7.61e-17)
(-0.0412 -0.088 4.89e-17)
(0.0509 -0.0949 -4.37e-20)
(0.256 -0.343 -1.67e-16)
(-0.0409 -0.159 4.51e-16)
(0.0173 -0.379 -1.05e-16)
(0.153 -0.3 0)
(0.0143 -0.317 8.67e-17)
(0.168 -0.316 -6.37e-16)
(-0.172 -0.322 3.19e-16)
(0.234 -0.261 -7.82e-17)
(-0.176 -0.19 3.91e-16)
(-0.295 -0.263 0)
(0.139 -0.273 0)
(0.263 -0.322 1.11e-16)
(0.0214 -0.339 0)
(0.178 -0.238 0)
(0.131 -0.13 -4.59e-16)
(-0.00385 -0.298 0)
(-0.00656 -0.243 0)
(0.135 -0.274 3.33e-16)
(-0.0202 -0.297 -4.11e-17)
(-0.00395 -0.153 2.91e-17)
(-0.0561 -0.304 -4.04e-16)
(0.249 -0.275 3.17e-16)
(-0.00973 -0.26 -4.29e-16)
(0.0145 -0.303 8.7e-17)
(0.294 -0.31 -2.8e-16)
(-0.0114 -0.325 1.57e-16)
(-0.144 -0.285 -3.16e-16)
(0.207 -0.223 -5.08e-16)
(0.14 -0.277 6.29e-16)
(0.127 -0.253 0)
(-0.235 -0.261 -3.1e-16)
(0.0622 -0.131 0)
(0.0668 -0.15 -3.94e-16)
(0.0865 -0.157 4.49e-16)
(0.0721 -0.145 0)
(-0.157 -0.285 0)
(0.256 -0.232 4.03e-17)
(-0.0654 -0.136 0)
(-0.0696 -0.156 3.9e-16)
(0.245 -0.331 -3.99e-17)
(-0.233 -0.263 4.63e-16)
(-0.0271 -0.343 -8.84e-17)
(0.00456 -0.146 1.56e-17)
(0.024 -0.324 -3.66e-16)
(0.212 -0.166 -1.86e-16)
(-0.0122 -0.328 0)
(0.00184 -0.307 3.12e-16)
(-0.0127 -0.374 6.85e-16)
(0.0569 -0.0438 9.58e-16)
(0.195 -0.149 -3.63e-16)
(-0.213 -0.244 -6.02e-16)
(0.12 -0.137 2.17e-16)
(-0.256 -0.27 3.18e-16)
(-0.185 -0.138 0)
(-0.289 -0.214 4.83e-17)
(0.155 -0.281 2.95e-16)
(-0.00728 -0.319 8.12e-17)
(-0.201 -0.33 1.69e-16)
(0.295 -0.329 -3.41e-17)
(0.0317 -0.372 2.47e-16)
(0.295 -0.282 -1.46e-16)
(0.155 -0.332 3.46e-16)
(-0.00284 -0.263 0)
(0.0045 -0.253 -1.24e-17)
(4.73e-05 -0.314 -8.85e-17)
(0.156 -0.335 0)
(0.00308 -0.406 1.55e-16)
(0.0469 -0.0876 0)
(0.204 -0.268 2.21e-16)
(0.156 -0.208 -1.99e-16)
(0.00918 -0.321 0)
(-0.107 -0.121 -1.18e-16)
(0.115 -0.284 -3.1e-16)
(-0.0564 -0.0886 -4.21e-16)
(0.0344 -0.0949 -1.9e-16)
(0.0574 -0.0852 1.94e-16)
(-0.296 -0.342 -4.15e-17)
(-0.0528 -0.123 0)
(0.00213 -0.0847 0)
(-0.0117 -0.4 -2.47e-16)
(0.1 -0.229 2.91e-20)
(-0.114 -0.258 3.19e-18)
(-0.0186 -0.32 0)
(-0.275 -0.324 8.34e-17)
(-0.104 -0.235 0)
(0.0331 -0.351 1.57e-16)
(0.254 -0.281 4.9e-16)
(0.173 -0.258 -4.45e-16)
(0.000134 -0.309 8.77e-17)
(0.00696 -0.31 -6.27e-16)
(-0.0124 -0.0989 -8.23e-16)
(-0.161 -0.318 0)
(-0.193 -0.298 0)
(0.14 -0.312 -5.75e-16)
(-0.0304 -0.339 0)
(-0.18 -0.192 0)
(-0.00548 -0.308 0)
(0.158 -0.313 -4.76e-16)
(0.00445 -0.374 -1.63e-16)
(0.0751 -0.149 0)
(-0.0296 -0.0726 0)
(0.0954 -0.17 -4.77e-16)
(0.215 -0.245 -1.33e-16)
(0.15 -0.318 0)
(0.269 -0.308 3.33e-16)
(0.2 -0.281 -2.89e-16)
(0.212 -0.279 3.21e-16)
(-0.0245 -0.325 3.54e-16)
(0.0284 -0.34 1.74e-16)
(-0.161 -0.297 -2.77e-16)
(-0.0961 -0.22 5.08e-17)
(-0.00692 -0.31 3.07e-16)
(0.112 -0.223 -3.29e-16)
(0.0935 -0.147 3.76e-20)
(0.151 -0.309 -3.35e-16)
(0.0141 -0.285 -4.68e-17)
(0.0767 -0.145 0)
(-0.135 -0.309 3.58e-16)
(0.076 -0.287 -3.32e-16)
(0.302 -0.304 -1.57e-16)
(-0.161 -0.34 1.81e-16)
(-0.131 -0.314 0)
(-0.16 -0.327 0)
(-0.14 -0.32 0)
(0.0362 -0.358 0)
(0.0302 -0.0597 4.49e-16)
(-0.158 -0.336 -3.29e-16)
(-0.158 -0.245 0)
(0.134 -0.251 0)
(-0.0126 -0.316 -3.03e-16)
(0.158 -0.285 3.34e-16)
(-0.139 -0.274 0)
(-0.0684 -0.13 5.21e-16)
(-0.129 -0.309 0)
(-0.119 -0.231 0)
(0.00123 -0.257 0)
(0.0598 -0.117 0)
(-0.267 -0.297 -1.16e-21)
(-0.111 -0.233 4.07e-16)
(-0.0265 -0.241 0)
(0.159 -0.332 3.48e-16)
(-0.133 -0.307 0)
(0.209 -0.343 0)
(-0.0973 -0.124 0)
(0.0541 -0.056 0)
(0.0545 -0.107 5.23e-16)
(-0.178 -0.344 -3.19e-16)
(-0.0275 -0.308 -1.86e-16)
(-0.0626 -0.339 3.5e-16)
(0.0409 -0.33 -8.28e-17)
(-0.0451 -0.046 -1.11e-16)
(0.223 -0.347 -2.76e-16)
(0.2 -0.326 3.96e-16)
(0.191 -0.291 4.07e-16)
(-0.0367 -0.0703 -6.73e-18)
(0.182 -0.295 0)
(-0.000243 -0.0792 8.3e-20)
(-0.134 -0.294 -4.31e-21)
(-0.000561 -0.145 -5.09e-16)
(-0.156 -0.296 0)
(0.0296 -0.247 -9.82e-17)
(-0.0252 -0.375 -1.38e-16)
(0.169 -0.252 0)
(0.0788 -0.144 0)
(-0.0907 -0.145 0)
(-0.0543 -0.107 -5.27e-16)
(-0.134 -0.254 0)
(-0.00973 -0.33 -8.26e-17)
(-0.000508 -0.335 -8.38e-17)
(-0.153 -0.291 3.21e-16)
(0.0988 -0.155 5.6e-17)
(-0.0065 -0.257 2.02e-16)
(-0.0799 -0.145 0)
(-0.119 -0.237 0)
(-0.0913 -0.228 0)
(0.00979 -0.331 6.25e-16)
(-0.19 -0.276 2.32e-16)
(-0.0171 -0.178 -3.49e-16)
(0.0773 -0.1 -1.91e-16)
(-0.165 -0.338 8.44e-17)
(-0.193 -0.35 3.33e-16)
(-0.00462 -0.148 -5.14e-16)
(0.189 -0.345 -3.33e-16)
(0.154 -0.263 0)
(0.122 -0.166 4.61e-16)
(-0.143 -0.263 0)
(-0.0824 -0.151 0)
(-0.00541 -0.372 1.56e-16)
(0.016 -0.201 9.03e-16)
(-0.0155 -0.197 -7.15e-16)
(-0.152 -0.263 0)
(0.142 -0.261 0)
(0.0197 -0.185 -3.39e-16)
(0.0214 -0.345 -7.94e-16)
(0.0488 -0.165 -2.33e-16)
(-0.0145 -0.367 0)
(-0.00245 -0.347 -2.52e-16)
(0.156 -0.296 0)
(-0.178 -0.294 0)
(-0.225 -0.241 0)
(0.198 -0.35 3.39e-16)
(-0.068 -0.0822 0)
(-0.091 -0.188 4.17e-16)
(-0.201 -0.356 -3.23e-16)
(-0.151 -0.318 -1.09e-17)
(0.00736 -0.357 8.1e-17)
(-0.131 -0.265 -2.01e-16)
(0.0131 -0.31 0)
(-0.168 -0.305 -3.68e-16)
(0.168 -0.303 3.69e-16)
(-0.185 -0.354 3.35e-16)
(-0.0477 -0.0939 -5.51e-16)
(0.181 -0.349 1.71e-16)
(-0.148 -0.288 0)
(0.1 -0.202 -4.05e-16)
(0.0889 -0.158 0)
(-0.085 -0.159 0)
(-0.101 -0.201 8.17e-16)
(0.00122 -0.389 -7.7e-17)
(0.0133 -0.129 1.63e-19)
(-0.0109 -0.126 1.95e-16)
(-0.00117 -0.0789 4.21e-16)
(-0.0306 -0.0868 -4.26e-16)
(0.0153 -0.0905 -2.13e-16)
(-0.03 -0.0601 -4.47e-16)
(0.101 -0.251 0)
(-0.104 -0.256 0)
(0.0554 -0.0833 1.47e-16)
(0.0484 -0.0894 0)
(-0.0491 -0.0899 0)
(0.0367 -0.342 1.26e-16)
(0.0906 -0.187 0)
(-0.0424 -0.0777 0)
(0.0425 -0.0738 0)
(-0.00651 -0.382 -3.17e-16)
(-0.0719 -0.137 0)
(-0.00834 -0.109 7.83e-16)
(0.0329 -0.0679 0)
(-0.0357 -0.0676 -4.27e-16)
(-0.0146 -0.164 9.37e-16)
(-0.0469 -0.0699 0)
(-0.0159 -0.38 -7.82e-17)
(0.00525 -0.368 8e-17)
(-0.144 -0.322 0)
(0.0216 -0.264 0)
(0.0361 -0.0866 -4.32e-18)
(0.00275 -0.0749 0)
(0.126 -0.303 3.52e-16)
(-0.00151 -0.147 5.07e-16)
(-0.224 -0.351 -5.04e-16)
(0.0507 -0.0845 0)
(0.015 -0.162 5.08e-16)
(0.0477 -0.0934 5.46e-16)
(-0.0456 -0.082 4.23e-16)
(0.00581 -0.108 -7.97e-16)
(0.00866 -0.182 5.12e-16)
(-0.108 -0.273 2.91e-16)
(0.122 -0.252 7.06e-16)
(0.075 -0.181 0)
(0.0223 -0.0461 -4.54e-16)
(-0.00322 -0.0816 -4.29e-16)
(0.0124 -0.0439 0)
(-0.0126 -0.0442 0)
(-0.144 -0.317 -3.39e-16)
(0.0969 -0.218 0)
(-0.000316 -0.397 -2.28e-16)
(0.018 -0.357 -1.7e-16)
(-0.00787 -0.401 -4.53e-16)
(-0.0179 -0.356 1.79e-16)
(-0.0224 -0.0464 0)
(-0.0887 -0.156 0)
(-0.0101 -0.397 -3.92e-16)
(0.0839 -0.158 0)
(-0.0136 -0.394 6.88e-16)
(0.00506 -0.402 0)
(0.0129 -0.378 -7.78e-17)
(-0.00748 -0.407 1.53e-16)
(-0.0606 -0.118 -5.06e-16)
(0.0266 -0.0511 -8.95e-16)
(-0.0266 -0.0514 4.51e-16)
(-0.00207 -0.0642 0)
(-0.00192 -0.146 -4.8e-16)
(0.119 -0.282 0)
(-0.151 -0.327 1.08e-17)
(-0.022 -0.382 1.38e-16)
(-0.0499 -0.0816 0)
(0.00282 -0.0816 0)
(0.00756 -0.164 5.97e-17)
(0.0449 -0.0818 -4.24e-16)
(0.128 -0.309 -7.9e-16)
(0.00173 -0.155 1.13e-16)
(0.00273 -0.162 -4.45e-16)
(-0.0127 -0.378 4.04e-16)
(-0.122 -0.288 0)
(0.00127 -0.0926 4.04e-16)
(0.00061 -0.0762 0)
(0.00487 -0.1 0)
(-0.00167 -0.0981 7.63e-16)
(0.13 -0.302 3.47e-16)
(-0.00495 -0.304 -8.58e-16)
(-0.00316 -0.418 -2.95e-16)
(-0.00286 -0.412 0)
(0.11 -0.231 2.04e-16)
(-0.000332 -0.42 2.19e-16)
(-0.000672 -0.425 -4.63e-16)
(-0.0978 -0.22 0)
(-0.00691 -0.413 3.05e-16)
(0.0112 -0.397 3.2e-16)
(-0.144 -0.306 0)
(-0.0365 -0.0871 0)
(-0.0756 -0.182 0)
(-0.00939 -0.398 -3.82e-16)
(-0.122 -0.249 -4.04e-16)
(0.00318 -0.409 6.09e-16)
(-0.0152 -0.388 7.84e-17)
(-0.00383 -0.39 -2.48e-16)
(-0.0144 -0.355 3.25e-16)
(0.00683 -0.406 -1.43e-16)
(-0.211 -0.346 3.05e-16)
(-0.125 -0.242 0)
(0.176 -0.341 0)
(0.00512 -0.413 5.66e-16)
(-0.0219 -0.34 8.43e-17)
(-0.234 -0.337 -1.2e-16)
(0.000182 -0.42 1.5e-16)
(0.00999 -0.392 -3.17e-16)
(-0.111 -0.219 6.02e-16)
(-0.00519 -0.414 1.53e-16)
(0.0232 -0.379 -1.42e-16)
(0.0114 -0.387 -3.26e-16)
(0.00124 -0.308 0)
(-0.0183 -0.361 0)
(0.0138 -0.389 -1.59e-16)
(0.0101 -0.387 2.35e-16)
(-0.00121 -0.423 2.19e-16)
(-0.000825 -0.267 3.48e-16)
(-0.00318 -0.422 2.21e-16)
(0.165 -0.236 -1.02e-16)
(0.0852 -0.306 1.91e-16)
(-0.0254 -0.0606 -4.48e-16)
(0.0245 -0.0573 1.15e-16)
(-0.027 -0.0644 4.39e-16)
(0.0272 -0.064 0)
(0.0282 -0.0582 4.5e-16)
(-0.0293 -0.0597 2.24e-16)
(-0.00185 -0.392 -1.57e-16)
(0.0332 -0.0709 0)
(-0.0345 -0.0758 0)
(-0.00211 -0.423 -2.21e-16)
(-0.0468 -0.0872 -4.08e-16)
(0.0686 -0.108 0)
(-0.0685 -0.11 0)
(-0.0041 -0.418 -2.42e-16)
(-0.0593 -0.0527 0)
(-0.000884 -0.426 7.53e-17)
(0.0257 -0.0627 5e-16)
(-0.00191 -0.426 -7.68e-17)
(0.00129 -0.367 -3.32e-16)
(-0.00423 -0.422 7.88e-17)
(0.125 -0.301 3.54e-16)
(0.0275 -0.368 1.39e-16)
(-0.181 -0.15 0)
(0.134 -0.3 0)
(-0.167 -0.107 -4.55e-17)
(-0.252 -0.237 3.27e-16)
(0.0945 -0.321 -1.71e-16)
(-0.304 -0.325 -1.66e-16)
(0.162 -0.1 3.43e-16)
(-0.0238 -0.353 -8.36e-17)
(-0.0505 -0.12 -5.46e-16)
(0.0503 -0.116 3.94e-16)
(-0.0908 -0.219 -4.08e-16)
(-0.00159 -0.307 -3.19e-16)
(0.0489 -0.119 -2.74e-16)
(-0.0506 -0.121 0)
(0.0106 -0.4 -3.78e-16)
(0.00351 -0.411 2.25e-16)
(-0.00404 -0.389 4.79e-16)
(-0.0106 -0.0972 -5.18e-16)
(-0.0767 -0.154 4.77e-16)
(-0.096 -0.171 0)
(0.0469 -0.114 -3.39e-16)
(0.0052 -0.307 1.59e-16)
(0.0479 -0.32 0)
(0.029 -0.352 3.4e-16)
(0.131 -0.29 -1.68e-16)
(-0.306 -0.297 2.76e-16)
(0.0359 -0.232 1.89e-16)
(0.296 -0.21 3.01e-18)
(0.00595 -0.38 4.43e-16)
(0.0167 -0.29 3.89e-16)
(-0.00521 -0.132 5.37e-16)
(-0.305 -0.315 -5.48e-16)
(0.00467 -0.139 -4.92e-16)
(-0.0234 -0.166 2.45e-16)
(-0.0337 -0.304 2.62e-16)
(-0.0195 -0.313 0)
(-0.0259 -0.345 0)
(0.284 -0.251 0)
(-0.076 -0.277 5.91e-16)
(0.0254 -0.382 -3.98e-16)
(0.068 -0.341 -3.36e-16)
(-0.0256 -0.31 -6.99e-16)
(-0.118 -0.307 9.1e-17)
(-0.00695 -0.363 -9.51e-21)
(-0.11 -0.262 -7.9e-16)
(-0.108 -0.303 -8.9e-17)
(0.044 -0.364 7.98e-17)
(0.118 -0.261 -4.06e-16)
(-0.123 -0.268 -1.98e-16)
(0.16 -0.338 0)
(-0.0323 -0.369 8.2e-17)
(-0.145 -0.32 4.59e-17)
(-0.000474 -0.0732 -5.66e-20)
(0.165 -0.341 0)
(-0.156 -0.316 5.07e-16)
(-0.139 -0.309 0)
(0.13 -0.302 -1.82e-16)
(0.0512 -0.122 6.23e-16)
(-0.0192 -0.345 -3.98e-16)
(0.0277 -0.0704 -4.09e-16)
(0.136 -0.314 0)
(-0.258 -0.319 0)
(0.00209 -0.417 -1.52e-16)
(0.232 -0.238 -8.6e-17)
(0.0163 -0.311 0)
(-0.0288 -0.0677 -2.15e-16)
(0.149 -0.323 -1.72e-16)
(0.112 -0.252 0)
(-0.0896 -0.332 -3.41e-16)
(0.0885 -0.223 0)
(-0.0476 -0.356 3.4e-16)
(-0.0801 -0.334 -2.71e-16)
(0.0215 -0.37 0)
(0.0386 -0.346 1.8e-16)
(0.00822 -0.319 0)
(-0.254 -0.345 0)
(-0.014 -0.406 3.28e-16)
(0.00182 -0.261 -3.13e-16)
(-0.2 -0.247 -3.56e-16)
(-0.165 -0.221 5.1e-16)
(0.00246 -0.0765 0)
(-0.166 -0.34 8.89e-17)
(-0.0175 -0.31 0)
(-0.148 -0.308 -2.5e-20)
(0.0148 -0.308 1.55e-16)
(-0.175 -0.352 -3.19e-16)
(-0.0105 -0.275 0)
(-0.0205 -0.254 -6.63e-18)
(0.119 -0.269 1.81e-16)
(-0.0022 -0.408 4.84e-16)
(-0.189 -0.286 0)
(0.0576 -0.251 4.08e-16)
(-0.0786 -0.0849 2.55e-16)
(-0.0455 -0.369 -1.27e-16)
(0.051 -0.128 -3.02e-16)
(-0.00562 -0.417 7.9e-17)
(0.202 -0.286 -5.06e-20)
(-0.0551 -0.134 0)
(0.0779 -0.0801 -2.57e-16)
(-0.0364 -0.375 1.69e-16)
(0.142 -0.303 -5.29e-16)
(0.0083 -0.358 -3.81e-16)
(-0.00716 -0.086 0)
(-0.0376 -0.0462 0)
(-0.0377 -0.322 1.9e-16)
(0.00231 -0.387 -3.33e-16)
(0.144 -0.301 1.65e-16)
(0.139 -0.314 3.64e-16)
(0.0315 -0.0361 2.23e-16)
(0.102 -0.126 9.76e-17)
(0.168 -0.19 1.67e-16)
(-0.00511 -0.365 0)
(0.00917 -0.41 1.56e-16)
(-0.263 -0.291 -2.61e-16)
(0.00328 -0.405 -7.98e-16)
(-0.0356 -0.343 1.47e-16)
(0.105 -0.255 2.04e-16)
(0.00451 -0.363 2.76e-16)
(-0.00225 -0.176 0)
(-0.0302 -0.325 0)
(-0.243 -0.339 -1.63e-16)
(0.00272 -0.178 -1.8e-16)
(-0.273 -0.321 3.81e-17)
(0.141 -0.312 2.11e-17)
(0.0503 -0.355 4.4e-17)
(-0.0344 -0.366 -1.68e-16)
(-0.0501 -0.122 5.29e-16)
(-0.0118 -0.304 1.9e-16)
(-0.149 -0.327 1.79e-16)
(-0.015 -0.312 1.54e-16)
(0.0144 -0.313 0)
(0.159 -0.33 -1.81e-16)
(-0.018 -0.394 -3.3e-16)
(0.0897 -0.215 0)
(0.0183 -0.379 4.89e-16)
(-0.235 -0.282 1.05e-16)
(-0.0485 -0.356 0)
(-0.0941 -0.218 2.23e-16)
(0.0346 -0.363 0)
(-0.0956 -0.224 4.13e-16)
(-0.0534 -0.346 0)
(0.0109 -0.317 3.4e-16)
(0.126 -0.247 0)
(0.0104 -0.268 -4.15e-16)
(-0.102 -0.237 -2.33e-16)
(-0.119 -0.267 -4.99e-17)
(5.76e-06 -0.16 -4.59e-16)
(0.152 -0.317 1.84e-16)
(0.101 -0.231 0)
(0.00256 -0.285 0)
(0.0543 -0.344 3.5e-16)
(-0.00211 -0.386 -2.44e-16)
(0.0986 -0.224 -3.35e-16)
(-0.00248 -0.413 7.93e-17)
(0.0872 -0.204 0)
(0.129 -0.288 2.06e-16)
(0.0141 -0.358 -4.79e-16)
(0.00361 -0.298 2.58e-16)
(0.0278 -0.304 -2.03e-16)
(0.242 -0.302 8.37e-17)
(-0.0159 -0.291 2.08e-16)
(0.147 -0.201 0)
(0.172 -0.346 0)
(-0.0137 -0.168 -4.39e-16)
(0.00845 -0.367 0)
(0.0693 -0.332 4.06e-16)
(-0.0862 -0.12 -2.62e-16)
(0.00288 -0.238 0)
(-0.112 -0.254 -2.64e-16)
(-0.167 -0.19 -2.6e-17)
(-0.0334 -0.285 4.3e-16)
(0.0355 -0.289 2.87e-19)
(0.0457 -0.34 -2.29e-17)
(0.0882 -0.124 0)
(0.102 -0.234 2.33e-16)
(0.0399 -0.293 0)
(-0.0107 -0.369 -1.78e-16)
(-0.00164 -0.292 0)
(-0.165 -0.257 0)
(0.28 -0.312 -8.42e-17)
(0.105 -0.245 2.15e-16)
(0.244 -0.247 2.4e-17)
(-0.166 -0.333 -1.03e-16)
(0.132 -0.298 -1.77e-16)
(-0.236 -0.31 8.48e-17)
(0.16 -0.262 -1.05e-16)
(-0.0191 -0.399 -8.25e-17)
(0.234 -0.336 -2.15e-16)
(0.00111 -0.41 9.47e-17)
(0.0123 -0.364 9.54e-17)
(-0.0405 -0.361 5.14e-17)
(-0.0418 -0.357 0)
(-0.142 -0.204 0)
(0.0869 -0.201 -5.14e-16)
(-0.0598 -0.344 0)
(0.0593 -0.342 -1.92e-16)
(0.000998 -0.34 0)
(0.0285 -0.321 1.9e-16)
(-0.0312 -0.375 1.25e-16)
(-0.0554 -0.338 -2.07e-16)
(0.0529 -0.336 -2.04e-16)
(-0.141 -0.312 1.89e-16)
(-0.189 -0.257 0)
(0.214 -0.217 -1.5e-16)
(-0.0336 -0.351 -4.06e-16)
(-0.237 -0.28 9.55e-17)
(-0.000682 -0.347 0)
(-0.245 -0.284 2.06e-16)
(-0.199 -0.223 0)
)
;

boundaryField
{
    front
    {
        type            empty;
    }
    back
    {
        type            empty;
    }
    bottom
    {
        type            zeroGradient;
    }
    left
    {
        type            noSlip;
    }
    top
    {
        type            uniformFixedValue;
        uniformValue    
        {
            type            table;
            format          csv;
            file            "inlet_v.csv";
            nHeaderLine     1;
            refColumn       0;
            componentColumns List<label> 3(1 2 3);
            separator       ",";
            mergeSeparators 0;
        }
        value           uniform (0 -0.306 0);
    }
    right
    {
        type            noSlip;
    }
    inner_arc
    {
        type            noSlip;
    }
}


// ************************************************************************* //
