/*--------------------------------*- C++ -*----------------------------------*\
  =========                 |
  \\      /  F ield         | OpenFOAM: The Open Source CFD Toolbox
   \\    /   O peration     | Website:  https://openfoam.org
    \\  /    A nd           | Version:  9
     \\/     M anipulation  |
\*---------------------------------------------------------------------------*/
FoamFile
{
    format      ascii;
    class       surfaceScalarField;
    location    "0.28";
    object      phi;
}
// * * * * * * * * * * * * * * * * * * * * * * * * * * * * * * * * * * * * * //

dimensions      [0 3 -1 0 0 0 0];

internalField   nonuniform List<scalar> 
816
(
-2.11e-10
-2.86e-09
3.07e-09
-3.55e-10
-5.36e-09
5.71e-09
4.77e-09
-4.98e-09
7.29e-09
-7.25e-09
-3.81e-11
3.24e-09
-3.24e-09
7.06e-09
1.25e-09
-8.31e-09
3.39e-09
-3.39e-09
-3.52e-09
3.52e-09
-6.4e-09
-9.88e-10
7.39e-09
-2.69e-09
2.33e-09
1.03e-08
-3.25e-09
8.49e-09
-6.06e-09
-2.43e-09
1.82e-09
5.18e-09
-6.99e-09
8e-09
-7.33e-09
-6.74e-10
8.06e-09
-6.98e-09
-1.08e-09
-5.18e-09
8.73e-09
-3.55e-09
2.16e-09
2.92e-09
-5.08e-09
-8.08e-09
4.31e-10
7.65e-09
9.7e-10
7.52e-09
3.55e-09
-9.95e-09
5.37e-09
1.92e-09
6.88e-10
-5.87e-09
5.27e-09
-1.03e-09
-4.25e-09
-4.97e-09
-2.24e-09
7.21e-09
-5.35e-09
3.81e-10
-7.11e-09
1.61e-09
5.5e-09
-6.47e-09
7.2e-09
-7.26e-10
5.18e-11
1.99e-09
-2.04e-09
2.11e-09
-7.47e-09
2.72e-09
6.01e-09
-4.35e-09
4.4e-09
-5e-09
6.25e-09
1.06e-08
-7.92e-09
-8.12e-09
3.99e-09
4.13e-09
6.44e-10
7.42e-09
-1.4e-09
7.41e-09
6.57e-10
7.34e-09
-1.26e-09
-5.85e-09
-9.29e-09
3.37e-09
5.91e-09
2.06e-09
1.17e-09
-2.58e-09
-2.55e-09
2.27e-09
-6.87e-09
-1.17e-10
-5.68e-09
-1.34e-09
7.01e-09
2.1e-09
1.29e-09
-2.75e-09
6.63e-09
-7.62e-09
-4.52e-09
-6.19e-09
-2.88e-10
-1.84e-10
2.23e-09
-2.05e-09
6.65e-09
-4.83e-09
5.14e-09
1.39e-10
-2.91e-09
-5.21e-09
3.65e-09
3.31e-09
2.29e-09
-7.59e-09
5.31e-09
-1.03e-09
-5.68e-09
8.44e-09
-6.28e-09
2.46e-09
-3.86e-09
3.54e-10
-1.66e-09
4.58e-09
5.01e-09
-4.58e-09
-3.26e-10
-7e-09
-3.78e-09
-4.4e-09
8.19e-09
-7.4e-09
5.33e-10
7.18e-09
3.46e-09
4.7e-09
5.61e-09
-2.7e-09
9.26e-09
-6.55e-09
1.61e-09
5.8e-09
-7.41e-09
-1.36e-09
-5.18e-09
3.36e-09
-7.14e-09
5.74e-09
3.12e-09
-8.86e-09
3.18e-09
5.85e-09
-9.04e-09
2.91e-09
-2.91e-09
-3.56e-09
7.12e-09
-5.3e-09
1.74e-09
8.53e-09
1.09e-09
1.98e-09
-3.07e-09
-7.65e-09
1.06e-09
6.6e-09
-2.86e-09
3.01e-09
-3.01e-09
-3.17e-09
3.17e-09
3.56e-09
-8e-09
4.44e-09
-2.39e-09
-4.63e-10
2.23e-09
-6.11e-09
8.4e-09
-2.11e-12
-5.56e-09
5.56e-09
-4.93e-09
-1.33e-10
5.06e-09
2.85e-09
-3.98e-09
7.54e-09
1.81e-11
-6.03e-09
6.01e-09
5.32e-09
3.29e-09
-8.61e-09
-6.25e-09
5.64e-10
5.3e-09
-5.87e-09
-3.49e-09
-3.68e-09
-2.69e-09
-4.76e-10
7.89e-09
-1.19e-10
-7.28e-09
-4.75e-09
6.36e-09
-7.36e-09
5.05e-09
2.31e-09
4.47e-09
3.92e-09
3.04e-09
-6.92e-10
8.04e-09
-5.13e-09
2.58e-09
-2.39e-09
-5.11e-11
-2.85e-09
2.77e-09
4.64e-09
7.41e-09
5.69e-09
-8.11e-09
2.42e-09
-2.94e-09
-4.42e-09
-1.94e-09
-5.31e-09
-4.26e-10
-6.35e-09
6.77e-09
2.41e-10
-5.17e-09
7.35e-09
-3.43e-09
-3.25e-10
5.82e-09
-3.74e-09
5.68e-10
1.67e-09
5.91e-09
-5.36e-10
-7.29e-10
6.23e-09
-6.85e-09
6.22e-10
-4.23e-09
-3.43e-09
-6.58e-09
4.83e-09
1.75e-09
-6.35e-09
-8.55e-10
7.47e-09
-2.07e-10
-7.27e-09
7.31e-09
-1.09e-09
-2.24e-09
7.55e-09
-1.94e-09
1.94e-09
6.89e-09
5.88e-10
2.21e-10
-6.7e-09
6.48e-09
1.32e-11
-6.08e-09
-6.86e-09
-1.25e-09
5.23e-09
-5.44e-09
6.09e-11
-2.3e-09
2.24e-09
9.6e-10
5.29e-09
1.1e-10
5.18e-09
-5.29e-09
-2.27e-09
-6.2e-10
6.53e-09
4.46e-10
4.41e-09
-4.85e-09
-4.37e-09
3.04e-09
1.33e-09
-6.73e-09
5.87e-09
-8e-09
-2.2e-11
8.02e-09
-3.01e-09
3.01e-09
2.46e-09
2.91e-10
1.65e-09
-7.34e-10
-7.62e-09
8.36e-09
-2.77e-10
-5.91e-09
7.54e-09
-5.43e-09
-1.65e-09
7.23e-09
-5.58e-09
1.98e-09
4.19e-10
-8.42e-09
-6.58e-09
-2.3e-09
-6.54e-09
6.52e-09
-2.24e-09
2.24e-09
-6.28e-09
-2.13e-09
5.75e-09
-6.49e-09
-4.74e-09
3.09e-09
-2.87e-09
1.07e-08
-7.8e-09
-4.62e-10
-6.08e-09
2.55e-09
-2.54e-09
-2.61e-09
2.83e-09
2.88e-10
-1.94e-09
1.65e-09
3.41e-11
5.72e-09
5.02e-09
3.17e-09
-3.32e-09
8.33e-09
-6.71e-09
-3.53e-09
3.07e-09
2.43e-11
-5.16e-09
5.14e-09
2.61e-09
-2.58e-09
5.28e-10
-5.86e-09
5.33e-09
5.02e-09
-5.48e-09
5.22e-09
-4.14e-10
-6.29e-09
-4.37e-09
-3.86e-09
-3.15e-09
-3.43e-09
-7.5e-09
-6.05e-10
8.1e-09
-2.19e-09
2.21e-09
-7.35e-09
-6.19e-10
7.97e-09
6.67e-09
-1.48e-10
-6.12e-09
-3.7e-10
-2.33e-09
-6.02e-09
9.46e-09
-3.43e-09
-3.09e-09
2.77e-09
3.15e-10
-3.04e-09
2.77e-09
-6.84e-09
6.72e-09
1.17e-10
6.43e-09
-6.05e-09
-3.84e-10
-4.74e-09
8.51e-09
-2.34e-09
-6.72e-10
-8.9e-09
5.42e-09
2.92e-09
3.56e-10
-3.59e-10
-7e-09
-1.48e-10
4.56e-09
-8.58e-09
-3.33e-10
7.22e-09
9.04e-09
-3.62e-09
4.96e-09
4.55e-09
1.36e-09
1.51e-09
-1.65e-09
7.28e-09
5.12e-09
5.96e-10
-4.61e-09
4.9e-09
2.92e-09
-3.07e-09
-2.95e-09
2.58e-09
-4.57e-09
-6.16e-09
9.96e-09
-3.8e-09
-2.19e-09
-2.34e-09
-1.94e-09
-1.06e-09
-4.82e-09
-3.53e-09
2.92e-09
-2.95e-09
-1.96e-09
-1.53e-10
4.51e-09
-4.36e-09
2.61e-09
3.3e-09
3.14e-10
2.77e-09
2.24e-09
-2.21e-09
-4.75e-10
-2.61e-09
-5.5e-09
-3.25e-09
8.75e-09
5.6e-09
-5.42e-10
-6.31e-09
1.04e-10
6.14e-09
4.63e-10
-1.5e-09
1.03e-09
-2.05e-09
6.12e-09
-7.18e-09
4.84e-11
8.94e-09
-8.4e-09
1.5e-09
-1.65e-09
2.77e-09
2.73e-09
-1.44e-10
1.21e-09
-3.57e-09
-1.05e-09
-7.37e-09
9.4e-10
3.65e-09
6.31e-09
4.89e-09
-6.35e-09
1e-08
-7.22e-09
1.72e-09
1.51e-09
-2.83e-09
-3.48e-09
-5.84e-09
9.32e-09
2.54e-09
-9.61e-09
-3.87e-09
1.02e-08
-3.98e-09
9.58e-09
6.52e-09
2.97e-10
-1.54e-09
1.54e-09
-2.9e-09
-5.38e-09
6.68e-09
6.31e-09
4.37e-09
-2.2e-09
2.2e-09
-2.73e-09
-1.32e-09
-2.68e-09
2.13e-09
5.5e-10
2.68e-09
-4.79e-10
-9.35e-10
-2.9e-09
-6.7e-09
-6.43e-09
1.27e-09
-1.04e-08
3.7e-09
6.66e-09
-3.84e-09
5.48e-10
-6.24e-09
1.04e-08
-4.19e-09
-1.01e-08
3.83e-09
3.62e-09
-6.05e-09
9.75e-09
5.19e-09
-9.06e-09
-6.91e-10
4.59e-10
3.27e-09
-5.26e-09
6.35e-09
-3.22e-09
-5.16e-09
8.38e-09
-5.98e-09
1.05e-08
-4.2e-09
7.63e-09
3.41e-09
7.14e-09
8.22e-09
-8.82e-09
-8.54e-09
4.34e-09
6.53e-09
-1.05e-08
6.52e-09
-3.35e-09
6.39e-09
-1.21e-09
-5.79e-09
-3.27e-09
3.51e-09
6.92e-09
1.04e-08
-2.11e-09
-4.41e-09
6.52e-09
-1.95e-09
1.95e-09
-1.75e-09
1.75e-09
2.12e-09
-2.12e-09
2.06e-09
-2.06e-09
2.06e-09
2.1e-09
6.32e-09
-8.58e-09
2.26e-09
-2.75e-09
6.48e-09
3.88e-09
2.86e-09
-2.86e-09
-2.85e-09
2.98e-09
-2.98e-09
-9.27e-09
3.51e-09
5.76e-09
-1.66e-09
-9.99e-09
6.2e-09
3.79e-09
-1.95e-09
1.95e-09
-8.73e-09
3.47e-09
5.26e-09
-3.07e-09
-5.8e-09
-5.61e-09
5.01e-09
-2.54e-09
5.66e-09
-1.99e-09
-7.91e-09
-8.62e-09
5.14e-09
2.24e-09
1.77e-10
3.07e-10
2.52e-10
-5.33e-09
-9.89e-09
5.63e-09
4.26e-09
-6.39e-09
-3.1e-09
-2.69e-09
-1.95e-10
3.23e-09
-7.95e-09
3.54e-09
-4.48e-09
-6.16e-09
1.06e-08
-2.96e-09
-5.95e-09
2.43e-09
3.51e-09
-5.44e-10
-6.84e-09
2.66e-10
6.57e-09
-2.41e-09
1.92e-09
-1.92e-09
-1.27e-10
-4.02e-09
-3.45e-09
-4.09e-09
7.12e-09
7.51e-09
-2.25e-09
-7.1e-09
-5.1e-09
-2.26e-10
8.97e-09
-4.49e-09
-3.43e-09
-6.49e-09
-4.86e-09
-6.93e-09
-1.25e-09
-4.31e-09
-1.88e-09
-4.15e-09
-3.2e-09
-5.66e-09
-8.09e-09
-1.69e-09
6.52e-09
-5.63e-09
-5.03e-09
-6.44e-09
5.91e-09
-6.79e-09
8.83e-10
-2.29e-09
-5.3e-10
-6.41e-10
5.95e-09
-2.29e-09
-1.27e-09
8.52e-09
1.47e-09
-1e-08
9.64e-09
2.94e-09
4.08e-09
-3.73e-09
6.97e-09
2.19e-09
-2.19e-09
6.21e-09
1.2e-09
3.02e-09
1.05e-09
-5.35e-09
5.89e-09
-8.13e-09
8.44e-09
4.99e-09
4.09e-09
-7.24e-09
3.15e-09
-2.96e-10
8.58e-09
-2.82e-09
4.64e-09
6.67e-09
-5.19e-09
3.8e-10
1.99e-09
-5.52e-09
2.83e-09
2.86e-09
3.22e-09
4.93e-09
-6.12e-09
9.13e-10
-4.5e-09
7.33e-10
5.78e-09
-5.15e-09
5.42e-09
1.36e-09
-4.9e-09
2.23e-09
-2.53e-10
2.65e-09
-8.08e-09
-3.39e-10
-9.18e-09
1.04e-09
-2.03e-10
1.79e-09
6.7e-10
-5.48e-09
7.42e-09
6.47e-10
-7.49e-09
-2.04e-09
2.23e-09
5.77e-09
-4.45e-09
-5.37e-09
-3.21e-09
4.9e-09
3.14e-09
-5.6e-09
1.79e-09
2.94e-09
-7.4e-09
-7.47e-09
7.4e-09
-1.37e-10
-4.47e-09
-3.86e-09
3.86e-09
2.7e-09
-7.58e-09
-3.92e-09
3.92e-09
-5.56e-09
-7.54e-09
-5.85e-09
-5.85e-09
3.1e-09
3e-09
6.9e-09
-2.01e-09
-4.81e-09
5.17e-09
5.77e-09
-8.12e-09
3.68e-09
-4.33e-09
4.5e-09
-5.42e-09
-4.07e-09
-3.17e-09
-3.87e-09
-1.31e-09
-5.4e-09
-2.14e-09
3.22e-09
-4.24e-09
4.04e-09
9.13e-10
6.52e-09
-8.31e-11
-7.54e-09
-6.85e-09
-4e-09
-6.7e-10
-5.45e-09
-5.11e-10
-8.22e-10
-1.25e-09
-3.33e-09
3.21e-09
6.69e-09
-7.62e-10
-4.68e-09
-3.23e-11
4.54e-09
5.58e-09
-5.98e-09
-5.93e-09
-6.22e-09
-6.43e-09
-2.5e-09
1.7e-09
9.78e-10
)
;

boundaryField
{
    front
    {
        type            empty;
        value           nonuniform List<scalar> 0();
    }
    back
    {
        type            empty;
        value           nonuniform List<scalar> 0();
    }
    bottom
    {
        type            calculated;
        value           nonuniform List<scalar> 
12
(
2.85e-09
7.21e-09
5.88e-09
5.98e-09
4.03e-09
1.03e-09
1.05e-09
6.32e-09
7.44e-09
6.81e-09
4.08e-09
2.82e-09
)
;
    }
    left
    {
        type            calculated;
        value           uniform 0;
    }
    top
    {
        type            calculated;
        value           nonuniform List<scalar> 8(-6.96e-09 -6.96e-09 -6.92e-09 -6.92e-09 -6.92e-09 -6.96e-09 -6.96e-09 -6.92e-09);
    }
    right
    {
        type            calculated;
        value           uniform 0;
    }
    inner_arc
    {
        type            calculated;
        value           uniform 0;
    }
}


// ************************************************************************* //
