/*--------------------------------*- C++ -*----------------------------------*\
  =========                 |
  \\      /  F ield         | OpenFOAM: The Open Source CFD Toolbox
   \\    /   O peration     | Website:  https://openfoam.org
    \\  /    A nd           | Version:  9
     \\/     M anipulation  |
\*---------------------------------------------------------------------------*/
FoamFile
{
    format      ascii;
    class       volScalarField;
    location    "0.43";
    object      p;
}
// * * * * * * * * * * * * * * * * * * * * * * * * * * * * * * * * * * * * * //

dimensions      [0 2 -2 0 0 0 0];

internalField   nonuniform List<scalar> 
942
(
13.3546
13.358
13.3537
13.3622
13.3532
13.3527
13.3573
13.3526
13.3615
13.3618
13.3631
13.3536
13.3621
13.3636
13.3534
13.3578
13.3603
13.3556
13.3575
13.3604
13.3602
13.3526
13.3433
13.3576
13.363
13.3584
13.3599
13.3451
13.3622
13.3573
13.3604
13.3595
13.3611
13.3474
13.3623
13.3336
13.3346
13.3643
13.3333
13.3593
13.3448
13.3411
13.3576
13.3578
13.3557
13.3599
13.354
13.3469
13.3427
13.3635
13.3583
13.3461
13.3331
13.353
13.3617
13.3402
13.3547
13.3615
13.3549
13.3498
13.3587
13.3612
13.3473
13.3502
13.3627
13.3571
13.361
13.3505
13.3394
13.3583
13.3587
13.3601
13.3578
13.36
13.3519
13.3604
13.3605
13.3621
13.3588
13.3575
13.3535
13.3612
13.3624
13.3575
13.3563
13.3561
13.3495
13.3546
13.3636
13.3621
13.3421
13.3639
13.3618
13.3415
13.3384
13.3604
13.3399
13.3549
13.3535
13.3611
13.3583
13.3618
13.3547
13.3578
13.3397
13.3541
13.3599
13.3608
13.3494
13.3515
13.3375
13.3399
13.3506
13.3607
13.3631
13.3636
13.3516
13.3617
13.3608
13.3475
13.3549
13.336
13.3521
13.3578
13.3579
13.3558
13.3407
13.3589
13.3595
13.3289
13.3554
13.3566
13.3526
13.3449
13.3467
13.3577
13.3342
13.3496
13.3372
13.3405
13.3429
13.3592
13.3517
13.353
13.353
13.3618
13.3585
13.3595
13.3343
13.3569
13.3524
13.3483
13.3637
13.3548
13.363
13.3335
13.3564
13.3612
13.3507
13.3603
13.3558
13.3342
13.3629
13.3532
13.3482
13.3642
13.3579
13.356
13.3606
13.3533
13.3487
13.3423
13.3375
13.351
13.3548
13.3579
13.3605
13.3584
13.3415
13.3569
13.3549
13.3614
13.3342
13.3574
13.3582
13.3629
13.355
13.3549
13.3564
13.3557
13.3607
13.355
13.3489
13.3621
13.3552
13.3614
13.3576
13.3533
13.3461
13.3494
13.3615
13.3613
13.3542
13.3607
13.3533
13.3431
13.3379
13.3557
13.353
13.3532
13.3566
13.3608
13.3607
13.3606
13.3553
13.3564
13.3555
13.3632
13.3588
13.3597
13.3506
13.3563
13.3528
13.3595
13.3597
13.3597
13.3608
13.3445
13.3579
13.3616
13.3638
13.3569
13.362
13.3581
13.3544
13.361
13.3632
13.3488
13.3608
13.3606
13.3612
13.3557
13.347
13.3579
13.3577
13.357
13.3401
13.3581
13.3438
13.3596
13.3603
13.3437
13.3615
13.3584
13.3563
13.36
13.3505
13.3525
13.3628
13.3582
13.3491
13.3633
13.3617
13.3544
13.3372
13.3607
13.3576
13.3504
13.3623
13.3407
13.3378
13.3571
13.3457
13.3595
13.3574
13.3635
13.3585
13.3515
13.3602
13.3379
13.356
13.3338
13.3374
13.3509
13.3596
13.3512
13.3514
13.3491
13.3543
13.3525
13.3603
13.3463
13.364
13.3377
13.3526
13.3596
13.3498
13.3509
13.35
13.3524
13.3558
13.352
13.3488
13.3467
13.3565
13.3472
13.3444
13.3541
13.3605
13.3641
13.358
13.3625
13.3524
13.3582
13.3416
13.3642
13.3544
13.3558
13.3614
13.3531
13.3602
13.3644
13.3554
13.3572
13.3478
13.3632
13.3632
13.34
13.3433
13.3529
13.3595
13.3386
13.3496
13.3479
13.3514
13.3587
13.3458
13.3587
13.3583
13.3325
13.3563
13.3601
13.3436
13.3578
13.3533
13.3592
13.3548
13.3432
13.3483
13.352
13.3585
13.3512
13.3418
13.3507
13.358
13.3516
13.3564
13.3405
13.3578
13.3597
13.3503
13.3511
13.3538
13.3395
13.3479
13.3542
13.3524
13.3548
13.3459
13.3601
13.346
13.3575
13.3515
13.345
13.3581
13.3533
13.3573
13.3546
13.3432
13.3523
13.3566
13.3508
13.3428
13.3292
13.3555
13.3519
13.349
13.353
13.3561
13.3512
13.3486
13.3343
13.352
13.3551
13.3408
13.3502
13.3517
13.3455
13.3575
13.3321
13.3374
13.3455
13.3546
13.3518
13.3468
13.359
13.3345
13.3574
13.3454
13.3315
13.3586
13.3534
13.3501
13.3512
13.3492
13.3447
13.3435
13.3485
13.3601
13.347
13.351
13.3476
13.3516
13.3483
13.3483
13.3502
13.3584
13.3604
13.3534
13.3557
13.3541
13.3527
13.3546
13.3604
13.3364
13.3502
13.3537
13.3491
13.347
13.3543
13.3471
13.3518
13.3558
13.3549
13.3475
13.3526
13.3586
13.3601
13.3488
13.3443
13.3582
13.3611
13.3606
13.3459
13.3594
13.3595
13.359
13.358
13.3451
13.3606
13.3531
13.3547
13.3634
13.3591
13.3611
13.3598
13.3509
13.3537
13.3542
13.3618
13.3549
13.3571
13.3559
13.351
13.3606
13.3635
13.349
13.3589
13.3504
13.3606
13.3442
13.3611
13.357
13.3612
13.3496
13.3602
13.3522
13.357
13.3507
13.3622
13.3624
13.3604
13.3621
13.358
13.3453
13.363
13.3608
13.3635
13.3597
13.3476
13.3614
13.3615
13.3489
13.3623
13.3596
13.3626
13.358
13.3581
13.3615
13.3573
13.3509
13.362
13.3632
13.3615
13.363
13.3487
13.3636
13.3628
13.3571
13.3615
13.353
13.3589
13.3562
13.3624
13.3565
13.356
13.3615
13.3622
13.3611
13.3555
13.3581
13.3619
13.3519
13.3607
13.362
13.3622
13.3632
13.363
13.3501
13.362
13.3444
13.3626
13.3607
13.3526
13.362
13.3619
13.3627
13.3616
13.3621
13.3622
13.362
13.3627
13.3618
13.3618
13.3592
13.3623
13.3617
13.3618
13.3588
13.3623
13.3629
13.3512
13.352
13.3623
13.3618
13.3625
13.3621
13.3636
13.3625
13.3603
13.3615
13.3576
13.3627
13.3619
13.3582
13.3592
13.3626
13.3624
13.3629
13.3631
13.3591
13.3515
13.3615
13.3624
13.3541
13.3556
13.3627
13.3507
13.3604
13.3586
13.3388
13.3569
13.3622
13.3499
13.3499
13.3637
13.3501
13.3534
13.3518
13.3597
13.3587
13.3636
13.349
13.3517
13.362
13.3627
13.3519
13.3598
13.3622
13.352
13.3609
13.3522
13.3523
13.3515
13.3534
13.3566
13.3467
13.3572
13.3444
13.3641
13.3501
13.3604
13.3523
13.3607
13.354
13.3552
13.3485
13.3631
13.3613
13.3549
13.3599
13.3618
13.3458
13.3381
13.3553
13.3592
13.3553
13.3586
13.3609
13.3563
13.3567
13.3588
13.3538
13.3486
13.3604
13.3525
13.3537
13.3534
13.3584
13.3556
13.3587
13.3614
13.3525
13.3616
13.3528
13.359
13.3594
13.3591
13.3611
13.3638
13.3617
13.342
13.3627
13.3635
13.362
13.3584
13.3469
13.3558
13.3381
13.3588
13.3539
13.3602
13.3589
13.3615
13.3582
13.3616
13.3581
13.3609
13.3586
13.3615
13.3447
13.3635
13.3364
13.3641
13.3633
13.3624
13.3605
13.3643
13.3638
13.3628
13.3523
13.3643
13.3547
13.3618
13.3609
13.3644
13.3644
13.3552
13.3632
13.3635
13.3621
13.3608
13.3644
13.3643
13.3528
13.355
13.3629
13.3474
13.3631
13.3557
13.3618
13.3637
13.3629
13.3638
13.3527
13.3634
13.3579
13.3626
13.3609
13.3638
13.3528
13.36
13.3605
13.3581
13.3522
13.3525
13.3528
13.3543
13.3631
13.3471
13.3582
13.3536
13.363
13.353
13.3548
13.3612
13.3369
13.3575
13.3633
13.3536
13.3611
13.3597
13.3559
13.3587
13.3354
13.3531
13.3597
13.3629
13.3581
13.3491
13.3594
13.3641
13.3548
13.3554
13.3527
13.3485
13.349
13.3554
13.3571
13.3615
13.3636
13.3617
13.363
13.3461
13.3619
13.3548
13.3527
13.3633
13.3592
13.3362
13.3528
13.3532
13.364
13.3607
13.3584
13.3607
13.3634
13.361
13.3501
13.3638
13.3579
13.3584
13.3591
13.3597
13.3535
13.3527
13.364
13.3547
13.3397
13.3541
13.3624
13.3585
13.362
13.3537
13.353
13.353
13.3642
13.3538
13.3625
13.3581
13.3601
13.3541
13.3363
13.3521
13.3543
13.3436
13.3455
13.3506
13.3617
13.3365
13.3566
13.353
13.3614
13.3622
13.3514
13.3424
13.3372
13.3626
13.3639
13.3594
13.3612
13.3622
13.3508
13.3451
13.3632
13.3588
13.345
13.3628
13.3421
13.3581
13.3515
13.3524
13.3628
13.3465
13.3583
13.3525
13.357
13.3526
13.3569
13.3532
13.3628
13.3398
13.3522
13.3642
13.3377
13.3602
13.3602
13.3516
13.3627
13.3537
13.3416
13.346
13.3575
13.3554
13.3405
13.3414
13.3483
13.3348
13.3582
13.3477
13.3634
13.3563
13.361
13.3541
13.3383
13.3532
13.3599
13.3529
13.3616
13.3537
13.3488
13.3583
13.3526
13.3539
13.3523
13.354
13.3641
13.3381
13.3533
13.354
13.3542
13.3574
13.362
13.3353
13.3532
13.3587
13.3618
13.3639
13.354
13.3543
13.3628
13.3637
13.3508
13.3464
13.3524
13.3373
13.3395
13.354
13.3551
13.3644
13.3643
13.3443
13.3497
13.355
13.3622
13.3545
13.3642
13.3367
13.3602
13.3596
13.3597
13.3527
13.3578
13.3439
13.3522
13.3544
13.3616
13.3369
13.3524
13.3526
13.3597
13.352
13.3617
13.3579
13.3586
13.3541
13.3526
13.3643
13.362
13.3359
13.3613
13.3619
13.3349
13.3527
13.3627
13.3435
13.3425
13.3361
13.362
13.3591
13.3617
13.3609
)
;

boundaryField
{
    back
    {
        type            empty;
    }
    front
    {
        type            empty;
    }
    top
    {
        type            zeroGradient;
    }
    outer_arc
    {
        type            zeroGradient;
    }
    bottom
    {
        type            uniformFixedValue;
        uniformValue    
        {
            type            table;
            format          csv;
            file            "outlet_p.csv";
            nHeaderLine     1;
            refColumn       0;
            componentColumns List<label> 1(1);
            separator       ",";
            mergeSeparators 0;
        }
        value           uniform 13.351;
    }
    inner_arc
    {
        type            zeroGradient;
    }
}


// ************************************************************************* //
