/*--------------------------------*- C++ -*----------------------------------*\
  =========                 |
  \\      /  F ield         | OpenFOAM: The Open Source CFD Toolbox
   \\    /   O peration     | Website:  https://openfoam.org
    \\  /    A nd           | Version:  9
     \\/     M anipulation  |
\*---------------------------------------------------------------------------*/
FoamFile
{
    format      ascii;
    class       volScalarField;
    location    "1.41";
    object      p;
}
// * * * * * * * * * * * * * * * * * * * * * * * * * * * * * * * * * * * * * //

dimensions      [0 2 -2 0 0 0 0];

internalField   nonuniform List<scalar> 
1655
(
13.4615
13.464
13.4551
13.4637
13.4703
13.4688
13.4541
13.4588
13.4431
13.4701
13.4615
13.4612
13.4606
13.4667
13.4489
13.4391
13.4203
13.4444
13.468
13.4676
13.4559
13.4427
13.4668
13.4675
13.4612
13.4317
13.442
13.4475
13.4499
13.4721
13.4482
13.4561
13.4694
13.4609
13.4446
13.4631
13.4688
13.4646
13.4695
13.4636
13.4579
13.4687
13.4698
13.4678
13.4656
13.4636
13.4634
13.465
13.4696
13.4697
13.4687
13.4551
13.4451
13.4464
13.4463
13.4577
13.4554
13.4617
13.4632
13.4544
13.4489
13.4683
13.4614
13.4579
13.4666
13.4501
13.4658
13.4621
13.4444
13.4687
13.462
13.4523
13.4682
13.4495
13.456
13.4659
13.4513
13.4471
13.4547
13.4695
13.466
13.4657
13.4443
13.4676
13.4729
13.461
13.4569
13.465
13.4622
13.4611
13.463
13.4567
13.4678
13.4698
13.4659
13.4679
13.4658
13.4629
13.4579
13.4707
13.4566
13.4664
13.47
13.4668
13.4411
13.4682
13.4574
13.471
13.4707
13.46
13.4696
13.4618
13.4603
13.4718
13.461
13.463
13.4591
13.4636
13.4622
13.4425
13.4593
13.4588
13.4521
13.4643
13.4655
13.4633
13.4696
13.4657
13.4347
13.4741
13.469
13.4698
13.4585
13.4641
13.4673
13.4636
13.4697
13.4447
13.4586
13.4652
13.4504
13.4417
13.4318
13.4569
13.4274
13.4542
13.4585
13.4566
13.4581
13.4377
13.4425
13.4322
13.4502
13.4464
13.4604
13.47
13.4663
13.4639
13.4594
13.4669
13.4625
13.4611
13.4471
13.4626
13.4602
13.4626
13.4479
13.4623
13.466
13.4456
13.4336
13.4497
13.4606
13.4539
13.4704
13.4559
13.4694
13.4453
13.4697
13.4699
13.4585
13.4503
13.4686
13.4645
13.4657
13.4663
13.4654
13.4682
13.4475
13.4523
13.466
13.4681
13.4513
13.4537
13.4635
13.469
13.4489
13.4655
13.4618
13.453
13.4645
13.4641
13.4527
13.4534
13.4656
13.45
13.469
13.453
13.4727
13.4589
13.4547
13.4535
13.464
13.4622
13.4699
13.4653
13.4634
13.4616
13.4523
13.4549
13.4657
13.4615
13.4694
13.458
13.4692
13.4624
13.4587
13.4655
13.4499
13.449
13.4662
13.4453
13.445
13.4491
13.4689
13.4666
13.4643
13.4552
13.4567
13.4422
13.4581
13.4652
13.4429
13.465
13.4586
13.4633
13.4423
13.4495
13.4591
13.4563
13.4677
13.4661
13.4657
13.4546
13.4684
13.4536
13.47
13.4602
13.4448
13.469
13.4602
13.4671
13.4572
13.4522
13.4654
13.4627
13.4686
13.4704
13.4695
13.4688
13.4404
13.45
13.4658
13.4643
13.4519
13.4537
13.4405
13.4608
13.4461
13.4557
13.4493
13.4642
13.4566
13.4484
13.4518
13.4546
13.4525
13.4698
13.4686
13.4468
13.4512
13.4602
13.4678
13.4515
13.4561
13.468
13.4577
13.4513
13.4628
13.4712
13.4696
13.4699
13.4696
13.4661
13.4532
13.4479
13.4688
13.4592
13.4594
13.4524
13.4601
13.434
13.4621
13.4588
13.4612
13.4579
13.4607
13.4487
13.4486
13.4697
13.4515
13.4669
13.4697
13.467
13.4692
13.4631
13.4628
13.4629
13.4695
13.4659
13.4681
13.4546
13.4672
13.4552
13.4593
13.4522
13.4658
13.4681
13.4594
13.4575
13.4699
13.4635
13.4556
13.4474
13.4478
13.4649
13.4677
13.4679
13.4688
13.4616
13.4649
13.4654
13.4469
13.469
13.4489
13.4488
13.4622
13.4584
13.461
13.4406
13.4523
13.468
13.4482
13.451
13.466
13.4559
13.4702
13.4677
13.4558
13.4652
13.4657
13.4692
13.4656
13.4551
13.4693
13.4607
13.4666
13.4606
13.466
13.4638
13.4662
13.4529
13.4637
13.4517
13.467
13.4509
13.4522
13.46
13.4596
13.45
13.4498
13.4659
13.4667
13.4534
13.4624
13.4527
13.4456
13.4576
13.45
13.4681
13.4553
13.4663
13.4525
13.4643
13.4663
13.4683
13.4539
13.4655
13.4653
13.4666
13.4707
13.4501
13.45
13.4663
13.4675
13.4481
13.4557
13.4434
13.4512
13.4502
13.4683
13.4501
13.4654
13.4469
13.4542
13.4408
13.4437
13.4603
13.4506
13.4633
13.4664
13.4656
13.4514
13.4705
13.4478
13.4543
13.4648
13.4653
13.4706
13.4504
13.4347
13.4434
13.4662
13.4446
13.4471
13.4524
13.4649
13.4663
13.464
13.4658
13.4626
13.4561
13.4609
13.4484
13.4617
13.4454
13.4677
13.445
13.4641
13.4661
13.4566
13.4432
13.4551
13.4579
13.4685
13.4636
13.4462
13.4464
13.4433
13.4563
13.4577
13.4657
13.448
13.4661
13.4567
13.4577
13.4589
13.4565
13.443
13.4639
13.4414
13.4666
13.4439
13.4608
13.4576
13.4455
13.4638
13.4618
13.4665
13.4596
13.4563
13.4651
13.4461
13.464
13.46
13.4561
13.4436
13.4621
13.4547
13.4632
13.4617
13.4589
13.4636
13.4595
13.4407
13.4612
13.4602
13.4608
13.4586
13.4623
13.4686
13.4607
13.4665
13.4579
13.4604
13.4637
13.459
13.4559
13.4462
13.4493
13.4496
13.4468
13.4592
13.4584
13.4475
13.4461
13.462
13.4603
13.4576
13.4535
13.4625
13.4639
13.4619
13.4645
13.4685
13.4638
13.47
13.4615
13.4667
13.4632
13.4679
13.4524
13.4682
13.4638
13.4621
13.469
13.4615
13.4655
13.4584
13.4668
13.4619
13.4598
13.422
13.4617
13.4584
13.4427
13.4532
13.4591
13.4644
13.462
13.4554
13.4656
13.4451
13.4558
13.4682
13.4494
13.4549
13.4496
13.4589
13.4542
13.4601
13.4598
13.4558
13.4668
13.4563
13.4558
13.4604
13.4661
13.4461
13.4543
13.4623
13.4626
13.4679
13.4509
13.4652
13.4631
13.4582
13.4487
13.4623
13.4482
13.4595
13.4497
13.4511
13.4527
13.4483
13.4478
13.4601
13.4537
13.4546
13.4589
13.4565
13.4351
13.456
13.4636
13.4277
13.4243
13.4494
13.4524
13.4477
13.4438
13.4585
13.4603
13.4261
13.4386
13.4557
13.4583
13.4429
13.4619
13.4468
13.4509
13.4448
13.4495
13.4405
13.4568
13.4494
13.4661
13.4502
13.4512
13.4527
13.4622
13.4509
13.4612
13.4543
13.4639
13.4614
13.456
13.4628
13.4625
13.4597
13.4548
13.4614
13.4612
13.4522
13.4625
13.4611
13.4686
13.4588
13.4635
13.4618
13.4349
13.4578
13.4598
13.4516
13.4562
13.4569
13.4609
13.4529
13.4602
13.4521
13.4452
13.4579
13.4575
13.4643
13.455
13.449
13.4579
13.4656
13.4615
13.4629
13.4603
13.4555
13.4557
13.4656
13.4653
13.4654
13.4632
13.4636
13.4674
13.4569
13.4659
13.462
13.4594
13.4633
13.4499
13.4625
13.4422
13.4619
13.4657
13.4602
13.4596
13.4627
13.4648
13.4677
13.4606
13.4599
13.4613
13.4656
13.4583
13.4603
13.4611
13.4521
13.4603
13.4604
13.4634
13.4658
13.4665
13.4656
13.4516
13.4619
13.4636
13.4402
13.4586
13.4397
13.4527
13.4529
13.4667
13.4664
13.4655
13.453
13.4359
13.459
13.4622
13.4616
13.4536
13.4655
13.4385
13.4629
13.4666
13.4576
13.4661
13.4354
13.468
13.4646
13.4603
13.4681
13.4665
13.4652
13.4639
13.4636
13.4651
13.4407
13.4684
13.4607
13.437
13.4613
13.4614
13.4643
13.46
13.4662
13.464
13.465
13.466
13.4678
13.4348
13.4375
13.4677
13.4672
13.4648
13.456
13.4678
13.4378
13.4378
13.466
13.4676
13.4677
13.466
13.4647
13.4385
13.4657
13.4626
13.4364
13.4668
13.4674
13.4678
13.4535
13.4572
13.4607
13.4635
13.46
13.4599
13.4659
13.466
13.4662
13.4655
13.4573
13.4587
13.4679
13.4556
13.4643
13.4558
13.4673
13.4363
13.4629
13.4658
13.4672
13.4685
13.453
13.4665
13.4682
13.4668
13.4682
13.4681
13.4677
13.4672
13.4542
13.4543
13.4667
13.4687
13.4352
13.4682
13.4545
13.4608
13.4323
13.4681
13.4673
13.4354
13.4675
13.4666
13.4679
13.434
13.4612
13.4674
13.469
13.4688
13.4592
13.437
13.4668
13.4682
13.4669
13.4662
13.4669
13.4675
13.4615
13.4668
13.4661
13.4669
13.4668
13.4664
13.468
13.4672
13.4481
13.4654
13.4343
13.4683
13.4683
13.467
13.4331
13.4667
13.4617
13.4671
13.4649
13.4567
13.4668
13.4666
13.4672
13.4685
13.462
13.4668
13.4659
13.4631
13.4683
13.467
13.4662
13.434
13.4668
13.4658
13.4686
13.4645
13.4667
13.4672
13.4667
13.4675
13.4664
13.4656
13.4623
13.462
13.4665
13.463
13.4574
13.4324
13.466
13.4663
13.4331
13.4656
13.4678
13.4603
13.4677
13.4651
13.4667
13.4678
13.469
13.4585
13.468
13.4659
13.4694
13.4576
13.4621
13.4576
13.4671
13.4575
13.4673
13.4648
13.4634
13.4679
13.4695
13.4669
13.4666
13.4692
13.4676
13.4623
13.4672
13.4336
13.4316
13.4651
13.469
13.4657
13.4669
13.4291
13.4676
13.4629
13.4661
13.4696
13.4672
13.4587
13.4672
13.4674
13.4621
13.4621
13.4665
13.4673
13.4662
13.466
13.4654
13.4689
13.4692
13.4635
13.4661
13.4666
13.456
13.4655
13.4674
13.4317
13.4677
13.4667
13.4601
13.4674
13.4657
13.4677
13.4653
13.4694
13.4692
13.4672
13.4651
13.4647
13.4412
13.4694
13.4668
13.4623
13.4664
13.4654
13.4662
13.4612
13.4665
13.4665
13.4308
13.4655
13.4646
13.4631
13.4328
13.4674
13.4445
13.4678
13.4635
13.4669
13.468
13.4697
13.4673
13.468
13.4667
13.4679
13.4685
13.4643
13.4671
13.4307
13.4639
13.469
13.4675
13.4659
13.4677
13.4652
13.4646
13.4663
13.47
13.4665
13.4626
13.4658
13.4293
13.4652
13.4663
13.4668
13.4687
13.4686
13.4625
13.4677
13.4649
13.468
13.4638
13.4626
13.4655
13.4658
13.4639
13.4686
13.4673
13.4664
13.4658
13.4649
13.4641
13.4639
13.4637
13.4631
13.4636
13.4412
13.4636
13.4656
13.4626
13.4664
13.4666
13.4655
13.4637
13.4632
13.4389
13.4715
13.4293
13.4629
13.4666
13.4675
13.461
13.4654
13.4656
13.4699
13.4652
13.4367
13.4677
13.4601
13.4627
13.4667
13.4681
13.4647
13.4611
13.4663
13.4575
13.4674
13.4655
13.4647
13.4294
13.4546
13.4645
13.4629
13.4647
13.4451
13.44
13.4706
13.468
13.4658
13.4343
13.4675
13.465
13.4645
13.4683
13.4626
13.4603
13.4646
13.4655
13.4679
13.4612
13.4663
13.4643
13.4348
13.4396
13.4652
13.4602
13.4458
13.4674
13.4608
13.4526
13.4401
13.4593
13.4632
13.4391
13.4692
13.4651
13.4541
13.4649
13.464
13.4644
13.4659
13.4522
13.4685
13.4385
13.4657
13.4642
13.4688
13.4573
13.4644
13.4571
13.4589
13.4686
13.4485
13.455
13.4651
13.4633
13.4594
13.4674
13.4612
13.4689
13.4663
13.4614
13.4674
13.4641
13.4569
13.4607
13.4598
13.4578
13.4415
13.4562
13.455
13.4668
13.4499
13.452
13.4666
13.4658
13.4743
13.4554
13.4667
13.4546
13.4657
13.4615
13.4618
13.4496
13.462
13.4676
13.4469
13.452
13.4639
13.462
13.4687
13.4638
13.4683
13.4421
13.4464
13.448
13.468
13.4636
13.4583
13.4648
13.4667
13.4668
13.4659
13.4624
13.4741
13.4697
13.4444
13.4423
13.463
13.4649
13.4582
13.4449
13.4454
13.46
13.4684
13.4678
13.4673
13.4629
13.4409
13.46
13.4598
13.4727
13.468
13.4377
13.4668
13.4673
13.4671
13.4652
13.4418
13.4629
13.4466
13.4552
13.4169
13.4653
13.4677
13.4352
13.4603
13.4539
13.4583
13.439
13.4424
13.44
13.4581
13.4665
13.4685
13.4682
13.4584
13.4608
13.4443
13.4618
13.4408
13.4621
13.4313
13.4462
13.4711
13.4601
13.4401
13.4362
13.4585
13.4387
13.4376
13.4333
13.4543
13.4515
13.4672
13.4685
13.4681
13.467
13.448
13.4749
13.4696
13.4619
13.448
13.4418
13.4717
13.4681
13.4589
13.469
13.4693
13.4426
13.4691
13.4478
13.4375
13.4296
13.4607
13.4393
13.4599
13.4462
13.4687
13.4697
13.4363
13.4697
13.4752
13.4647
13.4298
13.4632
13.4384
13.4396
13.4661
13.4606
13.4392
13.4421
13.4365
13.4571
13.4737
13.4329
13.4407
13.4341
13.4418
13.4338
13.4574
13.4612
13.4553
13.466
13.4576
13.4614
13.4297
13.4633
13.4635
13.4387
13.4707
13.4585
13.4711
13.464
13.4641
13.4625
13.4337
13.4346
13.4644
13.4695
13.4705
13.4609
13.4402
13.4362
13.4377
13.4639
13.4462
13.4423
13.4645
13.4438
13.4638
13.4446
13.4747
13.4412
13.4401
13.4344
13.4674
13.4617
13.4684
13.4698
13.4696
13.4612
13.4704
13.4459
13.4669
13.4616
13.4747
13.4701
13.4631
13.4315
13.4562
13.4649
13.4457
13.4639
13.461
13.4487
13.4637
13.441
13.4609
13.4419
13.4653
13.4645
13.4548
13.45
13.447
13.4693
13.4669
13.4413
13.4696
13.437
13.4358
13.4677
13.4672
13.4616
13.4684
13.4687
13.4668
13.4617
13.4677
13.4681
13.4688
13.468
13.4615
13.4663
13.4613
13.4677
13.4676
13.4615
13.4683
13.4688
13.4667
13.4615
13.4618
13.4679
13.4671
13.4657
13.444
13.4696
13.4681
13.469
13.4659
13.464
13.4727
13.459
13.4693
13.4723
13.4399
13.4629
13.4616
13.4615
13.4505
13.4692
13.4656
13.4643
13.463
13.4684
13.4623
13.4659
13.4512
13.4735
13.4715
13.4614
13.4686
13.4655
13.4419
13.4616
13.4612
13.473
13.4694
13.4374
13.4678
13.4677
13.4405
13.4665
13.4708
13.4535
13.4655
13.4443
13.4656
13.4617
13.4676
13.4614
13.4398
13.4667
13.4698
13.4614
13.4551
13.4329
13.4663
13.4715
13.4684
13.4656
13.4658
13.469
13.4351
13.4622
13.4657
13.4663
13.4701
13.4631
13.4701
13.4659
13.4655
13.47
13.4694
13.4611
13.4621
13.4621
13.4658
13.4655
13.4587
13.4637
13.4637
13.4633
13.4413
13.4405
13.4619
13.4657
13.4657
13.4659
13.465
13.4396
13.4532
13.4741
13.4638
13.4665
13.4665
13.4668
13.4707
13.4701
13.4417
13.4696
13.4666
13.468
13.469
13.458
13.4655
13.469
13.4707
13.4691
13.459
13.4712
13.4457
13.4657
13.46
13.4716
13.4707
13.4638
13.4715
13.4651
13.4656
13.4716
13.4658
13.4626
13.4468
13.4657
13.4702
13.4722
13.4455
13.47
13.4503
13.4662
13.4422
13.4633
13.4667
13.4581
13.4693
13.468
13.4657
13.4702
13.4668
13.4703
13.4694
13.4703
13.4704
13.4699
13.4705
13.4644
13.4657
13.4456
13.4624
13.4689
13.4618
13.4643
13.4637
13.4509
13.4434
13.4624
13.4696
13.4377
13.4696
13.4664
13.4652
13.4616
13.4643
13.4659
13.4701
13.473
13.4631
13.4622
13.466
13.4698
13.4471
13.4611
13.4619
13.4591
13.4634
13.4429
13.4659
13.4625
13.4462
13.4385
13.4635
13.4687
13.4452
13.4692
13.4677
13.4645
13.4636
13.47
13.469
13.4618
13.4694
13.4659
13.4651
13.4662
13.4678
13.4695
13.4658
13.4656
13.4462
13.4548
13.4693
13.4662
13.4629
13.4707
13.4679
13.4611
13.4451
13.4619
13.4659
13.4412
13.4636
13.4614
13.4658
13.4698
13.4331
13.4692
13.4615
13.4683
13.4528
13.4696
13.4443
13.4659
13.4644
13.4396
13.4639
13.4424
13.4646
13.4659
13.4706
13.4451
13.4671
13.4703
13.4628
13.4593
13.4591
13.4701
13.4645
13.436
13.4617
13.4649
13.4724
13.4562
13.4419
13.4555
13.4685
13.4416
13.4705
13.4703
13.4697
13.4562
13.4672
13.4683
13.4694
13.4523
13.4647
13.4615
13.4438
13.4621
13.4712
13.4504
13.4659
13.4702
13.4231
13.4666
13.4629
13.4673
13.4688
13.4644
13.4661
13.47
13.4715
13.4691
13.4641
13.4636
13.4653
13.47
13.4577
13.4614
13.4669
13.4619
13.4708
13.4613
13.4524
13.4704
13.4619
13.4485
13.4661
13.4694
13.4621
13.4635
13.4696
13.4628
13.4432
13.4705
13.4658
13.4701
13.4698
13.4431
)
;

boundaryField
{
    back
    {
        type            empty;
    }
    front
    {
        type            empty;
    }
    top
    {
        type            zeroGradient;
    }
    outer_arc
    {
        type            zeroGradient;
    }
    bottom
    {
        type            uniformFixedValue;
        uniformValue    
        {
            type            table;
            format          csv;
            file            "outlet_p.csv";
            nHeaderLine     1;
            refColumn       0;
            componentColumns List<label> 1(1);
            separator       ",";
            mergeSeparators 0;
        }
        value           uniform 13.4396;
    }
    inner_arc
    {
        type            zeroGradient;
    }
}


// ************************************************************************* //
