/*--------------------------------*- C++ -*----------------------------------*\
  =========                 |
  \\      /  F ield         | OpenFOAM: The Open Source CFD Toolbox
   \\    /   O peration     | Website:  https://openfoam.org
    \\  /    A nd           | Version:  9
     \\/     M anipulation  |
\*---------------------------------------------------------------------------*/
FoamFile
{
    format      ascii;
    class       volScalarField;
    location    "2.52";
    object      p;
}
// * * * * * * * * * * * * * * * * * * * * * * * * * * * * * * * * * * * * * //

dimensions      [0 2 -2 0 0 0 0];

internalField   nonuniform List<scalar> 
1655
(
13.047
13.0572
13.0437
13.0472
13.0506
13.0517
13.0426
13.0391
13.0225
13.0509
13.0463
13.0462
13.0405
13.0604
13.0256
13.0454
13.0254
13.0229
13.0514
13.0604
13.0473
13.0224
13.047
13.0476
13.0465
13.0332
13.0477
13.028
13.0299
13.0508
13.0384
13.0444
13.06
13.0462
13.0234
13.046
13.0515
13.058
13.0602
13.0566
13.0473
13.0487
13.0606
13.0509
13.0592
13.0472
13.0471
13.0588
13.0516
13.0606
13.0516
13.0439
13.0251
13.0258
13.0232
13.0347
13.0489
13.0466
13.047
13.0349
13.0391
13.0515
13.0471
13.0384
13.0501
13.0402
13.0487
13.0466
13.023
13.0489
13.0464
13.0416
13.0488
13.025
13.0429
13.0589
13.0317
13.0244
13.0499
13.05
13.0498
13.0589
13.0219
13.0508
13.0509
13.0344
13.0441
13.0479
13.0525
13.0362
13.0387
13.0448
13.0513
13.0517
13.0591
13.0514
13.049
13.0468
13.0455
13.0577
13.0449
13.0494
13.0517
13.0498
13.0204
13.0514
13.0371
13.0512
13.0576
13.0373
13.0592
13.0463
13.0396
13.0516
13.0404
13.0366
13.0388
13.0471
13.0514
13.0213
13.0408
13.0431
13.0408
13.048
13.0491
13.0434
13.0608
13.0588
13.0414
13.0537
13.0515
13.059
13.0387
13.0444
13.0509
13.0558
13.0502
13.0269
13.049
13.0483
13.0322
13.048
13.0432
13.0424
13.0265
13.0418
13.0433
13.0401
13.0434
13.0323
13.0361
13.0285
13.0406
13.0389
13.0326
13.0609
13.0501
13.0437
13.0387
13.0499
13.0439
13.0487
13.0263
13.0437
13.0433
13.0467
13.0281
13.0423
13.0495
13.0224
13.0296
13.0259
13.044
13.033
13.0498
13.035
13.0517
13.0212
13.0534
13.0609
13.0339
13.0259
13.0515
13.0481
13.0585
13.0554
13.059
13.0547
13.025
13.0274
13.0597
13.0515
13.0258
13.0427
13.0572
13.0512
13.0256
13.056
13.0525
13.0273
13.0479
13.0479
13.0422
13.0413
13.0469
13.0466
13.0599
13.0257
13.0545
13.0451
13.0431
13.0425
13.0567
13.0423
13.061
13.0482
13.0456
13.0498
13.0415
13.0291
13.0593
13.0468
13.0601
13.0335
13.0598
13.0582
13.0556
13.0446
13.0398
13.0391
13.0593
13.0361
13.0356
13.0242
13.0597
13.0595
13.0576
13.0261
13.0541
13.0321
13.031
13.0585
13.0317
13.0502
13.0336
13.0478
13.0341
13.0285
13.0544
13.0312
13.051
13.0498
13.0516
13.0433
13.0598
13.0423
13.0575
13.0363
13.021
13.0601
13.0481
13.0514
13.0534
13.0415
13.0509
13.042
13.0601
13.0611
13.0596
13.0609
13.0239
13.0244
13.0594
13.0516
13.0245
13.0254
13.0332
13.0372
13.0235
13.0398
13.0251
13.0435
13.0262
13.0267
13.0271
13.0255
13.0261
13.059
13.0598
13.0249
13.0254
13.0485
13.0602
13.0279
13.0274
13.0596
13.0382
13.0407
13.0495
13.0555
13.0588
13.0518
13.0517
13.0597
13.0482
13.0244
13.059
13.0529
13.0313
13.0439
13.0283
13.0292
13.0525
13.0456
13.0404
13.0301
13.0487
13.0246
13.0366
13.0581
13.026
13.0599
13.0591
13.0601
13.0593
13.047
13.0468
13.042
13.0568
13.0505
13.0598
13.0274
13.0601
13.05
13.0295
13.0499
13.0511
13.06
13.0553
13.0268
13.0585
13.0584
13.026
13.0379
13.0284
13.0596
13.0604
13.0597
13.0586
13.0489
13.0447
13.0492
13.0373
13.0594
13.0263
13.0327
13.0578
13.0526
13.0372
13.028
13.03
13.0598
13.0263
13.0302
13.0588
13.0302
13.0559
13.0476
13.0289
13.0594
13.0591
13.0596
13.059
13.044
13.0493
13.0354
13.0496
13.0407
13.0594
13.0587
13.0591
13.0344
13.0435
13.0307
13.0591
13.0281
13.0369
13.0353
13.0278
13.0458
13.0482
13.0502
13.05
13.0297
13.0572
13.0352
13.0261
13.0261
13.0286
13.0507
13.0471
13.0587
13.0345
13.0437
13.0497
13.0598
13.0294
13.0492
13.0581
13.0496
13.0509
13.0321
13.0265
13.0497
13.0599
13.0316
13.0313
13.0342
13.0284
13.0291
13.051
13.0308
13.0457
13.0241
13.0366
13.033
13.0338
13.0548
13.0485
13.0469
13.0592
13.0466
13.0297
13.0514
13.0295
13.0389
13.0586
13.0455
13.0514
13.0345
13.0459
13.0174
13.0499
13.0196
13.0207
13.0365
13.047
13.0505
13.0468
13.0507
13.0466
13.0425
13.0461
13.0253
13.0463
13.0233
13.0503
13.0177
13.0472
13.0459
13.0415
13.0191
13.0386
13.0437
13.0512
13.0435
13.0207
13.02
13.0243
13.0409
13.0431
13.0591
13.0265
13.0495
13.0432
13.0428
13.0444
13.0415
13.0294
13.0467
13.0239
13.0489
13.0271
13.046
13.0427
13.0257
13.0462
13.0468
13.0488
13.0509
13.043
13.0468
13.0301
13.0482
13.045
13.0409
13.0348
13.0466
13.0397
13.0476
13.0464
13.0443
13.0462
13.045
13.0325
13.0459
13.0461
13.0458
13.0441
13.0463
13.0505
13.0456
13.0496
13.043
13.0461
13.048
13.0445
13.0418
13.0368
13.0392
13.0392
13.0364
13.0453
13.0442
13.0379
13.0336
13.0465
13.0453
13.0431
13.0419
13.0469
13.0465
13.0496
13.048
13.0514
13.0561
13.0517
13.0465
13.0499
13.047
13.0512
13.0417
13.0514
13.0475
13.0519
13.0517
13.0477
13.0485
13.0435
13.0504
13.0465
13.0448
13.0247
13.0462
13.0438
13.034
13.0414
13.0443
13.0485
13.0464
13.0422
13.0493
13.0316
13.0437
13.051
13.0394
13.0416
13.0257
13.0454
13.0425
13.0463
13.0456
13.0424
13.05
13.0438
13.0421
13.0453
13.0483
13.037
13.0379
13.0466
13.0469
13.0505
13.0407
13.049
13.0473
13.0455
13.0376
13.047
13.0365
13.0446
13.0387
13.0399
13.0412
13.0354
13.0384
13.0466
13.0427
13.0425
13.0454
13.0437
13.0325
13.0442
13.0466
13.0278
13.0247
13.0404
13.0381
13.049
13.0391
13.0438
13.0452
13.0385
13.0363
13.0434
13.0448
13.0344
13.0463
13.0323
13.0406
13.0359
13.0378
13.0318
13.0446
13.0369
13.0496
13.0388
13.0399
13.041
13.0469
13.0359
13.0464
13.0422
13.0477
13.0459
13.0433
13.0468
13.0466
13.0447
13.0411
13.0461
13.0468
13.0355
13.0466
13.0458
13.0514
13.044
13.0474
13.0468
13.0291
13.0445
13.0454
13.0385
13.0418
13.0421
13.0462
13.0393
13.0458
13.04
13.0363
13.0431
13.0444
13.0484
13.0408
13.0346
13.0448
13.0488
13.046
13.0468
13.0453
13.0433
13.043
13.049
13.0478
13.0491
13.0475
13.0474
13.0507
13.0444
13.0494
13.0466
13.0454
13.0477
13.0362
13.0472
13.0333
13.0463
13.0472
13.0458
13.0455
13.0474
13.0487
13.0505
13.0461
13.0449
13.0463
13.0491
13.0449
13.0453
13.0459
13.0381
13.0453
13.0463
13.0478
13.0477
13.0485
13.0492
13.0392
13.0467
13.0467
13.0308
13.0447
13.0314
13.0397
13.0403
13.0487
13.0499
13.0489
13.0381
13.0309
13.0451
13.047
13.0311
13.0392
13.0451
13.0278
13.0471
13.05
13.0433
13.0497
13.028
13.0512
13.0476
13.0459
13.0511
13.0498
13.0474
13.048
13.0479
13.0487
13.0315
13.0513
13.0461
13.0256
13.0464
13.0465
13.0478
13.0454
13.0495
13.0481
13.0481
13.0495
13.0463
13.0281
13.0294
13.051
13.0505
13.0484
13.0406
13.0508
13.0286
13.0298
13.0481
13.0509
13.0455
13.0494
13.0485
13.029
13.0483
13.0464
13.0268
13.0502
13.0507
13.0451
13.0411
13.0439
13.047
13.0476
13.0456
13.0455
13.0491
13.0488
13.0486
13.0486
13.044
13.0449
13.0512
13.0409
13.0481
13.0429
13.0506
13.0271
13.0473
13.0469
13.0497
13.0598
13.0409
13.0485
13.0513
13.0503
13.0514
13.0508
13.0504
13.0506
13.0381
13.0419
13.0489
13.0515
13.023
13.0511
13.0419
13.0503
13.0177
13.051
13.046
13.0208
13.05
13.0491
13.0507
13.0258
13.0463
13.0502
13.0449
13.0517
13.0448
13.025
13.049
13.0468
13.0494
13.0498
13.0471
13.05
13.0463
13.0495
13.0496
13.0497
13.0498
13.0481
13.0513
13.0498
13.025
13.0492
13.0239
13.0513
13.0515
13.0493
13.0228
13.0501
13.0515
13.0494
13.0487
13.0487
13.0465
13.0484
13.05
13.0514
13.0528
13.049
13.0474
13.0472
13.0513
13.0468
13.047
13.0192
13.0492
13.0494
13.0515
13.0484
13.0486
13.0474
13.0479
13.0501
13.0463
13.0492
13.0469
13.0516
13.0493
13.0543
13.0438
13.0311
13.0509
13.0462
13.0285
13.0461
13.0509
13.0456
13.0508
13.049
13.0479
13.0504
13.0511
13.032
13.0575
13.0496
13.0515
13.0465
13.0403
13.0439
13.0498
13.0314
13.0507
13.0488
13.0553
13.0506
13.0516
13.0499
13.0501
13.0513
13.051
13.0527
13.0501
13.0206
13.0266
13.045
13.0508
13.0501
13.0501
13.0326
13.0509
13.0541
13.0466
13.0509
13.0502
13.0447
13.0497
13.0504
13.0398
13.0525
13.0499
13.0474
13.0486
13.0591
13.0469
13.0502
13.0511
13.0554
13.0498
13.0501
13.0412
13.0463
13.0505
13.02
13.0502
13.0456
13.0455
13.05
13.0453
13.0507
13.0591
13.0503
13.0506
13.0504
13.0467
13.0483
13.0209
13.0594
13.047
13.0468
13.0477
13.0507
13.0479
13.0462
13.0498
13.0474
13.0334
13.06
13.0405
13.0474
13.0255
13.0597
13.0342
13.0511
13.0581
13.0504
13.0483
13.0507
13.0597
13.0486
13.0502
13.0513
13.0495
13.0472
13.0599
13.0233
13.0569
13.0501
13.0448
13.0494
13.0455
13.046
13.0577
13.0501
13.051
13.0462
13.0539
13.0488
13.0247
13.0478
13.0503
13.0471
13.049
13.0493
13.0537
13.048
13.0467
13.0484
13.0556
13.0413
13.0596
13.0591
13.0581
13.049
13.0476
13.059
13.0502
13.0448
13.0451
13.0566
13.0573
13.0553
13.0424
13.0147
13.0404
13.0454
13.0561
13.0598
13.0466
13.059
13.0436
13.0552
13.0252
13.0537
13.0298
13.057
13.0593
13.0596
13.0301
13.0471
13.059
13.0515
13.0586
13.0169
13.0511
13.0405
13.0555
13.0596
13.0581
13.0441
13.0323
13.0598
13.0482
13.0598
13.0589
13.0591
13.0326
13.0268
13.0578
13.0414
13.043
13.0238
13.0195
13.0577
13.0514
13.0593
13.0408
13.0448
13.0586
13.0446
13.0501
13.0407
13.0382
13.0583
13.059
13.0494
13.0384
13.0595
13.0443
13.0388
13.0146
13.0494
13.0291
13.0396
13.048
13.0381
13.0305
13.0419
13.0358
13.0351
13.0189
13.0601
13.0503
13.0462
13.0446
13.0434
13.048
13.0467
13.0306
13.0509
13.0194
13.0587
13.0398
13.0514
13.0338
13.0457
13.0267
13.0359
13.0512
13.045
13.0321
13.0583
13.0421
13.046
13.0483
13.0539
13.0514
13.0589
13.0551
13.049
13.0365
13.0341
13.0495
13.0526
13.0436
13.0206
13.0348
13.0286
13.0492
13.0395
13.041
13.047
13.0461
13.053
13.0411
13.0593
13.0324
13.0502
13.0536
13.0401
13.0397
13.0383
13.0503
13.0376
13.0462
13.0459
13.0402
13.0509
13.045
13.0508
13.0222
13.0365
13.038
13.0491
13.0412
13.0468
13.0499
13.0478
13.0496
13.0587
13.037
13.0517
13.061
13.0355
13.0332
13.0335
13.0485
13.0457
13.0333
13.035
13.0465
13.0499
13.0499
13.0499
13.0423
13.0307
13.0383
13.0504
13.0511
13.0504
13.0239
13.0483
13.0494
13.0595
13.0506
13.0201
13.043
13.0438
13.0384
13.0298
13.0478
13.05
13.0169
13.0493
13.0353
13.0365
13.0398
13.0385
13.0232
13.0367
13.0589
13.0511
13.0507
13.0443
13.0457
13.0455
13.0534
13.0171
13.0421
13.0183
13.0437
13.0613
13.0484
13.0243
13.0275
13.046
13.0158
13.0331
13.0339
13.0364
13.0406
13.05
13.0506
13.0506
13.0594
13.0386
13.0522
13.0517
13.0507
13.0378
13.0296
13.0562
13.0504
13.0475
13.0513
13.0516
13.034
13.0515
13.0244
13.0423
13.0299
13.0511
13.0213
13.0465
13.035
13.0511
13.0515
13.0147
13.0511
13.0512
13.0449
13.0246
13.047
13.0143
13.0287
13.0589
13.0481
13.0207
13.0268
13.0212
13.0371
13.0511
13.0233
13.0181
13.0161
13.0148
13.0167
13.0434
13.0516
13.0385
13.0587
13.0444
13.0462
13.0222
13.0472
13.0474
13.0193
13.0612
13.0455
13.057
13.0477
13.0571
13.0466
13.0391
13.0192
13.048
13.0512
13.0513
13.0479
13.0278
13.0143
13.0196
13.0563
13.0264
13.0214
13.0574
13.0235
13.0476
13.0227
13.0515
13.0199
13.0208
13.0366
13.0507
13.0506
13.0514
13.0503
13.0501
13.0481
13.0508
13.0243
13.0468
13.0437
13.0521
13.0503
13.0471
13.0318
13.0366
13.0483
13.0259
13.0477
13.0469
13.029
13.0477
13.0197
13.049
13.0346
13.0486
13.0482
13.0352
13.0245
13.0236
13.0603
13.0503
13.0204
13.0607
13.0307
13.0172
13.0511
13.0505
13.0466
13.0515
13.0515
13.0499
13.0464
13.0512
13.0514
13.0516
13.0514
13.0474
13.05
13.0462
13.051
13.0507
13.0468
13.0515
13.0516
13.0499
13.0472
13.0464
13.0513
13.044
13.0487
13.036
13.0508
13.048
13.049
13.0491
13.0566
13.0527
13.0467
13.0608
13.0554
13.032
13.0419
13.049
13.0482
13.0304
13.0604
13.0591
13.0477
13.0543
13.0486
13.0512
13.0588
13.0308
13.0538
13.0564
13.0465
13.0515
13.0586
13.0207
13.0486
13.0483
13.0553
13.0596
13.0311
13.0604
13.0511
13.0229
13.0467
13.061
13.0331
13.0588
13.0225
13.0591
13.049
13.0509
13.0469
13.0212
13.0471
13.0593
13.0473
13.0352
13.0319
13.0488
13.0563
13.0515
13.0456
13.0585
13.0517
13.0296
13.0466
13.0586
13.0594
13.0582
13.0433
13.0511
13.0593
13.0591
13.0503
13.0607
13.0467
13.0501
13.0512
13.0588
13.0589
13.0459
13.0477
13.0475
13.0553
13.0203
13.0192
13.0463
13.0585
13.0584
13.0587
13.0485
13.0192
13.0335
13.0529
13.0435
13.0498
13.0455
13.0502
13.0511
13.0611
13.0206
13.0503
13.0498
13.0513
13.0494
13.0279
13.0456
13.0516
13.0612
13.0516
13.0299
13.0511
13.0199
13.0589
13.0437
13.0611
13.0504
13.0439
13.0569
13.0483
13.0481
13.0612
13.0592
13.0467
13.0246
13.0586
13.0515
13.0547
13.0229
13.0517
13.0243
13.0589
13.0223
13.048
13.0447
13.0291
13.0606
13.0515
13.0457
13.0506
13.047
13.051
13.0516
13.0516
13.0511
13.0516
13.0513
13.0481
13.0484
13.0217
13.0526
13.049
13.0494
13.0479
13.0476
13.0315
13.0216
13.0467
13.0517
13.0303
13.0594
13.0597
13.0492
13.049
13.0477
13.059
13.0514
13.0546
13.0542
13.0507
13.0592
13.0587
13.0243
13.0473
13.0419
13.0463
13.0549
13.0211
13.0589
13.0394
13.0239
13.0226
13.0474
13.0604
13.0257
13.0516
13.0511
13.0579
13.0422
13.0514
13.0515
13.0466
13.0598
13.0591
13.0442
13.0495
13.0512
13.0498
13.0593
13.0584
13.0371
13.0352
13.0516
13.0599
13.0432
13.0571
13.0513
13.046
13.0228
13.042
13.0585
13.0211
13.0473
13.0464
13.0459
13.0608
13.0342
13.0494
13.0478
13.0513
13.033
13.0497
13.0241
13.0589
13.0446
13.0195
13.0573
13.034
13.0482
13.0588
13.0612
13.0228
13.0504
13.0501
13.0539
13.0441
13.0462
13.0586
13.048
13.0161
13.0463
13.048
13.0509
13.0365
13.0201
13.0358
13.0515
13.0204
13.0507
13.0581
13.0598
13.0271
13.0505
13.0513
13.0596
13.0269
13.0581
13.0483
13.0217
13.0338
13.0611
13.0284
13.0594
13.0512
13.0338
13.0499
13.0534
13.0442
13.0606
13.0446
13.0463
13.0513
13.0612
13.0498
13.0478
13.0474
13.0484
13.0516
13.0455
13.0484
13.0503
13.05
13.0611
13.048
13.0329
13.0611
13.05
13.0241
13.0597
13.0496
13.0503
13.0432
13.0597
13.0436
13.0214
13.058
13.0438
13.0585
13.05
13.0214
)
;

boundaryField
{
    back
    {
        type            empty;
    }
    front
    {
        type            empty;
    }
    top
    {
        type            zeroGradient;
    }
    outer_arc
    {
        type            zeroGradient;
    }
    bottom
    {
        type            uniformFixedValue;
        uniformValue    
        {
            type            table;
            format          csv;
            file            "outlet_p.csv";
            nHeaderLine     1;
            refColumn       0;
            componentColumns List<label> 1(1);
            separator       ",";
            mergeSeparators 0;
        }
        value           uniform 13.0194;
    }
    inner_arc
    {
        type            zeroGradient;
    }
}


// ************************************************************************* //
