/*--------------------------------*- C++ -*----------------------------------*\
  =========                 |
  \\      /  F ield         | OpenFOAM: The Open Source CFD Toolbox
   \\    /   O peration     | Website:  https://openfoam.org
    \\  /    A nd           | Version:  9
     \\/     M anipulation  |
\*---------------------------------------------------------------------------*/
FoamFile
{
    format      ascii;
    class       volScalarField;
    location    "2.05";
    object      p;
}
// * * * * * * * * * * * * * * * * * * * * * * * * * * * * * * * * * * * * * //

dimensions      [0 2 -2 0 0 0 0];

internalField   nonuniform List<scalar> 
1655
(
11.4705
11.5061
11.3785
11.4532
11.3574
11.3769
11.3841
11.2684
11.2186
11.3602
11.4637
11.4646
11.2773
11.548
11.324
11.4684
11.4427
11.2165
11.4021
11.5487
11.4857
11.2154
11.3209
11.326
11.4688
11.4421
11.4699
11.2308
11.2363
11.494
11.4
11.372
11.5472
11.3741
11.2266
11.3735
11.3746
11.5085
11.5502
11.5043
11.4838
11.3341
11.552
11.4117
11.5199
11.4548
11.4507
11.5215
11.3666
11.5506
11.3788
11.3762
11.2969
11.2273
11.2275
11.333
11.4763
11.4642
11.4553
11.3309
11.3972
11.3913
11.4721
11.2658
11.4199
11.3943
11.4336
11.461
11.2288
11.3326
11.4623
11.3875
11.494
11.3169
11.3829
11.5306
11.2429
11.237
11.4788
11.4939
11.4221
11.5288
11.2222
11.4138
11.4975
11.3282
11.382
11.4914
11.4937
11.3344
11.3324
11.3767
11.4046
11.368
11.5418
11.3992
11.4326
11.4572
11.3706
11.5283
11.3786
11.4271
11.3662
11.4253
11.2123
11.3886
11.2664
11.4939
11.5301
11.3363
11.5478
11.4658
11.3392
11.4995
11.2834
11.3237
11.2736
11.4539
11.4911
11.2151
11.3398
11.3804
11.387
11.4341
11.4302
11.2932
11.5507
11.5415
11.4636
11.509
11.369
11.546
11.2692
11.3011
11.4931
11.5014
11.3514
11.3077
11.4792
11.4361
11.3262
11.4665
11.4575
11.3761
11.4299
11.3833
11.3624
11.3359
11.3469
11.4132
11.4003
11.4235
11.3857
11.3898
11.3206
11.5522
11.4189
11.3654
11.2755
11.4239
11.3643
11.4863
11.2299
11.3704
11.3764
11.4587
11.2325
11.2901
11.4296
11.2373
11.4414
11.2388
11.3517
11.2526
11.495
11.2601
11.3679
11.2548
11.5052
11.5511
11.3307
11.2396
11.3814
11.4359
11.5112
11.5077
11.5259
11.5082
11.2301
11.2461
11.5168
11.394
11.234
11.379
11.5096
11.4938
11.2354
11.5107
11.4945
11.2461
11.4427
11.4426
11.3822
11.3882
11.3379
11.4826
11.5408
11.2358
11.5123
11.3768
11.3773
11.378
11.5038
11.2883
11.5514
11.4367
11.3756
11.4875
11.385
11.2518
11.5245
11.4892
11.5464
11.2704
11.5435
11.5109
11.5068
11.3306
11.396
11.4035
11.5279
11.4228
11.43
11.2468
11.5372
11.5299
11.5123
11.2378
11.5041
11.4446
11.327
11.5131
11.4491
11.4917
11.2708
11.4897
11.4175
11.2371
11.5054
11.2609
11.4089
11.4924
11.3437
11.375
11.5353
11.3824
11.5208
11.2809
11.2572
11.5466
11.4905
11.5013
11.5055
11.3832
11.3372
11.2936
11.5445
11.5524
11.5422
11.5499
11.2914
11.2456
11.5159
11.5007
11.2583
11.2537
11.4219
11.2825
11.2273
11.4864
11.2337
11.3044
11.2663
11.3216
11.346
11.2457
11.2364
11.538
11.5417
11.2445
11.2431
11.4867
11.547
11.2434
11.239
11.5257
11.2641
11.3915
11.4878
11.5142
11.532
11.3686
11.3697
11.5198
11.5015
11.2287
11.5253
11.5025
11.2501
11.5002
11.2667
11.4334
11.5036
11.4883
11.2856
11.2451
11.4847
11.2327
11.4964
11.5242
11.2362
11.5468
11.5361
11.5239
11.5297
11.4579
11.4593
11.2961
11.516
11.3487
11.5363
11.2387
11.5467
11.4986
11.2535
11.5001
11.3462
11.5447
11.508
11.2451
11.5294
11.5142
11.2694
11.4091
11.3264
11.5181
11.5486
11.5236
11.5226
11.4971
11.3017
11.3406
11.4168
11.5318
11.2353
11.4952
11.5119
11.5065
11.2708
11.4898
11.3313
11.5396
11.2335
11.4812
11.5362
11.3336
11.5126
11.323
11.2504
11.52
11.5191
11.5356
11.5278
11.5014
11.3412
11.2624
11.355
11.2806
11.5248
11.5135
11.5288
11.4808
11.2993
11.4843
11.5193
11.2423
11.4978
11.2676
11.2733
11.4988
11.4753
11.3444
11.3529
11.2513
11.5126
11.4967
11.4915
11.2548
11.239
11.3626
11.5027
11.5362
11.4778
11.3074
11.3529
11.5315
11.2518
11.3477
11.5109
11.3553
11.3602
11.4719
11.4849
11.3528
11.5295
11.4658
11.2607
11.4353
11.4881
11.4931
11.3658
11.4749
11.3697
11.4905
11.4946
11.4287
11.441
11.5088
11.4973
11.3819
11.5168
11.3694
11.4922
11.3642
11.4689
11.4689
11.5182
11.3436
11.3656
11.4659
11.4596
11.4759
11.3502
11.487
11.4821
11.4689
11.3753
11.351
11.3766
11.3463
11.379
11.4431
11.3761
11.4784
11.3797
11.4722
11.3651
11.4827
11.3807
11.3688
11.483
11.4725
11.4835
11.4454
11.3664
11.297
11.4788
11.4862
11.4658
11.4803
11.4798
11.5229
11.4752
11.3504
11.4373
11.477
11.4765
11.4664
11.4558
11.3701
11.4888
11.3575
11.4625
11.3724
11.4714
11.469
11.3698
11.3694
11.3551
11.5045
11.433
11.3714
11.4626
11.4092
11.4507
11.4716
11.4203
11.3695
11.4662
11.4045
11.4406
11.4739
11.371
11.4389
11.4323
11.445
11.3701
11.4417
11.4488
11.3706
11.3548
11.4495
11.3936
11.4689
11.3689
11.4123
11.4439
11.454
11.4129
11.3999
11.4149
11.4378
11.4822
11.4404
11.4068
11.453
11.4472
11.4462
11.4553
11.3935
11.4431
11.372
11.4842
11.4435
11.3842
11.5028
11.368
11.4673
11.4258
11.4566
11.4052
11.3848
11.3946
11.4501
11.4917
11.3754
11.4762
11.4361
11.4643
11.4183
11.4638
11.4551
11.4333
11.4514
11.4536
11.4263
11.3803
11.4688
11.416
11.3725
11.4393
11.4195
11.4561
11.3768
11.3722
11.3969
11.4451
11.4888
11.3703
11.3869
11.4788
11.3768
11.3662
11.3973
11.3819
11.4486
11.4538
11.3523
11.4104
11.4775
11.4503
11.4461
11.3624
11.3897
11.4169
11.4421
11.3695
11.4394
11.4215
11.4468
11.4669
11.4301
11.4192
11.4087
11.4535
11.4028
11.4814
11.3362
11.3999
11.3736
11.3939
11.4077
11.3719
11.3707
11.4185
11.4267
11.3848
11.3275
11.4691
11.3874
11.4582
11.4579
11.4504
11.3988
11.3529
11.3911
11.4237
11.4543
11.4595
11.3888
11.4163
11.444
11.4354
11.3708
11.4508
11.4196
11.4362
11.4268
11.4167
11.4253
11.463
11.4167
11.4074
11.4429
11.4554
11.4001
11.4518
11.458
11.4592
11.4506
11.4615
11.3712
11.4718
11.4556
11.459
11.3697
11.4625
11.444
11.4048
11.4457
11.3958
11.4732
11.4517
11.4591
11.4641
11.4686
11.4551
11.3823
11.4388
11.4154
11.4599
11.3839
11.4191
11.4561
11.4598
11.3752
11.4321
11.4578
11.4544
11.4667
11.3869
11.4141
11.4273
11.3804
11.4223
11.4289
11.3869
11.4116
11.3736
11.4285
11.385
11.3842
11.4219
11.457
11.414
11.4294
11.4588
11.3458
11.3911
11.3944
11.4103
11.4222
11.3791
11.4018
11.4629
11.3864
11.4293
11.3807
11.4648
11.4625
11.4576
11.4617
11.475
11.4183
11.3742
11.372
11.4246
11.4455
11.3927
11.3747
11.4406
11.4204
11.4363
11.4493
11.443
11.3577
11.421
11.3958
11.4633
11.4493
11.4036
11.4015
11.2722
11.4608
11.3158
11.4491
11.3886
11.4072
11.4504
11.4215
11.446
11.3893
11.3826
11.406
11.3827
11.4008
11.3767
11.4285
11.4018
11.4277
11.44
11.3725
11.4701
11.4525
11.3951
11.4123
11.3893
11.4709
11.4258
11.4252
11.387
11.4242
11.3633
11.4528
11.4412
11.4088
11.4041
11.3942
11.4744
11.3828
11.445
11.4409
11.3748
11.4064
11.3545
11.3999
11.4252
11.4447
11.3816
11.3751
11.4489
11.4041
11.407
11.3592
11.4362
11.4141
11.4779
11.3941
11.4156
11.4206
11.3927
11.3855
11.3785
11.3886
11.4077
11.409
11.3923
11.4613
11.3967
11.4209
11.4121
11.4495
11.3964
11.3705
11.3684
11.5299
11.4309
11.355
11.3859
11.4099
11.3855
11.3686
11.3719
11.41
11.4746
11.4222
11.3716
11.3704
11.4567
11.3792
11.4287
11.4962
11.4715
11.3756
11.3611
11.4599
11.372
11.3787
11.3756
11.4535
11.4254
11.3793
11.3615
11.3733
11.4353
11.4527
11.3602
11.3577
11.3756
11.4172
11.3577
11.3653
11.4373
11.3827
11.4065
11.3574
11.39
11.3684
11.3914
11.3753
11.237
11.4141
11.4569
11.3821
11.3881
11.3688
11.461
11.4189
11.4946
11.3626
11.4015
11.4958
11.3549
11.3626
11.3827
11.376
11.4948
11.3654
11.3711
11.4389
11.3791
11.3631
11.3515
11.4638
11.3598
11.4092
11.3759
11.4041
11.3658
11.3603
11.3602
11.3549
11.3207
11.4029
11.4363
11.4937
11.3862
11.4982
11.4264
11.4666
11.3483
11.3177
11.4575
11.3695
11.3897
11.4341
11.3933
11.4082
11.363
11.3574
11.3595
11.2565
11.5151
11.4147
11.3636
11.5025
11.2873
11.4314
11.357
11.2571
11.4005
11.4109
11.5005
11.3685
11.3654
11.3524
11.4172
11.3618
11.4028
11.497
11.3549
11.4642
11.4657
11.3098
11.3572
11.3431
11.3505
11.453
11.4
11.4971
11.368
11.3595
11.3902
11.4256
11.3623
11.3866
11.2947
11.498
11.3478
11.3283
11.34
11.5267
11.3309
11.3538
11.3597
11.5016
11.4122
11.4126
11.4979
11.3487
11.3936
11.4682
11.3595
11.3661
11.4301
11.3596
11.3697
11.3863
11.5196
11.3552
11.357
11.3974
11.3723
11.3195
11.466
11.538
11.3656
11.433
11.3685
11.3428
11.3365
11.4295
11.3455
11.3655
11.471
11.5177
11.3111
11.4323
11.4615
11.5342
11.4937
11.3964
11.5146
11.4146
11.3327
11.3588
11.5428
11.3402
11.4146
11.3957
11.3483
11.3209
11.5257
11.469
11.5098
11.3527
11.3655
11.3417
11.3668
11.3263
11.5095
11.3504
11.3611
11.3679
11.5003
11.3383
11.4731
11.332
11.3483
11.3225
11.3396
11.3464
11.5015
11.3293
11.3267
11.3375
11.5001
11.2995
11.5201
11.524
11.5147
11.3413
11.331
11.5336
11.3454
11.3071
11.3174
11.5082
11.5131
11.5054
11.3057
11.4764
11.3178
11.3192
11.5098
11.5253
11.3269
11.5226
11.311
11.504
11.4559
11.5061
11.4741
11.513
11.5329
11.5401
11.288
11.3176
11.5219
11.365
11.5141
11.4666
11.4018
11.278
11.5082
11.5288
11.518
11.3148
11.2658
11.5239
11.5037
11.5308
11.5169
11.5183
11.4783
11.2917
11.5128
11.3042
11.3059
11.224
11.212
11.5395
11.3984
11.5234
11.4601
11.367
11.5178
11.3032
11.3518
11.3004
11.2813
11.5146
11.5189
11.3469
11.2895
11.545
11.3186
11.4796
11.4806
11.3366
11.2931
11.4949
11.3369
11.2873
11.2479
11.4838
11.2766
11.2874
11.2086
11.5563
11.3336
11.4893
11.3188
11.3138
11.3205
11.3305
11.2462
11.3579
11.2146
11.5131
11.2942
11.3683
11.2662
11.3048
11.2817
11.2756
11.3644
11.4854
11.2568
11.5123
11.3024
11.4849
11.3396
11.508
11.3656
11.5407
11.5094
11.344
11.3007
11.265
11.4929
11.5074
11.4889
11.2136
11.2617
11.335
11.3438
11.4067
11.3955
11.3303
11.3265
11.5108
11.499
11.5429
11.2554
11.3371
11.5051
11.2904
11.395
11.2737
11.3533
11.4084
11.4921
11.3057
11.2927
11.3575
11.3119
11.3606
11.1976
11.4316
11.4192
11.345
11.2935
11.5001
11.3306
11.3365
11.3461
11.5407
11.2771
11.5027
11.5579
11.4222
11.4351
11.2939
11.3314
11.3692
11.4491
11.4415
11.3705
11.351
11.3495
11.3491
11.2921
11.445
11.2793
11.5033
11.4968
11.3541
11.4559
11.3396
11.346
11.535
11.3409
11.2119
11.2965
11.4934
11.4899
11.4444
11.3254
11.3505
11.4671
11.4972
11.4906
11.271
11.4866
11.4921
11.2183
11.2694
11.5383
11.3615
11.3566
11.4856
11.4649
11.4782
11.5038
11.4842
11.2857
11.4753
11.4906
11.5544
11.4937
11.4592
11.487
11.4951
11.4698
11.4882
11.4853
11.4869
11.4032
11.3507
11.355
11.3579
11.5379
11.4015
11.5042
11.3688
11.4901
11.427
11.4522
11.5302
11.3533
11.499
11.362
11.3659
11.4289
11.3645
11.2318
11.4766
11.4813
11.5009
11.4627
11.3692
11.4462
11.3605
11.3637
11.4776
11.3617
11.4978
11.3235
11.4802
11.4515
11.4734
11.4483
11.5314
11.4872
11.2259
11.4592
11.4598
11.2644
11.4958
11.4831
11.4694
11.4708
11.4799
11.4784
11.4923
11.4998
11.4938
11.532
11.496
11.4644
11.4762
11.4507
11.4467
11.4851
11.552
11.4916
11.5319
11.4439
11.5048
11.4602
11.472
11.4822
11.4388
11.3618
11.3641
11.4835
11.4525
11.4739
11.463
11.5041
11.2272
11.2169
11.5078
11.2181
11.4483
11.2217
11.4975
11.2158
11.2287
11.4572
11.4133
11.4913
11.3816
11.3558
11.3518
11.4797
11.3573
11.2265
11.3155
11.3499
11.5009
11.3522
11.4479
11.4504
11.2581
11.435
11.2255
11.44
11.4743
11.2317
11.4349
11.213
11.4898
11.4119
11.4327
11.4311
11.2529
11.262
11.2291
11.5552
11.416
11.2147
11.5559
11.4304
11.2086
11.4071
11.416
11.4683
11.3864
11.3817
11.4238
11.4663
11.4023
11.3918
11.3773
11.3969
11.4743
11.4192
11.4643
11.4101
11.4144
11.4696
11.3892
11.3796
11.4216
11.4726
11.4655
11.4
11.3596
11.4334
11.4081
11.4989
11.3283
11.336
11.4324
11.5053
11.5032
11.4911
11.5503
11.5225
11.4325
11.3426
11.4822
11.478
11.2402
11.5484
11.5252
11.4475
11.4979
11.3337
11.4899
11.53
11.243
11.513
11.5196
11.4683
11.3786
11.5115
11.2157
11.4802
11.4823
11.5177
11.5531
11.4258
11.5486
11.4041
11.3082
11.3138
11.5519
11.2506
11.5157
11.2222
11.5206
11.4818
11.4116
11.471
11.276
11.3199
11.5414
11.4738
11.2567
11.4593
11.4958
11.5214
11.3872
11.3103
11.5345
11.3732
11.4364
11.4628
11.535
11.5438
11.5314
11.2912
11.3627
11.5213
11.5254
11.3548
11.5585
11.472
11.4861
11.4899
11.5336
11.5294
11.3772
11.438
11.4464
11.5007
11.2139
11.2129
11.4606
11.5332
11.5387
11.5389
11.4305
11.2093
11.2487
11.5042
11.346
11.4252
11.3511
11.4186
11.4942
11.5558
11.1948
11.3537
11.4279
11.3938
11.3465
11.3273
11.3083
11.3733
11.554
11.3736
11.3099
11.4949
11.1739
11.5429
11.3775
11.5528
11.355
11.2944
11.5269
11.4405
11.4385
11.5534
11.5168
11.4606
11.304
11.513
11.3664
11.5106
11.223
11.3667
11.2777
11.5396
11.2159
11.4945
11.3656
11.3287
11.5501
11.3974
11.309
11.3588
11.3166
11.3631
11.3704
11.3666
11.3629
11.3675
11.3652
11.4413
11.4386
11.2537
11.4938
11.3403
11.4839
11.4454
11.4484
11.2405
11.2207
11.4615
11.3707
11.4376
11.5451
11.5454
11.4307
11.4838
11.4446
11.5274
11.3653
11.5203
11.4968
11.4881
11.5238
11.5476
11.2308
11.4759
11.3441
11.3755
11.4994
11.2178
11.5318
11.3364
11.2247
11.2744
11.45
11.5487
11.2243
11.3716
11.4072
11.5086
11.3405
11.3646
11.3711
11.4667
11.5523
11.5435
11.3494
11.4296
11.4079
11.3478
11.5178
11.5371
11.4092
11.2551
11.3722
11.5462
11.292
11.523
11.3969
11.4663
11.2241
11.2852
11.5365
11.213
11.45
11.4678
11.3128
11.5511
11.4637
11.3432
11.476
11.3839
11.2474
11.3448
11.2195
11.515
11.3721
11.2111
11.5071
11.4229
11.4411
11.5377
11.5567
11.2246
11.4157
11.3508
11.4974
11.379
11.3724
11.5361
11.4404
11.2017
11.4621
11.4393
11.4947
11.2595
11.2067
11.256
11.3839
11.2084
11.3589
11.5405
11.5463
11.3258
11.4162
11.3863
11.5442
11.3038
11.5086
11.4789
11.2194
11.305
11.5523
11.3391
11.545
11.3649
11.4493
11.4226
11.4961
11.3577
11.5504
11.3477
11.3144
11.3633
11.5532
11.3496
11.4474
11.4479
11.4403
11.3674
11.3722
11.4798
11.417
11.486
11.5519
11.4778
11.2448
11.5513
11.4867
11.2733
11.5455
11.3448
11.4877
11.3475
11.548
11.358
11.2185
11.5353
11.3517
11.5387
11.3498
11.2137
)
;

boundaryField
{
    back
    {
        type            empty;
    }
    front
    {
        type            empty;
    }
    top
    {
        type            zeroGradient;
    }
    outer_arc
    {
        type            zeroGradient;
    }
    bottom
    {
        type            uniformFixedValue;
        uniformValue    
        {
            type            table;
            format          csv;
            file            "outlet_p.csv";
            nHeaderLine     1;
            refColumn       0;
            componentColumns List<label> 1(1);
            separator       ",";
            mergeSeparators 0;
        }
        value           uniform 11.2096;
    }
    inner_arc
    {
        type            zeroGradient;
    }
}


// ************************************************************************* //
