/*--------------------------------*- C++ -*----------------------------------*\
  =========                 |
  \\      /  F ield         | OpenFOAM: The Open Source CFD Toolbox
   \\    /   O peration     | Website:  https://openfoam.org
    \\  /    A nd           | Version:  9
     \\/     M anipulation  |
\*---------------------------------------------------------------------------*/
FoamFile
{
    format      ascii;
    class       volVectorField;
    location    "2.05";
    object      U;
}
// * * * * * * * * * * * * * * * * * * * * * * * * * * * * * * * * * * * * * //

dimensions      [0 1 -1 0 0 0 0];

internalField   nonuniform List<vector> 
942
(
(0.108464 -0.199697 0)
(0.168512 0.02102 2.73541e-17)
(0.0463316 0.219226 0)
(0.0481611 -0.260603 -1.45298e-17)
(0.0458056 0.23495 8.60049e-18)
(0.113143 -0.0929774 1.53931e-17)
(0.0459252 -0.0820098 4.05791e-17)
(0.121012 -0.0934236 0)
(-0.00749869 -0.163485 -3.1965e-17)
(0.000332115 -0.182084 3.25782e-17)
(0.0729152 0.0266822 0)
(0.168453 -0.0616042 0)
(0.0397995 -0.268536 1.35553e-17)
(0.103042 0.0612336 0)
(0.178154 -0.0605494 0)
(0.15782 0.0128746 -2.97324e-17)
(0.207928 0.174325 -1.15965e-17)
(0.106521 -0.203303 0)
(0.1751 0.144484 -3.47696e-18)
(0.0931974 0.0299546 5.38335e-18)
(0.202691 0.160533 1.97622e-17)
(0.168847 -0.0660478 1.61324e-17)
(0.109264 -0.166051 0)
(0.0754893 0.183033 -3.14387e-17)
(0.069239 0.022543 0)
(0.074265 0.151359 2.37178e-17)
(0.054295 0.22939 0)
(0.106112 -0.167982 2.02713e-17)
(0.144022 0.186221 0)
(0.107122 -0.17377 1.28613e-17)
(0.0887902 0.119116 1.5979e-17)
(0.0488476 0.210456 0)
(0.124969 0.204233 1.49767e-17)
(0.126954 -0.0649884 1.78397e-17)
(0.0809611 0.228218 -1.7308e-17)
(0.140917 -0.143537 3.35093e-17)
(0.142176 -0.162936 1.12665e-18)
(0.0580765 -0.144275 0)
(0.135995 -0.164058 -5.75531e-19)
(0.0861389 0.201535 2.2454e-17)
(0.170667 -0.0769351 -3.1853e-17)
(0.170827 -0.120149 0)
(0.0938021 0.218225 -1.54987e-17)
(0.0671115 -0.116621 -1.35317e-17)
(0.0700588 -0.111505 -3.41495e-17)
(0.213471 0.190957 7.56719e-18)
(0.130076 0.0865365 -1.5511e-17)
(0.113604 -0.0481371 -1.47125e-17)
(0.183576 -0.0681449 1.64002e-17)
(0.100472 0.0438101 1.91145e-17)
(0.164804 0.146859 0)
(0.104831 -0.172197 0)
(0.149785 -0.155258 -2.259e-17)
(0.0422415 0.165314 1.7768e-17)
(0.00323747 -0.224149 0)
(0.175984 -0.0967509 -1.19926e-17)
(0.0908013 -0.0183973 -3.03128e-17)
(0.0100506 -0.231111 -2.17484e-18)
(0.133059 -0.0201223 3.88195e-17)
(0.188063 0.00592596 1.67613e-17)
(0.0924555 -0.153432 -1.59957e-17)
(0.0661213 0.231116 -4.0746e-17)
(0.137225 -0.0882294 1.91352e-17)
(0.110468 -0.190223 -1.56855e-17)
(0.0787343 -0.142981 1.49004e-17)
(0.170863 -0.00230983 1.13972e-17)
(0.0585796 0.215191 3.18912e-17)
(0.111206 0.0219576 -1.47401e-17)
(0.174662 -0.0939923 1.51874e-17)
(0.0718515 -0.136488 4.19063e-18)
(0.157439 0.0221484 0)
(0.00919542 -0.134549 0)
(0.0868994 0.00381253 -1.98029e-18)
(0.105906 -0.181852 3.84878e-18)
(0.0518674 0.167115 -1.6857e-17)
(0.109617 0.0464809 -9.35012e-22)
(0.123923 0.0321733 1.98322e-18)
(0.0717482 0.216926 1.75776e-17)
(0.0803731 0.110079 -1.91105e-17)
(0.173875 0.0104434 -3.89766e-18)
(0.0874672 -0.0830891 2.32866e-17)
(0.0900944 0.145871 -8.23469e-18)
(0.0477363 0.0279523 -2.11069e-18)
(0.159063 0.00336222 8.57474e-18)
(0.151677 -0.00605631 0)
(0.0383046 0.210372 0)
(0.151135 -0.000273963 -1.75499e-17)
(0.155583 -0.0421948 4.84335e-18)
(0.111675 0.0663105 0)
(0.0495917 0.0364044 2.41446e-17)
(0.175956 -0.112888 -1.22329e-17)
(0.086307 0.180318 5.49806e-19)
(0.0176637 -0.254074 2.441e-18)
(0.180423 -0.0870638 0)
(0.173268 -0.10975 -4.72423e-18)
(0.0914101 0.0659851 8.71187e-18)
(0.168083 -0.124133 1.50565e-17)
(0.146922 -0.0412735 -1.40716e-17)
(0.0953106 -0.0936375 -2.09792e-17)
(0.0768322 -0.136189 -2.99083e-17)
(0.0368162 -0.138581 -9.01345e-18)
(0.0194677 -0.263651 1.00872e-17)
(0.151616 0.117693 0)
(0.0737879 -0.128939 1.15368e-17)
(0.173877 -0.111663 -1.8111e-17)
(0.0909297 -0.1565 -2.93136e-17)
(0.210784 0.184307 -1.01143e-17)
(0.202356 0.192899 0)
(0.0969185 -0.0151674 1.59306e-17)
(0.105011 0.037485 0)
(0.171165 -0.105697 0)
(0.18399 -0.0824348 -1.60051e-17)
(0.137959 0.0301282 3.1997e-17)
(2.33813e-05 -0.136223 0)
(0.0859371 0.0268748 0)
(0.0558094 0.118036 2.14446e-18)
(0.194889 0.0814989 -1.71455e-17)
(0.0666045 -0.245619 1.82981e-17)
(0.0600678 -0.125792 3.44473e-21)
(0.188021 -0.104771 -2.09493e-18)
(0.0809499 -0.162221 6.99566e-18)
(0.160245 -0.127864 -1.79635e-17)
(0.0618348 0.15544 0)
(0.128001 0.00972262 1.58908e-17)
(0.128966 0.00235557 1.28666e-17)
(0.0664488 0.112743 -3.39626e-17)
(0.0735688 -0.118434 1.80781e-17)
(0.131808 0.212681 -1.70248e-17)
(0.170206 0.204978 3.11448e-17)
(0.109494 -0.105745 1.6465e-17)
(0.179222 0.117246 -8.43003e-18)
(0.216255 0.157637 -1.94123e-17)
(0.131675 0.0720735 0)
(0.126162 -0.0353167 0)
(0.09458 -0.00618884 -1.77009e-17)
(0.232122 0.191668 -1.21263e-17)
(0.182414 -0.117364 1.07195e-18)
(0.0968119 0.0311981 0)
(0.197988 -0.0948643 2.19262e-17)
(0.203002 -0.0768397 -7.49679e-18)
(0.181216 -0.0589007 1.76289e-17)
(0.209861 0.199344 0)
(0.162293 0.0737957 -1.75123e-17)
(0.0590407 0.109689 1.88503e-17)
(0.116218 -0.0832614 -4.45275e-18)
(0.105365 0.190939 -7.92719e-18)
(0.0634657 -0.12961 0)
(0.016239 -0.143165 -1.07191e-17)
(0.14323 -0.154739 2.68156e-17)
(0.041731 0.220184 0)
(0.125324 -0.0831328 4.8124e-18)
(0.208779 -0.0808457 5.29854e-18)
(0.100616 0.199856 0)
(0.0886592 -0.115507 1.00276e-17)
(0.0861255 0.21222 -1.72141e-17)
(0.130474 -0.164114 0)
(0.15237 -0.0145668 1.95629e-17)
(0.00254733 -0.0940248 0)
(0.207477 0.0486213 0)
(0.106279 0.0555306 7.2457e-18)
(0.160949 -0.015776 -2.53369e-17)
(0.131416 -0.164666 0)
(0.0386467 -0.261508 0)
(0.136153 -0.0654656 8.96325e-18)
(0.191293 -0.0746891 0)
(0.119928 0.108622 -2.64179e-17)
(0.0442554 -0.142154 0)
(0.0825417 -0.134785 0)
(0.2075 0.184838 1.54448e-17)
(0.12512 0.0789064 1.85671e-17)
(0.111273 -0.0395754 -1.55569e-17)
(0.182337 -0.077302 -2.05894e-18)
(0.161831 -0.115621 1.41968e-22)
(0.0974351 -0.168119 1.00035e-17)
(0.0380594 0.221861 0)
(0.0658643 -0.17263 -1.95374e-17)
(0.078395 0.0551833 -1.84716e-17)
(0.0607933 -0.178015 0)
(0.177509 -0.0911493 6.41573e-19)
(0.0798773 -0.170455 0)
(0.0802073 -0.113833 -1.17499e-17)
(0.162359 0.18418 0)
(0.144012 -0.154539 -2.29597e-17)
(0.0755276 -0.177395 3.03414e-21)
(0.106728 -0.200935 -1.15873e-17)
(0.101502 0.162258 0)
(0.209619 0.165117 -9.04436e-18)
(0.0493904 0.176659 1.81453e-17)
(0.0455242 0.248456 2.57278e-17)
(0.0893662 -0.173281 8.80289e-18)
(0.0943244 0.18908 3.49254e-17)
(0.0928184 -0.166776 -8.81977e-18)
(0.107814 -0.175365 -1.1094e-17)
(0.10318 0.11323 -1.66746e-17)
(0.0557314 0.152625 9.20741e-18)
(0.0434669 -0.254608 -8.34435e-18)
(0.0739301 0.130923 0)
(0.1073 -0.178134 2.9913e-17)
(0.160293 -0.0805791 -2.14282e-17)
(0.0382791 0.155765 1.59963e-17)
(0.0230917 -0.0643965 0)
(0.055201 -0.246131 8.46679e-18)
(0.0530274 0.129179 0)
(0.203476 0.173401 -1.94197e-17)
(0.15282 0.0966611 1.85396e-17)
(0.180872 -0.0793332 0)
(0.167064 -0.118156 1.85177e-17)
(0.0517246 0.208442 -4.00154e-17)
(0.0636755 0.223301 -1.54615e-17)
(0.0563395 0.190653 1.53391e-17)
(0.0643853 0.156602 -8.93359e-18)
(0.050784 -0.229778 4.13471e-21)
(0.0057941 -0.187801 1.44684e-17)
(0.069693 0.244 8.47896e-18)
(0.0602582 0.111568 0)
(0.0917813 -0.204865 -2.65944e-21)
(0.0438874 0.254393 -2.11446e-17)
(0.134935 0.108958 1.79239e-17)
(0.0849183 0.133589 1.77222e-17)
(0.0958213 0.111302 2.3401e-21)
(0.102358 -0.193497 0)
(0.0971498 -0.209731 -1.72401e-17)
(0.101363 -0.168205 0)
(0.0744822 -0.218447 0)
(0.0113248 -0.0791219 -1.81596e-17)
(0.026987 0.106846 1.77645e-17)
(0.0802815 0.237078 -1.24996e-17)
(0.111842 -0.184784 -1.77498e-17)
(0.0388589 -0.099425 2.64739e-17)
(0.114996 0.0963577 0)
(0.115125 0.152719 -1.62426e-17)
(0.0577323 0.212298 -3.13103e-17)
(0.0381357 0.112401 1.71962e-17)
(0.0255514 -0.0827736 -9.55765e-18)
(0.0953177 -0.197254 -8.92473e-18)
(0.034688 -0.223571 3.22566e-21)
(0.130648 0.131551 -1.85891e-17)
(0.105697 -0.187971 1.7824e-17)
(0.103448 0.0991288 -1.69342e-17)
(0.106609 0.112765 1.75451e-17)
(0.116709 0.0975621 0)
(0.08443 -0.130065 -4.35509e-18)
(0.11331 -0.175013 8.79931e-18)
(0.0631441 -0.157925 -9.96029e-18)
(0.0753207 -0.156858 -1.7632e-17)
(0.0718383 0.113399 -1.75858e-17)
(0.122263 -0.176155 8.85078e-18)
(0.0809856 -0.209453 -9.58134e-18)
(0.116253 -0.17975 -1.77472e-17)
(0.0941567 0.101725 4.33103e-18)
(0.0825642 0.215637 -4.41004e-18)
(0.179832 -0.0797228 -1.63378e-17)
(0.102808 0.187601 0)
(0.0814387 0.10278 1.3075e-17)
(0.0875238 -0.155026 1.75131e-17)
(0.059866 -0.21971 1.93932e-17)
(0.105731 -0.176428 0)
(0.104288 -0.161507 0)
(0.141632 0.0847666 -8.7789e-18)
(0.0670849 -0.150639 9.92001e-18)
(0.105918 -0.196053 -8.72742e-18)
(0.138955 0.0812226 8.63902e-18)
(0.0869579 0.229022 -2.14966e-17)
(0.0982241 -0.151465 -4.62917e-18)
(0.123406 -0.176777 9.17966e-18)
(-0.00238922 -0.163897 0)
(0.0784694 -0.150533 0)
(0.114783 -0.155412 0)
(0.112893 0.126054 1.65337e-17)
(0.126922 -0.17099 8.94517e-18)
(0.132336 -0.166952 1.691e-17)
(0.0525698 0.252825 -1.59973e-17)
(0.170656 -0.0848507 1.90294e-17)
(0.0635323 0.252008 -8.44557e-18)
(0.0652383 0.185447 1.78176e-17)
(0.133896 0.0919767 -1.78653e-17)
(0.111757 0.143971 0)
(0.12498 -0.12463 0)
(0.0957723 0.160626 -8.80073e-18)
(0.124985 -0.164376 -1.83347e-17)
(0.0894239 -0.148876 0)
(0.142208 -0.141622 -1.5007e-18)
(0.124329 -0.158033 1.86188e-17)
(0.126627 -0.132184 0)
(0.191338 0.14608 3.44368e-17)
(0.238434 0.057117 -1.7199e-17)
(0.118092 -0.139727 2.6332e-17)
(0.12412 -0.148235 1.74868e-17)
(0.0996484 -0.144022 4.5357e-18)
(0.108815 -0.146207 4.5078e-18)
(0.191381 0.131307 -1.74594e-17)
(0.169669 -0.0947067 2.07497e-17)
(0.129177 0.0931923 -7.99937e-18)
(0.154136 -0.145524 1.96123e-17)
(0.115875 -0.114639 4.98635e-18)
(0.205374 0.188645 -1.57404e-17)
(0.23668 -0.0127599 0)
(0.249364 0.0245078 8.90043e-18)
(0.250418 -0.0374763 8.299e-18)
(0.246839 0.0911133 0)
(0.219372 0.176632 0)
(0.118176 -0.132104 -9.00725e-18)
(0.217786 -0.0862344 -4.02688e-18)
(0.18795 -0.0809824 -2.8081e-17)
(0.213154 0.188611 -2.75388e-17)
(0.116601 -0.169137 8.7712e-18)
(0.180735 -0.0991898 -2.78495e-17)
(0.0832795 -0.0280196 0)
(0.0748887 0.0318452 -8.08231e-18)
(0.0652065 0.116396 1.67714e-17)
(0.0413843 -0.0805772 1.38017e-17)
(0.0335805 0.0151477 1.64359e-21)
(0.0730654 -0.0436298 -2.43724e-18)
(0.0852736 0.0067486 -1.6916e-17)
(0.161288 -0.133809 4.98099e-21)
(0.074096 0.0709365 2.70765e-17)
(0.0548259 -0.0646994 -1.86337e-17)
(0.0855602 -0.0115619 -2.55435e-21)
(0.0453925 0.0250459 -4.80045e-18)
(0.0806951 -0.0355873 0)
(0.0869263 0.0186841 -4.95703e-18)
(0.075805 0.0976875 0)
(0.0455886 -0.0673819 1.95592e-17)
(0.0842228 -0.00117671 -3.47863e-17)
(0.160674 -0.0986565 -2.18141e-17)
(0.137252 0.064263 -1.78056e-17)
(0.0490864 0.0287855 0)
(0.152494 -0.145367 -9.04366e-18)
(0.168866 -0.12119 0)
(0.0626226 -0.0549119 0)
(0.198872 0.170956 -3.44321e-17)
(0.14351 -0.157871 -1.54244e-17)
(0.145871 -0.120126 8.80393e-18)
(0.20195 -0.0882632 -1.58073e-17)
(0.137731 -0.112718 0)
(0.198051 0.180801 1.72254e-17)
(0.184305 -0.0840479 1.00188e-17)
(0.200016 0.191188 -5.06673e-19)
(0.203228 0.19335 0)
(0.168311 -0.138432 -1.72967e-17)
(0.205006 0.190159 2.52975e-17)
(0.130734 0.0950758 -1.7475e-17)
(0.177401 -0.107452 -4.56449e-18)
(0.202013 0.196679 -4.29612e-17)
(0.26296 0.0924245 -1.76069e-17)
(0.20272 0.174437 0)
(0.244434 0.138829 1.78837e-17)
(0.163285 -0.128383 1.75136e-17)
(0.122442 -0.154778 1.74902e-17)
(0.269373 0.0348163 -8.69135e-18)
(0.202132 0.194295 1.72142e-17)
(0.264843 -0.0199623 -5.9016e-21)
(0.155488 -0.140107 -4.45226e-17)
(0.249018 -0.0575559 -9.12818e-18)
(0.195503 0.188618 -1.53657e-17)
(0.129716 -0.113992 0)
(0.220887 0.166734 1.75893e-17)
(0.146452 -0.150954 0)
(0.198936 0.177983 8.62618e-18)
(0.152069 0.115446 1.74761e-17)
(0.224275 -0.0715064 2.23102e-17)
(0.158708 -0.093664 0)
(0.184063 -0.0487414 -2.46467e-18)
(0.136432 -0.162675 1.48938e-17)
(0.19201 -0.0790631 -1.77127e-17)
(0.199937 -0.0432715 9.23832e-18)
(0.161563 -0.0776701 -8.93393e-18)
(0.136255 0.0813503 3.99781e-17)
(0.181958 -0.0952172 2.64149e-17)
(0.138784 0.0784526 -4.55479e-18)
(0.166761 -0.102153 0)
(0.202355 0.196275 1.70179e-17)
(0.0995682 0.0515859 -8.73069e-18)
(0.169809 -0.115918 -1.69765e-17)
(0.202057 0.192041 8.69968e-18)
(0.269331 0.0624445 8.67714e-18)
(0.204169 0.189195 8.71828e-18)
(0.252962 0.113172 1.79356e-17)
(0.134243 -0.158037 8.61859e-18)
(0.27254 0.00779696 8.64931e-18)
(0.0861995 0.14719 1.94678e-17)
(0.0606752 -0.119349 0)
(0.0866383 -0.00823738 1.76764e-17)
(0.116933 -0.0954927 0)
(0.15974 0.115947 4.32348e-18)
(0.263327 -0.0364458 2.73706e-17)
(0.201684 -0.0760535 3.49042e-17)
(0.192254 -0.0575511 2.69996e-18)
(0.228566 0.148642 -3.57381e-17)
(0.239586 -0.0592422 -3.67502e-17)
(0.0700484 0.023501 -8.96803e-18)
(0.144266 -0.0669446 -4.46939e-18)
(0.132619 -0.105077 0)
(0.218337 -0.0229876 1.80065e-17)
(0.122811 -0.0341821 4.71016e-18)
(0.149947 -0.109356 0)
(0.169762 -0.0823624 1.73218e-17)
(0.06013 0.00808702 4.60729e-18)
(0.159883 0.132303 8.93515e-18)
(0.131442 -0.0796803 -1.14332e-18)
(0.148882 -0.0523244 -7.86718e-18)
(0.159503 -0.127078 -2.60838e-17)
(0.187237 -0.04366 0)
(0.155218 -0.0838317 8.30305e-18)
(0.185998 -0.0878768 0)
(0.192112 0.173562 0)
(0.137206 -0.158946 0)
(0.202997 0.168051 0)
(0.174926 -0.109436 8.70892e-18)
(0.0898932 -0.117384 2.64658e-17)
(0.139687 0.135647 -1.86388e-17)
(0.205751 -0.050453 8.7579e-18)
(0.166999 -0.0965027 0)
(0.215869 -0.0625453 2.62411e-17)
(0.192539 -0.0776643 0)
(0.136744 -0.1518 -8.79331e-18)
(0.143531 -0.148287 8.80065e-18)
(0.164256 -0.108818 8.70501e-18)
(0.181591 0.135456 1.73255e-17)
(0.165653 -0.115475 8.70174e-18)
(0.152694 -0.0973928 1.82953e-17)
(0.179728 -0.097514 -3.50474e-17)
(0.140141 -0.102566 0)
(0.147173 -0.127426 -8.68215e-18)
(0.186736 -0.0839978 1.74933e-17)
(0.204929 -0.0695459 -1.74696e-17)
(0.191409 0.180596 0)
(0.10845 0.0885368 1.82895e-17)
(0.223121 -0.0428766 1.75779e-17)
(0.199753 -0.0147041 -3.2499e-17)
(0.168375 -0.0335994 0)
(0.237127 -0.0445779 1.75221e-17)
(0.202673 -0.0341828 0)
(0.123957 0.116674 0)
(0.131353 -0.153992 0)
(0.156637 -0.105433 0)
(0.269534 0.0173415 2.6037e-17)
(0.153053 -0.116826 0)
(0.174953 -0.103821 8.78729e-18)
(0.216672 -0.0325371 -1.83818e-17)
(0.15962 -0.12058 8.68555e-18)
(0.175915 -0.0752219 -1.60436e-17)
(0.246815 0.104874 -1.74113e-17)
(0.233786 -0.0182251 0)
(0.13166 -0.146721 -1.75063e-17)
(0.215252 -0.0530888 -2.62078e-17)
(0.181379 0.169876 0)
(0.144267 0.135611 0)
(0.170061 -0.103282 0)
(0.152055 -0.138258 1.74659e-17)
(0.190375 0.15133 -4.81529e-21)
(0.101406 0.0942959 5.23308e-21)
(0.101568 0.0944897 -1.80551e-17)
(0.153078 -0.131882 0)
(0.165801 0.15352 0)
(0.180155 0.14929 0)
(0.18095 0.16864 0)
(0.201175 0.0247864 0)
(0.145445 -0.142407 -8.7545e-18)
(0.122377 0.116004 -1.77401e-17)
(0.258679 -0.0217491 2.61254e-17)
(0.265418 0.0638704 -8.69447e-18)
(0.129772 0.163492 1.73636e-17)
(0.167674 0.147717 -8.65836e-18)
(0.181416 0.0869713 8.81019e-18)
(0.147752 0.128177 -8.70508e-18)
(0.132532 -0.123855 0)
(0.244869 -0.0297355 -1.75069e-17)
(0.261631 -0.00266948 -3.46702e-17)
(0.137804 0.0649657 0)
(0.264473 0.036756 -1.73584e-17)
(0.233282 0.0697833 -1.76506e-17)
(0.251397 0.0786682 0)
(0.200774 -0.0659808 0)
(0.169103 0.106094 -2.36949e-21)
(0.130332 0.0771929 7.93885e-18)
(0.179088 -0.0914448 0)
(0.17684 0.115238 -2.60877e-17)
(0.193559 -0.0720761 0)
(0.182083 0.102336 0)
(0.124027 -0.166839 -1.73955e-17)
(0.170694 0.0905957 -1.73774e-17)
(0.219308 0.133407 0)
(0.151995 0.0926049 -1.73893e-17)
(0.184702 -0.0854919 -8.75314e-18)
(0.165403 0.135716 1.73265e-17)
(0.199943 -0.0588831 -1.79112e-17)
(0.22635 0.111931 1.73989e-17)
(0.172923 -0.0904505 0)
(0.141701 0.0522815 -8.71499e-18)
(0.102054 0.0324836 -3.09332e-17)
(0.144894 0.129423 0)
(0.116728 0.0518519 0)
(0.195739 0.135165 2.59758e-17)
(0.126861 -0.160968 -1.70958e-17)
(0.142488 0.0698756 0)
(0.149124 0.106868 1.73873e-17)
(0.132229 0.11013 3.66131e-17)
(0.163867 0.146409 -1.73205e-17)
(0.140218 -0.137529 0)
(0.102124 0.0855067 3.714e-17)
(0.159228 0.0642103 8.69474e-18)
(0.140007 -0.130471 0)
(0.157686 0.0575225 1.73978e-17)
(0.162811 0.0770142 -9.56057e-18)
(0.146498 0.082805 0)
(0.20814 0.0949221 0)
(0.207718 0.0406968 0)
(0.184739 0.0899483 1.52545e-17)
(0.214521 0.0197428 -8.42341e-18)
(0.183315 -0.0776636 -2.13305e-17)
(0.159974 0.0546442 0)
(0.137982 0.0519454 8.95547e-18)
(0.172658 0.0654654 -1.7378e-17)
(0.107919 0.0269552 2.95182e-17)
(0.132722 -0.139802 0)
(0.125133 0.0471814 -7.57578e-18)
(0.147627 0.0474484 0)
(0.232677 0.0475284 0)
(0.180092 0.102172 0)
(0.185878 -0.0649556 0)
(0.183588 0.0957895 8.74203e-18)
(0.24667 0.038072 0)
(0.14945 0.0427388 0)
(0.238962 0.0183381 -8.78855e-18)
(0.231979 -0.0060571 -8.643e-18)
(0.128169 0.0913412 0)
(0.15366 0.0766557 0)
(0.125237 0.102965 0)
(0.246116 0.00667146 3.47149e-17)
(0.213196 0.0743779 2.63907e-17)
(0.111644 0.0646207 0)
(0.18942 -0.0709433 1.5085e-17)
(0.107027 0.132642 -1.75164e-17)
(0.168663 0.0621656 1.73829e-17)
(0.141515 0.0872334 -1.74131e-17)
(0.124385 0.117475 -1.97478e-21)
(0.124208 0.0359403 0)
(0.112475 -0.161913 0)
(0.0988323 0.213072 1.67502e-17)
(0.111648 -0.187401 0)
(0.130297 0.035963 0)
(0.189456 0.0988968 -1.542e-17)
(0.109654 -0.138557 -2.2224e-17)
(0.163972 0.0993928 0)
(0.123662 0.100448 -1.73471e-17)
(0.134162 0.0340208 0)
(0.174772 0.075641 -1.73733e-17)
(0.140076 0.101869 -8.6885e-18)
(0.132482 0.0958309 3.47671e-17)
(0.163084 0.0794238 0)
(0.151165 0.0662017 -1.73841e-17)
(0.125604 0.110362 8.73433e-18)
(0.1554 0.0917698 0)
(0.0741792 0.217326 2.18051e-17)
(0.143939 0.0922366 -8.69614e-18)
(0.125616 0.0975991 -1.74604e-17)
(0.0829836 0.0620113 -1.64027e-17)
(0.0647922 0.237592 -8.76018e-18)
(0.0868856 0.0502491 0)
(0.13849 0.0960042 -1.75638e-17)
(0.102107 -0.182545 0)
(0.104373 -0.201927 2.60349e-17)
(0.136347 0.089286 2.61469e-17)
(0.114206 0.158392 1.74386e-17)
(0.135791 0.128424 3.49153e-17)
(0.159977 0.117178 -9.22475e-18)
(0.141608 0.146221 -1.75427e-17)
(0.120264 0.157848 0)
(0.016974 -0.180859 0)
(0.116204 0.133884 -1.75009e-17)
(0.0587569 0.239031 3.61955e-17)
(0.14681 0.116247 0)
(0.13262 0.0901357 -2.61545e-17)
(0.0754371 -0.197778 -3.68618e-21)
(0.085327 0.158934 8.81304e-18)
(0.12866 0.130752 0)
(0.130632 0.111625 8.86712e-18)
(0.115773 0.183568 -2.61922e-17)
(0.0974913 0.214553 0)
(0.0912965 -0.220401 2.01591e-17)
(0.046426 0.241189 -3.7378e-17)
(0.00363442 -0.245531 0)
(0.136461 0.0952764 0)
(0.0941062 -0.18316 -1.76046e-17)
(0.0901771 -0.190018 0)
(0.104662 0.206403 1.74398e-17)
(0.0352775 0.188807 5.05396e-19)
(0.0320398 -0.200185 -1.92884e-17)
(0.0746078 0.188121 -1.77112e-17)
(0.169717 -0.122019 -1.43976e-17)
(0.0808397 -0.190073 1.76771e-17)
(0.0099848 -0.267618 0)
(0.0261211 0.143126 0)
(0.0221575 0.117625 5.99885e-17)
(0.0115924 -0.202129 -3.9147e-17)
(0.0221463 0.125009 -3.80434e-17)
(0.14206 -0.0480388 0)
(0.0506638 0.260396 1.85594e-17)
(0.0548581 -0.202087 -2.75949e-17)
(0.0629059 -0.1942 2.77502e-17)
(0.0112854 -0.135114 0)
(0.0180734 0.154301 -1.90322e-17)
(0.0433906 0.241708 -5.75165e-17)
(-0.00116003 -0.13475 -1.84824e-17)
(0.170927 0.131983 1.5987e-21)
(0.0436699 0.22789 1.61796e-17)
(0.0414605 -0.193785 -1.89436e-17)
(0.158862 0.149389 8.97201e-18)
(0.0355922 0.171713 0)
(0.19765 0.138408 -2.05225e-17)
(0.0489018 0.261677 4.1911e-17)
(0.0284586 0.125706 -2.02393e-17)
(0.0277112 0.11621 4.13726e-22)
(0.138485 -0.0566788 2.86948e-17)
(0.193542 -0.00813926 9.85666e-22)
(0.188964 -0.0983148 3.45225e-17)
(0.201082 0.00718815 1.25285e-17)
(0.110052 -0.190447 0)
(0.0264871 -0.172314 1.9709e-17)
(0.0293385 0.136863 0)
(0.12027 0.0595002 -1.15704e-17)
(0.0455645 0.249904 -6.01251e-19)
(-0.00358401 -0.108867 0)
(0.043805 0.245088 5.53684e-19)
(0.0485114 0.230713 1.94204e-17)
(0.0328342 0.184952 -2.25102e-17)
(0.0420103 -0.11016 -5.57899e-18)
(0.0915255 -0.177401 4.69295e-18)
(0.126872 -0.0253183 2.72169e-17)
(0.131875 0.0457023 2.03504e-17)
(0.0623998 0.0530688 -2.17185e-17)
(0.154373 -0.0658701 1.68655e-17)
(0.118116 -0.181399 0)
(0.154705 -0.0240444 1.02053e-17)
(0.162733 0.0343007 0)
(0.0665439 0.134188 1.615e-17)
(0.0510387 -0.16868 0)
(0.172173 0.19688 -3.82283e-17)
(0.183766 0.169051 -2.07067e-17)
(0.210237 -9.81039e-05 -1.70613e-17)
(0.0585234 -0.116718 -1.481e-17)
(0.173099 -0.0479989 0)
(0.133501 -0.0396495 9.62534e-19)
(0.127208 0.0322772 0)
(0.159181 -0.065318 -3.03989e-17)
(0.14488 -0.0583547 -1.43862e-17)
(0.153477 -0.0480113 -5.05492e-18)
(0.0359055 -0.0798322 3.76819e-17)
(0.0784461 -0.121636 0)
(0.0424998 -0.174605 1.62074e-17)
(0.196477 0.136516 0)
(0.144139 -0.0648442 -2.74776e-17)
(0.000581841 -0.228485 -2.08639e-17)
(0.211639 0.118907 1.92027e-17)
(0.19109 0.0438786 0)
(0.169551 0.05998 -5.03805e-18)
(0.0565849 0.250136 0)
(0.195022 0.187072 1.88093e-17)
(0.0445311 -0.230975 6.15728e-19)
(-0.00457831 -0.171923 4.1387e-17)
(0.113435 -0.186116 0)
(0.0218497 -0.259878 1.786e-17)
(0.0238147 -0.228781 1.90938e-17)
(0.0197765 -0.272417 1.00549e-17)
(0.0616042 -0.136984 -2.43426e-21)
(0.144503 -0.0924583 -2.65568e-17)
(0.0484887 0.252595 0)
(0.160038 -0.13848 0)
(0.0350586 0.16941 -9.64853e-18)
(0.20141 0.140215 1.97086e-17)
(0.042348 0.16852 0)
(0.0248452 -0.122005 9.67393e-18)
(0.0491172 0.172887 -1.60845e-17)
(0.0348479 -0.123044 0)
(0.0303081 -0.250025 0)
(0.0224453 0.110295 -1.44584e-21)
(0.0335257 0.110758 1.6715e-17)
(0.0187073 -0.0831806 9.44848e-18)
(0.0131719 -0.216043 -9.83618e-18)
(0.181827 -0.0868212 0)
(0.126591 0.154189 1.89504e-17)
(0.145556 -0.156069 -9.82606e-18)
(0.105343 0.097952 -9.53946e-18)
(0.0832088 0.0537805 0)
(0.0416862 0.0252929 0)
(0.0831728 0.0437295 8.59486e-18)
(0.0984279 0.172628 -1.82563e-17)
(0.066367 0.056773 0)
(0.0521927 0.0257542 1.6109e-17)
(0.108803 -0.0674811 0)
(0.111627 0.12156 9.42617e-18)
(0.0797998 -0.0970935 -1.84949e-17)
(0.0432722 0.0321983 2.45841e-18)
(0.061009 0.0396427 1.47514e-17)
(0.10776 0.158929 -1.93347e-17)
(0.111774 0.140649 -1.95542e-17)
(0.071619 -0.0998588 0)
(0.067295 0.0367212 1.79823e-17)
(0.059551 0.0410064 0)
(0.0359666 0.0175533 -2.32341e-18)
(0.0588738 0.028398 0)
(0.0712976 0.108654 0)
(0.0750342 0.0860431 -9.4683e-18)
(0.0704053 -0.0487046 1.42823e-21)
(0.0518463 -0.0677581 0)
(0.0392368 0.0187266 -1.51841e-17)
(0.207112 -0.100565 -1.01792e-17)
(0.107543 0.0340818 -1.88303e-17)
(0.167401 0.144637 0)
(-0.000250446 -0.20427 2.28549e-22)
(0.129358 0.12842 -3.04216e-17)
(0.187618 0.167669 -2.19133e-17)
(0.0503211 -0.176856 0)
(0.0982299 -0.0777349 -3.75499e-17)
(0.11827 0.179275 -9.25628e-18)
(0.0518728 0.25662 0)
(0.0804858 0.0267341 1.90706e-17)
(0.0727718 -0.238757 -1.07195e-17)
(0.111415 0.193652 2.10295e-17)
(0.0655131 -0.0503005 1.90329e-17)
(0.204682 0.161914 1.00146e-17)
(0.195261 0.124842 2.94294e-17)
(0.196091 0.164226 1.04924e-17)
(0.136396 -0.0940058 0)
(0.112918 -0.0596322 -3.73877e-17)
(0.118038 -0.0531605 -4.56924e-18)
(0.0953021 -0.108432 2.86883e-17)
(0.0102686 -0.247034 -1.98326e-17)
(0.192685 -0.091583 -3.22277e-17)
(0.189475 0.161212 1.5634e-17)
(0.0423463 0.18937 -2.5785e-17)
(0.0542725 -0.240817 5.04546e-18)
(0.237132 0.119888 1.91742e-17)
(0.226441 0.165307 -2.87714e-17)
(0.0795809 0.0765567 4.05017e-17)
(0.152361 -0.134788 0)
(0.0908998 -0.216374 -2.07615e-17)
(0.072477 0.180719 3.2249e-17)
(0.0995141 -0.102911 -1.9051e-17)
(0.0701222 -0.239919 1.12925e-17)
(0.208356 0.187072 -4.94249e-18)
(0.0173458 0.11695 0)
(0.191679 0.0609107 -9.74691e-18)
(0.134681 -0.166414 -2.07559e-17)
(0.108381 -0.114843 1.93141e-17)
(0.100479 -0.213757 1.25126e-17)
(0.0472173 0.11721 -2.08382e-17)
(0.0484552 -0.155284 1.12156e-17)
(0.204474 -0.0262377 -1.55527e-17)
(0.0176064 -0.164579 0)
(0.119405 0.0906021 3.56864e-17)
(0.170411 -0.02829 -1.96779e-17)
(0.184228 -0.018615 2.50457e-17)
(0.0756703 -0.0389357 2.38683e-17)
(0.222599 -0.0888687 4.98302e-18)
(0.233864 -0.0671502 -1.05941e-17)
(0.124577 -0.0101946 -2.21452e-17)
(0.123148 -0.00246049 2.10767e-17)
(0.188041 0.121683 0)
(0.0960971 0.0762695 0)
(0.00799011 -0.259903 -2.18087e-17)
(0.00779227 -0.0345097 -1.07964e-17)
(0.0286859 0.153006 -2.10351e-17)
(0.0131566 -0.269371 4.9065e-21)
(0.0873055 -0.106999 9.81603e-18)
(0.102674 -0.0726727 -1.97787e-17)
(0.0084151 -0.056521 0)
(0.0142676 0.180714 0)
(0.154255 -0.140064 3.57222e-17)
(0.00498851 0.126521 -3.50862e-17)
(0.0584618 -0.0562183 -1.0038e-17)
(0.124151 0.118226 1.14857e-17)
(0.00162074 -0.0676226 2.03909e-17)
(0.0403576 0.201916 2.28386e-17)
(0.0661493 0.0609196 0)
(0.100039 0.0223544 0)
(0.0556108 0.045728 -1.03554e-17)
(0.0190801 0.19156 1.19393e-17)
(0.122499 0.075767 -9.38034e-18)
(0.0426656 -0.120666 -1.55613e-17)
(0.0324213 -0.142777 1.0348e-17)
(0.140467 0.0161512 -2.55059e-18)
(0.135263 0.0195722 -3.51052e-17)
(0.0475909 0.259454 -2.43304e-17)
(0.112831 -0.0984699 5.9813e-18)
(0.126585 0.12835 2.52197e-17)
(0.0777599 -0.0188428 8.76252e-22)
(0.163864 -0.133353 1.77862e-17)
(0.124082 -0.0343676 2.08475e-17)
(0.05736 0.0261356 -1.00394e-17)
(0.0470841 0.221539 -3.31884e-17)
(-0.0137557 -0.121775 2.20407e-17)
(0.119312 -0.0389277 -1.02825e-17)
(0.118412 -0.0460633 -2.05671e-17)
(0.113779 -0.108865 1.78851e-17)
(0.111345 0.181011 -2.41036e-18)
(0.0570526 -0.0582257 5.05679e-18)
(0.0603312 0.175887 4.44463e-18)
(0.120255 0.015206 0)
(0.1171 0.0189451 6.82914e-18)
(0.0486533 0.255835 1.08754e-17)
(0.157576 -0.132533 2.40576e-17)
(0.0341171 0.127014 0)
(0.148919 -0.0319789 -4.2722e-18)
(0.180054 -0.0928316 2.43742e-17)
(0.178228 -0.0843867 1.35636e-17)
(0.0486326 0.122328 0)
(-0.000802828 -0.0505731 -2.14072e-17)
(0.149665 -0.149923 1.11188e-17)
(0.0762898 -0.00439312 -2.83784e-18)
(0.0362543 0.143812 -1.45577e-18)
(0.200098 0.156483 5.28882e-18)
(-0.00491082 -0.0316215 2.35154e-17)
(0.0377729 0.140798 0)
(0.177203 -0.088619 0)
(0.161287 -0.137465 0)
(0.191231 0.155588 -1.16889e-17)
(0.119852 0.0563194 0)
(0.206842 0.188319 1.93782e-17)
(0.026193 -0.230208 -1.15121e-17)
(-0.00232411 -0.0534531 -1.19864e-17)
(0.0408078 0.123407 0)
(0.181042 -0.0846717 -6.00345e-18)
(0.0872075 0.0427628 0)
(0.197615 0.185261 6.62584e-19)
(0.0393724 0.21394 1.11458e-17)
(0.0364067 -0.0836852 1.67929e-17)
(0.112008 -0.176007 0)
(0.0539618 -0.13008 2.17009e-17)
(0.0481038 0.110507 0)
(0.0363605 0.117022 0)
(0.0817308 -0.201081 1.44319e-18)
(0.172929 -0.0940636 -2.10759e-17)
(0.0503115 -0.11806 -1.24053e-18)
(0.121066 -0.0756151 0)
(0.184103 0.172984 4.07858e-17)
(0.0557635 0.135777 1.16434e-18)
(0.0305559 0.176162 -1.03665e-17)
(0.0911931 -0.0808539 0)
(0.0741396 0.0283482 -9.26823e-18)
(0.112221 -0.172193 -2.50485e-17)
(0.129584 -0.0755293 2.3135e-17)
(0.12734 0.108298 1.09718e-17)
(0.119128 -0.172054 1.01738e-17)
(0.198137 0.138015 -1.08578e-17)
(0.0112379 -0.112696 -2.24052e-17)
(0.143792 -0.0913788 -2.10251e-17)
(0.056681 0.0245688 0)
(0.155326 -0.0753598 1.48064e-17)
(0.113197 -0.182146 5.10703e-18)
(0.186158 -0.0861246 1.9805e-17)
(0.050458 0.24749 5.26671e-18)
(0.0493271 0.257962 0)
(0.176027 -0.106584 1.94553e-17)
(0.177335 -0.10367 3.15336e-17)
(0.185403 -0.0581735 0)
(0.125517 -0.172423 3.24025e-18)
(0.0304591 -0.080936 -1.46727e-17)
(0.165227 -0.0927428 0)
(0.0603849 -0.204285 -1.37706e-18)
(0.202717 0.177812 -1.95452e-17)
(0.0825358 0.0786301 6.09829e-21)
(0.235998 0.144156 -2.3236e-21)
(0.117024 -0.179863 -5.25976e-18)
(0.104713 -0.0973509 -2.38263e-17)
(0.141947 0.0294493 2.61959e-17)
(0.0440143 0.124109 4.64186e-17)
(0.0661396 0.0571687 -2.41548e-17)
(0.0735754 -0.0271499 3.50235e-17)
(0.153404 -0.062151 4.97245e-18)
(0.024015 -0.132362 1.17435e-17)
(0.0375465 0.172055 2.28328e-17)
(0.101643 -0.127364 0)
(0.140479 -0.0849658 -3.25606e-17)
(0.0928349 -0.101982 -2.04234e-17)
(0.110173 0.086971 5.61242e-18)
(0.1648 -0.130094 0)
(0.0418943 0.147546 -2.45252e-17)
(0.101347 -0.120685 -2.39652e-17)
(0.172438 0.130226 0)
(0.0456477 -0.130132 1.30684e-17)
(0.0797794 -0.231827 1.45656e-17)
(0.128427 -0.173657 -1.20002e-17)
(0.109977 -0.122024 1.46308e-18)
(0.0323997 -0.162088 0)
(0.00337525 -0.271035 2.73205e-21)
(0.125467 0.152535 0)
(0.0822689 -0.090786 2.1027e-17)
(0.0933792 -0.12595 -2.98423e-18)
(0.168512 0.163813 1.193e-17)
(0.0252278 -0.111105 0)
(0.0175991 0.177102 2.53915e-17)
(0.158184 -0.0881145 2.40251e-17)
(0.120429 -0.104768 -6.02448e-18)
(0.164294 -0.126089 -1.95907e-17)
(0.118123 -0.163142 -4.08832e-17)
(0.0447675 0.175152 0)
(0.188972 -0.0288569 0)
(0.123157 0.142991 -2.47968e-17)
(0.118237 0.159292 3.22209e-17)
(0.182975 -0.0823794 1.03145e-17)
(0.241797 -0.068032 1.17002e-17)
(0.0928945 -0.131835 8.55235e-18)
(-0.0118356 -0.10388 -1.30033e-17)
(0.0447087 0.255467 0)
(0.120631 0.168364 0)
(0.151024 -0.149182 0)
(0.0794537 -0.226341 -8.56165e-19)
(0.0726471 0.0116015 1.34214e-17)
(0.147248 0.0466876 6.34323e-18)
(0.0379384 0.220198 3.31169e-17)
(0.0556472 -0.150301 -1.33261e-21)
(0.174886 -0.0805905 2.52484e-17)
(0.146125 -0.0777425 6.33925e-18)
(0.0240759 0.183262 -1.43903e-21)
(0.184063 0.134486 0)
(0.155295 -0.143714 -2.18066e-17)
(0.0370578 0.113693 0)
(0.0441295 0.114714 -2.20516e-17)
(0.153877 0.0343892 0)
(0.124591 -0.0665691 1.88974e-17)
(0.0429957 0.0363613 -6.18499e-18)
(0.0517735 -0.136467 -1.40052e-17)
(0.206608 0.178893 0)
(0.0325303 0.21015 1.85555e-17)
(0.136065 -0.0716863 6.2258e-18)
(0.117907 0.136356 2.52562e-17)
(0.0857619 -0.215921 0)
(0.121432 -0.173106 -2.49539e-17)
(0.0526861 0.0492751 6.05877e-18)
(-0.0122168 -0.104551 -2.45175e-17)
(0.14898 -0.1456 -2.61201e-17)
(0.101863 -0.0899821 0)
(0.0690401 -0.234038 -7.18277e-18)
(0.180923 -0.0860638 -1.70182e-17)
(0.177367 -0.0950028 -1.64977e-17)
(0.122712 -0.168019 3.1834e-17)
(-0.00670053 -0.0710346 2.73371e-17)
(0.204818 0.190597 0)
(0.0960395 -0.213946 -9.04651e-18)
(0.091709 -0.22308 -2.78102e-17)
)
;

boundaryField
{
    back
    {
        type            empty;
    }
    front
    {
        type            empty;
    }
    top
    {
        type            codedFixedValue;