/*--------------------------------*- C++ -*----------------------------------*\
  =========                 |
  \\      /  F ield         | OpenFOAM: The Open Source CFD Toolbox
   \\    /   O peration     | Website:  https://openfoam.org
    \\  /    A nd           | Version:  9
     \\/     M anipulation  |
\*---------------------------------------------------------------------------*/
FoamFile
{
    format      ascii;
    class       volScalarField;
    location    "0.31";
    object      p;
}
// * * * * * * * * * * * * * * * * * * * * * * * * * * * * * * * * * * * * * //

dimensions      [0 2 -2 0 0 0 0];

internalField   nonuniform List<scalar> 
90
(
15.1951
15.6344
15.3933
15.4347
15.5347
15.7251
15.1907
15.1596
15.4572
15.1358
15.2856
15.5792
15.2647
15.5981
15.5213
15.5547
15.49
15.4099
15.4312
15.3035
15.0473
15.1242
15.2574
15.3714
15.1329
15.3193
15.076
15.1354
15.4369
15.2478
15.2328
15.3229
15.0863
15.1856
15.149
15.5801
15.3934
15.494
15.1032
15.1837
15.2007
15.2809
15.2176
15.1773
15.0906
15.5735
15.4425
15.3407
15.3094
15.5342
15.2537
15.3131
15.2976
15.1751
15.4169
15.3468
15.1175
15.5407
15.09
15.346
15.348
15.3679
15.3521
15.2813
15.2458
15.4197
15.442
15.4752
15.4613
15.4431
15.3503
15.0928
15.2936
15.4058
15.4241
15.3966
15.066
15.2148
15.2477
15.0852
15.4601
15.1295
15.4818
15.3883
15.3523
15.5292
15.1434
15.1856
15.3841
15.0971
)
;

boundaryField
{
    back
    {
        type            empty;
    }
    front
    {
        type            empty;
    }
    bottom
    {
        type            zeroGradient;
    }
    outer_arc
    {
        type            zeroGradient;
    }
    right
    {
        type            uniformFixedValue;
        uniformValue    
        {
            type            scale;
            scale           
            {
                type            squarePulse;
                start           0.3;
                duration        0.3;
            }
            xScale          
            {
                type            constant;
                value           1;
            }
            value           
            {
                type            constant;
                value           15.1;
            }
        }
        value           uniform 15.1;
    }
    inner_arc
    {
        type            zeroGradient;
    }
}


// ************************************************************************* //
