/*--------------------------------*- C++ -*----------------------------------*\
  =========                 |
  \\      /  F ield         | OpenFOAM: The Open Source CFD Toolbox
   \\    /   O peration     | Website:  https://openfoam.org
    \\  /    A nd           | Version:  9
     \\/     M anipulation  |
\*---------------------------------------------------------------------------*/
FoamFile
{
    format      ascii;
    class       surfaceScalarField;
    location    "0.31";
    object      phi;
}
// * * * * * * * * * * * * * * * * * * * * * * * * * * * * * * * * * * * * * //

dimensions      [0 3 -1 0 0 0 0];

internalField   nonuniform List<scalar> 
122
(
2.71006e-08
-1.91193e-08
-7.98139e-09
-2.625e-08
2.19208e-08
4.32917e-09
-3.72247e-08
3.52372e-08
1.98743e-09
-6.10466e-09
-3.112e-08
-2.43499e-08
2.43499e-08
3.54231e-08
-2.84548e-08
-6.96832e-09
-1.41645e-08
3.67196e-08
-2.25551e-08
8.14347e-09
2.72796e-08
1.91193e-08
2.09355e-10
-1.93286e-08
-2.19208e-08
1.61004e-08
5.82046e-09
8.24949e-09
-2.24139e-08
-1.61004e-08
1.82452e-08
8.23876e-09
2.69985e-08
5.59957e-09
-2.59952e-08
2.36891e-10
2.57583e-08
1.96996e-08
-1.96996e-08
2.01277e-08
-2.01277e-08
-1.30542e-08
3.75319e-08
-2.44777e-08
-2.47797e-09
-2.35172e-08
-1.4956e-11
-2.84398e-08
9.80719e-09
-2.28614e-08
1.96847e-08
2.57745e-08
-5.64677e-09
-1.10446e-08
1.92834e-08
-3.05636e-08
3.0773e-08
-1.93286e-08
-8.25592e-10
-1.8874e-08
-2.64821e-08
-1.9577e-09
-2.73077e-08
1.16479e-08
-1.16479e-08
1.82452e-08
-1.8874e-08
1.81723e-08
-1.81723e-08
-1.95547e-09
2.94024e-08
-3.13579e-08
3.93546e-09
-3.12432e-08
2.1085e-08
-2.90664e-08
-1.63401e-08
-1.22818e-08
-1.80215e-08
2.23507e-08
1.52026e-08
1.10474e-08
-1.40036e-09
2.83988e-08
3.13898e-08
-1.65935e-08
-1.79354e-08
-1.79354e-08
5.4404e-10
-2.69795e-08
2.64354e-08
6.90049e-09
8.31463e-09
2.07349e-08
-2.01909e-08
-1.67044e-08
8.22849e-09
-2.14767e-08
5.13658e-09
-9.52142e-09
9.52142e-09
2.12649e-09
-2.57431e-08
2.43427e-08
-9.57969e-09
9.57969e-09
-2.50331e-08
-1.92759e-08
-5.75719e-09
7.2006e-09
-2.37909e-09
-7.2006e-09
2.3044e-08
5.35482e-09
-1.33332e-08
-2.06822e-09
1.69043e-08
6.35143e-09
-6.35143e-09
-2.89862e-08
2.22591e-08
-1.70661e-09
)
;

boundaryField
{
    back
    {
        type            empty;
        value           nonuniform List<scalar> 0();
    }
    front
    {
        type            empty;
        value           nonuniform List<scalar> 0();
    }
    bottom
    {
        type            calculated;
        value           nonuniform List<scalar> 4(-2.625e-08 -2.625e-08 -2.625e-08 -2.625e-08);
    }
    outer_arc
    {
        type            calculated;
        value           uniform 0;
    }
    right
    {
        type            calculated;
        value           nonuniform List<scalar> 4(2.71007e-08 2.86219e-08 3.77894e-08 1.1488e-08);
    }
    inner_arc
    {
        type            calculated;
        value           uniform 0;
    }
}


// ************************************************************************* //
