/*--------------------------------*- C++ -*----------------------------------*\
  =========                 |
  \\      /  F ield         | OpenFOAM: The Open Source CFD Toolbox
   \\    /   O peration     | Website:  https://openfoam.org
    \\  /    A nd           | Version:  9
     \\/     M anipulation  |
\*---------------------------------------------------------------------------*/
FoamFile
{
    format      ascii;
    class       volVectorField;
    location    "0.31";
    object      U;
}
// * * * * * * * * * * * * * * * * * * * * * * * * * * * * * * * * * * * * * //

dimensions      [0 1 -1 0 0 0 0];

internalField   nonuniform List<vector> 
90
(
(0.692059 0.157073 -5.67391e-16)
(0.162364 0.762046 6.05211e-16)
(0.507414 0.700156 2.41305e-16)
(0.429296 0.688006 -2.40615e-16)
(0.193277 0.391784 -3.00921e-16)
(0.0221356 0.529518 -5.50046e-16)
(0.684066 0.119276 6.31664e-16)
(0.864967 0.382002 3.80345e-16)
(0.317778 0.736259 0)
(0.861251 0.341021 0)
(0.609442 0.199179 1.83172e-16)
(0.20918 0.651383 -3.15086e-16)
(0.374245 0.104116 8.83615e-17)
(0.109254 0.484029 2.46254e-16)
(0.320746 0.719937 0)
(0.266132 0.573975 0)
(0.362807 0.529809 6.27417e-16)
(0.547743 0.646118 -1.26713e-16)
(0.381253 0.751991 0)
(0.207014 0.784606 3.53506e-16)
(0.351346 0.204784 4.11934e-16)
(0.239664 0.394863 3.28423e-16)
(0.824937 0.421514 1.81586e-16)
(0.147246 0.792464 -3.22001e-16)
(0.787792 0.401271 -3.44422e-16)
(0.701198 0.347354 -2.61947e-16)
(0.525104 0.234318 -3.57248e-16)
(0.407424 0.503718 1.55332e-16)
(0.472586 0.513016 0)
(0.85007 0.317671 -2.81914e-16)
(0.880264 0.392596 1.83979e-16)
(0.330657 0.143647 3.41701e-16)
(0.569226 0.37707 9.42445e-17)
(0.824305 0.488421 -4.13048e-16)
(0.725832 0.513491 1.16599e-16)
(0.123657 0.352687 -1.92248e-16)
(0.219846 0.154062 0)
(0.232374 0.310657 0)
(0.309847 0.269525 -1.71395e-16)
(0.138303 0.44998 8.78205e-17)
(0.341128 0.634003 -2.86397e-16)
(0.392124 0.746648 -4.20191e-16)
(0.71731 0.601608 3.43612e-17)
(0.933451 0.250939 -1.43658e-16)
(0.780086 0.242859 -1.64997e-16)
(0.132489 0.730295 -1.75317e-16)
(0.0400201 0.700251 2.89526e-16)
(0.638141 0.65944 1.54542e-16)
(0.491112 0.742536 -2.74748e-16)
(0.242273 0.736897 -4.64847e-17)
(0.182341 0.721974 0)
(0.0547061 0.474369 -2.66973e-16)
(0.769655 0.53259 -4.86055e-18)
(0.486459 0.472192 0)
(0.0319688 0.73774 4.35443e-16)
(0.689168 0.458587 -1.4448e-18)
(1.01759 0.266251 1.33946e-16)
(0.030694 0.696845 0)
(0.604986 0.20076 0)
(0.488839 0.229001 -3.86444e-16)
(0.327639 0.781321 2.49235e-16)
(0.387267 0.229917 0)
(0.192826 0.114496 -4.66949e-16)
(0.64153 0.681059 -8.31519e-17)
(0.545187 0.689528 2.16197e-16)
(0.1784 0.163312 4.36392e-16)
(0.221368 0.741577 0)
(0.170116 0.722878 0)
(0.330407 0.37752 -2.55009e-17)
(0.304278 0.27663 2.92544e-16)
(0.669426 0.61078 0)
(0.662043 0.232826 1.84154e-16)
(0.741469 0.589186 0)
(0.365095 0.274545 5.37433e-16)
(0.470392 0.454356 -2.03469e-16)
(0.0354859 0.757876 -1.77681e-16)
(0.172695 0.0348373 -2.4953e-16)
(0.630181 0.618635 0)
(0.841622 0.502824 3.29128e-16)
(0.313355 0.0859996 3.22542e-16)
(0.148542 0.157469 -4.63065e-16)
(0.933254 0.310865 -1.24829e-19)
(0.0801151 0.689627 -4.13842e-16)
(0.591743 0.51181 1.79686e-16)
(0.623072 0.389324 -9.04773e-17)
(0.206992 0.747344 1.85942e-16)
(0.916879 0.32731 1.50711e-16)
(0.928638 0.31152 1.7552e-19)
(0.566987 0.447986 -5.41396e-16)
(0.438002 0.15857 -1.91848e-16)
)
;

boundaryField
{
    back
    {
        type            empty;
    }
    front
    {
        type            empty;
    }
    bottom
    {
        type            uniformFixedValue;
        uniformValue    
        {
            type            scale;
            scale           
            {
                type            squarePulse;
                start           0.3;
                duration        0.3;
            }
            xScale          
            {
                type            constant;
                value           1;
            }
            value           
            {
                type            constant;
                value           (0 0.7 0);
            }
        }
        value           uniform (0 0.7 0);
    }
    outer_arc
    {
        type            noSlip;
    }
    right
    {
        type            zeroGradient;
    }
    inner_arc
    {
        type            noSlip;
    }
}


// ************************************************************************* //
