/*--------------------------------*- C++ -*----------------------------------*\
  =========                 |
  \\      /  F ield         | OpenFOAM: The Open Source CFD Toolbox
   \\    /   O peration     | Website:  https://openfoam.org
    \\  /    A nd           | Version:  9
     \\/     M anipulation  |
\*---------------------------------------------------------------------------*/
FoamFile
{
    format      ascii;
    class       surfaceScalarField;
    location    "0.14";
    object      phi;
}
// * * * * * * * * * * * * * * * * * * * * * * * * * * * * * * * * * * * * * //

dimensions      [0 3 -1 0 0 0 0];

internalField   nonuniform List<scalar> 
1363
(
-2.86987e-06
1.96571e-06
9.04162e-07
-1.67826e-06
1.83103e-06
-1.52771e-07
1.90353e-06
-1.5179e-06
-3.85629e-07
-9.14789e-07
2.67768e-06
-1.76289e-06
1.90387e-06
-3.42677e-10
1.89496e-06
-8.83453e-08
-1.80662e-06
-1.22074e-06
1.22074e-06
1.63784e-06
2.5712e-07
-1.72277e-06
1.74464e-06
-2.18648e-08
6.26804e-08
-1.78545e-06
-1.55473e-06
1.53302e-06
2.17112e-08
1.50914e-06
-1.86889e-06
3.59749e-07
1.95124e-06
-2.86603e-06
-1.54994e-06
1.6036e-06
-5.36506e-08
4.10714e-07
1.09843e-06
-1.58182e-06
-9.64419e-08
6.04131e-08
2.15279e-06
-2.21321e-06
-1.38621e-06
-1.48366e-06
-2.41099e-06
-2.08827e-07
2.61982e-06
1.24879e-06
-1.24879e-06
1.53228e-06
-1.47187e-06
-5.39324e-07
-1.32957e-06
-1.15825e-06
-2.80125e-08
1.18626e-06
8.74476e-08
-2.22126e-06
2.13382e-06
-4.56831e-07
-1.0979e-06
-1.94685e-06
2.0343e-06
1.51633e-06
-1.52677e-06
1.04393e-08
-1.43893e-06
2.80678e-07
2.06317e-06
-2.7333e-06
6.70122e-07
9.15375e-09
-2.12796e-06
2.11881e-06
2.05958e-06
-2.50861e-07
-1.80871e-06
-3.98735e-08
1.55621e-06
-3.41587e-07
2.40476e-06
2.43362e-06
-6.97568e-07
-1.73605e-06
1.51636e-06
-1.45845e-06
-5.79131e-08
2.21209e-07
1.09345e-06
-1.31466e-06
-2.84837e-06
1.5056e-06
1.34277e-06
1.7378e-06
-7.10943e-07
-1.02686e-06
-1.29537e-06
-1.553e-06
-1.10948e-07
-2.11032e-06
-1.62869e-06
2.43421e-06
-8.05517e-07
2.58273e-06
-1.77858e-06
-8.04148e-07
1.53338e-06
-1.64433e-06
-2.98107e-07
-9.2263e-07
7.76665e-07
4.44072e-07
-2.24097e-06
-1.04427e-07
2.34539e-06
2.21449e-06
3.57191e-08
-2.25021e-06
1.96312e-07
2.23731e-06
4.45818e-07
-2.07451e-06
-3.576e-07
-1.19235e-06
-2.3595e-06
-5.14881e-08
6.59679e-07
-6.87692e-07
1.00542e-06
-7.84216e-07
-2.58895e-06
1.05279e-06
1.53616e-06
2.35891e-06
-2.29623e-06
2.92171e-07
1.60008e-06
-1.89225e-06
1.22723e-06
-1.22723e-06
-1.88281e-08
2.37774e-06
9.84043e-07
2.43189e-07
-2.7763e-08
1.82356e-06
-1.7958e-06
-1.23178e-06
1.24094e-06
1.60311e-06
-1.5328e-06
-7.03009e-08
1.2295e-06
-1.92706e-06
-3.31026e-07
2.29674e-06
1.22806e-06
5.09743e-07
1.53706e-06
-1.13438e-06
-4.02678e-07
7.63343e-08
-2.29682e-06
2.32386e-06
-2.70458e-08
-1.56844e-06
1.86061e-06
1.63603e-06
-1.15094e-06
-4.85095e-07
1.14047e-06
6.90558e-07
-1.3368e-06
1.20678e-06
1.30016e-07
1.11782e-06
-1.11782e-06
-2.50655e-07
-1.8773e-06
-2.13452e-06
-4.54436e-07
1.77114e-07
1.07167e-06
-8.2124e-07
-4.27549e-07
-1.64434e-08
1.93671e-06
1.22863e-07
-1.41623e-06
-1.65585e-07
-3.11958e-08
9.29164e-07
-8.97968e-07
-2.19771e-06
-1.48933e-06
5.32075e-08
1.43612e-06
1.20826e-07
-1.41884e-06
2.84455e-07
-1.70892e-06
1.71204e-06
-3.12381e-09
1.87565e-06
-1.90341e-06
1.23634e-06
2.40015e-07
-1.47635e-06
4.58918e-07
1.14468e-06
-4.86089e-07
-1.00324e-06
1.1327e-06
1.45003e-06
1.08951e-06
-2.70406e-08
-1.06247e-06
-2.41964e-06
2.40081e-06
-6.18231e-07
2.21831e-06
-2.12193e-07
-1.68005e-06
-1.54767e-06
1.30737e-06
2.40294e-07
5.396e-07
-2.31818e-06
-2.47031e-07
1.48337e-06
-1.19622e-06
1.16502e-06
-3.72453e-09
1.24375e-06
3.22958e-08
-1.27604e-06
2.25393e-07
-2.64503e-06
-1.45016e-07
1.33793e-06
-2.27409e-06
2.06189e-06
1.84762e-07
1.05617e-06
1.1115e-07
-2.35212e-06
-1.21314e-07
-2.48601e-06
2.60732e-06
-1.79445e-08
-2.27887e-06
6.08985e-08
2.26297e-06
9.70993e-08
-1.66554e-06
2.08836e-07
1.65177e-06
1.8486e-06
-5.92531e-07
-7.44267e-07
3.83126e-07
1.1499e-06
1.08951e-06
1.39129e-07
-1.85161e-06
1.71248e-06
2.19136e-06
4.86317e-07
-5.06654e-07
5.0293e-07
7.96611e-07
-2.32997e-06
1.53336e-06
-5.0293e-07
6.87692e-07
1.42991e-06
5.39502e-08
-1.48386e-06
1.53338e-06
1.02138e-06
-9.96993e-07
1.77418e-06
1.62532e-07
6.59679e-07
-1.98592e-06
1.64433e-06
1.98592e-06
-1.60389e-06
-3.82031e-07
1.00542e-06
1.66982e-06
-1.87865e-06
-1.66982e-06
1.82963e-06
-1.59807e-07
1.87865e-06
-1.84293e-06
1.79997e-06
-1.60366e-06
-1.79997e-06
1.78203e-06
-1.82963e-06
1.7252e-06
-1.05937e-06
1.15647e-06
1.84293e-06
-1.78203e-06
1.36531e-06
-1.15647e-06
-1.36531e-06
1.81113e-06
1.60366e-06
-1.81113e-06
2.07467e-07
-1.7252e-06
1.60389e-06
1.98773e-06
-8.75497e-08
1.86173e-06
1.60916e-06
2.86868e-08
2.94445e-07
2.21956e-07
-1.37289e-06
3.07327e-07
8.99455e-07
5.60161e-08
-1.68709e-06
1.63107e-06
-4.25799e-07
-1.28312e-06
2.82472e-07
1.32669e-06
7.14208e-07
-1.66901e-06
9.54807e-07
1.39857e-06
-1.42561e-06
-1.1326e-06
1.29915e-06
-1.66547e-07
-1.51916e-06
6.07131e-08
4.16651e-07
-1.71202e-06
-1.14733e-06
-2.71505e-07
-6.82049e-08
4.02187e-07
-3.33982e-07
-2.80478e-08
-1.37055e-06
-1.23864e-06
9.13058e-08
1.86358e-06
-1.44693e-06
-2.82353e-06
1.06064e-06
1.44551e-06
8.95849e-08
-1.5351e-06
1.89542e-06
-1.18121e-06
-4.99974e-08
-1.37985e-06
1.42985e-06
3.99419e-07
8.44327e-07
1.83028e-06
-4.92351e-07
-1.40614e-07
1.27583e-08
-4.15667e-08
-4.22735e-07
-2.35632e-07
-3.82754e-07
3.87835e-07
1.32421e-06
-2.07365e-06
1.48885e-06
5.84794e-07
-1.02188e-07
1.40956e-06
-8.74042e-07
-1.1996e-06
1.11985e-06
-1.73808e-06
-2.30691e-06
1.65554e-06
6.51368e-07
-1.24538e-06
1.12772e-07
-1.58985e-06
-1.14345e-06
1.56162e-06
-8.1806e-07
-1.63686e-06
-1.90327e-06
-1.83911e-06
-1.32771e-07
1.97188e-06
-1.67196e-06
-6.32369e-08
1.7352e-06
1.20781e-06
-1.63361e-06
2.3263e-06
-6.70757e-07
1.61406e-06
-1.46054e-06
-1.53513e-07
1.78538e-06
5.40921e-07
-1.78778e-06
1.40503e-06
3.05192e-07
-2.11391e-06
3.67561e-08
-1.70872e-06
2.97209e-06
-1.02085e-06
1.73429e-06
-1.65286e-06
-8.14229e-08
1.52858e-06
9.05625e-07
-1.53268e-06
1.53268e-06
-5.06654e-07
1.17689e-06
1.7952e-06
-1.69645e-06
1.7332e-06
2.01218e-06
2.00049e-06
1.79557e-06
-1.91569e-06
-1.68119e-06
1.61795e-06
7.0031e-10
2.5567e-08
-1.35758e-06
2.53447e-06
-1.15211e-06
2.36363e-06
-1.21153e-06
-1.61048e-06
1.54018e-06
-1.784e-06
-1.12512e-06
2.69981e-06
-1.57469e-06
-3.7668e-07
1.58449e-06
1.58281e-06
-1.13483e-06
-4.47976e-07
-1.77799e-06
1.25122e-07
-1.5865e-06
-1.91488e-07
-1.88107e-06
2.6058e-06
-7.2473e-07
1.76789e-06
-2.893e-06
-4.90588e-07
2.27597e-06
2.5979e-06
-1.39632e-06
-1.20158e-06
5.32202e-07
-5.32202e-07
1.17024e-06
-1.17024e-06
-7.43727e-08
-1.53611e-06
-1.99823e-06
2.49632e-06
-4.98086e-07
1.62885e-06
3.17729e-07
-1.94658e-06
4.43314e-07
-2.34658e-06
-1.64231e-06
-3.88806e-08
1.13378e-06
-1.13378e-06
-5.70918e-07
5.70918e-07
8.18736e-07
1.18859e-06
-2.54617e-06
1.2889e-06
2.93904e-07
6.07573e-07
1.93405e-06
-1.81815e-06
2.31651e-07
-1.50042e-06
8.01304e-07
1.02897e-06
-3.94238e-07
-2.02557e-06
2.41981e-06
1.71401e-06
-1.12922e-06
-1.31148e-06
1.96284e-06
-1.86542e-06
-2.10208e-06
-2.55107e-07
2.35719e-06
1.02321e-06
1.74256e-06
1.53968e-06
2.17811e-06
-3.82534e-07
1.65164e-07
-1.62571e-06
-1.47775e-06
2.01867e-06
1.13815e-06
-2.51616e-06
3.56389e-07
1.91958e-06
-1.16976e-06
-5.46572e-07
1.71633e-06
4.02536e-07
-2.67205e-06
1.94732e-06
5.43999e-07
-1.71376e-06
-1.59402e-06
-1.52632e-06
1.88271e-06
-2.23747e-06
1.98236e-06
2.10987e-07
2.0002e-06
-2.21118e-06
-1.67059e-06
2.151e-06
2.06182e-07
2.53918e-06
-3.88172e-07
-1.53424e-06
1.72034e-06
-1.86105e-07
1.37259e-06
-2.93783e-08
1.56956e-06
-1.61674e-06
-1.01454e-06
1.55854e-06
-1.58643e-06
-1.4304e-07
1.72947e-06
-1.70795e-06
1.55444e-06
-1.24537e-07
7.84216e-07
1.37799e-06
-2.84542e-07
1.13817e-06
-1.2627e-06
-1.693e-06
1.06571e-07
2.04714e-06
-1.20684e-06
-8.40297e-07
-1.71815e-06
1.6901e-06
-4.12152e-08
1.79763e-06
-1.75641e-06
-2.08127e-06
2.04006e-06
1.65501e-06
2.277e-07
1.86599e-06
1.00408e-06
1.04306e-06
2.25503e-06
-8.8244e-07
-1.7334e-06
7.18855e-07
-4.80655e-07
2.12061e-06
-1.63996e-06
-1.39873e-06
1.25569e-06
-2.12084e-06
1.32884e-06
7.91995e-07
1.86513e-06
-1.632e-06
-2.33126e-07
1.46975e-07
3.95735e-07
-2.02773e-06
-5.85299e-08
1.74863e-06
1.81772e-06
-2.35619e-07
-1.5821e-06
1.04621e-07
-2.12256e-06
4.65999e-07
1.65656e-06
-1.94746e-06
7.76763e-07
1.1707e-06
3.12113e-07
1.50561e-06
2.12821e-06
2.91602e-07
-2.17329e-06
1.08243e-06
1.09086e-06
1.04262e-06
-1.04262e-06
1.07167e-06
-1.06247e-06
-9.2263e-07
-9.63911e-07
9.63911e-07
-9.73426e-07
9.73426e-07
1.02138e-06
1.64241e-06
-2.28768e-06
6.45267e-07
-9.75451e-07
9.75451e-07
-9.56279e-07
9.56279e-07
9.84043e-07
8.6902e-07
-8.6902e-07
-1.08027e-06
1.08027e-06
-8.2124e-07
9.29551e-07
-9.29551e-07
7.76665e-07
-9.96993e-07
1.23359e-06
1.02144e-06
5.80646e-07
1.06846e-06
-1.64911e-06
1.02439e-06
-1.02439e-06
1.80654e-06
-2.28719e-06
-2.28655e-06
1.4824e-06
1.099e-06
-1.099e-06
-2.09452e-06
8.87674e-07
1.99202e-06
-2.68939e-06
6.97375e-07
-3.64754e-07
-1.57699e-06
1.94175e-06
-1.31796e-06
-8.04598e-07
-1.88534e-06
1.52058e-06
-1.37016e-06
-7.24359e-07
-1.19176e-06
-7.55707e-07
1.36778e-06
-2.56994e-06
1.20217e-06
-7.5306e-07
1.05937e-06
2.15119e-06
-1.83907e-06
2.53596e-07
-1.52782e-06
1.27422e-06
-1.0406e-06
2.12322e-06
-1.56128e-06
-5.61935e-07
-1.69618e-06
1.63765e-06
2.21652e-06
-1.69501e-06
1.55889e-06
1.36116e-07
-6.44134e-07
-8.10771e-08
1.76322e-06
-1.61624e-06
1.82254e-06
-1.42681e-06
-4.81141e-07
1.77587e-06
-1.32789e-06
-4.47981e-07
-5.89902e-07
-1.98004e-06
-1.44108e-06
-4.44257e-07
-1.74633e-06
1.51071e-06
-2.95175e-07
4.46207e-07
-1.8407e-06
1.39449e-06
1.61221e-06
-1.35861e-06
1.78833e-06
-1.32233e-06
1.00803e-06
7.5668e-07
-1.76471e-06
-4.39587e-07
1.77803e-06
-1.33844e-06
-1.50218e-07
1.98802e-06
-1.21125e-06
-1.04409e-06
-5.59183e-07
1.60327e-06
8.61626e-07
-1.82463e-06
9.63004e-07
2.12521e-06
-1.04278e-06
-1.20688e-06
-3.20934e-07
2.0302e-06
2.26431e-06
-7.81907e-07
-1.95181e-06
1.38988e-06
6.70338e-08
-5.73529e-08
2.10309e-06
-2.25331e-06
2.06302e-07
3.4906e-07
6.70057e-07
1.13188e-06
-1.57147e-06
-1.87442e-07
4.60437e-07
1.7777e-06
3.33069e-07
-1.59772e-06
1.26465e-06
-4.82641e-07
1.8501e-06
-1.36746e-06
1.84433e-06
-9.82706e-07
1.54067e-06
-2.18481e-06
7.33944e-07
-8.16603e-07
9.33455e-07
-1.96899e-06
1.24463e-06
1.76493e-07
-3.29982e-07
1.22371e-06
1.20819e-06
-1.76737e-06
-1.14941e-06
1.90609e-06
-1.87554e-06
5.53217e-07
-1.99984e-06
7.88589e-07
2.22494e-06
-1.21849e-07
1.92977e-06
-1.33305e-06
-6.86568e-07
2.01962e-06
-1.93834e-06
1.09805e-06
-2.11496e-06
-1.16353e-06
-6.01173e-07
-2.09392e-06
1.05114e-06
1.29506e-06
4.4177e-07
-2.01876e-06
-1.06639e-06
-1.20549e-06
-5.79114e-07
1.51451e-06
1.28847e-06
4.72931e-07
-1.7614e-06
1.69308e-06
-1.36001e-06
1.78567e-06
-1.05172e-06
1.74891e-06
1.12479e-06
4.78483e-07
-3.28056e-07
1.59138e-06
-1.26332e-06
-1.48149e-06
1.68779e-06
5.74288e-07
-8.70211e-07
1.30501e-06
-1.61248e-06
1.55513e-06
-3.66264e-07
1.63091e-06
1.91821e-06
-4.54209e-07
1.8487e-06
-1.27454e-06
-4.54932e-07
1.72947e-06
1.74304e-06
-2.22418e-06
1.37986e-06
-1.70984e-06
-1.13645e-06
1.52312e-06
-3.86667e-07
1.18646e-06
-1.72874e-06
-6.9371e-07
1.26958e-06
1.42271e-06
-1.57548e-06
-2.94409e-07
-1.38265e-06
1.73171e-06
-1.55717e-06
1.6242e-06
-1.67646e-06
-3.48884e-07
-1.9209e-06
8.98784e-07
1.02211e-06
2.88395e-07
2.50215e-07
-1.01713e-06
1.75904e-06
-7.41908e-07
1.30624e-07
-1.17258e-08
-1.47305e-06
1.48478e-06
-1.84098e-06
6.35488e-07
1.88493e-06
-7.86883e-07
-1.15275e-06
1.97452e-06
-9.23384e-07
2.29649e-07
-1.58826e-06
-1.05239e-06
-9.16814e-07
2.33439e-06
9.68116e-07
-1.66764e-06
1.48019e-06
-1.80402e-06
9.08135e-07
1.14238e-06
-1.83609e-06
-1.1251e-07
8.60525e-07
8.98516e-07
-9.12861e-07
1.90396e-06
-9.91101e-07
5.66508e-07
1.16296e-06
-1.65477e-06
-6.45298e-07
-6.61634e-07
4.2371e-07
1.73037e-06
-2.02478e-06
5.25842e-07
9.97273e-07
1.82864e-06
-1.04088e-06
-7.62192e-07
1.80307e-06
1.64225e-07
-1.37111e-06
-1.82788e-06
1.28131e-06
1.42404e-06
-1.53655e-06
-8.80306e-08
1.51074e-06
1.48331e-06
-2.28878e-06
8.05466e-07
-1.81501e-07
-1.39398e-06
2.21314e-06
9.90487e-07
8.38154e-07
-9.31641e-07
-7.17467e-07
1.88927e-06
8.1111e-07
1.09285e-06
-1.90781e-06
9.76168e-07
-1.75835e-06
-1.56109e-06
2.04639e-06
-5.63073e-07
-1.16076e-06
-1.43046e-06
-9.20195e-07
-1.61196e-06
1.36175e-06
2.69166e-07
-1.6888e-06
1.02717e-06
-6.70103e-07
-1.15778e-06
-5.17645e-08
-6.27601e-07
-1.4763e-06
1.12708e-06
-5.63478e-07
1.84479e-06
4.31034e-07
-2.10163e-06
-7.8943e-07
-1.11838e-06
-1.42885e-06
4.62761e-07
1.83397e-06
1.70963e-06
-1.26667e-06
1.09584e-07
6.92312e-07
1.35407e-06
-1.51555e-06
1.93254e-06
1.96169e-06
-1.39127e-06
-5.70413e-07
4.46138e-07
1.26244e-06
-3.40183e-07
1.7262e-06
-1.38601e-06
1.95475e-06
1.6025e-06
-6.2814e-08
-1.8406e-06
1.77608e-06
-7.78807e-07
1.57312e-06
1.14848e-06
1.26836e-06
-1.90858e-06
1.39447e-06
4.50321e-07
-1.37581e-06
-2.49899e-07
-5.8581e-07
-1.51582e-06
2.08623e-06
-7.32154e-07
-2.26227e-06
-1.62157e-06
2.45757e-07
1.06198e-06
1.30166e-06
2.57867e-06
-1.55546e-06
1.67956e-06
-3.32664e-07
-1.71868e-06
1.54944e-06
-1.30369e-06
-1.2059e-07
-1.92768e-06
2.0357e-06
-1.08013e-07
-1.57729e-06
-3.30511e-07
1.2132e-06
1.32024e-06
-2.57934e-06
-1.76061e-06
-3.26578e-07
-1.59274e-06
2.25057e-06
-1.73449e-06
1.54689e-06
1.20927e-06
-6.13136e-07
-1.3164e-06
-5.94156e-07
-1.36118e-06
1.00961e-06
1.07839e-06
-5.71855e-07
-1.52487e-06
-1.41956e-06
1.11661e-06
3.02951e-07
-1.28189e-06
-6.09677e-07
2.4295e-06
-1.29136e-06
7.31203e-07
6.88637e-07
-6.48722e-07
-1.36485e-06
-1.19363e-06
-7.37624e-07
7.80482e-07
6.39358e-07
1.4813e-06
-2.21345e-06
9.59213e-07
-7.80968e-07
-2.20588e-06
2.05332e-06
-5.21035e-07
-1.6124e-06
-1.91056e-06
-1.93304e-06
-1.07895e-06
-3.4061e-07
1.2904e-06
-1.21829e-06
-1.11169e-06
-1.55956e-06
2.41008e-06
1.74081e-06
-2.17359e-06
-1.69149e-06
-1.80331e-06
-8.12472e-07
-1.41547e-06
1.00054e-07
-5.93549e-07
1.64634e-06
1.95235e-07
-9.06178e-07
-1.36756e-06
-7.95586e-07
-4.31646e-07
-7.50318e-07
-9.41171e-07
-1.2649e-06
-1.91199e-06
-3.25472e-07
-9.95449e-07
-2.07073e-07
1.34755e-06
2.19683e-06
-2.18519e-06
9.85586e-07
-1.97188e-06
-1.89872e-06
2.03153e-06
-1.32812e-07
-7.00674e-07
-1.94498e-06
-1.17787e-06
-1.43078e-07
-1.18649e-06
-1.22202e-06
-7.00674e-07
-1.22598e-06
1.86557e-06
1.8775e-07
2.23486e-07
-1.08303e-06
1.88236e-06
-1.69877e-07
1.30367e-06
-1.2519e-06
-1.19204e-07
1.58e-06
6.35445e-07
-2.33519e-06
1.20598e-06
1.1292e-06
-1.00497e-06
-1.27664e-06
-1.2568e-06
-2.64063e-06
-9.70357e-07
-8.48991e-07
2.07849e-06
1.8204e-06
1.67291e-06
4.47701e-07
1.20361e-06
-3.33641e-08
4.32426e-08
-1.21012e-06
5.38622e-07
-6.4195e-09
1.21012e-06
-5.38622e-07
1.37996e-06
1.20361e-06
1.16621e-06
-1.89167e-06
1.13596e-06
1.48414e-06
-1.19023e-06
2.04015e-06
-9.28288e-07
-4.71623e-08
9.81939e-07
4.24501e-08
-9.10703e-07
9.69487e-07
-9.66874e-07
-9.55971e-08
-9.28288e-07
1.00268e-06
-3.87671e-08
-1.03934e-06
6.59185e-08
9.25453e-07
-8.89437e-07
-6.68417e-08
9.10703e-07
-4.16836e-08
-9.69487e-07
1.00468e-07
9.66874e-07
-3.73231e-08
-9.25453e-07
-4.09762e-09
8.89437e-07
-1.00268e-06
9.81939e-07
-1.03934e-06
-1.35651e-07
-1.47598e-06
-2.04373e-06
-9.63611e-07
1.38732e-06
-1.28897e-06
1.92442e-06
7.13955e-07
1.01066e-06
1.80448e-07
1.39389e-06
-1.44793e-06
2.6368e-07
-1.24516e-06
1.01066e-06
7.44644e-07
-1.7877e-06
-1.81409e-06
1.65429e-06
1.57753e-06
9.9069e-07
-1.72643e-08
-9.9069e-07
-1.23231e-06
1.34497e-06
-1.12664e-07
-2.02288e-06
8.05725e-07
9.97447e-07
-1.38308e-06
2.26662e-06
1.57876e-06
-1.71487e-06
-1.38881e-06
1.00214e-06
-1.05864e-07
-8.57305e-07
1.15022e-06
2.07064e-07
-1.40328e-06
2.05888e-06
-2.10206e-06
-1.20048e-06
1.20048e-06
-1.94118e-06
-1.19167e-06
-1.59168e-06
1.15022e-06
1.385e-06
-2.02892e-06
1.60898e-06
-2.82335e-07
-1.09752e-06
7.90218e-07
-1.2687e-06
1.52091e-06
-1.07293e-06
7.12538e-07
-7.12538e-07
1.3025e-06
-1.3248e-06
-3.11419e-07
3.11419e-07
9.39132e-07
-9.39132e-07
-1.43136e-06
2.17541e-07
-2.81488e-07
1.68626e-06
-3.39737e-07
-1.34653e-06
1.0279e-06
-1.0279e-06
9.29164e-07
5.02204e-07
9.27644e-07
4.02187e-07
-1.31648e-06
1.20721e-06
2.02352e-07
1.30768e-06
-7.59164e-07
-1.43509e-06
5.91737e-07
-2.08192e-08
-8.93036e-07
-3.83005e-07
1.15806e-06
-4.67502e-07
2.67365e-07
8.90695e-07
-1.44338e-06
-1.69021e-07
-7.85431e-07
-1.02119e-06
-1.22106e-06
2.57448e-07
-7.95586e-07
2.99454e-07
1.13667e-06
2.39724e-07
-8.34336e-07
-7.39665e-07
7.39665e-07
2.60017e-08
1.22969e-06
-1.34076e-06
-8.97968e-07
5.53875e-07
-5.53875e-07
-1.44372e-06
1.5804e-06
-5.64194e-07
-1.34637e-06
-8.00809e-07
-9.09415e-07
1.99413e-06
-1.08471e-06
2.07772e-06
-3.35324e-07
-1.74239e-06
-3.33982e-07
4.0019e-07
1.20843e-06
-1.77262e-06
2.19993e-06
-2.80467e-07
2.80467e-07
-6.37428e-07
2.09288e-06
-9.73037e-07
2.06977e-06
-1.62207e-06
9.10958e-07
-1.31006e-06
2.48493e-07
1.44029e-06
8.52183e-07
-1.7616e-06
2.00789e-06
1.29422e-06
1.10807e-07
1.08937e-07
-1.07929e-06
1.52641e-06
-4.92747e-07
-1.84316e-06
4.75599e-07
-5.91737e-07
1.3926e-06
-1.69839e-07
1.5749e-06
2.74769e-07
1.11783e-06
5.15282e-08
1.52337e-06
9.76359e-07
1.94478e-06
3.23817e-07
1.77385e-06
-1.33507e-07
-4.11827e-08
-1.67084e-06
1.61931e-06
1.19103e-06
-2.87171e-07
1.4205e-06
3.12706e-07
-2.62754e-07
1.19971e-06
-1.09013e-06
1.25113e-06
-5.83106e-08
3.35285e-07
-3.52125e-07
1.08704e-06
8.23507e-07
-1.18561e-06
1.67193e-06
1.9709e-07
-1.25667e-06
-7.64404e-08
1.18099e-06
-9.23547e-07
1.14367e-06
-6.25634e-07
8.87851e-07
1.96181e-06
-1.06038e-06
-1.49679e-06
2.55787e-07
-1.46725e-06
4.34525e-07
1.72583e-07
-1.83911e-06
1.10057e-06
-1.04492e-06
-6.9783e-07
-1.08101e-06
1.55661e-06
5.35144e-08
-8.02515e-08
)
;

boundaryField
{
    back
    {
        type            empty;
        value           nonuniform List<scalar> 0();
    }
    front
    {
        type            empty;
        value           nonuniform List<scalar> 0();
    }
    top
    {
        type            calculated;
        value           nonuniform List<scalar> 10(-2.53344e-06 -2.75616e-06 -2.088e-06 -1.41984e-06 -1.41984e-06 -2.088e-06 -2.53344e-06 -5.2896e-07 -5.2896e-07 -2.75616e-06);
    }
    outer_arc
    {
        type            calculated;
        value           uniform 0;
    }
    bottom
    {
        type            calculated;
        value           nonuniform List<scalar> 10(1.90781e-06 1.91932e-06 1.92954e-06 1.95534e-06 2.09672e-06 1.89156e-06 2.01358e-06 1.93126e-06 1.22062e-06 1.78706e-06);
    }
    inner_arc
    {
        type            calculated;
        value           uniform 0;
    }
}


// ************************************************************************* //
