/*--------------------------------*- C++ -*----------------------------------*\
  =========                 |
  \\      /  F ield         | OpenFOAM: The Open Source CFD Toolbox
   \\    /   O peration     | Website:  https://openfoam.org
    \\  /    A nd           | Version:  9
     \\/     M anipulation  |
\*---------------------------------------------------------------------------*/
FoamFile
{
    format      ascii;
    class       volScalarField;
    location    "0.71";
    object      p;
}
// * * * * * * * * * * * * * * * * * * * * * * * * * * * * * * * * * * * * * //

dimensions      [0 2 -2 0 0 0 0];

internalField   nonuniform List<scalar> 
578
(
-5.34835e-10
-1.31768e-09
-4.02676e-10
8.74071e-11
-1.31996e-09
8.56741e-10
1.14685e-09
-1.09942e-09
-9.57085e-10
-1.99868e-09
4.63105e-10
-1.10043e-09
3.82079e-11
-1.25612e-09
1.07107e-09
-7.46417e-11
-6.41188e-10
-5.90745e-10
-8.64834e-10
-6.6026e-10
9.48253e-11
-2.41107e-12
2.50299e-10
3.76485e-10
3.66641e-10
-8.09724e-10
-2.91849e-11
-1.16874e-10
-9.35491e-10
-3.88905e-11
-5.31254e-11
9.5881e-10
-4.47546e-10
1.36906e-10
9.56751e-10
-4.8283e-10
-1.12831e-09
-1.04733e-09
-5.36505e-11
-1.52633e-09
-1.21194e-09
-9.73387e-10
-1.20635e-09
1.12758e-09
-3.58791e-10
1.41137e-09
1.06588e-09
-1.03352e-09
-6.19885e-11
-5.43984e-11
1.30633e-09
3.56994e-11
1.20406e-09
1.25653e-10
1.59438e-11
-4.94182e-10
2.36632e-10
1.35821e-10
-3.19725e-10
-7.11029e-10
-6.2239e-10
-8.81096e-10
-8.68924e-10
-1.38461e-09
9.33455e-12
1.0392e-09
-2.80389e-10
6.09923e-10
3.5056e-10
-7.91782e-10
1.77539e-10
9.24067e-10
1.38032e-11
-9.28968e-10
4.57199e-10
-1.46859e-09
-1.19291e-09
-9.88499e-10
1.77272e-11
7.87527e-10
1.01089e-09
-1.01905e-09
1.50189e-09
1.38287e-09
2.12739e-10
7.78036e-10
1.50263e-09
-3.19556e-10
-8.97009e-10
7.26032e-10
-2.47436e-11
4.99973e-10
9.14042e-10
5.81077e-11
4.55898e-10
8.64212e-10
1.2451e-11
1.44576e-11
-1.87484e-09
1.06489e-09
1.00359e-09
-8.95582e-10
-2.67653e-11
6.33752e-10
-3.54216e-12
-1.26664e-09
5.04018e-10
-1.4862e-09
9.23578e-10
-1.31764e-09
-4.48134e-10
-8.47152e-10
-7.26532e-10
6.72144e-10
7.46189e-10
-1.0443e-11
7.46989e-11
-6.54902e-10
7.08048e-10
6.0453e-12
-7.15371e-10
1.93744e-09
-9.94391e-10
7.37355e-11
1.13322e-09
4.81256e-10
8.42581e-10
-6.6459e-11
8.76198e-10
1.28558e-10
8.95519e-10
4.27094e-10
6.02854e-11
-7.81258e-10
7.98904e-10
8.37197e-10
-1.29408e-09
-8.69922e-12
4.43059e-10
9.0208e-10
9.79005e-10
2.69288e-10
8.70183e-10
-2.67287e-10
-8.96172e-10
2.99333e-10
3.3304e-10
-8.41919e-11
-9.97304e-10
-3.72041e-12
-1.09559e-09
3.90543e-10
-1.29052e-09
-7.20074e-10
1.04235e-09
-5.38446e-11
-7.13273e-10
7.23424e-11
1.14881e-09
-1.11126e-09
-1.16184e-09
-1.13277e-09
1.0351e-09
-1.0679e-09
-4.77825e-10
2.8853e-10
-3.08222e-10
1.05563e-09
1.06347e-10
1.13788e-11
-9.78889e-10
-1.32811e-09
8.6085e-10
6.57152e-10
1.02725e-09
-1.2137e-12
1.95782e-11
-6.12358e-10
-1.0641e-09
-7.89254e-10
1.13125e-09
-1.04722e-09
6.174e-10
1.95906e-11
8.78189e-10
-6.06546e-11
-9.64427e-11
1.16738e-09
1.0317e-09
-1.15244e-09
-1.18039e-09
-1.14639e-09
3.68555e-10
1.03683e-09
-1.57096e-09
2.46486e-11
1.53547e-10
-1.11522e-10
9.9558e-10
-1.18178e-09
8.6591e-11
3.44651e-11
2.07789e-09
-8.35294e-12
8.94237e-12
-1.20326e-09
9.65765e-10
-8.32091e-11
-1.14354e-09
1.43147e-10
1.81018e-10
9.64564e-10
7.61147e-10
3.17136e-11
7.85437e-10
5.87489e-11
1.02796e-09
-1.17214e-09
1.03057e-09
4.08203e-10
-1.16209e-09
1.01991e-09
-5.18306e-10
-1.18416e-09
1.13436e-09
4.77818e-10
3.47855e-11
1.2376e-10
-8.97122e-11
-8.9125e-10
-1.78611e-09
1.98664e-09
7.4009e-10
-4.69377e-10
4.5911e-10
-8.88757e-10
-1.21395e-09
1.088e-09
4.77459e-11
-1.93193e-10
1.0959e-09
-1.33482e-09
1.17772e-11
1.10438e-09
-1.04361e-10
-9.02121e-10
9.09279e-10
-1.7436e-09
7.35462e-10
5.29092e-11
2.57857e-11
6.44555e-10
1.08725e-09
1.30696e-10
9.95842e-10
-2.82608e-10
-6.85228e-10
9.79706e-10
-1.00118e-09
1.78673e-09
-4.36155e-10
1.13285e-09
1.53284e-10
1.71715e-10
-1.03974e-09
-6.24531e-10
3.18544e-10
-2.21349e-10
-1.41724e-09
3.80431e-10
-3.85373e-10
3.76216e-10
1.68817e-10
2.84563e-11
4.27167e-11
5.25263e-11
-3.69498e-12
2.04829e-10
1.05533e-09
9.54958e-11
-1.24956e-09
2.50355e-11
2.95779e-11
3.66511e-11
5.60849e-11
8.59906e-10
-5.38274e-10
5.02201e-10
2.12092e-10
1.58474e-10
1.52528e-10
6.10399e-10
-1.59707e-11
9.54448e-10
1.30973e-10
1.57787e-10
-1.24331e-09
-1.33649e-10
-5.06603e-11
1.22689e-10
6.77596e-11
-1.60679e-10
1.86966e-11
-1.67348e-10
1.57915e-10
6.38549e-11
-2.17848e-12
-6.25173e-10
7.72806e-11
5.95837e-11
-3.42688e-10
-3.94716e-11
4.97786e-11
-1.80466e-10
1.26416e-10
3.26374e-11
5.59488e-10
-1.43095e-10
-3.25282e-10
1.27212e-10
5.87881e-10
2.78955e-11
3.12032e-11
2.59843e-10
1.03499e-11
-1.39192e-11
9.57611e-10
1.01245e-09
-1.17134e-09
-2.66315e-11
-1.97051e-12
8.33372e-10
1.92378e-11
-6.41379e-12
7.15247e-10
1.84867e-10
5.2743e-11
4.98425e-12
-3.46548e-10
-1.47096e-11
3.31184e-11
3.54955e-11
-4.46467e-11
-4.95698e-10
1.07789e-10
9.48936e-10
5.34536e-10
8.2687e-10
-9.15363e-10
9.5304e-10
-1.02158e-09
-1.13351e-09
1.01529e-09
-3.14983e-10
-1.43125e-09
1.32093e-09
1.91172e-10
1.25618e-09
-1.49643e-09
1.33229e-09
7.27334e-12
-4.78018e-10
1.35069e-10
-7.23482e-10
4.2187e-11
5.78639e-11
-5.91009e-11
8.44279e-10
4.63465e-11
-1.18283e-10
-1.07137e-09
-9.52295e-10
3.62935e-10
5.68146e-10
3.66251e-10
1.42537e-09
-2.36148e-11
9.37001e-10
-1.07227e-09
-2.4426e-10
4.99575e-12
-1.0974e-09
1.02326e-09
2.29554e-10
1.45648e-10
-7.07816e-12
-3.41523e-12
1.25831e-09
1.17571e-09
-8.38282e-10
2.68306e-11
2.15949e-10
2.60445e-10
-2.9824e-10
-1.34422e-10
1.01588e-10
9.00578e-10
-1.44995e-10
1.66242e-10
3.8677e-10
-3.77183e-11
7.92349e-10
-3.02672e-12
-6.50647e-10
-6.65926e-12
-1.35139e-10
5.90442e-10
-2.83414e-10
3.62324e-10
6.56592e-10
-8.80812e-11
-8.80949e-10
-4.36928e-10
5.36408e-10
-3.21367e-10
4.19903e-10
-9.56767e-10
8.27708e-10
-1.24616e-09
-4.48687e-11
9.23364e-10
5.88756e-10
-1.01939e-09
1.10627e-09
7.16865e-10
-4.82299e-10
-7.591e-10
-6.74882e-10
-9.41822e-10
-4.51739e-10
6.56792e-10
2.37237e-10
1.94712e-10
2.79458e-11
6.34796e-10
-6.29067e-10
-1.09112e-09
-5.86548e-10
-6.30991e-10
-2.64263e-10
-4.86877e-10
6.56375e-11
8.14737e-11
-4.93527e-11
8.20554e-10
-1.96303e-10
-8.11277e-11
7.12704e-10
6.99656e-10
-1.89968e-11
9.49149e-10
-2.09445e-11
7.2287e-10
4.56533e-11
9.37546e-10
3.6015e-11
-1.24758e-09
2.92912e-10
2.72026e-10
-7.21581e-10
1.56172e-09
8.43401e-10
-5.74372e-10
-6.44322e-10
-1.78174e-10
-8.4117e-10
6.43542e-10
-1.25225e-09
-3.61992e-10
-6.06355e-10
-1.31151e-10
-1.3674e-10
6.21602e-10
-5.29826e-11
-1.95119e-10
-9.78272e-10
-7.02995e-10
-8.00415e-10
-4.48236e-10
-7.02354e-10
2.71364e-10
3.84386e-10
-3.24166e-10
-1.07749e-10
-4.68489e-11
-5.68285e-10
-3.0032e-10
-4.15309e-11
-2.51638e-11
9.02483e-10
6.87228e-11
6.56153e-10
-3.79005e-10
6.65007e-11
-1.40986e-11
7.46017e-10
1.52578e-11
8.53415e-10
-3.59383e-11
6.30893e-11
-1.21214e-09
-1.5328e-10
-6.25199e-10
5.9495e-11
-6.12392e-10
-3.83328e-11
8.36828e-10
9.72587e-11
5.77519e-10
-2.52056e-11
-5.21296e-11
1.07233e-09
6.46482e-11
1.37661e-09
9.42463e-10
-2.29073e-11
-1.08402e-09
-1.46524e-09
7.14866e-10
5.54838e-11
3.82351e-10
4.58791e-10
-2.34385e-10
-8.5132e-10
-9.30926e-10
4.29517e-11
-1.6177e-10
1.04095e-10
-1.02599e-09
-8.82567e-10
-1.07642e-09
-1.06492e-09
-1.15438e-10
-5.89167e-11
9.1743e-10
6.80464e-10
6.5019e-10
7.92885e-10
6.84404e-10
-5.41398e-11
7.90759e-11
8.79913e-10
-5.94247e-10
-8.10499e-10
1.09255e-09
1.691e-10
4.52252e-10
-6.19891e-10
-5.46724e-10
-7.50024e-10
5.44675e-10
1.01846e-09
-7.31383e-10
9.45008e-10
6.10375e-10
-3.53204e-10
-1.12366e-09
-9.71867e-11
3.48378e-11
-4.11908e-11
-2.76528e-11
1.01587e-09
-9.77029e-10
-4.1256e-11
6.84923e-11
6.35567e-10
4.3774e-11
-5.53751e-10
-2.68146e-11
5.43412e-11
8.80176e-10
-6.52705e-10
6.25924e-10
-8.61183e-10
-3.75378e-10
4.35695e-10
4.73344e-10
3.25796e-10
)
;

boundaryField
{
    front
    {
        type            empty;
    }
    back
    {
        type            empty;
    }
    bottom
    {
        type            uniformFixedValue;
        uniformValue    
        {
            type            scale;
            scale           
            {
                type            squarePulse;
                start           0.3;
                duration        0.3;
            }
            xScale          
            {
                type            constant;
                value           1;
            }
            value           
            {
                type            constant;
                value           15.1;
            }
        }
        value           uniform 0;
    }
    left
    {
        type            zeroGradient;
    }
    top
    {
        type            zeroGradient;
    }
    right
    {
        type            zeroGradient;
    }
    inner_arc
    {
        type            zeroGradient;
    }
}


// ************************************************************************* //
