/*--------------------------------*- C++ -*----------------------------------*\
  =========                 |
  \\      /  F ield         | OpenFOAM: The Open Source CFD Toolbox
   \\    /   O peration     | Website:  https://openfoam.org
    \\  /    A nd           | Version:  9
     \\/     M anipulation  |
\*---------------------------------------------------------------------------*/
FoamFile
{
    format      ascii;
    class       surfaceScalarField;
    location    "0.71";
    object      phi;
}
// * * * * * * * * * * * * * * * * * * * * * * * * * * * * * * * * * * * * * //

dimensions      [0 3 -1 0 0 0 0];

internalField   nonuniform List<scalar> 
816
(
2.74934e-17
9.25588e-16
-9.53081e-16
-3.20275e-16
1.29915e-15
-9.78879e-16
-1.6109e-15
1.63839e-15
8.87714e-17
-1.19066e-16
3.02945e-17
9.07057e-16
-9.07057e-16
-4.98099e-16
6.32457e-16
-1.34358e-16
-9.48116e-16
9.48116e-16
-8.51381e-16
8.51381e-16
-1.92864e-15
5.6025e-18
1.92303e-15
2.38988e-16
-5.59263e-16
4.90156e-16
-9.88255e-16
2.25726e-15
-1.63444e-15
-6.22816e-16
3.75538e-17
-2.97988e-17
-7.75498e-18
2.1818e-15
-1.97678e-15
-2.05025e-16
-2.15493e-15
1.90203e-15
2.52895e-16
-1.6562e-15
2.72617e-15
-1.06996e-15
-1.02985e-15
-2.95036e-16
1.32489e-15
1.97317e-15
-1.60756e-16
-1.81242e-15
2.64693e-16
1.99257e-15
9.05943e-16
-2.83458e-15
1.63355e-16
-7.45836e-17
2.04586e-16
-1.86079e-15
1.07854e-15
-4.51752e-16
-6.26791e-16
2.77952e-16
1.22437e-16
-4.00389e-16
3.20605e-16
-4.26537e-17
-1.85533e-15
4.53868e-16
1.40146e-15
1.32988e-16
-1.20375e-16
-1.26126e-17
3.87008e-17
-8.17736e-17
4.30728e-17
6.13802e-16
6.85353e-16
9.49323e-16
1.77684e-15
1.44493e-16
-1.05792e-16
1.8214e-16
4.50317e-16
2.88188e-15
-1.93255e-15
3.86857e-16
-2.66008e-16
-1.20849e-16
-2.13013e-16
-1.94191e-15
-4.6692e-16
2.24376e-15
2.00044e-16
1.98176e-15
-2.71351e-16
-1.58398e-15
2.80602e-15
-1.02158e-15
-1.78444e-15
5.6384e-16
3.43216e-16
-7.07012e-16
-5.86689e-16
5.80031e-16
1.91519e-15
-1.31592e-17
-9.76148e-16
-4.67566e-16
1.44371e-15
-5.69692e-16
-3.78424e-16
7.35103e-16
1.78548e-15
-1.77988e-15
1.19512e-15
4.45133e-17
8.84742e-17
-1.06401e-16
-2.35642e-17
1.29965e-16
3.13241e-17
6.22967e-18
7.88718e-16
2.89825e-16
2.23585e-16
1.63272e-16
-1.37155e-17
1.37155e-17
6.1306e-16
-1.79117e-16
-4.33942e-16
-4.51752e-16
-9.76148e-16
-2.23613e-15
1.20628e-15
7.7011e-16
-1.23703e-15
-2.62955e-16
3.64471e-16
-6.59508e-16
-8.20263e-16
6.59508e-16
-6.39769e-17
-1.9128e-15
4.71934e-17
-3.02667e-17
-1.69268e-17
1.93256e-15
-1.73729e-17
1.84607e-15
1.0358e-15
-7.91516e-16
1.28167e-15
-8.21978e-16
2.40012e-15
-1.57814e-15
4.36467e-16
1.60147e-15
-2.03794e-15
5.45977e-17
7.57399e-17
4.5111e-17
2.08243e-18
1.62935e-15
7.8556e-16
-2.41491e-15
4.57865e-16
-5.27783e-16
6.99178e-17
7.70989e-16
-7.70989e-16
-1.1445e-15
2.05044e-15
-1.54744e-15
4.02941e-16
1.53123e-17
-3.50775e-16
-6.02307e-16
9.53081e-16
-1.56279e-15
-6.10831e-16
2.17362e-15
9.25588e-16
7.02797e-16
-7.02797e-16
-1.03244e-15
1.03244e-15
-1.11282e-15
2.16895e-15
-1.05614e-15
5.5512e-16
1.70039e-16
-2.35643e-17
5.7495e-16
3.81097e-17
-4.85203e-17
-1.51677e-15
1.56529e-15
1.32808e-15
5.7279e-17
-1.38536e-15
2.41174e-17
7.94063e-16
-1.90688e-15
5.30194e-17
1.63367e-15
-1.68669e-15
7.90926e-17
-6.75285e-17
-1.15641e-17
-1.89194e-15
-1.68182e-17
1.71877e-15
-1.70195e-15
-1.1633e-17
5.96055e-18
2.38988e-16
1.52239e-16
-2.09415e-15
-2.39667e-17
1.95653e-15
-1.35166e-15
1.78813e-15
2.31043e-17
2.96981e-17
-5.28024e-17
-1.37236e-15
6.29111e-18
-6.29111e-18
-2.69883e-16
2.25164e-15
3.23507e-16
7.07012e-16
5.5512e-16
-7.1354e-17
-6.99635e-16
9.88505e-16
1.25526e-15
2.05534e-15
1.90876e-15
-2.36699e-15
4.58232e-16
3.56085e-17
-1.25042e-17
-8.74479e-17
-3.16181e-17
8.6491e-16
1.26088e-15
-2.12579e-15
-2.5792e-17
1.35387e-15
-5.34189e-18
1.1633e-17
-8.8056e-17
1.48952e-15
-1.17446e-15
1.42019e-16
4.08588e-16
1.40157e-16
2.31982e-17
-4.71666e-16
-1.74693e-15
1.89678e-15
-1.49843e-16
-2.99965e-16
-1.26282e-15
1.73014e-15
-1.21521e-15
-5.14933e-16
1.66259e-15
3.62265e-16
-1.97901e-15
1.13234e-17
1.96769e-15
-2.03632e-15
2.89387e-16
2.94934e-17
4.95992e-17
-4.91975e-16
4.91975e-16
-1.78995e-15
-1.89066e-16
-1.41734e-17
1.80189e-15
-1.78772e-15
-2.74042e-17
-1.60704e-15
-1.44912e-15
-9.17866e-16
-1.40915e-15
1.42048e-15
-2.43908e-17
5.32733e-16
-5.08342e-16
-3.73729e-16
-1.43354e-15
1.58388e-17
3.02511e-16
-3.1835e-16
-5.80031e-16
-2.0627e-17
-1.76381e-15
-2.04236e-16
-1.05898e-15
1.26321e-15
1.96673e-18
-1.20048e-17
1.00381e-17
1.81264e-15
-1.45037e-15
-2.20852e-15
-5.84882e-17
2.26701e-15
6.3797e-16
-6.3797e-16
7.7011e-16
8.61698e-17
4.05805e-16
2.13179e-16
2.02028e-15
-2.23346e-15
-1.84552e-17
6.29685e-17
-8.41239e-16
1.45504e-15
8.55481e-18
2.17791e-17
-3.03339e-17
-6.02307e-16
1.98668e-16
-2.40719e-15
-1.71413e-15
5.32733e-16
-1.73148e-15
1.673e-15
-1.71377e-16
1.71377e-16
1.6084e-15
-1.55539e-16
-1.45178e-15
1.66495e-15
-1.61656e-18
1.01714e-17
1.68634e-16
-1.81945e-16
1.33116e-17
-1.65201e-16
-1.56628e-15
5.86689e-16
-6.14093e-16
6.60022e-16
-6.74196e-16
-5.92509e-17
4.55899e-16
-3.96648e-16
3.11496e-17
-1.48292e-15
6.43671e-17
-8.12939e-17
8.37637e-17
-1.93966e-17
2.07119e-15
-8.80873e-16
7.15672e-16
-1.01882e-16
-3.2206e-17
1.34088e-16
-5.80815e-16
6.11965e-16
-3.66324e-16
1.75878e-15
-1.39245e-15
-1.30972e-15
1.47976e-15
9.9076e-17
6.59784e-17
1.73591e-15
1.96669e-18
-1.23703e-15
8.3891e-16
8.91231e-16
2.07401e-15
9.8506e-17
-2.17252e-15
-1.32918e-16
3.10352e-17
-2.06198e-15
-9.90308e-17
2.16102e-15
1.73879e-15
-6.57954e-17
1.63014e-15
3.48186e-17
5.59263e-16
-9.43828e-17
-6.90034e-17
1.63386e-16
-1.01715e-17
2.9826e-17
-1.96545e-17
1.20049e-17
-3.04602e-17
1.70123e-15
-1.72864e-15
2.74125e-17
1.67554e-15
-1.63976e-15
-3.57833e-17
-1.61653e-18
3.15475e-17
-2.16033e-16
-4.86763e-16
7.4251e-17
1.0842e-16
-1.27816e-16
6.85054e-17
-8.64902e-17
1.43203e-15
7.49258e-17
-1.1339e-15
2.32691e-15
1.14595e-16
-1.90454e-15
3.341e-18
1.05079e-16
-1.31895e-15
1.91465e-16
-5.13084e-17
-3.21722e-16
3.96648e-16
1.89113e-15
-1.3724e-15
-1.10529e-16
-1.20172e-15
1.28789e-15
6.49877e-16
-7.15672e-16
6.46783e-16
-6.11965e-16
1.20396e-15
-1.43938e-16
-2.37299e-17
1.67668e-16
-1.32917e-16
-2.16033e-16
4.55899e-16
-3.51898e-16
-1.32928e-15
-8.80873e-16
6.49877e-16
6.46783e-16
1.976e-17
-8.2039e-17
1.14614e-15
-1.0641e-15
-5.80815e-16
-2.12941e-16
-4.80816e-17
-3.04602e-17
-5.08342e-16
-3.10353e-17
2.70023e-16
6.60022e-16
4.87966e-17
2.36433e-16
-2.8523e-16
1.66727e-16
1.74184e-16
1.72259e-15
2.39597e-16
2.10719e-16
9.99448e-17
-3.23766e-16
2.23821e-16
1.29965e-16
1.66024e-15
-2.01214e-15
3.846e-17
-2.24042e-15
2.22304e-15
3.23766e-16
-4.05805e-16
2.9826e-17
6.01205e-17
7.79899e-16
2.87797e-16
-8.78812e-16
2.24362e-16
1.89779e-15
2.67332e-16
-2.15931e-16
1.92201e-16
1.36626e-16
-5.69778e-17
-1.58953e-16
1.91314e-16
-1.42517e-16
-3.21722e-16
6.74196e-16
2.31036e-16
6.16448e-17
-2.92681e-16
6.14093e-16
1.79455e-16
1.23904e-16
6.82966e-17
1.07022e-16
5.97051e-17
7.2083e-17
-5.24436e-17
1.12214e-16
-1.12214e-16
1.66811e-16
-1.44067e-15
-1.73036e-15
3.34859e-17
-2.15431e-16
-8.33187e-17
8.33187e-17
-6.01205e-17
-3.64164e-16
-1.50307e-16
1.55539e-16
-5.23189e-18
1.50307e-16
-6.69879e-17
2.54124e-16
1.66811e-16
-1.80484e-15
-3.4431e-16
3.12104e-16
7.94427e-17
-1.32844e-16
5.34014e-17
1.51526e-16
2.23785e-16
3.98556e-17
1.55358e-16
-1.95214e-16
-3.68371e-17
7.66927e-17
-8.79779e-16
8.55564e-17
-2.184e-16
2.56858e-16
-1.32954e-16
1.67431e-16
-9.73596e-17
-2.07124e-16
1.37139e-15
2.19822e-16
6.17419e-17
2.05536e-16
-2.67278e-16
-5.35653e-17
1.87919e-16
3.1903e-17
1.95964e-15
-1.65643e-17
2.04484e-16
-5.15958e-17
2.28902e-15
-2.33457e-16
2.6536e-16
-1.56659e-16
-9.87776e-17
2.058e-16
2.34011e-17
3.0585e-16
-3.33916e-18
-2.27373e-16
9.44192e-17
3.77357e-16
-2.21999e-16
-7.99659e-17
8.62209e-16
-1.93898e-15
1.07677e-15
4.73889e-16
-4.73889e-16
-4.33874e-16
4.33874e-16
-5.16672e-16
5.16672e-16
5.1532e-16
-5.1532e-16
5.6384e-16
-5.69692e-16
-1.32987e-16
-2.69914e-16
4.02901e-16
7.35103e-16
-3.03371e-16
2.23405e-16
-7.21944e-16
7.21944e-16
-6.99635e-16
-6.97978e-16
6.97978e-16
-1.52389e-16
1.12404e-15
-9.71647e-16
3.64471e-16
-7.39866e-17
-6.03464e-16
6.77451e-16
-4.43185e-16
4.43185e-16
-2.87248e-16
1.78641e-15
-1.49917e-15
-7.55853e-16
-2.05995e-15
3.78486e-17
-8.20263e-16
-7.82291e-16
1.56785e-15
6.11769e-16
-1.19775e-15
2.14833e-15
7.88718e-16
-1.05161e-16
-4.2783e-17
8.14455e-17
1.1419e-15
1.82984e-16
-2.85448e-16
-1.17702e-15
1.46246e-15
8.38588e-16
-1.46426e-15
-8.72812e-17
-9.31113e-18
5.96055e-18
-7.02455e-16
-1.23652e-15
1.08396e-15
-1.58105e-15
-2.7601e-15
9.47678e-16
-4.30781e-16
-1.05462e-15
1.4854e-15
-1.8743e-16
-2.63984e-16
-3.20056e-18
2.67184e-16
-1.6673e-15
-1.54867e-16
1.54867e-16
-2.49027e-17
-2.94293e-17
7.14782e-16
-9.7886e-19
-5.31222e-18
4.88763e-17
-1.54804e-15
-1.76557e-15
1.61843e-15
-1.43544e-15
6.70948e-16
-1.75491e-15
5.57161e-16
2.04078e-15
1.32992e-15
6.35746e-16
-3.01269e-16
-1.2155e-15
5.04946e-16
1.12872e-15
-8.80206e-16
-1.5347e-15
1.01786e-16
5.13517e-16
-1.72872e-15
-1.50302e-15
1.34386e-15
1.77987e-15
1.63284e-15
-1.93644e-15
3.03601e-16
-5.45695e-16
-1.77595e-16
-3.74682e-16
-5.92601e-17
-5.45695e-16
-3.79302e-16
-2.39868e-15
-2.14348e-16
2.61303e-15
1.49667e-16
6.12642e-16
8.31072e-16
4.30264e-19
5.53029e-18
-4.99681e-16
4.99681e-16
1.67256e-15
3.82779e-16
7.83e-16
1.19954e-15
-1.50688e-15
-1.83528e-15
2.87239e-16
1.31216e-16
5.12726e-17
2.49345e-16
-3.22205e-16
7.28607e-17
-1.09657e-16
7.40423e-17
-1.04569e-15
2.44113e-16
-1.81023e-15
1.59589e-15
-7.43184e-17
-8.17737e-17
1.45276e-15
-9.78856e-19
-7.50296e-16
4.30279e-19
-1.34223e-15
2.48309e-16
-8.50377e-17
2.40594e-16
-8.58614e-16
1.93538e-15
2.93323e-16
-1.47549e-15
-6.50292e-16
-7.86728e-16
-5.85704e-16
-1.66027e-17
1.10298e-15
3.52058e-16
-1.0251e-16
-1.80902e-16
4.84155e-16
5.54392e-17
4.77932e-16
2.92178e-16
1.39022e-15
1.96036e-15
7.42372e-17
-3.38221e-16
4.30728e-17
-5.85704e-16
-2.00716e-17
3.01097e-17
-2.63845e-16
-6.06931e-18
1.37936e-15
8.72284e-16
-1.55366e-15
4.77932e-16
6.12642e-16
3.27973e-16
2.1428e-15
2.01283e-16
4.28968e-17
-1.20328e-15
-4.77027e-19
4.77027e-19
-1.78164e-17
1.84687e-15
5.22192e-19
-5.22192e-19
1.55689e-15
-1.05738e-17
-3.37539e-18
1.59081e-15
-4.77031e-19
5.22236e-19
1.83597e-15
-4.56615e-16
-1.30579e-15
2.25635e-16
-1.73845e-15
1.68286e-17
1.3281e-17
1.17317e-15
-1.21595e-15
-9.87837e-19
-1.24477e-16
-1.97728e-16
2.1371e-16
-1.3797e-16
1.18618e-18
-1.176e-17
2.60446e-17
-1.08063e-15
1.07132e-15
2.16188e-16
1.74327e-16
8.69933e-17
-1.86688e-15
-7.05663e-16
1.88807e-16
1.37918e-16
1.57928e-15
2.44372e-18
-2.13871e-18
5.76009e-16
-8.64445e-16
-2.11582e-16
-2.04275e-15
-2.34466e-16
-1.30734e-15
-6.00076e-17
1.01752e-15
-1.00758e-15
3.95214e-17
1.45589e-18
-9.52515e-19
1.85537e-16
-6.55522e-16
-4.04352e-16
-2.06926e-16
)
;

boundaryField
{
    front
    {
        type            empty;
        value           nonuniform List<scalar> 0();
    }
    back
    {
        type            empty;
        value           nonuniform List<scalar> 0();
    }
    bottom
    {
        type            calculated;
        value           nonuniform List<scalar> 
12
(
-7.25159e-16
-2.02486e-15
1.68118e-15
-1.68345e-15
9.78757e-16
2.23821e-16
-2.24362e-16
1.70801e-15
2.02441e-15
-1.7045e-15
-9.77138e-16
7.2329e-16
)
;
    }
    left
    {
        type            calculated;
        value           uniform 0;
    }
    top
    {
        type            calculated;
        value           uniform 0;
    }
    right
    {
        type            calculated;
        value           uniform 0;
    }
    inner_arc
    {
        type            calculated;
        value           uniform 0;
    }
}


// ************************************************************************* //
