/*--------------------------------*- C++ -*----------------------------------*\
  =========                 |
  \\      /  F ield         | OpenFOAM: The Open Source CFD Toolbox
   \\    /   O peration     | Website:  https://openfoam.org
    \\  /    A nd           | Version:  9
     \\/     M anipulation  |
\*---------------------------------------------------------------------------*/
FoamFile
{
    format      ascii;
    class       volScalarField;
    location    "0.68";
    object      p;
}
// * * * * * * * * * * * * * * * * * * * * * * * * * * * * * * * * * * * * * //

dimensions      [0 2 -2 0 0 0 0];

internalField   nonuniform List<scalar> 
578
(
-1.84763e-08
-4.68542e-08
-1.37295e-08
3.62772e-09
-4.73551e-08
3.13592e-08
4.13437e-08
-3.94743e-08
-3.41075e-08
-7.11535e-08
1.70248e-08
-3.94277e-08
2.16397e-09
-4.49611e-08
3.87877e-08
-2.3215e-09
-2.30153e-08
-2.12483e-08
-3.0949e-08
-2.33507e-08
3.7829e-09
2.00972e-10
1.00032e-08
1.43548e-08
1.42093e-08
-2.90997e-08
-4.53118e-10
-3.46675e-09
-3.32698e-08
-9.31689e-10
-1.19855e-09
3.5073e-08
-1.56161e-08
5.72748e-09
3.45893e-08
-1.69589e-08
-4.03764e-08
-3.76465e-08
-1.35661e-09
-5.48404e-08
-4.34224e-08
-3.48686e-08
-4.33778e-08
4.08985e-08
-1.21682e-08
5.08403e-08
3.8487e-08
-3.67758e-08
-1.65381e-09
-1.44147e-09
4.81223e-08
2.03013e-09
4.42836e-08
5.29592e-09
1.25954e-09
-1.79926e-08
9.51863e-09
5.79236e-09
-1.13629e-08
-2.52176e-08
-2.21471e-08
-3.19221e-08
-3.146e-08
-4.95803e-08
1.09609e-09
3.7788e-08
-9.56497e-09
2.22858e-08
1.32574e-08
-2.85279e-08
7.37726e-09
3.38568e-08
1.2455e-09
-3.34038e-08
1.69015e-08
-5.25873e-08
-4.25478e-08
-3.51478e-08
1.3545e-09
2.90453e-08
3.67416e-08
-3.57464e-08
5.38812e-08
4.98694e-08
8.18342e-09
2.81714e-08
5.43038e-08
-1.15961e-08
-3.22279e-08
2.6231e-08
-2.17454e-10
1.84885e-08
3.28838e-08
2.90792e-09
1.70345e-08
3.1346e-08
1.18578e-09
1.10121e-09
-6.71588e-08
3.8416e-08
3.65634e-08
-3.23407e-08
-3.60043e-10
2.34843e-08
6.65882e-10
-4.53925e-08
1.86073e-08
-5.3251e-08
3.33395e-08
-4.71239e-08
-1.56933e-08
-3.05114e-08
-2.57177e-08
2.47152e-08
2.73307e-08
3.23125e-10
3.35965e-09
-2.33251e-08
2.55419e-08
1.04712e-09
-2.56834e-08
6.99933e-08
-3.5691e-08
2.79034e-09
4.05711e-08
1.74402e-08
3.05717e-08
-1.70457e-09
3.14986e-08
4.63662e-09
3.21821e-08
1.54715e-08
2.95839e-09
-2.8067e-08
2.87502e-08
3.05423e-08
-4.63471e-08
3.78633e-10
1.65731e-08
3.23648e-08
3.51299e-08
9.72788e-09
3.12106e-08
-1.0129e-08
-3.22335e-08
1.13517e-08
1.197e-08
-2.80831e-09
-3.586e-08
-1.46331e-10
-3.90989e-08
1.44221e-08
-4.60427e-08
-2.58759e-08
3.75406e-08
-1.4421e-09
-2.54592e-08
3.48663e-09
4.205e-08
-3.968e-08
-4.1514e-08
-4.04308e-08
3.71253e-08
-3.80583e-08
-1.81388e-08
1.04024e-08
-1.21045e-08
3.80377e-08
4.94134e-09
1.05199e-09
-3.48302e-08
-4.75345e-08
3.14206e-08
2.36547e-08
3.6918e-08
6.53872e-10
1.4245e-09
-2.18072e-08
-3.78808e-08
-2.85121e-08
4.07151e-08
-3.70265e-08
2.22038e-08
1.40762e-09
3.214e-08
-1.82387e-09
-3.19129e-09
4.20194e-08
3.73441e-08
-4.20492e-08
-4.21989e-08
-4.08864e-08
1.34896e-08
3.74274e-08
-5.55472e-08
1.45382e-09
6.59728e-09
-3.77871e-09
3.61117e-08
-4.22107e-08
4.09708e-09
1.98803e-09
7.47728e-08
3.19049e-10
9.84353e-10
-4.30514e-08
3.51191e-08
-2.69619e-09
-4.08655e-08
5.9103e-09
6.47889e-09
3.49945e-08
2.73923e-08
1.79086e-09
2.82045e-08
2.11824e-09
3.72057e-08
-4.18629e-08
3.71932e-08
1.47127e-08
-4.15749e-08
3.66171e-08
-1.85914e-08
-4.22327e-08
4.09733e-08
1.71514e-08
1.63665e-09
5.54161e-09
-2.95421e-09
-3.28466e-08
-6.3295e-08
7.17887e-08
2.65968e-08
-1.69626e-08
1.65802e-08
-3.15543e-08
-4.33326e-08
3.93538e-08
2.47145e-09
-6.90261e-09
3.93656e-08
-4.78326e-08
9.17668e-10
3.96421e-08
-3.40983e-09
-3.24386e-08
3.26216e-08
-6.30779e-08
2.69749e-08
2.51911e-09
1.48689e-09
2.32882e-08
3.95701e-08
4.57597e-09
3.70101e-08
-1.02128e-08
-2.56626e-08
3.56828e-08
-3.56102e-08
6.50767e-08
-1.56764e-08
4.08301e-08
6.33536e-09
6.86057e-09
-3.68965e-08
-2.24445e-08
1.1593e-08
-7.96602e-09
-5.10328e-08
1.37413e-08
-1.39198e-08
1.35842e-08
6.12364e-09
1.36753e-09
2.20941e-09
2.29444e-09
5.52907e-10
7.41852e-09
3.82524e-08
3.94845e-09
-4.46511e-08
1.45335e-09
1.26204e-09
1.79144e-09
2.45643e-09
3.08933e-08
-1.93079e-08
1.80623e-08
9.0198e-09
7.03354e-09
5.50183e-09
2.20074e-08
1.52504e-11
3.4677e-08
4.57359e-09
5.83568e-09
-4.44368e-08
-4.83001e-09
-2.67165e-09
4.03082e-09
3.10471e-09
-5.80824e-09
1.21772e-10
-6.88691e-09
6.0739e-09
3.42706e-09
-8.59749e-11
-2.30407e-08
3.07488e-09
2.37807e-09
-1.23086e-08
-1.53831e-09
1.91412e-09
-6.55731e-09
4.92734e-09
1.30911e-09
2.01609e-08
-5.00745e-09
-1.18383e-08
5.16132e-09
2.11283e-08
1.17608e-09
1.64949e-09
9.90987e-09
1.04077e-09
-5.80806e-10
3.48236e-08
3.63269e-08
-4.19382e-08
-9.49639e-10
6.31358e-10
3.0477e-08
7.60382e-10
-4.5469e-10
2.56713e-08
7.10932e-09
2.3775e-09
1.17296e-10
-1.29712e-08
7.40499e-11
1.43149e-09
1.64142e-09
-1.56415e-09
-1.82956e-08
4.10182e-09
3.43004e-08
1.96438e-08
2.98185e-08
-3.31257e-08
3.43245e-08
-3.68942e-08
-4.07482e-08
3.65342e-08
-1.14865e-08
-5.12914e-08
4.77753e-08
7.21355e-09
4.55692e-08
-5.35437e-08
4.8423e-08
4.26972e-10
-1.70446e-08
5.0552e-09
-2.62162e-08
1.65562e-09
2.29227e-09
-2.02595e-09
3.07766e-08
2.25455e-09
-4.2169e-09
-3.85972e-08
-3.44568e-08
1.33733e-08
2.08731e-08
1.37037e-08
5.23823e-08
-2.27371e-10
3.37792e-08
-3.87569e-08
-8.57999e-09
9.21224e-10
-3.95754e-08
3.68323e-08
8.45911e-09
5.4919e-09
-3.84355e-11
2.62146e-10
4.55911e-08
4.27373e-08
-3.03494e-08
1.58484e-09
8.0948e-09
9.66567e-09
-1.07644e-08
-4.50961e-09
4.04105e-09
3.34649e-08
-5.53588e-09
6.33054e-09
1.5332e-08
-1.02659e-09
2.98677e-08
2.69504e-10
-2.27683e-08
5.75697e-10
-4.66213e-09
2.20194e-08
-9.97732e-09
1.3331e-08
2.39371e-08
-2.95561e-09
-3.13535e-08
-1.61077e-08
1.94012e-08
-1.13515e-08
1.53991e-08
-3.43301e-08
2.97563e-08
-4.47778e-08
-1.05292e-09
3.32202e-08
2.24483e-08
-3.65057e-08
3.98107e-08
2.5881e-08
-1.75162e-08
-2.74823e-08
-2.4443e-08
-3.40312e-08
-1.63744e-08
2.42262e-08
8.79503e-09
7.75469e-09
1.5417e-09
2.29296e-08
-2.27133e-08
-3.93154e-08
-2.08534e-08
-2.27323e-08
-9.3324e-09
-1.7296e-08
2.7304e-09
3.80012e-09
-1.95268e-09
3.00928e-08
-6.9223e-09
-3.44058e-09
2.62683e-08
2.5757e-08
3.8205e-10
3.41156e-08
-6.75791e-11
2.60106e-08
2.28831e-09
3.37185e-08
2.19953e-09
-4.53494e-08
1.10771e-08
1.01858e-08
-2.5578e-08
5.63524e-08
3.1008e-08
-2.05595e-08
-2.33349e-08
-6.404e-09
-2.98896e-08
2.32585e-08
-4.46477e-08
-1.28801e-08
-2.18715e-08
-5.03347e-09
-4.44103e-09
2.30091e-08
-1.47283e-09
-7.20895e-09
-3.49887e-08
-2.54572e-08
-2.83368e-08
-1.55272e-08
-2.48036e-08
1.04623e-08
1.41737e-08
-1.13145e-08
-4.09889e-09
-1.18939e-09
-2.05845e-08
-1.13417e-08
-1.02807e-09
-2.80975e-10
3.29839e-08
3.31153e-09
2.42273e-08
-1.37079e-08
3.24888e-09
1.23455e-10
2.69337e-08
1.28387e-09
3.07568e-08
-7.68153e-10
3.04703e-09
-4.3455e-08
-5.34707e-09
-2.26759e-08
2.36847e-09
-2.17829e-08
-8.25462e-10
3.01229e-08
4.25595e-09
2.08842e-08
-2.75904e-10
-1.96846e-09
3.87578e-08
2.10832e-09
4.95879e-08
3.39173e-08
2.9729e-10
-3.88536e-08
-5.25926e-08
2.64427e-08
2.76916e-09
1.43806e-08
1.70826e-08
-8.49398e-09
-3.08294e-08
-3.36147e-08
1.6344e-09
-6.26111e-09
4.62325e-09
-3.6469e-08
-3.19743e-08
-3.8327e-08
-3.81173e-08
-3.75603e-09
-2.33843e-09
3.33033e-08
2.50553e-08
2.4406e-08
2.85699e-08
2.52793e-08
-1.59023e-09
3.80233e-09
3.19913e-08
-2.0902e-08
-2.93106e-08
3.96027e-08
6.77599e-09
1.70027e-08
-2.17976e-08
-1.91429e-08
-2.71787e-08
2.02755e-08
3.65956e-08
-2.64808e-08
3.45193e-08
2.24216e-08
-1.26366e-08
-4.0125e-08
-3.77607e-09
1.1283e-09
-9.37654e-10
-4.32059e-10
3.70158e-08
-3.52996e-08
-1.008e-09
3.32633e-09
2.34965e-08
2.28447e-09
-1.98754e-08
-3.24014e-10
2.64328e-09
3.16991e-08
-2.30331e-08
2.33399e-08
-3.08189e-08
-1.30937e-08
1.64259e-08
1.76791e-08
1.23511e-08
)
;

boundaryField
{
    front
    {
        type            empty;
    }
    back
    {
        type            empty;
    }
    bottom
    {
        type            uniformFixedValue;
        uniformValue    
        {
            type            scale;
            scale           
            {
                type            squarePulse;
                start           0.3;
                duration        0.3;
            }
            xScale          
            {
                type            constant;
                value           1;
            }
            value           
            {
                type            constant;
                value           15.1;
            }
        }
        value           uniform 0;
    }
    left
    {
        type            zeroGradient;
    }
    top
    {
        type            zeroGradient;
    }
    right
    {
        type            zeroGradient;
    }
    inner_arc
    {
        type            zeroGradient;
    }
}


// ************************************************************************* //
