/*--------------------------------*- C++ -*----------------------------------*\
  =========                 |
  \\      /  F ield         | OpenFOAM: The Open Source CFD Toolbox
   \\    /   O peration     | Website:  https://openfoam.org
    \\  /    A nd           | Version:  9
     \\/     M anipulation  |
\*---------------------------------------------------------------------------*/
FoamFile
{
    format      ascii;
    class       surfaceScalarField;
    location    "1.66";
    object      phi;
}
// * * * * * * * * * * * * * * * * * * * * * * * * * * * * * * * * * * * * * //

dimensions      [0 3 -1 0 0 0 0];

internalField   nonuniform List<scalar> 
2420
(
8.13267e-07
-7.15895e-07
-9.7372e-08
-1.29823e-07
1.29823e-07
2.97988e-07
-7.16407e-08
-2.26347e-07
2.14887e-07
-2.14887e-07
-6.34229e-07
2.44264e-07
3.89965e-07
1.93698e-07
-2.18673e-07
2.49743e-08
2.49888e-07
4.80996e-08
-9.54611e-07
8.22769e-08
8.72334e-07
1.6757e-06
-1.96484e-06
2.8914e-07
-4.86866e-07
-1.47363e-07
-4.00921e-07
-1.20436e-08
4.12965e-07
-4.68767e-07
6.78457e-08
-9.54611e-07
-1.25855e-07
7.21569e-08
5.36978e-08
-1.43416e-07
3.71913e-07
-2.28497e-07
-3.33536e-07
1.1394e-07
2.19596e-07
9.17635e-07
-1.03301e-07
-8.14334e-07
4.23414e-07
-8.9071e-07
4.67296e-07
-8.55866e-08
6.28017e-08
2.27849e-08
-9.04697e-08
-3.5385e-08
1.6683e-07
2.46529e-07
-4.13359e-07
-7.74017e-08
-5.58564e-07
7.74948e-07
-2.16384e-07
-7.22276e-07
1.63712e-07
4.55876e-07
3.57391e-07
2.73655e-07
6.43979e-07
-3.62666e-08
-2.97269e-07
-6.44877e-07
-1.15453e-06
1.7994e-06
-1.45496e-06
8.1008e-07
2.12681e-07
-1.11483e-07
-1.01198e-07
-7.07279e-07
-2.39024e-07
9.46303e-07
-1.24779e-07
2.3752e-07
-1.12741e-07
-4.79871e-07
4.25555e-07
5.43157e-08
-3.3896e-07
3.32739e-07
6.22137e-09
-5.20411e-07
9.43825e-07
-1.47635e-07
-1.91326e-07
5.30925e-08
1.40606e-07
1.74188e-08
-1.47242e-07
-8.09929e-08
-3.98878e-07
-8.80535e-08
2.17877e-07
3.1186e-07
-1.4503e-07
6.73093e-07
7.05496e-08
-7.43642e-07
2.93933e-07
-3.74925e-07
-2.04082e-08
9.32507e-10
1.94757e-08
5.81643e-08
6.38919e-08
-1.22056e-07
7.98347e-08
1.35052e-07
-1.6701e-07
-4.78769e-08
5.84175e-08
-2.5313e-10
-2.30715e-07
3.92821e-07
-1.62107e-07
-9.39785e-08
3.87911e-07
-1.19089e-07
-9.95837e-08
-1.96419e-07
-5.70241e-07
4.26825e-07
-1.18954e-06
-7.75299e-07
2.86457e-07
8.81944e-08
-3.74652e-07
1.5997e-07
-1.11743e-08
-1.48795e-07
-3.58107e-08
-1.61193e-07
1.97003e-07
1.24455e-07
-1.36498e-07
-6.11952e-08
-2.11594e-08
8.23546e-08
5.49247e-07
-3.89277e-07
9.15534e-08
-7.98833e-07
1.02743e-07
-1.17614e-07
1.48708e-08
-7.34052e-07
1.81576e-08
-1.1265e-06
1.20878e-06
-2.16302e-08
2.09476e-08
6.82579e-10
-4.2641e-07
1.87386e-07
-9.60262e-08
1.11969e-07
-1.59431e-08
-1.74927e-07
5.87115e-08
1.16215e-07
3.26802e-07
-8.47213e-07
-4.91831e-08
-5.0472e-08
-1.76521e-07
3.56845e-07
-2.65754e-07
-9.10911e-08
1.56298e-07
2.15615e-07
4.54643e-07
1.48973e-07
-6.03616e-07
-4.07852e-08
-7.82209e-08
1.19006e-07
-1.3857e-06
-6.92538e-08
-3.83829e-07
7.10631e-07
2.76049e-07
2.30131e-08
1.89668e-07
4.40651e-08
-6.56953e-08
-8.39883e-08
4.32031e-08
4.2926e-07
-1.42803e-07
-6.35999e-08
4.31917e-08
5.41837e-08
2.42741e-07
-2.96925e-07
2.35386e-07
-3.79054e-07
1.43668e-07
6.14595e-07
-1.59952e-07
2.53979e-07
1.02866e-07
1.01666e-06
-2.55806e-07
-7.60853e-07
-3.50395e-07
-3.76806e-08
3.88075e-07
-3.66132e-07
1.57368e-08
-1.42456e-07
-8.3891e-08
-7.72704e-08
-8.31625e-09
5.3278e-08
-2.83993e-07
9.61937e-08
1.13663e-07
-2.09857e-07
7.81943e-09
5.49822e-08
-1.32085e-07
3.60591e-08
-9.20385e-09
-5.19914e-08
1.77571e-07
5.99488e-08
-4.67608e-07
1.22184e-07
3.45423e-07
1.07311e-07
-2.49768e-07
-1.26724e-07
1.61804e-07
-3.50805e-08
2.16796e-07
1.76025e-07
-1.04812e-07
-2.19114e-08
2.86095e-07
-3.568e-07
7.07048e-08
2.87667e-08
7.39761e-08
-1.39324e-06
3.22179e-07
1.07107e-06
-9.39182e-09
-1.02091e-07
-1.7126e-07
-2.96348e-07
1.65162e-07
-1.76336e-07
1.07966e-08
-3.39503e-07
3.28706e-07
-8.23953e-08
-3.86372e-07
2.13143e-07
-4.79814e-08
3.28415e-07
-2.74231e-07
1.29177e-06
-2.10969e-07
-1.0808e-06
-1.30745e-07
-1.14645e-06
-2.46793e-07
5.86753e-08
2.11738e-07
8.04921e-07
2.6859e-07
1.75053e-08
2.03624e-07
9.51938e-09
8.88081e-08
-7.50732e-07
6.61923e-07
-2.8827e-08
-7.21906e-07
7.50733e-07
-4.30221e-08
-3.96383e-07
4.39405e-07
-1.02874e-07
-2.92108e-08
-1.08894e-06
2.67723e-07
8.21213e-07
-3.3936e-07
2.45382e-07
-5.87147e-08
1.54908e-07
-2.28419e-07
3.42359e-07
1.62057e-07
-3.75535e-07
2.13478e-07
4.34962e-07
-1.88395e-07
-2.46567e-07
-3.34321e-07
3.45118e-07
-1.41031e-06
2.83808e-07
-6.97374e-07
-3.91563e-07
-1.36878e-08
1.36878e-08
-3.33185e-07
-1.98719e-07
5.31905e-07
-4.39725e-07
-2.15946e-07
6.55671e-07
-5.70241e-07
-1.61193e-07
1.2686e-08
9.92833e-08
5.49247e-07
1.60737e-07
-1.97003e-07
-1.60737e-07
-4.54721e-08
2.06209e-07
-1.216e-07
4.64681e-07
-3.43081e-07
-5.26567e-08
8.14334e-07
-7.61677e-07
-4.64681e-07
5.53489e-07
-3.58555e-07
3.43081e-07
1.5474e-08
-1.85654e-07
3.89277e-07
-1.7018e-07
1.85654e-07
-1.5474e-08
-7.65189e-07
8.65374e-07
-1.00186e-07
7.65189e-07
-6.73635e-07
-8.65374e-07
7.61677e-07
1.03697e-07
-5.53489e-07
7.02462e-07
-7.02462e-07
6.73635e-07
-2.47201e-07
-1.31853e-07
-5.06272e-08
-2.88733e-07
6.32791e-08
-4.23315e-08
-1.24018e-07
6.33078e-07
-5.0906e-07
1.45315e-07
-6.07474e-08
-4.82573e-07
-3.96843e-07
-9.2784e-07
1.32468e-06
-1.58399e-06
3.94449e-07
5.86231e-07
4.68473e-08
4.64631e-07
1.01005e-07
-1.10209e-07
-1.92982e-06
9.24949e-07
-1.13592e-06
5.893e-08
1.42512e-07
-5.2634e-07
8.93648e-07
-9.96949e-07
-6.81044e-07
6.99644e-08
6.11079e-07
-3.04886e-07
1.34707e-07
-1.47186e-06
2.7543e-07
1.19643e-06
-1.14968e-06
1.17815e-07
3.17147e-07
-2.34991e-07
3.77503e-07
-2.65699e-08
4.0529e-07
-3.7872e-07
-5.47695e-08
-3.57003e-08
-1.86476e-07
-4.29466e-07
-2.51578e-07
2.05525e-08
-1.39641e-07
-2.22981e-07
1.79959e-07
1.66049e-08
-1.49087e-07
1.32483e-07
-4.23023e-07
-1.18592e-07
5.41616e-07
-8.49124e-09
-7.54971e-08
-4.49593e-07
6.5128e-07
-2.40149e-08
-6.27265e-07
-6.74199e-07
2.44733e-07
1.20027e-07
-5.6135e-08
-7.92446e-08
-3.8369e-08
-4.6742e-07
-1.67822e-07
6.35242e-07
-1.61669e-07
-3.47501e-08
-4.25482e-07
-1.79876e-07
6.05358e-07
-2.30796e-08
1.8386e-07
-5.44075e-07
3.03567e-07
-5.59373e-07
-2.23049e-07
-4.5115e-07
-5.39302e-08
1.82233e-08
3.57069e-08
9.5191e-08
-1.49121e-07
-3.59505e-07
-1.44807e-07
5.04312e-07
-1.25493e-07
3.72021e-07
-4.18694e-07
4.39961e-07
-2.12677e-08
5.55272e-07
-7.23094e-07
-2.44247e-07
4.06305e-07
3.91047e-07
-5.83079e-08
1.81945e-07
-7.86766e-07
6.04821e-07
3.89274e-07
-5.50943e-07
-4.21239e-07
1.19267e-06
4.83989e-08
-1.03168e-07
2.95496e-08
-1.68636e-08
2.86101e-07
-4.33736e-07
-1.16794e-06
7.71094e-07
5.20546e-07
2.98899e-07
-8.19445e-07
3.62759e-07
-5.85808e-07
4.99262e-08
-1.5938e-07
3.94663e-07
3.0892e-08
-7.01068e-07
4.51249e-07
2.49818e-07
-2.40305e-08
6.17945e-07
-4.08792e-07
-2.09154e-07
2.15977e-07
4.01969e-07
-3.43768e-07
-8.59499e-07
3.99753e-07
4.59747e-07
-2.79702e-07
-5.79798e-07
-3.66917e-07
3.2175e-07
4.51669e-08
-8.35777e-07
1.84819e-07
6.50957e-07
-1.52202e-07
-6.83574e-07
5.47614e-07
1.63018e-07
4.15148e-07
2.48135e-08
-3.94781e-07
2.78634e-08
-5.88668e-07
6.15259e-07
-5.99862e-08
-4.14881e-07
6.30858e-07
-4.75299e-07
1.79199e-07
2.961e-07
-4.28083e-08
-3.9781e-08
5.63858e-08
-2.19399e-07
-2.559e-07
-3.67521e-08
5.04398e-08
-3.35599e-07
-3.65469e-07
-1.52916e-07
2.55782e-07
1.02358e-06
-4.40288e-07
-5.8329e-07
-1.13141e-06
-4.5258e-07
1.90477e-07
8.14008e-07
2.85094e-08
-2.75769e-08
-4.18281e-08
1.22932e-08
2.95349e-08
5.71219e-07
-5.8519e-08
4.73667e-07
-2.6622e-07
2.98119e-08
4.55411e-07
-4.85223e-07
-6.15314e-07
2.79715e-07
-4.2101e-07
1.86019e-07
3.77057e-07
-3.46165e-07
-2.17876e-07
-9.01349e-07
1.11922e-06
3.59382e-07
4.59075e-08
6.2847e-07
-2.26501e-07
-2.52045e-07
-8.78943e-08
4.60662e-08
1.12409e-06
-1.07083e-06
-5.32604e-08
4.0977e-07
-3.27138e-08
1.54501e-07
-2.05128e-07
4.0694e-07
-4.3097e-07
1.96282e-07
6.74367e-09
-2.03026e-07
4.26825e-07
6.94405e-07
-1.46791e-07
8.0246e-08
-1.4032e-07
4.99702e-07
4.87978e-07
-3.24961e-07
1.32187e-07
5.62217e-07
6.9299e-07
3.30588e-07
-2.99611e-07
-3.15703e-07
2.46017e-07
9.29443e-08
-3.38961e-07
6.61678e-07
5.63439e-07
-1.22512e-06
-4.29877e-07
4.05843e-07
2.40336e-08
1.00217e-06
-1.04481e-06
4.26348e-08
-3.87606e-07
5.19794e-07
-1.92244e-08
-5.51016e-07
6.89067e-08
-8.8131e-08
-4.99243e-08
6.12142e-07
4.27117e-07
2.08125e-07
4.60162e-07
-3.60564e-07
-9.95978e-08
3.88503e-07
7.97034e-07
-7.73019e-07
1.10753e-07
-7.07816e-08
3.64653e-07
-2.93872e-07
9.11638e-07
-8.41674e-07
2.88633e-07
3.26625e-07
3.84403e-07
1.24206e-07
-5.0861e-07
8.72334e-07
-4.19693e-07
5.04398e-08
4.36547e-07
-3.2351e-07
-1.13037e-07
-4.18297e-07
4.51914e-07
-3.36168e-08
-1.97939e-08
7.30719e-08
-1.97939e-08
-5.13362e-07
3.34161e-07
1.79201e-07
4.84303e-07
1.44166e-07
-5.02667e-07
4.25366e-07
7.73005e-08
-4.01296e-07
5.91773e-07
1.54791e-07
-3.8642e-07
2.31629e-07
4.91726e-07
-7.4229e-09
-3.49236e-07
-1.12675e-07
4.61911e-07
-9.47825e-07
8.95168e-07
-1.18727e-06
9.6939e-07
4.32899e-08
4.43424e-07
1.54266e-07
7.34815e-07
-2.43089e-07
-4.24901e-07
4.54713e-07
-2.68439e-07
1.97658e-07
4.18652e-08
-1.28959e-07
-5.07535e-08
8.30606e-08
-1.35052e-07
8.30606e-08
-6.86552e-08
1.30466e-08
4.42364e-07
2.78302e-07
-2.87195e-07
8.89334e-09
-4.52472e-07
3.93953e-07
5.34751e-07
2.47263e-08
-2.47263e-08
3.88066e-07
2.03707e-07
-4.3948e-07
5.30602e-08
4.32931e-07
1.97927e-07
1.67608e-07
1.10694e-07
3.3194e-07
-5.93566e-07
3.67065e-07
-4.99466e-07
-4.58518e-07
-5.14342e-07
2.3231e-07
2.82032e-07
1.00372e-07
-8.85611e-07
6.0591e-07
-5.51016e-07
-1.80181e-07
5.49573e-07
5.32014e-07
3.38847e-07
1.60855e-07
5.97827e-07
-5.97827e-07
1.37413e-07
-2.8222e-07
-7.00792e-07
-4.73618e-07
4.22865e-07
9.39589e-07
-1.02455e-06
8.49574e-08
5.20788e-07
2.14027e-07
-3.61256e-07
5.40428e-07
-1.73363e-07
-2.46415e-07
2.72714e-07
-2.62985e-08
8.76656e-07
-3.43234e-07
-5.33422e-07
-1.76949e-09
-6.39693e-08
-2.6954e-07
1.20913e-06
1.04216e-06
-3.8025e-07
-6.61906e-07
-2.58764e-07
2.58764e-07
-4.45778e-08
-4.63693e-07
4.63693e-07
-5.10574e-08
1.89698e-07
1.47419e-07
-3.37118e-07
1.54051e-07
-1.54051e-07
-4.48805e-07
-2.03724e-07
2.03724e-07
3.29377e-07
-5.33005e-07
2.03629e-07
3.49165e-07
-3.49165e-07
-1.47861e-08
6.69459e-07
-1.87911e-07
-4.81548e-07
9.45879e-07
2.74413e-07
4.73373e-08
-5.7041e-07
3.05018e-07
-2.59851e-07
6.72884e-07
3.69272e-07
9.37333e-07
-9.90594e-07
-1.26133e-06
8.81083e-07
1.58364e-07
3.91208e-07
-1.12908e-07
8.50165e-07
-2.68978e-08
1.70558e-07
5.77097e-07
-2.12203e-08
2.56542e-07
-1.19129e-07
2.34884e-07
4.34576e-07
-8.85272e-07
4.3598e-08
4.93199e-07
-2.11167e-07
8.82014e-08
7.61963e-07
1.06871e-06
-8.54686e-07
-1.40095e-06
-5.27041e-07
-3.46214e-07
8.73254e-07
3.19924e-07
-2.9553e-07
-2.43933e-08
-1.69042e-07
8.41926e-07
-9.07898e-07
-1.36909e-07
6.71822e-08
2.07605e-07
-2.74787e-07
3.87922e-07
8.57447e-08
-6.40539e-07
6.28673e-08
1.93675e-07
1.74188e-08
3.5854e-07
-5.46451e-07
-2.21156e-07
2.21156e-07
-7.03814e-07
4.12573e-08
6.62557e-07
-1.16654e-07
-1.14468e-06
4.25722e-07
4.64537e-07
-7.66151e-08
-7.4653e-07
4.50197e-07
2.96333e-07
1.73469e-07
-6.9836e-07
5.46158e-07
-1.35753e-06
1.24088e-06
-1.09845e-06
1.18665e-06
3.25357e-07
-8.52397e-07
-8.72856e-07
-1.43014e-07
1.07279e-07
3.57344e-08
-2.97348e-08
-1.19196e-06
-3.64893e-08
1.22845e-06
1.51138e-07
5.79908e-07
-7.31046e-07
-5.19161e-07
3.19836e-07
5.85992e-07
-5.81009e-07
8.68632e-07
-2.87623e-07
-4.30303e-07
1.706e-07
-2.61e-07
9.03997e-08
-5.31035e-09
2.41646e-07
4.76735e-08
-2.89319e-07
-7.05273e-07
-4.15751e-07
-9.08283e-07
1.32403e-06
-7.21258e-08
2.61824e-07
2.82503e-07
2.21809e-07
-1.26874e-07
1.26874e-07
-5.99313e-07
1.04951e-06
1.30598e-07
9.33258e-07
-1.06386e-06
-1.09663e-07
1.7253e-07
1.30504e-06
-1.33477e-06
-1.27851e-06
1.33828e-07
-1.01506e-06
-7.59111e-07
4.21055e-07
3.38056e-07
1.38527e-07
-3.2376e-07
-4.35351e-07
-1.06836e-07
-8.32442e-07
2.51433e-07
-3.99516e-07
1.5089e-06
-1.10938e-06
6.16105e-07
1.85924e-07
-8.02029e-07
-1.06709e-06
4.0518e-07
-2.16337e-07
-8.82409e-07
4.67676e-07
4.14733e-07
9.18159e-07
-3.72947e-07
-5.45212e-07
5.7807e-08
-1.33631e-06
5.44872e-07
2.75868e-08
-1.03095e-06
9.82461e-07
4.84889e-08
-7.51811e-07
-1.32891e-06
9.29397e-07
-4.30888e-07
7.56245e-07
-1.98584e-07
1.36284e-06
3.9159e-07
2.9054e-07
-6.8213e-07
8.39394e-07
1.43068e-07
1.30532e-06
-4.65928e-07
2.42616e-07
3.17977e-08
9.79423e-08
1.32543e-06
-3.33384e-07
-9.92046e-07
6.29005e-07
6.76317e-07
1.52125e-06
-8.92246e-07
-1.60527e-07
-1.34022e-06
1.50075e-06
1.1947e-07
2.15854e-07
-3.35324e-07
6.81434e-08
-1.5219e-07
8.40464e-08
2.19697e-08
-1.30233e-07
-4.16218e-07
4.53925e-07
-6.23355e-08
-4.64799e-07
6.50723e-07
-4.00519e-07
-1.11919e-06
1.51971e-06
-1.92857e-07
1.22433e-07
2.63705e-07
-3.86138e-07
-2.89805e-07
1.5018e-08
-4.07407e-07
-1.65278e-07
5.72685e-07
4.19862e-07
9.05568e-07
-5.37653e-07
2.60101e-07
2.77553e-07
7.50258e-07
1.57526e-07
-8.79521e-07
7.21994e-07
2.84096e-07
7.68817e-07
-1.05291e-06
-1.3088e-06
-6.50905e-07
2.50447e-07
4.00458e-07
-2.97565e-08
1.16351e-06
-7.74706e-07
9.32232e-07
-6.48121e-07
-1.09109e-07
7.5723e-07
4.02056e-07
-1.90841e-07
-8.41899e-07
1.03274e-06
-6.37821e-07
3.8745e-07
2.50371e-07
8.38962e-07
-1.42584e-07
-6.96378e-07
1.39665e-07
-6.04464e-07
-1.04482e-06
-1.98314e-07
4.62019e-07
2.34493e-07
6.14703e-07
-8.49195e-07
9.42264e-07
-1.73447e-07
-3.6386e-07
-5.9677e-07
9.6063e-07
1.79496e-07
-2.46473e-07
-1.18424e-07
-7.61097e-07
1.17528e-06
-2.45886e-07
-3.56227e-07
1.7196e-06
-1.36337e-06
-2.96701e-07
-3.54203e-07
4.74162e-07
-2.86776e-07
-6.29232e-07
1.17415e-06
-5.44917e-07
-6.52551e-07
1.22094e-06
-5.68388e-07
8.2691e-07
-1.29284e-06
1.7746e-07
-7.01646e-07
-1.54579e-07
8.56225e-07
-6.00369e-07
4.57786e-07
1.17236e-06
-1.52858e-06
9.73982e-07
-3.21331e-07
-6.52651e-07
-5.46419e-07
4.3731e-07
-2.69162e-07
-2.68491e-07
4.97694e-07
-4.97694e-07
-2.09707e-07
2.09707e-07
7.13355e-08
-7.13355e-08
2.17877e-07
7.30719e-08
-2.37803e-07
2.37803e-07
-2.05149e-07
2.05149e-07
1.38317e-07
-1.38317e-07
-2.11271e-07
-9.89192e-08
9.89192e-08
-1.6701e-07
5.48794e-07
-5.48794e-07
2.58087e-08
-2.58087e-08
4.25902e-07
-4.25902e-07
-2.65057e-07
2.65057e-07
-1.41754e-06
1.38217e-06
3.53662e-08
-2.02617e-07
2.02617e-07
-1.89092e-08
1.89092e-08
2.86862e-07
8.61536e-07
-1.1484e-06
4.92178e-07
-6.65624e-07
1.45922e-06
-3.87374e-07
1.44007e-06
-1.26057e-06
6.59463e-07
-7.77887e-07
4.52408e-07
5.1685e-07
1.04204e-07
4.94006e-07
-5.9821e-07
-5.82176e-07
-1.74481e-07
7.79302e-07
3.29536e-07
4.79896e-07
-8.09432e-07
-8.27641e-08
-2.04012e-07
-1.65621e-06
5.46826e-07
-4.63515e-07
-1.40948e-07
7.07762e-07
-1.4873e-06
5.95058e-07
-6.40604e-07
-1.61424e-07
-9.10014e-07
5.46154e-07
7.39707e-07
-9.14187e-07
-1.2418e-06
-4.14403e-07
-1.91378e-07
-5.16887e-08
2.24219e-07
-2.35316e-07
-1.18888e-07
9.84993e-07
-1.08191e-07
-8.86338e-08
5.71945e-07
-2.94035e-07
7.63667e-07
-6.6749e-08
5.04059e-07
-5.98568e-07
1.35052e-07
-1.52076e-06
8.68214e-07
-8.08413e-07
8.84428e-08
7.1997e-07
9.41593e-07
-1.39232e-06
4.50722e-07
2.25266e-08
-1.52038e-06
8.12038e-07
7.08346e-07
-1.41465e-06
7.85422e-07
-1.26128e-06
7.83289e-07
4.77992e-07
1.00877e-06
-1.16334e-06
-4.39327e-07
-6.60394e-07
-1.11444e-06
7.93112e-07
-7.81552e-07
-1.00718e-06
8.00758e-07
2.06425e-07
4.58478e-07
-2.38593e-07
-1.28999e-06
-9.6144e-07
-1.86958e-07
-4.54721e-08
-9.45318e-07
1.46795e-07
7.98523e-07
-4.123e-07
2.49259e-08
-5.41445e-07
-1.2418e-07
1.68082e-07
-5.4608e-07
-5.31188e-07
-5.79171e-07
-5.29764e-07
2.10305e-07
3.19459e-07
-1.4009e-07
-3.8355e-07
-6.7249e-08
5.61255e-07
-6.52171e-07
-6.02616e-07
-4.75859e-07
-7.2124e-08
-7.36288e-07
8.82041e-07
1.67469e-07
8.94256e-07
-8.05813e-07
-3.31154e-07
-1.87674e-07
-4.43624e-08
2.32036e-07
-7.32823e-07
-2.14071e-07
-3.28701e-07
2.20509e-07
3.70526e-07
-2.6952e-07
-1.20003e-06
4.77795e-07
7.61446e-07
-6.60121e-07
-1.01325e-07
-2.35352e-08
-3.52508e-07
2.46346e-07
5.74487e-07
-6.99155e-07
2.68267e-07
1.51386e-06
-1.31685e-07
-2.54423e-07
-1.18967e-07
-8.03218e-07
9.22185e-07
9.32327e-07
-3.86791e-08
-1.44559e-07
-1.06916e-06
1.47122e-06
-1.61436e-06
1.23081e-06
-2.23867e-07
1.67562e-06
-1.45176e-06
1.53611e-06
1.09122e-06
-1.38565e-06
2.94425e-07
-3.12252e-07
-1.30211e-06
-8.85962e-07
7.24538e-07
-1.67626e-06
1.02409e-06
-8.02491e-08
-4.50939e-07
8.86502e-07
-8.17636e-08
-6.96123e-07
1.05012e-06
-6.39212e-07
-1.4234e-07
1.57872e-07
-1.73815e-07
-1.58335e-07
1.11375e-06
8.51657e-07
-1.18281e-06
-1.80716e-08
3.94824e-07
-3.76753e-07
-9.05495e-07
3.93922e-07
5.11573e-07
-5.4141e-07
-5.68002e-08
5.93537e-07
-6.65661e-07
-9.30383e-07
6.4276e-07
3.66792e-07
-2.90118e-07
-7.66736e-08
-1.398e-07
1.10589e-07
-9.04091e-07
6.87753e-07
-1.418e-07
-7.44162e-07
7.8868e-07
-6.87103e-08
-1.13221e-07
8.80064e-07
-9.25568e-08
-7.87508e-07
-5.04838e-07
-4.27856e-07
4.76178e-07
-9.23461e-07
7.81661e-07
-1.24939e-07
-6.23173e-07
-4.47381e-07
8.95093e-07
-4.47712e-07
-9.28156e-07
-1.18488e-06
1.05319e-06
-1.79553e-07
-7.11255e-08
1.46842e-07
-8.06963e-07
-1.41533e-06
-1.38325e-06
3.14084e-07
-8.14977e-07
4.11096e-07
4.03881e-07
-8.67281e-07
4.01872e-07
4.65409e-07
3.38024e-07
-1.70861e-06
1.12944e-06
-9.2914e-07
7.49587e-07
-7.03841e-07
-3.39075e-07
5.4938e-07
1.972e-07
8.23742e-07
-1.02094e-06
7.06909e-07
-4.20038e-07
-2.73958e-07
2.93758e-07
-1.97997e-08
-6.53763e-07
-3.21046e-07
9.74809e-07
1.33098e-06
1.13267e-06
-2.00341e-07
8.21408e-07
-9.65967e-07
1.47479e-07
2.65324e-07
1.96587e-07
-8.43554e-08
9.53822e-08
-1.00328e-06
4.76205e-07
-4.28376e-07
-4.78287e-08
-2.42629e-07
8.17871e-07
-2.15435e-07
-6.02436e-07
-3.41207e-07
-8.69372e-07
8.30693e-07
-2.6498e-07
6.52285e-07
-3.87305e-07
-3.60623e-07
-1.06748e-07
-3.97981e-07
-3.46506e-07
7.44487e-07
-6.17608e-07
-2.92406e-07
6.38597e-07
-4.506e-08
1.9855e-07
7.33682e-07
5.32867e-08
-4.30039e-07
-2.41339e-07
-9.77361e-08
-3.6962e-07
-2.10648e-07
-1.175e-06
-1.64593e-07
6.40798e-07
9.5629e-07
-3.1353e-07
3.18283e-09
1.07406e-07
5.69887e-07
5.95667e-07
1.50296e-07
-1.47202e-08
-1.35576e-07
2.26166e-07
9.06502e-07
-1.40874e-07
-7.28498e-07
1.15832e-07
2.5096e-07
-5.25465e-07
-2.21673e-07
7.47138e-07
-9.67293e-07
-6.32486e-07
-8.45362e-07
-5.66035e-07
-1.21004e-07
6.87039e-07
-4.56185e-07
-3.80894e-07
4.96726e-07
4.9022e-07
-3.57945e-07
-1.32275e-07
-9.38653e-07
-4.25224e-07
9.36797e-07
-6.0098e-08
7.47137e-07
-6.02566e-07
-3.66299e-08
5.2685e-07
1.54094e-06
1.04886e-06
-7.88188e-07
7.05508e-07
-9.48137e-07
-9.36994e-07
1.31181e-07
-1.13252e-07
3.78038e-07
-9.73705e-07
5.48481e-07
4.80612e-07
8.34786e-07
2.62937e-07
-5.27917e-07
-2.61786e-07
-8.82331e-07
-3.0048e-07
1.36789e-07
-4.26907e-07
7.70595e-07
2.90758e-07
3.24851e-07
-6.15608e-07
-5.37302e-07
9.27734e-07
-3.90431e-07
9.38328e-07
-3.66707e-08
3.05779e-07
4.65778e-07
-6.81212e-07
5.15954e-07
-2.10175e-07
-3.72501e-07
-4.13531e-07
-5.04182e-07
9.17714e-07
-1.35819e-06
-5.05993e-07
9.07866e-07
-3.00523e-07
5.6879e-07
9.24313e-07
-5.82544e-07
-3.41769e-07
4.18521e-07
3.25966e-07
6.17922e-07
-1.15612e-06
5.38198e-07
-1.31298e-06
3.737e-07
9.39278e-07
-3.9091e-07
2.81442e-07
-1.31146e-07
4.58573e-07
4.6574e-07
-9.50833e-07
9.54955e-07
-4.74343e-07
9.96761e-07
-8.4954e-07
5.01872e-07
-9.49584e-07
2.44812e-07
-5.65173e-07
2.64649e-07
7.85406e-07
2.47334e-07
-6.66781e-07
2.50562e-07
-1.47908e-07
1.67613e-08
4.48961e-07
1.25754e-07
4.35501e-07
-1.84578e-07
5.54787e-07
6.20058e-07
1.37172e-07
4.99837e-07
-9.74179e-07
-8.60355e-07
2.57919e-07
-7.58844e-07
2.77295e-07
4.25698e-07
5.34932e-07
7.74284e-07
-3.08875e-07
4.52242e-07
-1.89305e-07
6.07956e-07
1.55711e-07
6.54992e-07
3.03987e-07
2.11967e-07
2.42067e-07
5.17435e-07
1.17741e-06
-5.22414e-07
6.30766e-08
2.30681e-07
1.05471e-06
-7.45633e-07
-3.09078e-07
-8.39447e-07
5.08282e-07
3.31165e-07
-9.4252e-07
6.80735e-07
5.42554e-07
-3.41183e-07
-4.52272e-07
-2.14509e-07
-4.49747e-07
-6.29953e-07
2.60333e-07
-1.49367e-08
-7.45916e-07
-3.22012e-07
6.94639e-07
7.54193e-08
4.2864e-07
2.64452e-07
-2.79172e-07
-1.16964e-07
-6.51415e-07
1.10999e-06
-6.68867e-07
-1.91488e-07
-3.04839e-07
-2.08838e-07
7.98734e-08
-3.40165e-07
-5.83882e-07
-2.94175e-07
8.78057e-07
9.42162e-07
-8.46779e-07
6.95478e-07
1.03977e-06
-5.0876e-07
-2.91976e-07
8.00735e-07
-1.1529e-06
8.52421e-07
5.63549e-07
2.06128e-07
-7.69677e-07
9.00721e-07
4.1441e-08
1.1288e-06
-2.22294e-07
3.505e-07
-7.64293e-07
3.76988e-07
9.22577e-07
-4.68776e-07
-2.95517e-07
-8.77705e-07
-5.54673e-07
-9.02613e-07
3.1873e-07
-4.83985e-07
7.31698e-07
-2.47713e-07
4.16526e-07
-1.01711e-07
7.33711e-07
-3.75548e-07
-2.08787e-07
5.84335e-07
-5.59517e-07
1.5211e-07
2.58873e-07
-2.85171e-07
8.3258e-07
-5.55284e-07
4.41326e-07
3.05812e-07
-7.07479e-07
-5.37655e-07
-5.38405e-07
7.73288e-07
4.98577e-07
-6.92772e-07
2.0383e-07
2.92896e-07
-1.03761e-06
5.25991e-07
-6.06382e-07
1.16993e-06
9.43355e-07
-5.35158e-07
7.6965e-07
1.96755e-07
-4.78261e-07
2.81506e-07
5.08323e-07
2.64965e-07
6.71821e-07
-4.43638e-07
-2.28183e-07
6.45156e-07
5.48188e-08
4.48082e-07
-1.23231e-07
-1.8598e-07
6.40151e-07
-4.54171e-07
9.18121e-07
-3.8319e-07
-1.68521e-07
8.85952e-07
4.68374e-07
-6.00753e-07
2.85051e-07
-4.19686e-07
7.13859e-07
-2.05536e-07
6.36731e-08
-9.10453e-07
8.11893e-07
-2.45473e-07
-5.66421e-07
2.07499e-07
9.75189e-08
-5.56591e-07
8.1063e-07
-2.54039e-07
-5.83671e-07
8.05416e-07
-2.21745e-07
1.9654e-07
-4.32595e-07
-2.74884e-07
5.42222e-07
-1.3899e-07
-9.14074e-07
8.77584e-07
3.59213e-07
-8.51966e-07
-7.86987e-07
-3.30667e-07
9.16937e-08
-2.27269e-07
7.54056e-07
-3.51154e-07
3.86888e-07
1.7049e-07
-5.77363e-07
-2.04707e-07
7.82069e-07
2.81388e-08
1.5567e-07
-1.83809e-07
-5.9605e-07
-8.60798e-08
1.6891e-07
9.5484e-08
5.99994e-07
3.85763e-07
1.97143e-07
2.55302e-07
4.65102e-07
2.48757e-07
6.47577e-07
-4.41449e-07
3.97097e-07
1.32284e-08
-4.10325e-07
-6.56673e-08
4.41579e-07
-4.76265e-08
-5.86323e-07
3.49639e-07
1.94697e-07
-4.05864e-07
-3.59587e-07
-6.73197e-08
-7.34664e-07
7.98338e-07
6.27882e-08
4.44252e-07
-1.12313e-07
-6.64439e-07
8.28604e-07
-1.64165e-07
-1.78278e-07
-6.0071e-07
7.95312e-07
-1.94602e-07
-1.67106e-07
3.68542e-07
-2.01435e-07
3.35578e-07
3.82943e-07
2.82073e-07
-2.11409e-07
-7.06645e-08
-1.1928e-07
3.64093e-07
6.61857e-07
5.59207e-07
2.51423e-07
-2.23675e-07
-4.99322e-08
2.73607e-07
5.73103e-07
-4.24077e-07
-8.52281e-07
4.16384e-07
-6.84137e-07
1.06708e-06
6.27647e-07
-2.11263e-07
3.67567e-07
-8.68887e-07
9.10328e-07
-7.76626e-07
4.19612e-08
1.30872e-07
-1.72871e-07
-6.7941e-07
3.73608e-07
5.91451e-08
7.69459e-07
4.76423e-07
5.54815e-08
-3.41881e-07
-4.38626e-07
2.58444e-07
2.39296e-07
1.38421e-07
1.23403e-07
-7.17481e-07
-1.40994e-07
-5.67078e-09
3.25594e-07
-4.72384e-08
6.15648e-07
-2.4204e-07
5.83985e-08
1.54274e-07
-1.5853e-08
5.62013e-07
-5.03614e-07
-7.87722e-07
-2.30703e-07
1.01842e-06
-1.16076e-06
9.6908e-08
2.66351e-07
-8.22097e-07
-1.81184e-07
2.71044e-07
-1.1677e-07
-3.92828e-07
1.03047e-07
2.89781e-07
-9.6309e-07
-8.55433e-08
-1.02075e-07
1.87619e-07
2.73767e-07
3.89142e-07
-2.90896e-07
4.01384e-07
-1.10489e-07
-8.54522e-08
-2.93267e-07
-3.65598e-08
3.181e-07
-4.00452e-07
3.80283e-07
-2.23937e-07
3.94494e-07
-2.85432e-07
3.13571e-07
1.53753e-07
-2.03792e-07
4.20588e-07
-9.3799e-08
-6.63664e-08
1.60165e-07
-7.49699e-07
9.73016e-07
-2.23317e-07
4.39008e-07
-1.46113e-07
-4.64429e-07
5.9635e-08
-3.64964e-07
-9.68906e-07
3.18384e-07
-3.55888e-07
-1.71359e-07
7.75598e-08
-4.88508e-07
4.51949e-07
2.90015e-07
-3.58215e-07
6.82e-08
-1.37031e-07
8.70741e-07
-5.8569e-07
-2.72204e-07
1.45156e-06
-1.05711e-06
7.83072e-08
-2.07831e-07
2.29984e-07
2.41483e-07
2.60731e-07
-2.22101e-08
1.29388e-08
1.52884e-07
1.76058e-08
-8.95958e-07
8.69418e-07
-2.54715e-07
6.40038e-07
-1.1122e-07
-9.99236e-07
1.11046e-06
-2.40173e-07
8.87845e-07
-6.47672e-07
9.19754e-07
3.43884e-07
-1.46227e-07
8.32975e-07
-3.59561e-07
-1.28948e-07
1.61138e-07
-1.40054e-06
1.23941e-06
4.12698e-07
-1.31192e-07
-3.90387e-07
1.6645e-07
-9.22532e-09
-9.1936e-07
7.55195e-07
7.33377e-07
1.86376e-07
1.12552e-06
-1.23843e-06
-3.46035e-07
-1.35258e-08
9.83196e-07
3.44464e-07
-1.47877e-07
2.10586e-07
4.34196e-07
1.69318e-07
2.76549e-07
6.77758e-08
4.71528e-07
-1.86821e-07
-2.84706e-07
-2.47285e-07
-7.21622e-07
-3.33793e-08
-1.33727e-07
9.29517e-07
-6.78094e-07
8.24437e-07
-2.90502e-07
-5.33934e-07
6.80125e-07
3.14804e-07
-1.10233e-07
1.9722e-07
-8.69872e-08
7.22598e-08
3.80395e-07
-8.71975e-07
1.04544e-06
5.07567e-08
-2.34566e-07
2.7094e-07
4.85305e-07
-1.04519e-06
1.08878e-06
8.81515e-07
-1.01788e-06
-2.74959e-07
-6.93243e-07
-2.26117e-07
-2.82047e-07
6.51336e-07
-2.31572e-07
-1.31754e-07
3.63325e-07
3.60523e-08
6.48909e-07
-8.89081e-07
-2.46618e-07
-1.63707e-07
2.58531e-10
-1.21043e-06
-6.23826e-07
-1.24088e-06
1.49643e-07
-1.29932e-06
2.43289e-08
-8.25469e-07
2.59048e-07
5.94352e-07
-1.07234e-06
-2.07895e-07
1.68166e-07
1.753e-07
-2.36154e-07
-5.17119e-07
5.76754e-07
-1.06789e-06
-8.63332e-08
-1.56079e-07
1.41293e-07
2.94344e-07
5.83714e-07
5.25661e-07
3.55733e-07
1.73774e-08
5.76724e-07
1.26501e-07
3.10574e-07
5.62681e-07
2.01261e-07
3.15462e-07
5.37364e-07
-1.24571e-06
-1.62306e-07
-5.55659e-08
9.3315e-07
-6.59512e-08
-9.04211e-07
-5.76712e-07
1.95626e-08
-1.51317e-07
1.46048e-07
1.20618e-07
2.01285e-07
1.42181e-07
2.00019e-07
3.04819e-07
3.12623e-07
6.36826e-07
-1.08755e-06
-6.615e-08
4.26149e-08
6.30033e-07
-8.84748e-07
2.71967e-07
-8.48679e-07
1.5867e-07
1.98364e-07
1.15375e-06
1.09496e-07
6.33039e-08
-5.90909e-07
8.85252e-07
3.49902e-07
-4.48078e-07
4.52956e-07
1.33036e-07
-1.34497e-06
3.44034e-07
1.00094e-06
2.73655e-07
7.74173e-08
-6.12781e-07
3.60288e-07
-9.2129e-07
-2.3483e-07
-1.04091e-07
1.15401e-06
-4.88769e-07
4.75244e-07
4.43731e-07
2.1975e-07
5.74022e-07
6.77951e-08
7.95878e-07
-8.81411e-07
7.39117e-07
-8.10242e-07
3.50801e-07
7.31395e-08
-1.17363e-06
-5.13213e-07
-4.41398e-07
1.31362e-06
-9.39923e-07
8.50136e-08
8.77864e-08
-6.72229e-07
3.72497e-09
3.97659e-07
-6.62546e-07
1.29124e-07
2.95117e-07
-1.21641e-06
1.35126e-07
8.37891e-07
-2.18815e-07
2.56429e-07
-2.72471e-07
3.14215e-07
-1.66178e-07
-9.56199e-07
-4.00463e-08
2.29414e-07
2.16453e-07
8.41101e-07
9.20495e-08
-4.30828e-07
-2.61944e-07
-2.20507e-07
6.99274e-07
2.21853e-07
7.08377e-07
9.1424e-07
-5.92325e-07
3.80544e-07
-1.12662e-06
-2.73928e-07
-5.77083e-07
1.22912e-07
2.30114e-07
8.35535e-07
-1.27158e-07
5.92491e-08
-5.73787e-10
-1.02564e-06
1.50535e-07
6.57438e-08
-1.2028e-06
8.15642e-07
1.35487e-06
1.28916e-07
9.64659e-07
1.29957e-06
1.87006e-07
1.29606e-06
1.12436e-06
1.58274e-07
-9.25307e-08
2.79758e-07
-1.91124e-07
-6.32984e-08
-1.15166e-06
1.54627e-07
-1.25735e-10
4.59398e-07
-2.61391e-08
-2.18162e-07
-2.03077e-07
-5.14979e-08
-1.98626e-07
-2.43556e-08
2.7754e-07
-3.5894e-08
6.64289e-07
-4.93046e-07
1.60513e-06
-7.95051e-07
2.10683e-07
1.03904e-07
1.69703e-07
-9.65298e-07
8.87896e-07
-1.37888e-07
3.43412e-08
1.03547e-07
6.47227e-07
-1.79931e-07
-1.68009e-07
-5.32409e-07
-2.10878e-07
6.49611e-07
-1.40274e-07
8.35748e-08
4.04423e-07
-1.92456e-07
5.69222e-07
-3.24958e-07
1.29497e-07
-1.39545e-06
6.07259e-07
4.23122e-07
-3.31571e-08
1.52017e-07
5.25696e-07
2.49252e-07
-1.8468e-07
-1.20206e-07
1.46206e-07
-2.07176e-07
3.95175e-07
-1.87999e-07
8.64304e-07
8.02997e-09
2.09509e-07
8.34105e-07
3.34105e-08
1.15684e-06
-8.4276e-07
6.96235e-07
9.08895e-07
-4.62051e-07
-8.79748e-07
-5.40473e-07
3.5694e-08
3.94345e-07
8.64304e-07
5.25421e-08
-2.20386e-07
-2.2956e-07
-2.31364e-07
1.64044e-07
5.23939e-07
-4.45632e-07
-1.7364e-07
-7.96687e-07
1.58511e-07
-2.01932e-08
-1.77986e-07
-2.46306e-08
-3.26725e-07
8.89223e-08
8.40484e-08
-1.27129e-08
-5.0783e-08
-2.65896e-07
1.55408e-07
-1.15532e-07
-8.40484e-08
5.0783e-08
1.15532e-07
-1.66133e-08
4.24097e-07
1.80444e-09
2.65896e-07
-1.55408e-07
1.58511e-07
-1.77986e-07
-3.26725e-07
4.24097e-07
4.96121e-07
3.07286e-08
-2.28998e-07
4.0583e-07
3.74323e-07
-2.99982e-07
2.99982e-07
-2.28998e-07
-3.59684e-07
-4.44086e-07
2.52125e-07
4.19418e-07
-2.02965e-07
8.30278e-07
3.85567e-07
-4.33548e-07
4.60195e-07
3.74985e-08
-4.60195e-07
3.42935e-08
-1.11706e-06
-8.12763e-07
4.17465e-08
-1.77572e-07
3.17698e-08
-1.69658e-07
5.31242e-07
-8.82315e-08
8.93153e-07
8.00535e-08
-1.56964e-06
-2.00235e-07
-4.63309e-07
1.39799e-07
7.50301e-07
4.8133e-08
-9.19876e-07
4.01285e-08
-7.31159e-07
1.75171e-07
1.31964e-07
-1.06587e-08
-2.23383e-07
-3.39796e-07
2.61061e-07
7.87348e-08
6.75628e-07
-1.49931e-07
4.6359e-08
-4.6359e-08
-3.73215e-07
-1.43122e-07
-7.67859e-07
6.55624e-08
-8.95957e-07
9.33455e-07
8.70893e-08
-4.26885e-07
6.93944e-07
-4.6321e-07
1.02646e-07
-7.32248e-07
9.81658e-07
4.27318e-07
2.83231e-07
-2.88138e-07
2.70834e-07
-6.46706e-07
5.14861e-09
-9.76793e-08
3.17742e-07
-1.0178e-07
-3.15627e-08
-1.07169e-07
1.12317e-07
1.13663e-07
-3.36334e-07
-8.4614e-08
9.05827e-07
-3.76404e-07
1.53797e-07
-1.53797e-07
-4.60563e-07
-3.7131e-08
4.60563e-07
-1.18376e-08
-2.46927e-07
2.46927e-07
2.31095e-07
8.20208e-09
2.73358e-07
1.65424e-09
-2.09485e-07
-3.1164e-07
-1.0251e-07
1.22073e-07
-1.61225e-07
4.7229e-08
-4.37638e-07
-9.48065e-07
4.72433e-08
3.38324e-07
8.5495e-08
2.74181e-07
-4.06456e-07
-2.30796e-08
-1.46552e-07
5.0556e-07
-5.0556e-07
4.57111e-07
1.70068e-07
-2.6855e-07
-5.87983e-07
1.2911e-07
2.22872e-07
-3.51982e-07
2.84065e-07
2.00258e-08
1.2058e-07
-1.20115e-07
-5.78281e-09
2.9556e-07
3.87871e-08
-1.47137e-07
-1.54548e-07
3.23112e-09
-3.47701e-08
3.47701e-08
2.15494e-07
1.79682e-07
5.13213e-07
-2.04584e-07
4.99506e-08
1.54633e-07
-1.05301e-07
2.70966e-08
-7.38046e-08
3.15627e-08
3.25642e-08
7.38046e-08
-2.09265e-07
8.70423e-08
1.22223e-07
-1.27442e-07
-3.32404e-08
-3.05673e-07
-2.09857e-07
-1.53034e-06
9.19497e-07
6.10843e-07
-1.06587e-08
-3.13762e-07
-1.87999e-07
3.13762e-07
1.30177e-07
2.55767e-08
-1.91754e-07
-3.98314e-08
-9.09798e-08
3.98314e-08
9.09798e-08
-1.59756e-07
1.59756e-07
2.73108e-07
-2.45227e-07
-4.98998e-07
-2.44644e-07
-2.47987e-07
-6.4797e-07
7.4467e-08
1.3524e-07
-1.3524e-07
-7.95051e-07
-1.63722e-08
5.78281e-09
-1.34504e-07
8.89368e-08
-1.70068e-07
-9.79145e-07
-1.67096e-07
-2.81312e-08
1.45679e-07
7.84231e-07
1.21889e-07
-9.64649e-07
-1.7516e-07
-1.86727e-08
2.73358e-07
-1.41148e-07