/*--------------------------------*- C++ -*----------------------------------*\
  =========                 |
  \\      /  F ield         | OpenFOAM: The Open Source CFD Toolbox
   \\    /   O peration     | Website:  https://openfoam.org
    \\  /    A nd           | Version:  9
     \\/     M anipulation  |
\*---------------------------------------------------------------------------*/
FoamFile
{
    format      ascii;
    class       volScalarField;
    location    "0.7";
    object      p;
}
// * * * * * * * * * * * * * * * * * * * * * * * * * * * * * * * * * * * * * //

dimensions      [0 2 -2 0 0 0 0];

internalField   nonuniform List<scalar> 
464
(
6.44587e-10
-1.13363e-09
-3.79648e-10
-2.80286e-10
-1.37916e-09
-3.82505e-10
2.56326e-10
-2.65564e-10
-2.74496e-10
-1.61934e-10
6.28055e-10
1.53014e-09
1.8553e-10
1.51562e-09
4.98079e-10
4.6433e-10
6.9846e-11
6.05903e-11
-1.19782e-10
-2.30875e-10
-2.69221e-10
-4.20618e-10
-3.5427e-10
-3.12243e-10
-2.99702e-10
-3.28029e-10
1.04452e-09
-1.31758e-10
9.75028e-10
-4.25878e-10
-4.14249e-10
1.16079e-10
1.76163e-10
7.21896e-11
1.06881e-11
-6.32913e-13
-5.2138e-11
-7.58943e-11
-1.02715e-10
3.03989e-10
-2.19292e-10
-3.71303e-10
-3.73261e-10
1.2538e-09
1.02602e-09
3.33447e-10
-1.72598e-10
-9.20729e-11
4.66849e-12
-1.48692e-10
-1.83481e-10
-8.19823e-11
-8.22294e-11
-2.04369e-10
-1.9899e-10
-7.81458e-11
-1.3562e-10
-2.49494e-10
-2.63009e-10
-1.06462e-10
-1.93326e-12
-9.12944e-10
-2.03865e-10
-2.22689e-10
-5.80031e-10
-2.32586e-10
-3.07417e-10
3.89121e-11
8.41185e-10
-2.0925e-10
-2.93216e-10
-7.80574e-10
6.2649e-10
-8.50841e-11
-5.56457e-10
-9.63645e-11
-2.75394e-10
2.97077e-10
-2.1478e-10
6.74829e-10
-1.3405e-09
-4.15251e-10
-2.07717e-09
-5.04901e-10
-1.33699e-09
-2.52273e-10
-6.7145e-10
-4.34584e-10
-2.61609e-10
-4.54321e-10
-1.21081e-09
-9.59168e-10
-2.77741e-10
1.23159e-09
-3.16346e-10
-2.51026e-10
-2.3607e-10
-3.72589e-10
-1.06826e-09
-2.1126e-10
-2.68866e-10
-1.07212e-10
-3.24059e-10
5.65304e-11
7.41226e-11
-2.04686e-09
-4.65758e-10
-2.77333e-10
-1.21913e-09
-1.85737e-10
-3.37653e-10
-1.32253e-10
-3.08046e-10
-8.17569e-10
-2.10882e-10
-2.60271e-10
-1.79504e-09
-5.60042e-10
-1.2002e-09
-4.56827e-10
-1.5225e-10
1.4705e-10
-5.22753e-10
5.90223e-10
-2.7209e-10
-3.14958e-10
-2.1995e-10
-3.97891e-10
7.69015e-12
-1.89325e-09
-5.21974e-10
1.66917e-09
-4.78742e-11
-3.06384e-10
-4.74095e-10
-1.54913e-09
-5.7682e-10
-1.77325e-10
-2.36075e-10
-5.0231e-10
-5.96002e-10
-2.89791e-10
-3.32163e-10
-2.56187e-10
-6.10122e-10
-6.45239e-10
-2.53029e-10
-4.58345e-10
-2.28431e-10
-4.62883e-10
-3.16748e-10
-3.03589e-10
1.05551e-10
-3.81617e-10
-1.41679e-09
-5.31064e-10
6.01727e-11
-2.42998e-10
-1.70513e-10
-1.06919e-09
-1.52035e-10
-2.8892e-10
-5.17605e-10
-3.84478e-10
-3.46663e-10
-5.8267e-10
-1.70054e-12
-3.0602e-10
1.66971e-10
-5.42902e-10
-5.02569e-10
-8.1948e-10
-7.95404e-10
-4.55506e-10
-6.09483e-10
-3.89934e-10
-2.38186e-10
-2.62618e-10
3.47111e-10
5.25002e-11
-2.53144e-10
-3.66127e-10
1.46322e-10
1.43526e-10
2.38928e-10
1.81383e-10
-4.56081e-10
-4.41505e-10
-6.8361e-10
-4.56461e-10
-1.484e-10
-4.4891e-10
-2.03808e-11
-1.174e-10
-2.71714e-10
-2.99086e-10
-2.70298e-10
-1.73901e-10
2.00155e-10
-2.01288e-10
-1.72213e-10
-2.79582e-10
-1.36047e-10
-2.53336e-10
-4.41983e-10
-4.45507e-11
-1.87226e-10
-2.7724e-10
-3.25818e-10
-9.03834e-10
-5.45392e-10
-4.46265e-10
3.64074e-11
6.26344e-12
-2.68347e-10
-4.68583e-10
2.89263e-10
-9.53934e-11
9.89797e-10
-3.5405e-10
1.27024e-10
-2.34443e-10
-2.26956e-10
-2.18904e-10
-2.33175e-10
-2.6925e-10
-2.22803e-10
-1.99611e-10
-2.05492e-10
-2.18842e-10
-2.02719e-10
-1.50756e-10
-1.65955e-10
-2.09593e-10
-1.25554e-10
-2.11955e-10
-9.72495e-11
-1.4149e-10
-1.7074e-10
-7.54482e-11
-2.07416e-10
-1.22794e-10
-1.18778e-10
-1.53981e-10
-1.98175e-10
-2.3042e-11
-1.36712e-10
-2.1227e-10
-6.61061e-11
-2.14931e-10
-1.14007e-10
-3.87769e-11
-1.93986e-10
-3.57799e-10
-1.88844e-10
-1.23293e-10
-2.39821e-10
-2.10322e-10
-1.7726e-10
-7.93902e-11
-1.08719e-10
-1.92545e-10
-1.63124e-10
1.36505e-10
-1.01855e-10
5.61817e-11
-1.57258e-10
-1.92309e-10
3.77496e-10
5.75604e-12
-4.12434e-10
-7.2869e-11
-1.45732e-10
2.29163e-10
2.00733e-10
-1.47133e-10
-4.06382e-11
-3.21405e-10
-4.09779e-10
-7.0011e-10
-2.0284e-10
-1.95481e-10
-3.97899e-10
-6.43643e-11
3.2061e-10
-3.37812e-10
-4.43125e-10
-4.75978e-10
-1.72818e-10
-2.10915e-10
-4.01746e-10
-2.24386e-10
-1.8987e-10
-1.98417e-10
-2.48212e-10
-3.50694e-10
-4.58871e-10
-3.69558e-10
-3.60152e-10
-5.9467e-10
2.17312e-10
4.20422e-11
4.94771e-10
1.37261e-09
-3.4135e-11
-2.43943e-10
-2.47351e-10
-1.14403e-10
-1.02044e-09
-4.34891e-10
-2.27248e-10
-2.4876e-10
-1.97446e-10
1.00716e-10
-2.62283e-10
-2.90323e-10
-4.3963e-10
-6.85963e-10
-2.43579e-10
1.63928e-10
-4.37748e-10
-3.58184e-10
-8.78692e-10
-3.71808e-10
-1.72512e-10
1.81059e-11
5.45453e-11
4.17035e-10
-1.48709e-10
-5.04315e-10
-2.88627e-10
-4.1568e-10
-3.06631e-10
-1.9036e-10
-2.41435e-10
-2.34818e-10
-4.05363e-10
-2.80228e-10
-4.57234e-10
-3.32197e-10
-2.57895e-10
8.01924e-10
-4.22491e-10
-5.58794e-10
-1.94694e-10
-2.13834e-10
2.22308e-11
-3.03375e-10
-2.77234e-10
-2.43997e-10
-1.87199e-10
-2.89331e-10
-3.62346e-10
-3.51582e-10
-1.6541e-10
-6.93702e-10
-4.11296e-10
-1.7815e-09
-4.22063e-10
-1.18625e-09
-3.44719e-10
3.07567e-11
-4.11407e-10
-1.36299e-09
7.78126e-10
-1.36271e-10
-2.24324e-10
-2.76136e-12
1.87083e-09
-4.66003e-10
-2.48217e-10
1.70458e-09
4.62447e-10
8.38949e-11
1.20921e-09
-3.24332e-10
7.50318e-10
-3.93695e-10
8.75674e-10
-4.67501e-10
3.70422e-10
1.29176e-10
7.29777e-11
-5.49826e-12
-5.65609e-11
3.55142e-11
-5.30528e-11
-3.78513e-10
1.16625e-10
9.84751e-11
-1.32536e-10
-5.44757e-11
-5.64648e-11
-4.22029e-11
-2.21791e-10
-3.14758e-10
-2.74235e-10
-3.65767e-10
-3.46449e-10
6.02481e-10
-6.49628e-10
-3.16097e-10
1.26279e-09
-2.12527e-10
1.38382e-10
5.10523e-10
1.47797e-09
-1.61059e-10
6.86245e-10
-1.75128e-10
-2.76968e-10
-1.99071e-10
-3.65815e-10
-3.45571e-10
-3.25703e-10
-6.37829e-10
2.25854e-09
-1.70629e-10
-3.44592e-10
-9.33247e-10
-2.2753e-10
-3.06687e-10
7.23581e-10
1.50473e-09
6.69667e-10
4.72135e-10
7.1551e-10
5.79148e-10
4.71175e-10
-2.06281e-09
-4.48892e-10
-3.90235e-11
1.26297e-10
-4.32956e-10
-9.11794e-11
1.33809e-10
1.00423e-10
-3.64461e-10
9.09493e-11
-5.16185e-10
-8.8737e-11
-1.96712e-11
-1.94225e-10
-2.26568e-10
-3.26252e-10
-2.7356e-10
-3.20244e-10
-4.01164e-10
-2.86721e-10
-2.0157e-10
2.07983e-10
1.67471e-10
2.27421e-10
-3.62187e-10
-1.31281e-10
1.73248e-11
-3.27221e-11
-1.6151e-10
-2.14553e-10
-1.91685e-10
-1.95148e-10
2.15751e-09
1.31815e-09
-3.65423e-10
)
;

boundaryField
{
    back
    {
        type            empty;
    }
    front
    {
        type            empty;
    }
    left
    {
        type            zeroGradient;
    }
    top
    {
        type            zeroGradient;
    }
    right
    {
        type            zeroGradient;
    }
    bottom
    {
        type            uniformFixedValue;
        uniformValue    
        {
            type            scale;
            scale           
            {
                type            squarePulse;
                start           0.3;
                duration        0.3;
            }
            xScale          
            {
                type            constant;
                value           1;
            }
            value           
            {
                type            constant;
                value           15.1;
            }
        }
        value           uniform 0;
    }
}


// ************************************************************************* //
