/*--------------------------------*- C++ -*----------------------------------*\
  =========                 |
  \\      /  F ield         | OpenFOAM: The Open Source CFD Toolbox
   \\    /   O peration     | Website:  https://openfoam.org
    \\  /    A nd           | Version:  9
     \\/     M anipulation  |
\*---------------------------------------------------------------------------*/
FoamFile
{
    format      ascii;
    class       surfaceScalarField;
    location    "0.7";
    object      phi;
}
// * * * * * * * * * * * * * * * * * * * * * * * * * * * * * * * * * * * * * //

dimensions      [0 3 -1 0 0 0 0];

internalField   nonuniform List<scalar> 
663
(
-1.82695e-15
1.56476e-15
2.62192e-16
7.94854e-16
1.93548e-15
-6.55942e-18
6.55942e-18
1.24659e-16
-6.12044e-17
-6.34543e-17
-8.57759e-16
1.65261e-15
7.78561e-19
-7.33795e-18
-1.71004e-15
-1.16905e-16
4.0862e-17
8.37967e-17
-1.99634e-15
7.90986e-16
1.20536e-15
2.09333e-16
-2.20567e-15
-1.07874e-15
2.64349e-15
1.34126e-15
-9.62363e-16
-3.78898e-16
-9.19059e-16
1.3389e-15
2.3654e-18
1.92573e-17
9.3414e-17
-1.12671e-16
4.85953e-18
1.43979e-17
2.46731e-16
-1.85527e-16
-6.12042e-17
2.48848e-16
-2.11651e-18
4.42308e-18
-4.42308e-18
4.10143e-16
-4.98729e-16
8.85866e-17
-9.77151e-17
5.07858e-16
-1.54182e-16
-1.89888e-16
3.4407e-16
-3.85109e-16
2.30927e-16
-1.59914e-16
1.32313e-16
2.76004e-17
1.28829e-17
-7.40873e-17
-8.94091e-17
-7.05048e-17
-4.58435e-16
4.19519e-16
3.89159e-17
1.3577e-16
-4.68355e-17
-8.89341e-17
-2.71603e-16
-1.86832e-16
2.56838e-16
-2.14696e-16
-4.21419e-17
1.24663e-16
1.32175e-16
3.08292e-17
6.40933e-17
-9.49224e-17
4.91946e-17
-1.83655e-17
2.46131e-17
-1.17339e-16
9.27259e-17
1.58018e-16
-1.33405e-16
1.74889e-16
7.39582e-17
3.77758e-16
-2.02868e-16
-2.06217e-17
2.50448e-17
3.50793e-17
1.0069e-16
-4.46531e-17
1.30953e-17
3.15578e-17
-2.8981e-16
-2.08919e-16
4.21086e-16
-4.75634e-16
5.4548e-17
3.59771e-17
1.85322e-16
2.34197e-16
-7.77041e-16
-3.97937e-17
-2.06513e-16
4.3857e-16
-2.32056e-16
-4.11029e-16
3.76456e-16
3.45731e-17
-6.01242e-17
6.01242e-17
-6.74572e-17
1.61346e-16
-4.51156e-16
1.86023e-16
3.7499e-17
-2.23522e-16
-4.45462e-16
7.52582e-17
3.70204e-16
5.81953e-17
-3.32207e-16
2.74012e-16
5.39874e-16
-4.81679e-16
-1.22788e-16
3.08811e-16
-3.29302e-16
-1.48462e-16
-1.88351e-16
3.36813e-16
3.72849e-16
-5.21311e-16
-3.7505e-16
-7.04113e-17
-2.50448e-17
-6.59734e-16
1.34625e-15
-6.86514e-16
-3.07471e-16
8.26994e-17
2.24771e-16
2.47303e-16
-3.15942e-16
6.86383e-17
-1.28468e-15
1.49401e-15
-1.2824e-16
-2.03967e-16
-2.18136e-16
3.15783e-16
-9.76474e-17
9.76232e-17
-1.45763e-15
1.26714e-17
5.27203e-16
4.72286e-16
-9.94363e-17
-1.94441e-15
-3.58199e-17
-2.35783e-16
-1.45356e-16
-2.65673e-16
8.5077e-17
-4.64539e-17
-3.86231e-17
-1.22831e-16
1.79808e-16
-3.97944e-16
-1.59461e-15
1.8568e-15
-3.39538e-16
1.51187e-16
5.75941e-17
1.0458e-15
7.51601e-16
-1.7974e-15
-5.03805e-17
4.81439e-17
2.23663e-18
2.46999e-16
-5.8566e-16
3.38661e-16
1.89755e-17
4.32273e-18
-2.32982e-17
1.2928e-15
-1.76545e-16
-1.30926e-16
9.89837e-16
3.5641e-16
-3.1405e-17
-2.04901e-16
1.57483e-16
4.74176e-17
6.46796e-17
2.03974e-17
6.06283e-16
-1.19281e-15
1.05956e-16
-2.36475e-16
1.30519e-16
-9.52388e-16
-7.51268e-16
1.70366e-15
1.67668e-16
-6.17116e-17
2.62508e-16
-9.22344e-17
-1.24933e-17
6.06372e-17
5.6762e-17
-6.11087e-17
4.34675e-18
6.21703e-16
-1.54076e-15
-1.36042e-16
-6.88591e-17
-7.88877e-17
4.55344e-16
1.02148e-16
-2.3819e-16
1.31992e-16
-6.78985e-17
1.46527e-17
-5.8566e-16
4.32273e-18
1.55149e-16
1.60634e-16
-1.71777e-16
7.7806e-16
-4.06252e-16
5.43463e-16
-1.37211e-16
1.12353e-16
-4.74645e-17
-6.48887e-17
2.93214e-16
-8.13257e-17
1.81829e-16
-1.25067e-16
-2.82589e-17
1.85742e-16
-1.5286e-16
2.55008e-16
-3.38661e-16
1.66884e-16
2.60729e-17
2.32982e-17
-4.93711e-17
-6.11087e-17
1.29619e-16
-1.03546e-16
-4.8514e-16
-6.29395e-16
1.2511e-15
9.43085e-16
4.67526e-17
-1.2765e-15
1.15959e-15
2.95741e-16
1.58027e-17
9.65505e-17
1.02786e-15
-8.47731e-17
-1.16556e-16
6.90918e-17
2.21941e-16
-6.39232e-17
3.2924e-16
-3.2924e-16
1.03731e-16
-2.56591e-16
-5.05177e-17
-1.99451e-16
2.49969e-16
1.66884e-16
-4.93711e-17
4.48548e-17
-1.33789e-16
-1.56759e-16
1.56759e-16
8.54842e-17
-1.36002e-16
1.02779e-16
-4.3855e-16
3.39114e-16
2.26749e-16
-8.54843e-17
3.61132e-17
-2.64465e-17
-2.00073e-17
-1.79058e-16
2.82789e-16
9.82137e-17
-2.98368e-16
-1.75738e-17
-1.78578e-16
2.18186e-17
8.35978e-17
-2.62655e-16
-3.12136e-16
5.55456e-17
4.42176e-16
6.02625e-17
-5.02438e-16
6.65079e-17
-5.07052e-17
1.05775e-16
1.36002e-16
2.07575e-17
-1.79031e-16
-6.49562e-18
-1.81888e-16
2.65486e-16
3.98463e-16
4.68867e-16
3.09193e-16
1.49553e-16
-3.9376e-16
2.44207e-16
5.69241e-17
-2.38812e-16
-1.17309e-17
-2.68922e-17
-1.78578e-16
3.0294e-17
-2.08872e-16
2.82769e-16
-1.33215e-16
-4.01187e-16
4.31481e-16
7.74499e-18
7.30074e-17
-8.07524e-17
-3.38306e-17
3.38306e-17
-4.23363e-17
8.50562e-18
8.25277e-16
-2.20997e-17
-4.34681e-18
-3.89339e-16
2.20997e-17
-1.23331e-17
-1.04223e-16
-1.54749e-16
2.11673e-16
-1.66295e-16
1.15454e-17
-1.65796e-17
4.58755e-16
2.4412e-17
-1.66209e-16
1.41797e-16
2.76931e-16
-4.43226e-16
-2.59266e-17
2.27767e-16
-2.0184e-16
5.08818e-17
-5.08818e-17
7.52938e-17
3.67051e-17
-2.89601e-17
-3.6705e-17
-1.41767e-17
7.41633e-17
-1.0009e-16
7.41633e-17
-5.46694e-17
4.23363e-17
-4.31775e-16
-6.17843e-17
4.93559e-16
5.46694e-17
1.9494e-17
1.75334e-16
-1.75334e-16
2.35688e-17
-7.10885e-17
-4.50223e-16
-4.821e-16
4.11012e-16
-4.98902e-16
-4.82195e-16
4.94866e-16
1.13646e-17
-4.65292e-16
-1.68079e-17
2.10267e-16
-1.98903e-16
-4.98121e-16
3.28281e-17
1.98903e-16
2.10267e-16
2.07013e-16
-2.07013e-16
1.90205e-16
-1.0009e-16
9.76232e-17
-1.4064e-16
1.4064e-16
-2.08872e-16
-2.89601e-17
5.61272e-17
-5.61272e-17
1.90205e-16
7.52938e-17
3.25447e-18
-2.43564e-17
-1.16695e-16
-5.02645e-17
-6.643e-17
-7.4621e-17
-1.18398e-16
-3.25585e-16
4.43983e-16
-8.91378e-17
1.45169e-17
-2.04995e-17
-1.38897e-16
-4.0893e-16
8.33454e-17
-1.72112e-16
-2.36818e-16
2.05888e-16
-4.38222e-16
5.21568e-16
1.22892e-17
1.71356e-16
1.75191e-16
-3.46547e-16
3.78914e-16
-2.07558e-16
-1.59823e-16
-2.81422e-16
4.56613e-16
4.60643e-17
-2.10721e-16
-1.35825e-16
1.42096e-16
-1.61494e-16
6.32775e-17
-3.42626e-16
-1.47444e-16
3.26481e-17
-5.3155e-16
-2.93744e-16
1.57918e-16
-1.76224e-16
-1.86752e-16
-1.06992e-16
-1.84707e-16
1.83113e-16
-2.08286e-16
2.51729e-17
1.31187e-16
6.74109e-17
-2.14855e-16
-1.19341e-16
-5.5945e-17
3.21431e-16
-1.76224e-16
6.37727e-17
-1.2861e-16
-1.95066e-17
1.48117e-16
-9.24307e-17
1.56203e-16
1.25928e-16
-1.11195e-16
-1.47331e-17
5.48451e-17
-1.47276e-16
-4.80995e-17
-1.03703e-16
1.51802e-16
-7.37653e-17
2.34669e-16
5.21627e-17
2.30597e-16
-9.36434e-17
-1.9028e-17
-1.64896e-16
6.11929e-17
-3.68582e-16
-6.89718e-17
1.21134e-16
9.15288e-17
-2.24744e-16
5.81592e-17
-2.54019e-17
7.33671e-17
-1.42339e-16
-2.75383e-17
-1.62666e-16
1.62666e-16
1.61821e-16
-1.54078e-16
-7.0666e-17
2.21536e-16
5.21302e-18
4.31375e-17
-2.94932e-16
2.75904e-16
7.48992e-17
-2.28977e-16
3.22974e-17
1.30369e-16
5.79795e-16
-6.64568e-16
-1.07766e-16
-3.18861e-16
8.49915e-17
-4.03852e-16
6.64786e-16
-2.88002e-16
-3.41178e-16
-4.76527e-17
3.71411e-16
-1.30369e-16
3.02792e-17
-1.65935e-16
1.46441e-16
1.60709e-16
-2.58231e-16
-7.63037e-16
1.07508e-15
-3.12044e-16
3.86508e-16
3.35376e-16
4.23816e-17
1.55692e-16
-8.41574e-18
-3.96742e-17
4.14968e-16
7.75975e-17
5.09629e-16
8.05018e-16
-4.06555e-16
8.18175e-17
6.05215e-17
-2.89902e-16
4.50611e-16
-2.15371e-17
6.23991e-17
7.88439e-16
-7.43013e-17
-1.40395e-16
-2.99487e-16
-1.40761e-16
1.40761e-16
4.67587e-17
3.36369e-16
1.71489e-16
1.90055e-15
-9.4632e-16
2.071e-17
-2.071e-17
5.42457e-16
-1.29505e-16
2.69769e-16
-3.35929e-17
3.35929e-17
-1.39265e-16
-1.20557e-17
1.20557e-17
-3.78589e-17
-2.41057e-15
-2.0858e-16
-1.31214e-16
-2.57456e-18
-1.02203e-16
1.91926e-16
-2.69208e-16
7.30447e-16
7.78572e-19
7.30447e-16
7.78572e-19
-4.06351e-16
2.34183e-15
1.08009e-17
-4.24141e-18
-3.89252e-16
-5.1013e-18
-1.44787e-16
1.89223e-15
9.54555e-19
-5.37762e-18
2.25873e-17
1.99354e-16
3.31606e-16
-1.45688e-16
1.60737e-18
1.04484e-17
-9.50431e-17
4.01206e-17
-1.64385e-16
-1.46467e-17
9.50431e-17
2.9804e-16
-3.14034e-16
1.46688e-18
1.09574e-16
-1.58647e-17
8.766e-17
-7.34833e-17
-8.7405e-17
-1.70915e-16
-3.37295e-17
1.47119e-17
-1.01902e-16
6.87982e-17
-6.66817e-17
-3.95841e-16
2.53744e-16
1.00966e-16
-1.00966e-16
2.35064e-16
3.12909e-16
-2.71737e-16
-4.23676e-17
2.92215e-16
-4.98876e-16
2.00297e-15
1.08009e-17
1.85437e-15
1.60736e-18
1.5113e-15
-5.53771e-16
7.18113e-16
-7.18113e-16
9.54554e-19
-8.66804e-16
9.54554e-19
-1.14902e-15
-1.05665e-15
4.59853e-17
-4.85599e-17
4.64868e-17
-5.63959e-17
9.90906e-18
-1.80208e-16
-5.79818e-17
3.31606e-16
-2.14718e-17
1.38392e-17
-8.36852e-16
1.46688e-18
1.58647e-17
-3.68871e-18
6.87982e-17
6.66817e-17
2.49581e-16
3.38167e-16
-3.05023e-16
-7.40963e-17
-1.28487e-16
-2.81572e-18
-2.56191e-18
2.42876e-17
)
;

boundaryField
{
    back
    {
        type            empty;
        value           nonuniform List<scalar> 0();
    }
    front
    {
        type            empty;
        value           nonuniform List<scalar> 0();
    }
    left
    {
        type            calculated;
        value           uniform 0;
    }
    top
    {
        type            calculated;
        value           uniform 0;
    }
    right
    {
        type            calculated;
        value           uniform 0;
    }
    bottom
    {
        type            calculated;
        value           nonuniform List<scalar> 8(-2.73033e-15 -9.54231e-16 2.44843e-15 -1.58821e-15 -2.40932e-15 1.58492e-15 2.69122e-15 9.57527e-16);
    }
}


// ************************************************************************* //
