/*--------------------------------*- C++ -*----------------------------------*\
  =========                 |
  \\      /  F ield         | OpenFOAM: The Open Source CFD Toolbox
   \\    /   O peration     | Website:  https://openfoam.org
    \\  /    A nd           | Version:  9
     \\/     M anipulation  |
\*---------------------------------------------------------------------------*/
FoamFile
{
    format      ascii;
    class       volVectorField;
    location    "0.7";
    object      U;
}
// * * * * * * * * * * * * * * * * * * * * * * * * * * * * * * * * * * * * * //

dimensions      [0 1 -1 0 0 0 0];

internalField   nonuniform List<vector> 
464
(
(-4.05703e-08 -3.80105e-08 -1.72655e-27)
(-2.68441e-08 7.13729e-08 0)
(5.66663e-11 1.0714e-10 0)
(2.93307e-09 -1.26357e-10 1.74515e-26)
(-1.91546e-08 5.7523e-08 0)
(4.63496e-11 9.03482e-11 -5.97902e-27)
(-3.88917e-08 -2.468e-08 2.67615e-26)
(2.77933e-09 -5.76211e-10 0)
(-4.78571e-08 2.99137e-09 -3.69339e-27)
(-4.54341e-08 2.48784e-08 -2.1393e-26)
(-3.23788e-08 -4.87859e-08 2.17233e-27)
(-1.36542e-08 -3.31821e-08 -2.21202e-27)
(-4.23883e-08 -7.58172e-09 -2.93292e-27)
(-9.99186e-09 -3.20349e-08 0)
(-1.68653e-09 -1.4667e-09 1.35481e-26)
(-7.53838e-10 -3.94552e-11 -2.80497e-26)
(-1.32987e-09 7.45877e-09 0)
(-8.95547e-10 6.85666e-09 1.43826e-27)
(1.25046e-10 -6.73928e-11 -5.93848e-27)
(6.2694e-11 1.49448e-08 1.44097e-26)
(6.13484e-10 1.56509e-08 -2.19011e-26)
(3.72159e-09 1.02047e-08 6.12292e-27)
(4.26983e-09 1.0788e-08 -2.79074e-27)
(3.40543e-09 1.02147e-09 0)
(2.06559e-09 7.90974e-11 -1.79236e-26)
(3.4228e-09 1.68218e-09 1.00619e-26)
(-3.81652e-09 -9.45544e-09 -3.04496e-26)
(1.80712e-09 -2.48713e-09 -7.09027e-27)
(-5.22498e-09 -9.72991e-09 0)
(3.33234e-09 5.49602e-09 0)
(4.04137e-09 4.64382e-09 1.36687e-27)
(-1.79103e-09 1.48945e-09 -3.9512e-29)
(-1.44303e-09 1.28009e-09 1.52785e-27)
(-1.68373e-09 3.98838e-09 2.26269e-27)
(-2.29328e-09 4.28919e-09 -2.28042e-27)
(-8.23649e-10 8.16965e-09 1.20875e-27)
(-1.65502e-09 1.06475e-08 -1.50155e-27)
(3.142e-10 -5.3875e-10 -8.13265e-28)
(1.42884e-09 -3.03825e-09 1.08385e-27)
(-4.37647e-10 1.10215e-09 0)
(-7.33536e-10 1.50144e-08 1.82464e-26)
(2.68286e-09 1.3505e-08 0)
(3.68441e-09 1.22709e-08 -6.96886e-27)
(-5.19443e-09 -1.52352e-08 -6.47722e-26)
(-1.0606e-08 -2.32803e-08 6.60844e-26)
(-8.59809e-10 5.37834e-10 1.09619e-27)
(5.05571e-09 -8.62536e-09 8.859e-27)
(1.52823e-09 -1.02701e-08 6.57654e-28)
(3.24694e-10 -1.12843e-09 0)
(9.34017e-10 -1.34015e-09 7.87393e-28)
(-8.56715e-10 1.55008e-08 -1.19194e-26)
(1.73031e-09 -5.33545e-09 -7.87833e-29)
(-4.33583e-10 1.13816e-08 -4.7842e-27)
(1.75207e-09 -9.75641e-09 -1.21794e-26)
(1.42613e-09 -1.43008e-08 -3.7625e-28)
(2.58545e-09 -7.40521e-09 4.20546e-27)
(4.26363e-09 -7.82029e-09 0)
(-4.02806e-09 -8.72914e-09 0)
(-3.19468e-09 -1.26325e-08 -1.65881e-26)
(-9.5237e-10 1.24402e-08 0)
(5.23717e-10 -1.54545e-09 1.45049e-27)
(-2.18608e-08 3.08515e-08 9.93612e-26)
(-5.36561e-09 -4.68004e-09 2.71514e-26)
(-1.65874e-09 -6.87559e-09 -1.33706e-26)
(-3.74e-08 2.72841e-08 -2.06656e-27)
(3.04192e-09 -6.44014e-09 -1.26744e-26)
(-3.10056e-09 -8.04813e-09 -1.74245e-26)
(6.29739e-10 -2.92952e-09 2.31866e-27)
(-2.34394e-08 -4.06682e-08 -2.36665e-26)
(4.34425e-10 -1.56202e-08 1.29929e-26)
(-2.98639e-09 -1.25143e-08 1.65537e-26)
(-2.9815e-08 3.6875e-08 -5.23969e-26)
(-4.06503e-09 -5.95833e-09 0)
(2.46621e-09 -1.02079e-08 5.31134e-27)
(-1.42653e-09 6.96205e-11 -3.19974e-26)
(2.40762e-09 -4.74267e-09 5.92072e-27)
(-3.89692e-09 -8.61281e-09 -1.7272e-26)
(-4.58662e-08 -3.40166e-08 -2.7532e-26)
(-3.60809e-09 -6.39238e-09 -1.33894e-26)
(-1.75707e-09 -3.00564e-09 1.66799e-26)
(-1.8281e-08 4.492e-08 0)
(7.57275e-10 7.6193e-10 5.72894e-27)
(-4.26879e-09 1.75853e-08 -1.21833e-25)
(2.72201e-10 5.04723e-10 3.13014e-26)
(-1.10799e-08 3.17614e-08 0)
(-4.85029e-09 -7.43884e-09 1.78429e-28)
(-2.19163e-08 2.30378e-08 -4.75358e-26)
(8.35594e-10 1.22718e-09 0)
(4.76707e-09 -1.25021e-09 0)
(-2.83319e-09 7.46817e-10 -2.41809e-26)
(-1.34452e-08 2.85465e-08 7.26421e-26)
(-2.78235e-08 4.81506e-08 0)
(-2.79814e-09 -4.71983e-09 1.80142e-26)
(-1.8844e-08 -5.30151e-08 -6.28301e-26)
(-1.99915e-09 -4.20587e-09 -1.77168e-26)
(-4.9442e-09 -5.98355e-09 -1.3544e-26)
(-2.51343e-09 -9.64824e-09 1.34205e-26)
(1.41399e-09 9.63874e-10 -5.2542e-27)
(-7.38708e-10 1.2975e-09 -6.73498e-26)
(-3.72824e-08 8.28688e-10 6.40158e-28)
(4.95759e-09 1.57915e-10 0)
(1.94531e-09 -1.25916e-08 1.23567e-27)
(5.67494e-09 1.14807e-09 0)
(-1.84213e-09 2.36088e-09 3.86632e-29)
(-1.43838e-09 2.96095e-09 0)
(-2.86962e-09 1.23515e-08 -9.47671e-26)
(9.62134e-11 5.98632e-11 0)
(-3.48365e-09 -6.53412e-09 1.70844e-26)
(-7.39247e-09 1.89484e-08 -7.272e-26)
(3.10616e-09 -1.30734e-08 0)
(-1.5929e-09 -2.71978e-09 0)
(4.04267e-09 -1.05807e-08 -9.04373e-27)
(-2.6091e-09 -5.95095e-09 0)
(-2.57272e-09 4.08675e-09 4.5063e-26)
(5.26847e-09 -2.46173e-09 3.842e-28)
(6.51846e-09 2.46024e-10 -2.47747e-28)
(-2.60199e-09 9.55469e-09 1.00571e-25)
(4.286e-10 1.43454e-09 3.62978e-26)
(-6.57339e-10 1.0265e-09 5.41819e-26)
(1.30109e-09 2.9602e-09 -1.86039e-27)
(3.19912e-09 -1.30251e-08 9.05687e-27)
(-3.12908e-08 -5.39687e-09 -3.2506e-28)
(-2.77135e-08 1.6678e-08 2.20634e-26)
(-3.07892e-08 -2.509e-08 -2.26803e-26)
(-3.83407e-09 -1.07378e-08 0)
(-1.97821e-09 -1.8168e-09 2.07664e-26)
(-2.47361e-08 9.20209e-09 -2.22557e-26)
(-8.03158e-10 -2.78497e-09 0)
(-2.76505e-09 5.44256e-09 0)
(-1.87823e-09 6.74687e-09 9.43829e-26)
(2.07328e-10 4.39657e-10 -2.43096e-26)
(-2.06305e-09 -6.91898e-09 -7.7955e-26)
(2.29128e-10 -4.41882e-10 -1.19701e-27)
(6.87676e-09 1.71557e-09 0)
(1.57724e-09 7.32804e-09 0)
(-1.16614e-09 3.1385e-09 -7.97584e-26)
(2.71586e-10 1.00464e-09 -5.54928e-26)
(3.0626e-09 -2.78003e-09 -1.19076e-26)
(-3.52058e-08 1.5601e-08 2.40792e-26)
(2.14111e-10 3.27234e-09 2.30658e-26)
(6.00194e-10 4.28195e-09 0)
(-2.16227e-09 -3.20469e-09 0)
(-1.80346e-09 -1.19849e-08 -8.76126e-28)
(6.23088e-09 -2.18772e-09 1.38161e-26)
(5.48226e-10 2.69367e-09 3.46055e-26)
(-1.29776e-09 8.13374e-10 -4.03084e-26)
(7.14286e-09 2.58553e-10 0)
(1.66049e-09 2.40166e-09 0)
(-4.75503e-10 -1.0083e-08 1.18482e-28)
(3.59129e-10 6.68232e-09 -5.2922e-26)
(6.93063e-09 2.44223e-09 5.97986e-28)
(6.12047e-09 4.52811e-09 1.93089e-26)
(-1.14797e-08 -4.7109e-09 1.00637e-26)
(-1.73973e-09 -1.2435e-09 -2.08585e-26)
(-1.48815e-09 4.3343e-09 -7.11487e-29)
(4.80533e-10 5.71475e-09 -3.4288e-26)
(-9.83406e-10 5.52392e-09 0)
(6.7173e-09 4.51952e-10 0)
(-2.62424e-08 1.79094e-10 -2.07653e-27)
(-8.83258e-09 1.62828e-08 6.31256e-26)
(-9.94398e-09 1.27716e-12 0)
(6.06472e-09 3.06403e-09 -1.62765e-26)
(-6.50903e-10 -9.65388e-10 6.10421e-26)
(1.72173e-10 3.77157e-09 2.76172e-27)
(1.77024e-10 7.54234e-09 2.17729e-26)
(3.30656e-10 1.79777e-09 0)
(-7.38038e-09 -7.30999e-10 -4.40876e-27)
(4.55209e-10 1.27431e-08 1.77109e-26)
(-4.78965e-10 2.03831e-09 -8.27396e-27)
(-7.47179e-11 -7.42356e-10 5.25007e-26)
(-6.73613e-11 -1.39036e-09 -2.21955e-27)
(-1.496e-08 1.8347e-08 -4.28345e-26)
(-2.97339e-10 -2.67959e-10 -6.56925e-27)
(2.39282e-09 9.8772e-09 -6.08323e-27)
(-9.45897e-11 -9.97113e-10 4.20073e-27)
(-6.01247e-10 -3.05368e-09 -2.2707e-26)
(5.36503e-09 3.49061e-10 1.60767e-26)
(4.31814e-09 3.42085e-09 -6.14788e-29)
(-1.34898e-08 -8.40399e-09 1.51736e-26)
(-8.00096e-10 4.30341e-09 -6.63823e-28)
(3.8315e-09 9.43825e-09 1.65448e-26)
(-1.13218e-09 -5.86792e-09 2.16577e-26)
(-1.23197e-10 1.06564e-09 0)
(-1.9882e-10 2.37374e-09 8.57543e-27)
(-6.05813e-11 1.26967e-09 2.95229e-27)
(-1.48256e-10 1.70319e-09 2.77136e-28)
(-3.86215e-10 -3.29455e-09 0)
(-1.95366e-10 -1.48314e-09 -2.12609e-26)
(-1.44727e-10 -5.50157e-10 -6.61987e-26)
(-1.45619e-10 -1.79927e-09 4.93405e-29)
(1.15696e-09 -1.42582e-08 -9.38652e-30)
(-2.70042e-10 -2.41611e-09 2.65954e-26)
(2.58182e-10 -3.48198e-09 -1.60313e-27)
(1.05221e-09 -1.20399e-08 -6.81172e-27)
(-2.20848e-09 -1.43251e-08 1.6601e-29)
(-1.34528e-09 -1.37759e-08 -1.66536e-29)
(3.27985e-10 1.48922e-08 -1.62846e-26)
(1.91588e-09 -1.47784e-08 9.28666e-30)
(-8.27267e-11 8.00379e-10 1.04588e-26)
(2.55914e-10 -1.50671e-08 1.27796e-26)
(4.78955e-10 -1.32084e-08 0)
(-6.84221e-10 -1.28668e-08 0)
(1.7129e-10 -7.74696e-09 0)
(-6.22511e-10 -1.48666e-08 1.4465e-29)
(-1.3407e-10 -1.10421e-09 0)
(3.92862e-10 -7.05883e-09 -2.16089e-27)
(3.40871e-11 -4.22209e-09 0)
(-8.66468e-11 -4.15344e-09 -1.22161e-26)
(-2.61261e-10 -7.51683e-09 2.0291e-26)
(-3.27621e-10 -6.72094e-11 4.05718e-26)
(3.25285e-10 2.75659e-09 2.55638e-26)
(-2.43946e-10 -2.00454e-09 0)
(3.47556e-10 -1.9007e-09 -1.80105e-27)
(-2.04725e-10 3.21314e-09 -1.24568e-27)
(1.82462e-11 4.23641e-09 0)
(-8.31418e-11 -8.79756e-10 -2.3192e-26)
(-7.62596e-11 6.86153e-10 -1.24205e-26)
(1.54616e-10 -3.98816e-09 3.34232e-27)
(-6.98205e-10 -1.01744e-09 8.19121e-27)
(-1.87944e-10 -3.81507e-09 -1.62353e-26)
(-1.64631e-10 1.50672e-09 -6.42892e-27)
(-5.41295e-11 -7.89685e-09 1.52784e-26)
(-1.32717e-10 -1.34691e-08 -1.2795e-26)
(6.60939e-10 -6.87828e-09 2.57728e-26)
(3.17351e-09 3.47708e-10 1.52575e-26)
(1.87046e-09 3.86239e-09 -1.44422e-26)
(6.48923e-10 5.00163e-10 0)
(-2.4853e-09 1.0211e-08 6.05101e-27)
(-5.51986e-10 3.80453e-09 -3.56668e-28)
(-1.75617e-09 2.05377e-10 -1.2852e-26)
(-2.8523e-09 3.72156e-09 1.27385e-26)
(-2.93765e-09 1.18688e-08 -9.86002e-28)
(-4.02521e-09 9.01026e-09 0)
(-4.87884e-09 -5.63797e-09 -1.35073e-26)
(-2.24258e-09 1.42045e-08 7.87278e-27)
(-3.82798e-09 3.97674e-10 0)
(-4.53397e-09 8.45551e-09 -5.96126e-28)
(-4.87496e-09 7.59162e-09 -6.47084e-28)
(-4.50633e-09 3.45432e-09 1.12145e-26)
(-3.2925e-09 1.02942e-08 2.83775e-27)
(-5.14582e-09 2.73666e-10 -1.14425e-26)
(-4.94586e-09 6.19455e-09 -6.34914e-27)
(-4.12439e-09 1.01885e-08 7.57105e-27)
(-5.42013e-09 2.88758e-09 0)
(-5.66074e-09 2.02895e-10 0)
(-2.41733e-09 9.12566e-09 -1.06434e-27)
(-5.527e-09 2.2913e-09 -2.41928e-28)
(-8.29997e-11 1.33942e-08 0)
(-4.20569e-09 6.6129e-09 0)
(-1.85831e-10 7.55532e-09 0)
(-4.40022e-09 4.66248e-09 -4.72633e-27)
(-3.0182e-09 7.8533e-09 -3.68954e-27)
(-4.35621e-09 -2.70954e-09 -1.30864e-26)
(-2.69001e-09 -2.09371e-10 2.42556e-26)
(-5.4031e-09 1.33608e-10 0)
(-4.97393e-09 1.64427e-09 0)
(6.43079e-09 -4.53553e-09 0)
(-2.80565e-10 3.92157e-09 -5.78918e-27)
(-4.59332e-09 2.3686e-11 -8.78743e-27)
(-2.91899e-09 2.18339e-09 0)
(-4.06603e-09 1.09041e-09 8.37741e-27)
(-2.94446e-09 -1.17049e-09 2.66682e-26)
(-3.702e-09 -1.48747e-11 8.04586e-27)
(-4.04274e-09 -8.71083e-10 3.92111e-27)
(-3.3309e-09 7.15931e-10 -8.04605e-27)
(-6.42373e-09 -1.85963e-09 -1.65202e-26)
(-3.15584e-09 1.94469e-11 -2.06953e-29)
(4.24219e-09 -3.58228e-09 -3.75525e-28)
(-3.11406e-09 -2.13673e-09 -1.20006e-26)
(-3.63689e-09 1.22197e-11 -3.97425e-27)
(1.50653e-09 1.01208e-08 -2.16287e-26)
(-3.14167e-09 3.60363e-10 0)
(-5.66026e-09 -5.08792e-12 4.29591e-27)
(-2.7227e-09 -6.19397e-10 -4.21832e-27)
(-2.84086e-08 -1.58787e-08 5.26499e-27)
(-3.5642e-09 5.43749e-12 0)
(-4.30276e-09 -7.21802e-11 0)
(-1.08895e-09 -1.15345e-08 -1.94885e-26)
(-2.49681e-10 -3.26837e-09 0)
(-2.84998e-09 2.92508e-09 -5.14472e-27)
(-5.25217e-09 6.19354e-10 8.16596e-29)
(6.218e-09 -4.07239e-09 -2.50406e-28)
(-4.08436e-10 -6.688e-09 0)
(1.71161e-09 -7.79295e-09 -4.28433e-27)
(-5.69766e-09 -4.31533e-09 -1.3698e-26)
(-6.41183e-09 1.88359e-09 -1.60145e-26)
(-4.76042e-10 -5.56781e-09 -2.65925e-26)
(-1.85285e-08 9.66773e-09 0)
(5.00598e-09 -5.96562e-09 0)
(-9.31135e-09 2.29286e-09 1.64215e-26)
(-1.13062e-08 4.87392e-09 1.06016e-28)
(-1.58462e-08 5.02821e-09 -9.25894e-29)
(6.33155e-09 -5.82196e-09 -1.31606e-26)
(3.87116e-09 -8.91327e-09 2.59149e-26)
(-4.43668e-09 -4.53731e-09 1.33726e-26)
(-1.28685e-09 -9.70153e-09 4.16798e-26)
(-4.62213e-10 -4.37992e-09 0)
(-1.10382e-09 -4.07042e-09 5.40659e-28)
(-1.51009e-09 -5.68164e-09 -2.17063e-26)
(-1.44532e-08 1.30528e-08 4.24316e-26)
(-7.68761e-09 -3.75101e-09 8.62483e-27)
(-1.28617e-08 -1.72151e-09 -4.21797e-27)
(-1.59073e-08 -1.85e-08 -6.74409e-26)
(-1.12689e-08 -4.04673e-08 7.9298e-26)
(-1.63874e-09 1.18634e-08 2.5748e-27)
(-3.61887e-09 -3.26108e-09 -1.33099e-26)
(-2.88157e-09 -2.17728e-09 -2.62833e-26)
(-9.96607e-10 1.02097e-08 2.32085e-27)
(-4.59377e-09 9.82197e-09 -1.19172e-25)
(-4.75432e-10 -2.05846e-09 -2.65984e-26)
(-3.82106e-10 -1.46226e-08 -1.2996e-26)
(6.83255e-09 -3.3959e-09 -1.56793e-28)
(-5.11877e-09 -3.67555e-09 0)
(-2.10537e-08 -3.27944e-09 -2.14419e-28)
(-2.71557e-09 -1.14269e-09 -2.72832e-26)
(-3.70227e-09 5.84237e-11 0)
(-2.65791e-10 -2.62058e-09 2.1079e-26)
(-9.30113e-09 9.60089e-09 0)
(1.74689e-09 -4.51089e-10 0)
(-1.89888e-08 -9.42814e-09 -1.54112e-26)
(3.46544e-09 7.12543e-09 1.94193e-26)
(-1.83872e-09 -7.65427e-09 -7.75736e-29)
(-5.29263e-09 7.98678e-09 5.68283e-26)
(-8.65471e-10 -4.28632e-09 2.21143e-26)
(-1.68495e-08 1.19932e-10 6.28098e-27)
(5.54145e-10 -5.92366e-09 1.27466e-27)
(6.49224e-10 -4.46109e-09 2.27431e-27)
(-2.15105e-08 -1.53018e-08 1.93474e-26)
(3.94508e-09 -5.03382e-09 0)
(-8.65078e-09 6.37431e-09 -3.19965e-26)
(1.72416e-09 1.47746e-08 -9.87021e-27)
(-4.91025e-08 2.48466e-08 -8.11741e-27)
(4.24925e-10 4.42347e-11 -7.4202e-27)
(-3.48006e-09 -1.91328e-09 2.5897e-26)
(-1.01902e-09 -1.54165e-08 -1.43935e-29)
(5.10425e-09 -5.67455e-09 -1.282e-26)
(4.3897e-09 8.14124e-09 -1.87543e-26)
(5.92424e-10 -6.12982e-11 -1.33067e-26)
(-8.28815e-10 -1.57808e-09 -2.46616e-27)
(1.83059e-09 1.46599e-08 1.95534e-26)
(2.47229e-10 -1.01126e-10 6.75498e-27)
(-4.05161e-08 -6.41228e-08 0)
(-4.78489e-09 2.25242e-09 -3.55007e-28)
(-5.26567e-09 4.05053e-09 3.17601e-26)
(-3.30965e-09 -4.14359e-10 1.36227e-26)
(2.92134e-09 -1.83298e-09 5.61687e-27)
(3.37273e-10 -2.77345e-09 -2.79275e-27)
(-3.2662e-09 -1.03163e-08 1.72217e-26)
(1.07871e-09 3.39307e-12 1.62883e-26)
(-1.98768e-09 -1.40067e-08 0)
(5.47666e-09 -7.51266e-09 -3.30832e-28)
(8.86226e-10 -1.6813e-10 -7.68321e-27)
(-1.29406e-09 -7.73579e-09 0)
(-1.95327e-09 -9.83139e-09 -2.09439e-26)
(4.42379e-09 -1.10143e-08 -9.2569e-27)
(-8.88836e-09 4.2894e-08 1.02165e-25)
(-3.84937e-11 3.58685e-12 0)
(-2.58917e-09 1.82492e-08 -5.5167e-26)
(-6.1383e-13 -3.61871e-11 -9.82613e-27)
(-3.42823e-08 6.55104e-08 0)
(3.91296e-10 2.37706e-10 -1.12134e-26)
(-4.9631e-08 -8.0897e-09 6.4113e-27)
(2.78159e-10 2.91684e-10 6.39266e-27)
(-1.48193e-08 4.67738e-08 0)
(-2.95447e-08 -5.73758e-08 1.91685e-27)
(5.59209e-11 -1.48311e-11 8.14714e-27)
(3.61671e-09 -1.29865e-09 0)
(-2.33742e-09 6.06309e-09 0)
(-3.82951e-09 -1.5191e-08 0)
(1.95015e-09 4.36517e-09 1.58765e-26)
(3.1263e-10 -1.71698e-10 0)
(-2.25036e-09 -8.30056e-09 1.5216e-25)
(-6.6204e-09 -6.59658e-09 -2.2268e-27)
(-1.31526e-09 5.88172e-09 0)
(-1.3477e-09 -3.58504e-09 8.88585e-27)
(4.01851e-09 4.11889e-10 0)
(-1.65009e-08 -2.38064e-08 3.82892e-26)
(1.7594e-09 1.19723e-08 3.65614e-26)
(-6.24442e-10 -1.0563e-09 9.90518e-26)
(2.0881e-09 6.73921e-09 7.65969e-27)
(-5.47062e-11 8.91346e-10 0)
(-7.20955e-10 2.68013e-09 8.81725e-27)
(-1.02843e-09 3.97417e-09 0)
(-2.46353e-09 2.03612e-09 -7.17768e-28)
(-3.64969e-09 4.66258e-09 4.61469e-28)
(-2.70074e-09 7.30447e-10 0)
(-2.91858e-09 3.10748e-09 -2.2708e-27)
(2.36485e-09 1.67922e-09 -1.16217e-26)
(-3.17423e-10 3.00049e-09 0)
(-3.33707e-10 4.61739e-09 0)
(-2.36746e-09 1.34807e-08 -2.70775e-27)
(-2.85784e-09 1.13969e-08 0)
(-2.52439e-10 5.49842e-09 -9.14891e-28)
(-3.60897e-10 6.20707e-09 9.23654e-27)
(-1.48121e-09 1.19943e-08 -6.99476e-27)
(4.24255e-09 1.03028e-08 -1.61574e-26)
(2.54087e-09 1.1872e-08 0)
(5.72164e-09 6.47917e-09 -4.25134e-26)
(9.9632e-10 1.34322e-08 0)
(-1.04774e-08 -1.40259e-08 3.46763e-26)
(-4.20328e-08 6.37496e-08 0)
(2.15903e-10 6.02201e-11 0)
(-3.45726e-08 -6.68222e-08 0)
(1.99227e-11 -6.48064e-11 -4.77321e-27)
(-5.07719e-08 -5.5341e-10 1.19262e-26)
(-4.58435e-08 -4.48826e-08 0)
(-3.29846e-09 -1.90028e-08 0)
(2.73038e-12 3.32153e-11 7.5935e-27)
(-9.85893e-09 -4.24044e-08 0)
(-3.24967e-11 6.41165e-12 -9.96525e-27)
(-4.44459e-08 3.82163e-08 9.57842e-27)
(1.9102e-09 -1.2743e-09 6.64575e-27)
(1.5509e-09 4.07027e-10 0)
(5.20708e-09 2.59097e-09 1.07781e-26)
(2.29321e-09 5.8204e-10 0)
(-3.49346e-08 5.30884e-08 0)
(-1.61618e-09 -8.76798e-09 0)
(1.06467e-09 -1.02764e-09 3.528e-28)
(1.20397e-09 5.48861e-10 1.00883e-26)
(-4.7178e-08 4.12548e-08 -9.50763e-27)
(1.46783e-09 -6.95567e-10 7.48091e-27)
(7.21053e-10 8.15676e-11 1.07656e-26)
(-2.45032e-08 -3.06307e-08 2.53627e-26)
(-7.61607e-10 -2.29498e-09 -6.96038e-26)
(-2.65422e-08 -7.16606e-08 -4.9482e-26)
(-1.03641e-08 -9.7532e-09 1.55265e-26)
(-2.6734e-10 4.63117e-11 -3.73554e-26)
(-1.71722e-10 3.85954e-10 1.69517e-26)
(-9.07969e-11 4.35496e-10 -1.22365e-26)
(-6.08304e-09 2.76698e-08 1.38009e-25)
(5.08041e-11 2.98358e-11 1.4641e-26)
(-2.77102e-09 1.03086e-09 7.71815e-28)
(-5.0588e-10 2.8267e-09 -3.12348e-28)
(2.48911e-09 2.70852e-09 2.35293e-26)
(-3.65906e-09 2.94303e-09 7.39394e-27)
(-1.4555e-10 1.62395e-09 0)
(-3.20762e-10 3.35837e-09 -1.41216e-27)
(5.28278e-09 4.33359e-09 -1.12828e-26)
(-1.712e-10 1.81254e-09 0)
(1.31175e-09 4.69403e-09 -1.60225e-26)
(-3.27598e-09 1.21893e-08 0)
(-1.0246e-10 2.65329e-09 -6.98369e-28)
(-5.60365e-10 9.33488e-09 5.54885e-28)
(5.08342e-10 1.17452e-08 -7.37736e-27)
(6.28953e-09 6.13906e-09 3.08173e-26)
(1.68619e-09 9.80654e-09 -5.25979e-28)
(5.54219e-09 8.25743e-09 -1.09325e-26)
(8.75047e-10 1.09986e-08 -1.3073e-26)
(5.48514e-09 7.33467e-09 1.11435e-26)
(-4.25086e-10 1.4552e-08 4.59526e-27)
(-7.78116e-10 1.6736e-09 0)
(-5.036e-08 -2.54763e-08 -7.87872e-27)
(-1.71903e-09 3.65535e-10 1.19956e-26)
(4.28859e-09 2.49282e-09 0)
(-1.41594e-09 1.48194e-08 -8.63149e-27)
(-1.36167e-09 5.36893e-09 0)
(-2.27605e-09 7.05474e-09 2.38846e-27)
(1.58061e-10 -2.01386e-10 -5.58763e-27)
(7.55021e-10 -4.2191e-10 -5.81791e-28)
(5.53697e-10 -5.36193e-10 -8.65378e-28)
(-1.19154e-11 -2.29839e-11 1.05291e-26)
(-4.49381e-09 -2.42402e-08 0)
(-1.85328e-08 -5.77557e-08 1.3226e-26)
(3.57462e-09 3.50337e-09 -2.95803e-26)
)
;

boundaryField
{
    back
    {
        type            empty;
    }
    front
    {
        type            empty;
    }
    left
    {
        type            noSlip;
    }
    top
    {
        type            uniformFixedValue;
        uniformValue    
        {
            type            scale;
            scale           
            {
                type            squarePulse;
                start           0.3;
                duration        0.3;
            }
            xScale          
            {
                type            constant;
                value           1;
            }
            value           
            {
                type            constant;
                value           (0 -0.7 0);
            }
        }
        value           uniform (0 -0 0);
    }
    right
    {
        type            noSlip;
    }
    bottom
    {
        type            zeroGradient;
    }
}


// ************************************************************************* //
