/*--------------------------------*- C++ -*----------------------------------*\
  =========                 |
  \\      /  F ield         | OpenFOAM: The Open Source CFD Toolbox
   \\    /   O peration     | Website:  https://openfoam.org
    \\  /    A nd           | Version:  9
     \\/     M anipulation  |
\*---------------------------------------------------------------------------*/
FoamFile
{
    format      ascii;
    class       volScalarField;
    location    "0.87";
    object      p;
}
// * * * * * * * * * * * * * * * * * * * * * * * * * * * * * * * * * * * * * //

dimensions      [0 2 -2 0 0 0 0];

internalField   nonuniform List<scalar> 
464
(
7.30896e-20
-1.55102e-19
5.20743e-21
4.66179e-21
-1.78696e-19
5.19897e-21
3.17253e-20
4.27155e-21
-2.58608e-20
-1.87566e-20
7.2357e-20
1.65117e-19
2.32728e-20
1.66668e-19
3.60045e-20
2.48419e-20
-1.34975e-20
-1.24653e-20
4.05501e-21
3.5162e-21
4.07888e-21
5.69236e-21
5.14959e-21
4.77591e-21
4.97923e-21
4.89403e-21
1.04467e-19
4.03598e-21
9.24795e-20
5.19905e-21
5.17653e-21
8.74053e-22
2.21281e-21
-8.45716e-21
-8.68089e-21
-9.4246e-21
-8.33878e-21
4.02599e-21
3.92775e-21
9.93224e-21
2.68295e-21
5.22593e-21
5.34787e-21
1.44622e-19
1.23822e-19
1.30079e-20
4.20559e-21
3.5833e-21
3.60323e-21
3.96882e-21
2.46921e-21
3.75261e-21
-2.58604e-22
4.68098e-21
4.94745e-21
3.69148e-21
3.96698e-21
7.86624e-21
8.94531e-21
-8.52447e-22
3.79301e-21
-9.34927e-20
6.42448e-21
5.26746e-21
-6.13041e-20
4.80127e-21
1.65638e-20
3.29735e-21
1.0056e-19
5.38676e-21
1.15297e-20
-7.88751e-20
6.76494e-20
3.59014e-21
-1.63911e-20
3.87112e-21
1.27995e-20
3.32661e-20
5.53936e-21
6.26936e-20
-1.45967e-19
5.13366e-21
-2.3447e-19
5.17104e-21
-1.44477e-19
9.53804e-21
-6.33757e-20
5.18045e-21
4.48877e-21
-1.3388e-20
-1.25547e-19
-1.05875e-19
1.32364e-20
1.49633e-19
1.55839e-20
1.12016e-20
6.42649e-21
5.19136e-21
-7.83063e-20
-1.849e-20
4.61445e-21
3.70493e-21
4.79459e-21
-2.97174e-21
-9.99995e-21
-2.34835e-19
5.14652e-21
1.35922e-20
-1.23591e-19
4.51098e-21
1.02835e-20
3.90526e-21
1.7225e-20
-5.88386e-20
4.32372e-21
4.59208e-21
-1.89337e-19
5.43555e-21
-1.01798e-19
5.32596e-21
4.07222e-21
2.19939e-20
-5.0976e-20
6.86459e-20
1.09258e-20
3.84829e-21
-1.66328e-20
1.46309e-20
-9.27015e-21
-2.07187e-19
5.28645e-21
1.90432e-19
3.93821e-21
4.85306e-21
5.81226e-21
-1.54761e-19
5.62593e-21
4.16756e-21
-2.06001e-20
6.78883e-21
6.49224e-21
1.00431e-20
1.38858e-20
4.51714e-21
5.94093e-21
-2.95479e-20
4.53965e-21
5.24489e-21
5.40405e-21
6.91966e-21
4.83889e-21
4.84391e-21
1.67084e-20
6.08788e-22
-1.32398e-19
6.77904e-21
-2.04662e-20
4.48035e-21
-1.2197e-20
-1.01955e-19
-3.13571e-21
4.94406e-21
-6.27235e-21
6.19377e-21
5.81138e-21
6.12815e-21
7.09499e-21
4.62816e-21
-1.20839e-21
1.16414e-20
2.31122e-20
-7.62039e-20
-3.28195e-20
5.71347e-21
1.1326e-21
1.94235e-20
4.44401e-21
4.72343e-21
3.74178e-20
-1.453e-20
4.32459e-21
2.33355e-20
-2.92561e-20
-3.00064e-20
-1.91966e-20
-3.00523e-20
3.49719e-20
3.49117e-20
-1.56674e-20
3.46167e-20
4.21339e-21
3.7589e-20
2.54187e-21
3.79572e-21
8.94425e-21
1.02371e-20
3.94506e-21
4.46134e-21
-2.28008e-20
5.38422e-21
4.70203e-21
8.84014e-21
3.47161e-21
7.34243e-21
3.46334e-20
2.48341e-21
4.63556e-21
7.52614e-21
9.46333e-21
-5.3354e-20
6.53502e-21
3.08872e-20
3.11676e-21
-7.69159e-21
4.42347e-21
2.76637e-20
-1.03311e-20
3.07408e-21
9.75854e-20
1.19066e-20
-2.60829e-20
5.69243e-21
6.31691e-21
4.90882e-21
4.42968e-21
4.74252e-21
4.47391e-21
3.09035e-21
4.15132e-21
4.66592e-21
3.56522e-21
1.46809e-21
2.35036e-21
6.00099e-21
4.89417e-22
4.93492e-21
-2.18977e-21
1.51355e-21
2.82285e-21
-4.18165e-21
5.58429e-21
1.141e-21
-5.62877e-22
2.06733e-21
6.21143e-21
-7.96164e-21
1.24539e-21
2.58366e-21
-3.8499e-21
3.51752e-21
2.30882e-21
-5.53552e-21
6.14552e-21
-5.51459e-21
6.70273e-21
1.20977e-21
4.62582e-21
2.26087e-21
6.65502e-21
4.48227e-21
-6.5723e-22
2.67341e-21
6.75979e-21
1.0701e-20
1.07668e-21
1.03277e-20
4.98704e-21
4.21761e-21
2.71117e-20
7.5722e-21
5.54342e-21
5.06306e-22
1.26485e-21
1.4589e-20
2.51085e-20
3.59387e-21
3.52388e-21
1.23326e-20
1.77207e-20
-4.17551e-20
-3.75159e-21
4.29038e-21
1.48674e-20
3.54246e-21
3.08524e-20
-1.2885e-20
2.15601e-20
-3.94036e-20
4.19052e-21
-7.40021e-21
-2.51948e-20
-1.24519e-20
4.2459e-21
4.39181e-21
1.21992e-20
1.6315e-20
2.8805e-20
2.1026e-20
2.2799e-20
-5.016e-20
2.28873e-20
1.22826e-20
5.44159e-20
1.65912e-19
-3.92313e-21
1.19142e-20
9.1662e-21
-3.5844e-21
-9.11963e-20
9.6519e-21
5.88258e-21
4.57873e-21
6.56286e-21
1.57134e-20
4.56902e-21
-2.88559e-21
2.44056e-20
-5.3858e-20
4.08814e-21
1.9422e-20
5.49645e-21
2.12423e-20
-7.12158e-20
2.3238e-20
-8.08522e-21
2.40751e-21
2.78361e-21
4.72218e-20
4.07663e-21
-3.31724e-20
4.66553e-21
-5.12738e-20
4.90063e-21
5.05632e-21
6.81717e-21
4.70051e-21
5.28851e-21
4.44142e-21
1.99489e-21
5.06486e-21
4.05232e-21
1.10541e-19
-1.80662e-20
-3.20922e-20
-4.59088e-22
4.26398e-21
2.70425e-21
1.42741e-20
5.33735e-21
7.17014e-21
4.22294e-21
3.54387e-21
2.0292e-20
1.78609e-20
4.22268e-21
-1.00564e-19
5.19658e-21
-2.24678e-19
5.19607e-21
-1.47358e-19
5.21373e-21
1.14023e-20
5.11744e-21
-1.48626e-19
9.19604e-20
4.06468e-21
4.28289e-21
-1.6944e-20
2.23958e-19
5.4414e-21
4.34383e-21
1.85961e-19
4.44061e-20
-1.41581e-20
1.31521e-19
4.72504e-21
8.11492e-20
5.58949e-21
7.68217e-20
5.51269e-21
3.3559e-21
-8.12436e-21
-1.37315e-20
1.54257e-21
-1.85507e-21
2.70532e-21
-3.6538e-21
4.93964e-21
-2.82709e-20
-1.19254e-20
-1.27516e-21
-4.38059e-21
-5.28107e-21
-5.76653e-22
3.15812e-21
5.00013e-21
4.57524e-21
5.17567e-21
5.06503e-21
6.68242e-20
-8.53497e-20
4.83772e-21
1.53355e-19
3.94559e-21
8.39672e-21
6.95033e-20
1.97314e-19
4.00848e-21
1.03964e-19
4.00895e-21
-4.04013e-20
4.18795e-21
4.76823e-21
4.877e-21
4.55207e-21
-7.01257e-20
2.65451e-19
3.92394e-21
5.40244e-21
-1.04074e-19
4.50783e-21
4.43498e-21
8.50259e-20
1.64677e-19
9.43476e-20
4.91494e-20
5.77118e-20
3.03266e-20
1.43338e-20
-2.43034e-19
5.10955e-21
2.16046e-21
-1.62297e-20
5.20659e-21
-7.68266e-22
-2.31921e-20
-1.97551e-20
5.01423e-21
-1.65084e-20
5.6459e-21
-2.18756e-21
-3.10998e-21
3.81348e-21
3.81027e-21
4.82098e-21
4.39266e-21
4.94425e-21
5.8598e-21
4.86931e-21
1.80399e-21
1.8957e-21
2.34262e-20
1.13107e-20
5.06171e-21
6.71967e-22
-1.39224e-20
-6.13958e-21
4.00275e-21
4.26528e-21
3.98321e-21
3.88528e-21
2.52255e-19
1.68986e-19
5.1364e-21
)
;

boundaryField
{
    back
    {
        type            empty;
    }
    front
    {
        type            empty;
    }
    left
    {
        type            zeroGradient;
    }
    top
    {
        type            zeroGradient;
    }
    right
    {
        type            zeroGradient;
    }
    bottom
    {
        type            uniformFixedValue;
        uniformValue    
        {
            type            scale;
            scale           
            {
                type            squarePulse;
                start           0.3;
                duration        0.3;
            }
            xScale          
            {
                type            constant;
                value           1;
            }
            value           
            {
                type            constant;
                value           15.1;
            }
        }
        value           uniform 0;
    }
}


// ************************************************************************* //
