/*--------------------------------*- C++ -*----------------------------------*\
  =========                 |
  \\      /  F ield         | OpenFOAM: The Open Source CFD Toolbox
   \\    /   O peration     | Website:  https://openfoam.org
    \\  /    A nd           | Version:  9
     \\/     M anipulation  |
\*---------------------------------------------------------------------------*/
FoamFile
{
    format      ascii;
    class       surfaceScalarField;
    location    "0.87";
    object      phi;
}
// * * * * * * * * * * * * * * * * * * * * * * * * * * * * * * * * * * * * * //

dimensions      [0 3 -1 0 0 0 0];

internalField   nonuniform List<scalar> 
663
(
-1.55829e-25
1.90996e-25
-3.51623e-26
3.80222e-26
1.99629e-25
-6.29798e-29
6.25741e-29
3.21014e-28
-1.83448e-28
-1.37823e-28
-8.76171e-26
1.25751e-25
-1.19164e-29
-5.79594e-29
-2.01769e-25
4.60229e-26
1.58225e-28
1.20635e-28
-2.39021e-25
1.01563e-25
1.37473e-25
-2.95954e-26
-2.0958e-25
-3.46943e-26
2.25699e-25
1.07065e-25
-3.57686e-26
-7.12806e-26
-1.00361e-25
9.31456e-26
1.36909e-26
4.60214e-26
-5.00808e-26
4.06484e-27
4.91377e-26
-3.10111e-27
-6.35664e-28
-6.45402e-27
7.09163e-27
6.92201e-28
-1.347e-27
4.93203e-29
-4.89841e-29
-1.37484e-27
3.63439e-27
-2.25861e-27
2.14862e-27
-3.53059e-27
-5.42406e-28
1.17987e-27
-6.37337e-28
1.12703e-27
-1.67696e-27
-2.80533e-28
1.79063e-28
1.01611e-28
2.07326e-29
-1.96377e-28
-1.12618e-28
-1.64328e-28
1.70647e-27
-1.57347e-26
1.40066e-26
1.68733e-28
-1.07116e-28
-6.13381e-29
4.3728e-26
-4.19603e-26
-1.30128e-28
-6.95377e-29
1.99291e-28
-3.17837e-28
1.77684e-28
-5.11002e-26
4.44395e-26
6.67385e-27
1.98237e-27
-5.30614e-26
4.39717e-26
-3.68507e-26
-7.12725e-27
2.34845e-26
2.04578e-26
1.89699e-27
-1.20166e-27
-2.26439e-27
4.15861e-27
-5.86226e-29
9.78398e-29
1.09649e-29
1.50703e-28
-4.61834e-26
2.44898e-27
4.37218e-26
3.27802e-27
3.50588e-28
-2.90132e-27
2.12643e-27
7.73835e-28
-1.78648e-27
-3.24385e-26
1.67376e-26
-6.83821e-26
2.88959e-27
-4.60929e-29
-1.35757e-27
1.40317e-27
1.3688e-27
-9.80616e-28
-3.89269e-28
-1.00406e-28
1.00443e-28
-1.87249e-28
-5.26796e-28
3.80215e-27
4.57259e-29
-9.47683e-29
4.88544e-29
4.05901e-27
-5.45801e-28
-3.51202e-27
-2.51949e-27
3.24891e-27
-7.29084e-28
-4.51738e-27
1.99167e-27
5.71171e-28
-5.32646e-28
5.14463e-28
4.1336e-27
3.75792e-29
-4.17196e-27
-4.60954e-28
4.58795e-27
3.57706e-27
4.80233e-28
-9.72908e-29
4.5314e-27
7.69156e-26
-8.14713e-26
5.01147e-27
1.02992e-26
-1.53034e-26
-2.38796e-27
1.6926e-27
6.95169e-28
-1.5649e-25
1.26851e-25
3.25587e-27
-1.17211e-29
-1.36694e-26
3.03494e-27
1.06304e-26
-1.09228e-29
-1.05946e-25
-1.42902e-27
-3.08822e-27
-3.98129e-27
3.51593e-27
-1.5178e-25
4.82744e-26
-4.61553e-27
1.07465e-27
2.89281e-28
-6.16259e-27
5.80006e-26
-5.18433e-26
1.85387e-28
-1.53037e-26
1.63025e-27
-1.92615e-25
1.57548e-25
2.92446e-27
-2.89479e-27
-1.81368e-27
4.55341e-26
1.03594e-25
-1.49108e-25
-1.9092e-28
1.60399e-28
3.03772e-29
3.04683e-26
-3.87458e-26
8.27147e-27
5.74921e-29
6.43898e-29
-1.22319e-28
7.60297e-26
9.18553e-27
-4.17755e-27
1.1547e-25
-3.84645e-26
-1.61163e-28
-7.33859e-29
1.11128e-29
6.16981e-29
-6.1229e-26
5.50468e-26
-5.34268e-27
-4.81741e-26
3.74408e-26
-1.07182e-26
-2.67058e-26
-5.38238e-26
-9.23654e-26
1.46179e-25
2.03822e-26
1.7056e-26
-4.99187e-27
5.31998e-28
-5.80715e-29
2.17225e-28
4.15367e-27
2.31779e-26
-2.73212e-26
8.08851e-26
-1.81224e-25
-5.81716e-29
-2.42881e-29
1.3517e-27
-2.33687e-27
-2.19462e-28
1.54199e-28
8.98176e-27
3.54548e-26
-2.78246e-26
-3.87212e-26
5.88276e-29
2.51471e-26
-2.21249e-26
-2.03762e-26
1.49918e-26
1.03895e-27
-3.63251e-27
2.59412e-27
3.22301e-26
1.75188e-26
-4.97615e-26
-2.94532e-28
1.44063e-26
-4.94421e-26
5.35351e-26
1.16122e-28
-1.14659e-28
2.33764e-28
-4.59708e-28
-8.31886e-27
-1.20139e-26
-1.20671e-31
1.31344e-28
-1.31366e-28
2.31193e-26
2.445e-28
-2.54152e-28
2.38059e-27
-6.25685e-26
1.43492e-25
6.10536e-26
5.44327e-26
-8.99373e-26
1.35946e-25
5.1958e-27
5.89779e-26
-2.67336e-26
1.14071e-25
-5.30371e-26
-2.98862e-26
4.74011e-26
-3.62444e-27
2.71142e-26
8.99095e-27
-8.95135e-27
-5.48943e-28
7.7688e-28
2.47843e-28
-4.17346e-29
-2.0539e-28
-1.19936e-26
-1.39799e-28
1.01409e-28
-1.6897e-28
5.07808e-28
-5.07124e-28
6.16521e-29
1.78389e-28
-2.93652e-26
3.98038e-27
-4.61917e-28
-3.51108e-28
-4.88681e-29
-9.12685e-29
9.87598e-28
5.69838e-26
7.05131e-28
-1.25655e-27
7.62674e-29
3.31791e-27
-1.62943e-27
9.90304e-28
-4.89854e-28
-9.49781e-28
1.64905e-27
4.6097e-28
3.11722e-28
-8.23487e-27
4.73039e-26
-3.90695e-26
4.47052e-26
1.42513e-26
1.11413e-26
-1.74464e-28
-3.38991e-28
-1.64632e-27
-4.81479e-27
1.20596e-27
-2.15898e-27
5.16038e-26
5.24869e-26
-3.74297e-26
1.15077e-26
-2.11291e-26
9.65483e-27
-1.30209e-27
2.50287e-27
4.18333e-27
-5.60652e-26
9.85712e-28
-6.63342e-28
1.64898e-27
4.23792e-27
7.29918e-27
2.05641e-27
-2.72445e-27
-4.18262e-27
4.99546e-26
-4.57562e-26
-2.22016e-26
2.22072e-26
-1.67125e-26
-5.49689e-27
1.40608e-26
-2.63381e-26
2.73267e-26
1.1192e-27
2.63741e-26
5.71251e-27
-3.55873e-26
1.63241e-27
-2.93755e-27
3.08359e-27
-1.45631e-27
-5.29869e-26
4.47607e-26
-4.31267e-27
-1.98385e-26
2.41497e-26
-3.83121e-29
3.11997e-27
3.8475e-27
9.16128e-27
-1.29947e-26
1.02392e-26
-1.02518e-26
5.91551e-27
1.51196e-26
-1.93512e-26
-1.50794e-26
4.86613e-27
6.01973e-27
-2.17122e-27
6.00761e-27
-1.09913e-26
1.67038e-26
1.82522e-27
1.6531e-27
-3.47828e-27
1.1e-26
-4.99485e-27
-6.5883e-28
6.57377e-28
-5.14421e-28
9.97188e-28
3.58887e-27
4.44343e-27
-3.44975e-27
4.19462e-27
2.92498e-27
-4.35768e-27
-5.58227e-28
4.53294e-27
-9.82465e-29
-1.73672e-27
1.17795e-27
3.92198e-27
6.08308e-28
-1.17629e-27
-1.73921e-27
-2.18115e-27
2.18175e-27
-2.28411e-27
-2.15893e-27
-1.10619e-29
1.44849e-27
-1.44956e-27
1.64362e-27
-1.93275e-26
-2.15987e-26
2.16235e-26
-2.28516e-27
5.92043e-27
4.39246e-28
2.57821e-27
1.79036e-27
-1.12657e-27
2.91722e-27
1.44768e-27
8.59877e-28
1.96573e-27
-2.8259e-27
-3.79066e-28
1.82833e-27
3.07931e-28
1.16109e-27
3.58964e-27
-1.62733e-27
5.11795e-27
-1.53686e-27
-8.35084e-27
2.64102e-27
-4.27403e-27
-1.73612e-27
6.93941e-27
-1.05358e-26
3.59593e-27
-4.16215e-27
1.10976e-26
3.37422e-27
-8.36907e-27
-2.16295e-27
-4.97859e-27
1.85229e-26
-1.49329e-26
-5.68804e-27
6.11559e-27
-9.20425e-27
-1.27365e-27
9.31464e-27
1.42271e-28
4.05238e-27
2.68547e-27
-1.75995e-26
1.78376e-27
2.65684e-26
-2.39087e-26
-1.88768e-26
-3.04072e-26
3.87188e-27
2.65377e-26
-1.65305e-26
-1.38646e-26
2.31856e-26
1.26715e-26
-4.44048e-28
-1.719e-27
1.78391e-27
-1.77308e-26
3.526e-26
-4.37182e-26
8.45931e-27
1.44481e-26
-3.21809e-26
-3.50271e-26
-5.73052e-27
4.07464e-26
-2.08364e-26
3.52974e-26
-4.02118e-26
5.08926e-26
-1.06782e-26
1.44418e-26
-3.59432e-26
-2.06032e-26
-2.88954e-29
6.08747e-26
-5.67975e-26
1.81828e-26
3.27659e-26
7.73323e-28
1.05012e-26
-3.11026e-26
-1.59462e-27
8.89489e-27
5.01742e-26
5.34367e-26
-1.65734e-26
2.71174e-26
5.28102e-28
1.76564e-27
-1.76513e-27
7.52634e-27
3.33956e-26
-2.45462e-26
-6.647e-28
3.13266e-28
-2.48145e-28
-1.1317e-26
-4.5403e-26
3.61132e-26
-2.77642e-27
-1.41377e-27
-3.63587e-28
1.65114e-26
-6.95587e-26
-1.56355e-28
1.50167e-26
4.6544e-26
-3.15114e-26
6.30233e-26
9.50859e-28
2.57856e-27
-1.82054e-26
-1.89587e-27
3.66805e-28
-2.52915e-27
-1.85552e-26
2.35573e-26
-5.55401e-26
-2.94096e-26
-8.55684e-26
3.83439e-26
4.72335e-26
3.93229e-26
-3.34639e-27
1.08432e-27
-1.71521e-28
-3.51194e-26
2.21907e-28
-2.62882e-26
4.18876e-26
-4.7207e-27
8.52634e-26
-3.36625e-26
1.40026e-26
-4.10698e-26
-2.72858e-26
-2.82459e-26
-2.99793e-31
1.53695e-28
3.22122e-26
-4.45301e-28
3.69505e-28
-2.37117e-27
2.59829e-28
-2.5962e-28
-5.97608e-26
-4.33276e-28
-3.10014e-27
2.24842e-25
-1.44348e-25
5.96283e-29
-5.95923e-29
-4.11486e-27
-3.62221e-28
-1.09393e-27
-2.33336e-28
2.32306e-28
1.68194e-27
-3.95275e-29
3.87694e-29
4.80494e-26
-2.51655e-25
5.22358e-26
-1.74371e-28
2.01055e-30
6.80457e-27
-2.08682e-27
-4.91273e-27
6.20581e-26
-1.27544e-29
6.21019e-26
-1.28184e-29
6.71466e-27
1.93049e-25
9.86251e-29
-3.96387e-29
-5.52996e-26
-4.5664e-29
-2.33503e-26
1.33245e-25
-1.83001e-30
-5.31978e-29
-1.31229e-26
9.49792e-27
2.26384e-26
-6.10627e-29
6.23686e-29
4.20449e-29
7.62765e-27
-5.00113e-26
-1.1027e-26
9.3999e-27
-7.62556e-27
-3.00259e-26
1.53708e-27
1.98547e-26
1.53953e-28
-1.67955e-26
2.20851e-26
-2.69681e-26
-8.27077e-27
3.22577e-27
3.94134e-26
2.89368e-26
-2.18903e-28
1.10262e-27
2.43095e-28
3.71274e-27
1.97529e-27
-1.22936e-27
1.22725e-27
-2.48608e-27
-1.82941e-27
7.84212e-30
-6.35341e-28
-1.04329e-27
5.23572e-27
2.08945e-25
6.97968e-29
1.81352e-25
3.37498e-29
1.69506e-25
-9.39932e-26
6.19329e-26
-6.19493e-26
-7.20228e-30
-9.06017e-26
-7.28357e-30
-1.4495e-25
-6.46556e-26
1.37293e-28
-1.38895e-28
1.67447e-28
-2.53576e-28
8.60229e-29
2.2515e-29
1.27536e-28
2.26617e-26
-7.69414e-29
8.17351e-29
-5.55073e-26
1.98521e-26
1.68184e-26
-1.43278e-28
1.10519e-27
-2.42482e-28
-6.59288e-28
-2.92335e-27
1.00974e-27
-6.69602e-28
-3.25018e-29
-3.84104e-29
-1.88896e-29
1.18014e-28
)
;

boundaryField
{
    back
    {
        type            empty;
        value           nonuniform List<scalar> 0();
    }
    front
    {
        type            empty;
        value           nonuniform List<scalar> 0();
    }
    left
    {
        type            calculated;
        value           uniform 0;
    }
    top
    {
        type            calculated;
        value           uniform 0;
    }
    right
    {
        type            calculated;
        value           uniform 0;
    }
    bottom
    {
        type            calculated;
        value           nonuniform List<scalar> 8(-2.3755e-25 -8.04898e-26 2.03613e-25 -1.49685e-25 -2.02244e-25 1.52602e-25 2.36904e-25 7.54772e-26);
    }
}


// ************************************************************************* //
