/*--------------------------------*- C++ -*----------------------------------*\
  =========                 |
  \\      /  F ield         | OpenFOAM: The Open Source CFD Toolbox
   \\    /   O peration     | Website:  https://openfoam.org
    \\  /    A nd           | Version:  9
     \\/     M anipulation  |
\*---------------------------------------------------------------------------*/
FoamFile
{
    format      ascii;
    class       volVectorField;
    location    "0.87";
    object      U;
}
// * * * * * * * * * * * * * * * * * * * * * * * * * * * * * * * * * * * * * //

dimensions      [0 1 -1 0 0 0 0];

internalField   nonuniform List<vector> 
464
(
(-4.87233e-18 -2.46927e-18 -2.88974e-37)
(-3.14819e-18 6.1183e-18 0)
(1.07003e-21 7.43909e-22 0)
(7.72934e-21 -1.43935e-22 -2.90089e-37)
(-2.28082e-18 4.83655e-18 0)
(9.8021e-22 9.18349e-22 7.76691e-38)
(-4.62622e-18 -1.31633e-18 3.11939e-36)
(7.31299e-21 -2.09614e-22 0)
(-5.69563e-18 2.35332e-19 -2.47843e-37)
(-5.41822e-18 1.63797e-18 -2.30576e-36)
(-3.88169e-18 -3.243e-18 2.48238e-37)
(-1.65952e-18 -1.64632e-18 -2.50115e-37)
(-5.03795e-18 -3.7958e-19 1.18403e-37)
(-1.17743e-18 -1.91218e-18 0)
(-3.41619e-20 1.66158e-18 5.15767e-37)
(3.52227e-20 1.44925e-18 -1.75119e-36)
(1.22409e-19 1.31254e-19 0)
(6.20138e-20 4.81229e-20 -3.21546e-37)
(5.62306e-22 -1.03121e-21 1.86161e-37)
(-4.408e-20 -1.02083e-19 -2.20064e-37)
(-4.3733e-20 -1.01456e-19 3.36539e-37)
(-2.74892e-20 -1.65879e-20 -7.98095e-38)
(-4.02864e-20 -2.44588e-20 4.02867e-38)
(5.80548e-21 3.54398e-21 0)
(6.22422e-21 -5.12719e-22 2.97937e-37)
(4.32814e-21 4.90058e-21 -1.39731e-37)
(-3.98211e-19 7.51579e-19 -3.19418e-36)
(1.77787e-21 -4.20823e-21 2.40155e-37)
(-5.62283e-19 1.05118e-18 0)
(-6.4072e-21 4.62277e-21 0)
(-5.53553e-21 4.93563e-21 -1.82601e-38)
(5.32465e-19 1.43258e-18 4.48565e-40)
(4.06532e-19 1.60282e-18 5.22283e-38)
(4.91144e-19 9.38154e-19 -4.76062e-37)
(5.95759e-19 7.92181e-19 4.79793e-37)
(4.51254e-20 -1.73954e-20 5.66128e-37)
(6.53567e-20 -3.8893e-20 -5.01108e-37)
(1.08613e-21 -2.62379e-21 2.88541e-38)
(2.4721e-23 -4.13175e-21 -6.69135e-39)
(1.35997e-19 1.3502e-18 0)
(-2.79413e-20 -1.1234e-19 -2.37801e-37)
(-4.13285e-20 -5.0281e-20 0)
(-4.8662e-20 -3.961e-20 1.0668e-37)
(-6.42483e-19 1.08601e-19 -7.61647e-36)
(-1.26078e-18 -4.70356e-19 7.76996e-36)
(1.37395e-19 1.59858e-18 4.76085e-38)
(-3.0374e-20 1.52144e-20 -2.36104e-37)
(-1.64669e-20 3.10416e-20 -3.40941e-39)
(-3.36903e-22 -2.14636e-21 0)
(2.26307e-21 -3.5272e-21 -2.79361e-38)
(-1.73246e-20 -1.25036e-19 1.53044e-37)
(-4.34686e-21 8.69598e-23 1.30208e-38)
(-3.76225e-21 -1.08895e-19 1.71744e-38)
(-6.97906e-20 6.17061e-20 2.75479e-37)
(-5.76143e-20 8.98979e-20 8.98286e-39)
(-1.07197e-20 6.01185e-21 -2.13725e-37)
(-1.83355e-20 8.15877e-21 0)
(1.14517e-19 5.36308e-20 0)
(8.59767e-20 8.32917e-20 6.10612e-37)
(5.92171e-21 -1.17607e-19 0)
(3.25338e-22 -3.66022e-21 -2.26885e-37)
(-2.56275e-18 1.14689e-18 9.9819e-36)
(3.62953e-19 -3.5093e-20 -1.00096e-36)
(-1.84778e-20 5.5878e-20 3.1629e-37)
(-4.4274e-18 1.48704e-18 -4.22964e-38)
(-7.80399e-20 3.74829e-20 2.70423e-37)
(3.33154e-19 -2.56279e-19 8.98512e-37)
(-1.34233e-21 -1.76523e-21 1.77609e-37)
(-2.83773e-18 -2.27355e-18 -2.80506e-36)
(-4.3233e-20 1.1072e-19 -3.35446e-37)
(1.11903e-19 5.8083e-20 -6.09346e-37)
(-3.55539e-18 1.97488e-18 -5.33276e-36)
(-3.7117e-19 1.42689e-18 0)
(-1.98579e-20 2.32903e-20 -2.1522e-37)
(1.35806e-19 -1.6987e-18 -6.75211e-37)
(-3.1902e-21 -2.36369e-21 -2.31994e-37)
(3.31106e-19 -1.46115e-19 8.07934e-37)
(-5.54802e-18 -2.38841e-18 -3.10742e-36)
(6.65681e-20 4.89361e-20 3.55393e-37)
(-1.41556e-19 1.41371e-18 1.40495e-36)
(-2.20397e-18 2.96571e-18 0)
(2.68669e-21 3.64709e-21 -7.48224e-38)
(-5.06383e-19 8.82689e-19 -1.35574e-35)
(1.01937e-21 3.49613e-21 -3.18816e-37)
(-1.31869e-18 1.65706e-18 0)
(2.54207e-19 -5.03726e-21 1.20034e-38)
(-2.52726e-18 3.89199e-19 -4.7088e-36)
(1.86041e-21 5.14411e-21 0)
(2.0097e-21 -2.89644e-22 0)
(1.81093e-19 -1.69774e-18 -5.62297e-37)
(-1.58596e-18 9.9823e-19 7.44812e-36)
(-3.34835e-18 3.16516e-18 0)
(5.92221e-19 -6.47823e-19 -8.73792e-37)
(-2.26285e-18 -4.13865e-18 -7.5311e-36)
(5.29012e-19 -8.5779e-19 8.5944e-37)
(4.22987e-19 -1.08815e-19 5.24828e-37)
(1.58468e-20 7.66355e-20 -3.56218e-37)
(4.39236e-21 3.20327e-21 6.8622e-38)
(-5.07661e-20 -9.47919e-19 -5.34962e-36)
(-4.36069e-18 5.703e-20 -1.52395e-37)
(2.08046e-21 1.38902e-21 0)
(-2.7951e-20 4.85929e-20 -2.08268e-38)
(-3.59159e-21 2.37565e-21 0)
(5.91187e-19 1.22993e-18 -4.3893e-40)
(4.99152e-19 1.18717e-18 0)
(-3.41686e-19 8.37268e-19 -1.10422e-35)
(5.09095e-22 1.27819e-21 0)
(4.72824e-19 -3.65343e-19 -8.81982e-37)
(-8.51553e-19 1.44184e-19 -7.45611e-36)
(-5.78569e-20 6.14312e-20 0)
(5.36429e-19 -1.20893e-18 0)
(-3.26442e-20 2.54118e-20 2.41027e-37)
(4.50318e-19 -5.28498e-19 0)
(-1.87511e-19 -1.41157e-18 2.98509e-36)
(-3.28665e-21 -5.6722e-22 -8.13467e-39)
(-1.1705e-20 1.74351e-21 4.36974e-39)
(-3.06603e-19 -7.65012e-20 1.03502e-35)
(2.7365e-22 5.14488e-21 -3.54799e-37)
(-5.9898e-20 -4.88757e-19 4.30251e-36)
(-5.63193e-23 6.92841e-21 1.9668e-38)
(-4.51521e-20 5.10027e-20 -2.34594e-37)
(-3.60417e-18 -8.12107e-20 -4.3988e-38)
(-3.17928e-18 3.17844e-19 2.00613e-36)
(-3.63554e-18 -9.66661e-19 -2.68923e-36)
(1.9576e-19 1.17756e-21 0)
(5.94091e-19 -1.28726e-18 -1.32551e-37)
(-2.74406e-18 -6.20054e-20 -2.02362e-36)
(3.37218e-19 -1.17715e-18 0)
(5.16765e-19 5.88348e-19 0)
(-2.21908e-19 1.59829e-19 1.05028e-35)
(3.19172e-22 2.70858e-21 2.47601e-37)
(-2.51298e-19 -1.67054e-19 -8.68392e-36)
(3.31938e-22 -1.98845e-21 1.85613e-37)
(-2.08342e-20 1.26799e-21 0)
(-9.2821e-21 -5.60555e-21 0)
(-1.30231e-19 -2.64944e-19 -8.20832e-36)
(-3.38058e-22 3.07223e-21 5.40374e-37)
(1.74553e-21 -3.48263e-21 2.56008e-37)
(-4.12848e-18 6.34341e-19 2.42142e-36)
(-3.52413e-21 -1.05607e-20 -3.27629e-37)
(-3.69472e-21 -1.87584e-21 0)
(6.47508e-19 -9.72938e-19 0)
(6.30089e-20 7.38154e-20 1.19115e-37)
(-1.093e-20 1.1395e-21 -2.68681e-37)
(-1.25803e-21 3.8804e-21 -3.37234e-37)
(2.27202e-20 -1.57442e-18 -2.13591e-36)
(-3.1632e-20 1.64276e-21 0)
(1.52254e-21 6.88382e-21 0)
(-4.35582e-20 7.63548e-20 -1.08052e-38)
(-7.79453e-21 -2.93456e-20 7.83202e-37)
(-4.24331e-20 -1.50209e-21 -8.97602e-39)
(-1.83822e-20 6.60318e-22 -2.89794e-37)
(-9.15308e-19 8.58505e-19 1.26247e-36)
(4.3536e-19 -1.52016e-18 1.33139e-37)
(-1.57747e-19 -6.62516e-19 -6.52703e-39)
(-5.56136e-21 -1.31326e-20 4.25466e-37)
(1.1237e-19 2.35247e-19 0)
(-5.46122e-20 1.87919e-21 0)
(-2.91703e-18 1.00465e-20 1.08539e-37)
(-9.85978e-19 -4.0909e-19 5.83645e-36)
(-5.27405e-19 -1.69495e-20 0)
(-6.44058e-20 -5.98524e-21 2.89192e-37)
(1.54882e-19 -1.47004e-18 8.01897e-37)
(-4.51033e-21 -2.13379e-20 -2.63296e-38)
(-8.92318e-21 -5.01619e-20 -3.57402e-37)
(-1.35553e-21 1.3312e-21 0)
(-1.15603e-19 3.5304e-19 2.51164e-37)
(-2.06531e-20 -7.92446e-20 -2.63842e-37)
(2.13649e-19 1.22118e-18 2.78062e-37)
(4.21853e-20 -4.5433e-19 -1.13579e-36)
(8.83708e-20 -7.29905e-19 -4.78523e-37)
(-1.66181e-18 -2.79134e-19 -3.82964e-36)
(2.39437e-20 -1.00497e-18 -1.12418e-36)
(-1.91208e-20 -1.70074e-20 7.92921e-38)
(6.99455e-20 -9.10923e-19 8.15229e-37)
(2.29189e-19 -8.88922e-19 1.20987e-36)
(-7.43761e-20 1.89446e-21 -2.86443e-37)
(-7.95338e-20 -1.14228e-20 1.07968e-39)
(-1.30265e-18 8.52774e-19 1.68712e-36)
(2.08311e-19 5.72486e-19 1.50657e-37)
(-7.19744e-20 -3.88191e-20 -2.70849e-37)
(1.57638e-19 -2.99519e-19 -1.37574e-36)
(4.19829e-20 2.12925e-19 0)
(7.69974e-20 3.17568e-19 -1.79171e-36)
(6.64408e-20 6.97608e-19 3.74666e-37)
(8.14709e-20 5.0585e-19 -4.1175e-38)
(5.83278e-20 -1.53856e-19 0)
(3.69912e-20 -1.19428e-19 1.73112e-36)
(2.44605e-20 -5.42348e-19 -1.50584e-36)
(8.91733e-20 -5.19195e-19 -3.15074e-39)
(-3.18734e-20 7.9991e-20 2.52764e-40)
(7.67471e-20 -3.18741e-19 -2.16547e-36)
(-3.92224e-21 1.31991e-20 2.37919e-37)
(-2.09109e-20 5.74368e-20 2.27852e-37)
(3.3705e-20 1.1507e-19 -5.57898e-40)
(1.61352e-20 1.24369e-19 5.59666e-40)
(-2.94089e-20 -1.04431e-19 2.42595e-37)
(-5.05793e-20 8.15898e-20 -2.50075e-40)
(4.12303e-20 3.23708e-19 -9.97474e-37)
(-2.86706e-20 1.11289e-19 -3.492e-37)
(-2.18784e-20 8.78864e-20 0)
(-1.53694e-21 1.22993e-19 0)
(-9.05311e-21 5.41978e-20 0)
(-1.3813e-20 1.30897e-19 -4.1399e-40)
(4.56982e-20 -2.22003e-19 0)
(-8.30651e-21 3.38739e-20 1.29611e-38)
(-4.47343e-21 3.59708e-20 0)
(-2.62243e-21 4.54681e-20 3.15575e-37)
(-2.79858e-21 8.33749e-20 -6.37794e-37)
(-1.01023e-20 -5.67428e-19 2.05704e-36)
(-2.61077e-21 -3.43801e-21 -3.16306e-37)
(2.61539e-20 -4.07644e-20 0)
(-1.40939e-21 2.59766e-23 -1.53379e-37)
(7.71039e-21 -3.61811e-20 -2.97672e-37)
(-4.29402e-21 -3.42359e-20 0)
(4.84691e-20 -3.39716e-19 1.21258e-36)
(2.44353e-20 4.30064e-19 6.9777e-37)
(-4.73118e-21 2.41626e-20 -1.32724e-37)
(-6.50473e-20 4.94661e-19 1.33972e-36)
(1.34164e-21 4.82545e-20 5.10314e-37)
(4.19375e-20 1.25857e-19 1.33268e-36)
(-7.65567e-21 7.30861e-20 -3.94683e-37)
(-1.6213e-20 1.13474e-19 3.4962e-37)
(-6.38972e-20 4.9846e-20 -5.89194e-37)
(-8.16123e-20 2.41652e-21 -2.78549e-37)
(-7.62061e-20 -1.80807e-20 2.64407e-37)
(-6.59152e-20 1.58579e-21 0)
(1.42707e-20 -7.06436e-20 -8.93257e-38)
(-4.60953e-20 -2.15978e-20 7.08958e-39)
(-1.7937e-20 3.76905e-21 2.51222e-37)
(2.17889e-20 -2.11151e-20 -2.49003e-37)
(4.93812e-20 -8.09539e-20 6.98191e-39)
(1.15642e-19 -4.47097e-20 0)
(1.9547e-19 2.12594e-20 4.55769e-37)
(3.28684e-20 -1.09368e-19 -3.89399e-38)
(7.23756e-20 3.71314e-21 0)
(3.03746e-19 7.63776e-20 1.43795e-38)
(2.55931e-19 1.85896e-20 4.88503e-38)
(1.32955e-19 -1.1653e-20 -2.4914e-37)
(2.18242e-19 7.66788e-20 3.51359e-37)
(2.08383e-19 5.59009e-21 2.55285e-37)
(4.27205e-19 1.26164e-19 -3.512e-38)
(1.6138e-19 -2.70986e-20 -2.8279e-38)
(2.87701e-19 1.21314e-20 0)
(3.85798e-19 7.39107e-21 0)
(2.16026e-19 1.58198e-19 3.90647e-38)
(4.78448e-19 5.01776e-20 2.22473e-39)
(-1.67892e-20 -1.08539e-19 0)
(4.69746e-19 2.43985e-19 0)
(-5.82175e-21 -6.71458e-20 0)
(6.10694e-19 2.78479e-19 1.44772e-39)
(3.50538e-19 2.83594e-19 -7.09952e-37)
(7.26042e-19 -2.52254e-19 5.42455e-37)
(3.8209e-19 -1.51829e-18 5.64036e-37)
(5.86394e-19 6.57388e-21 0)
(6.768e-19 9.48646e-20 0)
(-5.20472e-20 1.30035e-20 0)
(-3.7087e-22 -4.09141e-20 3.69037e-38)
(7.69358e-19 -7.25922e-21 1.85455e-37)
(8.2507e-19 6.68883e-19 0)
(8.301e-19 1.4974e-19 -1.75662e-37)
(8.42721e-19 -5.64237e-19 -5.68681e-37)
(8.92567e-19 -7.19177e-21 -2.37987e-37)
(2.25556e-19 1.35359e-18 5.13653e-37)
(9.08638e-19 2.17578e-19 2.37993e-37)
(-8.37277e-20 1.06529e-18 -2.00819e-36)
(8.89362e-19 -2.37898e-20 4.56756e-40)
(-2.22509e-21 -2.1732e-21 7.95098e-39)
(-3.16555e-20 1.77587e-18 -8.35894e-37)
(4.63294e-19 1.03999e-18 -5.20614e-37)
(-1.61427e-20 -2.56456e-20 3.00734e-37)
(8.05249e-19 2.75833e-19 0)
(2.26867e-19 -1.38912e-20 -2.49937e-37)
(1.90754e-19 1.72425e-18 -1.19958e-37)
(-3.288e-18 -2.77778e-19 6.59355e-37)
(6.85353e-19 -2.41133e-20 0)
(4.85628e-19 3.36309e-19 0)
(2.41101e-20 1.01763e-19 7.81815e-37)
(7.6254e-21 3.85224e-20 0)
(-1.20155e-19 -1.66719e-18 -8.74675e-37)
(2.29095e-19 -7.66924e-19 5.85244e-40)
(-1.84758e-20 3.10301e-21 -1.72554e-39)
(6.39654e-21 7.58367e-20 0)
(-1.01072e-20 1.12779e-20 2.18411e-37)
(-3.19606e-19 1.61292e-18 -1.32373e-36)
(-7.66544e-20 -1.07652e-18 -5.90626e-37)
(2.00009e-20 3.99475e-20 1.38393e-36)
(-1.93906e-18 -4.49935e-19 0)
(-1.44039e-20 2.99145e-21 0)
(-4.89919e-19 -7.22129e-19 6.06997e-37)
(-8.79527e-19 -9.02864e-19 6.82951e-39)
(-1.49679e-18 -5.0453e-19 -4.78743e-39)
(-3.84128e-20 1.14341e-20 2.64781e-37)
(-7.17637e-20 4.29986e-20 -5.48389e-37)
(5.99863e-19 -2.63501e-19 -5.55581e-37)
(6.10658e-20 3.3033e-20 -1.93738e-36)
(3.75834e-20 -3.38607e-20 0)
(3.24873e-19 -8.1799e-19 1.13799e-37)
(2.71071e-19 -4.88641e-19 1.37882e-36)
(-1.5125e-18 -7.09767e-19 3.79144e-36)
(-4.09454e-19 1.25976e-18 9.88088e-37)
(-1.01496e-18 2.84302e-19 6.4663e-38)
(-1.80151e-18 2.59942e-19 -7.39385e-36)
(-1.37463e-18 -2.99676e-18 9.60927e-36)
(4.05954e-20 -9.00784e-20 8.52575e-38)
(7.44656e-19 -4.59724e-19 5.23023e-37)
(8.06179e-19 -6.82873e-19 7.80559e-37)
(1.54628e-20 -9.73105e-20 1.24271e-37)
(-4.81057e-19 -8.72707e-19 -1.06236e-35)
(2.1805e-19 -1.21186e-18 3.46623e-37)
(-3.78996e-20 1.11828e-19 3.3552e-37)
(-3.01401e-20 5.21774e-21 1.26665e-39)
(5.5239e-19 -1.26208e-19 0)
(-2.21718e-18 1.37636e-19 1.03877e-37)
(7.28924e-19 -8.96493e-19 3.39525e-37)
(4.50587e-19 -1.04748e-18 0)
(1.61667e-20 1.06222e-20 -1.09763e-36)
(-8.72631e-19 -1.18864e-18 0)
(4.91574e-21 5.92182e-22 0)
(-2.01261e-18 4.22498e-19 -1.71084e-36)
(-1.26674e-20 9.57735e-23 -2.52373e-37)
(1.99136e-19 -2.2438e-19 4.4061e-39)
(-4.9575e-19 -1.2748e-18 4.85987e-36)
(2.04473e-19 -5.71318e-19 -1.32037e-36)
(-1.59969e-18 -2.05979e-20 -3.46315e-37)
(-6.15589e-21 1.67052e-20 4.83334e-39)
(-3.68641e-21 4.74859e-21 1.61828e-37)
(-2.41825e-18 1.5429e-19 2.26214e-36)
(-6.15622e-21 -8.72888e-22 0)
(-6.66236e-19 -1.34191e-18 -1.96517e-36)
(-5.35173e-20 -7.90428e-20 1.53907e-37)
(-5.94683e-18 2.06789e-18 -1.35453e-36)
(1.08262e-21 2.97534e-22 1.12267e-37)
(8.46406e-19 -4.03389e-19 -9.27172e-37)
(-1.68603e-20 1.2667e-19 4.11944e-40)
(-7.07944e-20 2.42548e-20 2.69054e-37)
(-2.10965e-20 -5.25368e-21 2.35138e-37)
(5.15206e-21 -2.30537e-22 2.34287e-37)
(2.82274e-19 -1.50003e-18 -4.74882e-37)
(-4.35621e-20 -7.00818e-20 -3.05632e-37)
(7.49816e-22 -2.73793e-22 -9.51134e-38)
(-4.89671e-18 -5.24719e-18 0)
(-3.09249e-20 -1.57486e-18 -1.44515e-38)
(-2.51472e-19 -1.62799e-18 1.95034e-36)
(6.58004e-19 -6.96979e-19 -1.22374e-37)
(4.23784e-21 -2.86962e-21 -1.26646e-37)
(-2.70872e-21 4.99665e-21 -2.52864e-37)
(2.15222e-19 -6.1379e-20 -8.05584e-37)
(5.17511e-21 3.90695e-22 -2.86783e-37)
(8.25521e-21 1.14658e-19 0)
(-5.82559e-20 2.51295e-20 7.92525e-39)
(4.47137e-21 -4.42074e-22 1.08183e-37)
(1.0696e-19 -9.73411e-20 0)
(1.25604e-19 -3.77518e-20 1.01905e-36)
(-4.70207e-20 3.50887e-20 2.42407e-37)
(-1.05092e-18 4.01293e-18 1.34417e-35)
(1.94184e-22 2.00247e-22 0)
(-3.0629e-19 1.66553e-18 -7.25825e-36)
(2.23963e-22 1.84349e-22 1.15881e-37)
(-4.05658e-18 5.2734e-18 0)
(3.12155e-21 2.05465e-21 1.72475e-37)
(-5.99881e-18 -5.37064e-19 3.1022e-37)
(1.6636e-21 2.03931e-21 -8.30423e-38)
(-1.76478e-18 3.50659e-18 0)
(-3.55306e-18 -4.27143e-18 2.30742e-37)
(8.51459e-22 -7.24627e-22 -2.55399e-37)
(4.91873e-21 -1.0365e-21 0)
(4.12902e-19 5.17218e-19 0)
(-4.48173e-19 -7.89055e-19 0)
(-2.51556e-21 6.11432e-21 -1.78976e-37)
(2.1601e-21 -9.49727e-23 0)
(-2.96002e-19 6.82436e-20 1.68462e-35)
(-5.3902e-19 1.49618e-18 -2.77553e-37)
(2.06222e-19 3.71184e-19 0)
(-1.30035e-19 6.05685e-19 1.14297e-36)
(5.44066e-21 1.65859e-21 0)
(-1.91713e-18 -3.0782e-19 4.16705e-36)
(-2.52015e-20 -4.05922e-20 -5.13084e-37)
(-5.17792e-20 8.84902e-19 8.84299e-36)
(-8.56697e-21 -3.9413e-22 -9.29865e-38)
(4.13619e-20 8.01762e-19 0)
(3.21434e-19 1.18059e-18 -2.92659e-37)
(3.00712e-19 8.02116e-19 0)
(7.50465e-19 9.15846e-19 5.76067e-38)
(6.34801e-19 4.28622e-19 -8.0152e-38)
(5.91073e-19 1.15734e-18 0)
(7.47732e-19 6.75907e-19 -6.56437e-38)
(4.52529e-21 4.95906e-21 1.61392e-37)
(5.62522e-20 1.3779e-19 0)
(1.54227e-20 -3.3729e-20 0)
(5.97077e-20 -9.29398e-20 -8.0475e-38)
(1.37829e-19 4.23288e-21 0)
(5.57456e-21 -6.28726e-20 2.5478e-37)
(-1.12159e-21 -6.84822e-20 1.79942e-38)
(-1.89473e-20 -8.56992e-20 7.85906e-38)
(-6.19042e-20 -3.57176e-20 2.78778e-37)
(-6.77954e-20 -5.93074e-20 0)
(-2.559e-20 -3.58377e-21 6.20318e-37)
(-2.7417e-20 -7.02925e-20 0)
(-1.15746e-18 7.83167e-19 3.833e-36)
(-4.97192e-18 5.30242e-18 0)
(2.00296e-21 6.29315e-22 0)
(-4.1878e-18 -5.41143e-18 0)
(1.20792e-21 4.24394e-23 9.21821e-38)
(-6.14898e-18 2.53273e-20 1.69545e-36)
(-5.54941e-18 -3.47451e-18 0)
(-3.75573e-19 -1.76034e-18 0)
(1.86666e-22 -9.27077e-23 -1.80768e-37)
(-1.13135e-18 -4.04104e-18 0)
(9.22459e-23 -1.13761e-22 2.31597e-37)
(-5.32859e-18 2.74679e-18 1.14149e-36)
(5.00487e-21 -3.05429e-21 -1.36021e-37)
(6.69878e-21 2.26649e-21 0)
(-3.34492e-21 3.63321e-21 -1.50164e-37)
(6.33405e-21 1.87909e-21 0)
(-4.21496e-18 3.8422e-18 0)
(-1.97691e-19 -6.10397e-19 0)
(3.77647e-21 -3.20233e-21 -7.71315e-39)
(5.46874e-21 2.7439e-21 -1.55169e-37)
(-5.68917e-18 3.27451e-18 -1.13305e-36)
(4.64588e-21 -1.4916e-21 -1.48467e-37)
(3.12247e-21 8.25686e-22 -1.62883e-37)
(-2.91279e-18 -1.18344e-18 3.00609e-36)
(-8.71881e-20 1.95265e-19 -7.60219e-36)
(-3.1571e-18 -6.2585e-18 -6.54382e-36)
(-1.01216e-18 1.11635e-18 1.55552e-36)
(-5.15925e-21 4.83472e-19 -3.14631e-36)
(2.61139e-20 8.53081e-19 7.2184e-37)
(1.16721e-20 4.26359e-19 -5.21058e-37)
(-7.04242e-19 2.15032e-18 1.60808e-35)
(8.2739e-22 1.1557e-21 -1.72662e-37)
(7.51852e-19 7.83563e-19 -6.19444e-38)
(1.98848e-19 8.44391e-19 4.64065e-38)
(1.92313e-21 6.57493e-21 -3.08081e-37)
(7.68402e-19 4.12646e-19 1.54645e-37)
(2.17228e-20 3.14569e-20 0)
(2.05003e-20 1.72313e-20 2.81905e-37)
(-9.84432e-21 2.94801e-21 1.57196e-37)
(8.12224e-21 -8.1522e-21 0)
(-3.26929e-21 3.73881e-21 1.80622e-37)
(1.21684e-19 -4.47531e-20 0)
(7.14274e-22 -3.28524e-20 -4.5348e-38)
(-4.44425e-20 -6.16783e-20 -1.80052e-38)
(-5.72837e-20 -7.49009e-20 1.33389e-37)
(-3.94066e-20 -7.60625e-21 -4.52581e-37)
(-7.05038e-20 -5.45583e-20 8.8292e-39)
(-4.67336e-20 -1.6309e-20 1.65515e-37)
(-1.75439e-20 -4.82161e-20 1.8853e-37)
(-5.96582e-20 -1.89171e-20 -1.84135e-37)
(-1.63405e-20 -1.23662e-19 -2.66323e-38)
(2.77712e-19 1.48179e-18 0)
(-6.04286e-18 -1.9906e-18 -8.42047e-37)
(2.63747e-19 1.72291e-18 7.11828e-37)
(4.50287e-22 4.89718e-21 0)
(5.61076e-21 -1.24195e-19 4.02274e-38)
(2.80753e-19 5.19169e-19 0)
(3.33403e-19 3.74662e-19 4.04697e-37)
(1.68141e-21 -1.06279e-21 1.26242e-37)
(3.95436e-21 -1.40779e-21 8.52653e-39)
(3.13787e-21 -2.28185e-21 4.43628e-39)
(8.27161e-22 -2.53346e-22 -2.09574e-37)
(-5.41585e-19 -1.93614e-18 0)
(-2.20338e-18 -5.06117e-18 1.90972e-36)
(-1.04364e-21 5.90267e-21 3.87761e-37)
)
;

boundaryField
{
    back
    {
        type            empty;
    }
    front
    {
        type            empty;
    }
    left
    {
        type            noSlip;
    }
    top
    {
        type            uniformFixedValue;
        uniformValue    
        {
            type            scale;
            scale           
            {
                type            squarePulse;
                start           0.3;
                duration        0.3;
            }
            xScale          
            {
                type            constant;
                value           1;
            }
            value           
            {
                type            constant;
                value           (0 -0.7 0);
            }
        }
        value           uniform (0 -0 0);
    }
    right
    {
        type            noSlip;
    }
    bottom
    {
        type            zeroGradient;
    }
}


// ************************************************************************* //
