/*--------------------------------*- C++ -*----------------------------------*\
  =========                 |
  \\      /  F ield         | OpenFOAM: The Open Source CFD Toolbox
   \\    /   O peration     | Website:  https://openfoam.org
    \\  /    A nd           | Version:  9
     \\/     M anipulation  |
\*---------------------------------------------------------------------------*/
FoamFile
{
    format      ascii;
    class       volScalarField;
    location    "0.74";
    object      p;
}
// * * * * * * * * * * * * * * * * * * * * * * * * * * * * * * * * * * * * * //

dimensions      [0 2 -2 0 0 0 0];

internalField   nonuniform List<scalar> 
90
(
-5.51309e-23
-8.22082e-22
-1.05502e-21
-2.06998e-21
-1.15895e-21
-1.50218e-22
-1.19504e-22
-4.91121e-23
-3.91931e-22
-2.45466e-23
-2.45927e-22
-4.33307e-22
-7.08304e-24
-1.27008e-21
-2.95384e-22
2.17911e-21
-3.75725e-21
1.39665e-23
-2.5291e-23
-6.72972e-22
-2.63405e-22
-5.27565e-22
-3.11848e-22
-8.78317e-22
-2.52401e-22
-6.29838e-22
5.75212e-23
-7.12137e-22
-9.66913e-22
1.72094e-23
-1.08304e-22
-7.48154e-22
-7.67433e-22
-5.76939e-22
-7.40351e-22
2.12936e-21
-2.83576e-22
-5.16387e-21
-9.01713e-22
-5.89189e-22
-3.95216e-22
-2.74909e-22
-1.03618e-21
-5.60191e-23
-1.54133e-23
-1.14281e-21
-4.64376e-22
5.84774e-22
-3.22879e-23
-1.5124e-21
-8.15082e-22
-7.83341e-22
-1.74325e-22
-1.05843e-21
-7.04294e-22
3.31649e-22
-3.09396e-23
-5.18708e-22
-1.28341e-23
-9.35205e-22
-4.19885e-22
-1.0755e-21
-1.25949e-21
-5.64867e-22
-1.22155e-22
-2.05138e-22
-1.17071e-21
-1.23793e-21
-4.40938e-21
-6.61541e-22
8.81333e-22
1.57016e-23
-1.01891e-21
7.90936e-22
2.23617e-21
-6.60426e-22
6.22473e-23
-9.65328e-22
-4.77875e-22
-2.89066e-23
-5.11301e-21
-3.68543e-23
-5.37765e-22
2.01497e-21
-5.1876e-22
-1.59518e-21
-3.30335e-23
-9.09562e-24
1.24473e-21
5.29487e-23
)
;

boundaryField
{
    back
    {
        type            empty;
    }
    front
    {
        type            empty;
    }
    bottom
    {
        type            zeroGradient;
    }
    outer_arc
    {
        type            zeroGradient;
    }
    right
    {
        type            uniformFixedValue;
        uniformValue    
        {
            type            scale;
            scale           
            {
                type            squarePulse;
                start           0.3;
                duration        0.3;
            }
            xScale          
            {
                type            constant;
                value           1;
            }
            value           
            {
                type            constant;
                value           15.1;
            }
        }
        value           uniform 0;
    }
    inner_arc
    {
        type            zeroGradient;
    }
}


// ************************************************************************* //
