/*--------------------------------*- C++ -*----------------------------------*\
  =========                 |
  \\      /  F ield         | OpenFOAM: The Open Source CFD Toolbox
   \\    /   O peration     | Website:  https://openfoam.org
    \\  /    A nd           | Version:  9
     \\/     M anipulation  |
\*---------------------------------------------------------------------------*/
FoamFile
{
    format      ascii;
    class       surfaceScalarField;
    location    "0.74";
    object      phi;
}
// * * * * * * * * * * * * * * * * * * * * * * * * * * * * * * * * * * * * * //

dimensions      [0 3 -1 0 0 0 0];

internalField   nonuniform List<scalar> 
122
(
-5.07716e-29
4.13798e-29
2.80645e-30
-1.65402e-30
4.16562e-29
-1.82233e-29
1.04917e-28
-6.24402e-29
2.80743e-29
6.25237e-29
8.04983e-30
4.47658e-29
-4.44556e-29
-1.46723e-28
9.77975e-29
3.42604e-29
4.81064e-29
-7.0665e-29
4.64156e-29
-6.24541e-29
-1.01025e-28
-4.8601e-29
-1.17393e-29
5.78113e-29
4.03354e-29
-7.51472e-29
2.28679e-29
-5.75131e-29
9.42416e-29
1.49189e-28
-1.60814e-28
-6.83866e-29
-1.33464e-29
2.91284e-29
1.78337e-29
1.21019e-29
-3.82306e-29
-8.0945e-29
7.91257e-29
-4.84769e-29
4.23332e-29
4.43704e-29
-1.39203e-28
8.12792e-29
1.52887e-31
-2.01457e-30
-3.22777e-29
1.14562e-28
-4.7035e-29
9.85869e-29
-8.79198e-29
-9.35827e-29
1.95405e-29
-5.59874e-29
-1.0989e-28
9.97308e-29
-1.03027e-28
5.66977e-29
1.08955e-29
5.90474e-29
8.36034e-29
3.12193e-29
1.36661e-28
-1.32152e-29
3.4881e-29
4.72988e-29
9.00902e-29
-2.11022e-29
2.05229e-29
8.11138e-30
-5.42876e-29
6.12343e-29
7.3375e-29
1.01958e-28
-1.00311e-28
9.5267e-29
8.02806e-29
8.83767e-29
-1.66985e-29
-1.24626e-29
-3.94251e-31
-1.6099e-29
-6.19288e-30
-5.53914e-29
-7.53835e-29
-4.56887e-29
-5.08923e-30
1.85541e-30
4.00352e-31
1.07678e-28
-1.29943e-28
-7.6951e-30
-2.79927e-31
-7.73626e-29
6.19056e-29
4.96878e-29
-4.65436e-30
1.2819e-28
-5.06909e-29
3.03381e-29
-6.74415e-29
-1.57133e-29
4.11504e-29
-9.83496e-29
4.40487e-29
-1.17644e-29
1.26768e-29
3.1724e-30
3.22781e-29
-2.85822e-29
-2.74383e-29
-4.02523e-30
-7.37456e-29
-3.82062e-29
5.80133e-29
1.83314e-29
1.00896e-28
-4.18733e-29
3.81447e-29
1.35654e-28
-4.39699e-29
2.4866e-29
)
;

boundaryField
{
    back
    {
        type            empty;
        value           nonuniform List<scalar> 0();
    }
    front
    {
        type            empty;
        value           nonuniform List<scalar> 0();
    }
    bottom
    {
        type            calculated;
        value           uniform 0;
    }
    outer_arc
    {
        type            calculated;
        value           uniform 0;
    }
    right
    {
        type            calculated;
        value           nonuniform List<scalar> 4(-6.23984e-29 -1.67448e-28 -1.57342e-28 -1.10765e-28);
    }
    inner_arc
    {
        type            calculated;
        value           uniform 0;
    }
}


// ************************************************************************* //
