/*--------------------------------*- C++ -*----------------------------------*\
  =========                 |
  \\      /  F ield         | OpenFOAM: The Open Source CFD Toolbox
   \\    /   O peration     | Website:  https://openfoam.org
    \\  /    A nd           | Version:  9
     \\/     M anipulation  |
\*---------------------------------------------------------------------------*/
FoamFile
{
    format      ascii;
    class       volVectorField;
    location    "0.74";
    object      U;
}
// * * * * * * * * * * * * * * * * * * * * * * * * * * * * * * * * * * * * * //

dimensions      [0 1 -1 0 0 0 0];

internalField   nonuniform List<vector> 
90
(
(-1.98224e-21 -9.27668e-23 8.82974e-39)
(1.82112e-22 9.89929e-23 -4.59225e-38)
(6.23918e-22 -4.08235e-21 -8.16842e-38)
(-1.93869e-21 -3.15411e-21 8.08969e-38)
(5.93912e-23 -8.20005e-22 1.60281e-37)
(-1.98424e-22 -1.86808e-22 3.64842e-38)
(-1.44745e-21 -3.40944e-23 -1.0845e-38)
(-3.40395e-21 -1.10266e-21 -1.16849e-38)
(-9.57244e-22 -1.43259e-21 0)
(-4.00901e-21 -7.12049e-22 0)
(-1.88406e-21 -3.6985e-22 -1.36548e-38)
(-1.68861e-22 -8.9785e-22 4.07946e-38)
(-6.28126e-22 -4.18955e-22 -8.84795e-41)
(-1.63854e-21 1.10774e-21 -2.37833e-38)
(-2.09494e-21 -2.67171e-21 0)
(-2.05051e-21 -1.73054e-21 0)
(9.94043e-23 -3.91912e-21 -2.34367e-37)
(3.10287e-21 1.47851e-22 -9.5763e-39)
(6.41944e-22 -4.34397e-22 0)
(-1.01407e-22 -6.45209e-22 -4.90494e-38)
(-1.57878e-21 -7.88938e-22 -1.03066e-38)
(-1.19231e-21 -6.35194e-22 -2.08879e-38)
(-3.39546e-21 -1.52159e-21 -2.42393e-38)
(-3.33049e-22 -2.90209e-23 4.83913e-38)
(-3.38147e-21 -7.90106e-22 1.40464e-38)
(-2.22419e-21 -1.70127e-21 2.12222e-38)
(-2.32691e-21 -6.03133e-22 5.04666e-39)
(-1.58247e-21 -1.61203e-21 -1.08722e-38)
(2.12089e-21 -2.1611e-21 0)
(-2.47601e-21 -7.75654e-22 2.74731e-39)
(-3.18064e-21 -1.31565e-21 -3.55332e-39)
(-8.30824e-22 -6.72037e-22 -4.53312e-38)
(-2.03796e-21 -1.12504e-21 -1.73508e-38)
(-3.27928e-21 -1.33939e-21 4.95421e-38)
(-2.88448e-21 -1.486e-21 -1.38829e-38)
(-2.04768e-21 -2.45622e-21 -5.05028e-38)
(3.8163e-22 -9.87492e-22 0)
(1.26912e-21 -3.03793e-21 0)
(-1.22032e-21 -9.35538e-22 1.96288e-38)
(-5.01306e-22 -4.05795e-22 -5.73933e-39)
(-6.63693e-22 -8.73347e-22 2.67463e-38)
(-8.15212e-22 -1.41782e-21 3.0368e-38)
(-4.56991e-21 -1.21126e-21 -6.34298e-39)
(-3.45345e-21 -2.30696e-22 8.43018e-40)
(-4.45953e-21 -4.8059e-22 1.19576e-39)
(-6.97764e-22 -5.80033e-22 4.04607e-38)
(4.44738e-23 -5.77924e-22 -2.34477e-38)
(-2.59787e-21 -1.15538e-21 1.12437e-38)
(-9.85191e-22 -8.77103e-22 4.85796e-39)
(-1.26253e-21 1.43473e-21 8.85776e-39)
(-1.15702e-22 -1.23611e-23 0)
(-4.86931e-23 8.08397e-23 2.55169e-38)
(-4.92468e-21 -2.59349e-21 3.15084e-40)
(-2.36962e-21 -1.59045e-21 0)
(-6.16794e-23 -1.21961e-22 -5.1087e-38)
(-2.63046e-21 -2.128e-21 -1.88335e-40)
(-4.16824e-21 -2.55253e-22 -1.5931e-39)
(-5.46672e-22 -6.02193e-22 0)
(-3.92599e-21 -6.01372e-22 0)
(-1.31988e-21 -1.07168e-21 5.23262e-38)
(-1.72648e-22 -1.812e-21 -1.7843e-38)
(-1.60729e-21 -2.05783e-21 0)
(-8.61346e-22 -7.96431e-22 5.88592e-38)
(-2.41824e-21 -1.28133e-21 6.06295e-39)
(-1.89805e-21 -1.32398e-21 1.32436e-39)
(2.05934e-21 -1.91628e-21 -1.03016e-38)
(3.91541e-23 -1.28883e-21 0)
(-3.74797e-22 -2.18282e-22 0)
(2.0669e-21 -3.78637e-22 1.88685e-38)
(-2.93727e-23 1.05388e-21 2.58618e-38)
(-2.07976e-21 -1.33177e-21 0)
(-3.74656e-21 -5.95647e-22 1.11552e-39)
(-3.66662e-21 -1.03014e-21 0)
(-1.95049e-21 -1.0864e-21 6.38706e-38)
(3.97989e-21 -1.08584e-21 -2.61112e-38)
(1.68724e-22 -1.29975e-22 2.28012e-38)
(-1.09186e-21 -1.37091e-22 -3.20068e-40)
(-3.33034e-21 -1.55324e-21 0)
(-3.09013e-21 -1.06287e-21 -3.54411e-38)
(-2.75893e-21 -3.05904e-22 7.49897e-40)
(1.37669e-21 -7.58145e-22 2.13019e-37)
(-4.4402e-21 -4.6885e-22 2.47664e-40)
(-1.96489e-23 -4.94638e-22 3.61375e-38)
(-2.51072e-22 -1.63703e-21 5.13047e-38)
(-3.56602e-21 -1.5146e-21 9.63736e-39)
(-7.48862e-22 -4.5667e-24 -4.73961e-38)
(-4.18298e-21 -6.85623e-22 -7.03601e-40)
(-3.4556e-21 -7.29105e-22 -2.79388e-40)
(-1.92535e-21 -1.58519e-21 -1.17826e-37)
(-2.33137e-21 -4.50754e-22 -1.0803e-39)
)
;

boundaryField
{
    back
    {
        type            empty;
    }
    front
    {
        type            empty;
    }
    bottom
    {
        type            uniformFixedValue;
        uniformValue    
        {
            type            scale;
            scale           
            {
                type            squarePulse;
                start           0.3;
                duration        0.3;
            }
            xScale          
            {
                type            constant;
                value           1;
            }
            value           
            {
                type            constant;
                value           (0 0.7 0);
            }
        }
        value           uniform (0 0 0);
    }
    outer_arc
    {
        type            noSlip;
    }
    right
    {
        type            zeroGradient;
    }
    inner_arc
    {
        type            noSlip;
    }
}


// ************************************************************************* //
