/*--------------------------------*- C++ -*----------------------------------*\
  =========                 |
  \\      /  F ield         | OpenFOAM: The Open Source CFD Toolbox
   \\    /   O peration     | Website:  https://openfoam.org
    \\  /    A nd           | Version:  9
     \\/     M anipulation  |
\*---------------------------------------------------------------------------*/
FoamFile
{
    format      ascii;
    class       volVectorField;
    location    "1.38";
    object      U;
}
// * * * * * * * * * * * * * * * * * * * * * * * * * * * * * * * * * * * * * //

dimensions      [0 1 -1 0 0 0 0];

internalField   nonuniform List<vector> 
942
(
(-0.0303697 -0.140571 0)
(0.0749573 0.00807547 3.31629e-17)
(0.0917023 0.158265 0)
(-0.0236953 -0.0903854 -1.75658e-17)
(0.0901154 0.168412 1.04761e-17)
(0.0319388 -0.0254948 1.85781e-17)
(-0.0146864 0.033952 4.87512e-17)
(0.0526761 -0.035703 0)
(0.0359356 -0.0606962 -3.84332e-17)
(0.0267673 -0.0608972 3.92145e-17)
(0.041002 0.0281733 0)
(0.107539 -0.0370976 0)
(-0.0134785 -0.0855631 1.63909e-17)
(0.0444551 0.0340402 0)
(0.128643 -0.0405259 0)
(0.0425701 0.00587074 -3.60618e-17)
(0.00784366 0.00692057 -1.43037e-17)
(-0.0468571 -0.132272 0)
(-0.120677 -0.0353326 -4.24272e-18)
(-0.0265644 -0.00594019 6.53131e-18)
(0.0452318 0.0376401 2.42384e-17)
(0.121791 -0.0422921 1.94565e-17)
(-0.109411 0.124529 0)
(-0.0222957 -0.156172 -3.82133e-17)
(0.0573053 0.0362744 0)
(0.000224279 -0.0853708 2.89648e-17)
(0.0564158 0.128543 0)
(-0.0936911 0.0852893 2.43642e-17)
(-0.0528638 -0.0913252 0)
(-0.0772975 -0.0311945 1.55372e-17)
(0.0481173 0.00928979 1.95231e-17)
(0.0485801 0.122561 0)
(-0.0780336 -0.123528 1.82903e-17)
(-0.139834 0.022045 2.14495e-17)
(0.0583983 0.104008 -2.11814e-17)
(-0.141057 0.146345 4.01576e-17)
(0.0497159 -0.0885774 1.36518e-18)
(-0.0679912 -0.021045 0)
(0.0433498 -0.0954966 -6.97243e-19)
(-0.0534678 -0.159922 2.73453e-17)
(-0.103777 0.0431848 -3.84244e-17)
(0.13449 -0.0862765 0)
(-0.0634354 -0.168455 -1.88648e-17)
(-0.0155842 0.0426129 -1.62545e-17)
(-0.0293995 0.0463425 -4.10898e-17)
(-0.0956836 -0.0684962 9.27402e-18)
(-0.146269 -0.0316335 -1.87676e-17)
(-0.16406 0.0225686 -1.76878e-17)
(-0.171464 0.0728528 1.97457e-17)
(0.059759 0.0454764 2.3236e-17)
(-0.102499 -0.0321343 0)
(-0.126486 0.170201 0)
(-0.199109 0.18934 -2.69404e-17)
(-0.000162383 -0.170972 2.15666e-17)
(0.0195165 -0.0665016 0)
(-0.0542183 0.0331769 -1.45402e-17)
(-0.0377228 0.0055741 -3.66137e-17)
(0.0203313 -0.0733426 -2.62547e-18)
(-0.0408965 0.00833532 4.69049e-17)
(0.0547073 0.0136187 2.03719e-17)
(-0.08337 0.0577492 -1.9206e-17)
(0.0573337 0.114539 -4.9817e-17)
(-0.0748783 0.0140241 2.32564e-17)
(-0.0383431 -0.106991 -1.88748e-17)
(-0.0796713 -0.00143676 1.79222e-17)
(0.0628663 -0.00349217 1.38191e-17)
(0.049772 0.108745 3.89527e-17)
(-0.112205 -0.00809956 -1.77495e-17)
(-0.135075 0.0742955 1.82464e-17)
(0.0248755 -0.0596758 5.05012e-18)
(0.058161 0.00682855 0)
(0.0187963 -0.00362045 0)
(-0.0362036 0.00232979 -2.39549e-18)
(-0.0687306 -0.0700082 4.65328e-18)
(0.0017968 -0.164449 -2.04562e-17)
(-0.0239142 -0.00240172 8.65572e-23)
(-0.0208394 -0.00587194 2.40746e-18)
(0.0498972 0.0959472 2.15271e-17)
(0.0615519 0.0354285 -2.33601e-17)
(0.0756046 0.00301913 -4.72729e-18)
(-0.0361513 0.0320336 2.79734e-17)
(0.0137106 -0.0490872 -1.00842e-17)
(0.0343573 0.0192132 -2.54975e-18)
(0.0376538 -0.000585727 1.04108e-17)
(0.0176912 -0.000955792 0)
(0.0463026 0.152947 0)
(-0.0161651 0.0110362 -2.13628e-17)
(0.0467231 -0.00903469 5.86912e-18)
(0.0562906 0.0463724 0)
(0.0509741 0.0254152 2.91684e-17)
(0.134932 -0.0771058 -1.47323e-17)
(0.0200814 0.0314106 6.73537e-19)
(0.00433742 -0.075114 2.95711e-18)
(-0.00678556 0.0108134 0)
(-0.0154434 0.011416 -5.74173e-18)
(0.0626118 0.0223198 1.05651e-17)
(0.109495 -0.0794627 1.81249e-17)
(0.0290342 -0.013067 -1.7068e-17)
(0.00694181 -0.00903166 -2.53096e-17)
(-0.0655524 0.0476997 -3.59926e-17)
(0.00740534 -0.00265702 -1.08698e-17)
(-0.000875536 -0.0719735 1.22569e-17)
(-0.0970416 -0.0193548 0)
(0.0241879 -0.0262823 1.38847e-17)
(0.0535771 -0.0337784 -2.19408e-17)
(-0.0882006 0.101638 -3.51921e-17)
(-0.0793066 -0.054976 -1.24547e-17)
(-0.0946489 -0.090392 0)
(-0.160064 0.00310141 1.91465e-17)
(-0.153766 -0.0161665 0)
(-0.160335 0.1095 0)
(-0.173189 0.0948902 -1.92447e-17)
(-0.0409548 0.0085791 3.88675e-17)
(0.0217427 -0.0278325 0)
(0.0579901 0.0407218 0)
(0.00760109 0.00893994 2.62693e-18)
(0.0535064 0.0227903 -2.09142e-17)
(-0.0363726 -0.106879 2.21244e-17)
(-0.0509492 0.0800941 4.04581e-21)
(0.109151 -0.00898282 -2.53793e-18)
(-0.0931685 0.137253 8.36382e-18)
(-0.137905 0.118558 -2.15855e-17)
(-0.0242842 -0.133975 0)
(-0.0399446 0.00564121 1.92161e-17)
(-0.0320134 0.000989672 1.55676e-17)
(0.0596277 0.000170467 -4.13912e-17)
(-0.105627 0.131777 2.15753e-17)
(-0.0964957 -0.152938 -2.07442e-17)
(-0.122499 -0.154085 3.79251e-17)
(-0.153136 0.127128 1.96392e-17)
(-0.201595 -0.0891705 -1.01828e-17)
(-0.180692 -0.107999 -2.35945e-17)
(-0.225799 -0.0694457 0)
(-0.258957 0.0155629 0)
(-0.249855 -0.0128484 -2.11193e-17)
(-0.156131 -0.127006 -1.47553e-17)
(-0.239275 0.14744 1.27994e-18)
(-0.23892 -0.0433269 0)
(-0.253489 0.119231 2.62167e-17)
(-0.261609 0.0859445 -8.9747e-18)
(-0.256291 0.0493758 2.11123e-17)
(-0.138517 -0.145168 0)
(-0.00461786 0.0147942 -2.13933e-17)
(0.0745708 0.0417422 2.29766e-17)
(0.0248253 -0.0153217 -5.3816e-18)
(-0.0471383 -0.12858 -9.67841e-18)
(-0.00144278 -0.0126173 0)
(0.0193811 -0.0281345 -1.29151e-17)
(-0.0207844 0.013088 3.25331e-17)
(0.0529533 0.154185 0)
(0.0466548 -0.0255254 5.81802e-18)
(0.12087 -0.000975297 6.41359e-18)
(0.0492109 0.0732643 0)
(0.0279389 -0.0459593 1.20865e-17)
(0.0500275 0.0846173 -2.10727e-17)
(0.000268668 -0.0563272 0)
(0.0332675 -0.00501899 2.37667e-17)
(0.00689987 0.0435133 0)
(0.0789238 0.0241442 0)
(0.0423662 0.0143812 8.77414e-18)
(0.052576 -0.00245467 -3.07237e-17)
(-0.03329 -0.00477344 0)
(-0.0272809 -0.0783116 0)
(0.0281815 -0.00649615 1.08485e-17)
(0.0882828 0.00622441 0)
(0.0443634 0.0434392 -3.22026e-17)
(0.00618 -0.0242262 0)
(0.0481365 -0.0753821 0)
(-0.0633958 -0.0696665 1.8921e-17)
(-0.105623 -0.0183782 2.24617e-17)
(-0.112319 0.00885443 -1.87359e-17)
(-0.133213 0.0629867 -2.47788e-18)
(-0.126808 0.084727 -7.24874e-22)
(-0.0874697 0.0688992 1.20585e-17)
(0.0524819 0.17244 0)
(0.0317494 -0.121427 -2.34538e-17)
(0.0353331 0.0144209 -2.23634e-17)
(0.0276315 -0.120481 0)
(0.0483931 -0.020543 7.7699e-19)
(0.0429619 -0.13621 0)
(0.00606724 -0.0220159 -1.41938e-17)
(-0.0541259 -0.0785577 0)
(0.0301786 -0.0420386 -2.77981e-17)
(0.0351113 -0.137175 6.29177e-22)
(-0.0639418 -0.109037 -1.39225e-17)
(-0.00353438 -0.0494601 0)
(0.079532 0.0406694 -1.10988e-17)
(0.0910401 0.139263 2.20521e-17)
(0.0617041 0.156613 3.15137e-17)
(0.0500817 -0.150122 1.05385e-17)
(0.0836273 0.126608 4.25673e-17)
(0.0597159 -0.148359 -1.05624e-17)
(-0.0590516 -0.00315255 -1.34712e-17)
(0.0597715 0.0445058 -2.03954e-17)
(0.0906083 0.126714 1.11668e-17)
(-0.00744477 -0.095015 -1.00985e-17)
(0.0904469 0.118039 0)
(-0.0627892 -0.0500743 3.60377e-17)
(-0.12471 0.0383103 -2.59167e-17)
(-0.0116775 -0.159575 1.94204e-17)
(-0.0267755 0.0386921 0)
(-0.00718041 -0.107478 1.02496e-17)
(0.086543 0.104873 0)
(-0.0051856 -0.0241787 -2.39377e-17)
(-0.032259 0.00704972 2.26791e-17)
(-0.0414405 0.0299032 0)
(-0.0547009 0.0289464 2.24892e-17)
(0.0889073 0.148438 -4.87294e-17)
(-0.0304332 -0.208017 -1.87712e-17)
(-0.0194486 -0.184477 1.86301e-17)
(0.0910319 0.131003 -1.08386e-17)
(0.00616012 -0.111524 3.7006e-23)
(0.0344182 -0.0798189 1.73852e-17)
(0.0671674 0.125285 1.03694e-17)
(0.0818452 0.0831201 0)
(0.00682106 -0.154408 -1.06287e-21)
(0.0665405 0.163862 -2.58619e-17)
(0.0882752 0.101888 2.17981e-17)
(0.0909055 0.123592 2.15037e-17)
(0.090035 0.112563 6.53189e-22)
(0.0209681 -0.166761 0)
(-0.00816525 -0.154276 -2.07562e-17)
(0.0688469 -0.160123 0)
(0.00224276 -0.134287 0)
(-0.00656225 0.048346 -2.17294e-17)
(0.0152094 0.0460468 2.16784e-17)
(0.0722815 0.123793 -1.52762e-17)
(0.0427402 -0.166898 -2.12528e-17)
(-0.0525902 0.0788042 3.17282e-17)
(0.0834114 0.0945526 0)
(0.0113344 -0.0249283 -1.99714e-17)
(0.0868269 0.146666 -3.81418e-17)
(0.012412 0.0248788 2.10237e-17)
(-0.0192102 0.059114 -1.14365e-17)
(0.0214561 -0.162036 -1.07112e-17)
(0.016548 -0.103881 -3.62339e-22)
(0.0838347 0.102836 -2.26149e-17)
(0.0388806 -0.17235 2.13576e-17)
(0.077843 0.0782373 -2.05814e-17)
(0.0912373 0.118355 2.12952e-17)
(0.0906608 0.109966 0)
(0.0425209 -0.0678544 -5.24065e-18)
(0.0703866 -0.171043 1.05233e-17)
(0.0259672 -0.0976506 -1.19668e-17)
(0.0381461 -0.111938 -2.1153e-17)
(0.0862196 0.0965433 -2.13536e-17)
(0.0624357 -0.159288 1.05962e-17)
(0.0116587 -0.146133 -1.15245e-17)
(0.0606264 -0.169795 -2.12563e-17)
(0.0833656 0.0937936 5.26291e-18)
(0.0795243 0.129622 -5.37781e-18)
(0.00327324 0.0125176 -1.9856e-17)
(0.0809603 0.120477 0)
(0.0798346 0.0762391 1.58774e-17)
(0.0581514 -0.123916 2.09888e-17)
(0.0109263 -0.123851 2.33835e-17)
(0.0638759 -0.17032 0)
(0.0779782 -0.156723 0)
(0.0985566 0.106332 -1.0649e-17)
(0.0265862 -0.0868736 1.19205e-17)
(0.00542391 -0.163762 -1.04787e-17)
(0.0970571 0.0994679 1.04748e-17)
(0.068567 0.115095 -2.62866e-17)
(0.0728821 -0.137815 -5.54188e-18)
(0.0454947 -0.141845 1.1029e-17)
(0.0390621 -0.061897 0)
(0.0427281 -0.101981 0)
(0.0955068 -0.156926 0)
(0.049818 0.0266002 2.02215e-17)
(0.0816121 -0.162597 1.07128e-17)
(0.0822802 -0.147323 2.02707e-17)
(0.0761099 0.151022 -1.95759e-17)
(-0.03016 0.0357416 2.31979e-17)
(0.0708195 0.134095 -1.03286e-17)
(0.089249 0.138985 2.16559e-17)
(0.087792 0.0924548 -2.17042e-17)
(-0.0725809 -0.109677 0)
(0.107359 -0.110633 0)
(0.0885756 0.128646 -1.06937e-17)
(-0.161664 0.18792 -2.18566e-17)
(0.0580717 -0.120149 0)
(-0.106615 0.104872 -1.80474e-18)
(-0.127519 0.145698 2.22986e-17)
(0.11709 -0.127648 0)
(0.112604 0.0817077 4.20093e-17)
(0.124209 0.025855 -2.08983e-17)
(0.103792 -0.135438 3.15242e-17)
(0.112185 -0.151507 2.09148e-17)
(0.0729844 -0.127382 5.4298e-18)
(0.0896855 -0.140095 5.39527e-18)
(0.10896 0.0838598 -2.13034e-17)
(0.0309855 0.00553117 2.52338e-17)
(0.0807082 0.0807838 -9.71339e-18)
(0.100292 -0.100783 2.36349e-17)
(0.0785944 -0.0788476 5.99596e-18)
(0.0343579 0.0264292 -1.9382e-17)
(0.131227 0.0135126 0)
(0.143366 0.0217615 1.08307e-17)
(0.153242 0.00710345 1.00745e-17)
(0.137846 0.0343965 0)
(0.132405 0.0551766 0)
(0.0993637 -0.121231 -1.07833e-17)
(0.177949 -0.0232102 -4.8621e-18)
(0.170237 -0.0477725 -3.37811e-17)
(0.119338 0.0562849 -3.36934e-17)
(0.0840151 -0.170391 1.04932e-17)
(0.162563 -0.0746994 -3.3476e-17)
(-0.0408686 0.0033797 0)
(-0.0338094 -0.00781978 -9.78711e-18)
(0.00300758 0.00140079 2.05518e-17)
(-0.0202708 0.0383989 1.65724e-17)
(-0.0279317 -0.0189185 -2.88967e-22)
(-0.0392295 0.0212664 -2.93478e-18)
(-0.0397059 -0.00279954 -2.04498e-17)
(0.140324 -0.116309 2.12233e-21)
(-0.0138809 -0.0157363 3.30512e-17)
(-0.0318583 0.0339705 -2.23822e-17)
(-0.0404241 0.00656814 2.2691e-22)
(-0.0350896 -0.0190287 -5.79973e-18)
(-0.0373407 0.0154938 0)
(-0.0273289 -0.0142444 -6.00414e-18)
(-0.00632593 -0.0165386 0)
(-0.0352318 0.0501789 2.34555e-17)
(-0.0378396 -0.00587877 -4.20459e-17)
(-0.0043689 0.00600012 -2.65984e-17)
(0.0968442 0.0895739 -2.15654e-17)
(-0.0230122 -0.0176339 0)
(0.12209 -0.125812 -1.08537e-17)
(0.158925 -0.107337 0)
(-0.0306989 0.0250953 0)
(0.0970833 0.068956 -4.21723e-17)
(0.102213 -0.135716 -1.85207e-17)
(0.144945 -0.114641 1.05412e-17)
(0.173477 -0.0305071 -1.90747e-17)
(0.123329 -0.0968578 0)
(0.103259 0.0681584 2.10951e-17)
(0.166616 -0.0558349 1.2052e-17)
(-0.000825319 0.00631766 -6.27166e-19)
(0.0433865 0.0342684 0)
(-0.216517 0.169913 -2.06269e-17)
(0.0817731 0.0456661 3.10782e-17)
(0.11497 0.03916 -2.11631e-17)
(0.160127 -0.0837138 -5.48387e-18)
(0.0901855 0.0554111 -5.27447e-17)
(0.16405 0.0350194 -2.14179e-17)
(0.0662995 0.051177 0)
(0.159211 0.0474028 2.17892e-17)
(0.155206 -0.117284 2.09976e-17)
(0.106594 -0.159021 2.0909e-17)
(0.170226 0.0217696 -1.05388e-17)
(0.080423 0.0530727 2.11387e-17)
(0.177144 0.00750336 3.90894e-22)
(0.138394 -0.127351 -5.34058e-17)
(0.186163 -0.00741849 -1.1066e-17)
(0.0210813 0.0261756 -1.8971e-17)
(0.107789 -0.0934301 0)
(0.155034 0.0586252 2.14294e-17)
(0.120607 -0.138773 0)
(0.15225 0.0688062 1.05085e-17)
(0.141168 0.0484011 2.11586e-17)
(0.191436 -0.0236508 2.69426e-17)
(0.145909 -0.0779722 0)
(0.12496 -0.0301404 -2.9798e-18)
(0.0991703 -0.148774 1.7866e-17)
(0.185945 -0.0490859 -2.13025e-17)
(0.148564 -0.0269023 1.11537e-17)
(0.123234 -0.0525745 -1.07535e-17)
(-0.136529 -0.0806548 4.83663e-17)
(0.178397 -0.0759261 3.17055e-17)
(0.105732 0.0315329 -5.51438e-18)
(0.0649865 -0.00519971 0)
(0.065647 0.0413829 2.09207e-17)
(-0.153979 -0.0643746 -1.05001e-17)
(0.170021 -0.105999 -2.03463e-17)
(0.123164 0.0664391 1.06383e-17)
(0.174801 0.0292226 1.05469e-17)
(0.131994 0.0652402 1.06553e-17)
(0.168978 0.042157 2.18434e-17)
(0.112007 -0.157939 1.03167e-17)
(0.181957 0.0149256 1.05025e-17)
(-0.0468932 -0.114955 2.3726e-17)
(-0.0769585 0.114492 0)
(-0.184457 -0.00574208 2.10874e-17)
(-0.171319 0.109775 0)
(-0.119009 -0.0907084 5.26022e-18)
(0.188952 0.000203492 3.31696e-17)
(0.190394 -0.0410603 4.19835e-17)
(0.16296 -0.0429933 3.25088e-18)
(0.16341 0.0540534 -4.35424e-17)
(0.193516 -0.0157458 -4.43968e-17)
(-0.166742 -0.0482915 -1.07247e-17)
(-0.187556 0.0669935 -5.34424e-18)
(0.103433 -0.0770621 0)
(0.15653 -0.01238 2.17522e-17)
(-0.19325 0.0124184 5.6285e-18)
(0.145812 -0.0985824 0)
(0.154345 -0.0642888 2.08171e-17)
(-0.176993 -0.0291246 5.49382e-18)
(-0.101332 -0.106663 1.08877e-17)
(-0.182412 0.0888185 -1.36508e-18)
(-0.188713 0.0412087 -9.42589e-18)
(0.162391 -0.124209 -3.12336e-17)
(0.117714 -0.0271496 0)
(0.120476 -0.0609529 9.99138e-18)
(0.182172 -0.0672087 0)
(0.128051 0.0782037 0)
(-0.052978 0.0324557 0)
(0.158342 0.0642429 0)
(0.175854 -0.0977975 1.04421e-17)
(-0.13173 0.135886 3.1551e-17)
(-0.0895164 -0.112185 -2.27032e-17)
(0.176293 -0.0334339 1.05439e-17)
(0.166308 -0.0853952 0)
(0.195697 -0.0322461 3.15904e-17)
(0.194221 -0.0583487 0)
(0.123332 -0.15464 -1.05267e-17)
(0.130834 -0.147531 1.05414e-17)
(0.169973 -0.10237 1.04264e-17)
(0.130098 0.0884486 2.1085e-17)
(0.173374 -0.1111 1.04206e-17)
(0.138274 -0.0807734 2.1959e-17)
(0.187667 -0.0862896 -4.2012e-17)
(0.119794 -0.0806478 0)
(0.150504 -0.12735 -1.03944e-17)
(0.190024 -0.0659579 2.09944e-17)
(0.193886 -0.0401659 -2.10295e-17)
(0.134235 0.0749493 0)
(0.0967505 0.034356 2.21218e-17)
(0.186425 -0.0215803 2.11927e-17)
(0.118722 -0.00916486 -3.93421e-17)
(0.0740863 -0.0150217 0)
(0.191999 -0.0143621 2.1173e-17)
(0.142917 -0.0215227 0)
(0.129394 0.052072 0)
(-0.115533 0.114316 0)
(0.156443 -0.0963472 0)
(0.189116 0.0148921 3.15322e-17)
(0.157044 -0.112737 0)
(0.181361 -0.0938187 1.05348e-17)
(0.164523 -0.0175831 -2.2208e-17)
(0.165024 -0.117227 1.03976e-17)
(0.156103 -0.0577677 -1.92782e-17)
(0.178544 0.0415921 -2.11417e-17)
(0.172058 -0.00607142 0)
(0.123982 -0.151134 -2.09504e-17)
(0.18778 -0.028485 -3.15951e-17)
(0.153481 0.0729377 0)
(0.146389 0.0684351 0)
(0.178076 -0.0959519 0)
(0.147553 -0.136202 2.09149e-17)
(0.164974 0.0629178 9.80223e-22)
(0.115699 0.053073 -8.02591e-22)
(0.103846 0.0409587 -2.18516e-17)
(0.154306 -0.130568 0)
(0.156511 0.0703894 0)
(0.134471 0.0846854 0)
(0.149109 0.0780042 0)
(0.119978 0.00881037 0)
(0.140058 -0.143093 -1.04795e-17)
(0.132328 0.058972 -2.14735e-17)
(0.191753 8.13478e-05 3.16274e-17)
(0.184293 0.0287305 -1.0543e-17)
(0.00757264 -0.0133924 2.14323e-17)
(0.15722 0.0635759 -1.05004e-17)
(0.115111 0.0965391 1.07068e-17)
(0.145206 0.0562535 -1.05461e-17)
(0.123987 -0.11525 0)
(0.189721 -0.0073191 -2.11545e-17)
(0.189643 0.00664156 -4.19775e-17)
(0.125831 0.0837806 0)
(0.186533 0.0206362 -2.10261e-17)
(0.171605 0.0308972 -2.13876e-17)
(0.18103 0.0336997 0)
(0.192853 -0.046021 0)
(0.131768 0.0915168 1.01856e-21)
(0.0852746 0.0795114 9.639e-18)
(0.185233 -0.079208 0)
(0.156018 0.050268 -3.16096e-17)
(0.190381 -0.0529274 0)
(0.118192 0.0923576 0)
(0.0916297 -0.166684 -2.07992e-17)
(0.12851 0.0955761 -2.10762e-17)
(0.172038 0.0531656 0)
(0.135212 0.0888306 -2.10542e-17)
(0.191139 -0.0724866 -1.05001e-17)
(0.143797 0.0850599 2.10302e-17)
(0.179246 -0.0409697 -2.15684e-17)
(0.174131 0.0456619 2.11217e-17)
(0.173175 -0.0788838 0)
(0.123128 0.0877164 -1.05329e-17)
(0.0994205 0.0632696 -3.73377e-17)
(0.145557 0.0748767 0)
(0.116689 0.0738536 0)
(0.166219 0.0557887 3.15268e-17)
(0.1041 -0.164342 -2.04469e-17)
(0.101159 0.0979679 0)
(0.137928 0.0839351 2.10517e-17)
(0.0845345 0.0939132 4.44867e-17)
(0.146992 0.0799554 -2.10228e-17)
(0.139102 -0.140314 0)
(0.117797 0.0589005 4.48776e-17)
(0.125221 0.0946065 1.05176e-17)
(0.138599 -0.129534 0)
(0.111757 0.10188 2.10687e-17)
(0.125927 0.0333185 -1.1581e-17)
(0.102265 0.109701 0)
(0.16483 0.0411413 0)
(0.135134 0.0168259 0)
(0.0969987 0.0903893 1.85794e-17)
(0.134775 0.010152 -1.01996e-17)
(0.175664 -0.0627912 -2.56229e-17)
(0.121955 0.0983943 0)
(0.0996791 0.0878924 1.08436e-17)
(0.117774 0.100221 -2.10582e-17)
(0.096113 0.0664134 3.56318e-17)
(0.127257 -0.141836 0)
(0.0902043 0.0747042 -9.16785e-18)
(0.110425 0.0950979 0)
(0.164773 0.0220855 0)
(0.081376 0.0792183 0)
(0.160731 -0.0479782 0)
(0.151127 0.0415508 1.0587e-17)
(0.175411 0.0191279 0)
(0.114171 0.0926723 0)
(0.16581 0.0107119 -1.06359e-17)
(0.163128 -0.00126761 -1.04564e-17)
(0.132268 0.0758646 0)
(0.105268 0.107091 0)
(0.133126 0.0701936 0)
(0.17529 0.00658333 4.20061e-17)
(0.159474 0.0324103 3.19713e-17)
(0.116869 0.0695008 0)
(0.178241 -0.055553 1.81232e-17)
(0.090894 0.123353 -2.12841e-17)
(0.114913 0.103916 2.10641e-17)
(0.0984802 0.109147 -2.11239e-17)
(0.0600346 0.0578104 -3.03436e-23)
(0.0944014 0.0726823 0)
(0.0880251 -0.162566 0)
(0.0737592 0.114231 2.04671e-17)
(-0.0157964 -0.12184 0)
(0.110162 0.0806987 0)
(0.0993853 0.086747 -1.87769e-17)
(0.0872841 -0.127084 -2.66044e-17)
(0.0830211 0.0847686 0)
(0.0791618 0.0842906 -2.10942e-17)
(0.108293 0.0835595 0)
(0.10615 0.100676 -2.10888e-17)
(0.0843965 0.0924507 -1.05697e-17)
(0.0863704 0.0986503 4.22863e-17)
(0.103945 0.104699 0)
(0.108246 0.104482 -2.10521e-17)
(0.0926125 0.117618 1.06113e-17)
(0.0946316 0.0982836 0)
(0.0823899 0.135717 2.6577e-17)
(0.0942705 0.102936 -1.05695e-17)
(0.0930274 0.115145 -2.11929e-17)
(0.0979508 0.0497013 -1.97926e-17)
(0.0780759 0.139518 -1.06968e-17)
(0.0968854 0.0546689 0)
(0.0948279 0.108099 -2.13127e-17)
(0.0496337 -0.169014 0)
(-0.0144077 -0.155096 3.12551e-17)
(0.0968706 0.112914 3.17218e-17)
(0.0850279 0.118133 2.12448e-17)
(0.0530399 0.0486478 4.27191e-17)
(0.0653566 0.0664373 -1.12793e-17)
(0.0215604 0.0134028 -2.16247e-17)
(0.0824216 0.111646 0)
(0.0329875 -0.0894699 0)
(0.0899641 0.121423 -2.1263e-17)
(0.081326 0.145942 4.42162e-17)
(0.0681521 0.0723807 0)
(0.0933071 0.109513 -3.17359e-17)
(0.0214947 -0.143231 -6.59782e-22)
(0.0899974 0.130397 1.07131e-17)
(0.0865847 0.110031 0)
(0.0921492 0.114839 1.07688e-17)
(0.0747406 0.104811 -3.19943e-17)
(0.0585613 0.0925877 0)
(-0.0310723 -0.135012 2.41605e-17)
(0.0910578 0.183054 -4.56342e-17)
(0.00140929 -0.066989 0)
(0.0953068 0.112382 0)
(0.0453501 -0.162126 -2.10921e-17)
(0.0319268 -0.158804 0)
(0.069705 0.105214 2.13045e-17)
(0.0955466 0.153738 6.14614e-19)
(0.0245115 -0.102877 -2.32003e-17)
(0.0877199 0.137024 -2.15254e-17)
(0.0736536 -0.0527912 -1.74238e-17)
(0.031576 -0.149245 2.12109e-17)
(-0.00374633 -0.0730708 0)
(0.0843959 0.0865661 0)
(0.0539645 -0.0143575 7.35652e-17)
(-0.0145499 -0.0585795 -4.74822e-17)
(0.0138078 -0.107402 -4.67678e-17)
(0.00587424 0.00550901 0)
(0.0798667 0.193182 2.26853e-17)
(0.0188721 -0.12392 -3.31566e-17)
(0.024793 -0.131489 3.33507e-17)
(-0.025114 -0.0334517 0)
(-0.0161344 -0.147815 -2.34619e-17)
(0.0625329 0.200663 -7.01413e-17)
(0.015244 -0.0375917 -2.22333e-17)
(0.0392576 0.0380674 4.0742e-23)
(0.0916275 0.169641 1.97342e-17)
(0.0246021 -0.113331 -2.27855e-17)
(0.0249408 0.0100989 1.10612e-17)
(0.091377 0.133023 0)
(0.0643347 0.054157 -2.51958e-17)
(0.0823053 0.182148 5.1279e-17)
(0.0696449 0.0552666 -2.46544e-17)
(0.0326028 -0.0489942 5.95247e-22)
(0.025176 -0.0145821 3.47917e-17)
(0.104113 -0.00496284 -9.09351e-22)
(0.115043 -0.0163092 4.17412e-17)
(0.115572 0.00289774 1.5167e-17)
(0.00604809 -0.149404 0)
(-0.0389082 -0.0539682 2.38262e-17)
(-0.00333631 -0.122079 0)
(0.0689257 0.0219189 -1.40217e-17)
(0.0675525 0.185336 -7.35406e-19)
(0.0157373 0.00368882 0)
(0.0633371 0.176851 6.76395e-19)
(0.0866993 0.157893 2.36328e-17)
(0.00371497 -0.224281 -2.72467e-17)
(-0.0489808 0.00293997 -6.705e-18)
(-0.0880005 -0.0494065 5.64976e-18)
(-0.0405859 0.0103434 3.29074e-17)
(0.060671 0.0180914 2.47125e-17)
(0.0762345 0.0374456 -2.62226e-17)
(-0.166149 0.0452941 2.0296e-17)
(0.0248575 -0.134794 0)
(0.0359326 -0.0112596 1.23688e-17)
(0.0832951 0.0121572 0)
(0.0324465 -0.0640249 1.97042e-17)
(0.0269719 -0.100813 0)
(-0.101455 -0.112392 -4.67797e-17)
(0.00658689 0.0167253 -2.55413e-17)
(0.130231 0.000202583 -2.0656e-17)
(-0.0278533 0.0403047 -1.77785e-17)
(0.100993 -0.0276903 0)
(-0.025705 0.0197702 1.1693e-18)
(0.0193076 0.0100581 0)
(0.0941242 -0.0364933 -3.67266e-17)
(0.0384011 -0.00452534 -1.74686e-17)
(0.0485192 -0.0179179 -6.12815e-18)
(-0.0275158 0.0416482 4.51803e-17)
(0.0182689 -0.0422231 0)
(0.0256896 -0.0974796 1.94633e-17)
(0.0516548 0.0476712 0)
(0.0424091 -0.020341 -3.33825e-17)
(0.00498884 -0.0652732 -2.52826e-17)
(0.081059 0.0333114 2.35118e-17)
(0.120491 0.0174618 0)
(0.117378 0.0256101 -6.10228e-18)
(0.0655426 0.136677 0)
(-0.0737598 -0.0767722 2.3151e-17)
(-0.047739 -0.0756106 7.45691e-19)
(0.0178072 -0.0509695 4.98984e-17)
(0.0277772 -0.155931 0)
(-0.0103711 -0.071078 2.17019e-17)
(-0.0210778 -0.0680228 2.31688e-17)
(-0.00266284 -0.0755742 1.22427e-17)
(0.00744804 -0.0440654 3.47689e-22)
(-0.000672307 0.017126 -3.23818e-17)
(0.079432 0.157968 0)
(0.0911543 -0.0850078 0)
(0.0283871 0.0962663 -1.17666e-17)
(0.0572262 0.0317503 2.41502e-17)
(0.0276483 0.0799183 0)
(-0.00903972 0.0676822 1.15705e-17)
(0.027893 0.0656003 -1.96372e-17)
(-0.0198714 0.0709025 0)
(0.00449715 -0.0882633 0)
(0.016444 0.0599474 -5.70256e-22)
(0.0161206 0.0372926 2.04115e-17)
(-0.0155107 0.0555176 1.13033e-17)
(0.0243176 -0.0851126 -1.1896e-17)
(0.143925 -0.0508842 0)
(0.0753728 0.0948717 2.31371e-17)
(0.0824074 -0.10615 -1.18452e-17)
(-0.00282759 -0.0080407 -1.16441e-17)
(-0.0155909 -0.0118558 0)
(-0.0235061 -0.0169216 0)
(-0.0324606 -0.00848319 1.0413e-17)
(0.0191852 0.0231912 -2.23861e-17)
(-0.0165217 -0.0216702 0)
(-0.0197602 -0.0139951 1.95002e-17)
(-0.0409561 0.024045 0)
(0.000372959 -0.00480366 1.15216e-17)
(-0.0341478 0.0401377 -2.2208e-17)
(-0.0292741 -0.0177148 2.97196e-18)
(-0.0341881 -0.0168912 1.78524e-17)
(0.01442 0.0116458 -2.37068e-17)
(0.00709713 0.00180503 -2.39475e-17)
(-0.0357266 0.042713 0)
(-0.015209 -0.0135736 2.18121e-17)
(-0.0197733 -0.0191112 0)
(-0.0300207 -0.0184335 -2.807e-18)
(-0.0351949 -0.0132663 0)
(-0.00218296 -0.0107984 0)
(-0.00980216 -0.0176346 -1.15775e-17)
(-0.0346127 0.0231152 -1.33282e-22)
(-0.0306652 0.039043 0)
(-0.0241669 -0.0186389 -1.83885e-17)
(0.131978 -0.00629501 -1.23858e-17)
(0.0828599 0.0609783 -2.27607e-17)
(-0.0319963 0.0213754 0)
(0.00227243 -0.0563631 -3.98484e-22)
(0.0754338 0.0851294 -3.71014e-17)
(-0.023332 -0.0134991 -2.70695e-17)
(-0.0654077 -0.0515266 0)
(-0.0362727 0.0278914 -4.51923e-17)
(0.0701641 0.0950634 -1.1298e-17)
(0.0681777 0.146005 0)
(0.0824859 0.0504996 2.30114e-17)
(-0.0280946 -0.118919 -1.28869e-17)
(0.0582223 0.0814419 2.57526e-17)
(-0.0360812 0.0241126 2.28976e-17)
(0.0632872 0.0526203 1.23479e-17)
(0.0870932 0.0728759 3.59789e-17)
(-0.128659 -0.0680286 1.28419e-17)
(0.0971901 -0.0631906 0)
(-0.0408876 0.0211934 -4.50395e-17)
(-0.0401186 0.0168938 -5.50779e-18)
(0.0351035 -0.0424125 3.4573e-17)
(-0.00630075 -0.0676447 -2.41092e-17)
(0.146251 -0.0277787 -3.88664e-17)
(-0.0936847 -0.039501 1.91024e-17)
(0.0923303 0.14795 -3.13187e-17)
(-0.0484395 -0.0880408 6.10426e-18)
(0.1219 0.0368094 2.34047e-17)
(0.120279 0.0464552 -3.51733e-17)
(0.0921992 0.0404595 4.89488e-17)
(-0.119101 0.103036 0)
(-0.0200505 -0.143502 -2.5032e-17)
(0.0236737 0.0408447 3.9478e-17)
(0.0302611 -0.0326536 -2.29977e-17)
(-0.0153969 -0.1178 1.35958e-17)
(-0.0163554 -0.0156712 -6.1344e-18)
(0.0144063 0.0762869 0)
(0.134249 0.0268633 -1.18109e-17)
(0.0649408 -0.126956 -2.4975e-17)
(0.0639717 -0.0732245 2.3221e-17)
(-0.0368291 -0.134983 1.50516e-17)
(0.010957 0.0182743 -2.55003e-17)
(0.0198118 -0.0791773 1.34845e-17)
(0.0849801 0.0118863 -1.89513e-17)
(0.0264232 -0.0754422 0)
(0.0567893 0.0532691 4.35507e-17)
(0.0710055 -0.0137894 -2.38904e-17)
(0.094975 -0.0113105 3.03114e-17)
(-0.0375962 0.0167448 2.87547e-17)
(0.165893 -0.0144964 6.02714e-18)
(0.149048 5.70848e-05 -1.28916e-17)
(-0.0466223 -0.0014771 -2.67753e-17)
(-0.0433901 -0.0022297 2.55021e-17)
(0.0601783 0.0585638 0)
(-0.00959223 -0.0149273 0)
(0.000694752 -0.0703168 -2.6538e-17)
(-0.0213938 0.00485788 -1.2958e-17)
(-0.0164839 -0.174807 -2.54838e-17)
(-0.00438007 -0.0759148 -1.82023e-22)
(0.0120467 -0.0179193 1.18321e-17)
(-0.0374597 0.0248614 -2.38167e-17)
(-0.00206304 -0.00630902 0)
(0.00669433 -0.242811 0)
(-0.0198477 0.0140392 4.34162e-17)
(0.00488285 0.093578 -4.27438e-17)
(-0.0328744 0.0292539 -1.20644e-17)
(0.0532521 0.0551985 1.4029e-17)
(-0.00494371 0.0393549 2.43856e-17)
(0.0446602 0.136448 2.78518e-17)
(0.0556415 0.0217348 0)
(0.0832953 0.0578076 0)
(0.0322194 0.0117796 -1.25285e-17)
(0.030081 0.165714 1.45469e-17)
(0.0766376 0.0682183 -1.13782e-17)
(-0.0255402 0.0713014 -1.86292e-17)
(0.0112997 -0.0261734 1.25035e-17)
(0.0277927 -0.00912016 -3.09716e-18)
(0.00716155 -0.00428003 -4.28042e-17)
(0.0787099 0.175873 -2.97863e-17)
(0.0513655 -0.0398392 7.24478e-18)
(0.0685991 0.0735851 3.0757e-17)
(-0.04493 0.013028 -1.89391e-22)
(0.117262 -0.0942606 2.14201e-17)
(-0.0439289 0.00205226 2.51717e-17)
(0.053014 0.0293745 -1.21345e-17)
(0.0535655 0.139699 -4.06486e-17)
(0.0294986 -0.0303803 2.6427e-17)
(-0.0509826 0.0159125 -1.24076e-17)
(-0.0417668 0.0144918 -2.48209e-17)
(0.0656 -0.0629795 2.15145e-17)
(0.0476581 0.0620307 -2.95079e-18)
(-0.0327287 0.0324476 6.0757e-18)
(0.0243928 0.0512475 5.44026e-18)
(-0.0453977 -0.0106094 0)
(-0.0363665 -0.016815 8.2891e-18)
(0.0825778 0.169569 1.32741e-17)
(-0.0570948 0.0336629 2.92799e-17)
(0.0745249 0.0696351 0)
(0.0160929 0.0035481 -5.1782e-18)
(0.14228 -0.0587201 2.93627e-17)
(0.088665 -0.0159746 1.64459e-17)
(0.0373392 -0.0365588 0)
(0.00423846 0.022267 -2.55973e-17)
(0.0759564 -0.0912767 1.34171e-17)
(-0.0479038 0.00429513 -3.42444e-18)
(0.0859362 0.105636 -1.77257e-18)
(0.0164159 0.0156643 6.56075e-18)
(0.0124877 0.000775998 2.8124e-17)
(0.00538873 -0.0998861 0)
(0.085698 -0.0320214 0)
(0.0619216 -0.054608 0)
(0.00486588 0.00143562 -1.45273e-17)
(0.0785176 0.0649819 0)
(0.0113327 0.00743273 2.40048e-17)
(0.0152482 -0.0926447 -1.3937e-17)
(0.0025647 -0.00917323 -1.43463e-17)
(0.015828 -0.0623735 0)
(0.117384 -0.0306362 -7.25455e-18)
(0.0368184 0.0254516 0)
(-0.0297751 0.00555829 8.17361e-19)
(-0.0221949 -0.244782 1.35306e-17)
(-0.0307394 0.0352065 2.01676e-17)
(-0.0441995 -0.0353228 0)
(-0.0107177 0.00101456 2.61966e-17)
(0.0550166 0.0218644 0)
(0.0351132 -0.020553 0)
(-0.0758431 -0.0842205 1.7406e-18)
(0.0778053 -0.00839863 -2.55264e-17)
(-0.0328305 0.0583108 -1.48676e-18)
(0.0190049 -0.0089919 0)
(-0.0259967 -0.0116184 5.03595e-17)
(0.0242965 -0.0996027 1.42056e-18)
(0.0277469 0.11641 -1.26377e-17)
(-0.0322901 0.0316995 0)
(0.0825309 0.0462459 -1.11861e-17)
(-0.0679988 0.00523556 -3.04773e-17)
(0.0346924 -0.0228092 2.80253e-17)
(0.0703218 0.0709443 1.33645e-17)
(-0.0447288 -0.00500553 1.23106e-17)
(0.09074 0.0739311 -1.3285e-17)
(-0.00341209 0.0561844 -2.68277e-17)
(0.108419 -0.0631998 -2.52994e-17)
(0.0317588 0.0166197 0)
(0.101359 -0.0472152 1.78761e-17)
(-0.0186189 -0.087915 6.16233e-18)
(0.146289 -0.0353701 2.38895e-17)
(0.0644035 0.148221 6.44937e-18)
(0.0775695 0.163436 0)
(0.0709818 -0.0366891 2.36332e-17)
(0.113995 -0.0577537 3.80458e-17)
(0.0652831 0.00507899 0)
(0.011796 -0.0851996 3.92186e-18)
(-0.0263253 0.0529377 -1.75674e-17)
(0.0467497 0.00417902 0)
(-0.0737094 -0.073144 -1.66146e-18)
(0.0575517 0.0342984 -2.40239e-17)
(0.0871755 0.0341971 -6.66783e-22)
(0.135601 0.0454279 1.50781e-21)
(0.0030124 -0.0996194 -6.34846e-18)
(0.0289886 -0.0327981 -2.87844e-17)
(0.037167 0.00361217 3.18935e-17)
(0.0804433 0.092626 5.64107e-17)
(0.0767757 0.0337104 -2.91508e-17)
(-0.04313 0.0201568 4.21892e-17)
(-0.0209305 0.0114668 6.06739e-18)
(0.00487106 0.0118331 1.4156e-17)
(0.0918473 0.134448 2.7828e-17)
(0.0667535 -0.0936533 0)
(0.0852822 -0.0499317 -3.92631e-17)
(0.0157347 -0.0240601 -2.46542e-17)
(0.0385112 0.0323806 6.83796e-18)
(0.0389576 -0.0354799 0)
(0.0862817 0.114302 -2.98908e-17)
(0.0586661 -0.0782197 -2.87726e-17)
(0.000702763 0.0171387 0)
(-0.0101129 0.0136078 1.57814e-17)
(-0.0486751 -0.110732 1.75885e-17)
(0.0408548 -0.122675 -1.44501e-17)
(0.077075 -0.0915631 1.75676e-18)
(0.02582 -0.0721768 0)
(-0.000335085 -0.0720161 -9.53582e-23)
(0.0700416 0.0847389 0)
(-0.0352192 0.035239 2.52757e-17)
(0.0498085 -0.080253 -3.58289e-18)
(-0.018669 -0.0301114 1.47532e-17)
(-0.0383413 -0.0340635 0)
(0.0172309 -0.209511 3.07279e-17)
(-0.0484111 0.0184244 2.91214e-17)
(0.0776481 -0.0633479 -7.25099e-18)
(-0.0212863 0.0119631 -2.37967e-17)
(-0.113338 0.108244 -4.89621e-17)
(0.0910632 0.137611 0)
(0.110872 -0.0162213 0)
(0.0534206 0.0593082 -3.03938e-17)
(0.0449727 0.0511172 3.94016e-17)
(0.119521 -0.0366745 1.24757e-17)
(0.174013 -0.005974 1.41922e-17)
(0.0559021 -0.0917697 1.02647e-17)
(0.0244629 -0.0337482 -1.56419e-17)
(0.0692172 0.170523 0)
(0.0562319 0.0698943 0)
(0.0483889 -0.0526566 0)
(-0.00715659 -0.13177 -1.03335e-18)
(-0.0452414 -0.00713401 1.62179e-17)
(0.0895546 0.0186619 7.69234e-18)
(0.052385 0.18871 4.04041e-17)
(0.0184983 -0.0737301 -1.06727e-23)
(0.0662802 -0.0095656 3.05646e-17)
(0.0861052 -0.0432664 7.64384e-18)
(0.02571 0.136556 -9.01887e-22)
(0.0385555 0.0355144 0)
(0.0319371 -0.0328053 -2.64716e-17)
(0.058068 0.031878 0)
(0.0648902 0.0538489 -2.69037e-17)
(0.0715606 0.0113762 0)