/*--------------------------------*- C++ -*----------------------------------*\
  =========                 |
  \\      /  F ield         | OpenFOAM: The Open Source CFD Toolbox
   \\    /   O peration     | Website:  https://openfoam.org
    \\  /    A nd           | Version:  9
     \\/     M anipulation  |
\*---------------------------------------------------------------------------*/
FoamFile
{
    format      ascii;
    class       surfaceScalarField;
    location    "0.5";
    object      phi;
}
// * * * * * * * * * * * * * * * * * * * * * * * * * * * * * * * * * * * * * //

dimensions      [0 3 -1 0 0 0 0];

internalField   nonuniform List<scalar> 
816
(
-1.36e-10
-1.35e-09
1.49e-09
-1.07e-10
-2.22e-09
2.33e-09
2.06e-09
-2.19e-09
2.74e-09
-2.75e-09
1.11e-11
1.52e-09
-1.52e-09
2.88e-09
5.11e-10
-3.39e-09
1.58e-09
-1.58e-09
-1.53e-09
1.53e-09
-2.7e-09
-2e-10
2.9e-09
-1.16e-09
1.05e-09
4.23e-09
-1.35e-09
3.42e-09
-2.42e-09
-1e-09
6.13e-10
2.31e-09
-2.93e-09
3.3e-09
-2.97e-09
-3.35e-10
3.31e-09
-2.79e-09
-5.15e-10
-2.25e-09
3.75e-09
-1.49e-09
9.62e-10
1.02e-09
-1.98e-09
-3.2e-09
1.77e-10
3.02e-09
4.32e-10
2.99e-09
1.35e-09
-4.05e-09
2.05e-09
6.93e-10
3.36e-10
-2.59e-09
1.95e-09
-3.89e-10
-1.56e-09
-1.96e-09
-9e-10
2.86e-09
-2.12e-09
1.55e-10
-2.87e-09
6.58e-10
2.21e-09
-2.46e-09
2.71e-09
-2.59e-10
-6.33e-12
8.05e-10
-7.99e-10
7.9e-10
-3.01e-09
1.17e-09
2.58e-09
-1.66e-09
1.66e-09
-2e-09
2.51e-09
4.31e-09
-3.14e-09
-3.19e-09
1.59e-09
1.6e-09
3.01e-10
3.01e-09
-6.31e-10
3.21e-09
2.98e-10
3e-09
-5.27e-10
-2.34e-09
-3.98e-09
1.46e-09
2.52e-09
9.97e-10
5.21e-10
-1.22e-09
-1.09e-09
9.99e-10
-2.79e-09
-7.01e-12
-2.03e-09
-5.67e-10
2.59e-09
1.02e-09
5.53e-10
-1.27e-09
2.68e-09
-2.88e-09
-1.92e-09
-2.33e-09
-1.25e-10
-6.67e-11
9.47e-10
-8.8e-10
2.75e-09
-2.14e-09
1.82e-09
1.32e-10
-1.2e-09
-1.99e-09
1.54e-09
1.32e-09
9.19e-10
-3.06e-09
2.14e-09
-3.89e-10
-2.03e-09
3.44e-09
-2.48e-09
1.22e-09
-1.85e-09
2.47e-10
-5.73e-10
1.59e-09
1.77e-09
-1.59e-09
-1.02e-10
-2.86e-09
-1.6e-09
-1.97e-09
3.57e-09
-2.89e-09
1.01e-10
2.82e-09
1.49e-09
1.91e-09
2.32e-09
-1.1e-09
3.7e-09
-2.6e-09
6.38e-10
2.31e-09
-2.94e-09
-5.24e-10
-2.06e-09
1.41e-09
-3.01e-09
2.3e-09
1.21e-09
-3.51e-09
1.33e-09
2.41e-09
-3.74e-09
1.32e-09
-1.32e-09
-1.59e-09
2.94e-09
-2.31e-09
7.2e-10
3.72e-09
4.99e-10
9.88e-10
-1.49e-09
-3.13e-09
2.7e-10
2.86e-09
-1.35e-09
1.33e-09
-1.33e-09
-1.51e-09
1.51e-09
1.49e-09
-3.17e-09
1.68e-09
-1.11e-09
-2.73e-10
9.47e-10
-2.53e-09
3.45e-09
-1.76e-11
-2.3e-09
2.32e-09
-2.06e-09
-5.14e-11
2.11e-09
1.05e-09
-1.45e-09
2.94e-09
-1.16e-11
-2.5e-09
2.51e-09
2.15e-09
1.46e-09
-3.61e-09
-2.59e-09
8.54e-11
2.38e-09
-2.47e-09
-1.47e-09
-1.6e-09
-1.16e-09
-1.96e-10
3.2e-09
2.23e-11
-2.91e-09
-1.93e-09
2.57e-09
-3.1e-09
2.22e-09
8.83e-10
1.96e-09
1.71e-09
1.15e-09
-2.77e-10
3.28e-09
-2.05e-09
1.22e-09
-1.11e-09
-1.24e-10
-1.2e-09
1.23e-09
1.98e-09
2.96e-09
2.51e-09
-3.42e-09
9.09e-10
-1.11e-09
-2e-09
-7.64e-10
-1.99e-09
-3.38e-10
-2.54e-09
2.88e-09
9.13e-11
-2.15e-09
3.08e-09
-1.37e-09
-1.42e-10
2.35e-09
-1.72e-09
2.08e-10
6.47e-10
2.23e-09
-1.84e-10
-3.9e-10
2.45e-09
-2.77e-09
3.22e-10
-1.67e-09
-1.45e-09
-2.61e-09
1.91e-09
7.04e-10
-2.46e-09
-4.69e-10
2.95e-09
-7.88e-11
-2.87e-09
2.97e-09
-5.2e-10
-8.82e-10
3.03e-09
-8.57e-10
8.57e-10
2.74e-09
2.15e-10
4.29e-11
-2.73e-09
2.69e-09
1.84e-11
-2.44e-09
-2.75e-09
-6.61e-10
2.09e-09
-2.17e-09
2.36e-11
-1e-09
9.78e-10
5.15e-10
2.12e-09
5.03e-11
2.04e-09
-2.09e-09
-9.99e-10
-1.95e-10
2.72e-09
2.44e-10
1.7e-09
-1.94e-09
-1.64e-09
1.14e-09
4.94e-10
-2.66e-09
2.2e-09
-3.12e-09
-9.64e-11
3.21e-09
-1.2e-09
1.2e-09
1.22e-09
1.41e-10
7.16e-10
-2.8e-10
-3.02e-09
3.3e-09
-8.71e-11
-2.24e-09
3.04e-09
-2.25e-09
-6.31e-10
2.78e-09
-2.15e-09
9.88e-10
3.04e-10
-3.42e-09
-2.56e-09
-1e-09
-2.69e-09
2.6e-09
-9.55e-10
9.55e-10
-2.42e-09
-9.04e-10
2.31e-09
-2.59e-09
-1.79e-09
1.16e-09
-1.27e-09
4.43e-09
-3.16e-09
-2.79e-10
-2.42e-09
1.09e-09
-1.08e-09
-1.17e-09
1.21e-09
1.38e-10
-8.48e-10
7.1e-10
4.03e-11
2.27e-09
2.24e-09
1.33e-09
-1.48e-09
3.72e-09
-2.82e-09
-1.6e-09
1.32e-09
2.04e-11
-2.07e-09
2.05e-09
1.13e-09
-1.09e-09
3.02e-10
-2.51e-09
2.21e-09
2.05e-09
-2.32e-09
2.24e-09
-5.01e-11
-2.68e-09
-1.64e-09
-1.85e-09
-1.26e-09
-1.35e-09
-2.94e-09
-2.79e-10
3.22e-09
-9.36e-10
9.56e-10
-2.88e-09
-2.83e-10
3.16e-09
2.69e-09
-9.07e-11
-2.44e-09
-1.48e-10
-1.05e-09
-2.64e-09
4.18e-09
-1.54e-09
-1.16e-09
1.07e-09
9.08e-11
-1.14e-09
1.06e-09
-2.75e-09
2.72e-09
3.08e-11
2.56e-09
-2.41e-09
-1.58e-10
-1.79e-09
3.7e-09
-1.01e-09
-3.21e-10
-3.91e-09
2.42e-09
1.3e-09
1.24e-10
-5.83e-11
-2.64e-09
-9.28e-11
1.79e-09
-3.45e-09
-1.36e-10
2.87e-09
4.02e-09
-1.6e-09
1.98e-09
1.75e-09
4.86e-10
6.17e-10
-7.1e-10
2.88e-09
2.04e-09
2.21e-10
-1.83e-09
1.97e-09
1.23e-09
-1.32e-09
-1.24e-09
1.09e-09
-1.8e-09
-2.71e-09
4.36e-09
-1.66e-09
-9.36e-10
-1.01e-09
-8.48e-10
-5.5e-10
-1.97e-09
-1.6e-09
1.23e-09
-1.24e-09
-8.67e-10
-9.72e-11
1.78e-09
-1.68e-09
1.13e-09
1.47e-09
1.29e-10
1.06e-09
9.78e-10
-9.56e-10
-2e-10
-1.17e-09
-2.16e-09
-1.41e-09
3.56e-09
2.48e-09
-2.4e-10
-2.53e-09
6.03e-11
2.45e-09
2.23e-10
-6.19e-10
3.96e-10
-8.8e-10
2.37e-09
-2.93e-09
1.9e-11
3.51e-09
-3.41e-09
6.19e-10
-7.16e-10
1.07e-09
1.08e-09
-1.87e-10
5.28e-10
-1.31e-09
-3.98e-10
-2.94e-09
4.68e-10
1.6e-09
2.76e-09
2.11e-09
-2.68e-09
4.29e-09
-2.86e-09
7.07e-10
6.17e-10
-1.21e-09
-1.5e-09
-2.36e-09
3.86e-09
1.08e-09
-4.09e-09
-1.63e-09
4.39e-09
-1.68e-09
4.16e-09
2.79e-09
1.3e-10
-6.58e-10
6.58e-10
-1.18e-09
-2.01e-09
2.63e-09
2.62e-09
1.81e-09
-8.93e-10
8.93e-10
-1.08e-09
-6.57e-10
-1.11e-09
9.04e-10
2.02e-10
1.11e-09
-2.13e-10
-4.63e-10
-1.18e-09
-2.66e-09
-2.56e-09
4.92e-10
-4.44e-09
1.59e-09
2.85e-09
-1.65e-09
2.87e-10
-2.64e-09
4.38e-09
-1.73e-09
-4.28e-09
1.63e-09
1.33e-09
-2.49e-09
4.08e-09
2.19e-09
-3.81e-09
-3.08e-10
2.19e-10
1.37e-09
-2.11e-09
2.73e-09
-1.35e-09
-2.07e-09
3.42e-09
-2.61e-09
4.43e-09
-1.7e-09
3.01e-09
1.43e-09
3e-09
3.55e-09
-3.46e-09
-3.49e-09
1.79e-09
2.73e-09
-4.38e-09
2.7e-09
-1.3e-09
2.54e-09
-5.07e-10
-2.5e-09
-1.31e-09
1.47e-09
2.91e-09
4.37e-09
-7.35e-10
-1.85e-09
2.59e-09
-9.07e-10
9.07e-10
-8.21e-10
8.21e-10
1.01e-09
-1.01e-09
9.79e-10
-9.79e-10
9.97e-10
1.02e-09
2.57e-09
-3.47e-09
8.96e-10
-1.27e-09
2.72e-09
1.65e-09
1.28e-09
-1.28e-09
-1.2e-09
1.26e-09
-1.26e-09
-3.86e-09
1.47e-09
2.4e-09
-5.73e-10
-4.19e-09
2.59e-09
1.6e-09
-8.97e-10
8.97e-10
-3.6e-09
1.43e-09
2.16e-09
-1.27e-09
-2.48e-09
-2.27e-09
1.77e-09
-1.08e-09
2.29e-09
-8.74e-10
-3.22e-09
-3.37e-09
1.82e-09
9.4e-10
1.04e-10
1.58e-10
4.96e-11
-2.03e-09
-4.12e-09
2.33e-09
1.79e-09
-2.65e-09
-1.26e-09
-9.62e-10
-7.6e-11
1.24e-09
-3.23e-09
1.38e-09
-1.8e-09
-2.38e-09
4.24e-09
-1.22e-09
-2.32e-09
9.12e-10
1.4e-09
-2.04e-10
-2.71e-09
5.66e-11
2.65e-09
-9.41e-10
8.13e-10
-8.13e-10
-6.73e-11
-1.61e-09
-1.4e-09
-1.83e-09
2.98e-09
3.02e-09
-8.59e-10
-2.81e-09
-2.08e-09
5.13e-11
3.69e-09
-1.9e-09
-1.32e-09
-2.73e-09
-2e-09
-2.77e-09
-4.99e-10
-1.81e-09
-7.58e-10
-1.74e-09
-1.21e-09
-2.29e-09
-3.29e-09
-7.06e-10
2.61e-09
-2.21e-09
-2.02e-09
-2.59e-09
2.33e-09
-2.76e-09
4.32e-10
-1.07e-09
-3.03e-10
-2.4e-10
2.38e-09
-1.07e-09
-5.99e-10
3.5e-09
5.18e-10
-4.01e-09
4.01e-09
1.13e-09
1.46e-09
-1.66e-09
2.9e-09
9.98e-10
-9.98e-10
2.45e-09
5.18e-10
1.24e-09
3.12e-10
-2.27e-09
2.46e-09
-3.32e-09
3.39e-09
1.9e-09
1.6e-09
-2.8e-09
1.2e-09
3.48e-11
3.55e-09
-1.15e-09
1.8e-09
2.78e-09
-2.26e-09
9.86e-11
8.05e-10
-2.17e-09
1.01e-09
1.19e-09
1.2e-09
1.95e-09
-2.36e-09
3.77e-10
-1.81e-09
1.6e-10
2.43e-09
-2.09e-09
2.21e-09
6.68e-10
-2e-09
1.07e-09
-7.9e-11
1.04e-09
-3.28e-09
-1.72e-10
-3.8e-09
5.21e-10
-1.1e-10
8.82e-10
3.33e-10
-2.28e-09
2.97e-09
2.84e-10
-2.99e-09
-7.99e-10
1.07e-09
2.2e-09
-1.71e-09
-2.14e-09
-1.32e-09
2e-09
1.28e-09
-2.24e-09
8.82e-10
1.13e-09
-2.97e-09
-3.14e-09
3.06e-09
-4.26e-11
-1.84e-09
-1.51e-09
1.51e-09
9.84e-10
-2.88e-09
-1.54e-09
1.54e-09
-2.33e-09
-3.02e-09
-2.34e-09
-2.37e-09
1.35e-09
1.3e-09
2.79e-09
-7.95e-10
-2.01e-09
2.08e-09
2.46e-09
-3.21e-09
1.5e-09
-1.8e-09
1.91e-09
-2.23e-09
-1.53e-09
-1.27e-09
-1.53e-09
-5.38e-10
-2.25e-09
-7.66e-10
1.32e-09
-1.76e-09
1.68e-09
3.59e-10
2.57e-09
6.89e-11
-2.95e-09
-2.77e-09
-1.59e-09
-2.44e-10
-2.34e-09
-1.31e-10
-2.48e-10
-4.52e-10
-1.4e-09
1.27e-09
2.88e-09
-3.26e-10
-1.9e-09
6.04e-11
1.77e-09
2.3e-09
-2.39e-09
-2.36e-09
-2.5e-09
-2.59e-09
-9.82e-10
6.87e-10
3.84e-10
)
;

boundaryField
{
    front
    {
        type            empty;
        value           nonuniform List<scalar> 0();
    }
    back
    {
        type            empty;
        value           nonuniform List<scalar> 0();
    }
    bottom
    {
        type            calculated;
        value           nonuniform List<scalar> 
12
(
1.38e-09
2.93e-09
2.52e-09
2.56e-09
1.53e-09
3.96e-10
3.98e-10
2.47e-09
3.03e-09
2.66e-09
1.55e-09
1.37e-09
)
;
    }
    left
    {
        type            calculated;
        value           uniform 0;
    }
    top
    {
        type            calculated;
        value           nonuniform List<scalar> 8(-2.86e-09 -2.86e-09 -2.84e-09 -2.84e-09 -2.84e-09 -2.86e-09 -2.86e-09 -2.84e-09);
    }
    right
    {
        type            calculated;
        value           uniform 0;
    }
    inner_arc
    {
        type            calculated;
        value           uniform 0;
    }
}


// ************************************************************************* //
