/*--------------------------------*- C++ -*----------------------------------*\
  =========                 |
  \\      /  F ield         | OpenFOAM: The Open Source CFD Toolbox
   \\    /   O peration     | Website:  https://openfoam.org
    \\  /    A nd           | Version:  9
     \\/     M anipulation  |
\*---------------------------------------------------------------------------*/
FoamFile
{
    format      ascii;
    class       volVectorField;
    location    "0.5";
    object      U;
}
// * * * * * * * * * * * * * * * * * * * * * * * * * * * * * * * * * * * * * //

dimensions      [0 1 -1 0 0 0 0];

internalField   nonuniform List<vector> 
578
(
(-0.0358 -0.0419 0)
(-0.018 -0.0608 3.33e-16)
(-0.0519 -0.0597 -1.17e-16)
(0.00313 -0.0666 -2.81e-17)
(0.0115 -0.0259 -5.25e-17)
(0.00413 -0.0875 -1.04e-16)
(-0.0121 -0.0266 5.22e-17)
(0.0132 -0.0247 -3.1e-20)
(0.0559 -0.084 -2.28e-16)
(-0.0107 -0.04 4.92e-16)
(0.00534 -0.0958 -1.54e-16)
(0.0364 -0.0709 0)
(0.00887 -0.0835 1.14e-16)
(0.0373 -0.0767 -8.89e-16)
(-0.0378 -0.0777 4.47e-16)
(0.0664 -0.0699 -1.08e-16)
(-0.0445 -0.0408 4.73e-16)
(-0.0705 -0.0595 0)
(0.0332 -0.0653 0)
(0.0613 -0.0827 1.65e-16)
(0.00308 -0.0745 0)
(0.053 -0.0638 0)
(0.0301 -0.0267 -5.61e-16)
(-8.36e-05 -0.0693 0)
(-0.00044 -0.0551 0)
(0.0319 -0.0649 4.5e-16)
(-0.00322 -0.0637 -5.73e-17)
(-0.000311 -0.0336 3.05e-17)
(-0.0156 -0.0727 -5.5e-16)
(0.0684 -0.0721 4.4e-16)
(-0.00122 -0.0553 -5.25e-16)
(0.0037 -0.0712 1.14e-16)
(0.0734 -0.0774 -4.23e-16)
(-0.00141 -0.074 2.24e-16)
(-0.033 -0.07 -4.42e-16)
(0.059 -0.0615 -6.65e-16)
(0.0327 -0.0686 8.69e-16)
(0.0304 -0.0602 0)
(-0.0647 -0.0703 -4.38e-16)
(0.0183 -0.0388 0)
(0.019 -0.0417 -4.29e-16)
(0.0211 -0.0393 5.15e-16)
(0.0193 -0.0366 0)
(-0.0335 -0.0684 0)
(0.0521 -0.0499 5.65e-17)
(-0.0186 -0.0401 0)
(-0.0192 -0.0429 4.3e-16)
(0.0511 -0.0775 -5.67e-17)
(-0.065 -0.0699 6.52e-16)
(-0.00606 -0.0753 -1.2e-16)
(0.000443 -0.0345 1.68e-17)
(0.0132 -0.0853 -4.82e-16)
(0.045 -0.0323 -2.32e-16)
(-0.0014 -0.0748 0)
(0.0014 -0.0773 3.93e-16)
(-0.004 -0.0917 9.54e-16)
(0.0123 -0.0109 8.95e-16)
(0.0354 -0.0291 -4.59e-16)
(-0.0579 -0.057 -8.27e-16)
(0.0396 -0.0414 2.43e-16)
(-0.068 -0.064 4.36e-16)
(-0.0376 -0.0258 0)
(-0.0571 -0.0422 6.27e-17)
(0.0333 -0.0687 4.13e-16)
(-0.0047 -0.0849 1.1e-16)
(-0.0415 -0.0783 2.43e-16)
(0.0691 -0.08 -5.09e-17)
(0.00905 -0.0924 3.64e-16)
(0.075 -0.0689 -2.08e-16)
(0.0368 -0.0787 4.84e-16)
(2.61e-05 -0.0582 0)
(0.00114 -0.059 -1.58e-17)
(0.000136 -0.0828 -1.19e-16)
(0.0375 -0.08 0)
(0.00142 -0.103 2.2e-16)
(0.0116 -0.0248 0)
(0.0497 -0.0715 2.92e-16)
(0.0412 -0.0584 -2.39e-16)
(0.00531 -0.0856 0)
(-0.0355 -0.0374 -1.27e-16)
(0.0337 -0.0682 -4.15e-16)
(-0.0179 -0.0259 -4.44e-16)
(0.0098 -0.0243 -2.02e-16)
(0.0185 -0.0251 2.05e-16)
(-0.0664 -0.0805 -5.88e-17)
(-0.0138 -0.0389 0)
(0.000739 -0.0208 0)
(-0.00359 -0.102 -3.48e-16)
(0.0268 -0.0596 1.12e-20)
(-0.0288 -0.0656 3.92e-18)
(-0.00217 -0.0693 0)
(-0.0575 -0.0736 1.2e-16)
(-0.0269 -0.0613 0)
(0.0124 -0.0922 2.14e-16)
(0.0699 -0.0701 6.49e-16)
(0.0502 -0.064 -5.57e-16)
(-2.43e-06 -0.0776 1.18e-16)
(0.00499 -0.078 -8.43e-16)
(-0.00348 -0.0248 -8.77e-16)
(-0.0374 -0.0781 0)
(-0.0398 -0.0699 0)
(0.0348 -0.0761 -7.64e-16)
(-0.0128 -0.0895 0)
(-0.0525 -0.0544 0)
(-0.00449 -0.0775 0)
(0.0366 -0.077 -6.6e-16)
(0.002 -0.0924 -2.33e-16)
(0.0193 -0.0411 0)
(-0.00857 -0.023 0)
(0.0219 -0.0433 -5.34e-16)
(0.0583 -0.0663 -1.79e-16)
(0.0354 -0.0758 0)
(0.0656 -0.0792 4.93e-16)
(0.0582 -0.0679 -3.96e-16)
(0.0597 -0.0689 4.11e-16)
(-0.0133 -0.0856 4.78e-16)
(0.00604 -0.0747 2.5e-16)
(-0.047 -0.0719 -3.63e-16)
(-0.0252 -0.0576 6.29e-17)
(-0.00521 -0.0781 4.17e-16)
(0.0262 -0.0535 -4.29e-16)
(0.0263 -0.0409 -2.37e-21)
(0.0361 -0.0721 -4.68e-16)
(0.0016 -0.061 -6.31e-17)
(0.023 -0.0385 0)
(-0.0308 -0.077 4.83e-16)
(0.0223 -0.0689 -4.64e-16)
(0.0717 -0.0723 -2.36e-16)
(-0.0382 -0.0809 2.42e-16)
(-0.026 -0.0773 0)
(-0.038 -0.0774 0)
(-0.0305 -0.0785 0)
(0.0109 -0.0882 0)
(0.008 -0.0164 4.51e-16)
(-0.0375 -0.08 -4.51e-16)
(-0.0381 -0.0658 0)
(0.0325 -0.0605 0)
(-0.00816 -0.0828 -4.09e-16)
(0.0469 -0.0687 4.6e-16)
(-0.0332 -0.0652 0)
(-0.0178 -0.0337 5.52e-16)
(-0.0269 -0.0772 0)
(-0.0284 -0.0557 0)
(-0.000523 -0.0582 0)
(0.0158 -0.0304 0)
(-0.0695 -0.0764 2.75e-20)
(-0.024 -0.0545 5.06e-16)
(-0.00669 -0.0501 0)
(0.0383 -0.0792 4.89e-16)
(-0.0261 -0.0725 0)
(0.0458 -0.0846 0)
(-0.0176 -0.0258 0)
(0.0182 -0.0182 0)
(0.014 -0.0278 5.4e-16)
(-0.0415 -0.0827 -4.54e-16)
(-0.00541 -0.0663 -2.53e-16)
(-0.0182 -0.0831 4.91e-16)
(0.0106 -0.0749 -1.12e-16)
(-0.0159 -0.0157 -1.09e-16)
(0.0481 -0.0853 -3.87e-16)
(0.0413 -0.0776 5.46e-16)
(0.0389 -0.0692 5.68e-16)
(-0.00986 -0.019 -6.9e-18)
(0.0421 -0.0752 0)
(-0.000118 -0.0193 4.54e-20)
(-0.0276 -0.0689 1.13e-20)
(6.64e-05 -0.034 -5.48e-16)
(-0.0376 -0.0714 0)
(0.00727 -0.0514 -1.23e-16)
(-0.00552 -0.0973 -2.02e-16)
(0.0405 -0.0669 0)
(0.0199 -0.0363 0)
(-0.0237 -0.0405 0)
(-0.014 -0.0278 -5.44e-16)
(-0.0326 -0.0615 0)
(-0.00498 -0.0907 -1.13e-16)
(-0.000213 -0.094 -1.14e-16)
(-0.0459 -0.0698 4.17e-16)
(0.0262 -0.0437 6.14e-17)
(-0.00185 -0.0596 2.6e-16)
(-0.0209 -0.0369 0)
(-0.0348 -0.0599 0)
(-0.0206 -0.062 0)
(0.00505 -0.0917 8.48e-16)
(-0.0456 -0.0734 3.07e-16)
(-0.00391 -0.0371 -4.06e-16)
(0.025 -0.0298 -2.06e-16)
(-0.0394 -0.0803 1.09e-16)
(-0.0433 -0.0845 4.74e-16)
(-0.000893 -0.0353 -5.52e-16)
(0.0423 -0.0832 -4.7e-16)
(0.036 -0.0671 0)
(0.0375 -0.0473 5.25e-16)
(-0.0344 -0.0646 0)
(-0.0237 -0.0405 0)
(-0.00127 -0.106 2.18e-16)
(0.00288 -0.0412 1.04e-15)
(-0.00337 -0.0405 -8.34e-16)
(-0.0361 -0.0673 0)
(0.034 -0.064 0)
(0.00504 -0.0387 -4.01e-16)
(0.00871 -0.0944 -1.07e-15)
(0.0131 -0.0399 -2.6e-16)
(-0.00408 -0.102 0)
(-0.000798 -0.0986 -3.45e-16)
(0.0373 -0.0708 0)
(-0.0418 -0.0756 0)
(-0.0437 -0.0519 0)
(0.0435 -0.0845 4.84e-16)
(-0.0227 -0.026 0)
(-0.0188 -0.0439 5.12e-16)
(-0.0444 -0.0861 -4.66e-16)
(-0.0351 -0.0755 -1.51e-17)
(0.00261 -0.101 1.13e-16)
(-0.0311 -0.0627 -2.57e-16)
(0.0011 -0.0674 0)
(-0.0395 -0.0752 -4.91e-16)
(0.0388 -0.0742 4.92e-16)
(-0.0424 -0.0848 4.8e-16)
(-0.0113 -0.0236 -5.57e-16)
(0.0415 -0.0832 2.45e-16)
(-0.0352 -0.0682 0)
(0.0225 -0.0481 -5.06e-16)
(0.0225 -0.0418 0)
(-0.0219 -0.0403 0)
(-0.0228 -0.0481 1.02e-15)
(0.000261 -0.11 -1.1e-16)
(0.00248 -0.0254 7.1e-20)
(-0.00155 -0.025 2.15e-16)
(-0.000299 -0.0194 4.34e-16)
(-0.00926 -0.0234 -4.4e-16)
(0.00476 -0.0223 -2.23e-16)
(-0.00793 -0.0163 -4.48e-16)
(0.022 -0.0671 0)
(-0.0225 -0.0685 0)
(0.0166 -0.0263 1.56e-16)
(0.0125 -0.0238 0)
(-0.0127 -0.0237 0)
(0.0146 -0.0884 1.79e-16)
(0.0186 -0.0436 0)
(-0.0114 -0.0207 0)
(0.0113 -0.0195 0)
(-0.00147 -0.108 -4.46e-16)
(-0.0188 -0.0353 0)
(-0.00132 -0.022 8.44e-16)
(0.00878 -0.018 0)
(-0.0095 -0.0182 -4.35e-16)
(-0.00308 -0.0391 1.03e-15)
(-0.0134 -0.0216 0)
(-0.0023 -0.0944 -1.11e-16)
(0.00155 -0.105 1.1e-16)
(-0.0341 -0.0787 0)
(0.00603 -0.0618 0)
(0.00737 -0.0204 -4.34e-18)
(0.000663 -0.0188 0)
(0.0261 -0.0758 4.82e-16)
(-0.00033 -0.0349 5.46e-16)
(-0.0487 -0.0862 -7.44e-16)
(0.0129 -0.024 0)
(0.00351 -0.0386 5.51e-16)
(0.0113 -0.0235 5.53e-16)
(-0.0118 -0.0211 4.4e-16)
(0.000548 -0.0221 -8.63e-16)
(0.0011 -0.0382 5.84e-16)
(-0.0306 -0.0661 3.75e-16)
(0.0279 -0.0597 9.2e-16)
(0.0134 -0.0394 0)
(0.00491 -0.0118 -4.44e-16)
(-0.000717 -0.0207 -4.43e-16)
(0.00217 -0.00938 0)
(-0.00213 -0.00944 0)
(-0.0312 -0.0754 -4.68e-16)
(0.0186 -0.05 0)
(-0.000204 -0.112 -3.23e-16)
(0.00594 -0.0989 -2.37e-16)
(-0.00118 -0.11 -6.5e-16)
(-0.002 -0.0835 2.53e-16)
(-0.00484 -0.0118 0)
(-0.0224 -0.041 0)
(-0.00107 -0.102 -5.71e-16)
(0.0214 -0.04 0)
(-0.00194 -0.105 9.83e-16)
(0.000487 -0.111 0)
(0.00289 -0.105 -1.1e-16)
(-0.000942 -0.11 2.21e-16)
(-0.0159 -0.0306 -5.31e-16)
(0.00678 -0.0138 -8.81e-16)
(-0.00672 -0.0138 4.44e-16)
(-0.000591 -0.0155 0)
(0.000693 -0.0335 -5.48e-16)
(0.022 -0.0647 0)
(-0.0349 -0.0778 1.49e-17)
(-0.00393 -0.0967 2.02e-16)
(-0.0131 -0.0228 0)
(0.000547 -0.0185 0)
(0.000424 -0.0354 6.75e-17)
(0.0116 -0.021 -4.41e-16)
(0.0254 -0.076 -1.19e-15)
(-9.31e-05 -0.0355 1.25e-16)
(-5.26e-05 -0.036 -4.86e-16)
(-0.00144 -0.0924 5.87e-16)
(-0.0226 -0.066 0)
(-6.2e-05 -0.0216 4.32e-16)
(-0.000113 -0.0185 0)
(0.000665 -0.0212 0)
(0.0001 -0.0223 8.19e-16)
(0.0255 -0.0713 4.72e-16)
(-0.00149 -0.0711 -1.13e-15)
(-0.000547 -0.114 -4.27e-16)
(-0.00054 -0.113 0)
(0.0236 -0.0541 2.56e-16)
(-0.000651 -0.111 3.22e-16)
(-0.000424 -0.114 -6.79e-16)
(-0.019 -0.0505 0)
(-0.000753 -0.109 4.42e-16)
(0.00129 -0.105 4.56e-16)
(-0.0323 -0.0727 0)
(-0.00751 -0.0205 0)
(-0.0136 -0.0397 0)
(-0.00119 -0.101 -5.47e-16)
(-0.0281 -0.059 -5.13e-16)
(6.67e-07 -0.113 8.88e-16)
(-0.00269 -0.105 1.14e-16)
(-6.11e-05 -0.0975 -3.54e-16)
(-0.00475 -0.0996 4.52e-16)
(0.000398 -0.108 -2.09e-16)
(-0.0463 -0.0861 4.46e-16)
(-0.0304 -0.0582 0)
(0.0407 -0.0815 0)
(-2.83e-05 -0.11 8.19e-16)
(-0.0097 -0.0926 1.16e-16)
(-0.052 -0.0848 -1.78e-16)
(-0.000346 -0.114 2.16e-16)
(0.000424 -0.0984 -4.45e-16)
(-0.0262 -0.0528 7.63e-16)
(-0.000315 -0.108 2.24e-16)
(0.0052 -0.0986 -2.07e-16)
(0.00127 -0.097 -4.64e-16)
(-0.000539 -0.0706 0)
(-0.00317 -0.085 0)
(0.00243 -0.103 -2.26e-16)
(0.00197 -0.107 3.34e-16)
(-0.00101 -0.112 3.21e-16)
(-0.000783 -0.0615 4.63e-16)
(-0.000403 -0.113 3.26e-16)
(0.0473 -0.062 -1.31e-16)
(0.0262 -0.0745 2.57e-16)
(-0.00845 -0.0188 -4.44e-16)
(0.00796 -0.0182 1.12e-16)
(-0.00941 -0.0206 4.38e-16)
(0.00958 -0.0204 0)
(0.00941 -0.0192 4.47e-16)
(-0.00958 -0.0199 2.24e-16)
(-0.00139 -0.0972 -2.21e-16)
(0.00968 -0.0221 0)
(-0.0099 -0.0229 0)
(-1.23e-05 -0.112 -3.25e-16)
(-0.0115 -0.0242 -4.33e-16)
(0.0137 -0.0263 0)
(-0.0137 -0.027 0)
(-0.00138 -0.11 -3.5e-16)
(-0.0116 -0.0114 0)
(2.09e-05 -0.113 1.09e-16)
(0.00802 -0.0196 4.96e-16)
(-0.000434 -0.113 -1.13e-16)
(7.92e-05 -0.0935 -4.74e-16)
(-0.00114 -0.111 1.12e-16)
(0.0374 -0.073 4.74e-16)
(0.00726 -0.0957 2e-16)
(-0.0318 -0.0295 0)
(0.0346 -0.073 0)
(-0.0326 -0.0218 -5.45e-17)
(-0.051 -0.0513 4.6e-16)
(0.0284 -0.0784 -2.39e-16)
(-0.0721 -0.0797 -2.45e-16)
(0.0321 -0.0196 4.18e-16)
(-0.00811 -0.0959 -1.15e-16)
(-0.0151 -0.0352 -5.64e-16)
(0.0152 -0.0341 4.03e-16)
(-0.0248 -0.0488 -5.19e-16)
(-0.00147 -0.0771 -4.05e-16)
(0.016 -0.0358 -2.81e-16)
(-0.0165 -0.0363 0)
(0.00272 -0.104 -5.52e-16)
(0.00136 -0.107 3.25e-16)
(-0.00111 -0.101 6.69e-16)
(-0.00131 -0.0187 -5.71e-16)
(-0.0195 -0.0419 5.25e-16)
(-0.0223 -0.043 0)
(0.0142 -0.0329 -3.46e-16)
(0.00418 -0.0772 2.01e-16)
(0.014 -0.079 0)
(0.00909 -0.089 4.71e-16)
(0.0269 -0.0681 -2.29e-16)
(-0.0761 -0.0728 4.18e-16)
(0.00996 -0.0526 2.41e-16)
(0.0599 -0.0426 4.12e-18)
(-0.000144 -0.0926 5.97e-16)
(0.00516 -0.0704 5.03e-16)
(-0.000671 -0.0313 5.67e-16)
(-0.0716 -0.0748 -8.24e-16)
(0.00083 -0.0329 -5.16e-16)
(-0.00594 -0.0369 2.67e-16)
(-0.00967 -0.072 3.73e-16)
(-0.0122 -0.0798 0)
(-0.00788 -0.0872 0)
(0.0699 -0.0575 0)
(-0.0228 -0.0665 7.37e-16)
(0.00824 -0.0976 -5.71e-16)
(0.0205 -0.0842 -4.68e-16)
(-0.00824 -0.0761 -9.49e-16)
(-0.0346 -0.0747 1.18e-16)
(-0.00271 -0.0886 1.71e-20)
(-0.0258 -0.068 -9.84e-16)
(-0.0324 -0.0737 -1.18e-16)
(0.013 -0.0916 1.15e-16)
(0.0306 -0.0644 -5.21e-16)
(-0.0303 -0.0666 -2.62e-16)
(0.038 -0.0796 0)
(-0.00768 -0.0899 1.14e-16)
(-0.0351 -0.0774 6.12e-17)
(0.000459 -0.0181 -4.92e-20)
(0.0389 -0.0788 0)
(-0.0372 -0.0765 6.34e-16)
(-0.0335 -0.0763 0)
(0.0296 -0.0752 -2.46e-16)
(0.0135 -0.0385 7.03e-16)
(-0.00532 -0.0829 -5.3e-16)
(0.00807 -0.0225 -4.13e-16)
(0.0293 -0.077 0)
(-0.0616 -0.0818 0)
(0.00129 -0.109 -2.19e-16)
(0.0449 -0.05 -1.26e-16)
(0.0109 -0.0791 0)
(-0.00902 -0.0206 -2.16e-16)
(0.0342 -0.0771 -2.4e-16)
(0.0298 -0.0639 0)
(-0.0264 -0.0811 -4.69e-16)
(0.02 -0.0605 0)
(-0.015 -0.0895 4.76e-16)
(-0.0242 -0.0828 -3.65e-16)
(0.00353 -0.0903 0)
(0.0092 -0.0781 2.57e-16)
(0.000243 -0.0715 0)
(-0.0567 -0.0851 0)
(-0.00424 -0.106 4.6e-16)
(-0.000474 -0.058 -3.94e-16)
(-0.0506 -0.0675 -4.69e-16)
(-0.0415 -0.062 6.65e-16)
(0.00131 -0.0175 0)
(-0.0394 -0.0804 1.25e-16)
(-0.0104 -0.0778 0)
(-0.0347 -0.0746 6.94e-21)
(0.00917 -0.0772 1.95e-16)
(-0.0408 -0.0842 -4.54e-16)
(-0.00149 -0.0602 0)
(-0.00536 -0.0599 -8.18e-18)
(0.0347 -0.0623 2.34e-16)
(0.000197 -0.105 7.04e-16)
(-0.0547 -0.0701 0)
(0.0159 -0.0586 5.11e-16)
(-0.0248 -0.0278 2.59e-16)
(-0.0133 -0.0917 -1.8e-16)
(0.0142 -0.037 -3.16e-16)
(-0.00201 -0.108 1.13e-16)
(0.0474 -0.0741 -6.03e-21)
(-0.0149 -0.0385 0)
(0.0252 -0.0262 -2.66e-16)
(-0.0113 -0.0954 2.37e-16)
(0.0316 -0.0722 -7.36e-16)
(0.000188 -0.085 -5.26e-16)
(-0.00156 -0.0182 0)
(-0.0124 -0.0168 0)
(-0.00935 -0.0715 2.48e-16)
(-0.000589 -0.0955 -4.87e-16)
(0.0339 -0.0733 2.35e-16)
(0.0327 -0.0769 4.93e-16)
(0.0108 -0.0141 2.15e-16)
(0.0185 -0.0253 1.06e-16)
(0.046 -0.0537 2.1e-16)
(0.000191 -0.0874 0)
(0.00285 -0.106 2.29e-16)
(-0.072 -0.0733 -3.53e-16)
(-0.00108 -0.104 -1.08e-15)
(-0.00885 -0.0762 1.99e-16)
(0.0245 -0.066 2.55e-16)
(6.27e-05 -0.0869 3.7e-16)
(-0.00153 -0.0386 0)
(-0.0157 -0.0842 0)
(-0.0502 -0.0787 -2.34e-16)
(0.00166 -0.039 -1.99e-16)
(-0.0651 -0.0811 5.82e-17)
(0.0303 -0.0744 2.93e-17)
(0.0163 -0.0853 6.16e-17)
(-0.01 -0.0925 -2.37e-16)
(-0.0147 -0.0346 5.49e-16)
(-0.0018 -0.0665 2.63e-16)
(-0.0371 -0.0791 2.34e-16)
(-0.0065 -0.0744 1.93e-16)
(0.00605 -0.0749 0)
(0.0379 -0.0796 -2.48e-16)
(-0.00557 -0.102 -4.65e-16)
(0.0224 -0.0572 0)
(0.00245 -0.0935 6.99e-16)
(-0.0657 -0.0685 1.33e-16)
(-0.0146 -0.0845 0)
(-0.0252 -0.0562 2.72e-16)
(0.00838 -0.0882 0)
(-0.0238 -0.0595 5.11e-16)
(-0.0187 -0.0842 0)
(0.001 -0.0712 4.78e-16)
(0.0363 -0.0599 0)
(0.00125 -0.0579 -5.18e-16)
(-0.026 -0.0611 -2.82e-16)
(-0.0306 -0.0672 -6.6e-17)
(-0.000246 -0.0349 -5.17e-16)
(0.0371 -0.0762 2.53e-16)
(0.0259 -0.059 0)
(0.000627 -0.0651 0)
(0.0197 -0.0839 4.89e-16)
(0.000417 -0.0954 -3.47e-16)
(0.0264 -0.0488 -4.07e-16)
(-0.0011 -0.107 1.14e-16)
(0.0234 -0.054 0)
(0.0325 -0.0709 2.69e-16)
(0.00154 -0.0837 -6.61e-16)
(8.22e-06 -0.0667 3.41e-16)
(0.00516 -0.065 -2.66e-16)
(0.0496 -0.0698 1.22e-16)
(-0.00427 -0.0677 2.7e-16)
(0.03 -0.0458 0)
(0.0407 -0.0811 0)
(-0.00224 -0.0354 -5.06e-16)
(0.000211 -0.0878 0)
(0.0197 -0.0802 5.67e-16)
(-0.0239 -0.0365 -2.79e-16)
(0.000769 -0.0543 0)
(-0.0293 -0.0643 -3.33e-16)
(-0.0466 -0.0547 -3.21e-17)
(-0.0113 -0.0632 5.42e-16)
(0.0123 -0.0643 9.18e-20)
(0.0133 -0.0824 -3.13e-17)
(0.025 -0.0375 0)
(0.0267 -0.0593 2.82e-16)
(0.0117 -0.0684 0)
(-0.000898 -0.0892 -2.5e-16)
(0.000357 -0.0667 0)
(-0.0488 -0.0653 0)
(0.0595 -0.0715 -1.21e-16)
(0.0266 -0.0626 2.63e-16)
(0.0647 -0.0568 3.4e-17)
(-0.0393 -0.0785 -1.36e-16)
(0.0318 -0.0737 -2.36e-16)
(-0.0487 -0.0706 1.25e-16)
(0.0458 -0.0601 -1.34e-16)
(-0.00583 -0.102 -1.16e-16)
(0.0516 -0.0837 -3.19e-16)
(-0.00138 -0.106 1.33e-16)
(0.000985 -0.0859 1.31e-16)
(-0.0114 -0.0869 6.88e-17)
(-0.0142 -0.0886 0)
(-0.0298 -0.0466 0)
(0.0239 -0.0526 -5.9e-16)
(-0.0192 -0.0814 0)
(0.0199 -0.082 -2.55e-16)
(0.000715 -0.0811 0)
(0.0151 -0.0829 2.61e-16)
(-0.00912 -0.0933 1.74e-16)
(-0.0217 -0.0817 -2.79e-16)
(0.0211 -0.0819 -2.8e-16)
(-0.0347 -0.0763 2.57e-16)
(-0.0543 -0.0657 0)
(0.0546 -0.0478 -1.88e-16)
(-0.00873 -0.0845 -5.46e-16)
(-0.0666 -0.0706 1.37e-16)
(0.000717 -0.0834 0)
(-0.0634 -0.0744 2.81e-16)
(-0.0537 -0.0613 0)
)
;

boundaryField
{
    front
    {
        type            empty;
    }
    back
    {
        type            empty;
    }
    bottom
    {
        type            zeroGradient;
    }
    left
    {
        type            noSlip;
    }
    top
    {
        type            uniformFixedValue;
        uniformValue    
        {
            type            table;
            format          csv;
            file            "inlet_v.csv";
            nHeaderLine     1;
            refColumn       0;
            componentColumns List<label> 3(1 2 3);
            separator       ",";
            mergeSeparators 0;
        }
        value           uniform (0 -0.076 0);
    }
    right
    {
        type            noSlip;
    }
    inner_arc
    {
        type            noSlip;
    }
}


// ************************************************************************* //
