/*--------------------------------*- C++ -*----------------------------------*\
  =========                 |
  \\      /  F ield         | OpenFOAM: The Open Source CFD Toolbox
   \\    /   O peration     | Website:  https://openfoam.org
    \\  /    A nd           | Version:  9
     \\/     M anipulation  |
\*---------------------------------------------------------------------------*/
FoamFile
{
    format      ascii;
    class       volScalarField;
    location    "0.22";
    object      p;
}
// * * * * * * * * * * * * * * * * * * * * * * * * * * * * * * * * * * * * * //

dimensions      [0 2 -2 0 0 0 0];

internalField   nonuniform List<scalar> 
942
(
14.6476
14.739
14.7354
14.6565
14.7348
14.722
14.714
14.7214
14.6996
14.6972
14.75
14.7284
14.6635
14.7514
14.7265
14.7406
14.7057
14.6452
14.6833
14.7474
14.711
14.7252
14.6293
14.7173
14.7489
14.7202
14.7482
14.6308
14.7071
14.6316
14.7244
14.7484
14.7034
14.6646
14.7508
14.6357
14.653
14.6239
14.6512
14.711
14.6585
14.6765
14.7066
14.7123
14.7127
14.6897
14.6794
14.666
14.6546
14.7502
14.6854
14.6284
14.635
14.7267
14.6885
14.6518
14.7389
14.6854
14.7384
14.6868
14.6264
14.7499
14.6676
14.6415
14.6267
14.7374
14.7507
14.6748
14.6481
14.7085
14.7423
14.7019
14.7441
14.634
14.7226
14.7463
14.7471
14.7517
14.7273
14.7384
14.7204
14.7204
14.7489
14.7398
14.7389
14.742
14.6803
14.734
14.75
14.7479
14.6768
14.7548
14.6825
14.6569
14.6518
14.7441
14.6693
14.7357
14.7198
14.6251
14.705
14.6776
14.6829
14.7105
14.6593
14.6258
14.6921
14.6943
14.6706
14.6751
14.6445
14.6491
14.6803
14.7006
14.7485
14.7555
14.6913
14.656
14.6239
14.6833
14.6255
14.6405
14.7085
14.7434
14.7427
14.7267
14.6292
14.6974
14.6926
14.6373
14.679
14.6815
14.6755
14.6634
14.6679
14.6838
14.6433
14.672
14.6482
14.6535
14.6586
14.6876
14.6855
14.7291
14.7249
14.711
14.7089
14.7008
14.6424
14.7434
14.724
14.6894
14.7529
14.7127
14.7525
14.6447
14.7394
14.7015
14.692
14.7444
14.7375
14.6394
14.6496
14.7295
14.6841
14.7524
14.7037
14.7092
14.6961
14.6793
14.6706
14.6529
14.6434
14.628
14.7391
14.6978
14.7462
14.6969
14.6625
14.6982
14.7131
14.7042
14.6472
14.6953
14.6396
14.7162
14.7008
14.7353
14.7416
14.6943
14.743
14.6973
14.6337
14.7257
14.7346
14.6712
14.7347
14.635
14.6611
14.7203
14.6232
14.6731
14.7327
14.7042
14.6853
14.6572
14.6472
14.7373
14.7161
14.7178
14.7359
14.6808
14.6949
14.7471
14.7311
14.6724
14.7396
14.7449
14.7361
14.7346
14.669
14.6641
14.6936
14.6774
14.7036
14.7516
14.7464
14.6673
14.6243
14.7312
14.7179
14.7389
14.7546
14.7058
14.6752
14.6872
14.7459
14.673
14.7295
14.7362
14.7346
14.712
14.6809
14.7016
14.7033
14.7321
14.6666
14.679
14.6718
14.7316
14.7439
14.6618
14.7446
14.7302
14.703
14.6828
14.6858
14.6974
14.741
14.7051
14.6598
14.743
14.7481
14.7036
14.6577
14.6967
14.7053
14.6979
14.723
14.6717
14.6667
14.7413
14.663
14.7452
14.7382
14.7459
14.6914
14.7118
14.7404
14.6311
14.7058
14.6376
14.632
14.7082
14.7226
14.6991
14.7059
14.6994
14.7067
14.7043
14.7233
14.6683
14.7478
14.6658
14.7155
14.7065
14.6955
14.7008
14.6995
14.7045
14.7122
14.7099
14.6998
14.692
14.7115
14.6856
14.6866
14.7357
14.7482
14.7556
14.7113
14.7513
14.729
14.745
14.6796
14.7547
14.7179
14.7402
14.75
14.7327
14.7471
14.7556
14.7143
14.7426
14.6701
14.744
14.7528
14.6743
14.6859
14.7238
14.7171
14.6693
14.7095
14.6967
14.7148
14.7165
14.6896
14.6987
14.7052
14.6395
14.7049
14.7383
14.6853
14.7105
14.711
14.7125
14.7143
14.6867
14.6948
14.7083
14.711
14.7077
14.6813
14.7078
14.6976
14.715
14.7179
14.6765
14.7216
14.735
14.7078
14.7184
14.7282
14.6725
14.6998
14.7279
14.724
14.6771
14.6946
14.739
14.676
14.7045
14.675
14.6935
14.7163
14.713
14.7164
14.7157
14.6828
14.7113
14.6981
14.6271
14.665
14.6413
14.6794
14.7113
14.7024
14.723
14.7189
14.7112
14.6722
14.6505
14.7188
14.7282
14.6601
14.7136
14.7202
14.6689
14.6815
14.6456
14.6559
14.6953
14.7301
14.7228
14.6961
14.7214
14.6386
14.7223
14.6937
14.633
14.6857
14.723
14.7141
14.7126
14.706
14.6887
14.686
14.7078
14.7266
14.7014
14.7181
14.702
14.718
14.7043
14.7039
14.7097
14.7213
14.7408
14.7214
14.7322
14.7323
14.7178
14.7291
14.7374
14.6345
14.7134
14.7179
14.7086
14.7011
14.7263
14.7018
14.7203
14.7215
14.726
14.6969
14.7192
14.7261
14.7337
14.7081
14.6904
14.727
14.7398
14.7403
14.6967
14.7301
14.7262
14.7258
14.7352
14.6923
14.7369
14.7175
14.7194
14.7146
14.7307
14.7291
14.7343
14.7111
14.7206
14.7207
14.7376
14.7216
14.7279
14.7232
14.7138
14.7308
14.7467
14.7088
14.7318
14.7126
14.7281
14.6812
14.7313
14.7241
14.734
14.7098
14.7299
14.7197
14.7254
14.7148
14.7381
14.7433
14.7335
14.7402
14.7279
14.6865
14.742
14.7338
14.7466
14.73
14.7002
14.7396
14.7353
14.7054
14.7378
14.7363
14.7377
14.7297
14.7336
14.7265
14.7328
14.7166
14.7359
14.7434
14.7331
14.744
14.7021
14.7457
14.7402
14.7296
14.7236
14.724
14.7329
14.7267
14.7394
14.7288
14.7285
14.7369
14.7365
14.7369
14.7261
14.731
14.7401
14.719
14.7392
14.734
14.7356
14.7249
14.7448
14.6938
14.7472
14.6454
14.7413
14.7259
14.7076
14.7258
14.7291
14.7417
14.7311
14.7293
14.7312
14.7327
14.7387
14.7396
14.7301
14.7422
14.7317
14.7365
14.7425
14.7428
14.7429
14.7421
14.6818
14.6564
14.7369
14.7437
14.7222
14.723
14.717
14.7453
14.6971
14.7409
14.741
14.7248
14.7349
14.6861
14.7388
14.7443
14.7414
14.7479
14.7515
14.6575
14.7324
14.6823
14.7402
14.687
14.6836
14.7488
14.7323
14.6923
14.7398
14.661
14.6887
14.6546
14.7318
14.7311
14.6304
14.7287
14.7316
14.733
14.6892
14.6914
14.6238
14.7252
14.7327
14.6986
14.7173
14.7327
14.6926
14.7137
14.732
14.7153
14.7335
14.7311
14.7296
14.7326
14.7347
14.6822
14.7347
14.654
14.6262
14.7282
14.7426
14.7335
14.7002
14.7373
14.7376
14.7262
14.6218
14.6301
14.7378
14.7423
14.7448
14.6602
14.6535
14.7369
14.7393
14.724
14.7005
14.6983
14.6937
14.7327
14.7102
14.7295
14.6755
14.7453
14.7264
14.7317
14.7303
14.709
14.7136
14.6968
14.7147
14.7278
14.688
14.6968
14.7362
14.7371
14.7456
14.699
14.6366
14.6951
14.6584
14.6478
14.635
14.666
14.7077
14.6723
14.7392
14.6642
14.7491
14.6958
14.7512
14.7035
14.753
14.705
14.6788
14.7484
14.7527
14.7041
14.6914
14.6828
14.7485
14.6608
14.754
14.7525
14.7506
14.7482
14.7551
14.7539
14.7514
14.7275
14.7541
14.717
14.7502
14.7491
14.7551
14.7549
14.7153
14.7519
14.7536
14.7509
14.7495
14.7556
14.7549
14.7272
14.7161
14.7524
14.6895
14.7468
14.6891
14.6917
14.749
14.7054
14.6279
14.7238
14.7495
14.7435
14.7455
14.6617
14.7519
14.7251
14.7136
14.7209
14.6863
14.7219
14.7295
14.7312
14.716
14.6411
14.6883
14.6874
14.7346
14.6426
14.7032
14.7073
14.7425
14.6417
14.6638
14.7547
14.7171
14.6684
14.7018
14.7434
14.7345
14.658
14.7151
14.6514
14.7551
14.7038
14.6887
14.7009
14.7515
14.7344
14.7334
14.7307
14.696
14.6966
14.7401
14.742
14.719
14.7531
14.676
14.6218
14.7276
14.6627
14.7161
14.7261
14.6223
14.7306
14.6453
14.7361
14.7214
14.7514
14.7011
14.7468
14.7455
14.7465
14.7475
14.7263
14.7484
14.7063
14.7037
14.7438
14.7442
14.736
14.7211
14.7504
14.7372
14.6706
14.736
14.7472
14.7464
14.6982
14.7345
14.7324
14.7187
14.7533
14.7197
14.754
14.744
14.7467
14.7367
14.6444
14.7313
14.7345
14.6805
14.6733
14.727
14.7001
14.6599
14.7414
14.7323
14.7088
14.7002
14.7267
14.6685
14.6567
14.7088
14.748
14.7013
14.6859
14.7002
14.7281
14.6788
14.7508
14.6941
14.7239
14.6223
14.6364
14.7076
14.7289
14.7293
14.6342
14.6749
14.7082
14.7264
14.6933
14.7245
14.745
14.7225
14.7454
14.6339
14.7262
14.7499
14.6367
14.7192
14.7025
14.7213
14.7497
14.7278
14.6417
14.686
14.7436
14.739
14.6639
14.671
14.6841
14.6463
14.7071
14.6776
14.6315
14.6997
14.7427
14.7082
14.6455
14.7199
14.7426
14.732
14.7447
14.7339
14.6759
14.7027
14.7329
14.7112
14.7248
14.7175
14.7524
14.6551
14.733
14.7137
14.6897
14.7055
14.6493
14.6537
14.7132
14.6994
14.6689
14.7499
14.7185
14.7109
14.7083
14.6227
14.7272
14.6658
14.7179
14.6478
14.6315
14.7341
14.7325
14.7528
14.7536
14.6773
14.701
14.7097
14.6998
14.7379
14.7522
14.6525
14.6715
14.7451
14.74
14.7346
14.703
14.6671
14.7249
14.7388
14.7154
14.6512
14.7303
14.7305
14.7407
14.7282
14.749
14.7064
14.6904
14.7373
14.728
14.7535
14.6386
14.6422
14.7467
14.6986
14.6414
14.7212
14.6439
14.67
14.6739
14.6349
14.7
14.6962
14.6412
14.6482
)
;

boundaryField
{
    back
    {
        type            empty;
    }
    front
    {
        type            empty;
    }
    top
    {
        type            zeroGradient;
    }
    outer_arc
    {
        type            zeroGradient;
    }
    bottom
    {
        type            uniformFixedValue;
        uniformValue    
        {
            type            table;
            format          csv;
            file            "outlet_p.csv";
            nHeaderLine     1;
            refColumn       0;
            componentColumns List<label> 1(1);
            separator       ",";
            mergeSeparators 0;
        }
        value           uniform 14.7312;
    }
    inner_arc
    {
        type            zeroGradient;
    }
}


// ************************************************************************* //
