/*--------------------------------*- C++ -*----------------------------------*\
  =========                 |
  \\      /  F ield         | OpenFOAM: The Open Source CFD Toolbox
   \\    /   O peration     | Website:  https://openfoam.org
    \\  /    A nd           | Version:  9
     \\/     M anipulation  |
\*---------------------------------------------------------------------------*/
FoamFile
{
    format      ascii;
    class       volScalarField;
    location    "0.98";
    object      p;
}
// * * * * * * * * * * * * * * * * * * * * * * * * * * * * * * * * * * * * * //

dimensions      [0 2 -2 0 0 0 0];

internalField   nonuniform List<scalar> 
578
(
1.13482e-21
5.2648e-22
1.16154e-23
2.13594e-21
-9.50629e-22
2.85315e-21
2.04222e-21
-7.7601e-22
-6.53798e-23
-2.35672e-22
2.43742e-21
-6.32917e-22
2.09874e-21
-6.58318e-22
2.02975e-21
1.56042e-21
1.1596e-21
9.86515e-22
-4.09355e-22
2.63183e-22
2.15244e-21
1.66216e-21
2.14764e-21
2.38629e-21
2.39392e-21
-5.53226e-22
2.0197e-21
1.91197e-21
7.08386e-22
1.4767e-21
1.9876e-21
2.96318e-21
9.02086e-22
2.16106e-21
1.84225e-21
7.26348e-22
-6.64172e-22
-7.92793e-22
1.35414e-21
-1.3391e-21
-7.35336e-22
-5.93721e-22
-1.02379e-21
2.16022e-21
1.04382e-21
2.4249e-21
1.94702e-21
-8.54204e-23
6.74279e-22
2.01244e-21
3.38643e-21
2.1172e-21
3.36684e-21
2.1599e-21
2.07124e-21
1.41706e-21
2.16976e-21
1.77208e-21
1.30911e-21
4.34551e-22
-6.95591e-23
8.00741e-22
1.7015e-21
-7.32068e-22
2.06513e-21
1.99769e-21
9.2283e-22
2.55306e-21
2.17132e-21
-4.43514e-22
2.22147e-21
2.96615e-21
2.0855e-21
-3.99498e-22
2.45363e-21
-7.60858e-22
-4.11119e-22
-1.51748e-22
2.09151e-21
2.37685e-21
2.93873e-21
1.8661e-21
3.52399e-21
3.42921e-21
2.07792e-21
7.50052e-22
3.6613e-21
1.61278e-21
-4.59172e-22
7.97055e-22
2.02929e-21
1.58564e-21
1.3792e-21
2.11371e-21
2.30591e-21
2.75232e-21
2.08191e-21
2.08993e-21
-5.73664e-22
2.06495e-21
1.69626e-21
-5.83849e-22
2.03902e-21
1.87665e-21
2.04557e-21
-1.01715e-21
2.49963e-21
-8.728e-22
8.95508e-22
-5.61365e-22
6.03533e-22
-5.84637e-22
2.15656e-22
2.56979e-21
2.69199e-21
2.06691e-21
2.14675e-21
1.34213e-21
8.33971e-22
2.06866e-21
-4.954e-22
4.12384e-21
-6.80113e-22
2.11711e-21
3.10914e-21
4.64906e-22
2.78232e-21
1.53004e-21
1.26744e-21
6.81103e-23
1.11337e-21
3.89088e-22
2.13046e-21
-5.95545e-22
9.86283e-22
1.95339e-21
-9.41891e-22
2.07967e-21
2.27953e-21
1.19738e-21
1.20683e-21
1.90821e-22
1.15748e-21
1.71738e-21
-7.27668e-22
2.61321e-21
3.17077e-22
1.98909e-21
-6.63429e-22
-7.94524e-23
-3.21584e-22
2.39379e-21
-4.45616e-22
-5.56786e-22
1.90862e-21
2.00781e-21
1.15645e-21
2.13644e-21
2.65547e-21
-2.62582e-22
-3.86541e-22
-2.87422e-22
1.29484e-21
-3.1726e-22
1.5368e-21
2.49957e-22
1.66424e-21
1.92124e-21
2.19163e-21
2.05661e-21
-1.31869e-22
-1.00249e-21
1.93404e-21
6.70431e-22
1.76448e-21
2.0655e-21
2.07848e-21
1.8369e-21
-3.0274e-22
1.08032e-21
1.93817e-21
9.43517e-22
5.63102e-22
2.08228e-21
2.10775e-21
2.0216e-21
1.36925e-21
1.82849e-21
2.07039e-21
6.62693e-22
-7.19521e-22
-5.24086e-22
2.13705e-21
1.89456e-21
1.00537e-21
2.06875e-21
2.22704e-21
1.95828e-21
1.85654e-21
-7.3123e-22
2.16448e-21
2.09867e-21
4.2946e-21
2.05627e-21
2.06086e-21
-8.907e-22
2.07954e-21
3.08955e-21
-5.82484e-22
2.38955e-21
1.47494e-22
2.09992e-21
9.11539e-22
2.08695e-21
9.83763e-22
2.10174e-21
2.09341e-21
-7.05793e-22
1.99141e-21
3.64632e-22
-8.41023e-22
1.57331e-21
-3.20134e-22
-6.35494e-22
1.94938e-21
5.06766e-22
2.06562e-21
2.21948e-21
1.9962e-21
1.11932e-21
8.23335e-22
4.22486e-21
8.11946e-22
-4.23206e-22
4.18074e-22
4.26128e-24
-7.10643e-22
1.57883e-21
2.12711e-21
-5.16077e-23
1.60818e-21
-9.96036e-22
2.06807e-21
1.46187e-21
1.95364e-21
-7.04731e-22
1.11741e-21
-3.14196e-22
2.53164e-21
2.08063e-21
2.08561e-21
6.87241e-22
3.08446e-21
2.37693e-22
3.05889e-21
-1.14032e-22
1.35723e-21
1.95747e-21
-3.56459e-22
3.95466e-21
-3.31491e-22
2.17009e-21
2.23147e-21
2.24424e-21
8.25776e-22
-4.10958e-22
4.38571e-22
-1.33026e-22
1.4697e-22
4.84954e-22
-4.13076e-22
3.61662e-22
3.14461e-22
2.05503e-21
2.10122e-21
2.08243e-21
2.03176e-21
1.77e-22
1.59903e-21
2.11913e-21
-8.64234e-22
2.06845e-21
2.04499e-21
2.07538e-21
2.09127e-21
9.75971e-22
-4.06648e-22
4.8205e-22
2.21204e-21
2.17225e-21
2.83241e-22
7.01215e-22
2.03624e-21
1.37171e-21
2.19099e-21
2.22623e-21
-8.7367e-22
-2.69719e-23
1.98738e-21
2.20892e-21
2.11513e-21
-2.15339e-22
2.10185e-21
1.82988e-21
2.21184e-21
2.07675e-21
1.8074e-22
1.31046e-21
2.08034e-21
2.08014e-21
-1.85511e-22
1.93794e-21
2.0388e-21
-2.33792e-22
2.13972e-21
2.05567e-21
5.8004e-22
-1.90772e-22
-3.68206e-22
2.16026e-21
6.46537e-22
2.03849e-21
2.07898e-21
2.26148e-21
2.06229e-21
1.98241e-21
2.17113e-21
1.39153e-21
-8.97569e-22
1.96291e-21
2.07166e-21
1.49988e-21
2.03483e-21
2.01602e-21
8.21897e-22
2.20197e-21
2.09607e-21
2.03148e-21
1.65266e-21
2.04397e-21
2.0629e-21
2.09164e-21
1.9354e-21
1.50935e-21
2.09244e-21
2.88758e-21
2.3891e-21
1.02818e-21
-5.53647e-22
1.40491e-21
-6.76595e-22
-8.63698e-22
1.87985e-21
1.63327e-21
-8.54211e-22
2.22608e-21
2.16882e-21
2.68943e-21
-7.05119e-22
1.87307e-21
1.94744e-21
1.34444e-21
2.1316e-21
-4.23578e-22
2.02379e-21
1.86687e-21
1.93007e-21
2.79912e-21
2.09784e-21
3.47161e-21
-7.07042e-22
6.62425e-22
4.16741e-21
2.48135e-21
3.50095e-21
3.62966e-21
2.02096e-21
1.26027e-21
-7.55598e-22
1.82805e-21
2.07218e-21
-8.00282e-22
1.69966e-21
2.15855e-21
2.13996e-21
1.83163e-21
1.90746e-21
2.29643e-21
2.79545e-21
-5.28156e-22
2.0786e-21
2.01051e-21
2.15256e-21
-1.02412e-22
1.86825e-21
1.93328e-21
2.87899e-21
1.83171e-21
1.98357e-21
2.41593e-21
3.55701e-21
2.81595e-21
1.88347e-21
1.02695e-21
2.06045e-21
1.73867e-21
2.55301e-21
1.89391e-21
2.31925e-21
2.57545e-21
1.65267e-21
1.25573e-21
1.48696e-21
5.3187e-22
2.1829e-21
2.34679e-21
-5.64957e-22
1.45748e-21
-8.16393e-22
2.01484e-21
1.27291e-21
2.61826e-21
-6.35608e-22
1.882e-21
8.04659e-22
-2.35615e-22
-7.9868e-22
1.17799e-21
-8.50643e-22
-2.4858e-22
1.17521e-21
2.24195e-21
1.66557e-21
2.08751e-21
7.15512e-22
-3.52013e-22
-7.59653e-22
1.66966e-21
-5.19271e-22
1.71859e-21
1.83348e-21
2.11248e-21
2.16544e-21
1.9737e-21
1.25276e-21
1.64273e-21
1.96595e-21
1.87019e-21
2.2866e-21
2.00659e-21
1.33667e-21
2.04951e-21
1.64218e-21
2.11843e-21
1.74296e-21
2.05756e-21
3.86472e-22
2.07341e-21
2.26868e-21
9.73028e-23
3.6771e-21
2.22869e-21
1.0628e-21
-4.18761e-22
1.79204e-21
4.22368e-23
6.80967e-22
-4.46771e-22
1.29722e-21
-3.58191e-22
1.8728e-21
1.92352e-21
2.6054e-21
2.02297e-21
1.76026e-21
-6.78474e-22
-4.56991e-22
1.54121e-22
7.50139e-22
2.0263e-22
2.31783e-21
2.41591e-21
-3.28831e-22
1.88102e-21
2.02247e-21
-3.74147e-22
1.66419e-21
2.02725e-21
2.0532e-21
9.35937e-22
2.13815e-21
1.62081e-21
-1.57459e-22
2.1469e-21
2.02746e-21
9.36094e-22
2.05946e-21
9.82588e-22
2.04165e-21
2.14401e-21
-9.29458e-22
1.58608e-21
-3.40835e-22
2.09147e-21
-1.68496e-22
2.03049e-21
1.10551e-21
2.16498e-21
6.06353e-22
2.03995e-21
1.96914e-21
3.01433e-21
2.13449e-21
2.30588e-21
1.36574e-21
1.99563e-21
-6.64273e-22
-1.28449e-21
2.71095e-21
2.11704e-21
2.38634e-21
2.42646e-21
1.72599e-21
-4.69171e-22
-5.54133e-22
2.06918e-21
1.85094e-21
2.1924e-21
-3.0887e-23
8.90784e-22
-1.10333e-22
-7.65134e-22
1.94752e-21
1.9664e-21
2.90969e-21
2.53474e-21
2.6914e-21
9.81118e-22
1.3154e-21
2.0277e-21
2.16163e-21
2.80656e-21
4.04734e-22
-3.97408e-22
3.06927e-21
2.20215e-21
2.49665e-21
5.14724e-22
5.86301e-22
-4.52366e-22
2.48172e-21
1.61068e-21
-4.11434e-22
8.38994e-22
2.51438e-21
1.52211e-21
-2.76486e-22
1.89149e-21
2.06812e-21
2.00615e-21
2.05828e-21
9.46997e-22
-6.10294e-22
2.02254e-21
2.13983e-21
2.62094e-21
2.1296e-21
1.24564e-21
2.0359e-21
2.12135e-21
1.06128e-21
-1.95813e-22
2.60056e-21
8.84494e-22
-4.83194e-22
2.41903e-21
1.4873e-21
1.03972e-21
)
;

boundaryField
{
    front
    {
        type            empty;
    }
    back
    {
        type            empty;
    }
    bottom
    {
        type            uniformFixedValue;
        uniformValue    
        {
            type            scale;
            scale           
            {
                type            squarePulse;
                start           0.3;
                duration        0.3;
            }
            xScale          
            {
                type            constant;
                value           1;
            }
            value           
            {
                type            constant;
                value           15.1;
            }
        }
        value           uniform 0;
    }
    left
    {
        type            zeroGradient;
    }
    top
    {
        type            zeroGradient;
    }
    right
    {
        type            zeroGradient;
    }
    inner_arc
    {
        type            zeroGradient;
    }
}


// ************************************************************************* //
