/*--------------------------------*- C++ -*----------------------------------*\
  =========                 |
  \\      /  F ield         | OpenFOAM: The Open Source CFD Toolbox
   \\    /   O peration     | Website:  https://openfoam.org
    \\  /    A nd           | Version:  9
     \\/     M anipulation  |
\*---------------------------------------------------------------------------*/
FoamFile
{
    format      ascii;
    class       volScalarField;
    location    "0.57";
    object      p;
}
// * * * * * * * * * * * * * * * * * * * * * * * * * * * * * * * * * * * * * //

dimensions      [0 2 -2 0 0 0 0];

internalField   nonuniform List<scalar> 
90
(
15.1961
15.6312
15.3922
15.4338
15.5341
15.7218
15.1908
15.1585
15.4552
15.1349
15.2858
15.5766
15.2652
15.5953
15.5193
15.5532
15.4896
15.4097
15.4291
15.3015
15.0464
15.1229
15.2563
15.3691
15.1317
15.3188
15.0748
15.1343
15.4374
15.2476
15.2321
15.3231
15.0853
15.1844
15.1476
15.5782
15.3931
15.4949
15.1023
15.1822
15.1991
15.2792
15.2161
15.1776
15.0905
15.5703
15.4399
15.34
15.3079
15.5314
15.2521
15.3113
15.2964
15.1742
15.415
15.3465
15.1177
15.5377
15.0897
15.3459
15.3462
15.3674
15.3517
15.2799
15.2444
15.4199
15.4393
15.4725
15.4622
15.4437
15.3497
15.0923
15.2929
15.4057
15.4245
15.3942
15.0653
15.2137
15.2468
15.0848
15.461
15.1292
15.4793
15.3888
15.3518
15.5265
15.1432
15.1859
15.3839
15.0967
)
;

boundaryField
{
    back
    {
        type            empty;
    }
    front
    {
        type            empty;
    }
    bottom
    {
        type            zeroGradient;
    }
    outer_arc
    {
        type            zeroGradient;
    }
    right
    {
        type            uniformFixedValue;
        uniformValue    
        {
            type            scale;
            scale           
            {
                type            squarePulse;
                start           0.3;
                duration        0.3;
            }
            xScale          
            {
                type            constant;
                value           1;
            }
            value           
            {
                type            constant;
                value           15.1;
            }
        }
        value           uniform 15.1;
    }
    inner_arc
    {
        type            zeroGradient;
    }
}


// ************************************************************************* //
