/*--------------------------------*- C++ -*----------------------------------*\
  =========                 |
  \\      /  F ield         | OpenFOAM: The Open Source CFD Toolbox
   \\    /   O peration     | Website:  https://openfoam.org
    \\  /    A nd           | Version:  9
     \\/     M anipulation  |
\*---------------------------------------------------------------------------*/
FoamFile
{
    format      ascii;
    class       volScalarField;
    location    "0.79";
    object      p;
}
// * * * * * * * * * * * * * * * * * * * * * * * * * * * * * * * * * * * * * //

dimensions      [0 2 -2 0 0 0 0];

internalField   nonuniform List<scalar> 
90
(
-5.83811e-23
1.1569e-22
5.49449e-22
1.49502e-21
5.79037e-22
-8.66796e-22
2.11154e-23
-1.02685e-22
-1.47835e-22
-1.03864e-22
8.23794e-23
-1.17623e-22
-1.53234e-22
6.8e-22
-3.15979e-22
-2.71748e-21
3.10688e-21
-4.75785e-22
-5.25303e-22
7.48316e-23
6.41788e-23
9.41881e-23
8.64428e-23
2.76821e-22
5.15879e-23
3.63179e-22
-2.27171e-22
2.81555e-22
4.86225e-22
-1.78807e-22
-9.1663e-23
5.57332e-22
4.70114e-22
3.08721e-22
4.19154e-22
-2.6598e-21
-4.18348e-23
4.49694e-21
5.26655e-22
-4.61678e-25
-1.02718e-22
-2.09873e-22
6.80449e-22
-2.60568e-23
-3.33777e-24
6.96198e-22
-8.60016e-23
-9.78466e-22
-4.6867e-22
8.73368e-22
1.10899e-22
2.44489e-23
-1.44027e-22
6.24627e-22
-6.7329e-23
-6.58663e-22
5.35899e-24
1.09632e-22
-3.78061e-23
6.86814e-22
-1.01136e-22
7.43095e-22
9.8986e-22
1.28423e-22
-3.44441e-22
-1.74991e-22
6.47117e-22
7.52779e-22
3.79688e-21
2.10368e-22
-1.22764e-21
-1.08016e-22
6.15946e-22
-1.12975e-21
-2.57427e-21
-6.76302e-23
-1.08091e-22
5.59775e-22
1.70649e-22
2.05657e-23
4.46712e-21
-1.47564e-23
8.78918e-23
-2.31805e-21
1.72915e-22
1.02045e-21
-6.15212e-23
-1.08004e-22
-1.54347e-21
-2.02156e-22
)
;

boundaryField
{
    back
    {
        type            empty;
    }
    front
    {
        type            empty;
    }
    bottom
    {
        type            zeroGradient;
    }
    outer_arc
    {
        type            zeroGradient;
    }
    right
    {
        type            uniformFixedValue;
        uniformValue    
        {
            type            scale;
            scale           
            {
                type            squarePulse;
                start           0.3;
                duration        0.3;
            }
            xScale          
            {
                type            constant;
                value           1;
            }
            value           
            {
                type            constant;
                value           15.1;
            }
        }
        value           uniform 0;
    }
    inner_arc
    {
        type            zeroGradient;
    }
}


// ************************************************************************* //
