/*--------------------------------*- C++ -*----------------------------------*\
  =========                 |
  \\      /  F ield         | OpenFOAM: The Open Source CFD Toolbox
   \\    /   O peration     | Website:  https://openfoam.org
    \\  /    A nd           | Version:  9
     \\/     M anipulation  |
\*---------------------------------------------------------------------------*/
FoamFile
{
    format      ascii;
    class       surfaceScalarField;
    location    "0.79";
    object      phi;
}
// * * * * * * * * * * * * * * * * * * * * * * * * * * * * * * * * * * * * * //

dimensions      [0 3 -1 0 0 0 0];

internalField   nonuniform List<scalar> 
122
(
-6.42737e-30
1.04138e-30
-4.63829e-30
1.37203e-28
-4.03962e-29
-6.9371e-29
-1.39506e-28
1.45642e-28
8.69329e-29
-1.63149e-28
1.71105e-28
3.65272e-28
-3.71206e-28
1.95768e-29
-2.71701e-29
-6.16554e-30
-6.73863e-30
7.09617e-29
-5.99571e-29
7.23587e-30
8.00357e-30
3.05756e-29
2.50558e-29
-6.11958e-29
-1.08035e-28
1.75582e-28
-5.72197e-29
1.73631e-28
-8.95222e-29
-1.41662e-29
-1.36645e-28
-6.63316e-29
2.73009e-29
-4.59622e-29
-1.92104e-29
-7.69132e-30
1.40622e-29
4.53574e-29
-5.1352e-29
-2.11688e-29
1.0358e-29
-3.86272e-29
4.05066e-29
-2.66674e-29
-2.82201e-29
1.75603e-29
1.95941e-29
-3.70743e-29
-1.84463e-29
-5.55151e-30
9.60087e-30
-2.09482e-29
3.23429e-29
-2.68414e-28
1.77683e-28
-2.28896e-29
5.46072e-30
-2.89369e-29
-6.03705e-30
-1.80748e-29
-2.21768e-29
9.26886e-30
-4.9417e-29
-5.41459e-29
8.41857e-29
7.13685e-29
-2.59005e-29
1.11991e-29
-7.83139e-30
1.33517e-29
3.90899e-29
-7.19758e-30
7.06607e-31
-2.71891e-30
8.37742e-30
-4.47141e-30
-7.13216e-30
-1.15882e-29
5.37345e-29
-2.33214e-29
-4.77672e-30
-1.72953e-29
-9.25135e-29
2.57507e-29
-4.2894e-30
-1.7176e-29
4.05848e-30
1.11555e-29
5.2703e-29
-9.44244e-29
-4.23651e-30
-7.15487e-30
4.50275e-30
-4.63702e-29
5.10264e-29
-5.55297e-30
6.06071e-30
-1.02656e-29
2.80963e-30
-2.56746e-29
-1.05086e-29
4.01492e-29
3.88351e-29
-1.18884e-29
-3.46058e-30
6.7099e-29
-1.58844e-29
3.8209e-29
-2.63731e-29
-3.84493e-29
2.18437e-28
-2.14764e-28
-1.26051e-28
1.18896e-28
1.88421e-30
2.90989e-29
-2.8717e-29
-3.55775e-30
2.04349e-31
-1.42955e-29
-5.38504e-29
5.03215e-31
)
;

boundaryField
{
    back
    {
        type            empty;
        value           nonuniform List<scalar> 0();
    }
    front
    {
        type            empty;
        value           nonuniform List<scalar> 0();
    }
    bottom
    {
        type            calculated;
        value           uniform 0;
    }
    outer_arc
    {
        type            calculated;
        value           uniform 0;
    }
    right
    {
        type            calculated;
        value           nonuniform List<scalar> 4(5.51922e-30 2.36435e-29 2.1426e-29 1.7847e-29);
    }
    inner_arc
    {
        type            calculated;
        value           uniform 0;
    }
}


// ************************************************************************* //
