/*--------------------------------*- C++ -*----------------------------------*\
  =========                 |
  \\      /  F ield         | OpenFOAM: The Open Source CFD Toolbox
   \\    /   O peration     | Website:  https://openfoam.org
    \\  /    A nd           | Version:  9
     \\/     M anipulation  |
\*---------------------------------------------------------------------------*/
FoamFile
{
    format      ascii;
    class       volVectorField;
    location    "0.79";
    object      U;
}
// * * * * * * * * * * * * * * * * * * * * * * * * * * * * * * * * * * * * * //

dimensions      [0 1 -1 0 0 0 0];

internalField   nonuniform List<vector> 
90
(
(-5.15595e-23 1.7619e-23 1.39795e-39)
(-2.24226e-21 -2.30742e-21 -4.09922e-38)
(3.38802e-21 1.9751e-21 5.30862e-38)
(3.83911e-21 -3.13296e-21 -5.25745e-38)
(-5.1252e-21 -7.15908e-21 -1.3109e-37)
(-1.17567e-21 -1.16381e-21 3.25672e-38)
(3.80372e-23 -9.51703e-23 -1.44077e-39)
(6.23929e-22 3.20903e-22 -3.99376e-39)
(2.26018e-24 1.99024e-21 0)
(4.43078e-22 3.32281e-23 0)
(1.44304e-21 -1.85697e-22 8.83642e-39)
(-4.20021e-22 5.19038e-21 -1.14411e-38)
(2.65996e-22 2.58149e-22 -1.91416e-39)
(1.02523e-21 5.87535e-22 3.70487e-39)
(-1.21527e-21 4.19655e-21 0)
(-3.91416e-21 -1.77475e-21 0)
(-2.35088e-21 -5.96318e-21 1.7328e-37)
(1.9312e-21 1.10923e-21 2.12764e-38)
(-4.36444e-23 -1.70306e-21 0)
(1.12727e-23 5.05274e-22 1.05151e-38)
(9.88358e-22 5.44621e-22 -9.34971e-40)
(-1.3102e-22 -3.58439e-22 -5.48322e-40)
(1.22306e-21 1.13441e-22 1.33275e-38)
(6.15417e-22 -1.45155e-22 -1.1381e-38)
(1.07625e-21 3.00215e-23 -2.00512e-40)
(6.5591e-22 -6.03508e-22 -1.06582e-38)
(7.22688e-22 1.38356e-22 4.94108e-39)
(-7.4755e-22 -3.78047e-22 -1.82038e-39)
(7.05449e-21 2.0834e-21 0)
(4.43752e-22 -7.48128e-23 7.99433e-39)
(8.13307e-22 3.33017e-22 -5.13217e-39)
(1.05179e-21 6.73184e-23 3.46508e-38)
(1.14761e-21 4.36621e-22 1.09387e-38)
(9.59181e-22 5.5769e-22 -2.44577e-38)
(1.23331e-21 3.56623e-22 7.20878e-39)
(-3.84962e-22 3.25954e-21 6.30834e-38)
(-1.42766e-21 -1.22824e-21 0)
(7.43379e-22 -1.11263e-21 0)
(4.75644e-22 2.07982e-22 -1.17295e-38)
(7.93602e-23 2.18448e-22 -6.29265e-40)
(-3.49402e-22 2.01201e-22 -3.32581e-39)
(-1.79186e-22 7.94578e-22 1.36164e-38)
(1.09605e-21 1.28193e-22 3.91705e-39)
(2.179e-22 5.61279e-23 2.04744e-39)
(5.91188e-22 1.17561e-23 4.21545e-40)
(-4.59856e-22 -1.45019e-21 -2.54513e-38)
(1.54756e-22 -2.30079e-22 8.49967e-40)
(-1.17204e-21 2.13421e-21 -2.49811e-38)
(1.04763e-21 4.12284e-24 2.34758e-38)
(-1.21989e-22 2.64877e-21 -3.75627e-39)
(1.98248e-23 4.07799e-23 0)
(-1.43979e-22 -1.76592e-22 1.21905e-39)
(-5.37658e-23 2.28249e-21 -1.80667e-41)
(2.61913e-22 -2.25374e-22 0)
(-1.94621e-22 -1.35007e-22 -2.53647e-39)
(-1.44752e-21 -6.61547e-23 2.62333e-40)
(5.05296e-22 4.52463e-23 -2.60882e-40)
(5.0418e-22 -5.93909e-22 0)
(3.63709e-22 2.14247e-23 0)
(9.83143e-22 -2.58729e-22 -3.8637e-38)
(-7.37958e-22 5.46049e-22 -9.55552e-39)
(-6.83142e-22 -9.66613e-22 0)
(2.51598e-22 -1.85002e-22 -4.62588e-38)
(-1.63883e-21 2.05872e-22 1.58776e-39)
(-8.38978e-22 -4.36783e-22 -2.56677e-38)
(1.56292e-21 1.70514e-22 -6.26662e-39)
(5.94391e-22 1.07351e-21 0)
(8.53538e-22 -7.41809e-22 0)
(5.98896e-21 -8.45756e-22 -1.63878e-38)
(8.40078e-21 -2.20004e-21 -3.91882e-38)
(-3.99823e-21 2.21237e-21 0)
(2.3841e-22 -1.15853e-22 -5.07805e-39)
(-1.68297e-21 1.66479e-21 0)
(8.46883e-22 -1.99749e-21 -8.46078e-38)
(3.85385e-21 -3.71105e-23 3.9566e-38)
(-1.41216e-22 -5.13851e-22 2.26304e-39)
(-5.20458e-23 -4.31389e-23 8.99633e-40)
(1.88816e-22 -3.1882e-22 0)
(1.95388e-22 8.10461e-22 1.58426e-38)
(2.08777e-22 -6.46599e-23 -2.10778e-39)
(4.12805e-21 -2.403e-22 -1.86178e-37)
(5.50627e-22 4.73337e-23 -1.37496e-40)
(5.58246e-22 -9.56694e-22 -1.30997e-39)
(-2.55483e-21 5.99692e-22 -6.07433e-38)
(2.35814e-22 -1.56828e-21 -4.40658e-39)
(3.08585e-22 -2.89651e-22 2.9814e-38)
(3.37312e-22 8.02261e-23 -2.75e-39)
(1.28789e-22 8.3868e-23 4.05393e-40)
(-1.61455e-21 -1.44161e-21 1.47639e-37)
(7.73703e-23 -4.93244e-23 4.91773e-39)
)
;

boundaryField
{
    back
    {
        type            empty;
    }
    front
    {
        type            empty;
    }
    bottom
    {
        type            uniformFixedValue;
        uniformValue    
        {
            type            scale;
            scale           
            {
                type            squarePulse;
                start           0.3;
                duration        0.3;
            }
            xScale          
            {
                type            constant;
                value           1;
            }
            value           
            {
                type            constant;
                value           (0 0.7 0);
            }
        }
        value           uniform (0 0 0);
    }
    outer_arc
    {
        type            noSlip;
    }
    right
    {
        type            zeroGradient;
    }
    inner_arc
    {
        type            noSlip;
    }
}


// ************************************************************************* //
