/*--------------------------------*- C++ -*----------------------------------*\
  =========                 |
  \\      /  F ield         | OpenFOAM: The Open Source CFD Toolbox
   \\    /   O peration     | Website:  https://openfoam.org
    \\  /    A nd           | Version:  9
     \\/     M anipulation  |
\*---------------------------------------------------------------------------*/
FoamFile
{
    format      ascii;
    class       volScalarField;
    location    "0.65";
    object      p;
}
// * * * * * * * * * * * * * * * * * * * * * * * * * * * * * * * * * * * * * //

dimensions      [0 2 -2 0 0 0 0];

internalField   nonuniform List<scalar> 
464
(
6.08651e-07
-6.56928e-07
-5.66837e-07
-3.28306e-07
-9.71896e-07
-5.69073e-07
1.99947e-07
-2.93764e-07
-3.60269e-07
-1.35155e-07
5.16386e-07
1.51819e-06
1.2504e-07
1.42439e-06
8.39196e-07
8.8728e-07
3.94099e-07
3.6815e-07
7.13382e-08
-3.32805e-07
-3.90905e-07
-7.19244e-07
-5.73001e-07
-4.0633e-07
-3.71657e-07
-4.51137e-07
1.27096e-06
2.16155e-08
1.26021e-06
-7.24035e-07
-6.89338e-07
3.43003e-07
4.38474e-07
2.9518e-07
1.70322e-07
2.59299e-07
1.33272e-07
1.90053e-07
8.10775e-08
6.84693e-07
-2.93162e-07
-6.19155e-07
-6.23328e-07
1.13277e-06
8.41974e-07
7.08093e-07
-1.58731e-07
-2.99034e-08
3.40367e-07
-1.40801e-08
-1.91357e-07
9.52162e-08
6.58859e-08
-3.5116e-07
-3.51966e-07
8.46244e-08
-5.1909e-08
-5.66395e-07
-6.19367e-07
-1.56338e-10
3.50212e-07
-9.62422e-07
-4.51909e-07
-4.19643e-07
-5.87475e-07
-3.74906e-07
-8.25796e-07
4.03577e-07
6.6918e-07
-4.16653e-07
-7.3095e-07
-8.14955e-07
7.03987e-07
1.57626e-08
-1.15988e-06
8.18095e-08
-7.08958e-07
3.08896e-07
-4.31597e-07
9.1986e-07
-1.31225e-06
-6.73942e-07
-1.91785e-06
-9.25211e-07
-1.32533e-06
-6.01671e-07
-7.85163e-07
-7.24517e-07
-2.99623e-07
-9.29151e-07
-1.25799e-06
-9.14471e-07
-7.42243e-07
9.34629e-07
-8.69322e-07
-6.32467e-07
-5.02146e-07
-5.5457e-07
-1.71796e-06
-2.78361e-07
-3.121e-07
-9.11787e-08
-4.63419e-07
2.28499e-07
3.75373e-07
-1.83189e-06
-8.11789e-07
-7.28666e-07
-1.33282e-06
-2.75492e-07
-8.86395e-07
-8.71744e-08
-8.49209e-07
-1.26664e-06
-1.81987e-07
-3.1318e-07
-1.89915e-06
-1.06824e-06
-1.70507e-06
-7.8896e-07
-1.82913e-07
5.97281e-08
-5.91163e-07
5.19641e-07
-6.70913e-07
-7.66596e-07
-3.13313e-07
-1.07889e-06
1.69153e-07
-1.87386e-06
-9.65675e-07
1.54585e-06
2.45091e-07
-4.3644e-07
-8.42636e-07
-1.7965e-06
-1.10553e-06
-9.34418e-08
-3.01358e-07
-8.90833e-07
-1.13914e-06
-7.52896e-07
-8.59743e-07
-3.09854e-07
-1.18702e-06
-1.21922e-06
-3.22237e-07
-7.93265e-07
-4.49226e-07
-7.82053e-07
-4.89105e-07
-4.23844e-07
6.09306e-08
-9.06367e-07
-1.81337e-06
-9.65867e-07
4.18543e-07
-3.25955e-07
-2.52796e-07
-1.27032e-06
-3.07363e-07
-4.37667e-07
-1.17396e-06
-5.97166e-07
-5.00308e-07
-1.10959e-06
-4.38256e-08
-4.52684e-07
4.75669e-07
-1.45677e-06
-1.46382e-06
-9.88657e-07
-1.62684e-06
-8.01952e-07
-1.54107e-06
-1.09379e-06
-3.50211e-07
-4.07251e-07
3.87828e-07
3.37706e-07
-3.8059e-07
-1.03156e-06
6.80736e-07
6.8007e-07
8.75282e-07
8.02851e-07
-1.33324e-06
-1.30942e-06
-1.53127e-06
-1.40834e-06
-2.47349e-07
-1.36636e-06
8.78977e-08
-1.49019e-07
-6.45742e-07
-7.45423e-07
-3.75074e-07
-2.84496e-07
7.91089e-07
-4.26233e-07
-3.35124e-07
-6.84533e-07
-3.00453e-07
-5.96413e-07
-1.33571e-06
-1.15531e-08
-4.45539e-07
-7.12067e-07
-8.59053e-07
-1.62042e-06
-1.00837e-06
-1.27412e-06
3.65269e-07
2.89553e-07
-3.22768e-07
-1.39267e-06
9.21898e-07
-1.63208e-07
1.27832e-06
-9.36499e-07
6.07038e-07
-5.94541e-07
-5.15718e-07
-3.76287e-07
-3.70904e-07
-4.47879e-07
-3.79847e-07
-3.30434e-07
-3.17559e-07
-4.0335e-07
-3.43073e-07
-1.8392e-07
-2.62359e-07
-4.46795e-07
-1.02438e-07
-4.16414e-07
-9.07781e-08
-2.26034e-07
-2.87545e-07
-1.15554e-08
-4.32337e-07
-2.01975e-07
-1.23903e-07
-2.68616e-07
-4.31651e-07
1.40633e-07
-2.44038e-07
-2.4721e-07
-2.07828e-08
-1.86542e-07
-2.03702e-07
7.24948e-08
-4.59272e-07
-7.76757e-07
-4.31565e-07
-2.30217e-07
-3.24095e-07
-1.82843e-07
-4.16883e-07
-1.78815e-07
-1.87454e-07
-4.44426e-07
-4.02496e-07
2.39604e-07
-1.94934e-07
3.60864e-08
-3.82604e-07
-1.41019e-07
6.21563e-07
-4.68601e-08
-6.97386e-07
-1.20875e-07
-3.43968e-07
4.1213e-07
1.4016e-07
-3.58913e-07
-8.96428e-08
-8.21621e-07
-1.10504e-06
-1.20271e-06
-4.123e-07
-1.72324e-07
-1.06754e-06
9.15981e-08
4.3746e-07
-6.48761e-07
-1.21023e-06
-6.49173e-07
-1.22007e-07
-3.84204e-07
-6.46552e-07
-3.70589e-07
-1.94031e-07
-2.96001e-07
-6.41402e-07
-9.2704e-07
-1.28933e-06
-1.04816e-06
-1.02175e-06
-7.98384e-07
2.75711e-07
-1.92191e-08
4.75973e-07
1.09425e-06
1.57748e-07
-6.46766e-07
-6.44833e-07
-1.58972e-09
-1.31152e-06
-1.12825e-06
-4.6195e-07
-3.18254e-07
-4.61673e-07
5.71171e-08
-6.53184e-07
-6.46601e-07
-1.21373e-06
-9.77083e-07
-2.35444e-07
1.41077e-07
-7.52149e-07
-9.8861e-07
-1.24341e-06
-1.05946e-06
-3.08606e-07
2.15302e-07
3.77408e-07
3.86708e-07
-4.72179e-08
-7.96587e-07
-4.3829e-07
-3.39802e-07
-3.82343e-07
-4.53968e-07
-5.3579e-07
-3.46596e-07
-6.8061e-07
-3.24494e-07
-1.11559e-06
-5.28897e-07
-2.811e-07
4.6539e-07
-7.91002e-07
-9.55958e-07
-4.22083e-07
-1.76545e-07
2.63008e-07
-7.88656e-07
-3.07007e-07
-5.39745e-07
-2.27667e-07
-3.62095e-07
-9.89533e-07
-9.40871e-07
-1.82337e-07
-2.95976e-07
-6.58794e-07
-1.30541e-06
-6.87428e-07
-9.4413e-07
-4.7116e-07
-1.27074e-07
-6.57083e-07
-1.35418e-06
6.22392e-07
3.94725e-08
-1.97224e-07
2.36999e-07
1.53192e-06
-8.15701e-07
-2.65522e-07
1.74684e-06
5.93372e-07
3.94664e-07
1.33491e-06
-4.46897e-07
7.54757e-07
-6.54422e-07
1.32588e-06
-8.28929e-07
9.93737e-07
4.53228e-07
3.76045e-07
1.60247e-08
-3.64704e-08
1.05867e-07
-1.53966e-08
-5.78809e-07
6.14243e-07
5.05087e-07
-1.15895e-07
4.88529e-08
1.74108e-07
2.13155e-07
-3.46338e-07
-5.02219e-07
-4.1906e-07
-5.84603e-07
-5.53085e-07
5.88962e-07
-4.49389e-07
-3.91951e-07
1.04277e-06
-1.6638e-07
2.145e-07
3.17111e-07
9.57785e-07
-2.78867e-08
2.54041e-07
-6.70962e-08
-1.12097e-07
-1.33032e-07
-5.42429e-07
-5.15805e-07
-4.37081e-07
-6.25397e-07
1.96855e-06
-6.27609e-08
-4.7601e-07
-9.25196e-07
-1.98672e-07
-3.71576e-07
6.28187e-07
1.58041e-06
3.69491e-07
5.55772e-07
1.15825e-06
1.19709e-06
1.10753e-06
-1.73139e-06
-7.69836e-07
-6.96835e-08
5.28948e-07
-7.29123e-07
-1.42327e-07
6.07584e-07
5.37906e-07
-5.68557e-07
5.1761e-07
-9.47931e-07
-3.02198e-08
2.63137e-07
-2.81524e-07
-3.39635e-07
-5.05242e-07
-4.51027e-07
-4.95189e-07
-6.64472e-07
-4.24057e-07
-2.22154e-07
5.54577e-07
8.27983e-08
4.37578e-07
-5.47058e-07
-9.68553e-08
2.62205e-07
9.35849e-08
-2.82992e-08
-1.69848e-07
-1.15274e-07
-1.25783e-07
1.8952e-06
9.70227e-07
-5.50397e-07
)
;

boundaryField
{
    back
    {
        type            empty;
    }
    front
    {
        type            empty;
    }
    left
    {
        type            zeroGradient;
    }
    top
    {
        type            zeroGradient;
    }
    right
    {
        type            zeroGradient;
    }
    bottom
    {
        type            uniformFixedValue;
        uniformValue    
        {
            type            scale;
            scale           
            {
                type            squarePulse;
                start           0.3;
                duration        0.3;
            }
            xScale          
            {
                type            constant;
                value           1;
            }
            value           
            {
                type            constant;
                value           15.1;
            }
        }
        value           uniform 0;
    }
}


// ************************************************************************* //
