/*--------------------------------*- C++ -*----------------------------------*\
  =========                 |
  \\      /  F ield         | OpenFOAM: The Open Source CFD Toolbox
   \\    /   O peration     | Website:  https://openfoam.org
    \\  /    A nd           | Version:  9
     \\/     M anipulation  |
\*---------------------------------------------------------------------------*/
FoamFile
{
    format      ascii;
    class       surfaceScalarField;
    location    "0.65";
    object      phi;
}
// * * * * * * * * * * * * * * * * * * * * * * * * * * * * * * * * * * * * * //

dimensions      [0 3 -1 0 0 0 0];

internalField   nonuniform List<scalar> 
663
(
-2.49812e-12
1.19702e-12
1.3011e-12
1.61164e-12
2.05998e-12
-2.23175e-14
2.23176e-14
3.59094e-13
-1.7849e-13
-1.80604e-13
-9.27525e-13
2.53916e-12
1.19053e-15
-2.3508e-14
-1.44237e-12
-1.05575e-12
1.19998e-13
2.39096e-13
-1.5905e-12
5.43215e-13
1.04728e-12
1.0962e-12
-2.6867e-12
-2.44595e-12
3.64297e-12
2.01536e-12
-2.11984e-12
1.04477e-13
-8.99158e-13
2.24036e-12
-2.25004e-13
-5.3008e-13
9.62751e-13
-4.3267e-13
-6.27225e-13
9.71445e-14
4.7295e-13
-2.70416e-13
-2.02535e-13
4.59025e-13
1.39252e-14
1.65055e-14
-1.65055e-14
1.0351e-12
-1.15976e-12
1.2467e-13
-1.69956e-13
1.20505e-12
-4.38203e-13
-4.58678e-13
8.9688e-13
-9.83578e-13
5.45375e-13
-4.51093e-13
3.72322e-13
7.87707e-14
3.85386e-14
-2.17029e-13
-2.51825e-13
-1.99268e-13
-1.33186e-12
1.4202e-12
-8.83469e-14
3.82693e-13
-1.37688e-13
-2.45004e-13
-1.39487e-12
6.30087e-14
6.87684e-13
-5.84519e-13
-1.03165e-13
3.20314e-13
3.6737e-13
7.44835e-13
-3.99408e-13
-3.45427e-13
1.14636e-13
6.30199e-13
-4.24658e-13
1.82329e-13
2.4233e-13
3.67094e-14
-4.61368e-13
2.94111e-13
1.64914e-13
7.71423e-13
-4.77312e-13
-5.98183e-14
7.63239e-14
9.55025e-14
2.8719e-13
4.50325e-13
1.58816e-14
-4.66207e-13
-5.8447e-13
-5.75295e-13
1.00728e-12
-1.18383e-12
1.76546e-13
2.37025e-14
1.02044e-12
3.99766e-13
-1.0994e-12
-1.76899e-13
-5.67723e-13
1.1244e-12
-5.56672e-13
-1.05253e-12
9.75859e-13
7.66666e-14
-1.71826e-13
1.71826e-13
-1.97507e-13
4.21898e-13
-1.00637e-12
5.129e-13
9.5873e-14
-6.08773e-13
-1.01568e-12
1.84278e-13
8.31404e-13
4.27293e-14
-7.51901e-13
7.09172e-13
1.25047e-12
-1.20774e-12
-3.01896e-13
8.14796e-13
-8.69619e-13
-4.60695e-13
-3.21254e-13
7.81948e-13
7.1052e-13
-1.17121e-12
-8.17162e-13
-1.9852e-13
-7.63239e-14
-1.92102e-12
2.51368e-12
-5.92659e-13
-6.83352e-13
1.66842e-14
6.66668e-13
4.87435e-13
-7.90701e-13
3.03265e-13
-1.00454e-12
2.10074e-12
-2.0065e-13
-5.51251e-13
-2.43666e-13
5.44363e-13
-3.00697e-13
2.67699e-13
-2.34147e-12
-3.0373e-14
1.28084e-12
1.00347e-12
-2.92945e-13
-2.92556e-12
-7.5108e-13
-6.43785e-13
-3.42336e-13
-7.1019e-13
3.71168e-13
-9.30286e-13
5.59118e-13
-3.21583e-13
5.38535e-13
-7.82201e-13
-1.23491e-12
2.53601e-12
-8.19303e-13
4.9805e-13
2.11671e-13
2.18042e-12
3.71472e-13
-2.55189e-12
-1.49372e-13
1.4263e-13
6.74241e-15
1.87172e-13
-1.0047e-12
8.17525e-13
5.53467e-14
1.5575e-14
-7.09217e-14
2.36759e-12
-5.22043e-13
-1.61309e-13
9.35762e-13
1.57791e-12
-9.40255e-14
-5.61062e-13
4.31472e-13
1.29591e-13
1.01569e-12
-6.44519e-13
1.77493e-12
-2.55409e-12
-2.11343e-13
-3.04689e-13
5.16032e-13
-1.80432e-12
-5.63788e-13
2.3681e-12
8.00471e-14
-2.91391e-13
5.55219e-13
-3.31868e-13
-3.7065e-14
1.79695e-13
1.22872e-13
-5.19131e-13
3.96259e-13
4.58296e-13
-1.35745e-12
-3.69344e-13
-1.91718e-13
-1.55114e-13
1.13097e-12
2.67347e-13
-6.36691e-13
1.69837e-13
-5.69245e-13
3.52166e-13
-1.0047e-12
1.55751e-14
1.26752e-14
5.31688e-13
-1.58255e-13
1.93318e-12
-1.04931e-12
1.30671e-12
-2.57399e-13
-1.45545e-13
-3.06302e-13
4.51846e-13
7.82059e-13
-2.92014e-13
1.22995e-12
-1.10708e-12
-6.51558e-14
4.96628e-13
-3.96728e-13
6.64075e-13
-8.17525e-13
6.5927e-13
7.09568e-14
7.09217e-14
-1.41879e-13
-5.19131e-13
3.66084e-13
-2.95127e-13
-1.20442e-12
-7.76131e-13
1.23443e-12
1.67905e-12
-7.4329e-13
-2.10239e-12
1.04664e-12
4.81423e-13
-7.19147e-13
5.73603e-13
1.13409e-12
5.44965e-13
1.09549e-13
-4.1585e-13
4.32962e-13
-3.96253e-13
7.90659e-13
-7.90659e-13
2.55102e-13
-6.5183e-13
-1.25247e-13
-5.412e-13
6.66447e-13
6.5927e-13
-1.41878e-13
1.31961e-13
-3.76965e-13
-4.02157e-13
4.02157e-13
2.34709e-13
-3.59955e-13
5.31893e-13
-9.39197e-13
6.46251e-13
5.98919e-13
-2.34709e-13
9.28302e-14
-1.11781e-13
-8.18505e-13
-4.43445e-13
6.98548e-13
2.72058e-13
-6.38022e-13
-1.52679e-13
-4.42869e-13
4.07118e-14
1.84609e-13
-6.28054e-13
-8.16937e-13
1.65107e-13
1.38668e-12
-4.35459e-13
-9.51219e-13
-3.86059e-13
-3.33088e-13
1.40139e-13
3.59955e-13
4.22022e-14
-3.06777e-13
3.63617e-14
-4.28724e-13
6.13333e-13
3.57955e-13
5.11038e-13
1.42215e-12
3.14672e-13
-9.18958e-13
6.04286e-13
1.01728e-13
-5.30452e-13
-1.00823e-13
6.59941e-13
-4.42869e-13
5.74996e-14
-5.00369e-13
8.41736e-13
-5.27064e-13
-9.89702e-13
1.0472e-12
6.9832e-14
-4.21403e-13
3.51571e-13
1.83655e-13
-1.83655e-13
9.46578e-14
8.89975e-14
2.08895e-12
2.84478e-13
-3.96259e-13
-9.99878e-13
-2.84478e-13
-8.29789e-14
1.92527e-13
-3.3777e-13
4.39498e-13
-3.13733e-13
-2.40364e-14
6.87474e-13
6.99204e-13
8.30043e-14
-9.59603e-14
1.29561e-14
7.33019e-13
-1.04675e-12
-8.46824e-14
3.09137e-13
-2.24455e-13
-7.5782e-15
7.5782e-15
7.54262e-14
-8.4711e-14
1.54543e-13
8.4711e-14
-7.71327e-14
7.00603e-14
-1.54743e-13
7.00602e-14
1.1679e-14
-9.46579e-14
-1.08708e-12
-9.89656e-14
1.18605e-12
-1.16789e-14
8.17392e-14
4.48972e-13
-4.48972e-13
4.38917e-14
-2.32034e-13
-9.39181e-13
-1.08872e-12
8.56686e-13
-1.15966e-12
-1.17576e-12
1.14539e-12
1.02882e-14
-1.0295e-12
-5.9216e-14
5.03152e-13
-4.92863e-13
-1.17239e-12
1.42885e-13
4.92863e-13
5.03152e-13
4.76148e-13
-4.76148e-13
4.16932e-13
-1.54743e-13
2.67699e-13
-2.90627e-13
2.90627e-13
-5.00369e-13
1.54543e-13
4.79239e-13
-4.79239e-13
4.16932e-13
7.54262e-14
2.70032e-14
7.115e-14
-2.24686e-13
-1.80172e-13
-4.45141e-14
-1.09022e-13
-4.14448e-13
-6.35365e-13
1.04981e-12
-2.73092e-13
1.64069e-13
3.01735e-14
-3.84275e-13
-9.42606e-13
3.07241e-13
-5.36098e-13
-4.06508e-13
6.2064e-13
-8.97647e-13
1.20489e-12
1.13775e-13
2.19506e-13
4.97019e-13
-7.16524e-13
8.35354e-13
-6.15849e-13
-4.22323e-13
-4.26653e-13
9.23671e-13
1.98317e-13
-6.37914e-13
-7.86102e-14
4.28846e-13
-4.17532e-13
2.49136e-13
-6.29187e-13
-3.88778e-13
9.36443e-14
-1.2533e-12
-5.68657e-13
4.90047e-13
-4.06725e-13
-6.28198e-13
5.95413e-14
-1.39141e-13
6.53105e-13
-4.18305e-13
-2.348e-13
6.29628e-13
2.79824e-13
-6.68602e-13
-3.48374e-13
-1.78182e-13
7.91514e-13
-4.06725e-13
3.0473e-13
-6.5225e-13
4.76917e-13
1.75333e-13
-3.18016e-13
6.22746e-13
6.91413e-13
-1.55309e-13
-5.36104e-13
3.398e-13
-6.57816e-13
3.58739e-13
-1.00402e-12
6.4528e-13
-3.1245e-13
1.20048e-12
3.78963e-13
6.28589e-13
-1.09858e-12
6.65909e-13
-7.52637e-13
-2.51383e-13
-9.57676e-13
-3.10175e-13
6.89137e-13
3.08481e-13
-8.35545e-13
-4.53299e-13
-8.67965e-13
4.44156e-13
-7.54331e-13
-8.25112e-14
-3.34421e-13
3.34421e-13
4.11446e-13
-9.22749e-13
8.72039e-14
5.62613e-13
3.63064e-14
1.04606e-13
-7.65017e-13
1.43093e-12
-2.27949e-13
-6.948e-13
9.15258e-14
2.42895e-13
1.39685e-12
-8.5188e-13
-3.07006e-13
-1.14691e-12
-3.82502e-13
-7.64405e-13
1.01434e-12
-7.34854e-13
-8.0865e-13
1.13383e-13
7.37777e-13
-2.42895e-13
8.81523e-14
-9.8863e-14
1.71238e-14
1.23707e-12
-3.46933e-13
-8.44874e-13
2.39423e-12
-1.54935e-12
4.36048e-13
7.48981e-13
2.24419e-14
2.81232e-13
3.76584e-13
-6.81808e-14
1.56229e-12
-3.26853e-13
1.12816e-12
1.02537e-12
-6.6741e-13
3.7499e-14
7.16832e-13
-4.55206e-13
1.69228e-12
-6.41073e-14
1.84105e-13
1.71284e-12
-2.23534e-13
-3.60986e-13
-5.25151e-13
-3.72305e-13
3.72305e-13
9.27872e-13
8.77043e-13
3.28009e-13
1.54839e-12
-1.96641e-13
6.37544e-14
-6.37544e-14
1.27105e-12
-3.69152e-13
6.73347e-13
-1.02293e-13
1.02293e-13
-3.06783e-13
-3.81858e-14
3.81858e-14
-9.13649e-13
-2.51452e-12
-1.33932e-12
-3.68686e-13
-8.27886e-15
-3.00778e-13
4.22362e-13
-4.36999e-13
1.01742e-12
1.19052e-15
1.01742e-12
1.19052e-15
-1.2781e-12
3.33808e-12
3.38953e-14
-1.15778e-14
-1.87626e-13
-1.67656e-14
-1.27271e-14
3.07918e-12
2.06174e-15
-1.85672e-14
1.70718e-13
2.62244e-13
5.65655e-13
-3.98292e-13
6.88499e-15
3.13008e-14
-3.90893e-13
7.87141e-13
-1.83674e-13
-1.23103e-13
3.90893e-13
1.29483e-12
-7.8113e-13
-2.67569e-13
3.05461e-13
1.70425e-13
-6.92369e-14
1.4637e-13
-9.23275e-14
-3.36711e-13
-5.9681e-13
-2.86035e-13
-2.8889e-13
1.11788e-13
-1.25713e-13
-8.75206e-13
4.46359e-13
2.22447e-13
-2.22447e-13
4.74519e-13
7.56721e-13
-7.18744e-13
-1.4359e-13
7.40418e-13
-1.48634e-12
2.09935e-12
3.38953e-14
2.16553e-12
6.88497e-15
1.36076e-12
2.14854e-14
1.0017e-12
-1.0017e-12
2.06175e-15
-9.27042e-13
2.06175e-15
-7.83993e-13
-1.9027e-12
1.33409e-13
-1.41688e-13
1.38258e-13
-1.68117e-13
2.98591e-14
-4.85421e-13
-1.5127e-13
5.65655e-13
-6.40979e-14
4.24176e-14
-1.44106e-12
-2.67569e-13
-1.70425e-13
-1.68316e-14
1.11788e-13
1.25713e-13
6.38588e-13
7.63258e-13
-7.71644e-13
-2.2627e-13
-3.50538e-13
-9.62046e-15
-8.94673e-15
7.37183e-14
)
;

boundaryField
{
    back
    {
        type            empty;
        value           nonuniform List<scalar> 0();
    }
    front
    {
        type            empty;
        value           nonuniform List<scalar> 0();
    }
    left
    {
        type            calculated;
        value           uniform 0;
    }
    top
    {
        type            calculated;
        value           uniform 0;
    }
    right
    {
        type            calculated;
        value           uniform 0;
    }
    bottom
    {
        type            calculated;
        value           nonuniform List<scalar> 8(-3.67161e-12 -1.35175e-12 3.42817e-12 -1.94495e-12 -3.37745e-12 1.92874e-12 3.60659e-12 1.38225e-12);
    }
}


// ************************************************************************* //
