/*--------------------------------*- C++ -*----------------------------------*\
  =========                 |
  \\      /  F ield         | OpenFOAM: The Open Source CFD Toolbox
   \\    /   O peration     | Website:  https://openfoam.org
    \\  /    A nd           | Version:  9
     \\/     M anipulation  |
\*---------------------------------------------------------------------------*/
FoamFile
{
    format      ascii;
    class       volVectorField;
    location    "0.65";
    object      U;
}
// * * * * * * * * * * * * * * * * * * * * * * * * * * * * * * * * * * * * * //

dimensions      [0 1 -1 0 0 0 0];

internalField   nonuniform List<vector> 
464
(
(-3.22412e-05 -6.46512e-05 6.26662e-25)
(-2.19026e-05 9.74201e-05 0)
(2.36164e-07 3.35934e-07 0)
(8.46216e-06 -3.63538e-07 2.10721e-23)
(-1.54056e-05 8.07433e-05 0)
(1.96036e-07 3.0305e-07 -9.23661e-24)
(-3.2201e-05 -4.64995e-05 2.39214e-23)
(8.02796e-06 -1.65766e-06 0)
(-3.84545e-05 5.12354e-06 -6.69073e-24)
(-3.6785e-05 4.28488e-05 -2.08771e-23)
(-2.59158e-05 -8.2417e-05 1.92195e-24)
(-1.12488e-05 -6.63414e-05 -2.04105e-24)
(-3.52154e-05 -1.42386e-05 -1.10957e-23)
(-8.69283e-06 -5.88245e-05 0)
(-5.4014e-06 -2.66015e-05 2.9049e-23)
(-3.20293e-06 -1.90936e-05 -5.05829e-23)
(-3.96602e-06 1.23527e-05 0)
(-2.53404e-06 1.22045e-05 9.05932e-24)
(3.92259e-07 -2.73216e-07 2.4063e-24)
(-2.04916e-06 3.51991e-05 2.08888e-23)
(-2.334e-07 3.7395e-05 -3.19937e-23)
(8.76771e-06 2.67149e-05 1.06253e-23)
(9.70858e-06 2.78748e-05 -4.5837e-24)
(9.6466e-06 2.91925e-06 0)
(6.08747e-06 2.24995e-07 -2.16424e-23)
(9.58483e-06 4.80352e-06 1.46926e-23)
(-5.15113e-06 -3.79398e-05 -3.51912e-23)
(5.00961e-06 -7.12554e-06 3.05094e-24)
(-7.15269e-06 -4.26752e-05 0)
(8.66403e-06 1.51273e-05 0)
(1.06315e-05 1.28285e-05 2.15508e-24)
(-1.16228e-05 -1.43375e-05 -1.30242e-25)
(-9.44956e-06 -1.68996e-05 3.30058e-24)
(-8.34102e-06 -2.71436e-06 1.28477e-23)
(-1.04044e-05 -6.58641e-07 -1.29484e-23)
(-2.45643e-06 1.57671e-05 -1.30692e-23)
(-4.67781e-06 2.1147e-05 1.11504e-23)
(9.36676e-07 -1.67921e-06 6.27701e-25)
(3.85679e-06 -8.61456e-06 1.70847e-24)
(-3.20788e-06 -1.39829e-05 0)
(-3.94559e-06 3.45842e-05 2.3524e-23)
(5.51857e-06 3.40494e-05 0)
(7.87202e-06 3.116e-05 -1.13662e-23)
(-4.67631e-06 -4.44445e-05 -5.62929e-23)
(-9.85065e-06 -5.76257e-05 5.73721e-23)
(-4.87624e-06 -1.89939e-05 2.23757e-24)
(1.2135e-05 -2.2725e-05 7.12508e-24)
(3.39811e-06 -2.64629e-05 3.17867e-24)
(8.58066e-07 -3.24901e-06 0)
(2.6735e-06 -3.94651e-06 -6.07726e-25)
(-3.81728e-06 3.53183e-05 -1.41992e-23)
(4.42827e-06 -1.46221e-05 9.23399e-25)
(-1.60072e-06 2.56653e-05 -4.61943e-25)
(1.52314e-06 -2.35106e-05 -2.09213e-23)
(1.3052e-06 -3.44934e-05 -6.5584e-25)
(6.43024e-06 -1.99188e-05 -5.21093e-24)
(1.05676e-05 -2.09193e-05 0)
(-1.25466e-05 -1.8396e-05 0)
(-9.91821e-06 -2.66319e-05 -4.02659e-23)
(-3.0626e-06 2.74863e-05 0)
(1.43421e-06 -4.50157e-06 -1.75037e-23)
(-1.9292e-05 6.73952e-05 1.06794e-22)
(-1.58698e-05 -8.58272e-06 6.37115e-23)
(-7.30363e-06 -1.57084e-05 -2.57496e-23)
(-3.11793e-05 5.20131e-05 -4.76885e-24)
(4.7484e-06 -1.57813e-05 -1.97212e-23)
(-9.54791e-06 -1.19347e-05 -4.63167e-23)
(1.62235e-06 -8.15563e-06 2.19278e-23)
(-1.89177e-05 -7.63912e-05 -1.96846e-23)
(-8.63364e-07 -3.70498e-05 2.61498e-23)
(-8.93669e-06 -2.54248e-05 4.0183e-23)
(-2.46693e-05 7.06391e-05 -5.49756e-23)
(-7.1934e-06 -3.7074e-05 0)
(5.73343e-06 -2.6646e-05 4.00052e-25)
(-6.86201e-06 2.28017e-05 -6.95216e-23)
(6.33095e-06 -1.31543e-05 -4.84569e-24)
(-1.16416e-05 -1.44419e-05 -4.46892e-23)
(-3.53964e-05 -5.44789e-05 -2.69673e-23)
(-1.18866e-05 -1.39207e-05 -2.7731e-23)
(-3.77748e-06 -2.81749e-05 2.49921e-23)
(-1.4372e-05 7.65721e-05 0)
(2.26957e-06 2.29239e-06 8.9554e-24)
(-3.55497e-06 3.48156e-05 -1.16239e-22)
(8.02699e-07 1.58157e-06 5.76307e-23)
(-9.20864e-06 6.16796e-05 0)
(-1.43521e-05 -1.44108e-05 -1.2503e-25)
(-2.12332e-05 5.7828e-05 -5.23868e-23)
(2.40202e-06 3.64187e-06 0)
(1.30659e-05 -3.51039e-06 0)
(-1.18406e-05 2.46297e-05 -5.07937e-23)
(-1.17838e-05 6.34249e-05 7.74295e-23)
(-2.19168e-05 8.24168e-05 0)
(-1.11961e-05 -1.48371e-06 4.88505e-23)
(-1.5112e-05 -8.03336e-05 -4.95265e-23)
(-9.26127e-06 1.75949e-06 -4.80571e-23)
(-1.48195e-05 -1.00241e-05 -3.22855e-23)
(-9.10252e-06 -2.15142e-05 2.77954e-23)
(4.15888e-06 2.83386e-06 -8.21327e-24)
(-1.76584e-06 1.7396e-05 -1.01593e-22)
(-3.31773e-05 1.92903e-06 4.38104e-24)
(1.35858e-05 4.20221e-07 0)
(4.06679e-06 -3.19202e-05 4.04844e-24)
(1.51728e-05 3.16592e-06 0)
(-1.1127e-05 -9.65608e-06 1.27447e-25)
(-8.6608e-06 -7.58302e-06 0)
(-2.38921e-06 2.09341e-05 -8.1751e-23)
(3.06575e-07 2.3758e-07 0)
(-1.13982e-05 -7.91689e-06 4.54304e-23)
(-7.13707e-06 5.05039e-05 -7.75154e-23)
(5.89054e-06 -3.25365e-05 0)
(-9.73385e-06 8.78911e-06 0)
(9.37416e-06 -2.75144e-05 -7.27365e-24)
(-9.30028e-06 -5.03907e-06 0)
(-5.33308e-06 3.16789e-05 7.33267e-23)
(1.40748e-05 -6.83848e-06 3.08172e-25)
(1.69739e-05 6.48529e-07 -2.98845e-25)
(-2.4671e-06 2.80497e-05 1.11097e-22)
(1.17521e-06 4.20132e-06 6.9242e-23)
(-1.09983e-06 1.02303e-05 8.17435e-23)
(3.52116e-06 8.43017e-06 -3.39959e-24)
(6.6758e-06 -3.29118e-05 1.04552e-23)
(-3.06062e-05 -1.32155e-05 -1.87247e-25)
(-2.70307e-05 4.13344e-05 2.68965e-23)
(-2.72839e-05 -5.36787e-05 -1.88984e-23)
(-1.12996e-05 -2.08246e-05 0)
(-1.23288e-05 1.18628e-05 4.98697e-23)
(-2.73129e-05 2.6532e-05 -2.71309e-23)
(-5.60158e-06 7.97611e-06 0)
(-1.02355e-05 3.62137e-06 0)
(-1.64181e-06 1.64162e-05 9.00528e-23)
(5.89507e-07 1.35281e-06 -4.47577e-23)
(-1.74322e-06 -1.69721e-05 -7.63381e-23)
(6.44605e-07 -1.36873e-06 1.4289e-23)
(1.74622e-05 4.60266e-06 0)
(3.81357e-06 1.95603e-05 0)
(-1.28079e-06 1.30467e-05 -8.81085e-23)
(7.19103e-07 2.90323e-06 -1.06657e-22)
(8.41844e-06 -7.86584e-06 -8.27431e-24)
(-3.13714e-05 3.34839e-05 2.61514e-23)
(4.37856e-07 8.4101e-06 3.99752e-23)
(1.45267e-06 1.15109e-05 0)
(-1.14443e-05 5.0029e-06 0)
(-5.34549e-06 -2.44268e-05 -3.15329e-24)
(1.62399e-05 -5.99743e-06 1.48035e-23)
(1.41854e-06 7.52929e-06 6.68392e-23)
(-4.80739e-06 2.36747e-05 -7.25636e-23)
(1.76504e-05 6.5268e-07 0)
(4.61655e-06 6.91617e-06 0)
(-4.17712e-06 -2.34602e-05 1.29818e-24)
(6.92852e-07 1.68406e-05 -8.91043e-23)
(1.66078e-05 6.38613e-06 9.24757e-25)
(1.55582e-05 1.22079e-05 2.90038e-23)
(-2.15937e-05 -2.52067e-05 1.01791e-23)
(-1.06691e-05 1.63335e-05 -5.00908e-23)
(-2.01616e-06 2.23643e-05 -9.12181e-26)
(1.06226e-06 1.48688e-05 -6.27522e-23)
(-2.9449e-06 7.58729e-06 0)
(1.55252e-05 1.1538e-06 0)
(-2.90123e-05 5.6796e-07 -5.86356e-24)
(-9.72917e-06 5.15763e-05 7.7953e-23)
(-2.33574e-05 1.0888e-07 0)
(1.34159e-05 7.79335e-06 -2.43244e-23)
(-4.30653e-06 1.64399e-05 1.37743e-22)
(3.01185e-07 9.35908e-06 6.69338e-24)
(1.87231e-07 1.83752e-05 3.26981e-23)
(8.2923e-07 4.94503e-06 0)
(-2.19124e-05 -6.92023e-06 -1.16022e-23)
(4.44797e-07 3.09705e-05 2.5501e-23)
(-3.7451e-06 -9.71577e-06 -2.61509e-23)
(-7.85028e-07 3.59292e-06 1.41377e-22)
(-1.25123e-06 5.30134e-06 -1.91402e-24)
(-1.64616e-05 5.50835e-05 -5.40916e-23)
(-1.59277e-06 1.29204e-05 -2.65956e-24)
(5.59844e-06 2.58803e-05 -1.05564e-23)
(-1.41988e-06 8.89514e-06 2.22507e-24)
(-3.59179e-06 3.9889e-06 -6.40453e-23)
(1.11537e-05 8.32369e-07 2.40263e-23)
(8.15118e-06 8.44857e-06 -9.39683e-26)
(-2.06544e-05 -3.54872e-05 1.57156e-23)
(-3.44044e-06 1.91192e-06 -3.44254e-24)
(7.22657e-06 2.3409e-05 2.57826e-23)
(-3.65325e-06 -7.33876e-06 6.12287e-23)
(-6.65823e-07 -1.15701e-07 0)
(-1.0289e-06 1.11989e-06 4.11048e-23)
(-9.33272e-07 -4.94977e-06 4.70947e-24)
(-1.10305e-06 -1.89944e-06 1.1963e-24)
(-1.22761e-06 -4.23871e-06 0)
(-7.03691e-07 -1.41935e-06 -6.38904e-23)
(-8.87632e-07 5.57265e-06 -1.48772e-22)
(-1.17856e-06 2.02227e-06 1.45866e-25)
(1.84912e-06 -3.50524e-05 -1.5489e-26)
(-1.17094e-06 -1.05466e-06 7.99206e-23)
(5.39555e-07 -8.93858e-06 9.05157e-24)
(2.00584e-06 -3.01075e-05 -7.28233e-24)
(-7.24215e-06 -3.114e-05 4.04593e-26)
(-4.37109e-06 -3.00067e-05 -4.05877e-26)
(-3.2503e-07 3.55137e-05 -2.34475e-23)
(3.05077e-06 -3.62421e-05 1.53241e-26)
(-6.30482e-07 -1.75819e-06 3.96673e-23)
(-5.28414e-07 -3.58119e-05 2.8109e-23)
(4.40482e-07 -3.19771e-05 0)
(-2.43175e-06 -2.87813e-05 0)
(1.5332e-07 -1.88475e-05 0)
(-2.70021e-06 -3.39861e-05 3.31019e-26)
(-7.07474e-07 1.97244e-07 0)
(7.48722e-07 -1.77558e-05 -7.40954e-24)
(-7.30122e-08 -1.01221e-05 0)
(-3.69021e-07 -9.57142e-06 -3.11933e-23)
(-9.02094e-07 -1.68826e-05 5.3587e-23)
(-9.78228e-07 7.78524e-06 7.75377e-23)
(7.59832e-07 7.30696e-06 4.68785e-23)
(-7.30863e-07 -3.12077e-06 0)
(8.66422e-07 -5.23605e-06 -1.83828e-23)
(-6.39733e-07 6.66136e-06 1.06009e-23)
(-1.04642e-07 1.01585e-05 0)
(-7.17682e-07 1.83202e-06 -6.82154e-23)
(-5.4222e-07 -3.32307e-06 -4.2297e-23)
(2.44843e-07 -9.902e-06 4.17414e-24)
(-1.19704e-06 -1.02397e-05 3.11036e-25)
(-5.97434e-07 -8.38147e-06 -4.28768e-23)
(-6.96395e-07 1.43692e-06 -3.05862e-23)
(-4.15091e-07 -1.85194e-05 3.90124e-23)
(-1.11882e-06 -3.1451e-05 -2.81428e-23)
(-1.53356e-06 -1.6313e-05 4.59733e-23)
(4.93344e-06 8.12807e-07 2.48636e-23)
(1.51226e-06 9.24708e-06 -2.35219e-23)
(-1.71626e-06 1.1469e-06 0)
(-8.99803e-06 2.27148e-05 9.6871e-24)
(-4.68654e-06 8.7705e-06 -5.31609e-25)
(-7.70209e-06 3.90337e-07 -2.27667e-23)
(-1.02721e-05 8.1981e-06 2.25654e-23)
(-9.67936e-06 2.57756e-05 -1.02155e-24)
(-1.24789e-05 1.89012e-05 0)
(-1.47064e-05 -1.14814e-05 -3.06971e-23)
(-7.27943e-06 3.09028e-05 6.28844e-24)
(-1.25751e-05 7.97866e-07 0)
(-1.33341e-05 1.52658e-05 -8.36507e-25)
(-1.43827e-05 1.45589e-05 -9.86376e-25)
(-1.401e-05 7.16883e-06 2.13408e-23)
(-9.63196e-06 1.87653e-05 -3.75068e-24)
(-1.55013e-05 4.67093e-07 -2.18143e-23)
(-1.48432e-05 1.02246e-05 -8.31943e-24)
(-1.23259e-05 2.05824e-05 1.02012e-23)
(-1.60628e-05 5.45131e-06 0)
(-1.67811e-05 2.63889e-07 0)
(-7.29072e-06 1.53496e-05 -2.43534e-24)
(-1.66447e-05 3.69689e-06 -4.1579e-25)
(-9.99097e-07 3.13587e-05 0)
(-1.31074e-05 9.54855e-06 0)
(-6.9581e-07 1.77547e-05 0)
(-1.45596e-05 5.46453e-06 -6.41524e-24)
(-9.46633e-06 1.14359e-05 1.07858e-23)
(-1.55336e-05 -2.22314e-06 -3.25699e-23)
(-1.36217e-05 1.93015e-05 5.09507e-23)
(-1.68307e-05 1.29196e-07 0)
(-1.64102e-05 1.91614e-06 0)
(1.48634e-05 -1.17712e-05 0)
(-7.85258e-07 9.0629e-06 1.10886e-24)
(-1.64044e-05 3.58161e-08 -1.85899e-23)
(-1.50193e-05 -3.62911e-06 0)
(-1.61279e-05 2.43169e-07 1.77019e-23)
(-1.64189e-05 4.29986e-06 6.51745e-23)
(-1.65635e-05 -7.59261e-08 1.81401e-23)
(-1.63155e-05 -2.03724e-05 5.23222e-24)
(-1.68326e-05 -1.2566e-06 -1.81406e-23)
(-1.9474e-05 -1.96701e-05 -1.88171e-23)
(-1.7436e-05 1.49665e-07 -4.89512e-26)
(1.13747e-05 -9.97741e-06 -3.01211e-25)
(-1.0046e-05 -2.97692e-05 -2.03269e-23)
(-1.7516e-05 -1.37749e-05 -5.30312e-24)
(3.36169e-06 2.61414e-05 -3.60885e-23)
(-1.78762e-05 -2.7845e-06 0)
(-2.11375e-05 -2.59196e-08 1.13427e-23)
(-1.17984e-05 -2.43555e-05 -9.34018e-24)
(-2.76891e-05 -3.91695e-05 3.90423e-24)
(-1.89901e-05 9.67891e-08 0)
(-1.98097e-05 -4.7914e-06 0)
(-3.323e-06 -2.44031e-05 -5.01322e-23)
(-7.23597e-07 -6.74015e-06 0)
(-7.62856e-06 3.14307e-05 -1.41307e-24)
(-1.99207e-05 1.1803e-05 1.77123e-25)
(1.57952e-05 -1.10171e-05 1.84101e-25)
(-1.21365e-06 -1.42192e-05 0)
(4.12626e-06 -2.06975e-05 5.3618e-24)
(-1.36681e-05 -3.429e-05 -1.79932e-23)
(-1.93813e-05 1.97182e-05 -3.01383e-23)
(-1.33609e-06 -1.09468e-05 -7.30088e-23)
(-2.37849e-05 3.34272e-05 0)
(1.27493e-05 -1.61622e-05 0)
(-2.19894e-05 1.62769e-05 3.09078e-23)
(-2.13904e-05 2.62301e-05 1.68841e-25)
(-2.43335e-05 2.12011e-05 -1.58482e-25)
(1.51754e-05 -1.53155e-05 -1.53692e-23)
(7.30957e-06 -2.21615e-05 3.93766e-23)
(-1.4571e-05 -5.43983e-06 3.33001e-23)
(-3.72241e-06 -1.89275e-05 1.09977e-22)
(-1.3055e-06 -7.53913e-06 0)
(-5.34843e-06 1.4022e-06 1.02411e-24)
(-5.4031e-06 -4.98513e-06 -6.1366e-23)
(-1.86206e-05 4.67388e-05 5.36125e-23)
(-1.8447e-05 -2.77734e-05 1.11932e-23)
(-2.41757e-05 -8.80836e-06 -9.90867e-24)
(-1.74556e-05 -5.5061e-05 -6.61422e-23)
(-8.90675e-06 -6.49008e-05 6.17129e-23)
(-4.67957e-06 2.48627e-05 -7.01828e-25)
(-1.43643e-05 -9.37198e-07 -3.37719e-23)
(-1.47378e-05 3.65144e-06 -6.55279e-23)
(-2.82948e-06 2.19705e-05 -2.53501e-24)
(-6.01657e-06 4.05545e-05 -1.5344e-22)
(-3.86511e-06 9.94764e-06 -6.68914e-23)
(-3.31937e-06 -3.40378e-05 -2.6156e-23)
(1.68783e-05 -9.06579e-06 6.68666e-25)
(-1.59015e-05 -5.42823e-06 0)
(-2.6943e-05 -1.09539e-05 -1.80313e-24)
(-1.58234e-05 8.52851e-06 -6.50107e-23)
(-1.74951e-05 1.37781e-05 0)
(-7.53276e-07 -4.9049e-06 5.78802e-23)
(-1.45328e-05 4.39541e-05 0)
(5.16026e-06 -1.30692e-06 0)
(-2.43175e-05 -3.21525e-05 -1.5997e-23)
(8.71902e-06 1.92783e-05 3.2706e-23)
(-5.60026e-06 -1.14865e-05 -2.11453e-25)
(-8.48707e-06 4.0975e-05 7.64422e-23)
(-3.54441e-06 -1.6549e-06 6.28682e-23)
(-2.57783e-05 6.32624e-07 1.7775e-23)
(1.23252e-06 -1.53844e-05 5.23533e-24)
(1.57067e-06 -1.19735e-05 1.89117e-23)
(-2.37035e-05 -4.4346e-05 1.65549e-23)
(1.03242e-05 -1.38588e-05 0)
(-1.66764e-05 3.67278e-05 -5.2724e-23)
(2.42476e-06 3.60623e-05 -1.60043e-23)
(-3.68669e-05 3.56441e-05 -2.50621e-24)
(1.3282e-06 1.30719e-07 -9.10543e-24)
(-1.56211e-05 9.20524e-07 6.53284e-23)
(-4.47339e-06 -3.51724e-05 -3.2938e-26)
(1.06047e-05 -1.43271e-05 -1.9014e-23)
(1.07984e-05 2.17117e-05 -3.22305e-23)
(1.83176e-06 -1.80301e-07 -1.50611e-23)
(-6.15369e-06 1.50126e-05 -1.36226e-24)
(3.1878e-06 3.62837e-05 3.05262e-23)
(7.98865e-07 -3.00031e-07 7.87688e-24)
(-3.08833e-05 -9.10668e-05 0)
(-1.50994e-05 2.76033e-05 -6.72195e-25)
(-1.31043e-05 3.38549e-05 5.23419e-23)
(-1.79217e-05 7.85077e-06 3.20499e-23)
(8.22655e-06 -5.23447e-06 3.63246e-24)
(7.8789e-07 -7.35932e-06 -2.66824e-23)
(-9.586e-06 -1.8837e-05 4.45592e-23)
(3.2744e-06 1.10851e-08 1.84357e-23)
(-7.18891e-06 -3.12416e-05 0)
(1.21046e-05 -1.9222e-05 -3.84608e-25)
(2.7106e-06 -4.98909e-07 -8.95922e-24)
(-3.77646e-06 -1.31289e-05 0)
(-5.66854e-06 -1.80447e-05 -5.57017e-23)
(9.79288e-06 -2.82099e-05 -1.06358e-23)
(-7.12378e-06 5.30423e-05 6.58182e-23)
(-9.85832e-08 3.03175e-08 0)
(-2.08386e-06 2.36534e-05 -3.55383e-23)
(1.80367e-08 -8.90688e-08 -1.64769e-23)
(-2.76556e-05 9.55839e-05 0)
(1.25031e-06 7.06797e-07 -1.54022e-23)
(-3.84744e-05 -1.30307e-05 1.41976e-23)
(8.8034e-07 9.08297e-07 9.87561e-24)
(-1.20287e-05 7.27057e-05 0)
(-2.34471e-05 -8.97642e-05 1.48077e-24)
(2.20161e-07 -1.18175e-07 -3.30125e-24)
(1.01515e-05 -3.69815e-06 0)
(-8.32499e-06 5.57726e-06 0)
(-3.36315e-06 -3.01914e-05 0)
(5.145e-06 1.21783e-05 2.85352e-23)
(1.01523e-06 -5.21013e-07 0)
(-1.76078e-06 -2.46763e-05 1.51857e-22)
(-1.26765e-05 -3.94268e-05 -1.62898e-24)
(-4.42555e-06 6.81732e-06 0)
(-2.16992e-06 -1.93314e-05 4.79528e-24)
(1.12819e-05 1.16526e-06 0)
(-1.6314e-05 -6.11978e-05 3.78847e-23)
(3.71987e-06 3.04628e-05 6.106e-23)
(-1.4369e-06 -1.55422e-05 1.45925e-22)
(5.20987e-06 1.82423e-05 1.33892e-23)
(-8.0753e-07 -7.43612e-06 0)
(-5.23642e-06 -7.82065e-06 2.78306e-23)
(-4.90372e-06 -1.0577e-06 0)
(-1.40943e-05 -6.72547e-06 -9.08704e-25)
(-1.31645e-05 3.84304e-06 1.17664e-24)
(-1.52353e-05 -1.30559e-05 0)
(-1.34307e-05 -1.81488e-06 -2.56674e-24)
(6.72769e-06 4.83517e-06 -1.69703e-23)
(-1.08761e-06 3.9766e-06 0)
(-9.89895e-07 9.15964e-06 0)
(-7.16972e-06 2.84821e-05 4.72374e-25)
(-8.19577e-06 2.20211e-05 0)
(-7.97969e-07 1.17602e-05 -1.1153e-23)
(-1.00521e-06 1.40177e-05 -1.08251e-23)
(-6.3533e-06 2.7276e-05 -1.08155e-23)
(8.76221e-06 2.59278e-05 -2.41705e-23)
(3.94877e-06 2.90153e-05 0)
(1.41435e-05 1.72624e-05 -6.59247e-23)
(1.6364e-06 3.31566e-05 0)
(-1.30113e-05 -5.04212e-05 3.36748e-23)
(-3.34886e-05 9.00947e-05 0)
(6.92512e-07 1.78083e-07 0)
(-2.68939e-05 -9.6812e-05 0)
(1.1385e-07 -2.06247e-07 -3.36976e-24)
(-3.89226e-05 -1.10794e-06 6.75378e-24)
(-3.54127e-05 -6.68957e-05 0)
(-2.95118e-06 -2.45852e-05 0)
(2.09669e-08 7.94406e-08 2.17928e-24)
(-8.6836e-06 -5.22534e-05 0)
(-8.13933e-08 7.78478e-09 -3.38822e-24)
(-3.49166e-05 6.16764e-05 8.24176e-24)
(5.50967e-06 -3.69356e-06 4.98787e-24)
(4.62999e-06 1.17716e-06 0)
(1.39204e-05 7.17706e-06 1.64559e-23)
(6.70284e-06 1.65796e-06 0)
(-2.72759e-05 8.47897e-05 0)
(-1.28206e-06 -1.48099e-05 0)
(3.12441e-06 -3.03912e-06 1.91121e-25)
(3.62018e-06 1.61924e-06 1.38566e-23)
(-3.65986e-05 6.14717e-05 -8.18128e-24)
(4.3572e-06 -2.03203e-06 6.22541e-24)
(2.22377e-06 2.42938e-07 1.32105e-23)
(-2.16255e-05 -6.60183e-05 2.10953e-23)
(-8.63492e-07 -9.60233e-06 -7.33387e-23)
(-2.13528e-05 -9.67487e-05 -3.34963e-23)
(-1.59719e-05 -4.31304e-05 1.90719e-23)
(-8.62378e-07 -6.50868e-06 -5.84961e-23)
(-1.10862e-06 -1.0163e-05 3.71809e-23)
(-5.26365e-07 -4.24056e-06 -2.68393e-23)
(-5.23982e-06 4.18475e-05 1.1905e-22)
(1.88143e-07 1.51178e-07 2.45506e-23)
(-1.6235e-05 -7.57402e-06 9.77114e-25)
(-3.05993e-06 -3.62927e-06 -1.34829e-24)
(6.87703e-06 7.71879e-06 3.74228e-23)
(-1.46552e-05 7.76746e-07 8.89351e-24)
(-4.98013e-07 2.56744e-06 0)
(-8.4277e-07 5.92168e-06 -7.89198e-24)
(1.37589e-05 1.18429e-05 -1.72267e-23)
(-4.54903e-07 3.43318e-06 0)
(3.36857e-06 1.29404e-05 -2.87976e-23)
(-9.67717e-06 2.4748e-05 0)
(-3.31473e-07 5.84604e-06 5.59124e-24)
(-4.41256e-06 2.1652e-05 6.4095e-25)
(-1.50016e-06 2.77715e-05 -1.08941e-23)
(1.50528e-05 1.61004e-05 4.8209e-23)
(1.33777e-06 2.35492e-05 -8.70761e-25)
(1.27819e-05 2.13903e-05 -1.69151e-23)
(1.68777e-06 2.75876e-05 -2.1687e-23)
(1.21118e-05 1.87328e-05 1.70484e-23)
(-2.14446e-06 3.34783e-05 2.78328e-24)
(-5.72143e-06 -1.39789e-05 0)
(-3.89618e-05 -3.706e-05 -7.35976e-24)
(-9.13171e-06 -2.1072e-05 2.18137e-23)
(1.16797e-05 7.00168e-06 0)
(-4.94375e-06 3.29338e-05 -6.62033e-24)
(-5.15797e-06 4.42492e-06 0)
(-7.62361e-06 8.96021e-06 -5.87193e-24)
(5.36717e-07 -6.40056e-07 -2.28181e-24)
(2.30949e-06 -1.25034e-06 -1.35329e-24)
(1.69094e-06 -1.61753e-06 -2.30346e-24)
(2.44456e-08 -9.63413e-08 6.85669e-24)
(-3.57898e-06 -3.64365e-05 0)
(-1.53797e-05 -7.88777e-05 7.37405e-24)
(9.64472e-06 9.814e-06 -4.70227e-23)
)
;

boundaryField
{
    back
    {
        type            empty;
    }
    front
    {
        type            empty;
    }
    left
    {
        type            noSlip;
    }
    top
    {
        type            uniformFixedValue;
        uniformValue    
        {
            type            scale;
            scale           
            {
                type            squarePulse;
                start           0.3;
                duration        0.3;
            }
            xScale          
            {
                type            constant;
                value           1;
            }
            value           
            {
                type            constant;
                value           (0 -0.7 0);
            }
        }
        value           uniform (0 -0 0);
    }
    right
    {
        type            noSlip;
    }
    bottom
    {
        type            zeroGradient;
    }
}


// ************************************************************************* //
