/*--------------------------------*- C++ -*----------------------------------*\
  =========                 |
  \\      /  F ield         | OpenFOAM: The Open Source CFD Toolbox
   \\    /   O peration     | Website:  https://openfoam.org
    \\  /    A nd           | Version:  9
     \\/     M anipulation  |
\*---------------------------------------------------------------------------*/
FoamFile
{
    format      ascii;
    class       surfaceScalarField;
    location    "2.78";
    object      phi;
}
// * * * * * * * * * * * * * * * * * * * * * * * * * * * * * * * * * * * * * //

dimensions      [0 3 -1 0 0 0 0];

internalField   nonuniform List<scalar> 
1363
(
-5.08733e-07
3.33412e-07
1.75321e-07
2.16656e-07
-1.73652e-07
-4.30042e-08
7.64184e-07
-6.0006e-07
-1.64125e-07
-1.55829e-07
4.64593e-07
-3.08765e-07
7.12812e-07
5.13727e-08
4.18685e-07
6.06671e-08
-4.79352e-07
-9.27055e-08
9.27055e-08
6.24536e-07
-2.05851e-07
-2.9415e-07
3.0311e-07
-8.96033e-09
1.48803e-08
-3.0903e-07
-4.30269e-07
4.22165e-07
8.10308e-09
9.14151e-07
-9.06946e-07
-7.20503e-09
3.40343e-07
-4.96172e-07
-4.51626e-07
4.51049e-07
5.77501e-10
5.52823e-07
3.61328e-07
1.74956e-07
4.17e-08
7.34115e-08
-2.30136e-07
1.56725e-07
-2.55587e-07
-2.53146e-07
2.13534e-07
-3.75904e-08
-1.75944e-07
-1.41583e-07
1.41583e-07
4.86627e-08
2.47488e-08
-2.38286e-08
-8.83117e-07
-1.85564e-07
7.37347e-09
1.78191e-07
-4.80722e-08
2.44899e-07
-1.96827e-07
-1.6884e-07
-2.61428e-07
2.39804e-07
-2.87876e-07
7.15889e-07
-6.82669e-07
-3.32204e-08
-2.27474e-07
4.19102e-08
-2.30487e-07
3.74509e-07
-1.44022e-07
-1.70346e-08
-3.57109e-07
3.74143e-07
-2.37592e-07
1.04747e-07
1.32845e-07
5.13848e-09
7.10751e-07
8.69516e-08
-3.17439e-07
7.2321e-08
-3.67767e-07
2.95446e-07
6.75449e-07
-6.06667e-07
-6.87813e-08
-1.00062e-07
2.24351e-07
-1.24289e-07
-4.41206e-07
5.64229e-08
3.84783e-07
3.00886e-07
-1.31618e-07
-1.69268e-07
-2.43106e-07
-1.981e-07
5.1079e-08
1.9382e-07
6.26465e-07
-3.18492e-07
-3.07973e-07
3.74835e-07
-8.99293e-07
5.24458e-07
-3.93336e-08
9.04126e-08
-4.23182e-08
-5.03873e-08
4.50334e-08
4.76721e-08
3.13375e-07
-4.80752e-08
-2.653e-07
-8.7492e-08
-9.10002e-09
9.6592e-08
1.83559e-07
-1.11238e-07
6.82899e-08
5.58175e-07
-1.48439e-07
-3.03188e-07
1.41445e-07
7.20893e-08
9.16663e-08
-8.42928e-08
-2.16145e-09
-9.79008e-08
2.80216e-07
-1.43568e-07
-1.36648e-07
4.11217e-07
-3.96337e-07
-3.76208e-07
-1.68351e-07
5.4456e-07
1.0336e-07
-1.0336e-07
3.0962e-11
4.11186e-07
-5.38085e-08
1.57169e-07
1.85308e-09
7.28822e-07
-7.30675e-07
-2.08866e-07
1.91832e-07
7.34929e-07
-6.61863e-07
-7.30669e-08
-1.80893e-07
-1.86874e-07
-7.54964e-08
4.08909e-07
1.96473e-07
1.04413e-07
-1.78875e-07
8.90261e-09
1.69972e-07
5.22608e-08
1.22272e-08
-3.26924e-08
2.04652e-08
3.46765e-07
-7.22973e-07
2.72561e-07
-1.9237e-07
-8.01911e-08
-1.14705e-07
-5.89473e-08
-2.23258e-07
2.08816e-07
1.44419e-08
-3.09049e-07
3.09049e-07
-2.50391e-08
-3.3207e-07
1.89609e-07
9.06068e-08
-1.13135e-07
-2.84485e-08
1.67085e-07
-2.55017e-08
1.3586e-08
-1.77666e-07
-5.99257e-08
1.31699e-07
4.3257e-08
-3.56938e-08
1.18567e-07
-8.28731e-08
3.44551e-07
-3.67247e-07
2.09638e-08
3.46283e-07
-4.71754e-08
1.36666e-07
-1.27764e-07
-8.43679e-07
8.17723e-07
2.59554e-08
4.56217e-07
-4.54364e-07
2.40676e-07
2.38707e-07
-4.79382e-07
1.38907e-07
3.12142e-07
-1.82571e-07
-1.84676e-07
5.84887e-07
-2.10052e-07
2.75507e-07
-3.48262e-08
-2.40681e-07
-4.17037e-07
4.17068e-07
1.80605e-07
-3.48956e-07
5.50386e-07
-5.82632e-09
-1.25929e-07
2.51902e-07
-1.25974e-07
-7.82869e-07
-1.16424e-07
-6.66563e-08
3.07332e-07
-2.09458e-07
1.73764e-07
-1.2393e-08
2.15484e-07
-1.2464e-08
-2.0302e-07
3.92183e-08
-4.56255e-07
5.39529e-08
2.30242e-07
3.07448e-07
2.42938e-07
2.27666e-08
1.69065e-07
5.68942e-08
2.56481e-07
-9.52902e-09
3.40284e-07
-3.30755e-07
1.2695e-07
-1.14723e-07
2.55866e-08
-5.8279e-08
-2.94959e-07
6.41723e-07
-1.24785e-07
-5.98188e-07
4.76682e-07
-9.39077e-08
-1.29351e-07
1.27989e-07
2.94176e-07
2.75507e-07
-1.94908e-07
-5.52376e-07
7.47284e-07
3.8678e-07
7.78137e-08
-7.39192e-08
6.15262e-08
8.44112e-07
-8.42811e-07
-1.30133e-09
-6.15262e-08
8.42928e-08
-1.10938e-07
-2.79033e-07
3.89971e-07
-3.93336e-08
-2.67349e-07
2.61873e-07
-1.68079e-07
-9.58722e-09
9.16663e-08
1.77364e-07
-9.04126e-08
-1.77364e-07
1.49312e-07
2.80525e-08
-2.16145e-09
-1.65567e-08
-2.10337e-08
1.65567e-08
-9.17074e-08
7.51507e-08
2.10337e-08
-3.01337e-08
-1.22403e-07
3.05962e-07
1.22403e-07
4.54712e-09
9.17074e-08
-1.39783e-07
2.81194e-07
-5.76153e-07
3.01337e-08
-4.54712e-09
-7.00937e-07
5.76153e-07
7.00937e-07
-6.32647e-07
-3.05962e-07
6.32647e-07
-3.26686e-07
1.39783e-07
-1.49312e-07
2.81775e-07
1.00807e-08
-1.7816e-07
5.21577e-07
1.02959e-07
-1.23619e-07
2.12041e-08
-2.13574e-07
6.42603e-08
1.44556e-07
2.85725e-07
-3.15489e-07
2.97642e-08
-2.56394e-07
-5.87285e-07
-9.03723e-08
6.11949e-07
8.33349e-07
-8.0867e-07
-2.46792e-08
5.45218e-07
-5.80044e-07
-1.68744e-07
2.07498e-07
-3.8754e-08
-6.5129e-07
4.46225e-08
2.50074e-08
-2.68114e-07
2.16967e-07
-8.03013e-08
-8.14261e-09
6.10828e-08
-5.29401e-08
1.76445e-07
-2.39064e-07
-4.54392e-08
2.62407e-07
2.58205e-07
-2.33198e-07
-4.87198e-07
1.78434e-07
8.0692e-07
-5.59611e-08
-7.50959e-07
8.59319e-07
-2.59701e-08
9.10665e-09
-4.2978e-07
4.20674e-07
9.55935e-08
1.1989e-07
3.31168e-07
-1.00926e-07
7.49839e-08
3.83129e-08
-2.25961e-07
-4.00135e-08
5.30785e-07
-5.84091e-08
1.50114e-07
6.6761e-07
-3.78636e-07
2.92716e-07
8.59206e-08
5.74407e-08
1.94462e-07
-1.44006e-07
-2.34631e-07
3.67866e-08
1.43818e-07
-4.34673e-07
3.25002e-07
1.09671e-07
-1.8662e-07
1.78759e-08
2.3447e-07
1.40039e-07
3.42147e-07
-1.41957e-07
-2.80627e-07
2.20932e-07
-6.37008e-07
4.09091e-07
2.27917e-07
-4.20146e-07
1.08932e-08
4.09253e-07
6.13184e-07
-8.69578e-07
4.50496e-07
-1.25494e-07
8.75405e-07
-7.5679e-07
-1.18615e-07
3.46467e-07
1.04029e-07
-2.98647e-07
2.40238e-07
-3.11753e-08
1.6402e-07
-5.93721e-09
-4.14209e-07
5.197e-07
-1.79357e-07
4.41423e-07
-4.324e-07
-9.02319e-09
3.12391e-08
-3.49731e-07
4.65516e-08
-4.65516e-08
-7.39192e-08
2.04304e-07
3.15396e-07
-7.9326e-08
7.33888e-08
-1.55152e-07
3.20087e-07
-3.8897e-07
5.24959e-07
-6.79199e-07
6.90093e-07
7.218e-09
2.72138e-08
-2.44084e-07
4.48388e-07
-2.09202e-07
4.13063e-07
-2.03861e-07
-8.86641e-07
8.13574e-07
-6.92454e-08
-2.08787e-07
4.94628e-07
-2.85841e-07
-2.45473e-07
8.58657e-07
8.85268e-07
-5.58406e-07
-3.26862e-07
-4.96768e-07
6.43687e-08
-4.60686e-07
-3.60822e-08
-3.41872e-07
4.85273e-07
-1.43401e-07
3.1007e-07
-5.18857e-07
-1.04069e-07
4.50536e-07
4.67259e-07
-2.53095e-07
-2.14164e-07
7.55247e-08
-7.55247e-08
3.91115e-07
-3.91115e-07
-8.29575e-08
-8.03683e-07
-3.62303e-07
4.69635e-07
-1.07331e-07
2.05452e-07
1.0838e-07
-3.13832e-07
-1.02212e-07
3.23144e-07
-6.95912e-07
1.6713e-08
3.33716e-07
-3.33716e-07
-5.32957e-08
5.32957e-08
1.52756e-07
2.00953e-07
-4.45037e-07
6.57854e-07
2.27414e-07
1.2297e-07
1.74276e-07
-5.88425e-07
1.27739e-07
-4.80045e-07
1.38948e-07
1.9222e-07
-9.58951e-08
-3.77164e-07
4.73059e-07
3.15997e-07
-2.30077e-07
-2.66636e-07
3.76307e-07
-7.82686e-08
-3.7374e-07
-7.15669e-08
4.45306e-07
1.81417e-07
1.38194e-07
7.92447e-07
-5.54275e-08
-3.33542e-07
1.43801e-07
-9.00591e-07
-2.96116e-07
4.00145e-07
1.95293e-07
-4.81233e-07
8.1243e-08
3.69293e-07
-5.71256e-07
-3.56703e-07
9.27959e-07
4.93612e-08
-4.85391e-07
3.4199e-07
3.7347e-07
-9.44726e-07
-8.72465e-07
-2.99219e-07
3.80462e-07
-4.0606e-07
3.34494e-07
5.60097e-08
3.90999e-07
-4.47009e-07
6.1808e-08
3.6759e-07
7.7717e-08
5.12711e-07
-1.45121e-07
-8.16895e-07
8.69619e-07
-5.27231e-08
-3.63401e-07
-5.59343e-08
8.69508e-07
-6.68699e-07
-4.73444e-07
8.46913e-07
-4.29368e-07
6.00415e-08
3.69326e-07
-7.86614e-07
6.68e-07
-6.23456e-09
9.79008e-08
5.05397e-09
2.19297e-07
1.81572e-07
-1.87807e-07
-3.44684e-07
-8.4684e-08
4.81688e-07
-2.88325e-07
-1.93362e-07
-7.28434e-07
9.04879e-07
-3.85333e-08
3.91151e-07
-3.52618e-07
-4.45427e-07
4.06894e-07
3.26546e-07
5.39165e-08
3.82555e-07
3.25433e-07
1.56254e-07
3.20127e-07
-6.83527e-07
-8.63152e-07
3.89708e-07
4.89e-07
1.08739e-07
-5.97739e-07
-2.61865e-07
3.21906e-07
7.6194e-08
8.21443e-08
-1.58338e-07
8.23275e-07
-9.54185e-07
1.30909e-07
9.48411e-08
-1.20798e-07
-8.33387e-07
3.21797e-07
5.83082e-07
3.73737e-07
4.64678e-07
-8.38416e-07
4.64678e-08
-7.51533e-07
-5.41138e-07
1.29267e-06
-6.31995e-07
-2.88456e-07
9.20451e-07
-3.20912e-07
6.94649e-07
3.95343e-07
7.77152e-08
-5.23637e-07
3.52546e-07
1.71091e-07
1.91063e-07
-1.91063e-07
-2.84485e-08
-2.40681e-07
-5.03873e-08
-9.25454e-08
9.25454e-08
-3.9201e-07
3.9201e-07
-2.67349e-07
9.94092e-07
-3.23214e-07
-6.70878e-07
-1.20338e-07
1.20338e-07
-8.04501e-08
8.04501e-08
-5.38085e-08
5.21129e-08
-5.21129e-08
-3.20165e-07
3.20165e-07
1.67085e-07
1.50908e-07
-1.50908e-07
4.50334e-08
2.61873e-07
-2.16478e-07
5.36605e-07
3.67581e-07
5.31209e-07
-8.9879e-07
1.04014e-07
-1.04014e-07
8.07815e-07
-3.18814e-07
-4.52484e-07
9.76942e-07
2.0277e-07
-2.0277e-07
-2.87896e-07
-4.29653e-10
5.76831e-07
-4.32578e-07
-1.44253e-07
2.73463e-07
-8.68122e-07
5.94659e-07
-1.23883e-06
4.87294e-07
-4.84571e-07
7.58034e-07
-2.63196e-07
-2.46996e-08
-6.9955e-07
6.75543e-08
3.64353e-08
1.74533e-07
-2.10969e-07
1.12629e-07
-2.81194e-07
1.13672e-07
-4.34583e-07
-2.6233e-07
-2.37767e-07
5.00097e-07
6.12502e-08
1.50567e-07
-3.02863e-07
1.52296e-07
-6.13015e-07
9.34812e-07
8.17147e-08
-5.09793e-07
9.98632e-07
-4.88839e-07
5.41608e-07
-5.44283e-08
8.39183e-07
-7.44342e-07
7.33512e-07
-8.5431e-07
4.84601e-07
6.26275e-07
-1.00164e-06
3.75366e-07
1.89191e-07
-1.46574e-08
-5.52457e-07
6.78859e-08
-5.06724e-07
9.71402e-07
2.58016e-07
-2.64746e-07
-5.96314e-07
8.61061e-07
4.74606e-07
-7.36936e-07
6.2603e-07
-1.16717e-06
6.35511e-07
2.80861e-07
-9.16372e-07
1.6049e-07
4.39545e-07
-6.00035e-07
8.01322e-08
8.14015e-07
-1.10247e-06
-5.69583e-07
2.76565e-07
2.93018e-07
6.4024e-07
-1.07392e-06
4.33683e-07
7.69003e-07
-4.16457e-07
-4.21273e-07
1.83506e-07
6.27634e-07
6.81861e-07
2.95081e-07
-4.29903e-07
5.82199e-07
2.26168e-07
4.25019e-07
4.98764e-07
-4.18632e-07
-1.08299e-08
-2.28035e-07
-4.24811e-07
9.06168e-07
-7.45678e-07
4.91908e-07
-3.75611e-07
5.52183e-07
-2.75756e-07
-2.35706e-07
5.11462e-07
1.93934e-07
7.60728e-07
-9.54663e-07
1.11833e-06
-4.78085e-07
1.05395e-06
-5.12338e-07
-1.30038e-07
-4.38411e-07
6.94538e-08
-5.41467e-07
5.16767e-07
-5.72837e-08
3.75088e-07
7.43111e-07
8.95936e-07
-6.19371e-07
-7.69942e-07
1.0508e-06
-7.62013e-07
-4.05155e-07
-9.25186e-07
-1.77285e-07
4.03537e-07
9.52277e-08
6.61553e-07
-9.89023e-07
8.70489e-08
9.01974e-07
-6.81366e-07
4.88004e-07
-6.93942e-07
-8.47777e-07
-6.85949e-08
-8.75144e-07
4.58687e-07
7.46118e-07
-3.90683e-07
-4.77439e-07
-8.55733e-07
-1.18682e-06
4.07314e-08
3.74124e-07
8.31005e-07
-3.40224e-07
-4.90781e-07
1.38087e-08
-2.89565e-07
1.98341e-07
-3.28379e-07
4.55394e-07
5.7593e-07
-2.82912e-07
1.19014e-07
6.02753e-07
-7.21767e-07
-5.89795e-07
5.78965e-07
-3.60004e-07
-1.32033e-07
1.0945e-06
-4.27775e-07
8.52795e-07
2.64452e-07
2.4701e-07
5.02122e-07
1.56895e-07
7.04166e-07
-8.26758e-07
3.95868e-08
7.87171e-07
9.03022e-07
-4.18421e-07
9.17024e-07
-5.41937e-07
-6.42339e-07
6.70137e-07
-2.77974e-08
4.93138e-07
-6.69863e-07
-1.64599e-07
7.44898e-07
4.05456e-08
-8.35499e-08
2.43132e-07
-7.19846e-07
4.91811e-07
-4.84116e-07
7.10285e-07
1.79122e-07
2.47161e-07
-6.4959e-07
3.86576e-07
2.63014e-07
-1.83131e-07
-9.79838e-08
-5.76659e-07
9.39699e-07
-3.6304e-07
9.48488e-08
-2.82509e-07
-2.38408e-07
5.20917e-07
-9.00027e-07
-2.86797e-07
8.11105e-07
-3.23101e-07
-4.95571e-07
1.0314e-06
-5.72717e-07
-3.98074e-07
-3.38862e-07
-1.07731e-06
-3.24157e-07
4.7306e-07
4.86948e-07
-4.48102e-07
9.40011e-07
-8.99759e-07
1.75671e-07
6.50477e-07
-8.15075e-07
4.04693e-07
4.25248e-07
5.14451e-07
-5.01247e-07
9.37422e-07
-4.36175e-07
7.01778e-08
7.16993e-07
-8.64287e-07
-4.13516e-07
-2.49283e-07
2.88507e-07
6.60569e-07
-4.17438e-07
1.32114e-07
5.38023e-07
9.12196e-07
-5.08179e-07
-4.17336e-07
9.25515e-07
-3.18124e-07
-1.03149e-07
-8.64367e-07
5.07664e-07
6.56987e-07
-2.52294e-07
-1.48956e-07
1.89501e-07
2.3983e-07
-5.46021e-07
3.06191e-07
-3.52069e-09
-8.00292e-08
1.27017e-06
4.3759e-07
4.74606e-07
-4.57655e-07
-4.41135e-07
8.24166e-07
4.11651e-07
5.25771e-07
-9.56715e-07
4.9906e-07
-9.49314e-07
-3.87363e-07
3.60279e-07
-1.20448e-07
-1.92855e-07
-2.92515e-07
-4.74708e-07
-2.96035e-07
3.94019e-07
-1.47009e-07
-8.49107e-07
5.99825e-07
-3.52369e-07
-5.11998e-07
2.68623e-07
-2.64463e-07
-6.58875e-07
4.0683e-07
-2.7952e-07
7.87184e-07
5.84595e-08
3.34844e-09
-4.51394e-07
-5.05322e-07
-7.28664e-07
9.83985e-08
3.1051e-07
9.26102e-07
-2.83007e-07
2.99372e-08
2.26252e-07
1.34026e-07
-2.55372e-07
7.13021e-07
4.48461e-07
-3.07385e-07
-1.41076e-07
1.93089e-07
3.60653e-07
-2.09347e-07
8.48179e-07
-6.38832e-07
5.86905e-07
8.56117e-07
-6.36696e-08
-6.89392e-07
7.87989e-07
-2.49966e-07
8.00182e-07
5.23526e-07
6.01097e-07
-3.58263e-07
4.96303e-07
2.90881e-07
-7.11287e-07
-1.89304e-07
4.87957e-08
-4.54473e-08
1.86524e-07
-5.24972e-08
2.27918e-07
-9.11e-07
1.99713e-07
1.95516e-07
2.17547e-07
4.72958e-07
-2.91541e-07
7.32368e-07
-2.53146e-07
-8.91978e-07
8.34736e-07
-6.35023e-07
-1.06072e-07
-3.37921e-07
3.68766e-07
-3.08455e-08
-6.69972e-07
-9.41646e-08
2.0876e-07
2.2804e-07
-4.83757e-07
-3.31001e-07
-4.28392e-08
-3.54306e-07
3.96469e-07
-4.75421e-07
2.65231e-07
2.09969e-07
-2.51903e-08
-1.69893e-08
4.38119e-08
1.07404e-07
1.71306e-07
1.88694e-07
1.52505e-07
1.44025e-07
-5.334e-07
4.86587e-07
4.68123e-08
-7.15751e-07
-2.65582e-07
4.35546e-07
-2.40253e-07
1.30463e-07
1.14337e-07
1.51886e-07
7.59387e-08
-6.98824e-07
-3.34423e-07
1.36606e-07
1.08194e-07
-1.2675e-07
7.42526e-08
1.56216e-07
1.01168e-07
-3.79497e-07
2.83732e-08
2.02895e-08
-8.09916e-07
2.68226e-08
2.5991e-07
-3.57485e-07
-1.75914e-07
1.83781e-07
-1.15624e-06
3.13432e-07
-3.67722e-08
4.40389e-07
3.01769e-07
2.95911e-07
-5.55574e-08
-9.64406e-07
-1.37493e-07
-8.14292e-07
9.00329e-08
-4.94382e-09
-1.38624e-07
2.22786e-08
-1.53897e-07
-2.27656e-07
-1.24407e-07
2.10469e-08
1.0248e-07
-1.58037e-07
-4.32537e-07
-3.33058e-07
-7.3003e-08
1.11729e-07
-1.54285e-07
3.95801e-08
-2.97463e-07
-3.89324e-07
1.54693e-07
2.62523e-07
-1.49235e-07
-5.74319e-08
2.06667e-07
-2.91831e-08
-6.80325e-07
7.69783e-08
-2.1967e-07
-6.63447e-07
-5.77156e-07
-2.91831e-08
-2.33108e-07
7.66437e-08
-4.82705e-08
2.29764e-07
-1.87576e-07
4.12203e-07
3.35082e-07
3.52163e-08
-3.03839e-07
2.0069e-07
8.36288e-07
-6.8232e-08
-4.03526e-07
2.1491e-07
1.88617e-07
-1.72424e-07
-2.21967e-07
-2.14833e-07
-4.56954e-07
-1.64213e-07
-6.01664e-07
4.20771e-07
9.59651e-07
7.87301e-07
-6.78562e-07
4.28567e-07
-3.74526e-08
-2.24805e-07
-3.85976e-07
6.57597e-08
9.76495e-09
3.85976e-07
-6.57597e-08
2.37711e-07
4.28567e-07
2.07326e-07
-3.50288e-07
4.17843e-07
7.7128e-07
-5.43865e-07
2.40531e-07
-9.55808e-08
-2.47571e-08
9.50033e-08
9.01107e-09
-7.15816e-08
2.89922e-08
-1.84871e-07
-5.581e-08
-9.55808e-08
9.59113e-08
-3.3659e-09
-3.66397e-07
-2.56137e-08
1.29445e-07
-6.29093e-08
-1.75409e-08
7.15816e-08
-1.94687e-08
-2.89922e-08
-2.31207e-08
1.84871e-07
-3.39634e-08
-1.29445e-07
-2.14631e-08
6.29093e-08
-9.59113e-08
9.50033e-08
-3.66397e-07
-8.09971e-07
-6.5376e-07
-9.5282e-08
-3.94613e-07
6.8312e-07
1.72975e-07
-2.41207e-07
1.32501e-07
2.63437e-07
1.36257e-07
7.83565e-07
-6.05015e-07
4.88591e-08
-4.43787e-07
2.63437e-07
1.06463e-07
-2.62718e-07
1.93426e-07
-1.18276e-07
6.55745e-07
3.76126e-07
1.58839e-08
-3.76126e-07
-1.89958e-07
2.20614e-07
-3.0656e-08
-6.6895e-07
1.74827e-08
2.0022e-07
-3.64345e-07
3.93344e-07
9.18163e-07
-4.29324e-07
-4.40747e-07
4.1295e-07
3.95025e-07
-1.50091e-07
3.2013e-07
8.73313e-09
-2.18191e-07
3.64255e-07
2.13619e-07
-4.54523e-07
4.54523e-07
-3.43221e-07
-2.53132e-07
-2.83991e-07
3.2013e-07
2.50287e-07
-5.99765e-07
2.81807e-07
-1.42396e-07
-2.87385e-07
3.10071e-07
-2.71584e-08
4.827e-07
-8.58066e-07
-1.3411e-07
1.3411e-07
-4.38048e-08
-2.28216e-07
-5.16406e-08
5.16406e-08
-5.14954e-08
5.14954e-08
-2.46984e-07
3.95594e-08
6.26854e-08
-2.38962e-07
4.88023e-07
-2.49061e-07
4.05455e-07
-4.05455e-07
1.18567e-07
1.4417e-07
2.76504e-07
6.10828e-08
-6.24737e-07
2.46852e-07
-5.23907e-08
2.23732e-07
-3.82254e-07
-6.37967e-07
3.51425e-08
1.81532e-08
-1.54321e-07
-4.8699e-08
-1.73778e-07
1.14831e-07
-1.45674e-08
-1.59211e-07
-7.65551e-07
-4.43646e-08
-3.08405e-07
-1.70947e-07
-5.33878e-07
1.39266e-07
-1.24407e-07
8.14893e-08
2.64794e-07
8.60135e-08
-1.46453e-07
-1.44251e-07
1.44251e-07
8.13867e-08
2.40519e-07
-4.99597e-07
-8.28731e-08
-1.52518e-07
1.52518e-07
-7.14179e-07
1.56063e-07
5.19747e-09
2.16252e-08
-1.79197e-07
-5.60402e-07
3.70095e-07
1.90307e-07
-2.98655e-07
9.17986e-08
2.06856e-07
-5.29401e-08
-3.57208e-07
1.79276e-07
-1.74079e-07
-2.03423e-07
-4.68192e-08
4.68192e-08
1.59263e-07
3.42929e-08
2.49377e-09
-2.056e-07
-4.72962e-07
-3.04478e-08
5.52806e-08
4.43808e-08
-1.39392e-07
-2.51502e-07
-3.089e-07
-1.93486e-07
2.11866e-07
2.83712e-08
-5.95932e-09
-1.58253e-07
-8.63612e-08
1.20518e-07
-3.21117e-07
9.34607e-08
-3.51425e-08
5.86336e-07
-8.42035e-08
2.53777e-07
5.75366e-08
5.28799e-07
1.09627e-08
2.42814e-07
5.87151e-07
3.38881e-07
3.86756e-07
1.76704e-07
2.59554e-07
8.72767e-09
-2.76841e-07
2.65878e-07
2.5515e-07
-8.22325e-08
1.29171e-07
-5.5782e-08
-1.95872e-08
2.3732e-07
-2.07383e-07
6.44687e-07
2.42295e-09
-6.81022e-07
-4.4908e-08
2.06664e-07
1.38044e-07
-2.11988e-07
2.89802e-07
1.39255e-07
-2.46137e-07
-9.61634e-09
3.94306e-07
-2.5504e-07
3.60343e-07
1.08942e-07
1.52574e-07
-1.50607e-08
4.26524e-08
-7.16677e-07
2.02096e-08
-1.43235e-07
2.06276e-07
4.90675e-08
1.42143e-07
5.44683e-07
-2.04144e-07
1.38205e-07
-1.81356e-07
2.74816e-07
6.12098e-09
-5.81023e-09
)
;

boundaryField
{
    back
    {
        type            empty;
        value           nonuniform List<scalar> 0();
    }
    front
    {
        type            empty;
        value           nonuniform List<scalar> 0();
    }
    top
    {
        type            calculated;
        value           nonuniform List<scalar> 10(-4.368e-07 -4.752e-07 -3.6e-07 -2.448e-07 -2.448e-07 -3.6e-07 -4.368e-07 -9.12e-08 -9.12e-08 -4.752e-07);
    }
    outer_arc
    {
        type            calculated;
        value           uniform 0;
    }
    bottom
    {
        type            calculated;
        value           nonuniform List<scalar> 10(7.64137e-07 3.97146e-07 4.21795e-08 -1.51216e-07 -2.9653e-07 9.81333e-07 -2.27825e-07 1.03325e-06 -1.14181e-07 7.8771e-07);
    }
    inner_arc
    {
        type            calculated;
        value           uniform 0;
    }
}


// ************************************************************************* //
