/*--------------------------------*- C++ -*----------------------------------*\
  =========                 |
  \\      /  F ield         | OpenFOAM: The Open Source CFD Toolbox
   \\    /   O peration     | Website:  https://openfoam.org
    \\  /    A nd           | Version:  9
     \\/     M anipulation  |
\*---------------------------------------------------------------------------*/
FoamFile
{
    format      ascii;
    class       volScalarField;
    location    "0.78";
    object      p;
}
// * * * * * * * * * * * * * * * * * * * * * * * * * * * * * * * * * * * * * //

dimensions      [0 2 -2 0 0 0 0];

internalField   nonuniform List<scalar> 
464
(
1.11914e-14
-2.26501e-14
-4.03948e-15
-3.75252e-15
-2.62829e-14
-4.05071e-15
4.7782e-15
-3.7064e-15
-4.02718e-15
-3.04547e-15
1.1452e-14
2.60635e-14
3.58551e-15
2.65285e-14
5.38644e-15
3.96491e-15
-4.25864e-15
-4.23901e-15
-3.29995e-15
-3.8748e-15
-4.00073e-15
-4.28529e-15
-4.10792e-15
-3.8458e-15
-3.80614e-15
-3.90791e-15
1.62983e-14
-3.33943e-15
1.44433e-14
-4.26545e-15
-4.21051e-15
-1.13768e-15
-5.64073e-16
-2.7829e-15
-3.12984e-15
-4.24645e-15
-4.3251e-15
-3.16977e-15
-3.26291e-15
1.07827e-15
-3.89991e-15
-4.2261e-15
-4.18041e-15
2.24044e-14
1.91302e-14
1.7383e-15
-3.49333e-15
-3.23716e-15
-2.94885e-15
-3.39047e-15
-3.83124e-15
-3.21681e-15
-3.78494e-15
-3.484e-15
-3.41131e-15
-3.21113e-15
-3.38524e-15
-2.97323e-15
-2.85762e-15
-3.89858e-15
-2.95883e-15
-1.54274e-14
-2.79312e-15
-3.40331e-15
-9.94002e-15
-3.62556e-15
-1.70316e-15
-2.8554e-15
1.55082e-14
-3.33763e-15
-2.56835e-15
-1.31262e-14
1.00678e-14
-3.22942e-15
-5.27182e-15
-3.25e-15
-2.14377e-15
4.91641e-15
-3.22256e-15
9.50256e-15
-2.30752e-14
-4.16283e-15
-3.67566e-14
-4.4527e-15
-2.30419e-14
-2.6423e-15
-1.08857e-14
-4.23788e-15
-3.71442e-15
-4.54966e-15
-2.05855e-14
-1.67327e-14
-1.7166e-15
2.30498e-14
-1.39954e-15
-2.28669e-15
-3.22188e-15
-4.0307e-15
-1.43293e-14
-3.20128e-15
-3.7363e-15
-3.26064e-15
-3.91863e-15
-1.96372e-15
-2.86359e-15
-3.64474e-14
-4.32456e-15
-1.87337e-15
-2.03727e-14
-3.47064e-15
-1.82744e-15
-3.37544e-15
-1.41768e-15
-1.11303e-14
-3.57579e-15
-3.74096e-15
-3.05172e-14
-4.64412e-15
-1.76401e-14
-4.333e-15
-3.40178e-15
3.0641e-15
-8.63593e-15
1.05858e-14
-2.51044e-15
-2.38718e-15
-3.29582e-15
-1.51262e-15
-3.48719e-15
-3.28621e-14
-4.51654e-15
2.94712e-14
-3.09119e-15
-3.88702e-15
-4.45948e-15
-2.54074e-14
-4.70982e-15
-3.47521e-15
-3.68908e-15
-4.577e-15
-4.82059e-15
-1.88135e-15
-2.39774e-15
-3.72274e-15
-4.8321e-15
-7.08997e-15
-3.73854e-15
-4.31936e-15
-3.41151e-15
-4.473e-15
-3.93497e-15
-3.8888e-15
1.75802e-15
-2.83872e-15
-2.22067e-14
-4.64827e-15
-4.90063e-15
-3.72243e-15
-2.52947e-15
-1.72494e-14
-1.92748e-15
-3.86263e-15
-4.0518e-15
-4.28769e-15
-4.20996e-15
-4.76937e-15
-2.74569e-16
-4.12767e-15
-1.22859e-15
-2.06681e-15
-6.47144e-16
-1.3111e-14
-7.92125e-15
-4.42123e-15
-3.37295e-15
-1.06988e-15
-3.71788e-15
-3.79666e-15
5.39974e-15
-3.74081e-15
-3.82213e-15
-1.00997e-15
-5.06421e-15
-5.29706e-15
-3.1578e-15
-4.95112e-15
5.48408e-17
2.19486e-16
-5.58242e-15
5.6319e-16
-3.28904e-15
6.49492e-16
-3.02438e-15
-3.2503e-15
-2.93183e-15
-2.83712e-15
-4.05748e-15
-3.38747e-15
-3.82059e-15
-3.26331e-15
-3.27194e-15
-2.97491e-15
-3.19879e-15
-3.12203e-15
4.5587e-16
-3.06992e-15
-3.21347e-15
-3.11176e-15
-3.00516e-15
-1.0771e-14
-4.68491e-15
-4.98703e-16
-2.87099e-15
-4.14223e-15
-4.05694e-15
-1.82368e-16
-1.80225e-15
-3.15157e-15
1.49372e-14
-2.77835e-15
-5.06126e-15
-3.20669e-15
-3.18978e-15
-3.50947e-15
-3.67977e-15
-3.79487e-15
-3.59336e-15
-3.62274e-15
-3.58833e-15
-3.48547e-15
-3.54416e-15
-3.62889e-15
-3.47026e-15
-3.01443e-15
-3.68466e-15
-3.31619e-15
-3.55792e-15
-3.33856e-15
-3.38783e-15
-3.76886e-15
-3.08944e-15
-3.1534e-15
-3.61461e-15
-3.27445e-15
-2.82987e-15
-3.96832e-15
-3.13577e-15
-3.9726e-15
-3.50198e-15
-3.96222e-15
-2.80155e-15
-3.6817e-15
-2.4258e-15
-3.37518e-15
-2.55382e-15
-2.89024e-15
-3.69632e-15
-4.04976e-15
-2.3313e-15
-1.80556e-15
-2.85728e-15
-2.25183e-15
-1.98781e-15
7.01364e-16
-2.30888e-15
4.44805e-16
-1.8486e-15
-3.52377e-15
3.92378e-15
-2.94272e-16
-4.31879e-15
-1.96973e-15
-1.56137e-15
1.68194e-15
3.82232e-15
-1.60661e-15
-1.07365e-15
-2.60121e-15
-2.18857e-15
-8.67432e-15
-2.43191e-15
-3.55536e-15
-2.53323e-15
-3.1726e-15
4.09475e-15
-3.89461e-15
-1.79016e-15
-7.18016e-15
-3.48602e-15
-2.73573e-15
-5.45399e-15
-3.06583e-15
-3.55227e-15
-3.54307e-15
-1.98382e-15
-2.09055e-15
-8.61226e-16
-9.27184e-16
-9.32825e-16
-9.02341e-15
2.74737e-15
8.2357e-16
8.48546e-15
2.53275e-14
-3.84327e-15
-1.74696e-15
-1.78994e-15
-4.16475e-15
-1.58056e-14
-2.09824e-15
-3.32376e-15
-3.71783e-15
-2.5729e-15
1.83146e-15
-2.06812e-15
-2.77505e-15
-1.38219e-15
-9.99283e-15
-3.64173e-15
2.76068e-15
-4.30996e-15
-1.31351e-15
-1.28471e-14
-7.96856e-16
-2.29012e-15
-2.93319e-15
-2.82585e-15
7.24634e-15
-3.40709e-15
-6.84947e-15
-3.99553e-15
-7.51374e-15
-3.82185e-15
-2.27145e-15
-3.18765e-15
-3.67248e-15
-4.22438e-15
-3.74631e-15
-2.91426e-15
-4.11693e-15
-3.69245e-15
1.6041e-14
-4.8714e-15
-6.99516e-15
-2.29774e-15
-3.56894e-15
-2.92186e-15
-2.12141e-15
-3.73762e-15
-3.12598e-15
-3.54149e-15
-3.78002e-15
-1.51611e-15
-1.85232e-15
-3.45949e-15
-1.4639e-14
-4.14354e-15
-3.35223e-14
-4.17976e-15
-2.1788e-14
-3.93669e-15
1.77966e-15
-4.14953e-15
-2.32248e-14
1.43567e-14
-3.34342e-15
-3.59362e-15
-4.51868e-15
3.44111e-14
-4.37389e-15
-3.67098e-15
2.89751e-14
6.52018e-15
-3.98838e-15
2.01952e-14
-3.89263e-15
1.2762e-14
-4.27093e-15
1.17162e-14
-4.42462e-15
2.8536e-16
-2.31251e-15
-3.47193e-15
-1.7038e-15
-2.97307e-15
-1.01419e-15
-2.80613e-15
-4.05447e-15
-5.52455e-15
-4.20656e-15
-3.87363e-15
-3.79906e-15
-4.17239e-15
-3.72197e-15
-3.78352e-15
-3.99356e-15
-3.90864e-15
-4.08753e-15
-4.20769e-15
1.02419e-14
-1.24166e-14
-3.85391e-15
2.28395e-14
-3.57505e-15
1.74806e-15
1.008e-14
2.87389e-14
-3.41892e-15
1.47399e-14
-3.46299e-15
-6.12467e-15
-3.52554e-15
-4.00455e-15
-3.98664e-15
-3.88929e-15
-1.09708e-14
4.04194e-14
-3.44337e-15
-3.93785e-15
-1.57365e-14
-3.60061e-15
-3.82389e-15
1.30756e-14
2.5544e-14
1.35051e-14
7.29653e-15
8.82431e-15
4.71739e-15
2.32364e-15
-3.74095e-14
-4.26685e-15
-1.5703e-15
-3.46812e-15
-4.24545e-15
-2.79768e-15
-5.01841e-15
-4.90775e-15
-4.06457e-15
-4.69538e-15
-4.55289e-15
-3.71642e-15
-3.87613e-15
-3.61047e-15
-3.78211e-15
-3.97961e-15
-3.87434e-15
-3.98056e-15
-4.32318e-15
-3.87599e-15
-3.99405e-15
-5.85601e-16
3.47939e-15
1.25524e-15
-4.02701e-15
-3.75656e-15
-3.95556e-15
-3.58837e-15
-3.42431e-15
-3.57581e-15
-3.50936e-15
-3.5282e-15
3.8327e-14
2.47693e-14
-4.05033e-15
)
;

boundaryField
{
    back
    {
        type            empty;
    }
    front
    {
        type            empty;
    }
    left
    {
        type            zeroGradient;
    }
    top
    {
        type            zeroGradient;
    }
    right
    {
        type            zeroGradient;
    }
    bottom
    {
        type            uniformFixedValue;
        uniformValue    
        {
            type            scale;
            scale           
            {
                type            squarePulse;
                start           0.3;
                duration        0.3;
            }
            xScale          
            {
                type            constant;
                value           1;
            }
            value           
            {
                type            constant;
                value           15.1;
            }
        }
        value           uniform 0;
    }
}


// ************************************************************************* //
