/*--------------------------------*- C++ -*----------------------------------*\
  =========                 |
  \\      /  F ield         | OpenFOAM: The Open Source CFD Toolbox
   \\    /   O peration     | Website:  https://openfoam.org
    \\  /    A nd           | Version:  9
     \\/     M anipulation  |
\*---------------------------------------------------------------------------*/
FoamFile
{
    format      ascii;
    class       surfaceScalarField;
    location    "0.78";
    object      phi;
}
// * * * * * * * * * * * * * * * * * * * * * * * * * * * * * * * * * * * * * //

dimensions      [0 3 -1 0 0 0 0];

internalField   nonuniform List<scalar> 
663
(
-2.56797e-20
2.9216e-20
-3.53627e-21
7.23164e-21
3.14852e-20
-1.94416e-23
1.94416e-23
3.77728e-22
-1.85281e-22
-1.92447e-22
-1.3845e-20
2.10766e-20
2.52841e-24
-2.19703e-23
-3.12241e-20
5.54444e-21
1.23491e-22
2.54237e-22
-3.68174e-20
1.53515e-20
2.14659e-20
-3.3736e-21
-3.34438e-20
-7.62034e-21
3.68363e-20
1.75259e-20
-7.26329e-21
-1.02626e-20
-1.58726e-20
1.57239e-20
1.80204e-21
5.81485e-21
-6.1425e-21
3.27641e-22
6.18286e-21
-3.68002e-22
8.93472e-22
-1.51388e-21
6.2041e-22
1.07048e-21
-1.7701e-22
1.4159e-23
-1.4159e-23
1.21952e-21
-1.3926e-21
1.73075e-22
-1.94428e-22
1.41395e-21
-4.85337e-22
-5.44713e-22
1.03005e-21
-1.1398e-21
6.54468e-22
-4.85812e-22
4.01428e-22
8.43846e-23
3.93124e-23
-2.24593e-22
-2.71039e-22
-2.14774e-22
-9.63629e-22
-9.22971e-22
1.8866e-21
4.12026e-22
-1.41707e-22
-2.70318e-22
4.89475e-21
-5.85838e-21
7.77439e-22
-6.50731e-22
-1.26708e-22
3.75693e-22
4.01746e-22
-6.36564e-21
5.77913e-21
5.86511e-22
3.71267e-22
-6.73691e-21
5.49114e-21
-4.97145e-21
-5.19686e-22
3.48904e-21
2.0021e-21
9.2863e-22
1.41852e-22
1.20294e-21
-2.74314e-22
-6.24631e-23
7.66218e-23
1.06716e-22
3.0531e-22
-5.87747e-21
3.31578e-22
5.54589e-21
-7.76914e-22
-6.15683e-22
1.1798e-21
-1.37814e-21
1.9834e-22
3.99963e-23
-3.69676e-21
2.77379e-21
-1.09601e-20
3.05388e-22
-6.29278e-22
1.30224e-21
-6.72965e-22
-1.21242e-21
1.12163e-21
9.07828e-23
-1.83338e-22
1.83338e-22
-2.0417e-22
4.73079e-22
-1.24999e-21
5.64153e-22
1.12505e-22
-6.76658e-22
-1.18336e-21
2.02911e-22
9.80446e-22
5.91052e-23
-8.9563e-22
8.36524e-22
1.481e-21
-1.42189e-21
-3.62292e-22
9.26446e-22
-9.9157e-22
9.51633e-24
-8.01354e-22
7.91838e-22
1.45579e-21
-1.44627e-21
-1.01191e-21
-1.71444e-22
-7.6622e-23
-1.18415e-21
1.37937e-20
-1.26095e-20
-6.14242e-22
1.61927e-21
-1.00503e-21
7.38592e-22
-9.16469e-22
1.77877e-22
-2.40946e-20
2.0721e-20
-2.5132e-22
-6.44309e-22
-2.57189e-21
1.67184e-21
9.00045e-22
2.95843e-22
-1.7883e-20
-3.70425e-23
1.51804e-21
1.3836e-21
7.21856e-23
-2.52787e-20
6.02051e-21
-1.12576e-21
-4.10898e-22
-8.01517e-22
-6.46002e-22
7.38501e-21
-6.73901e-21
-3.71348e-22
-1.15738e-21
-1.41451e-21
-2.95304e-20
2.59942e-20
-9.06022e-22
1.04668e-22
-1.21987e-22
8.90216e-21
1.55938e-20
-2.4496e-20
-1.51836e-22
1.44806e-22
7.03002e-24
4.66051e-21
-6.69751e-21
2.037e-21
5.70893e-23
1.24108e-23
-6.95001e-23
1.35627e-20
4.64279e-22
-1.07852e-21
1.78989e-20
-4.10524e-21
-9.47462e-23
-6.22606e-22
4.78219e-22
1.44386e-22
-7.7323e-21
7.0863e-21
9.53149e-22
-9.68488e-21
5.07259e-21
-2.29559e-21
-2.777e-21
-9.60339e-21
-1.40124e-20
2.36158e-20
3.19889e-21
1.87371e-21
4.6189e-22
-1.67431e-22
-3.85079e-23
1.83315e-22
6.64983e-22
2.85288e-21
-3.51787e-21
1.22131e-20
-2.80858e-20
-4.13625e-22
-2.0898e-22
-1.86426e-22
1.30806e-21
3.08885e-22
-7.22509e-22
1.56651e-21
4.21262e-21
-3.40494e-21
-6.69751e-21
1.24115e-23
3.72632e-21
-2.05448e-21
-3.14964e-21
4.10279e-21
-1.22042e-21
1.53143e-21
-3.11015e-22
4.45083e-21
2.05812e-21
-6.50895e-21
8.91346e-22
1.43073e-21
-5.96292e-21
6.6279e-21
-8.5469e-23
5.63689e-22
-4.61264e-22
7.70149e-22
-2.037e-21
-1.11264e-21
7.8981e-23
6.94989e-23
-1.4848e-22
2.85288e-21
3.92977e-22
-3.13995e-22
-1.40684e-21
-9.96894e-21
2.21821e-20
1.05341e-20
7.36482e-21
-1.53759e-20
2.09203e-20
1.84788e-21
7.58697e-21
-3.13614e-21
1.77154e-20
-7.18126e-21
-4.17224e-21
6.23036e-21
4.5738e-22
3.03166e-21
2.03031e-21
-2.03031e-21
3.07406e-22
-7.6867e-22
-1.47346e-22
-6.04085e-22
7.51431e-22
-1.11264e-21
-1.48479e-22
1.35322e-22
-4.0564e-22
-4.56135e-22
4.56135e-22
2.57223e-22
-4.04568e-22
-3.31006e-21
-1.24187e-21
1.31406e-21
6.8468e-22
-2.57224e-22
1.08744e-22
9.35345e-23
7.29148e-21
-5.29253e-22
8.36658e-22
2.98231e-22
-7.99859e-22
-1.16609e-22
-5.00779e-22
4.4644e-23
2.31593e-22
-7.60846e-22
-9.39831e-22
1.7116e-22
5.00692e-23
6.1975e-21
-6.24757e-21
5.87162e-21
1.71535e-21
1.74024e-21
4.04568e-22
5.15674e-23
-9.12734e-22
-6.01148e-22
-5.16744e-22
7.48336e-22
7.74641e-21
8.16992e-21
-4.06713e-21
1.84099e-21
-3.63199e-21
1.791e-21
1.29962e-22
-6.46706e-22
5.27372e-22
-7.26638e-21
-5.00779e-22
5.78332e-23
-5.58613e-22
1.1235e-21
7.17485e-22
-1.14727e-21
1.20511e-21
-5.03619e-22
6.42078e-21
-5.91716e-21
-2.89696e-21
2.89696e-21
-2.21764e-21
-6.79322e-22
4.06468e-21
-3.42433e-21
3.51787e-21
-1.1488e-21
3.42433e-21
6.62972e-22
-4.83521e-21
-4.08062e-22
5.38024e-22
-3.82546e-22
-2.55168e-23
-6.84537e-21
6.89544e-21
-4.08927e-22
-3.03842e-21
3.44735e-21
8.54124e-22
-1.23667e-21
3.56834e-22
2.05866e-21
-2.41549e-21
1.42578e-21
-1.42578e-21
1.01685e-21
1.96805e-21
-2.47166e-21
-1.96805e-21
5.42267e-22
1.02678e-21
-6.69951e-22
1.02678e-21
-1.55466e-21
2.21764e-21
-1.26086e-21
-1.09537e-22
1.3704e-21
1.55466e-21
-5.2788e-22
5.11555e-22
-5.11555e-22
4.71972e-23
-9.32508e-23
-1.35302e-21
-1.30512e-21
1.21187e-21
-1.3417e-21
-1.36804e-21
1.33099e-21
2.36161e-24
-1.25058e-21
-5.45438e-23
5.61114e-22
-5.58753e-22
-1.3696e-21
1.19017e-22
5.58753e-22
5.61114e-22
5.2251e-22
-5.2251e-22
4.67967e-22
-6.6995e-22
2.95843e-22
-3.80547e-22
3.80547e-22
-5.58613e-22
-2.47166e-21
-2.63007e-21
2.63007e-21
4.67967e-22
1.01685e-21
3.86033e-23
3.66645e-23
-2.76838e-22
-2.04981e-22
-7.18576e-23
-1.68316e-22
-2.04904e-22
-1.055e-21
1.2599e-21
-2.7288e-22
1.04564e-22
-9.50033e-23
-2.99907e-22
-1.08517e-21
3.01724e-23
4.47694e-23
-1.12994e-21
-2.86683e-22
-1.39127e-21
1.42144e-21
-1.95239e-22
1.52572e-21
-6.04063e-22
-9.21658e-22
9.48242e-22
5.77481e-22
-1.5047e-22
-2.12364e-21
1.51958e-21
-4.37152e-22
1.42354e-21
-2.34519e-21
-1.81701e-22
1.40328e-22
-8.64699e-22
-1.50323e-21
5.58837e-22
1.11824e-22
-1.45353e-21
-8.56434e-22
-1.48876e-21
-4.46789e-22
2.47722e-21
-3.33366e-21
-2.99199e-21
-2.99063e-21
-3.78412e-22
3.36904e-21
-1.86068e-21
-1.41217e-21
1.971e-21
1.06506e-21
-1.84465e-22
9.32801e-22
-4.46789e-22
-1.92557e-21
3.92888e-21
-5.55384e-21
1.62496e-21
1.39949e-21
-3.32507e-21
-4.00766e-21
-1.09459e-21
5.10224e-21
-2.41311e-21
3.8126e-21
-5.2346e-21
6.35114e-21
-1.11653e-21
1.51577e-21
-4.1111e-21
-2.49188e-21
6.9901e-22
7.54806e-21
-7.22041e-21
2.00116e-21
4.34998e-21
-1.09723e-21
1.10338e-21
-3.59526e-21
2.71467e-23
6.90338e-22
6.43152e-21
6.80617e-21
-2.0283e-21
3.13168e-21
-3.00022e-23
-4.37964e-22
4.37964e-22
1.32856e-21
3.92744e-21
-3.2371e-21
6.63908e-22
2.07722e-23
1.24928e-22
-2.0864e-21
-5.13402e-21
4.7669e-21
-8.39458e-22
-4.80558e-23
4.8602e-22
3.68274e-21
-1.0864e-20
-3.27663e-22
1.13491e-21
6.212e-21
-5.07709e-21
9.89474e-21
-8.5743e-22
-9.55325e-22
-2.43289e-21
1.266e-21
-4.86019e-22
-1.83931e-22
-2.96151e-21
3.48939e-21
-6.79932e-21
-4.45656e-21
-1.31454e-20
7.92267e-21
5.22272e-21
6.12048e-21
8.75243e-22
3.27701e-22
5.92044e-22
-4.40464e-21
-1.36669e-22
-2.32689e-21
5.55103e-21
1.40143e-21
1.31846e-20
-5.43817e-21
1.9661e-21
-5.09778e-21
-4.30101e-21
-2.49831e-21
-6.51241e-23
1.88616e-22
6.33922e-21
-2.31256e-22
-4.19475e-22
-1.51544e-21
-4.20772e-22
4.20772e-22
-7.5754e-21
1.02728e-21
3.86668e-22
3.45028e-20
-2.14779e-20
6.25461e-23
-6.25461e-23
1.52045e-21
-4.17301e-22
7.98795e-22
-1.01858e-22
1.01858e-22
-3.50861e-22
-3.67324e-23
3.67324e-23
5.91374e-21
-3.95971e-20
6.24685e-21
-3.98623e-22
-7.01665e-24
4.33372e-22
5.15499e-22
-1.69938e-21
1.01169e-20
2.52849e-24
1.01169e-20
2.52849e-24
-2.85728e-22
3.17709e-20
3.2643e-23
-1.32014e-23
-8.06455e-21
-1.494e-23
-3.41935e-21
2.28239e-20
2.46802e-24
-1.66269e-23
-1.47403e-21
1.93141e-21
3.83236e-21
-4.40702e-22
5.40844e-24
3.13237e-23
7.43473e-22
-6.25977e-21
-1.97331e-21
1.06058e-21
-7.43474e-22
-3.03738e-21
-8.9889e-22
2.50809e-21
3.31958e-22
-2.14008e-21
3.01584e-21
-3.55811e-21
-1.34123e-21
-3.01997e-22
4.93649e-21
3.62706e-21
-3.09547e-22
4.15704e-22
-2.38694e-22
-1.06356e-21
1.24527e-21
2.43877e-22
-2.43877e-22
6.44221e-22
8.9412e-22
-8.50002e-22
-1.41036e-22
8.54246e-22
-6.35663e-22
3.28356e-20
3.26429e-23
2.87376e-20
5.40811e-24
2.64383e-20
-1.36029e-20
9.95283e-21
-9.95283e-21
2.46785e-24
-1.40721e-20
2.46785e-24
-2.2086e-20
-1.13577e-20
1.39672e-22
-1.46688e-22
1.40209e-22
-1.70113e-22
2.99037e-23
-5.46853e-22
-1.75656e-22
3.83236e-21
-6.44983e-23
4.19268e-23
-9.54368e-21
2.50809e-21
2.14008e-21
-1.13158e-23
4.15704e-22
2.38694e-22
7.48785e-22
9.2186e-22
-9.01882e-22
-2.47414e-22
-3.9043e-22
-8.75126e-24
-7.87589e-24
7.32499e-23
)
;

boundaryField
{
    back
    {
        type            empty;
        value           nonuniform List<scalar> 0();
    }
    front
    {
        type            empty;
        value           nonuniform List<scalar> 0();
    }
    left
    {
        type            calculated;
        value           uniform 0;
    }
    top
    {
        type            calculated;
        value           uniform 0;
    }
    right
    {
        type            calculated;
        value           uniform 0;
    }
    bottom
    {
        type            calculated;
        value           nonuniform List<scalar> 8(-3.87168e-20 -1.30249e-20 3.36833e-20 -2.39619e-20 -3.31214e-20 2.40249e-20 3.82813e-20 1.28354e-20);
    }
}


// ************************************************************************* //
