/*--------------------------------*- C++ -*----------------------------------*\
  =========                 |
  \\      /  F ield         | OpenFOAM: The Open Source CFD Toolbox
   \\    /   O peration     | Website:  https://openfoam.org
    \\  /    A nd           | Version:  9
     \\/     M anipulation  |
\*---------------------------------------------------------------------------*/
FoamFile
{
    format      ascii;
    class       volVectorField;
    location    "0.78";
    object      U;
}
// * * * * * * * * * * * * * * * * * * * * * * * * * * * * * * * * * * * * * //

dimensions      [0 1 -1 0 0 0 0];

internalField   nonuniform List<vector> 
464
(
(-7.48472e-13 -4.35356e-13 -4.81127e-32)
(-4.85951e-13 1.00122e-12 0)
(1.6329e-16 3.17563e-16 0)
(8.87634e-15 -3.94632e-16 2.27322e-31)
(-3.48451e-13 7.90615e-13 0)
(1.28367e-16 2.58634e-16 -6.1746e-32)
(-7.1477e-13 -2.46726e-13 4.75099e-31)
(8.41334e-15 -1.74119e-15 0)
(-8.79865e-13 3.46057e-14 -3.73513e-32)
(-8.33226e-13 2.81207e-13 -3.73978e-31)
(-5.9516e-13 -5.63895e-13 3.86359e-32)
(-2.51709e-13 -3.04601e-13 -3.91187e-32)
(-7.7823e-13 -7.56937e-14 6.55471e-33)
(-1.7944e-13 -3.35978e-13 0)
(-6.91331e-15 2.07165e-13 8.2524e-32)
(3.0814e-15 1.81558e-13 -2.6986e-31)
(9.62112e-15 4.54931e-14 0)
(4.11824e-15 3.30708e-14 -9.81976e-32)
(3.96641e-16 -2.22993e-16 -1.52462e-31)
(-1.88897e-15 4.19636e-14 2.27191e-31)
(-3.28098e-16 4.40054e-14 -3.35172e-31)
(1.05806e-14 3.05342e-14 6.08946e-32)
(1.17502e-14 3.21741e-14 -3.18303e-32)
(1.03128e-14 3.0984e-15 0)
(6.22382e-15 2.44535e-16 -2.33472e-31)
(1.03799e-14 5.11029e-15 1.13193e-31)
(-6.06779e-14 7.20645e-14 -4.93598e-31)
(5.4988e-15 -7.52956e-15 -1.99091e-31)
(-8.48257e-14 1.09258e-13 0)
(1.00464e-14 1.66618e-14 0)
(1.21985e-14 1.40902e-14 1.45886e-32)
(6.25048e-14 1.84787e-13 6.9682e-34)
(4.77517e-14 2.04921e-13 2.85873e-33)
(5.41403e-14 1.30353e-13 -1.64415e-31)
(6.41296e-14 1.13477e-13 1.65703e-31)
(2.43172e-15 3.0147e-14 2.6543e-31)
(1.75407e-15 3.70301e-14 -2.43462e-31)
(9.45296e-16 -1.65621e-15 -2.36863e-32)
(4.34573e-15 -9.21143e-15 4.10369e-33)
(1.58858e-14 1.71565e-13 0)
(-3.26612e-15 4.19623e-14 3.38969e-31)
(6.53594e-15 3.94986e-14 0)
(9.4246e-15 3.61692e-14 -8.43179e-32)
(-9.69044e-14 -2.66214e-14 -1.17853e-30)
(-1.91548e-13 -1.24028e-13 1.20263e-30)
(1.56836e-14 2.01597e-13 5.85301e-33)
(1.46571e-14 -2.59386e-14 2.00018e-31)
(4.08893e-15 -3.03829e-14 9.2787e-34)
(9.81647e-16 -3.44325e-15 0)
(2.84909e-15 -4.05462e-15 2.29327e-32)
(-3.07565e-15 4.2799e-14 -2.30246e-31)
(5.19889e-15 -1.61526e-14 -1.12152e-32)
(-1.37672e-15 2.99426e-14 -1.56164e-31)
(2.14735e-15 -2.79659e-14 -2.01005e-31)
(1.56331e-15 -4.07376e-14 -6.43196e-33)
(7.65442e-15 -2.23572e-14 1.88648e-31)
(1.26197e-14 -2.35905e-14 0)
(5.89395e-16 -2.81048e-14 0)
(-1.67208e-16 -3.96769e-14 -1.6182e-31)
(-2.10071e-15 3.34215e-14 0)
(1.59381e-15 -4.71461e-15 1.77506e-31)
(-3.98154e-13 2.35071e-13 1.66332e-30)
(2.37298e-14 -2.35273e-14 3.13436e-31)
(-4.52186e-15 -1.95992e-14 -2.01986e-31)
(-6.86107e-13 2.68685e-13 -1.70169e-32)
(5.86335e-15 -1.86149e-14 -2.10935e-31)
(2.81718e-14 -6.44735e-14 -1.06617e-31)
(1.89794e-15 -8.90228e-15 -1.59006e-31)
(-4.33709e-13 -4.10453e-13 -4.31986e-31)
(-8.53654e-16 -4.39079e-14 1.98288e-31)
(3.02962e-15 -4.28391e-14 1.61485e-31)
(-5.48315e-13 3.60581e-13 -8.83426e-31)
(-5.63183e-14 1.67128e-13 0)
(6.90375e-15 -3.04764e-14 1.94005e-31)
(1.53893e-14 -2.18754e-13 -2.77764e-31)
(7.29035e-15 -1.43768e-14 1.93749e-31)
(2.49412e-14 -5.30981e-14 -1.27301e-31)
(-8.50097e-13 -4.15342e-13 -4.69709e-31)
(-2.79949e-15 -1.92819e-14 -1.91358e-31)
(-2.12073e-14 1.71638e-13 2.11953e-31)
(-3.37936e-13 5.14703e-13 0)
(2.26773e-15 2.28617e-15 5.94506e-32)
(-7.8029e-14 1.65248e-13 -2.13676e-30)
(8.12193e-16 1.49534e-15 2.73473e-31)
(-2.0314e-13 3.05414e-13 0)
(1.29714e-14 -3.0739e-14 6.53512e-33)
(-3.9212e-13 1.12982e-13 -7.89661e-31)
(2.52434e-15 3.70373e-15 0)
(1.44884e-14 -3.79728e-15 0)
(1.80791e-14 -2.16246e-13 -2.3594e-31)
(-2.45505e-13 2.10094e-13 1.22446e-30)
(-5.14708e-13 5.48437e-13 0)
(6.20362e-14 -9.94679e-14 9.48698e-32)
(-3.44009e-13 -6.85154e-13 -1.16406e-30)
(5.77762e-14 -1.23506e-13 -9.29696e-32)
(3.2124e-14 -3.78846e-14 -1.51237e-31)
(-4.34892e-15 -2.8002e-14 1.91803e-31)
(4.26039e-15 2.93022e-15 -5.4524e-32)
(-7.95516e-15 -1.19696e-13 -9.49393e-31)
(-6.76877e-13 5.92915e-15 -1.32349e-32)
(1.50543e-14 4.64433e-16 0)
(4.78734e-15 -3.69067e-14 1.28248e-32)
(1.72196e-14 3.50194e-15 0)
(6.79443e-14 1.61665e-13 -6.81853e-34)
(5.6973e-14 1.57153e-13 0)
(-5.19114e-14 1.43318e-13 -1.70553e-30)
(2.89376e-16 1.67183e-16 0)
(4.37466e-14 -7.18252e-14 1.04116e-31)
(-1.32697e-13 7.08757e-14 -1.22577e-30)
(7.01085e-15 -3.8076e-14 0)
(6.26146e-14 -1.62547e-13 0)
(1.13707e-14 -3.16086e-14 -2.04189e-31)
(4.44337e-14 -8.94439e-14 0)
(-3.0544e-14 -1.7276e-13 5.87909e-31)
(1.59831e-14 -7.4603e-15 6.76099e-33)
(1.96872e-14 7.62506e-16 -3.58012e-33)
(-4.73042e-14 1.65808e-14 1.68206e-30)
(1.29476e-15 4.30462e-15 2.99777e-31)
(-9.52782e-15 -6.07389e-14 7.63667e-31)
(3.94963e-15 8.95206e-15 -1.64114e-32)
(8.03668e-15 -3.82799e-14 1.93609e-31)
(-5.573e-13 -2.84768e-14 -6.43377e-33)
(-4.94398e-13 8.58013e-14 3.54293e-31)
(-5.59934e-13 -1.99423e-13 -4.13255e-31)
(9.60459e-15 -4.3095e-14 0)
(7.03235e-14 -1.69249e-13 1.55791e-31)
(-4.26602e-13 1.54417e-14 -3.57381e-31)
(3.99156e-14 -1.5809e-13 0)
(5.13524e-14 9.31345e-14 0)
(-3.42111e-14 3.97712e-14 1.65533e-30)
(6.28789e-16 1.30831e-15 -2.12386e-31)
(-3.8151e-14 -4.00799e-14 -1.34875e-30)
(6.97162e-16 -1.35013e-15 -1.45251e-31)
(2.06066e-14 5.1987e-15 0)
(4.5775e-15 2.19968e-14 0)
(-2.03101e-14 -2.59659e-14 -1.33397e-30)
(8.24524e-16 3.01248e-15 -4.51218e-31)
(9.31211e-15 -8.41451e-15 -2.13895e-31)
(-6.39083e-13 1.23416e-13 4.02523e-31)
(5.18017e-16 9.49258e-15 2.16284e-31)
(1.72336e-15 1.2818e-14 0)
(7.33367e-14 -1.34009e-13 0)
(1.19506e-15 -3.87989e-14 1.52735e-32)
(1.88315e-14 -6.63342e-15 2.21989e-31)
(1.65179e-15 8.11799e-15 2.78192e-31)
(6.28778e-16 -2.00987e-13 -4.72277e-31)
(2.11436e-14 8.0436e-16 0)
(5.03791e-15 7.26315e-15 0)
(-3.05664e-15 -2.86032e-14 -3.05715e-33)
(7.13494e-16 1.91279e-14 -5.20086e-31)
(2.00981e-14 7.3527e-15 7.35709e-33)
(1.83475e-14 1.37247e-14 2.3078e-31)
(-1.45325e-13 9.91421e-14 1.42009e-31)
(5.18241e-14 -1.97867e-13 -1.56482e-31)
(-2.45545e-14 -7.4974e-14 -1.10966e-33)
(1.24431e-15 1.68351e-14 -2.98772e-31)
(9.47062e-15 5.01038e-14 0)
(1.89498e-14 1.38898e-15 0)
(-4.52023e-13 2.35633e-16 -2.0611e-32)
(-1.5352e-13 -9.46565e-15 9.98748e-31)
(-9.0834e-14 -8.76928e-16 0)
(1.63944e-14 9.13227e-15 -2.33262e-31)
(1.8953e-14 -1.9087e-13 4.85247e-31)
(3.09889e-16 1.05157e-14 6.25273e-33)
(7.92644e-18 2.07245e-14 2.52897e-31)
(9.78164e-16 5.39448e-15 0)
(-2.99475e-14 4.47492e-14 -5.49435e-32)
(3.28737e-16 3.56352e-14 2.50449e-31)
(2.52719e-14 1.58038e-13 1.01337e-31)
(5.23811e-15 -5.92169e-14 1.94728e-31)
(1.11922e-14 -9.59345e-14 -5.62811e-32)
(-2.58986e-13 1.30978e-14 -6.70626e-31)
(3.08362e-15 -1.30099e-13 -1.54775e-31)
(6.71524e-15 2.94854e-14 -6.04998e-32)
(9.18184e-15 -1.18536e-13 1.04948e-31)
(2.63165e-14 -1.22501e-13 -5.96073e-32)
(1.36609e-14 1.04651e-15 2.31361e-31)
(9.94555e-15 1.0024e-14 -9.07341e-34)
(-2.01606e-13 8.73561e-14 2.4223e-31)
(2.18401e-14 8.61402e-14 3.0524e-32)
(8.75536e-15 2.75435e-14 2.25992e-31)
(1.45496e-14 -6.07249e-14 5.79336e-32)
(4.55369e-15 2.97121e-14 0)
(8.03883e-15 4.74249e-14 -3.33956e-31)
(8.15358e-15 8.94683e-14 6.01352e-32)
(9.33781e-15 6.74411e-14 -7.58571e-33)
(5.32844e-15 -3.20172e-14 0)
(3.66888e-15 -2.03344e-14 2.0746e-32)
(2.94586e-15 -7.04901e-14 -5.36416e-31)
(1.05017e-14 -7.07974e-14 2.94657e-35)
(1.93336e-15 -4.06969e-14 -1.94566e-34)
(8.20004e-15 -4.85204e-14 -2.59513e-32)
(6.42131e-16 -1.01246e-14 -2.87477e-31)
(2.28217e-15 -3.47733e-14 -1.98184e-31)
(-2.53802e-15 -4.17995e-14 1.67751e-34)
(-2.11488e-15 -3.85462e-14 -1.68283e-34)
(-5.99405e-16 4.11703e-14 -2.30281e-31)
(3.51049e-15 -4.24917e-14 1.92497e-34)
(4.80906e-15 4.23095e-14 -1.65717e-31)
(-8.2907e-16 -4.17334e-14 1.92543e-31)
(2.87503e-16 -3.69505e-14 0)
(-1.90957e-15 -3.45737e-14 0)
(-5.00566e-17 -2.13267e-14 0)
(-2.52094e-15 -4.04055e-14 1.8444e-34)
(5.01205e-15 -3.1193e-14 0)
(7.64273e-16 -2.02711e-14 -8.44611e-34)
(-1.63596e-16 -1.11367e-14 0)
(-4.30929e-16 -1.02768e-14 -1.50857e-31)
(-1.00898e-15 -1.88991e-14 1.72613e-31)
(-1.96925e-15 -7.32179e-14 4.46253e-31)
(9.17404e-16 8.183e-15 2.21671e-31)
(2.18252e-15 -1.30704e-14 0)
(1.03166e-15 -5.76012e-15 1.36956e-31)
(2.07493e-16 8.3747e-15 -1.92838e-31)
(-1.75889e-16 1.1233e-14 0)
(5.73903e-15 -4.49334e-14 -1.98089e-32)
(2.78264e-15 5.52656e-14 1.17172e-31)
(2.43467e-16 -1.11296e-14 1.4858e-31)
(-9.95753e-15 6.08926e-14 2.07667e-31)
(-4.07308e-16 -9.09391e-15 -1.38112e-31)
(4.28635e-15 2.13743e-14 2.46245e-31)
(-7.18269e-16 -2.06557e-14 1.88674e-31)
(-1.35534e-15 -3.64938e-14 -1.92775e-31)
(-8.07044e-16 -1.95589e-14 4.11885e-31)
(6.17459e-15 1.03214e-15 2.27e-31)
(2.27535e-15 1.11468e-14 -2.15247e-31)
(-8.69293e-16 1.42882e-15 0)
(-4.44223e-15 2.96006e-14 1.05999e-31)
(-3.18959e-15 1.091e-14 -6.45807e-33)
(-4.6261e-15 5.9953e-16 -2.14193e-31)
(-4.59529e-15 1.09938e-14 2.12301e-31)
(-2.8565e-15 3.53211e-14 -2.61011e-32)
(5.16926e-16 2.9044e-14 0)
(6.51829e-15 -2.01768e-14 -1.64886e-31)
(-2.87306e-15 4.1033e-14 2.25195e-31)
(-2.77124e-15 1.30664e-15 0)
(1.947e-14 4.24899e-14 -5.3212e-33)
(1.28917e-14 3.18453e-14 -1.74958e-33)
(1.04641e-15 1.14253e-14 1.92174e-31)
(1.38037e-14 4.974e-14 2.23552e-31)
(7.08979e-15 1.17711e-15 -1.95598e-31)
(3.24056e-14 3.96844e-14 -1.95674e-31)
(4.7807e-15 3.62178e-14 2.01987e-31)
(1.48892e-14 1.24349e-14 0)
(2.52859e-14 1.25045e-15 0)
(1.67374e-14 5.50515e-14 -2.57008e-33)
(3.64996e-14 1.48949e-14 -5.86298e-33)
(-1.12552e-15 3.61799e-14 0)
(3.99133e-14 5.58923e-14 0)
(-9.95576e-16 1.98006e-14 0)
(5.63726e-14 5.27808e-14 -1.65882e-31)
(3.01542e-14 6.53855e-14 -4.17368e-31)
(7.17083e-14 -4.2172e-14 -1.30521e-31)
(4.39883e-14 -1.95012e-13 2.3667e-31)
(4.99044e-14 1.07528e-15 0)
(6.23858e-14 1.80381e-14 0)
(1.81245e-14 -1.35688e-14 0)
(-9.03108e-16 9.80123e-15 -1.82989e-31)
(7.55346e-14 -6.04093e-16 -1.58974e-31)
(9.22668e-14 9.23267e-14 0)
(8.58106e-14 2.30834e-14 1.52004e-31)
(9.69287e-14 -7.45774e-14 2.49312e-31)
(9.63555e-14 -8.52022e-17 1.30452e-31)
(2.20996e-14 1.71525e-13 1.07662e-32)
(1.0126e-13 3.05494e-14 -1.30455e-31)
(-2.359e-14 1.33186e-13 -1.92709e-31)
(1.01662e-13 -1.3709e-15 -2.42604e-34)
(1.28896e-14 -1.08589e-14 -6.60833e-33)
(-9.11027e-15 2.1997e-13 -1.15453e-31)
(5.23733e-14 1.34541e-13 -1.09121e-32)
(4.04947e-15 2.99091e-14 -2.32842e-31)
(9.32951e-14 3.73441e-14 0)
(1.79052e-14 -1.44591e-16 5.36187e-32)
(2.02523e-14 2.17652e-13 -1.02577e-33)
(-5.06869e-13 -8.25867e-14 1.02372e-31)
(7.92325e-14 -1.02097e-15 0)
(5.36954e-14 4.45433e-14 0)
(-7.23909e-16 -3.32046e-14 -1.49058e-31)
(3.01431e-17 -8.42553e-15 0)
(-2.13983e-14 -2.08497e-13 -1.20644e-31)
(1.90116e-14 -9.57577e-14 9.35627e-34)
(1.86435e-14 -1.23108e-14 -2.26679e-34)
(-6.3136e-16 -1.73094e-14 0)
(4.96819e-15 -2.34073e-14 -1.92833e-31)
(-5.26156e-14 1.95606e-13 -1.84964e-31)
(-2.35346e-14 -1.33011e-13 -1.93733e-31)
(5.76285e-16 -1.76541e-14 -9.58001e-32)
(-3.02535e-13 -3.29255e-14 0)
(1.50198e-14 -1.80619e-14 0)
(-8.44923e-14 -8.65139e-14 1.98454e-31)
(-1.41814e-13 -1.036e-13 1.4396e-33)
(-2.35283e-13 -5.19114e-14 -1.24929e-33)
(1.83798e-14 -1.74917e-14 -2.18139e-31)
(8.89828e-15 -2.60271e-14 4.31455e-31)
(5.52852e-14 -5.09129e-14 1.32978e-31)
(2.56103e-15 -3.51134e-14 2.5346e-31)
(2.61124e-15 -2.19765e-14 0)
(3.59176e-14 -1.17668e-13 8.14524e-33)
(2.69728e-14 -8.3294e-14 -5.80635e-32)
(-2.3625e-13 -5.7803e-14 6.64133e-31)
(-6.88773e-14 1.52368e-13 8.0695e-32)
(-1.6195e-13 3.28249e-14 -4.93435e-32)
(-2.75877e-13 -1.71592e-14 -1.15065e-30)
(-2.07264e-13 -4.96736e-13 1.47347e-30)
(-9.0103e-16 3.52584e-14 1.2013e-31)
(7.72748e-14 -6.96961e-14 -1.22362e-31)
(9.04953e-14 -9.32263e-14 -2.4265e-31)
(-1.57783e-15 2.78432e-14 1.15564e-31)
(-7.53103e-14 -8.76306e-14 -1.8437e-30)
(2.65084e-14 -1.60153e-13 -1.495e-31)
(-2.79719e-15 -4.10125e-14 -1.98332e-31)
(2.02227e-14 -1.02563e-14 -6.29015e-35)
(4.69793e-14 -3.07688e-14 0)
(-3.43907e-13 8.27384e-15 4.54634e-33)
(8.50992e-14 -1.16595e-13 -2.59946e-31)
(5.03741e-14 -1.32967e-13 0)
(9.08747e-16 -9.35889e-15 7.57471e-32)
(-1.37716e-13 -1.2913e-13 0)
(5.2908e-15 -1.36785e-15 0)
(-3.10513e-13 2.8645e-14 -2.45849e-31)
(1.03105e-14 2.15687e-14 1.99227e-31)
(1.66843e-14 -5.87604e-14 -3.51609e-34)
(-7.80201e-14 -1.45006e-13 8.57382e-31)
(2.14343e-14 -8.76333e-14 5.14258e-32)
(-2.50559e-13 -2.06253e-15 6.05043e-32)
(1.44074e-15 -1.75177e-14 3.06652e-33)
(1.87734e-15 -1.34289e-14 -1.69571e-31)
(-3.71676e-13 -2.3412e-14 3.4624e-31)
(1.19269e-14 -1.52474e-14 0)
(-1.07379e-13 -1.57042e-13 -4.16816e-31)
(2.74297e-15 4.22499e-14 -1.17706e-31)
(-9.14065e-13 3.35919e-13 -1.77413e-31)
(1.2792e-15 1.26434e-16 -9.25034e-32)
(9.17038e-14 -5.7369e-14 2.39762e-31)
(-3.4301e-15 -4.30256e-14 -1.83528e-34)
(1.29426e-14 -1.67223e-14 -2.13519e-31)
(1.29261e-14 2.45649e-14 -1.8559e-31)
(1.78589e-15 -2.06653e-16 -1.78672e-31)
(3.45964e-14 -1.96062e-13 -5.82546e-32)
(3.6161e-15 4.22948e-14 2.54189e-31)
(7.59712e-16 -3.18751e-16 9.27272e-32)
(-7.50528e-13 -8.72321e-13 0)
(-1.36989e-14 -1.97036e-13 -4.09311e-33)
(-4.44179e-14 -1.99948e-13 4.13678e-31)
(7.65148e-14 -8.90954e-14 1.30178e-31)
(8.86643e-15 -5.5348e-15 1.05276e-31)
(9.55946e-16 -8.27993e-15 2.7684e-31)
(1.36207e-14 -4.94243e-14 1.2693e-31)
(3.26643e-15 3.47582e-17 2.18706e-31)
(-3.93898e-15 -3.99153e-14 0)
(1.47964e-14 -2.23094e-14 -6.56942e-33)
(2.68463e-15 -4.93499e-16 -1.05469e-31)
(7.83273e-15 -4.35245e-14 0)
(7.64233e-15 -4.45022e-14 -1.17617e-31)
(1.1888e-14 -3.26903e-14 -2.00486e-31)
(-1.61638e-13 6.43372e-13 1.98996e-30)
(-1.27888e-16 1.36757e-17 0)
(-4.69757e-14 2.65929e-13 -1.07454e-30)
(-3.61324e-19 -1.16161e-16 -9.51287e-32)
(-6.24018e-13 8.72272e-13 0)
(1.17476e-15 7.32335e-16 -1.28096e-31)
(-9.18738e-13 -9.77102e-14 4.81699e-32)
(8.29734e-16 8.81753e-16 6.60176e-32)
(-2.69718e-13 5.90104e-13 0)
(-5.41796e-13 -7.18817e-13 3.5703e-32)
(1.43299e-16 -5.63095e-17 2.09167e-31)
(1.09752e-14 -3.94415e-15 0)
(3.98108e-14 8.61342e-14 0)
(-6.8887e-14 -1.4264e-13 0)
(5.8875e-15 1.32315e-14 1.4411e-31)
(9.62479e-16 -4.98589e-16 0)
(-4.37395e-14 -1.27036e-14 2.61723e-30)
(-8.34582e-14 1.73843e-13 -4.84388e-32)
(1.90682e-14 6.78638e-14 0)
(-1.94651e-14 6.84001e-14 1.84856e-31)
(1.22026e-14 1.27415e-15 0)
(-2.92651e-13 -1.05734e-13 6.5326e-31)
(4.39471e-15 3.50755e-14 3.91822e-31)
(-7.36656e-15 1.09581e-13 1.35095e-30)
(6.17586e-15 2.03391e-14 7.38239e-32)
(4.93565e-15 1.01513e-13 0)
(3.75819e-14 1.54491e-13 -1.08232e-31)
(3.25143e-14 1.12194e-13 0)
(8.55575e-14 1.21804e-13 -5.02787e-32)
(6.23305e-14 7.08601e-14 9.87211e-34)
(6.81017e-14 1.49536e-13 0)
(8.09681e-14 9.56645e-14 -8.67652e-32)
(7.15819e-15 5.09265e-15 -1.3074e-31)
(5.38125e-15 2.87535e-14 0)
(5.60419e-16 1.42948e-14 0)
(-8.2299e-16 4.08852e-14 -1.22221e-31)
(5.97353e-15 4.5205e-14 0)
(-2.10595e-16 1.39491e-14 1.26483e-31)
(-1.24904e-15 1.54529e-14 4.05565e-31)
(-4.41093e-15 3.41581e-14 -1.19642e-31)
(1.05973e-14 3.03354e-14 -2.3396e-31)
(4.70429e-15 3.42633e-14 0)
(1.6911e-14 1.9559e-14 -4.97344e-31)
(1.6988e-15 3.82431e-14 0)
(-1.75922e-13 6.25743e-14 5.91603e-31)
(-7.67647e-13 8.70936e-13 0)
(6.51387e-16 1.79674e-16 0)
(-6.36395e-13 -8.95421e-13 0)
(8.62178e-17 -2.08202e-16 -8.36312e-32)
(-9.40101e-13 -4.55086e-15 2.38686e-31)
(-8.46547e-13 -5.86212e-13 0)
(-5.77349e-14 -2.77674e-13 0)
(2.65186e-17 1.0085e-16 1.55208e-31)
(-1.73619e-13 -6.38038e-13 0)
(-1.01446e-16 3.59668e-19 -2.0017e-31)
(-8.19358e-13 4.64291e-13 1.7272e-31)
(5.80266e-15 -3.8379e-15 1.14064e-31)
(4.68201e-15 1.23657e-15 0)
(1.57815e-14 7.85689e-15 1.22234e-31)
(6.93316e-15 1.78883e-15 0)
(-6.44969e-13 6.5145e-13 0)
(-2.97843e-14 -1.02533e-13 0)
(3.20452e-15 -3.08144e-15 6.61513e-33)
(3.62608e-15 1.64288e-15 1.15244e-31)
(-8.69954e-13 5.40091e-13 -1.71444e-31)
(4.42389e-15 -2.08932e-15 1.21548e-31)
(2.18432e-15 2.47497e-16 1.34208e-31)
(-4.46001e-13 -2.40654e-13 4.62946e-31)
(-1.31197e-14 1.9239e-14 -1.17838e-30)
(-4.82814e-13 -1.01396e-12 -9.51529e-31)
(-1.55257e-13 1.1746e-13 2.29751e-31)
(-9.98732e-16 6.09691e-14 -4.80434e-31)
(3.03766e-15 1.07589e-13 1.13792e-31)
(1.42164e-15 5.44134e-14 -8.21401e-32)
(-1.08175e-13 3.58567e-13 2.48376e-30)
(1.35854e-16 7.13971e-17 1.41742e-31)
(8.71687e-14 1.03611e-13 5.40646e-32)
(2.25e-14 1.13363e-13 8.54952e-33)
(7.54023e-15 8.2108e-15 2.46539e-31)
(7.94351e-14 6.27815e-14 2.83408e-31)
(2.02785e-15 1.05436e-14 0)
(1.27918e-15 1.5678e-14 7.86258e-32)
(1.59464e-14 1.31691e-14 -1.27958e-31)
(3.09945e-16 6.34122e-15 0)
(3.93752e-15 1.41721e-14 -1.45435e-31)
(2.90996e-15 4.19601e-14 0)
(-2.28403e-16 6.35373e-15 -8.8576e-32)
(-3.34677e-15 2.64743e-14 7.84968e-33)
(-1.05416e-15 3.33151e-14 -1.29425e-31)
(1.82e-14 1.84901e-14 3.66833e-31)
(1.91288e-15 2.80751e-14 -7.43241e-33)
(1.55316e-14 2.46791e-14 -1.34743e-31)
(1.90154e-15 3.16594e-14 -1.41308e-31)
(1.47648e-14 2.1818e-14 1.46646e-31)
(-2.07991e-15 3.93466e-14 1.22468e-31)
(3.28658e-14 1.89208e-13 0)
(-9.28931e-13 -3.39283e-13 -1.36951e-31)
(3.00269e-14 2.17858e-13 8.31909e-32)
(1.30024e-14 7.59525e-15 0)
(-3.01449e-15 4.12994e-14 -2.49359e-31)
(2.79464e-14 8.31772e-14 0)
(3.07201e-14 7.27867e-14 2.47676e-31)
(4.88087e-16 -6.1634e-16 -1.09622e-31)
(2.28835e-15 -1.26017e-15 -1.4793e-33)
(1.66745e-15 -1.58058e-15 -2.47268e-33)
(-2.0798e-17 -3.80806e-17 1.88748e-31)
(-8.21674e-14 -3.16568e-13 0)
(-3.33783e-13 -8.11266e-13 2.65184e-31)
(1.08386e-14 1.06507e-14 -3.10274e-31)
)
;

boundaryField
{
    back
    {
        type            empty;
    }
    front
    {
        type            empty;
    }
    left
    {
        type            noSlip;
    }
    top
    {
        type            uniformFixedValue;
        uniformValue    
        {
            type            scale;
            scale           
            {
                type            squarePulse;
                start           0.3;
                duration        0.3;
            }
            xScale          
            {
                type            constant;
                value           1;
            }
            value           
            {
                type            constant;
                value           (0 -0.7 0);
            }
        }
        value           uniform (0 -0 0);
    }
    right
    {
        type            noSlip;
    }
    bottom
    {
        type            zeroGradient;
    }
}


// ************************************************************************* //
