/*--------------------------------*- C++ -*----------------------------------*\
  =========                 |
  \\      /  F ield         | OpenFOAM: The Open Source CFD Toolbox
   \\    /   O peration     | Website:  https://openfoam.org
    \\  /    A nd           | Version:  9
     \\/     M anipulation  |
\*---------------------------------------------------------------------------*/
FoamFile
{
    format      ascii;
    class       volScalarField;
    location    "0.99";
    object      p;
}
// * * * * * * * * * * * * * * * * * * * * * * * * * * * * * * * * * * * * * //

dimensions      [0 2 -2 0 0 0 0];

internalField   nonuniform List<scalar> 
90
(
8.56388e-23
5.04642e-24
-6.19134e-22
-1.69763e-21
-8.02611e-22
1.17527e-21
7.64277e-24
1.89516e-22
1.64798e-22
1.82018e-22
-1.12581e-22
3.25966e-22
1.51858e-22
-5.0985e-22
4.14631e-22
2.80705e-21
-3.65705e-21
5.3957e-22
5.98731e-22
1.04062e-22
5.07292e-24
1.26146e-22
-4.86612e-23
-1.78882e-22
2.12384e-23
-3.85059e-22
2.97138e-22
-9.74922e-23
-7.65754e-22
1.99334e-22
1.35783e-22
-6.61541e-22
-4.65379e-22
-2.8154e-22
-4.29007e-22
3.06767e-21
1.95511e-22
-5.63949e-21
-5.07213e-22
2.62176e-22
3.65926e-22
4.59481e-22
-5.95892e-22
5.90588e-23
1.74884e-23
-7.19157e-22
2.09823e-22
1.39173e-21
6.8333e-22
-7.95646e-22
1.24529e-22
2.16551e-22
3.43293e-22
-5.30604e-22
3.04898e-22
9.34572e-22
5.5002e-24
-4.40992e-23
7.86757e-23
-7.88491e-22
2.87632e-22
-6.82012e-22
-1.12108e-21
1.74033e-22
5.71566e-22
2.32665e-22
-6.90737e-22
-8.57041e-22
-4.68993e-21
-4.0846e-22
1.75679e-21
1.83251e-22
-3.07605e-22
1.4523e-21
2.64196e-21
2.37033e-22
1.84288e-22
-4.01453e-22
-1.08481e-22
2.23535e-24
-5.29729e-21
3.91322e-23
-7.77208e-23
2.86575e-21
-6.06621e-23
-1.13921e-21
1.12782e-22
1.52093e-22
2.01578e-21
2.94215e-22
)
;

boundaryField
{
    back
    {
        type            empty;
    }
    front
    {
        type            empty;
    }
    bottom
    {
        type            zeroGradient;
    }
    outer_arc
    {
        type            zeroGradient;
    }
    right
    {
        type            uniformFixedValue;
        uniformValue    
        {
            type            scale;
            scale           
            {
                type            squarePulse;
                start           0.3;
                duration        0.3;
            }
            xScale          
            {
                type            constant;
                value           1;
            }
            value           
            {
                type            constant;
                value           15.1;
            }
        }
        value           uniform 0;
    }
    inner_arc
    {
        type            zeroGradient;
    }
}


// ************************************************************************* //
