/*--------------------------------*- C++ -*----------------------------------*\
  =========                 |
  \\      /  F ield         | OpenFOAM: The Open Source CFD Toolbox
   \\    /   O peration     | Website:  https://openfoam.org
    \\  /    A nd           | Version:  9
     \\/     M anipulation  |
\*---------------------------------------------------------------------------*/
FoamFile
{
    format      ascii;
    class       surfaceScalarField;
    location    "0.99";
    object      phi;
}
// * * * * * * * * * * * * * * * * * * * * * * * * * * * * * * * * * * * * * //

dimensions      [0 3 -1 0 0 0 0];

internalField   nonuniform List<scalar> 
122
(
6.57587e-30
-4.47923e-30
1.99952e-30
-7.32493e-29
2.50728e-29
4.14391e-29
4.67045e-29
-7.98747e-29
-1.27404e-29
2.07938e-29
-5.54963e-29
-2.09803e-28
1.97826e-28
7.81425e-30
1.82746e-30
-5.34713e-30
3.8506e-29
-3.86206e-29
2.424e-29
3.97273e-30
3.43469e-30
-1.09425e-29
-7.48936e-30
2.03212e-29
5.52123e-29
-8.87183e-29
1.47351e-29
-7.03135e-29
4.14186e-29
4.10521e-29
4.56299e-29
-2.60113e-29
2.53065e-29
3.50797e-29
1.44497e-29
2.51204e-30
-8.07749e-30
-1.66648e-29
1.74819e-29
1.20662e-29
-5.28949e-30
8.06567e-30
2.13486e-30
8.10686e-30
1.93486e-29
-6.27527e-30
-6.44127e-30
1.77328e-30
1.95525e-30
1.07133e-30
6.60501e-30
1.38789e-29
-2.13063e-29
7.03211e-29
-7.53109e-29
7.63777e-31
1.2754e-29
1.15643e-29
5.65203e-30
-1.0347e-30
-7.30877e-30
-1.34637e-30
1.94967e-29
3.03889e-29
-4.32199e-29
-1.25519e-29
7.21928e-30
-7.48123e-30
6.42389e-30
-1.03537e-29
-3.16974e-29
-7.10058e-31
2.96373e-29
-1.71045e-29
1.85736e-30
-6.25309e-30
5.70897e-31
-1.45057e-30
-3.02764e-29
2.27166e-29
-2.31597e-34
7.16756e-30
4.94249e-29
9.34994e-30
1.82606e-29
-1.08831e-29
-7.28365e-31
-6.0746e-30
-1.4609e-29
4.30461e-29
5.48323e-30
1.09143e-29
-4.01854e-30
1.81906e-29
-2.80803e-30
5.64367e-31
-7.43398e-30
-3.77196e-30
4.86616e-30
4.8689e-30
2.01488e-30
-1.70615e-29
-3.18474e-29
4.66707e-30
5.87878e-30
-4.81316e-29
4.42512e-30
-2.09809e-29
1.78646e-29
9.74686e-30
-1.02945e-28
1.13509e-28
5.86188e-29
-5.93327e-29
-5.73335e-30
-3.00497e-29
4.28959e-29
6.02375e-30
-5.76827e-30
-2.20177e-30
4.08294e-29
-4.47812e-30
)
;

boundaryField
{
    back
    {
        type            empty;
        value           nonuniform List<scalar> 0();
    }
    front
    {
        type            empty;
        value           nonuniform List<scalar> 0();
    }
    bottom
    {
        type            calculated;
        value           uniform 0;
    }
    outer_arc
    {
        type            calculated;
        value           uniform 0;
    }
    right
    {
        type            calculated;
        value           nonuniform List<scalar> 4(1.05903e-32 -2.69586e-30 -4.21684e-30 -5.70693e-30);
    }
    inner_arc
    {
        type            calculated;
        value           uniform 0;
    }
}


// ************************************************************************* //
