/*--------------------------------*- C++ -*----------------------------------*\
  =========                 |
  \\      /  F ield         | OpenFOAM: The Open Source CFD Toolbox
   \\    /   O peration     | Website:  https://openfoam.org
    \\  /    A nd           | Version:  9
     \\/     M anipulation  |
\*---------------------------------------------------------------------------*/
FoamFile
{
    format      ascii;
    class       volVectorField;
    location    "0.99";
    object      U;
}
// * * * * * * * * * * * * * * * * * * * * * * * * * * * * * * * * * * * * * //

dimensions      [0 1 -1 0 0 0 0];

internalField   nonuniform List<vector> 
90
(
(1.30593e-22 8.07499e-24 -4.13031e-39)
(1.02118e-21 9.68551e-22 6.30436e-38)
(-2.80925e-22 -1.53584e-21 -6.01478e-38)
(-1.51027e-21 -2.35194e-22 5.95681e-38)
(2.86622e-21 3.72231e-21 1.54766e-37)
(7.74455e-22 5.51748e-22 -5.00864e-38)
(7.18816e-23 7.7555e-23 4.74001e-39)
(1.61738e-22 -9.00335e-23 1.06145e-38)
(7.39472e-25 -5.32144e-22 0)
(1.66033e-22 -2.03762e-23 0)
(-3.75649e-22 4.65616e-23 -1.06847e-38)
(-5.23272e-22 -1.75671e-21 1.09547e-39)
(-4.22799e-23 -1.76086e-22 1.89697e-39)
(-8.73483e-22 -3.3551e-23 3.36262e-39)
(-4.75738e-22 -1.514e-21 0)
(1.04635e-21 1.01297e-21 0)
(1.72569e-21 1.93669e-21 -2.10513e-37)
(1.1389e-21 -5.80923e-22 -2.86701e-38)
(1.56742e-22 9.0303e-22 0)
(-7.97691e-23 -2.71607e-22 -1.43897e-39)
(-3.47912e-22 -2.41317e-22 4.50826e-39)
(3.74572e-23 2.15236e-22 1.16949e-38)
(-1.38916e-22 -8.24857e-23 -1.36055e-38)
(-3.20347e-22 -6.31134e-23 3.05669e-39)
(-3.39952e-23 1.41527e-22 -5.50763e-39)
(-8.29851e-23 1.82796e-22 1.11124e-38)
(-5.97831e-23 -4.54495e-23 -8.73119e-39)
(3.26376e-22 1.87613e-22 7.67718e-39)
(-6.83009e-22 -7.78775e-22 0)
(2.55881e-22 9.52751e-23 -9.92082e-39)
(1.18699e-22 -1.98572e-22 5.70323e-39)
(-3.84356e-22 -1.45365e-22 -4.02573e-38)
(-2.08895e-22 -1.65814e-23 -1.11071e-38)
(5.32573e-23 9.62161e-23 2.17697e-38)
(-3.22234e-22 2.32582e-22 -7.20787e-39)
(-1.82451e-22 -2.12858e-21 -7.27571e-38)
(7.68293e-22 4.42288e-22 0)
(4.10619e-22 -8.03051e-23 0)
(-4.7587e-23 -5.69492e-23 1.14493e-38)
(-6.12591e-23 -1.22561e-22 3.71341e-39)
(1.46023e-22 -1.43213e-22 -8.49786e-39)
(2.98751e-22 -4.84905e-22 -3.38662e-38)
(-5.83292e-22 5.21142e-22 -3.65978e-39)
(9.03988e-23 -2.50454e-23 -3.16187e-39)
(-2.35232e-23 -7.12458e-23 -1.29233e-39)
(2.97409e-22 3.91615e-22 2.76943e-38)
(-7.03703e-23 -1.21939e-23 1.7126e-39)
(1.10647e-21 -4.35546e-22 3.36621e-38)
(8.03229e-23 -2.73796e-22 -3.65261e-38)
(1.54233e-23 -7.47405e-22 2.6137e-39)
(-5.01512e-23 -1.03169e-22 0)
(8.26173e-23 7.01094e-23 -9.54086e-39)
(-7.14589e-23 -7.90721e-22 -1.03779e-40)
(7.53007e-23 1.21351e-22 0)
(1.03735e-22 3.44725e-23 1.85118e-38)
(7.08154e-23 -5.4001e-23 -3.51261e-40)
(-3.11435e-23 -2.74913e-23 1.11055e-39)
(-5.16483e-22 5.58069e-23 0)
(6.56511e-23 -6.2434e-23 0)
(-7.03911e-23 -1.66306e-22 4.49309e-38)
(5.77251e-22 -3.15067e-22 2.17926e-38)
(4.28441e-22 2.81144e-22 0)
(-4.12746e-23 -5.39542e-23 5.2391e-38)
(8.20636e-22 1.75161e-22 -6.12287e-39)
(6.85042e-22 3.4459e-22 3.78558e-38)
(-7.22816e-22 -7.24171e-22 8.40154e-39)
(-3.50508e-22 -3.73855e-22 0)
(-3.38156e-22 4.07325e-22 0)
(-1.81108e-21 -5.95535e-22 1.97616e-38)
(-3.53863e-21 6.79011e-22 3.69291e-38)
(1.79571e-21 -6.47985e-22 0)
(1.87347e-22 2.20072e-23 7.83432e-39)
(1.4626e-22 -2.19018e-22 0)
(-7.74464e-22 8.53983e-22 1.09797e-37)
(-1.22294e-21 1.55266e-22 -3.72852e-38)
(6.95388e-23 1.56342e-22 -8.96534e-39)
(1.65596e-22 3.84372e-23 -1.96664e-39)
(-3.42377e-22 6.16236e-22 0)
(2.57048e-23 -1.9117e-22 -1.2677e-38)
(1.45295e-22 -1.45895e-23 4.60769e-39)
(-1.85939e-21 -7.02195e-23 2.20546e-37)
(-4.33587e-24 -3.59723e-23 1.89224e-40)
(-3.16586e-22 3.88574e-22 -2.63945e-39)
(1.97182e-21 -1.27438e-22 7.6757e-38)
(-1.60346e-22 6.65917e-22 3.55383e-39)
(-2.91438e-22 9.77422e-22 -3.24415e-38)
(1.54918e-22 -2.97441e-23 4.31569e-39)
(3.28723e-22 -1.80197e-23 -6.97727e-40)
(-1.51131e-23 1.11983e-21 -1.89489e-37)
(2.59111e-22 6.17934e-23 -7.58698e-39)
)
;

boundaryField
{
    back
    {
        type            empty;
    }
    front
    {
        type            empty;
    }
    bottom
    {
        type            uniformFixedValue;
        uniformValue    
        {
            type            scale;
            scale           
            {
                type            squarePulse;
                start           0.3;
                duration        0.3;
            }
            xScale          
            {
                type            constant;
                value           1;
            }
            value           
            {
                type            constant;
                value           (0 0.7 0);
            }
        }
        value           uniform (0 0 0);
    }
    outer_arc
    {
        type            noSlip;
    }
    right
    {
        type            zeroGradient;
    }
    inner_arc
    {
        type            noSlip;
    }
}


// ************************************************************************* //
