/*--------------------------------*- C++ -*----------------------------------*\
  =========                 |
  \\      /  F ield         | OpenFOAM: The Open Source CFD Toolbox
   \\    /   O peration     | Website:  https://openfoam.org
    \\  /    A nd           | Version:  9
     \\/     M anipulation  |
\*---------------------------------------------------------------------------*/
FoamFile
{
    format      ascii;
    class       surfaceScalarField;
    location    "0.11";
    object      phi;
}
// * * * * * * * * * * * * * * * * * * * * * * * * * * * * * * * * * * * * * //

dimensions      [0 3 -1 0 0 0 0];

internalField   nonuniform List<scalar> 
816
(
4.82e-10
-8.36e-09
7.88e-09
-1.53e-09
-1.56e-08
1.71e-08
1.33e-08
-1.28e-08
2.19e-08
-2.17e-08
-2.45e-10
8.68e-09
-8.68e-09
1.93e-08
3.68e-09
-2.29e-08
9.12e-09
-9.12e-09
-1e-08
1e-08
-1.69e-08
-3.41e-09
2.04e-08
-8.96e-09
7.43e-09
2.77e-08
-8.46e-09
2.39e-08
-1.66e-08
-7.32e-09
5.83e-09
1.33e-08
-1.91e-08
2.32e-08
-2.24e-08
-8.07e-10
2.33e-08
-2.13e-08
-1.97e-09
-1.47e-08
2.28e-08
-8.11e-09
4.21e-09
9.11e-09
-1.33e-08
-2.23e-08
2.45e-09
1.98e-08
2.88e-09
2.1e-08
9.24e-09
-2.62e-08
1.65e-08
5.48e-09
1.21e-09
-1.59e-08
1.46e-08
-2.76e-09
-1.18e-08
-1.55e-08
-6.33e-09
2.18e-08
-1.68e-08
1.3e-09
-2.02e-08
4.37e-09
1.58e-08
-1.96e-08
2.21e-08
-2.5e-09
4.76e-10
6.96e-09
-7.44e-09
6.3e-09
-2.19e-08
8.24e-09
1.46e-08
-1.36e-08
1.4e-08
-1.53e-08
1.89e-08
2.88e-08
-2.05e-08
-2.41e-08
1.22e-08
1.2e-08
1.31e-09
2.2e-08
-4.29e-09
1.89e-08
1.33e-09
2.18e-08
-3.57e-09
-1.66e-08
-2.39e-08
8.05e-09
1.58e-08
5.08e-09
3.6e-09
-7.35e-09
-7.14e-09
6.45e-09
-2.02e-08
-1.12e-09
-1.82e-08
-4.67e-09
2.29e-08
5.19e-09
3.93e-09
-7.81e-09
1.98e-08
-2.32e-08
-1.06e-08
-1.84e-08
-1.14e-09
-6.78e-10
7.57e-09
-6.89e-09
1.79e-08
-1.2e-08
1.55e-08
-8.53e-10
-8.08e-09
-1.61e-08
9.95e-09
9.3e-09
6.24e-09
-2.1e-08
1.48e-08
-2.76e-09
-1.82e-08
2.15e-08
-1.73e-08
5.79e-09
-1.01e-08
-7.68e-10
-4.89e-09
1.4e-08
1.65e-08
-1.4e-08
-1.77e-09
-2.06e-08
-1.03e-08
-1.14e-08
2.17e-08
-2.27e-08
2.49e-09
1.87e-08
1.01e-08
1.25e-08
1.53e-08
-8.89e-09
2.52e-08
-1.63e-08
4.29e-09
1.66e-08
-2.09e-08
-4.66e-09
-1.59e-08
9.21e-09
-1.95e-08
1.64e-08
8.48e-09
-2.49e-08
8.47e-09
1.52e-08
-2.37e-08
9.12e-09
-9.12e-09
-8.81e-09
1.81e-08
-1.31e-08
4.3e-09
2.25e-08
3.34e-09
4.54e-09
-7.88e-09
-2.23e-08
3.94e-09
1.84e-08
-8.36e-09
9.73e-09
-9.73e-09
-8.88e-09
8.88e-09
1.02e-08
-2.19e-08
1.17e-08
-5.9e-09
-8.09e-10
7.57e-09
-1.57e-08
2.2e-08
-1.2e-11
-1.53e-08
1.53e-08
-1.33e-08
-1.98e-10
1.35e-08
8.49e-09
-1.25e-08
2.27e-08
3.49e-11
-1.68e-08
1.67e-08
1.46e-08
7.49e-09
-2.21e-08
-1.7e-08
3.27e-09
1.37e-08
-1.7e-08
-9.57e-09
-9.83e-09
-8.96e-09
-5.09e-10
2.25e-08
-1.04e-09
-2.17e-08
-1.32e-08
1.75e-08
-1.93e-08
1.23e-08
7.01e-09
1.14e-08
1.05e-08
8.79e-09
-1.1e-09
2.29e-08
-1.45e-08
7.35e-09
-5.9e-09
6.23e-10
-9.75e-09
7.54e-09
1.14e-08
2.09e-08
1.37e-08
-2.13e-08
7.53e-09
-8.65e-09
-1.07e-08
-5.83e-09
-1.59e-08
1.96e-10
-1.79e-08
1.77e-08
7.07e-10
-1.4e-08
2e-08
-9.58e-09
-9.41e-10
1.67e-08
-1.11e-08
2.2e-09
4.41e-09
1.84e-08
-1.98e-09
-1.35e-09
1.75e-08
-1.88e-08
1.3e-09
-1.29e-08
-9.39e-09
-1.86e-08
1.33e-08
5.31e-09
-1.82e-08
-1.56e-09
2.09e-08
-3.35e-10
-2.06e-08
2.01e-08
-2.54e-09
-5.58e-09
2.02e-08
-5.51e-09
5.51e-09
1.96e-08
1.34e-09
9.15e-10
-1.71e-08
1.62e-08
1.88e-10
-1.67e-08
-1.91e-08
-2.16e-09
1.47e-08
-1.5e-08
1.39e-10
-6.37e-09
6.23e-09
1.88e-09
1.49e-08
3.04e-10
1.6e-08
-1.63e-08
-6.45e-09
-7.87e-10
1.66e-08
8.95e-10
1.3e-08
-1.39e-08
-1.42e-08
1.07e-08
3.43e-09
-1.92e-08
1.77e-08
-2.26e-08
8.18e-10
2.17e-08
-1.03e-08
1.03e-08
5.79e-09
7.98e-10
4.71e-09
-1.44e-09
-2.15e-08
2.29e-08
-7.94e-10
-1.76e-08
2.08e-08
-1.45e-08
-4.25e-09
2.06e-08
-1.63e-08
4.54e-09
1.18e-10
-2.27e-08
-2.05e-08
-6.37e-09
-1.65e-08
1.73e-08
-7.53e-09
7.53e-09
-1.83e-08
-7.23e-09
1.57e-08
-1.71e-08
-1.52e-08
1.09e-08
-7.55e-09
2.8e-08
-2.04e-08
-7.24e-10
-1.57e-08
7.14e-09
-6.95e-09
-6.15e-09
7.07e-09
7.63e-10
-5.43e-09
4.67e-09
1.87e-10
1.55e-08
1.29e-08
8.81e-09
-8.43e-09
2.13e-08
-1.71e-08
-8.34e-09
7.61e-09
4.41e-11
-1.58e-08
1.57e-08
7.2e-09
-7.01e-09
9.31e-10
-1.66e-08
1.57e-08
1.36e-08
-1.44e-08
1.41e-08
-1.55e-09
-1.55e-08
-1.42e-08
-1.01e-08
-9.68e-09
-8.94e-09
-2.12e-08
-8.52e-10
2.2e-08
-7.33e-09
7.38e-09
-2.09e-08
-8.29e-10
2.18e-08
1.72e-08
7.77e-11
-1.64e-08
-7.53e-10
-7.43e-09
-1.48e-08
2.32e-08
-8.46e-09
-1.09e-08
1e-08
8.93e-10
-1.07e-08
9.93e-09
-1.79e-08
1.72e-08
6.99e-10
1.71e-08
-1.64e-08
-7.38e-10
-1.52e-08
2.16e-08
-7.89e-09
-1.84e-09
-2.23e-08
1.37e-08
7.6e-09
3.7e-10
-1.78e-09
-2.28e-08
-2.75e-10
1.33e-08
-2.31e-08
-7.48e-10
2.03e-08
2.25e-08
-8.75e-09
1.41e-08
1.42e-08
4.19e-09
4.39e-09
-4.67e-09
2.07e-08
1.42e-08
1.28e-09
-1.35e-08
1.43e-08
7.69e-09
-7.61e-09
-7.77e-09
7.01e-09
-1.32e-08
-1.5e-08
2.43e-08
-9.28e-09
-7.33e-09
-7.89e-09
-5.43e-09
-2.21e-09
-1.3e-08
-8.34e-09
7.69e-09
-7.77e-09
-4.22e-09
-2.96e-10
1.33e-08
-1.3e-08
7.2e-09
8.23e-09
8.3e-10
9.93e-09
6.23e-09
-7.38e-09
-1.58e-09
-6.15e-09
-1.54e-08
-8.41e-09
2.38e-08
1.4e-08
-1.21e-09
-1.76e-08
3.25e-10
1.86e-08
1.07e-09
-4.41e-09
3.34e-09
-6.89e-09
1.75e-08
-1.97e-08
1.99e-10
2.49e-08
-2.24e-08
4.41e-09
-4.71e-09
1e-08
9.77e-09
5.15e-10
3.25e-09
-1.13e-08
-3.35e-09
-2.09e-08
2.07e-09
8.91e-09
1.54e-08
1.28e-08
-1.59e-08
2.48e-08
-2.04e-08
5e-09
4.39e-09
-7.07e-09
-8.73e-09
-1.57e-08
2.44e-08
6.95e-09
-2.43e-08
-9.74e-09
2.51e-08
-9.84e-09
2.38e-08
1.61e-08
8.03e-10
-5.28e-09
5.28e-09
-9.94e-09
-1.63e-08
1.91e-08
1.61e-08
1.19e-08
-7.79e-09
7.79e-09
-9.77e-09
-2.92e-09
-9.25e-09
7.23e-09
2.03e-09
9.25e-09
-1.46e-09
-2.02e-09
-9.94e-09
-1.92e-08
-1.96e-08
3.83e-09
-2.55e-08
9.17e-09
1.63e-08
-9.42e-09
1.23e-09
-1.54e-08
2.62e-08
-1.08e-08
-2.49e-08
9.48e-09
1.13e-08
-1.57e-08
2.49e-08
1.34e-08
-2.31e-08
-1.73e-09
1.04e-09
8.72e-09
-1.49e-08
1.57e-08
-8.32e-09
-1.44e-08
2.27e-08
-1.47e-08
2.67e-08
-1.1e-08
2.1e-08
8.56e-09
1.82e-08
2.11e-08
-2.4e-08
-2.28e-08
1.17e-08
1.66e-08
-2.72e-08
1.73e-08
-9.36e-09
1.94e-08
-3.38e-09
-1.46e-08
-8.58e-09
8.78e-09
1.75e-08
2.6e-08
-6.21e-09
-1.12e-08
1.74e-08
-4.78e-09
4.78e-09
-4.27e-09
4.27e-09
5.23e-09
-5.23e-09
5.07e-09
-5.07e-09
5.08e-09
5.19e-09
1.72e-08
-2.33e-08
6.07e-09
-7.81e-09
1.62e-08
9.86e-09
8.92e-09
-8.92e-09
-9.75e-09
9.97e-09
-9.97e-09
-2.33e-08
8.81e-09
1.44e-08
-4.89e-09
-2.5e-08
1.55e-08
9.52e-09
-4.85e-09
4.85e-09
-2.21e-08
8.78e-09
1.33e-08
-7.8e-09
-1.51e-08
-1.43e-08
1.65e-08
-7.18e-09
1.57e-08
-6.35e-09
-2.14e-08
-2.27e-08
1.55e-08
6.4e-09
4.52e-10
7.95e-10
1.04e-09
-1.44e-08
-2.51e-08
1.42e-08
1.09e-08
-1.63e-08
-7.89e-09
-7.65e-09
-5.73e-10
9.32e-09
-2.05e-08
9.36e-09
-1.17e-08
-1.8e-08
2.9e-08
-9.24e-09
-1.56e-08
6.61e-09
9.03e-09
-2.76e-09
-1.93e-08
9.92e-10
1.83e-08
-6.28e-09
6.58e-09
-6.58e-09
-3.08e-10
-1.21e-08
-9.77e-09
-1.03e-08
1.91e-08
1.93e-08
-5.99e-09
-1.91e-08
-1.3e-08
-1.36e-09
2.34e-08
-1.16e-08
-9.72e-09
-1.74e-08
-1.31e-08
-1.84e-08
-3.17e-09
-1.21e-08
-5.05e-09
-1.17e-08
-8.73e-09
-1.62e-08
-2.16e-08
-4.91e-09
1.82e-08
-1.6e-08
-1.47e-08
-1.78e-08
1.66e-08
-1.87e-08
2.05e-09
-5.63e-09
-1.02e-09
-2.01e-09
1.68e-08
-5.63e-09
-3.09e-09
2.26e-08
3.7e-09
-2.62e-08
2.47e-08
1.02e-08
1.27e-08
-9.51e-09
1.88e-08
5.48e-09
-5.48e-09
1.78e-08
3.09e-09
8.15e-09
3.4e-09
-1.4e-08
1.5e-08
-2.1e-08
2.28e-08
1.5e-08
1.25e-08
-2.19e-08
9.36e-09
-1.41e-09
2.18e-08
-7.33e-09
1.45e-08
1.66e-08
-1.29e-08
1.13e-09
6.96e-09
-1.53e-08
8.87e-09
7.78e-09
9.74e-09
1.4e-08
-1.9e-08
2.98e-09
-1.37e-08
2.81e-09
1.45e-08
-1.38e-08
1.52e-08
2.56e-09
-1.47e-08
5.02e-09
-4.77e-10
7.15e-09
-2.17e-08
-7.8e-10
-2.35e-08
2.31e-09
-4.15e-10
4.04e-09
1.76e-09
-1.39e-08
2.11e-08
1.8e-09
-2.11e-08
-7.44e-09
5.02e-09
1.67e-08
-1.32e-08
-1.49e-08
-8.36e-09
1.44e-08
8.54e-09
-1.56e-08
4.04e-09
1.02e-08
-2.07e-08
-1.99e-08
1.92e-08
-9.65e-10
-1.19e-08
-1.15e-08
1.15e-08
8.39e-09
-2.31e-08
-1.16e-08
1.16e-08
-1.46e-08
-2.05e-08
-1.52e-08
-1.65e-08
7.75e-09
7.54e-09
1.94e-08
-4.98e-09
-1.27e-08
1.42e-08
1.44e-08
-2.23e-08
9.11e-09
-1.18e-08
1.23e-08
-1.4e-08
-1.28e-08
-9.06e-09
-1.21e-08
-3.88e-09
-1.37e-08
-6.79e-09
8.88e-09
-1.14e-08
1.08e-08
2.42e-09
1.84e-08
-4.54e-10
-2.28e-08
-1.91e-08
-1.24e-08
-1.73e-09
-1.34e-08
-2.66e-09
-3.55e-09
-3.86e-09
-8.94e-09
9.48e-09
1.82e-08
-1.94e-09
-1.15e-08
-3.59e-10
1.24e-08
1.46e-08
-1.61e-08
-1.66e-08
-1.73e-08
-1.84e-08
-7.04e-09
5.46e-09
2.03e-09
)
;

boundaryField
{
    front
    {
        type            empty;
        value           nonuniform List<scalar> 0();
    }
    back
    {
        type            empty;
        value           nonuniform List<scalar> 0();
    }
    bottom
    {
        type            calculated;
        value           nonuniform List<scalar> 
12
(
6.71e-09
1.98e-08
1.52e-08
1.54e-08
1.23e-08
3.34e-09
3.35e-09
1.84e-08
2.04e-08
1.97e-08
1.23e-08
6.64e-09
)
;
    }
    left
    {
        type            calculated;
        value           uniform 0;
    }
    top
    {
        type            calculated;
        value           nonuniform List<scalar> 8(-1.93e-08 -1.93e-08 -1.91e-08 -1.91e-08 -1.91e-08 -1.93e-08 -1.93e-08 -1.91e-08);
    }
    right
    {
        type            calculated;
        value           uniform 0;
    }
    inner_arc
    {
        type            calculated;
        value           uniform 0;
    }
}


// ************************************************************************* //
