/*--------------------------------*- C++ -*----------------------------------*\
  =========                 |
  \\      /  F ield         | OpenFOAM: The Open Source CFD Toolbox
   \\    /   O peration     | Website:  https://openfoam.org
    \\  /    A nd           | Version:  9
     \\/     M anipulation  |
\*---------------------------------------------------------------------------*/
FoamFile
{
    format      ascii;
    class       volVectorField;
    location    "0.11";
    object      U;
}
// * * * * * * * * * * * * * * * * * * * * * * * * * * * * * * * * * * * * * //

dimensions      [0 1 -1 0 0 0 0];

internalField   nonuniform List<vector> 
578
(
(-0.188 -0.25 0)
(-0.11 -0.45 2e-16)
(-0.286 -0.38 -7.8e-17)
(0.0353 -0.537 -1.5e-17)
(0.0691 -0.144 -4.14e-17)
(0.0268 -0.6 -5.68e-17)
(-0.0727 -0.15 4.07e-17)
(0.0879 -0.162 -6.18e-20)
(0.425 -0.568 -1.25e-16)
(-0.0729 -0.295 3.62e-16)
(0.029 -0.621 -7.71e-17)
(0.258 -0.496 0)
(0.0159 -0.524 6.59e-17)
(0.306 -0.543 -4.6e-16)
(-0.311 -0.552 2.3e-16)
(0.365 -0.438 -5.83e-17)
(-0.272 -0.317 3.16e-16)
(-0.466 -0.446 0)
(0.236 -0.452 0)
(0.419 -0.522 8.12e-17)
(0.0361 -0.585 0)
(0.286 -0.405 0)
(0.206 -0.216 -3.69e-16)
(-0.00808 -0.52 0)
(-0.0121 -0.438 0)
(0.229 -0.46 2.48e-16)
(-0.0346 -0.521 -3e-17)
(-0.0107 -0.292 2.4e-17)
(-0.0934 -0.527 -2.97e-16)
(0.389 -0.457 2.35e-16)
(-0.021 -0.472 -3.29e-16)
(0.0266 -0.529 6.46e-17)
(0.461 -0.516 -2.02e-16)
(-0.0211 -0.566 1.14e-16)
(-0.263 -0.493 -2.28e-16)
(0.323 -0.368 -3.89e-16)
(0.257 -0.481 4.54e-16)
(0.215 -0.425 0)
(-0.37 -0.434 -2.29e-16)
(0.107 -0.215 0)
(0.12 -0.256 -3.24e-16)
(0.147 -0.263 3.61e-16)
(0.122 -0.245 0)
(-0.29 -0.498 0)
(0.445 -0.413 2.87e-17)
(-0.113 -0.222 0)
(-0.124 -0.266 3.18e-16)
(0.427 -0.573 -2.86e-17)
(-0.367 -0.44 3.43e-16)
(-0.0422 -0.586 -6.56e-17)
(0.0105 -0.274 1.27e-17)
(0.026 -0.528 -2.8e-16)
(0.346 -0.289 -1.45e-16)
(-0.0227 -0.565 0)
(0.00207 -0.513 2.42e-16)
(-0.0209 -0.622 5.08e-16)
(0.0949 -0.0678 8.93e-16)
(0.356 -0.275 -2.75e-16)
(-0.327 -0.403 -4.61e-16)
(0.187 -0.226 1.76e-16)
(-0.395 -0.448 2.39e-16)
(-0.309 -0.242 0)
(-0.498 -0.378 3.61e-17)
(0.287 -0.49 2.09e-16)
(-0.0085 -0.527 6.11e-17)
(-0.361 -0.57 1.2e-16)
(0.47 -0.548 -2.48e-17)
(0.052 -0.611 1.81e-16)
(0.458 -0.47 -1.08e-16)
(0.267 -0.558 2.53e-16)
(-0.00743 -0.471 0)
(0.00851 -0.454 -9.27e-18)
(1.2e-05 -0.521 -6.67e-17)
(0.273 -0.566 0)
(0.00489 -0.657 1.16e-16)
(0.0922 -0.164 0)
(0.323 -0.427 1.7e-16)
(0.244 -0.328 -1.59e-16)
(0.0102 -0.529 0)
(-0.164 -0.198 -9.83e-17)
(0.187 -0.492 -2.29e-16)
(-0.0975 -0.162 -3.49e-16)
(0.0614 -0.182 -1.55e-16)
(0.0981 -0.153 1.62e-16)
(-0.477 -0.57 -3.06e-17)
(-0.085 -0.191 0)
(0.00412 -0.162 0)
(-0.0182 -0.646 -1.85e-16)
(0.174 -0.387 5.44e-20)
(-0.191 -0.427 2.48e-18)
(-0.0333 -0.559 0)
(-0.469 -0.559 5.96e-17)
(-0.18 -0.397 0)
(0.0398 -0.565 1.2e-16)
(0.393 -0.474 3.69e-16)
(0.277 -0.449 -3.38e-16)
(0.000202 -0.515 6.62e-17)
(0.00793 -0.516 -4.74e-16)
(-0.022 -0.19 -6.72e-16)
(-0.288 -0.539 0)
(-0.347 -0.522 0)
(0.24 -0.523 -4.3e-16)
(-0.0352 -0.548 0)
(-0.281 -0.316 0)
(-0.00612 -0.514 0)
(0.283 -0.532 -3.45e-16)
(0.00669 -0.622 -1.2e-16)
(0.141 -0.263 0)
(-0.0482 -0.115 0)
(0.181 -0.312 -3.71e-16)
(0.336 -0.397 -1.01e-16)
(0.258 -0.535 0)
(0.423 -0.505 2.43e-16)
(0.308 -0.471 -2.18e-16)
(0.333 -0.473 2.46e-16)
(-0.0272 -0.532 2.7e-16)
(0.044 -0.58 1.27e-16)
(-0.252 -0.497 -2.11e-16)
(-0.16 -0.365 3.92e-17)
(-0.00827 -0.516 2.3e-16)
(0.191 -0.378 -2.48e-16)
(0.158 -0.265 1.11e-19)
(0.258 -0.514 -2.48e-16)
(0.0267 -0.508 -3.45e-17)
(0.127 -0.264 0)
(-0.231 -0.515 2.67e-16)
(0.126 -0.497 -2.41e-16)
(0.479 -0.516 -1.14e-16)
(-0.28 -0.572 1.34e-16)
(-0.23 -0.523 0)
(-0.274 -0.546 0)
(-0.241 -0.535 0)
(0.0476 -0.584 0)
(0.0518 -0.102 3.9e-16)
(-0.271 -0.564 -2.44e-16)
(-0.254 -0.384 0)
(0.224 -0.41 0)
(-0.0146 -0.523 -2.28e-16)
(0.244 -0.475 2.51e-16)
(-0.233 -0.454 0)
(-0.114 -0.217 4.39e-16)
(-0.224 -0.514 0)
(-0.201 -0.386 0)
(0.0035 -0.462 0)
(0.101 -0.197 0)
(-0.418 -0.49 6.49e-21)
(-0.193 -0.395 3.13e-16)
(-0.0395 -0.443 0)
(0.273 -0.558 2.54e-16)
(-0.234 -0.519 0)
(0.353 -0.56 0)
(-0.192 -0.243 0)
(0.0848 -0.0936 0)
(0.0924 -0.182 4.45e-16)
(-0.304 -0.565 -2.34e-16)
(-0.0436 -0.536 -1.39e-16)
(-0.101 -0.566 2.59e-16)
(0.0568 -0.561 -6.24e-17)
(-0.0689 -0.074 -9.96e-17)
(0.379 -0.572 -2.04e-16)
(0.36 -0.565 2.86e-16)
(0.346 -0.513 2.91e-16)
(-0.0618 -0.118 -5.79e-18)
(0.297 -0.469 0)
(-0.000188 -0.152 1.99e-19)
(-0.234 -0.499 -1.23e-20)
(-0.000462 -0.272 -4.14e-16)
(-0.259 -0.479 0)
(0.0432 -0.452 -7.46e-17)
(-0.0357 -0.605 -1.02e-16)
(0.27 -0.396 0)
(0.132 -0.237 0)
(-0.144 -0.224 0)
(-0.0915 -0.181 -4.5e-16)
(-0.223 -0.413 0)
(-0.0113 -0.539 -6.2e-17)
(-0.000827 -0.545 -6.32e-17)
(-0.234 -0.479 2.49e-16)
(0.155 -0.24 4.73e-17)
(-0.0112 -0.461 1.51e-16)
(-0.133 -0.239 0)
(-0.199 -0.417 0)
(-0.155 -0.372 0)
(0.0107 -0.54 4.71e-16)
(-0.304 -0.436 1.78e-16)
(-0.0232 -0.324 -2.76e-16)
(0.129 -0.173 -1.58e-16)
(-0.289 -0.568 6.36e-17)
(-0.328 -0.572 2.45e-16)
(-0.00899 -0.277 -4.19e-16)
(0.325 -0.566 -2.45e-16)
(0.252 -0.416 0)
(0.201 -0.283 3.7e-16)
(-0.236 -0.422 0)
(-0.144 -0.273 0)
(-0.00677 -0.588 1.18e-16)
(0.0278 -0.38 7.05e-16)
(-0.0273 -0.372 -5.53e-16)
(-0.248 -0.415 0)
(0.236 -0.42 0)
(0.0267 -0.334 -2.66e-16)
(0.0247 -0.557 -6.07e-16)
(0.089 -0.309 -1.84e-16)
(-0.0183 -0.583 0)
(-0.003 -0.559 -1.9e-16)
(0.262 -0.481 0)
(-0.291 -0.465 0)
(-0.413 -0.441 0)
(0.342 -0.579 2.49e-16)
(-0.111 -0.141 0)
(-0.159 -0.322 3.21e-16)
(-0.346 -0.587 -2.37e-16)
(-0.259 -0.534 -8e-18)
(0.00848 -0.571 6.13e-17)
(-0.223 -0.443 -1.54e-16)
(0.0252 -0.546 0)
(-0.278 -0.487 -2.83e-16)
(0.279 -0.485 2.83e-16)
(-0.319 -0.585 2.46e-16)
(-0.082 -0.159 -4.76e-16)
(0.315 -0.578 1.25e-16)
(-0.247 -0.472 0)
(0.173 -0.345 -3.09e-16)
(0.145 -0.25 0)
(-0.14 -0.257 0)
(-0.172 -0.341 6.28e-16)
(0.0019 -0.611 -5.81e-17)
(0.022 -0.251 2.67e-19)
(-0.0182 -0.245 1.57e-16)
(-0.00206 -0.151 3.54e-16)
(-0.0531 -0.165 -3.56e-16)
(0.027 -0.175 -1.76e-16)
(-0.0509 -0.102 -3.89e-16)
(0.173 -0.407 0)
(-0.177 -0.414 0)
(0.0843 -0.127 1.26e-16)
(0.0793 -0.143 0)
(-0.0807 -0.145 0)
(0.0434 -0.556 9.47e-17)
(0.16 -0.324 0)
(-0.0712 -0.13 0)
(0.0713 -0.123 0)
(-0.00868 -0.602 -2.4e-16)
(-0.12 -0.227 0)
(-0.0154 -0.216 6.36e-16)
(0.0566 -0.118 0)
(-0.0606 -0.115 -3.68e-16)
(-0.0292 -0.305 7.5e-16)
(-0.0723 -0.105 0)
(-0.0265 -0.623 -5.79e-17)
(0.00632 -0.584 6.06e-17)
(-0.247 -0.538 0)
(0.039 -0.471 0)
(0.0658 -0.149 -3.75e-18)
(0.00506 -0.144 0)
(0.218 -0.504 2.6e-16)
(-0.00248 -0.274 4.13e-16)
(-0.378 -0.577 -3.65e-16)
(0.0811 -0.132 0)
(0.0287 -0.305 4.08e-16)
(0.0824 -0.16 4.72e-16)
(-0.0762 -0.136 3.62e-16)
(0.0115 -0.216 -6.43e-16)
(0.0178 -0.347 3.99e-16)
(-0.178 -0.477 2.15e-16)
(0.21 -0.428 5.31e-16)
(0.139 -0.318 0)
(0.0397 -0.0796 -4e-16)
(-0.00553 -0.156 -3.59e-16)
(0.0247 -0.0798 0)
(-0.0249 -0.0799 0)
(-0.249 -0.534 -2.49e-16)
(0.174 -0.375 0)
(-0.000229 -0.622 -1.72e-16)
(0.0213 -0.572 -1.28e-16)
(-0.0118 -0.632 -3.41e-16)
(-0.0303 -0.6 1.33e-16)
(-0.0395 -0.0795 0)
(-0.145 -0.248 0)
(-0.0168 -0.641 -2.9e-16)
(0.138 -0.255 0)
(-0.0203 -0.629 5.16e-16)
(0.00814 -0.632 0)
(0.0169 -0.601 -5.86e-17)
(-0.0116 -0.642 1.14e-16)
(-0.102 -0.197 -4.28e-16)
(0.0459 -0.0878 -7.88e-16)
(-0.0456 -0.0875 3.98e-16)
(-0.00382 -0.126 0)
(-0.00578 -0.274 -3.76e-16)
(0.215 -0.483 0)
(-0.26 -0.549 7.94e-18)
(-0.0324 -0.618 1.02e-16)
(-0.0797 -0.127 0)
(0.00685 -0.162 0)
(0.0161 -0.312 4.68e-17)
(0.0753 -0.135 -3.63e-16)
(0.225 -0.515 -5.63e-16)
(0.00517 -0.29 9.08e-17)
(0.00607 -0.307 -3.57e-16)
(-0.0218 -0.626 2.97e-16)
(-0.219 -0.491 0)
(0.00296 -0.18 3.3e-16)
(0.00205 -0.148 0)
(0.0103 -0.199 0)
(-0.00323 -0.19 6.22e-16)
(0.23 -0.512 2.55e-16)
(-0.00801 -0.533 -6.34e-16)
(-0.00464 -0.655 -2.22e-16)
(-0.00411 -0.646 0)
(0.192 -0.396 1.56e-16)
(0.000734 -0.665 1.64e-16)
(-0.000318 -0.666 -3.46e-16)
(-0.175 -0.375 0)
(-0.0113 -0.657 2.27e-16)
(0.0173 -0.634 2.4e-16)
(-0.247 -0.516 0)
(-0.0659 -0.149 0)
(-0.139 -0.318 0)
(-0.0157 -0.646 -2.84e-16)
(-0.208 -0.42 -3.08e-16)
(0.00544 -0.642 4.56e-16)
(-0.0216 -0.618 5.86e-17)
(-0.00775 -0.642 -1.83e-16)
(-0.0171 -0.568 2.46e-16)
(0.0116 -0.646 -1.07e-16)
(-0.354 -0.564 2.22e-16)
(-0.209 -0.399 0)
(0.302 -0.562 0)
(0.00889 -0.656 4.23e-16)
(-0.0251 -0.549 6.37e-17)
(-0.383 -0.546 -8.78e-17)
(0.000972 -0.659 1.13e-16)
(0.0169 -0.639 -2.37e-16)
(-0.188 -0.369 4.6e-16)
(-0.00887 -0.661 1.14e-16)
(0.0323 -0.609 -1.05e-16)
(0.0192 -0.631 -2.42e-16)
(0.00264 -0.54 0)
(-0.0306 -0.603 0)
(0.0205 -0.623 -1.2e-16)
(0.0136 -0.612 1.76e-16)
(-0.00105 -0.668 1.63e-16)
(-0.000945 -0.476 2.56e-16)
(-0.00501 -0.667 1.65e-16)
(0.27 -0.411 -7.67e-17)
(0.131 -0.497 1.46e-16)
(-0.0388 -0.0945 -3.97e-16)
(0.0378 -0.0889 1.02e-16)
(-0.0417 -0.102 3.87e-16)
(0.0423 -0.101 0)
(0.0473 -0.0925 3.96e-16)
(-0.0494 -0.0946 1.97e-16)
(-0.00152 -0.645 -1.17e-16)
(0.0621 -0.126 0)
(-0.0638 -0.133 0)
(-0.00326 -0.67 -1.65e-16)
(-0.091 -0.162 -3.33e-16)
(0.137 -0.211 0)
(-0.136 -0.213 0)
(-0.00582 -0.657 -1.82e-16)
(-0.101 -0.0864 0)
(-0.000973 -0.67 5.65e-17)
(0.0396 -0.098 4.43e-16)
(-0.00267 -0.671 -5.74e-17)
(0.00258 -0.578 -2.51e-16)
(-0.00604 -0.665 5.95e-17)
(0.198 -0.504 2.66e-16)
(0.037 -0.593 1.03e-16)
(-0.337 -0.277 0)
(0.231 -0.505 0)
(-0.286 -0.186 -3.61e-17)
(-0.442 -0.421 2.32e-16)
(0.147 -0.529 -1.27e-16)
(-0.478 -0.542 -1.23e-16)
(0.278 -0.176 2.71e-16)
(-0.0286 -0.566 -6.33e-17)
(-0.0805 -0.192 -4.71e-16)
(0.08 -0.184 3.43e-16)
(-0.139 -0.356 -3.23e-16)
(-0.00191 -0.513 -2.47e-16)
(0.0783 -0.192 -2.37e-16)
(-0.0809 -0.195 0)
(0.0174 -0.633 -2.83e-16)
(0.00593 -0.651 1.68e-16)
(-0.00559 -0.613 3.65e-16)
(-0.021 -0.165 -4.36e-16)
(-0.143 -0.271 3.79e-16)
(-0.181 -0.311 0)
(0.0735 -0.182 -2.95e-16)
(0.00603 -0.513 1.23e-16)
(0.0742 -0.511 0)
(0.0452 -0.56 2.59e-16)
(0.23 -0.494 -1.24e-16)
(-0.478 -0.495 1.99e-16)
(0.0542 -0.375 1.5e-16)
(0.502 -0.37 2.2e-18)
(0.0127 -0.631 3.32e-16)
(0.0256 -0.462 3.06e-16)
(-0.00832 -0.249 4.42e-16)
(-0.485 -0.532 -3.96e-16)
(0.00745 -0.261 -4.08e-16)
(-0.0366 -0.27 2.08e-16)
(-0.0568 -0.527 1.88e-16)
(-0.0212 -0.518 0)
(-0.0392 -0.547 0)
(0.444 -0.428 0)
(-0.115 -0.445 4.7e-16)
(0.041 -0.614 -2.97e-16)
(0.108 -0.561 -2.51e-16)
(-0.0386 -0.493 -5.39e-16)
(-0.189 -0.518 6.9e-17)
(-0.0106 -0.61 -2.79e-20)
(-0.186 -0.43 -6.13e-16)
(-0.165 -0.491 -6.83e-17)
(0.0694 -0.585 5.96e-17)
(0.207 -0.444 -3.07e-16)
(-0.215 -0.456 -1.47e-16)
(0.28 -0.567 0)
(-0.0462 -0.604 6.18e-17)
(-0.251 -0.54 3.41e-17)
(-0.00153 -0.142 -1.49e-19)
(0.285 -0.57 0)
(-0.278 -0.539 3.83e-16)
(-0.237 -0.517 0)
(0.223 -0.503 -1.35e-16)
(0.0825 -0.189 5.15e-16)
(-0.0316 -0.585 -2.99e-16)
(0.0448 -0.111 -3.58e-16)
(0.234 -0.524 0)
(-0.411 -0.517 0)
(0.00336 -0.664 -1.13e-16)
(0.423 -0.436 -6.01e-17)
(0.0169 -0.514 0)
(-0.0445 -0.107 -1.89e-16)
(0.256 -0.544 -1.26e-16)
(0.192 -0.422 0)
(-0.142 -0.551 -2.54e-16)
(0.15 -0.363 0)
(-0.0727 -0.568 2.57e-16)
(-0.124 -0.541 -2.07e-16)
(0.033 -0.609 0)
(0.055 -0.585 1.33e-16)
(0.0175 -0.559 0)
(-0.417 -0.566 0)
(-0.0215 -0.643 2.49e-16)
(0.00645 -0.47 -2.37e-16)
(-0.314 -0.395 -2.75e-16)
(-0.261 -0.347 3.96e-16)
(0.00351 -0.15 0)
(-0.285 -0.568 6.48e-17)
(-0.0186 -0.516 0)
(-0.266 -0.528 -7e-20)
(0.0154 -0.514 1.21e-16)
(-0.301 -0.583 -2.34e-16)
(-0.0204 -0.495 0)
(-0.0378 -0.456 -5.05e-18)
(0.183 -0.439 1.4e-16)
(-0.0043 -0.659 3.58e-16)
(-0.296 -0.483 0)
(0.1 -0.45 3.09e-16)
(-0.12 -0.131 2.25e-16)
(-0.0722 -0.602 -9.47e-17)
(0.0822 -0.204 -2.59e-16)
(-0.00831 -0.663 5.92e-17)
(0.324 -0.456 -7.53e-20)
(-0.0889 -0.214 0)
(0.119 -0.124 -2.22e-16)
(-0.0565 -0.599 1.28e-16)
(0.244 -0.513 -3.87e-16)
(0.0154 -0.606 -2.82e-16)
(-0.0153 -0.174 0)
(-0.0555 -0.0669 0)
(-0.0549 -0.552 1.45e-16)
(0.00518 -0.638 -2.44e-16)
(0.261 -0.517 1.19e-16)
(0.238 -0.525 2.7e-16)
(0.047 -0.0514 2.02e-16)
(0.2 -0.246 7.82e-17)
(0.263 -0.305 1.31e-16)
(-0.0102 -0.615 0)
(0.0148 -0.655 1.16e-16)
(-0.408 -0.487 -1.95e-16)
(0.00704 -0.652 -6.09e-16)
(-0.0515 -0.581 1.09e-16)
(0.178 -0.417 1.58e-16)
(0.00879 -0.613 2.08e-16)
(-0.00038 -0.312 0)
(-0.0338 -0.532 0)
(-0.422 -0.583 -1.17e-16)
(0.00139 -0.315 -1.48e-16)
(-0.434 -0.525 2.77e-17)
(0.244 -0.526 1.55e-17)
(0.0656 -0.587 3.29e-17)
(-0.0461 -0.593 -1.26e-16)
(-0.0788 -0.196 4.55e-16)
(-0.0226 -0.536 1.38e-16)
(-0.256 -0.549 1.35e-16)
(-0.0197 -0.53 1.2e-16)
(0.019 -0.531 0)
(0.283 -0.558 -1.33e-16)
(-0.0274 -0.623 -2.5e-16)
(0.149 -0.351 0)
(0.0284 -0.621 3.63e-16)
(-0.364 -0.475 7.96e-17)
(-0.0652 -0.59 0)
(-0.16 -0.364 1.73e-16)
(0.0475 -0.594 0)
(-0.159 -0.367 3.2e-16)
(-0.0696 -0.571 0)
(0.0211 -0.552 2.47e-16)
(0.207 -0.437 0)
(0.0209 -0.485 -3.16e-16)
(-0.181 -0.402 -1.8e-16)
(-0.205 -0.449 -3.7e-17)
(-0.000318 -0.302 -3.63e-16)
(0.27 -0.537 1.34e-16)
(0.18 -0.393 0)
(0.0052 -0.504 0)
(0.0699 -0.568 2.63e-16)
(-0.00415 -0.639 -1.81e-16)
(0.151 -0.37 -2.68e-16)
(-0.00305 -0.661 5.93e-17)
(0.144 -0.336 0)
(0.22 -0.482 1.54e-16)
(0.0242 -0.601 -3.57e-16)
(0.00764 -0.526 1.9e-16)
(0.0447 -0.533 -1.53e-16)
(0.422 -0.53 5.94e-17)
(-0.0266 -0.512 1.54e-16)
(0.274 -0.377 0)
(0.299 -0.575 0)
(-0.0263 -0.322 -3.4e-16)
(0.0162 -0.616 0)
(0.113 -0.558 3e-16)
(-0.134 -0.184 -2.26e-16)
(0.00378 -0.432 0)
(-0.19 -0.425 -2.02e-16)
(-0.26 -0.303 -2.05e-17)
(-0.0439 -0.499 3.25e-16)
(0.0467 -0.504 4.31e-19)
(0.0746 -0.571 -1.71e-17)
(0.137 -0.193 0)
(0.171 -0.389 1.83e-16)
(0.0666 -0.512 0)
(-0.0193 -0.618 -1.31e-16)
(-0.00414 -0.514 0)
(-0.263 -0.442 0)
(0.477 -0.541 -5.99e-17)
(0.176 -0.404 1.68e-16)
(0.375 -0.414 1.8e-17)
(-0.283 -0.551 -7.83e-17)
(0.224 -0.497 -1.32e-16)
(-0.413 -0.541 6e-17)
(0.243 -0.434 -8.25e-17)
(-0.0296 -0.641 -6.19e-17)
(0.387 -0.549 -1.56e-16)
(0.00292 -0.658 7.11e-17)
(0.0214 -0.61 7.12e-17)
(-0.0547 -0.592 3.93e-17)
(-0.0532 -0.58 0)
(-0.265 -0.378 0)
(0.146 -0.334 -4.13e-16)
(-0.0817 -0.577 0)
(0.0799 -0.574 -1.46e-16)
(0.00206 -0.58 0)
(0.0312 -0.527 1.42e-16)
(-0.05 -0.614 9.3e-17)
(-0.072 -0.563 -1.56e-16)
(0.0684 -0.558 -1.53e-16)
(-0.243 -0.524 1.4e-16)
(-0.301 -0.441 0)
(0.331 -0.366 -1.18e-16)
(-0.0562 -0.592 -3.03e-16)
(-0.37 -0.472 6.99e-17)
(-0.00178 -0.589 0)
(-0.383 -0.464 1.56e-16)
(-0.311 -0.363 0)
)
;

boundaryField
{
    front
    {
        type            empty;
    }
    back
    {
        type            empty;
    }
    bottom
    {
        type            zeroGradient;
    }
    left
    {
        type            noSlip;
    }
    top
    {
        type            uniformFixedValue;
        uniformValue    
        {
            type            table;
            format          csv;
            file            "inlet_v.csv";
            nHeaderLine     1;
            refColumn       0;
            componentColumns List<label> 3(1 2 3);
            separator       ",";
            mergeSeparators 0;
        }
        value           uniform (0 -0.512 0);
    }
    right
    {
        type            noSlip;
    }
    inner_arc
    {
        type            noSlip;
    }
}


// ************************************************************************* //
