/*--------------------------------*- C++ -*----------------------------------*\
  =========                 |
  \\      /  F ield         | OpenFOAM: The Open Source CFD Toolbox
   \\    /   O peration     | Website:  https://openfoam.org
    \\  /    A nd           | Version:  9
     \\/     M anipulation  |
\*---------------------------------------------------------------------------*/
FoamFile
{
    format      ascii;
    class       volScalarField::Internal;
    location    "287";
    object      tmp<kEpsilon:G>;
}
// * * * * * * * * * * * * * * * * * * * * * * * * * * * * * * * * * * * * * //

dimensions      [0 2 -3 0 0 0 0];

value           nonuniform List<scalar> 
12225
(
0
0
0
0
0
0
0
0
0
0
0
0
0
0
0
0
0
0
947.465
499.321
262.327
277.579
379.75
495.268
604.993
715.085
802.505
888.343
950.042
1008.58
1048.48
1084.9
1112.54
1130.02
1167.25
1133.98
85.4726
123.101
55.5191
17.2368
5.18726
4.39861
8.80113
16.6823
26.6125
38.3709
50.8925
64.0617
77.5098
90.3882
103.973
115.382
129.571
136.288
5.03699
1.74502
0.641
0.7022
0.465244
0.185305
0.026964
0.189075
0.790451
1.8796
3.44251
5.41316
7.82177
10.3959
13.4364
16.2984
19.7515
22.5547
0.224394
0.131567
0.14785
0.314048
0.426068
0.406414
0.28919
0.153263
0.056846
0.0250779
0.0743933
0.212048
0.446659
0.761049
1.17994
1.64107
2.20281
2.75244
0.177088
0.188683
0.264839
0.320377
0.322842
0.317701
0.289929
0.238919
0.182252
0.127147
0.0802345
0.0456477
0.0279488
0.0290334
0.050542
0.0908322
0.147223
0.216391
0.126539
0.211607
0.231032
0.213017
0.212263
0.230717
0.238742
0.227677
0.208382
0.184783
0.159427
0.132996
0.108674
0.0875264
0.0711217
0.0606029
0.0556338
0.0548772
0.0973902
0.148868
0.159696
0.157143
0.167651
0.188233
0.200756
0.200683
0.195416
0.187768
0.178401
0.167068
0.155546
0.144366
0.134926
0.127801
0.124416
0.121741
0.0740366
0.104543
0.12207
0.130437
0.142062
0.158013
0.169391
0.173064
0.173337
0.172506
0.170737
0.167949
0.164869
0.1621
0.160469
0.160302
0.162793
0.16508
0.056083
0.0774458
0.0972186
0.108836
0.119546
0.132606
0.143233
0.148728
0.151469
0.153453
0.15502
0.156091
0.157201
0.158717
0.161264
0.16478
0.17023
0.175
0.0423423
0.0583423
0.0770718
0.0898091
0.100363
0.111894
0.121817
0.128042
0.13189
0.135
0.137868
0.140511
0.143286
0.146466
0.150448
0.155056
0.16088
0.165899
0.0324193
0.0451136
0.0621444
0.0753228
0.0858636
0.0963554
0.105542
0.111911
0.116201
0.119696
0.122945
0.126031
0.129207
0.132675
0.136679
0.141018
0.146061
0.150236
0.0245373
0.0347383
0.0499759
0.0632061
0.0737595
0.0835388
0.0921257
0.0984815
0.102986
0.106609
0.109888
0.112966
0.116023
0.119209
0.122665
0.126212
0.130086
0.133135
0.0175646
0.0257166
0.0389809
0.0516839
0.0621175
0.0713431
0.0793818
0.0856232
0.0902258
0.0938627
0.0970128
0.0998633
0.102547
0.10517
0.107811
0.110329
0.112897
0.114723
0.0116485
0.0182357
0.029631
0.0414361
0.0515232
0.06024
0.0677585
0.0737771
0.0783437
0.0818912
0.0848137
0.087312
0.0894986
0.0914497
0.0932188
0.0947143
0.0960888
0.0968376
0.00688768
0.0122948
0.0220378
0.0327709
0.0423265
0.0505473
0.0575716
0.0632736
0.0676662
0.0710209
0.0736435
0.0757277
0.0773835
0.0786795
0.0796691
0.0803129
0.0807524
0.0807114
0.0033668
0.00792292
0.0163358
0.0260186
0.0349456
0.0426635
0.0492077
0.054525
0.0586261
0.0616915
0.0639582
0.0656069
0.0667538
0.0674764
0.0678393
0.0678508
0.0676311
0.0670829
0.00119739
0.00520291
0.0126891
0.0215173
0.029814
0.0369975
0.0430319
0.0478906
0.0515891
0.0542677
0.0561256
0.0573352
0.0580199
0.0582704
0.0581625
0.0577412
0.0570932
0.0562549
0.000671937
0.00446468
0.0115884
0.0200115
0.0278772
0.0345892
0.0401275
0.0444865
0.047688
0.0498728
0.0512452
0.0519858
0.0522268
0.0520692
0.0515964
0.0508793
0.0499613
0.0489888
0.00204572
0.00608064
0.013658
0.0223476
0.0300888
0.0364672
0.0416293
0.0455665
0.0482744
0.0499308
0.0507943
0.051071
0.0508977
0.0503791
0.049601
0.0486428
0.0475195
0.0464176
0.00472966
0.00942404
0.0181244
0.0274464
0.0350581
0.041043
0.0458489
0.0494022
0.0516383
0.0528039
0.0532261
0.053118
0.0526043
0.0517933
0.0507763
0.0496387
0.0483749
0.0471817
0.00871707
0.0148697
0.0252546
0.0351398
0.0425974
0.0483022
0.0527371
0.0556708
0.0571536
0.0576737
0.0576291
0.0571694
0.0563616
0.0553083
0.0540999
0.0528195
0.0514389
0.0501653
0.0139825
0.0239411
0.0361876
0.0443425
0.0507177
0.0569901
0.0620692
0.0646567
0.0651659
0.064756
0.0640004
0.0629659
0.06166
0.0601935
0.0586391
0.05707
0.0554223
0.0538782
0.0214652
0.0423934
0.0593328
0.0604454
0.0596571
0.0636476
0.0695359
0.0733229
0.0745408
0.0745089
0.0737383
0.0722295
0.0700616
0.0675098
0.06471
0.0618192
0.0587717
0.0558749
0.0433472
0.0760723
0.0937224
0.104719
0.0971675
0.0901396
0.0875795
0.0862801
0.0847943
0.0829875
0.0800907
0.0756551
0.0698481
0.0633079
0.0564459
0.0497457
0.0433724
0.0377685
0.0805405
0.213197
0.0680964
0.0786744
0.167341
0.214728
0.214084
0.189286
0.158187
0.127609
0.0985205
0.0722042
0.050324
0.0345946
0.0260845
0.0255722
0.0331664
0.048754
0.659996
0.124867
0.31599
0.505946
0.37341
0.29575
0.229579
0.141704
0.0605637
0.0116302
0.0105537
0.0681142
0.189057
0.374736
0.620215
0.923564
1.27085
1.66007
31.8775
71.0678
43.2474
18.2727
7.06868
2.67218
1.11397
1.00734
1.81644
3.28493
5.25749
7.63432
10.2755
13.157
16.1291
19.2247
22.2419
25.2874
455.413
257.653
100.987
70.5615
91.6372
128.079
168.032
205.873
241.274
273.953
303.064
329.743
353.064
374.479
393.024
410.501
425.897
440.972
0
0
0
0
0
0
0
0
0
0
0
0
0
0
0
0
0
0
0
0
0
0
0
0
0
0
0
0
0
0
0
0
0
0
0
0
0
0
0
0
0
0
0
0
0
0
0
0
0
8.56959
9.23129
9.90259
10.5609
11.2822
11.9295
12.5982
13.3301
13.9766
14.4447
14.8434
15.5891
17.2303
18.4099
19.9937
21.5632
23.3018
25.0986
27.0015
28.9832
31.0567
33.2152
35.4629
37.7984
40.2234
42.7378
45.3427
48.0379
50.8239
53.7004
56.6674
59.7238
62.8693
66.1021
69.4212
72.8242
76.3094
79.8734
83.5139
87.2267
91.0086
94.8546
98.7609
102.721
106.732
110.785
114.875
118.995
123.138
127.296
131.463
135.628
139.785
143.923
148.034
152.108
156.135
160.103
164.001
167.819
171.543
175.158
178.648
181.999
185.195
188.223
191.074
193.757
196.272
198.625
200.804
202.808
204.626
206.254
207.685
208.911
209.929
210.731
211.315
211.676
211.809
211.713
211.384
210.821
210.022
208.986
207.714
206.206
204.463
202.487
200.281
197.848
195.19
192.311
189.219
185.915
182.406
178.71
174.829
170.752
166.493
162.064
157.492
152.781
147.921
142.935
137.83
132.617
127.308
121.912
116.44
110.905
105.314
99.6805
94.0134
88.3235
82.6211
76.9163
71.2187
65.5381
59.8835
54.264
48.6882
43.1646
37.7014
32.307
26.9903
21.762
16.6379
11.6495
6.89912
3.09734
4.32842
8.56216
13.1245
17.7262
22.3123
26.866
31.3797
35.8486
40.2677
44.6298
48.922
53.1251
57.1833
61.0573
64.33
67.3489
64.4724
0
0.00280286
0.0055902
0.0180936
0.0503541
0.104741
0.181124
0.276405
0.386796
0.508667
0.639738
0.779437
0.928265
1.0869
1.25604
1.43614
1.62766
1.83102
2.047
2.27673
2.52208
2.7852
3.06866
3.37454
3.70462
4.06113
4.44
4.81624
5.17254
5.51615
5.82863
6.07661
6.28568
6.46851
6.60033
6.72675
6.71708
6.39291
5.62606
5.10173
4.86063
4.029
4.08045
5.09644
5.09094
4.92149
4.79079
4.66997
4.54435
4.40834
4.26472
4.11574
3.96369
3.81012
3.65634
3.50336
3.35207
3.20326
3.05771
2.91617
2.77945
2.64836
2.5238
2.40669
2.29802
2.19883
2.11022
2.03331
1.9693
1.91938
1.8848
1.86679
1.86658
1.88544
1.92455
1.9851
2.06818
2.17488
2.30616
2.46297
2.64609
2.85622
3.09393
3.35966
3.65366
3.97601
4.32646
4.7045
5.10927
5.5394
5.99306
6.46727
6.95739
7.45675
7.95727
8.45131
8.9324
9.39038
9.80755
10.231
10.6526
11.0837
11.5251
11.9779
12.4417
12.9161
13.4003
13.8936
14.3951
14.9039
15.4193
15.9401
16.4654
16.9942
17.5254
18.0579
18.5908
19.1228
19.6527
20.1792
20.7017
21.2192
21.7308
22.2353
22.7315
23.218
23.694
24.1585
24.6105
25.05
25.4775
25.8887
26.2813
26.6585
27.0234
27.3707
27.7004
28.0124
28.3064
28.5823
28.8403
29.0804
29.3028
29.5077
29.6952
29.8656
30.0192
30.1563
30.2774
30.3829
30.4732
30.549
30.6107
30.6592
30.6948
30.7185
30.7312
30.7344
30.7293
30.7166
30.6957
30.673
30.6629
30.6444
30.5917
30.5198
30.4514
30.3904
30.3353
30.2846
30.2367
30.1908
30.1459
30.1047
30.0679
30.0876
30.1571
31.0137
32.4265
41.2434
0
0.0286141
0.0972923
0.155134
0.217759
0.294319
0.393783
0.519525
0.669074
0.836741
1.01679
1.2052
1.4
1.60078
1.80793
2.0221
2.24389
2.47372
2.71197
2.95885
3.21453
3.47888
3.75115
4.02948
4.31024
4.5877
4.85299
5.09659
5.30996
5.48903
5.62279
5.7071
5.75143
5.77219
5.77583
5.76345
5.70815
5.5719
5.38415
5.24503
5.18402
5.12394
5.12964
5.18755
5.2156
5.22311
5.27653
5.38246
5.53526
5.72434
5.94256
6.18498
6.44859
6.73129
7.03163
7.3485
7.68103
8.02845
8.39015
8.76553
9.15405
9.55523
9.96861
10.3938
10.8303
11.2778
11.7359
12.2043
12.6828
13.1709
13.6685
14.1754
14.6913
15.2162
15.7498
16.2922
16.843
17.4023
17.9699
18.5458
19.1298
19.7217
20.3213
20.9285
21.5428
22.1638
22.7909
23.4231
24.0595
24.6992
25.3415
25.9866
26.6347
27.2878
27.9508
28.6333
29.3501
30.1192
30.9696
31.8348
32.7159
33.6066
34.5045
35.4083
36.3167
37.2279
38.1401
39.0512
39.9595
40.8627
41.759
42.6462
43.5223
44.385
45.2323
46.0621
46.8724
47.6608
48.425
49.1628
49.8728
50.5537
51.204
51.8216
52.4044
52.9503
53.4578
53.9252
54.3522
54.7383
55.0838
55.3844
55.6349
55.8422
56.0089
56.13
56.2054
56.235
56.2192
56.1586
56.0541
55.9067
55.7175
55.4873
55.2175
54.9093
54.5639
54.1829
53.768
53.3208
52.8431
52.3369
51.8039
51.2464
50.6667
50.0674
49.4504
48.8174
48.1714
47.5149
46.8464
46.1651
45.468
44.7654
44.0796
43.4086
42.7468
42.0967
41.4586
40.8318
40.2156
39.6102
39.017
38.444
37.9059
37.4834
37.2631
38.0223
40.1576
46.8649
0
0.131047
0.286947
0.399756
0.488283
0.571761
0.668975
0.789906
0.937242
1.10865
1.29923
1.50376
1.71809
1.93949
2.16646
2.39823
2.63435
2.87442
3.11788
3.3639
3.61123
3.85797
4.10134
4.33747
4.5612
4.76635
4.94636
5.09539
5.21046
5.29316
5.34597
5.37154
5.38428
5.40465
5.43817
5.48116
5.51535
5.53525
5.55633
5.63369
5.77332
5.94826
6.26342
6.73053
7.1655
7.54329
7.90113
8.26676
8.65373
9.06577
9.50283
9.96348
10.4461
10.9493
11.4719
12.0127
12.5709
13.1459
13.737
14.3437
14.9656
15.6023
16.2536
16.9192
17.599
18.2928
19.0007
19.7227
20.4587
21.209
21.9736
22.7529
23.5469
24.3561
25.1806
26.0209
26.8771
27.7495
28.6385
29.5442
30.4669
31.4067
32.3636
33.3377
34.329
35.3373
36.3623
37.4037
38.4612
39.5347
40.625
41.7333
42.8617
44.0139
45.1963
46.416
47.6751
48.9662
50.2793
51.6049
52.9445
54.2936
55.6485
57.0061
58.3636
59.7178
61.0658
62.4043
63.7304
65.0408
66.3324
67.6021
68.8467
70.063
71.248
72.3986
73.5119
74.5844
75.6129
76.5944
77.527
78.4088
79.2378
80.0113
80.7264
81.3804
81.9709
82.496
82.9551
83.3488
83.6783
83.9335
84.1132
84.2271
84.2733
84.2498
84.1561
83.9922
83.7589
83.4578
83.0903
82.6582
82.1634
81.6077
80.9935
80.3227
79.5979
78.8216
77.9966
77.1258
76.2121
75.2589
74.2696
73.2475
72.1956
71.1169
70.0141
68.8891
67.7455
66.5888
65.4248
64.256
63.079
61.887
60.6923
59.5031
58.3235
57.1613
56.0208
54.9043
53.8137
52.7529
51.7292
50.7621
49.8885
49.2314
48.9475
49.864
52.3945
57.7497
0
0.27991
0.526583
0.70799
0.829143
0.92051
1.01228
1.11968
1.24951
1.40322
1.57858
1.77142
1.97723
2.19206
2.41287
2.63729
2.86348
3.08973
3.31441
3.53566
3.75141
3.95929
4.15666
4.34072
4.50888
4.65938
4.79157
4.90641
5.00674
5.0974
5.18394
5.27227
5.37086
5.48925
5.63049
5.79163
5.96683
6.15475
6.36378
6.61071
6.90778
7.25881
7.69404
8.21293
8.76135
9.31088
9.85999
10.4174
10.9914
11.587
12.2067
12.8514
13.5209
14.2149
14.9328
15.6743
16.4388
17.2261
18.0358
18.8678
19.7219
20.5981
21.4964
22.4171
23.3604
24.3265
25.3158
26.3287
27.3658
28.4275
29.5143
30.6269
31.7658
32.9316
34.1248
35.3462
36.596
37.8749
39.1831
40.521
41.8889
43.2868
44.7148
46.1729
47.6609
49.1785
50.7255
52.3014
53.9059
55.539
57.2011
58.8931
60.616
62.3714
64.1615
65.9868
67.8429
69.718
71.6034
73.4976
75.4007
77.3088
79.2175
81.1225
83.0192
84.9031
86.7695
88.6141
90.4323
92.2197
93.9718
95.6843
97.3528
98.973
100.541
102.052
103.503
104.889
106.205
107.449
108.618
109.71
110.722
111.65
112.492
113.245
113.904
114.469
114.939
115.317
115.597
115.776
115.851
115.835
115.722
115.512
115.206
114.803
114.307
113.718
113.04
112.275
111.426
110.496
109.489
108.407
107.255
106.036
104.755
103.415
102.022
100.578
99.0885
97.5572
95.9881
94.3846
92.7524
91.0978
89.425
87.7393
86.0471
84.3539
82.661
80.9623
79.26
77.5598
75.8707
74.2045
72.5696
70.9726
69.4202
67.9222
66.4953
65.1742
64.0208
63.1947
62.8994
63.9396
66.5657
70.7643
0
0.438204
0.760564
1.01468
1.17571
1.28075
1.36998
1.46306
1.57019
1.69616
1.84155
2.0041
2.18018
2.36584
2.5574
2.75162
2.94576
3.13735
3.32422
3.50437
3.67608
3.83792
3.98902
4.12923
4.25937
4.38145
4.4985
4.61445
4.73374
4.86108
5.00085
5.15707
5.33404
5.53583
5.76475
6.0211
6.30403
6.6138
6.95385
7.33184
7.75606
8.23364
8.77211
9.37055
10.0129
10.684
11.3766
12.0903
12.8275
13.5909
14.3824
15.2034
16.0547
16.9366
17.8494
18.7931
19.7678
20.7736
21.8108
22.8797
23.9805
25.1139
26.2803
27.4805
28.7152
29.9853
31.2916
32.6351
34.0168
35.4376
36.8987
38.4008
39.9451
41.5324
43.1636
44.8395
46.5607
48.3277
50.141
52.0008
53.9073
55.8603
57.8598
59.9052
61.996
64.1316
66.3112
68.5336
70.798
73.1033
75.4488
77.8337
80.2573
82.718
85.2139
87.741
90.2915
92.8552
95.4246
97.9975
100.572
103.143
105.706
108.255
110.784
113.286
115.755
118.185
120.571
122.905
125.183
127.398
129.544
131.617
133.611
135.52
137.34
139.065
140.69
142.212
143.626
144.932
146.124
147.201
148.157
148.991
149.698
150.277
150.729
151.055
151.247
151.305
151.232
151.037
150.713
150.263
149.687
148.988
148.167
147.228
146.175
145.013
143.744
142.373
140.906
139.346
137.7
135.972
134.167
132.29
130.348
128.344
126.285
124.175
122.023
119.833
117.613
115.37
113.11
110.839
108.564
106.291
104.024
101.762
99.5057
97.2574
95.0265
92.8268
90.6702
88.568
86.5325
84.5808
82.7403
81.061
79.6263
78.6196
78.2569
79.2673
81.672
84.8398
0
0.58462
0.954015
1.27004
1.47039
1.59238
1.68241
1.76321
1.8476
1.94301
2.05254
2.176
2.31121
2.45506
2.60423
2.75559
2.90637
3.05426
3.19743
3.33453
3.46483
3.58836
3.70595
3.81941
3.93151
4.04591
4.16681
4.29866
4.44573
4.61187
4.80033
5.01374
5.25448
5.52469
5.82612
6.16012
6.52781
6.93057
7.3709
7.85285
8.38132
8.96065
9.59403
10.2809
11.0159
11.7921
12.6046
13.4512
14.3318
15.2472
16.1985
17.1869
18.2134
19.2787
20.3838
21.5293
22.7159
23.9446
25.2161
26.5314
27.8916
29.298
30.7518
32.2545
33.8074
35.4121
37.0703
38.7834
40.5532
42.3811
44.2687
46.2174
48.2287
50.3036
52.4434
54.6489
56.9209
59.2598
61.666
64.1396
66.6802
69.2874
71.9604
74.6983
77.4996
80.3629
83.2862
86.2677
89.3047
92.395
95.5358
98.7244
101.957
105.23
108.539
111.875
115.23
118.594
121.958
125.319
128.672
132.01
135.328
138.617
141.87
145.077
148.232
151.327
154.353
157.303
160.17
162.945
165.623
168.195
170.657
173
175.219
177.308
179.26
181.072
182.741
184.262
185.633
186.849
187.907
188.803
189.536
190.102
190.506
190.739
190.805
190.699
190.432
190.007
189.419
188.672
187.768
186.71
185.502
184.148
182.655
181.026
179.269
177.389
175.391
173.282
171.069
168.758
166.354
163.866
161.3
158.663
155.963
153.207
150.404
147.563
144.69
141.795
138.884
135.966
133.046
130.132
127.229
124.341
121.47
118.619
115.797
113.018
110.297
107.649
105.094
102.655
100.37
98.302
96.5495
95.3035
94.7667
95.573
97.4994
99.6916
0
0.704637
1.08567
1.44261
1.67332
1.81038
1.90219
1.97274
2.03647
2.10268
2.17648
2.2596
2.35156
2.45059
2.55441
2.66071
2.76743
2.873
2.97642
3.07731
3.17599
3.27351
3.37173
3.47334
3.58168
3.70056
3.83406
3.98625
4.16087
4.36115
4.58976
4.84882
5.14014
5.46532
5.82591
6.22347
6.65962
7.13612
7.6552
8.21963
8.83256
9.49689
10.2145
10.9856
11.8084
12.6804
13.599
14.563
15.5718
16.6258
17.7258
18.8728
20.0681
21.313
22.6089
23.9572
25.3595
26.8174
28.3325
29.9069
31.5424
33.2411
35.0053
36.8374
38.7395
40.7142
42.7637
44.8906
47.097
49.3852
51.7573
54.2152
56.7606
59.395
62.1198
64.9358
67.8438
70.8439
73.9364
77.1205
80.3957
83.7606
87.2137
90.7529
94.3757
98.0794
101.861
105.716
109.641
113.631
117.681
121.786
125.941
130.138
134.368
138.624
142.894
147.167
151.434
155.687
159.919
164.123
168.288
172.407
176.467
180.461
184.376
188.205
191.936
195.562
199.071
202.456
205.707
208.817
211.778
214.581
217.22
219.687
221.976
224.083
226.004
227.734
229.27
230.609
231.746
232.679
233.406
233.926
234.24
234.339
234.23
233.91
233.396
232.685
231.774
230.669
229.372
227.889
226.225
224.388
222.382
220.216
217.896
215.43
212.825
210.09
207.231
204.258
201.179
198.003
194.74
191.397
187.986
184.515
180.994
177.432
173.84
170.227
166.601
162.97
159.343
155.727
152.128
148.554
145.011
141.502
138.036
134.629
131.298
128.062
124.946
121.981
119.212
116.713
114.59
113.028
112.201
112.648
113.918
115.191
0
0.794801
1.14943
1.52097
1.76744
1.91316
2.00473
2.06576
2.11128
2.15171
2.19359
2.24025
2.2928
2.35097
2.41385
2.48033
2.54944
2.62068
2.69379
2.76913
2.84765
2.93093
3.02118
3.12104
3.23375
3.36282
3.51184
3.68436
3.88365
4.11259
4.37364
4.66885
5.00001
5.36872
5.7766
6.2253
6.7166
7.25241
7.83484
8.46625
9.14908
9.88529
10.6768
11.5246
12.429
13.3895
14.4055
15.477
16.6042
17.7878
19.0288
20.3289
21.6898
23.1134
24.6021
26.1581
27.7838
29.482
31.2554
33.1069
35.0397
37.0569
39.162
41.3581
43.6489
46.0375
48.5274
51.1218
53.8236
56.6358
59.5609
62.6014
65.7592
69.036
72.4331
75.9513
79.5909
83.3518
87.2334
91.2345
95.3533
99.5875
103.934
108.39
112.951
117.613
122.37
127.216
132.146
137.152
142.227
147.363
152.551
157.781
163.042
168.324
173.613
178.897
184.164
189.403
194.605
199.759
204.853
209.877
214.817
219.661
224.398
229.015
233.501
237.845
242.035
246.062
249.914
253.582
257.058
260.332
263.395
266.239
268.859
271.25
273.407
275.326
277.002
278.433
279.615
280.546
281.224
281.652
281.822
281.735
281.395
280.805
279.981
278.918
277.617
276.083
274.322
272.341
270.148
267.749
265.154
262.371
259.409
256.277
252.985
249.542
245.96
242.249
238.419
234.481
230.447
226.328
222.134
217.878
213.57
209.221
204.844
200.447
196.042
191.638
187.242
182.864
178.513
174.198
169.928
165.708
161.549
157.467
153.481
149.614
145.896
142.363
139.068
136.089
133.533
131.575
130.345
130.304
130.804
131.214
0
0.85692
1.14991
1.51005
1.75527
1.90062
1.98751
2.03821
2.06744
2.08604
2.1014
2.11807
2.13857
2.16415
2.19509
2.23132
2.27282
2.31957
2.37238
2.43217
2.50034
2.57865
2.66924
2.77457
2.89729
3.04031
3.20667
3.39935
3.62124
3.875
4.16302
4.48746
4.85031
5.25339
5.69852
6.18757
6.72249
7.30537
7.93846
8.62418
9.36499
10.1633
11.021
11.9399
12.9208
13.9652
15.0741
16.2487
17.4904
18.8008
20.182
21.6363
23.1666
24.776
26.4676
28.2448
30.1114
32.0712
34.1283
36.287
38.5515
40.9266
43.4167
46.0265
48.7605
51.6231
54.6185
57.7508
61.0237
64.4407
68.0047
71.7184
75.5838
79.6026
83.7756
88.1032
92.5853
97.2207
102.008
106.944
112.027
117.252
122.615
128.11
133.732
139.473
145.327
151.284
157.336
163.473
169.684
175.96
182.287
188.653
195.046
201.449
207.85
214.232
220.581
226.884
233.128
239.299
245.384
251.368
257.237
262.977
268.572
274.011
279.278
284.361
289.247
293.924
298.38
302.605
306.589
310.32
313.789
316.99
319.914
322.557
324.914
326.981
328.752
330.227
331.401
332.275
332.847
333.117
333.082
332.741
332.101
331.171
329.963
328.473
326.704
324.663
322.358
319.799
316.993
313.951
310.684
307.202
303.516
299.638
295.579
291.352
286.97
282.445
277.79
273.018
268.142
263.175
258.13
253.021
247.859
242.659
237.433
232.192
226.948
221.711
216.49
211.297
206.141
201.034
195.986
191.007
186.108
181.307
176.624
172.085
167.724
163.582
159.716
156.206
153.156
150.721
148.991
148.361
148.024
147.624
0
0.896082
1.09892
1.42517
1.65336
1.78842
1.86491
1.90307
1.91686
1.91713
1.91189
1.90626
1.90364
1.90588
1.91464
1.9309
1.95552
1.9894
2.03341
2.08868
2.15656
2.2386
2.3366
2.45257
2.58873
2.74746
2.9313
3.14289
3.38486
3.65977
3.97008
4.31814
4.70622
5.13651
5.61121
6.13252
6.70276
7.32435
7.99986
8.732
9.52352
10.3772
11.2959
12.282
13.3385
14.4677
15.6719
16.9533
18.3148
19.7594
21.2907
22.9126
24.6293
26.4452
28.3648
30.393
32.5349
34.7958
37.1813
39.6972
42.3494
45.1439
48.0866
51.1834
54.4398
57.8614
61.453
65.2195
69.1651
73.2934
77.6076
82.1101
86.8027
91.6864
96.7614
102.027
107.482
113.124
118.95
124.956
131.135
137.484
143.994
150.659
157.468
164.414
171.484
178.669
185.957
193.333
200.786
208.299
215.859
223.451
231.056
238.66
246.242
253.787
261.277
268.696
276.028
283.256
290.363
297.334
304.15
310.797
317.258
323.518
329.56
335.37
340.934
346.239
351.272
356.02
360.473
364.618
368.447
371.952
375.125
377.961
380.455
382.603
384.401
385.847
386.94
387.679
388.064
388.096
387.773
387.096
386.073
384.716
383.039
381.034
378.708
376.071
373.134
369.908
366.404
362.634
358.611
354.347
349.856
345.152
340.248
335.16
329.902
324.489
318.937
313.26
307.474
301.592
295.632
289.606
283.53
277.419
271.286
265.144
259.006
252.884
246.788
240.73
234.723
228.778
222.91
217.129
211.449
205.888
200.469
195.222
190.18
185.389
180.91
176.82
173.215
170.231
167.92
166.629
165.421
164.264
0
0.919139
1.0118
1.28734
1.48566
1.60107
1.66116
1.68412
1.68291
1.66794
1.64689
1.62574
1.60846
1.59795
1.59604
1.60413
1.62337
1.6548
1.69941
1.75833
1.83272
1.92389
2.03327
2.16251
2.31346
2.48814
2.68877
2.91772
3.17749
3.47066
3.79983
4.16761
4.57665
5.0296
5.52919
6.07813
6.67927
7.33563
8.05042
8.82707
9.66909
10.5799
11.5634
12.6238
13.7651
14.9905
16.3042
17.7102
19.2125
20.8164
22.5273
24.351
26.2935
28.3609
30.5594
32.8953
35.3756
38.0072
40.7974
43.7538
46.8838
50.1948
53.6939
57.388
61.2837
65.3871
69.7036
74.2383
78.9951
83.9777
89.1886
94.6295
100.301
106.204
112.335
118.694
125.277
132.079
139.095
146.318
153.741
161.355
169.151
177.117
185.241
193.512
201.914
210.435
219.058
227.767
236.545
245.375
254.238
263.116
271.99
280.839
289.642
298.38
307.032
315.581
324.006
332.288
340.409
348.349
356.09
363.614
370.903
377.94
384.707
391.189
397.371
403.238
408.776
413.973
418.816
423.293
427.396
431.116
434.447
437.383
439.919
442.051
443.776
445.093
446.002
446.504
446.6
446.289
445.576
444.461
442.951
441.068
438.822
436.198
433.217
429.888
426.224
422.238
417.945
413.358
408.493
403.363
397.985
392.375
386.55
380.525
374.319
367.948
361.431
354.783
348.023
341.166
334.23
327.231
320.186
313.111
306.02
298.929
291.851
284.799
277.785
270.822
263.924
257.105
250.38
243.761
237.266
230.912
224.726
218.736
212.981
207.507
202.375
197.66
193.448
189.855
186.899
184.898
182.81
180.944
0
0.932642
0.904255
1.11883
1.27828
1.36697
1.40582
1.41063
1.39385
1.36566
1.33407
1.30456
1.28116
1.26675
1.26336
1.2725
1.29526
1.33256
1.38523
1.45409
1.54004
1.64411
1.76747
1.91149
2.07779
2.2682
2.48489
2.73011
3.00644
3.31656
3.66334
4.04976
4.479
4.95433
5.47918
6.0571
6.69188
7.38729
8.14774
8.97779
9.88222
10.8666
11.9352
13.093
14.3453
15.6982
17.1577
18.7303
20.4226
22.2416
24.1952
26.2912
28.5377
30.9424
33.5134
36.2589
39.1875
42.3083
45.6304
49.1627
52.9141
56.893
61.1074
65.5647
70.2718
75.2345
80.4582
85.9472
91.7046
97.7327
104.033
110.605
117.447
124.558
131.934
139.57
147.459
155.594
163.968
172.569
181.387
190.411
199.625
209.018
218.572
228.273
238.101
248.041
258.072
268.174
278.328
288.514
298.709
308.893
319.042
329.133
339.143
349.05
358.832
368.468
377.935
387.212
396.278
405.112
413.694
422.006
430.027
437.74
445.126
452.168
458.852
465.162
471.082
476.601
481.706
486.385
490.63
494.433
497.788
500.689
503.132
505.112
506.63
507.684
508.276
508.409
508.083
507.304
506.077
504.397
502.282
499.759
496.824
493.471
489.725
485.598
481.105
476.262
471.085
465.59
459.794
453.714
447.368
440.775
433.953
426.921
419.698
412.306
404.761
397.084
389.294
381.409
373.447
365.428
357.368
349.285
341.196
333.117
325.062
317.046
309.081
301.183
293.365
285.644
278.035
270.553
263.217
256.046
249.067
242.311
235.816
229.631
223.814
218.436
213.574
209.325
205.68
202.939
199.978
197.45
0
0.942375
0.790324
0.940451
1.05651
1.11322
1.12669
1.11156
1.0795
1.04039
1.00184
0.969422
0.946871
0.936621
0.94021
0.958621
0.992517
1.04243
1.10884
1.19231
1.29351
1.41325
1.55258
1.71278
1.89541
2.10235
2.33579
2.59825
2.89255
3.22179
3.58938
3.99883
4.45416
4.95956
5.51953
6.13895
6.82315
7.57828
8.4095
9.3227
10.3242
11.4198
12.6173
13.9243
15.3489
16.8996
18.5853
20.4146
22.3972
24.5426
26.8608
29.3619
32.0556
34.9516
38.0597
41.3901
44.9536
48.7608
52.822
57.1471
61.7455
66.6258
71.7955
77.2616
83.0297
89.1045
95.4895
102.187
109.198
116.521
124.156
132.1
140.347
148.891
157.727
166.845
176.234
185.885
195.784
205.918
216.271
226.829
237.574
248.487
259.551
270.745
282.048
293.439
304.894
316.392
327.911
339.426
350.913
362.348
373.706
384.961
396.088
407.063
417.862
428.463
438.84
448.972
458.836
468.41
477.674
486.608
495.191
503.404
511.23
518.651
525.653
532.219
538.335
543.988
549.167
553.86
558.061
561.761
564.957
567.64
569.811
571.463
572.601
573.22
573.331
572.928
572.023
570.629
568.734
566.347
563.491
560.198
556.439
552.233
547.604
542.566
537.136
531.333
525.175
518.679
511.866
504.753
497.362
489.712
481.824
473.721
465.423
456.952
448.329
439.575
430.71
421.755
412.729
403.653
394.546
385.426
376.311
367.218
358.163
349.161
340.226
331.374
322.621
313.982
305.475
297.116
288.924
280.922
273.136
265.598
258.347
251.432
244.907
238.839
233.296
228.357
223.994
220.5
216.685
213.543
0
0.954059
0.682535
0.769823
0.841235
0.864048
0.850286
0.813894
0.766846
0.71909
0.677881
0.648018
0.632406
0.632622
0.649356
0.682834
0.733066
0.800062
0.883957
0.985077
1.10397
1.24145
1.39862
1.57695
1.77825
2.00471
2.25902
2.54418
2.86369
3.22162
3.62258
4.07203
4.57517
5.13751
5.76504
6.46438
7.24267
8.10773
9.06781
10.1315
11.3075
12.6053
14.0356
15.6092
17.3377
19.2327
21.3061
23.5696
26.0359
28.7169
31.6246
34.7706
38.1658
41.8215
45.7491
49.9607
54.4682
59.2825
64.4137
69.8709
75.6619
81.7933
88.2703
95.0969
102.276
109.807
117.692
125.928
134.511
143.437
152.699
162.29
172.2
182.419
192.935
203.735
214.803
226.126
237.684
249.461
261.438
273.596
285.913
298.369
310.941
323.608
336.344
349.126
361.93
374.73
387.501
400.216
412.85
425.377
437.769
450.001
462.047
473.88
485.478
496.815
507.868
518.612
529.025
539.086
548.774
558.069
566.951
575.4
583.399
590.933
597.988
604.547
610.596
616.124
621.121
625.577
629.486
632.841
635.64
637.874
639.548
640.65
641.195
641.176
640.594
639.467
637.807
635.607
632.872
629.617
625.873
621.655
616.927
611.735
606.097
600.03
593.553
586.685
579.449
571.863
563.948
555.725
547.217
538.446
529.434
520.206
510.783
501.191
491.45
481.584
471.614
461.562
451.45
441.298
431.126
420.954
410.802
400.686
390.623
380.629
370.721
360.912
351.221
341.664
332.258
323.022
313.975
305.14
296.545
288.222
280.21
272.555
265.311
258.539
252.296
246.65
241.557
237.313
232.671
228.97
0
0.970783
0.585056
0.614252
0.64143
0.628262
0.585838
0.528667
0.469155
0.416934
0.378414
0.357217
0.354937
0.371889
0.407682
0.461621
0.533042
0.621504
0.726984
0.849855
0.990855
1.15114
1.33239
1.5369
1.76761
2.02808
2.32188
2.6533
3.02728
3.44972
3.92748
4.46796
5.07938
5.77018
6.5496
7.42761
8.41518
9.52332
10.7653
12.1543
13.7041
15.4289
17.3433
19.4622
21.8007
24.3736
27.1955
30.2809
33.6444
37.2991
41.2577
45.5323
50.1308
55.0663
60.3505
65.9949
72.009
78.4003
85.1749
92.3368
99.8886
107.831
116.163
124.883
133.985
143.465
153.316
163.528
174.093
184.999
196.233
207.781
219.628
231.759
244.157
256.803
269.678
282.763
296.037
309.478
323.065
336.775
350.586
364.475
378.418
392.389
406.363
420.317
434.222
448.053
461.784
475.39
488.844
502.12
515.192
528.035
540.622
552.929
564.932
576.606
587.93
598.88
609.433
619.57
629.272
638.52
647.295
655.577
663.349
670.6
677.316
683.485
689.089
694.122
698.575
702.44
705.713
708.386
710.464
711.93
712.801
713.06
712.737
711.782
710.277
708.186
705.524
702.296
698.507
694.185
689.375
684.031
678.167
671.826
665.028
657.789
650.131
642.077
633.647
624.864
615.75
606.328
596.622
586.654
576.451
566.037
555.436
544.674
533.774
522.759
511.652
500.476
489.253
478.005
466.753
455.517
444.317
433.17
422.094
411.106
400.221
389.456
378.828
368.355
358.054
347.944
338.045
328.381
318.98
309.872
301.098
292.701
284.731
277.245
270.291
263.929
258.103
253.118
247.674
243.484
0
0.984217
0.504074
0.486347
0.475059
0.430473
0.364521
0.292732
0.227788
0.178542
0.149937
0.143863
0.160313
0.198311
0.256524
0.333657
0.428816
0.541859
0.673333
0.824324
0.99643
1.19182
1.41363
1.66609
1.95433
2.2841
2.66195
3.09483
3.59127
4.16143
4.8169
5.57009
6.43411
7.42311
8.5518
9.83682
11.2963
12.9501
14.8173
16.9164
19.2657
21.8832
24.7875
27.9973
31.5301
35.4013
39.6241
44.2121
49.1779
54.5324
60.2859
66.441
73.005
79.9885
87.3972
95.234
103.499
112.189
121.3
130.827
140.761
151.093
161.813
172.909
184.368
196.175
208.315
220.773
233.532
246.575
259.882
273.436
287.217
301.205
315.38
329.722
344.21
358.821
373.534
388.327
403.179
418.065
432.965
447.854
462.71
477.509
492.224
506.832
521.307
535.626
549.767
563.706
577.417
590.877
604.06
616.945
629.508
641.727
653.578
665.039
676.088
686.704
696.867
706.561
715.768
724.473
732.657
740.303
747.396
753.932
759.897
765.277
770.055
774.226
777.782
780.72
783.035
784.715
785.781
786.2
786.014
785.161
783.71
781.636
778.951
775.669
771.801
767.35
762.338
756.809
750.77
744.161
737.047
729.455
721.406
712.919
704.016
694.721
685.056
675.046
664.713
654.081
643.174
632.018
620.639
609.061
597.312
585.415
573.396
561.278
549.085
536.838
524.562
512.278
500.006
487.769
475.584
463.471
451.447
439.529
427.732
416.073
404.569
393.238
382.098
371.164
360.46
350.01
339.842
329.987
320.484
311.374
302.705
294.527
286.884
279.826
273.293
267.601
261.391
256.824
0
0.988862
0.444613
0.39864
0.36108
0.295142
0.21568
0.139437
0.0786244
0.0404502
0.0277865
0.0406507
0.0777721
0.137626
0.218786
0.320165
0.441577
0.58417
0.750437
0.943705
1.16784
1.42776
1.73025
2.08452
2.50153
2.99325
3.5715
4.25036
5.04638
5.97979
7.07334
8.35174
9.8396
11.5588
13.5324
15.7859
18.3463
21.2399
24.4917
28.1233
32.1536
36.5973
41.469
46.7825
52.5488
58.7772
65.4744
72.6432
80.2887
88.3998
96.9681
105.981
115.456
125.382
135.747
146.536
157.733
169.322
181.283
193.599
206.251
219.221
232.489
246.036
259.841
273.886
288.151
302.618
317.266
332.077
347.032