/*--------------------------------*- C++ -*----------------------------------*\
  =========                 |
  \\      /  F ield         | OpenFOAM: The Open Source CFD Toolbox
   \\    /   O peration     | Website:  https://openfoam.org
    \\  /    A nd           | Version:  9
     \\/     M anipulation  |
\*---------------------------------------------------------------------------*/
FoamFile
{
    format      ascii;
    class       volScalarField;
    location    "0.75";
    object      p;
}
// * * * * * * * * * * * * * * * * * * * * * * * * * * * * * * * * * * * * * //

dimensions      [0 2 -2 0 0 0 0];

internalField   nonuniform List<scalar> 
464
(
6.74739e-13
-1.33976e-12
-2.20038e-13
-1.82917e-13
-1.56922e-12
-2.21395e-13
2.80314e-13
-1.77237e-13
-2.58142e-13
-1.87318e-13
6.83872e-13
1.57984e-12
2.06606e-13
1.6003e-12
3.56509e-13
2.82501e-13
-1.59052e-13
-1.58628e-13
-1.24393e-13
-1.92321e-13
-2.07012e-13
-2.47231e-13
-2.23613e-13
-1.95337e-13
-1.89893e-13
-2.01731e-13
9.98384e-13
-1.29287e-13
8.943e-13
-2.42792e-13
-2.37588e-13
-2.98231e-14
1.05199e-14
-1.06409e-13
-1.36816e-13
-1.71626e-13
-1.86668e-13
-1.08908e-13
-1.18998e-13
1.14309e-13
-1.94781e-13
-2.35798e-13
-2.34159e-13
1.33973e-12
1.13378e-12
1.5012e-13
-1.48045e-13
-1.16952e-13
-7.97077e-14
-1.3503e-13
-1.84571e-13
-1.12172e-13
-1.59106e-13
-1.62487e-13
-1.57366e-13
-1.11297e-13
-1.33332e-13
-1.64942e-13
-1.62641e-13
-1.71823e-13
-8.21279e-14
-9.48468e-13
-1.55316e-13
-1.71013e-13
-6.11024e-13
-1.75588e-13
-1.36508e-13
-6.71647e-14
9.23661e-13
-1.57549e-13
-1.59506e-13
-8.08385e-13
6.07685e-13
-1.14403e-13
-3.80856e-13
-1.17179e-13
-1.45822e-13
2.99166e-13
-1.6588e-13
5.90994e-13
-1.40775e-12
-2.33302e-13
-2.22634e-12
-2.66877e-13
-1.40648e-12
-1.56711e-13
-6.78082e-13
-2.41525e-13
-1.77368e-13
-3.2417e-13
-1.26115e-12
-1.01971e-12
-1.38781e-13
1.37553e-12
-1.35843e-13
-1.46501e-13
-1.67301e-13
-2.17628e-13
-9.2579e-13
-2.07073e-13
-1.8043e-13
-1.22458e-13
-2.0205e-13
-7.85114e-14
-1.15845e-13
-2.20455e-12
-2.52059e-13
-1.40267e-13
-1.25287e-12
-1.53954e-13
-1.64583e-13
-1.33146e-13
-1.2955e-13
-7.19736e-13
-1.59562e-13
-1.79595e-13
-1.86444e-12
-2.89799e-13
-1.11435e-12
-2.52055e-13
-1.40892e-13
1.70787e-13
-5.3733e-13
6.30308e-13
-1.55316e-13
-1.87092e-13
-2.15666e-13
-1.63892e-13
-1.49657e-13
-1.99944e-12
-2.74427e-13
1.77225e-12
-9.87742e-14
-1.98189e-13
-2.66669e-13
-1.56512e-12
-2.97962e-13
-1.46155e-13
-2.36783e-13
-2.85473e-13
-3.12874e-13
-1.54061e-13
-1.60747e-13
-1.77492e-13
-3.12894e-13
-4.87656e-13
-1.79017e-13
-2.51152e-13
-1.69054e-13
-2.74023e-13
-2.04419e-13
-1.97865e-13
9.73074e-14
-2.24918e-13
-1.38124e-12
-2.93598e-13
-1.9556e-13
-1.77775e-13
-1.67553e-13
-1.0699e-12
-1.34582e-13
-1.97444e-13
-3.13679e-13
-2.4815e-13
-2.37939e-13
-3.05397e-13
-2.20557e-14
-2.20995e-13
-1.9707e-14
-2.24528e-13
-1.48111e-13
-8.17205e-13
-5.58876e-13
-2.61783e-13
-3.01208e-13
-1.39951e-13
-1.78521e-13
-1.90318e-13
3.24293e-13
-1.52925e-13
-1.88935e-13
-1.2198e-13
-1.93729e-13
-2.0123e-13
-9.41141e-14
-1.83732e-13
-9.5695e-14
-8.69406e-14
-4.22996e-13
-7.97558e-14
-1.35831e-13
-7.12049e-14
-8.86107e-14
-1.25218e-13
-1.64575e-13
-1.66106e-13
-2.10902e-13
-1.47774e-13
-1.30496e-13
-1.50901e-13
-1.42273e-13
-1.64411e-13
-1.26984e-13
-1.61971e-13
-8.00631e-14
-9.66753e-14
-1.42519e-13
-1.64993e-13
-1.74756e-13
-7.19306e-13
-2.96395e-13
-1.15588e-13
-6.81052e-14
-1.61969e-13
-2.13192e-13
-1.18152e-13
-2.23091e-14
-1.14144e-13
9.19536e-13
-1.75288e-13
-1.90878e-13
-1.5549e-13
-1.55932e-13
-1.70467e-13
-1.78237e-13
-1.95284e-13
-1.75269e-13
-1.78781e-13
-1.7444e-13
-1.73841e-13
-1.76138e-13
-1.70688e-13
-1.69138e-13
-1.60778e-13
-1.68004e-13
-1.69453e-13
-1.65196e-13
-1.62709e-13
-1.66373e-13
-1.69564e-13
-1.63776e-13
-1.55472e-13
-1.67372e-13
-1.62704e-13
-1.55734e-13
-1.68793e-13
-1.57986e-13
-1.94435e-13
-1.60755e-13
-1.98239e-13
-1.43307e-13
-1.62174e-13
-1.48464e-13
-2.4606e-13
-1.46965e-13
-1.49481e-13
-1.755e-13
-2.03158e-13
-1.39948e-13
-1.00098e-13
-1.50701e-13
-1.50391e-13
-1.26168e-13
5.63241e-14
-1.29124e-13
2.51601e-14
-1.23062e-13
-1.52487e-13
2.61001e-13
-1.84634e-14
-2.48112e-13
-1.1134e-13
-1.13918e-13
1.23072e-13
2.19428e-13
-1.13405e-13
-6.60568e-14
-1.63964e-13
-1.69489e-13
-5.75855e-13
-1.6799e-13
-1.55637e-13
-1.78287e-13
-1.06372e-13
2.55963e-13
-2.68331e-13
-1.63272e-13
-4.57647e-13
-1.46744e-13
-1.86095e-13
-3.5819e-13
-2.0574e-13
-1.55332e-13
-1.60816e-13
-1.38199e-13
-1.54613e-13
-1.32104e-13
-1.26713e-13
-1.19901e-13
-5.72035e-13
1.69376e-13
3.87218e-14
5.05871e-13
1.51451e-12
-1.56608e-13
-1.31951e-13
-1.3962e-13
-1.90565e-13
-9.89567e-13
-2.01033e-13
-1.64326e-13
-1.76772e-13
-1.49877e-13
1.00038e-13
-1.59969e-13
-2.02558e-13
-1.47522e-13
-6.37809e-13
-1.68656e-13
1.58638e-13
-2.4963e-13
-1.31056e-13
-8.16088e-13
-1.18949e-13
-1.57042e-13
-7.46661e-14
-6.13495e-14
4.29513e-13
-1.36904e-13
-4.4718e-13
-2.08966e-13
-4.53709e-13
-1.92095e-13
-1.4602e-13
-1.63224e-13
-1.75477e-13
-2.38787e-13
-1.82022e-13
-2.45414e-13
-2.23968e-13
-1.73445e-13
9.46839e-13
-3.3334e-13
-4.65219e-13
-1.56938e-13
-1.5885e-13
-7.3374e-14
-1.48142e-13
-1.81286e-13
-1.64445e-13
-1.55833e-13
-1.84909e-13
-1.37992e-13
-1.4747e-13
-1.46353e-13
-8.57422e-13
-2.31586e-13
-2.00498e-12
-2.3562e-13
-1.31055e-12
-2.07513e-13
8.95223e-14
-2.31863e-13
-1.41896e-12
8.57666e-13
-1.3025e-13
-1.6261e-13
-1.99197e-13
2.05609e-12
-2.57315e-13
-1.69564e-13
1.75339e-12
4.02892e-13
-1.48767e-13
1.21996e-12
-2.00012e-13
7.67866e-13
-2.43644e-13
7.39659e-13
-2.6172e-13
9.09253e-14
-7.66218e-14
-1.38417e-13
-7.96614e-14
-1.40389e-13
-4.35935e-14
-1.3838e-13
-2.20333e-13
-2.11023e-13
-1.43893e-13
-1.81186e-13
-1.627e-13
-1.77955e-13
-1.4839e-13
-1.89696e-13
-2.10979e-13
-2.007e-13
-2.22815e-13
-2.32153e-13
6.1249e-13
-7.40833e-13
-1.97222e-13
1.37422e-12
-1.56822e-13
1.12899e-13
5.95839e-13
1.70572e-12
-1.38835e-13
8.59729e-13
-1.43733e-13
-3.59367e-13
-1.52705e-13
-2.14117e-13
-2.10503e-13
-1.99533e-13
-6.71222e-13
2.43269e-12
-1.42388e-13
-2.07237e-13
-9.63352e-13
-1.62852e-13
-1.92916e-13
7.79226e-13
1.54256e-12
7.95879e-13
4.42037e-13
5.67014e-13
3.42231e-13
2.06798e-13
-2.25341e-12
-2.45338e-13
-8.44315e-14
-1.28129e-13
-2.41666e-13
-1.43729e-13
-1.8005e-13
-1.80461e-13
-2.19317e-13
-1.71022e-13
-2.77795e-13
-1.65089e-13
-1.52222e-13
-1.73051e-13
-1.86364e-13
-2.09027e-13
-1.99703e-13
-2.09189e-13
-2.49865e-13
-1.98038e-13
-1.94998e-13
1.68596e-14
2.03285e-13
1.04387e-13
-2.1584e-13
-1.70873e-13
-1.69147e-13
-1.59528e-13
-1.38935e-13
-1.57718e-13
-1.49568e-13
-1.50558e-13
2.31239e-12
1.47921e-12
-2.18054e-13
)
;

boundaryField
{
    back
    {
        type            empty;
    }
    front
    {
        type            empty;
    }
    left
    {
        type            zeroGradient;
    }
    top
    {
        type            zeroGradient;
    }
    right
    {
        type            zeroGradient;
    }
    bottom
    {
        type            uniformFixedValue;
        uniformValue    
        {
            type            scale;
            scale           
            {
                type            squarePulse;
                start           0.3;
                duration        0.3;
            }
            xScale          
            {
                type            constant;
                value           1;
            }
            value           
            {
                type            constant;
                value           15.1;
            }
        }
        value           uniform 0;
    }
}


// ************************************************************************* //
