/*--------------------------------*- C++ -*----------------------------------*\
  =========                 |
  \\      /  F ield         | OpenFOAM: The Open Source CFD Toolbox
   \\    /   O peration     | Website:  https://openfoam.org
    \\  /    A nd           | Version:  9
     \\/     M anipulation  |
\*---------------------------------------------------------------------------*/
FoamFile
{
    format      ascii;
    class       surfaceScalarField;
    location    "0.75";
    object      phi;
}
// * * * * * * * * * * * * * * * * * * * * * * * * * * * * * * * * * * * * * //

dimensions      [0 3 -1 0 0 0 0];

internalField   nonuniform List<scalar> 
663
(
-1.63464e-18
1.74848e-18
-1.13846e-19
5.20803e-19
1.93888e-18
-2.06416e-21
2.06416e-21
4.4023e-20
-2.14265e-20
-2.25964e-20
-8.53999e-19
1.3748e-18
3.45826e-22
-2.40997e-21
-1.87566e-18
2.41024e-19
1.4286e-20
2.9737e-20
-2.20853e-18
9.11577e-19
1.29695e-18
-1.17031e-19
-2.0915e-18
-6.01641e-19
2.35012e-18
1.13581e-18
-5.59208e-19
-5.76605e-19
-9.64083e-19
1.04845e-18
8.73607e-20
2.79866e-19
-2.72309e-19
-7.55704e-21
2.94679e-19
-1.48125e-20
1.06366e-19
-1.19318e-19
1.29521e-20
1.15152e-19
-8.7857e-21
1.35529e-21
-1.35529e-21
1.53522e-19
-1.88526e-19
3.50038e-20
-3.70306e-20
1.90552e-19
-5.54479e-20
-7.15022e-20
1.2695e-19
-1.42893e-19
8.7445e-20
-5.71191e-20
4.73021e-20
9.81696e-21
4.47835e-21
-2.59049e-20
-3.19267e-20
-2.51924e-20
-1.46014e-19
4.74976e-20
9.85161e-20
4.84972e-20
-1.6346e-20
-3.21512e-20
1.74267e-19
-3.20281e-19
9.39467e-20
-7.7932e-20
-1.60147e-20
4.63954e-20
4.75513e-20
-2.95229e-19
2.88619e-19
6.60946e-21
2.84088e-20
-3.23637e-19
2.63306e-19
-2.63191e-19
-1.15234e-22
2.04396e-19
5.89099e-20
8.95293e-20
2.56225e-20
1.53978e-19
-6.44484e-20
-7.27989e-21
8.63518e-21
1.27624e-20
3.57348e-20
-2.88125e-19
1.82307e-20
2.69894e-19
-1.1281e-19
-7.57155e-20
1.58038e-19
-1.77309e-19
1.9271e-20
1.51455e-20
-1.36717e-19
1.84215e-19
-6.95925e-19
6.55363e-21
-7.47159e-20
1.62608e-19
-8.78917e-20
-1.522e-19
1.39063e-19
1.31375e-20
-2.13976e-20
2.13976e-20
-2.36259e-20
5.95192e-20
-1.72329e-19
6.71328e-20
1.39839e-20
-8.11167e-20
-1.67148e-19
2.77933e-20
1.39355e-19
2.32503e-20
-1.25639e-19
1.02388e-19
2.0332e-19
-1.8007e-19
-4.62825e-20
1.13415e-19
-1.20998e-19
-3.35143e-20
-8.80263e-20
1.21541e-19
1.65331e-19
-1.98845e-19
-1.43097e-19
-2.40507e-20
-8.63519e-21
-2.00916e-19
9.56918e-19
-7.56002e-19
-1.07614e-19
9.76555e-20
9.95818e-21
9.98053e-20
-1.17979e-19
1.81737e-20
-1.43979e-18
1.32276e-18
-5.01828e-20
-7.54559e-20
-1.77181e-19
1.60941e-19
1.62403e-20
3.53815e-20
-1.17825e-18
5.18349e-21
1.98137e-19
1.85788e-19
-2.04578e-20
-1.64071e-18
2.78524e-19
-1.04257e-19
-5.50553e-20
-9.71451e-20
-1.33462e-20
3.41143e-19
-3.27797e-19
-4.53819e-20
-7.56048e-21
-1.69621e-19
-1.77052e-18
1.65667e-18
-1.25407e-19
3.73807e-20
6.21503e-21
6.56101e-19
9.15146e-19
-1.57125e-18
-1.74753e-20
1.67048e-20
7.70554e-22
2.7825e-19
-4.49922e-19
1.71672e-19
6.63566e-21
1.29357e-21
-7.92923e-21
9.34351e-19
-2.18856e-20
-8.57281e-20
1.07519e-18
-1.18269e-19
-1.08397e-20
-7.42227e-20
5.70052e-20
1.72175e-20
-3.53449e-19
3.40103e-19
1.78348e-19
-7.25563e-19
2.64662e-19
-1.69302e-19
-9.53602e-20
-6.69389e-19
-8.39126e-19
1.50852e-18
1.93213e-19
7.14488e-20
9.0095e-20
-2.56017e-20
-4.35283e-21
2.10576e-20
4.35749e-20
1.23095e-19
-1.6667e-19
7.22268e-19
-1.68635e-18
-4.9517e-20
-2.47057e-20
-3.03776e-20
1.6944e-19
3.77129e-20
-8.72299e-20
1.06484e-19
1.82136e-19
-1.56708e-19
-4.49922e-19
1.29357e-21
2.14312e-19
-5.33715e-20
-1.8867e-19
3.67019e-19
-1.50696e-19
2.03646e-19
-5.29495e-20
2.37326e-19
8.52238e-20
-3.22549e-19
1.07552e-19
4.50104e-20
-2.44763e-19
2.88338e-19
-1.10313e-20
6.80365e-20
-5.66703e-20
9.43832e-20
-1.71672e-19
-1.69988e-20
9.46704e-21
7.92923e-21
-1.73963e-20
1.23095e-19
4.62037e-20
-3.67366e-20
-1.81074e-19
-6.15597e-19
1.33786e-18
7.11598e-19
3.63589e-19
-1.01773e-18
1.25876e-18
1.63903e-19
3.63119e-19
-1.25794e-19
1.07311e-18
-3.6151e-19
-2.25235e-19
3.10459e-19
8.00185e-20
1.24378e-19
1.69187e-19
-1.69187e-19
3.91206e-20
-9.57909e-20
-1.89256e-20
-7.25055e-20
9.14311e-20
-1.69988e-20
-1.73963e-20
1.56206e-20
-4.77718e-20
-5.77718e-20
5.77718e-20
3.08203e-20
-4.97459e-20
-1.29336e-19
-1.70338e-19
1.4988e-19
8.33519e-20
-3.08203e-20
1.3424e-20
-7.21543e-22
3.41865e-19
-6.73268e-20
1.06447e-19
3.5364e-20
-1.1449e-19
-3.48927e-21
-6.60211e-20
8.24932e-21
3.22632e-20
-9.95899e-20
-1.15182e-19
1.9391e-20
9.86837e-20
3.06938e-19
-4.05622e-19
2.92868e-19
7.02514e-20
1.06096e-19
4.97459e-20
8.02593e-21
-8.98336e-20
-2.94846e-20
-6.89802e-20
1.01243e-19
4.57511e-19
4.93664e-19
-1.26645e-19
1.18925e-19
-2.56489e-19
1.37564e-19
2.24195e-20
-9.13997e-20
2.27995e-20
-3.50597e-19
-6.60211e-20
1.11584e-20
-7.71795e-20
1.12755e-19
6.16965e-21
-1.49584e-19
1.60742e-19
-2.20023e-20
3.20305e-19
-2.98303e-19
-1.44592e-19
1.44592e-19
-1.14478e-19
-3.01137e-20
3.75395e-19
-1.67392e-19
1.6667e-19
-1.44008e-19
1.67391e-19
2.78192e-20
-2.53054e-19
-5.90799e-20
8.14993e-20
-6.43293e-20
5.24942e-21
-3.29634e-19
4.28318e-19
-1.25432e-20
-1.85215e-19
1.97758e-19
1.02459e-19
-1.66789e-19
9.61993e-21
1.55919e-19
-1.65539e-19
7.94422e-20
-7.94422e-20
6.6899e-20
1.01175e-19
-1.23177e-19
-1.01175e-19
2.17326e-20
6.73351e-20
-5.77152e-20
6.73351e-20
-8.66593e-20
1.14478e-19
-1.60564e-19
-2.35758e-20
1.8414e-19
8.66593e-20
-1.93242e-20
6.47891e-20
-6.47891e-20
8.87605e-21
-1.95724e-20
-1.79273e-19
-1.82189e-19
1.62616e-19
-1.86614e-19
-1.80075e-19
1.85259e-19
4.06491e-21
-1.76442e-19
-5.74667e-21
7.77301e-20
-7.36652e-20
-1.86669e-19
1.02269e-20
7.36652e-20
7.77301e-20
7.63198e-20
-7.63198e-20
7.05732e-20
-5.77152e-20
3.53815e-20
-5.42513e-20
5.42513e-20
-7.71795e-20
-1.23177e-19
-1.13544e-19
1.13544e-19
7.05732e-20
6.6899e-20
1.41023e-21
-1.21013e-20
-4.49334e-20
-1.79412e-20
-2.69922e-20
-3.00425e-20
-3.29601e-20
-1.34843e-19
1.67803e-19
-3.12085e-20
1.16598e-21
-1.30348e-20
-4.5995e-20
-1.52877e-19
1.80343e-20
-3.732e-20
-1.15557e-19
3.58125e-20
-1.78346e-19
1.9638e-19
-8.61431e-21
1.16727e-19
1.63736e-20
-1.33101e-19
1.41016e-19
-2.42888e-20
-4.59343e-20
-1.72956e-19
1.8933e-19
-1.01218e-20
1.20511e-20
-1.45152e-19
2.5459e-20
-3.44106e-20
-2.44524e-20
-1.60004e-19
-1.24013e-20
1.22596e-20
-1.98874e-19
-1.17213e-19
-2.79393e-20
-6.49199e-20
6.63094e-20
-1.83522e-19
-1.87943e-19
-9.12616e-20
-7.24946e-20
1.63756e-19
-6.05813e-20
-4.81724e-20
3.57711e-20
1.81371e-20
-1.91842e-20
1.20428e-19
-6.49199e-20
-7.31246e-20
1.52038e-19
-2.66643e-19
1.14604e-19
4.12455e-20
-1.1437e-19
-1.58164e-19
-7.95049e-20
2.37669e-19
-9.91997e-20
1.40445e-19
-2.58035e-19
2.79708e-19
-2.16733e-20
5.28386e-20
-1.45279e-19
-1.05326e-19
8.36571e-20
3.38757e-19
-3.46314e-19
5.9951e-20
2.19757e-19
-1.35982e-19
3.65338e-20
-1.41859e-19
2.04843e-20
-1.43147e-20
3.17084e-19
3.20132e-19
-8.04354e-20
1.16969e-19
-7.72176e-21
-6.28515e-20
6.28515e-20
9.71019e-20
1.53949e-19
-1.68263e-19
8.27233e-20
6.28578e-22
1.62702e-20
-1.61659e-19
-1.84655e-19
2.41712e-19
-8.77635e-20
5.78955e-21
5.70619e-20
3.02626e-19
-6.64136e-19
-3.82751e-20
-1.47769e-20
3.13712e-19
-3.28489e-19
6.16339e-19
-1.07076e-19
-1.28405e-19
-1.25866e-19
1.5567e-19
-5.70619e-20
-6.53237e-22
-1.81605e-19
2.0093e-19
-2.88741e-19
-2.68058e-19
-7.96288e-19
6.15414e-19
1.80875e-19
3.79063e-19
1.25973e-19
2.80052e-20
6.8396e-20
-2.08841e-19
-1.71247e-20
-2.05491e-20
2.80345e-19
1.94647e-19
8.05791e-19
-3.48281e-19
1.11875e-19
-2.28845e-19
-2.67789e-19
-2.09521e-20
-7.47562e-21
2.17616e-20
4.76157e-19
-2.58283e-20
-5.21038e-20
-1.49299e-19
-5.16517e-20
5.16517e-20
-3.49441e-19
1.25029e-19
6.55236e-20
2.07713e-18
-1.24197e-18
7.03399e-21
-7.03399e-21
2.04874e-19
-4.69061e-20
1.01122e-19
-1.15124e-20
1.15124e-20
-5.22806e-20
-4.0368e-21
4.0368e-21
2.77654e-19
-2.43344e-18
2.5234e-19
-4.69545e-20
-8.17284e-22
-5.71764e-21
7.35215e-20
-1.49952e-19
6.46367e-19
3.4583e-22
6.46367e-19
3.4583e-22
-1.01433e-19
2.04032e-18
3.61024e-21
-1.54606e-21
-4.73569e-19
-1.6394e-21
-1.96445e-19
1.511e-18
3.72794e-22
-1.72809e-21
-6.25355e-20
1.42554e-19
2.56548e-19
-5.27512e-20
4.37313e-22
3.5995e-21
1.50279e-20
-2.88912e-19
-1.35223e-19
4.53894e-20
-1.50279e-20
-8.05116e-20
-1.16711e-19
1.19759e-19
3.93272e-20
-1.04946e-19
1.63598e-19
-1.8533e-19
-8.45069e-20
-5.91442e-20
2.26366e-19
1.73514e-19
-3.62795e-20
3.74144e-20
-2.86287e-20
-1.5034e-19
1.24881e-19
3.71266e-20
-3.71266e-20
9.20874e-20
1.17605e-19
-1.01265e-19
-1.40601e-20
1.08461e-19
-1.39406e-19
2.01871e-18
3.61025e-21
1.78865e-18
4.37327e-22
1.60356e-18
-7.76767e-19
6.3561e-19
-6.3561e-19
3.72799e-22
-8.67003e-19
3.72799e-22
-1.31475e-18
-7.76744e-19
1.62041e-20
-1.70214e-20
1.60879e-20
-1.95116e-20
3.42371e-21
-6.57865e-20
-2.14434e-20
2.56548e-19
-7.4218e-21
4.74024e-21
-6.41512e-19
1.19759e-19
1.04946e-19
-9.15515e-22
3.74144e-20
2.86287e-20
9.32534e-20
1.28257e-19
-1.1365e-19
-2.6205e-20
-4.66358e-20
-9.1795e-22
-8.10132e-22
8.33975e-21
)
;

boundaryField
{
    back
    {
        type            empty;
        value           nonuniform List<scalar> 0();
    }
    front
    {
        type            empty;
        value           nonuniform List<scalar> 0();
    }
    left
    {
        type            calculated;
        value           uniform 0;
    }
    top
    {
        type            calculated;
        value           uniform 0;
    }
    right
    {
        type            calculated;
        value           uniform 0;
    }
    bottom
    {
        type            calculated;
        value           nonuniform List<scalar> 8(-2.45969e-18 -8.35165e-19 2.15579e-18 -1.50037e-18 -2.12014e-18 1.50261e-18 2.43016e-18 8.26795e-19);
    }
}


// ************************************************************************* //
