/*--------------------------------*- C++ -*----------------------------------*\
  =========                 |
  \\      /  F ield         | OpenFOAM: The Open Source CFD Toolbox
   \\    /   O peration     | Website:  https://openfoam.org
    \\  /    A nd           | Version:  9
     \\/     M anipulation  |
\*---------------------------------------------------------------------------*/
FoamFile
{
    format      ascii;
    class       volVectorField;
    location    "0.75";
    object      U;
}
// * * * * * * * * * * * * * * * * * * * * * * * * * * * * * * * * * * * * * //

dimensions      [0 1 -1 0 0 0 0];

internalField   nonuniform List<vector> 
464
(
(-4.48982e-11 -2.9241e-11 -2.57518e-30)
(-2.92742e-11 6.37734e-11 0)
(1.50466e-14 3.56834e-14 0)
(1.03523e-12 -4.28535e-14 1.12145e-29)
(-2.09714e-11 5.06096e-11 0)
(1.14981e-14 2.88787e-14 -3.4132e-30)
(-4.28843e-11 -1.72559e-11 2.83962e-29)
(9.80412e-13 -2.03898e-13 0)
(-5.28126e-11 2.31814e-12 -2.49542e-30)
(-5.00382e-11 1.89577e-11 -2.29918e-29)
(-3.57284e-11 -3.77751e-11 2.31834e-30)
(-1.50901e-11 -2.18851e-11 -2.34871e-30)
(-4.6698e-11 -5.29746e-12 -1.04983e-30)
(-1.08183e-11 -2.31442e-11 0)
(-6.69183e-13 9.53318e-12 6.61602e-30)
(-2.33482e-16 8.61582e-12 -1.84973e-29)
(1.00005e-13 4.08106e-12 0)
(-4.00537e-14 3.34282e-12 -3.69261e-30)
(4.29101e-14 -1.9435e-14 -5.86153e-30)
(6.25219e-14 5.63478e-12 1.15065e-29)
(2.45443e-13 5.87546e-12 -1.7119e-29)
(1.41311e-12 3.76007e-12 3.55862e-30)
(1.62973e-12 3.99168e-12 -1.75633e-30)
(1.21356e-12 3.63261e-13 0)
(7.20031e-13 2.86342e-14 -1.15179e-29)
(1.22588e-12 5.98353e-13 6.00518e-30)
(-3.72913e-12 1.3815e-12 -2.9996e-29)
(6.51457e-13 -8.80732e-13 -7.49254e-30)
(-5.18104e-12 3.08965e-12 0)
(1.23365e-12 1.98566e-12 0)
(1.48934e-12 1.67558e-12 8.01479e-31)
(2.55959e-12 9.09875e-12 2.42033e-32)
(1.95147e-12 1.00025e-11 4.46089e-31)
(2.09597e-12 7.13431e-12 -6.77349e-30)
(2.39621e-12 6.42632e-12 6.82656e-30)
(-9.24557e-14 3.54186e-12 1.10022e-29)
(-3.26677e-13 4.49746e-12 -1.01717e-29)
(1.09663e-13 -1.82637e-13 -8.81409e-31)
(5.21328e-13 -1.08195e-12 4.08775e-31)
(6.67424e-13 8.3745e-12 0)
(-2.11249e-13 5.6957e-12 1.67324e-29)
(1.02626e-12 5.02382e-12 0)
(1.40852e-12 4.56129e-12 -4.56264e-30)
(-5.78209e-12 -4.60635e-12 -7.0201e-29)
(-1.15156e-11 -1.10464e-11 7.1641e-29)
(5.77327e-13 9.68305e-12 4.97487e-31)
(1.91466e-12 -3.17046e-12 8.18303e-30)
(5.81817e-13 -3.7964e-12 2.39396e-31)
(1.19582e-13 -4.0065e-13 0)
(3.31451e-13 -4.67995e-13 8.53368e-31)
(-2.60438e-13 5.87971e-12 -1.12816e-29)
(6.44189e-13 -1.93082e-12 -3.31007e-31)
(-1.4233e-13 4.27043e-12 -6.90059e-30)
(7.01124e-13 -3.67127e-12 -9.57797e-30)
(5.59717e-13 -5.36808e-12 -2.98353e-31)
(9.71078e-13 -2.7002e-12 6.43076e-30)
(1.60262e-12 -2.85861e-12 0)
(-8.93001e-13 -3.54696e-12 0)
(-7.37607e-13 -5.08911e-12 -9.60741e-30)
(-2.96794e-13 4.72217e-12 0)
(1.89944e-13 -5.44581e-13 5.30456e-30)
(-2.39114e-11 1.80399e-11 1.02566e-28)
(-2.50389e-13 -2.31639e-12 1.82966e-29)
(-4.49883e-13 -2.63139e-12 -1.00795e-29)
(-4.11801e-11 1.88781e-11 -1.33783e-30)
(1.18793e-12 -2.41384e-12 -9.8957e-30)
(4.98745e-13 -5.1176e-12 -8.24886e-30)
(2.34208e-13 -1.05458e-12 -3.68968e-30)
(-2.5989e-11 -2.86158e-11 -2.57362e-29)
(1.85029e-13 -5.87551e-12 9.5811e-30)
(-5.71622e-13 -5.23005e-12 9.5875e-30)
(-3.28906e-11 2.53911e-11 -5.43558e-29)
(-3.55262e-12 6.66844e-12 0)
(9.37129e-13 -3.76093e-12 6.93972e-30)
(4.45225e-13 -1.03691e-11 -2.06911e-29)
(8.88139e-13 -1.70661e-12 7.02558e-30)
(1.55621e-13 -4.73038e-12 -8.77352e-30)
(-5.09615e-11 -2.74105e-11 -2.84138e-29)
(-9.05145e-13 -2.52406e-12 -9.89347e-30)
(-1.37664e-12 7.52326e-12 1.3485e-29)
(-2.02653e-11 3.4563e-11 0)
(2.60851e-13 2.62536e-13 3.27537e-30)
(-4.68937e-12 1.17809e-11 -1.29692e-28)
(9.43612e-14 1.6828e-13 1.65013e-29)
(-1.21986e-11 2.16169e-11 0)
(-5.91304e-13 -3.36325e-12 1.62193e-31)
(-2.36042e-11 1.04701e-11 -4.88091e-29)
(2.94539e-13 4.24976e-13 0)
(1.72631e-12 -4.46566e-13 0)
(2.76375e-13 -1.01017e-11 -1.69776e-29)
(-1.47362e-11 1.6332e-11 7.51568e-29)
(-3.08601e-11 3.68917e-11 0)
(2.15768e-12 -5.88092e-12 8.34272e-30)
(-2.06885e-11 -4.45411e-11 -6.955e-29)
(2.1811e-12 -6.87178e-12 -8.19142e-30)
(2.22264e-13 -3.33117e-12 -8.98594e-30)
(-6.85467e-13 -3.73799e-12 9.91644e-30)
(4.92727e-13 3.36228e-13 -3.00395e-30)
(-5.30596e-13 -5.42907e-12 -6.05817e-29)
(-4.06757e-11 4.64593e-13 -1.05916e-31)
(1.79534e-12 5.85241e-14 0)
(7.41666e-13 -4.67331e-12 7.36714e-31)
(2.07805e-12 4.16104e-13 0)
(2.76028e-12 8.20824e-12 -2.36834e-32)
(2.32335e-12 8.13412e-12 0)
(-3.12647e-12 9.58844e-12 -1.02912e-28)
(3.2404e-14 1.57521e-14 0)
(1.11699e-12 -5.06466e-12 8.06859e-30)
(-7.98521e-12 7.54647e-12 -7.52375e-29)
(1.19425e-12 -4.87965e-12 0)
(2.55827e-12 -8.33331e-12 0)
(1.53802e-12 -3.90608e-12 -8.35367e-30)
(1.37865e-12 -5.73383e-12 0)
(-2.00025e-12 -7.34132e-12 3.84631e-29)
(1.93025e-12 -8.84795e-13 2.9724e-31)
(2.41272e-12 9.12294e-14 -1.71291e-31)
(-2.83889e-12 2.87963e-12 1.03149e-28)
(1.54734e-13 5.00448e-13 1.87961e-29)
(-5.9522e-13 -2.68136e-12 4.87323e-29)
(4.73172e-13 1.05012e-12 -9.90978e-31)
(1.22542e-12 -4.84498e-12 8.13497e-30)
(-3.35806e-11 -2.55171e-12 -3.64616e-31)
(-2.97821e-11 7.77393e-12 2.23642e-29)
(-3.36364e-11 -1.50706e-11 -2.43683e-29)
(-4.98099e-13 -4.79822e-12 0)
(2.86415e-12 -8.43506e-12 1.22827e-29)
(-2.58375e-11 2.7615e-12 -2.25591e-29)
(1.67949e-12 -8.12773e-12 0)
(1.66253e-12 5.77763e-12 0)
(-2.05543e-12 3.38105e-12 1.00471e-28)
(7.37245e-14 1.48127e-13 -1.28154e-29)
(-2.28346e-12 -3.42887e-12 -8.13776e-29)
(8.24065e-14 -1.51335e-13 -4.34351e-30)
(2.56818e-12 6.28397e-13 0)
(5.96382e-13 2.67811e-12 0)
(-1.22682e-12 -5.61733e-13 -8.18029e-29)
(9.97858e-14 3.52257e-13 -2.8623e-29)
(1.10816e-12 -9.9015e-13 -9.26976e-30)
(-3.84049e-11 9.34081e-12 2.50278e-29)
(8.13575e-14 1.20354e-12 1.33711e-29)
(2.26413e-13 1.55833e-12 0)
(2.89147e-12 -7.11086e-12 0)
(-3.75512e-13 -4.91088e-12 2.79739e-31)
(2.30554e-12 -7.9046e-13 1.01722e-29)
(2.03319e-13 9.63964e-13 1.78095e-29)
(-2.31844e-13 -9.37536e-12 -3.18622e-29)
(2.68848e-12 9.75374e-14 0)
(5.96466e-13 8.47941e-13 0)
(-8.74334e-14 -3.82936e-12 2.1297e-32)
(1.34375e-13 2.4703e-12 -3.15842e-29)
(2.6276e-12 9.03218e-13 3.84431e-31)
(2.28452e-12 1.6514e-12 1.21533e-29)
(-9.38616e-12 3.68576e-12 8.36023e-30)
(2.07583e-12 -9.65843e-12 -1.23372e-29)
(-1.49456e-12 -2.64381e-12 -6.92091e-32)
(1.8261e-13 2.10155e-12 -1.88403e-29)
(1.77867e-13 3.78771e-12 0)
(2.56159e-12 1.69668e-13 0)
(-2.73848e-11 5.00666e-14 -2.00814e-30)
(-9.28004e-12 3.11616e-12 6.22242e-29)
(-6.43375e-12 -4.15102e-14 0)
(2.324e-12 1.14251e-12 -1.1587e-29)
(7.6902e-13 -9.26298e-12 3.73457e-29)
(6.40394e-14 1.39125e-12 8.57895e-31)
(6.18111e-14 2.79222e-12 1.44689e-29)
(1.23526e-13 6.467e-13 0)
(-2.97238e-12 1.96686e-12 -4.06952e-30)
(1.70821e-13 4.74632e-12 1.32311e-29)
(1.08287e-12 7.93908e-12 2.80091e-30)
(2.32556e-13 -2.96694e-12 2.14578e-29)
(5.12571e-13 -4.84958e-12 -3.17702e-30)
(-1.5671e-11 4.65674e-12 -4.20869e-29)
(9.28965e-14 -6.24572e-12 -8.83885e-30)
(9.0786e-13 3.6345e-12 -3.53555e-30)
(4.21332e-13 -5.83739e-12 5.92472e-30)
(1.07872e-12 -6.51821e-12 -7.96811e-30)
(2.06556e-12 1.3353e-13 1.14715e-29)
(1.67126e-12 1.28409e-12 -4.51793e-32)
(-1.25416e-11 2.31809e-12 1.43373e-29)
(8.03542e-13 5.14054e-12 1.19571e-30)
(1.48015e-12 3.53034e-12 1.1597e-29)
(3.74869e-13 -4.37267e-12 7.21294e-30)
(1.79994e-13 1.65449e-12 0)
(3.20078e-13 2.82282e-12 -1.26846e-29)
(3.71495e-13 4.50844e-12 3.28356e-30)
(3.97701e-13 3.58107e-12 -2.80924e-31)
(1.42219e-13 -2.36075e-12 0)
(1.1821e-13 -1.33782e-12 -3.77625e-30)
(1.12668e-13 -3.46696e-12 -4.07457e-29)
(4.51506e-13 -3.76916e-12 1.28045e-32)
(4.37426e-13 -5.31622e-12 -8.26258e-33)
(3.07137e-13 -2.89239e-12 4.72373e-30)
(9.8018e-14 -1.28478e-12 -8.31436e-30)
(3.99475e-13 -4.47506e-12 -7.53058e-30)
(-5.90692e-13 -5.59433e-12 9.61622e-33)
(-3.86852e-13 -5.30817e-12 -9.64669e-33)
(1.25138e-13 5.56666e-12 -1.21657e-29)
(7.3671e-13 -5.52797e-12 8.17468e-33)
(2.05123e-13 2.17582e-12 -5.32791e-30)
(9.67805e-14 -5.63818e-12 9.15566e-30)
(1.78177e-13 -4.92506e-12 0)
(-2.18988e-13 -4.86361e-12 0)
(5.81537e-14 -2.87123e-12 0)
(-2.05718e-13 -5.60312e-12 9.50615e-33)
(1.98711e-13 -1.74006e-12 0)
(1.46316e-13 -2.61449e-12 -6.5778e-31)
(1.08253e-14 -1.55542e-12 0)
(-3.20587e-14 -1.52267e-12 -7.65154e-30)
(-9.72502e-14 -2.78651e-12 1.04473e-29)
(-1.60596e-13 -3.50397e-12 3.0516e-29)
(1.23159e-13 1.00653e-12 1.40127e-29)
(3.68054e-14 -1.14084e-12 0)
(1.30194e-13 -6.87986e-13 3.23528e-30)
(-3.8794e-14 1.2245e-12 -7.9029e-30)
(5.36806e-15 1.56021e-12 0)
(2.49195e-13 -2.32396e-12 -6.35859e-30)
(1.16775e-13 2.76139e-12 2.76198e-30)
(5.76371e-14 -1.4739e-12 5.03477e-30)
(-6.23646e-13 2.69134e-12 1.1768e-29)
(-5.9043e-14 -1.4033e-12 -8.3591e-30)
(1.54795e-13 1.38413e-12 9.32108e-30)
(-2.82938e-14 -2.92147e-12 9.56962e-30)
(-4.71766e-14 -5.03804e-12 -9.16667e-30)
(3.1395e-13 -2.59765e-12 1.99067e-29)
(1.24208e-12 1.33003e-13 1.13432e-29)
(7.56201e-13 1.45902e-12 -1.0745e-29)
(3.1694e-13 1.9e-13 0)
(-6.83823e-13 3.95446e-12 5.27813e-30)
(-9.51999e-14 1.45222e-12 -3.11358e-31)
(-4.70571e-13 8.12887e-14 -1.06641e-29)
(-7.66391e-13 1.45225e-12 1.05699e-29)
(-7.6227e-13 4.66632e-12 -1.20873e-30)
(-8.98455e-13 3.66462e-12 0)
(-8.60853e-13 -2.39476e-12 -9.26429e-30)
(-6.15043e-13 5.5321e-12 1.02719e-29)
(-9.53186e-13 1.62121e-13 0)
(-2.41109e-13 4.18958e-12 -2.13369e-31)
(-6.03014e-13 3.45754e-12 -6.63428e-32)
(-9.83594e-13 1.41879e-12 9.79403e-30)
(-1.92342e-13 5.0082e-12 9.7748e-30)
(-8.99133e-13 1.26168e-13 -9.97478e-30)
(2.34268e-13 3.47313e-12 -9.33314e-30)
(-7.64524e-13 4.32211e-12 9.59138e-30)
(-6.43374e-13 1.33077e-12 0)
(-2.52677e-13 1.12495e-13 0)
(1.51363e-13 4.96021e-12 -2.15685e-31)
(2.76654e-13 1.29558e-12 -2.92219e-31)
(-2.51552e-14 5.0042e-12 0)
(7.58014e-13 4.34294e-12 0)
(-7.45838e-14 2.79427e-12 0)
(1.46698e-12 3.68714e-12 -8.11798e-30)
(6.0989e-13 5.11108e-12 -1.82682e-29)
(2.19502e-12 -2.67841e-12 -8.48479e-30)
(1.52325e-12 -9.29762e-12 1.70301e-29)
(9.14492e-13 8.67156e-14 0)
(1.5983e-12 1.27486e-12 0)
(2.45237e-12 -1.675e-12 0)
(-1.04682e-13 1.43745e-12 -8.23763e-30)
(2.31248e-12 -2.05742e-14 -8.91034e-30)
(3.59443e-12 4.90018e-12 0)
(2.94187e-12 1.36733e-12 8.51468e-30)
(3.84842e-12 -3.80793e-12 1.78985e-29)
(3.55464e-12 -6.75851e-15 7.75106e-30)
(2.11309e-13 7.95275e-12 1.01431e-30)
(3.91419e-12 1.62118e-12 -7.75125e-30)
(-2.46465e-12 5.92028e-12 -1.1743e-29)
(4.02172e-12 -5.90696e-14 -1.61785e-32)
(1.5521e-12 -1.28585e-12 -2.90528e-31)
(-1.07321e-12 9.9885e-12 -7.83383e-30)
(1.71609e-12 6.38785e-12 -1.02805e-30)
(5.74327e-13 3.73613e-12 -1.32733e-29)
(3.68163e-12 1.85555e-12 0)
(-3.34699e-13 -7.44416e-15 3.97462e-30)
(4.07472e-13 1.01956e-11 -8.58262e-31)
(-3.05321e-11 -7.44665e-12 6.12925e-30)
(2.96875e-12 -4.67033e-14 0)
(1.63539e-12 2.09902e-12 0)
(-2.82279e-13 -4.51455e-12 -9.68231e-30)
(-5.84516e-14 -1.24692e-12 0)
(-1.60957e-12 -9.28277e-12 -6.92964e-30)
(-1.94156e-13 -4.40913e-12 6.60466e-32)
(2.32135e-12 -1.48206e-12 -3.1952e-32)
(-1.23191e-13 -2.53507e-12 0)
(6.4659e-13 -2.85508e-12 -6.56914e-30)
(-3.70212e-12 8.36235e-12 -1.14764e-29)
(-2.4617e-12 -5.90704e-12 -1.32773e-29)
(-9.18029e-14 -2.28268e-12 -9.37126e-30)
(-1.8501e-11 5.54673e-13 0)
(1.8676e-12 -2.16891e-12 0)
(-5.99491e-12 -3.61156e-12 1.36013e-29)
(-9.1831e-12 -3.86281e-12 9.42344e-32)
(-1.46613e-11 -1.37051e-12 -8.4628e-32)
(2.39926e-12 -2.14181e-12 -9.96462e-30)
(1.49574e-12 -3.33173e-12 2.01746e-29)
(1.40714e-12 -3.56518e-12 8.65251e-30)
(-1.99307e-13 -4.16573e-12 1.85703e-29)
(-2.77455e-16 -2.18116e-12 0)
(1.38714e-12 -6.55566e-12 6.26549e-31)
(8.5186e-13 -5.37368e-12 -7.22912e-30)
(-1.444e-11 1.0679e-13 4.16837e-29)
(-4.90233e-12 6.42564e-12 5.19035e-30)
(-1.04786e-11 1.18433e-12 -3.82964e-30)
(-1.66866e-11 -4.88584e-12 -6.88673e-29)
(-1.24444e-11 -3.27262e-11 8.80212e-29)
(-4.29356e-13 4.70417e-12 5.26013e-30)
(2.65866e-12 -4.11084e-12 -8.48216e-30)
(3.51946e-12 -4.93785e-12 -1.72389e-29)
(-3.05492e-13 3.91827e-12 5.09755e-30)
(-4.59857e-12 -2.03824e-12 -1.15481e-28)
(1.14208e-12 -8.04797e-12 -1.33133e-29)
(-8.66821e-14 -5.53199e-12 -9.58337e-30)
(2.57217e-12 -1.24158e-12 -5.31661e-33)
(8.51746e-13 -2.39774e-12 0)
(-2.10302e-11 -3.27468e-13 1.64415e-31)
(3.39141e-12 -5.7894e-12 -1.87715e-29)
(1.60638e-12 -6.29639e-12 0)
(-2.56431e-14 -1.12933e-12 7.42117e-30)
(-8.5812e-12 -4.05157e-12 0)
(6.08362e-13 -1.58081e-13 0)
(-1.89827e-11 -7.07109e-13 -1.45577e-29)
(1.29823e-12 2.59337e-12 1.13286e-29)
(2.91389e-13 -4.74991e-12 -3.11848e-32)
(-4.8615e-12 -5.17141e-12 5.4031e-29)
(7.68083e-13 -5.20797e-12 7.32782e-30)
(-1.56101e-11 -7.22835e-14 5.45207e-30)
(2.10232e-13 -2.18355e-12 4.55799e-31)
(2.45192e-13 -1.62908e-12 -3.97185e-30)
(-2.25014e-11 -4.48512e-12 2.03082e-29)
(1.45769e-12 -1.81736e-12 0)
(-6.96586e-12 -6.08221e-12 -2.74676e-29)
(6.66442e-13 5.53088e-12 -6.45776e-30)
(-5.47614e-11 2.15897e-11 -1.04137e-29)
(1.43383e-13 1.51337e-14 -4.65918e-30)
(3.3917e-12 -3.18389e-12 1.67292e-29)
(-3.0396e-13 -5.8601e-12 -9.45916e-33)
(1.96437e-12 -2.11248e-12 -9.9514e-30)
(1.65346e-12 2.98117e-12 -1.07368e-29)
(2.0126e-13 -2.09386e-14 -8.67334e-30)
(1.4607e-12 -9.64105e-12 -3.359e-30)
(7.02077e-13 5.47051e-12 1.35903e-29)
(8.19743e-14 -3.50303e-14 4.43653e-30)
(-4.50099e-11 -5.59855e-11 0)
(-1.6451e-12 -8.86921e-12 -2.80938e-31)
(-3.22109e-12 -8.62488e-12 2.72614e-29)
(2.8957e-12 -4.31841e-12 9.44863e-30)
(1.04419e-12 -6.49746e-13 4.50987e-30)
(1.27664e-13 -1.01662e-12 6.74711e-30)
(-1.92796e-13 -4.99724e-12 8.748e-30)
(3.69774e-13 1.98318e-15 1.06167e-29)
(-5.6434e-13 -5.39417e-12 0)
(2.09768e-12 -2.78832e-12 -2.83544e-31)
(3.02824e-13 -5.94003e-14 -5.04617e-30)
(2.81451e-14 -4.0604e-12 0)
(-1.40462e-13 -4.64623e-12 -9.0099e-30)
(1.69176e-12 -4.08417e-12 -8.38524e-30)
(-9.72988e-12 4.03391e-11 1.18248e-28)
(-1.48265e-14 3.41066e-16 0)
(-2.82774e-12 1.67856e-11 -6.38516e-29)
(-1.23296e-15 -1.4188e-14 -5.42128e-30)
(-3.7549e-11 5.6279e-11 0)
(1.29205e-13 8.23017e-14 -6.74719e-30)
(-5.50889e-11 -6.46941e-12 3.93592e-30)
(9.25149e-14 9.774e-14 3.64933e-30)
(-1.62303e-11 3.86003e-11 0)
(-3.25492e-11 -4.71123e-11 2.13139e-30)
(1.72007e-14 -1.31158e-15 8.04158e-30)
(1.29467e-12 -4.60912e-13 0)
(1.23407e-12 5.61331e-12 0)
(-4.15131e-12 -1.01649e-11 0)
(7.18606e-13 1.56604e-12 8.64512e-30)
(1.03108e-13 -5.88001e-14 0)
(-2.59099e-12 -2.41595e-12 1.58007e-28)
(-5.391e-12 6.83843e-12 -2.80059e-30)
(5.37258e-13 4.71084e-12 0)
(-1.22059e-12 2.49501e-12 1.08601e-29)
(1.43843e-12 1.47972e-13 0)
(-1.76472e-11 -1.02891e-11 3.91711e-29)
(6.72822e-13 4.43744e-12 2.24541e-29)
(-4.78647e-13 4.99843e-12 8.49171e-29)
(7.83183e-13 2.45115e-12 4.32447e-30)
(2.27593e-13 5.00112e-12 0)
(1.59213e-12 7.93037e-12 -2.99431e-30)
(1.24905e-12 6.27423e-12 0)
(3.42702e-12 6.25166e-12 -2.53093e-30)
(1.94036e-12 4.53262e-12 -2.84671e-32)
(2.63372e-12 7.25804e-12 0)
(3.03388e-12 5.2918e-12 -4.37362e-30)
(8.40494e-13 5.93688e-13 -6.93607e-30)
(1.62532e-13 2.12379e-12 0)
(-5.44372e-14 1.87307e-12 0)
(-5.84416e-13 5.37065e-12 -5.36621e-30)
(-4.30401e-13 5.07593e-12 0)
(-6.58395e-14 2.06788e-12 4.78584e-30)
(-1.38382e-13 2.29054e-12 1.73958e-29)
(-4.23109e-13 4.59205e-12 -6.08371e-30)
(1.63215e-12 3.84244e-12 -1.16944e-29)
(9.86566e-13 4.45307e-12 0)
(2.15312e-12 2.37479e-12 -2.6525e-29)
(3.7682e-13 5.00013e-12 0)
(-1.06892e-11 -8.94396e-14 3.53343e-29)
(-4.61617e-11 5.58357e-11 0)
(7.11232e-14 2.05482e-14 0)
(-3.82087e-11 -5.76801e-11 0)
(3.82447e-15 -2.228e-14 -3.61131e-30)
(-5.63782e-11 -3.40268e-13 1.41463e-29)
(-5.07953e-11 -3.80105e-11 0)
(-3.5023e-12 -1.75092e-11 0)
(2.05523e-16 1.25006e-14 6.37574e-30)
(-1.05161e-11 -3.99716e-11 0)
(-1.20218e-14 2.8934e-15 -8.26595e-30)
(-4.9169e-11 3.06797e-11 1.04535e-29)
(6.74863e-13 -4.47647e-13 5.01014e-30)
(5.37022e-13 1.43671e-13 0)
(1.90731e-12 9.35344e-13 6.5249e-30)
(8.03054e-13 2.07538e-13 0)
(-3.86947e-11 4.29313e-11 0)
(-1.78739e-12 -6.8411e-12 0)
(3.72895e-13 -3.57578e-13 2.80643e-31)
(4.13595e-13 1.91423e-13 6.0702e-30)
(-5.22139e-11 3.49972e-11 -1.03763e-29)
(5.1069e-13 -2.43691e-13 5.42718e-30)
(2.44128e-13 2.7918e-14 6.75975e-30)
(-2.67891e-11 -1.82618e-11 2.75807e-29)
(-7.94031e-13 4.24582e-13 -7.12042e-29)
(-2.9059e-11 -6.44504e-11 -5.65742e-29)
(-9.64823e-12 3.46046e-12 1.40471e-29)
(-1.01506e-13 2.91415e-12 -3.0587e-29)
(1.15282e-13 5.19735e-12 8.86828e-30)
(5.10459e-14 2.67471e-12 -6.40154e-30)
(-6.54075e-12 2.32926e-11 1.4987e-28)
(1.45932e-14 5.48382e-15 8.07772e-30)
(3.4785e-12 5.15095e-12 2.72151e-30)
(9.23871e-13 6.03007e-12 3.16616e-31)
(8.97159e-13 9.63444e-13 1.36104e-29)
(2.74919e-12 3.70809e-12 1.40883e-29)
(5.52699e-14 9.16421e-13 0)
(-2.58458e-14 1.61392e-12 2.91186e-30)
(1.95571e-12 1.57202e-12 -6.83044e-30)
(-2.9498e-14 7.71614e-13 0)
(4.88075e-13 1.69303e-12 -8.72462e-30)
(-6.49842e-13 5.10989e-12 0)
(-3.24034e-14 9.73595e-13 -3.50223e-30)
(-1.18401e-13 3.54937e-12 3.40252e-31)
(2.42871e-13 4.43635e-12 -6.2947e-30)
(2.3839e-12 2.26339e-12 1.9495e-29)
(6.77133e-13 3.69321e-12 -3.82809e-31)
(2.11288e-12 3.05643e-12 -7.0794e-30)
(3.32348e-13 4.08201e-12 -8.1189e-30)
(2.10102e-12 2.72787e-12 7.59676e-30)
(-1.35986e-13 5.46814e-12 5.60487e-30)
(1.38802e-12 9.33675e-12 0)
(-5.5752e-11 -2.18921e-11 -8.25686e-30)
(1.07231e-12 1.04146e-11 6.24869e-30)
(1.55796e-12 8.93351e-13 0)
(-4.17843e-13 5.67644e-12 -1.13529e-29)
(9.35644e-13 5.28665e-12 0)
(8.2549e-13 5.24846e-12 1.09734e-29)
(5.10171e-14 -6.68563e-14 -4.56224e-30)
(2.58738e-13 -1.46561e-13 -2.15677e-31)
(1.89087e-13 -1.84364e-13 -3.06482e-31)
(-7.62334e-15 -6.56217e-15 8.08576e-30)
(-4.94179e-12 -2.05174e-11 0)
(-2.01263e-11 -5.16542e-11 1.56612e-29)
(1.30403e-12 1.25624e-12 -1.71241e-29)
)
;

boundaryField
{
    back
    {
        type            empty;
    }
    front
    {
        type            empty;
    }
    left
    {
        type            noSlip;
    }
    top
    {
        type            uniformFixedValue;
        uniformValue    
        {
            type            scale;
            scale           
            {
                type            squarePulse;
                start           0.3;
                duration        0.3;
            }
            xScale          
            {
                type            constant;
                value           1;
            }
            value           
            {
                type            constant;
                value           (0 -0.7 0);
            }
        }
        value           uniform (0 -0 0);
    }
    right
    {
        type            noSlip;
    }
    bottom
    {
        type            zeroGradient;
    }
}


// ************************************************************************* //
