/*--------------------------------*- C++ -*----------------------------------*\
  =========                 |
  \\      /  F ield         | OpenFOAM: The Open Source CFD Toolbox
   \\    /   O peration     | Website:  https://openfoam.org
    \\  /    A nd           | Version:  9
     \\/     M anipulation  |
\*---------------------------------------------------------------------------*/
FoamFile
{
    format      ascii;
    class       surfaceScalarField;
    location    "0.05";
    object      phi;
}
// * * * * * * * * * * * * * * * * * * * * * * * * * * * * * * * * * * * * * //

dimensions      [0 3 -1 0 0 0 0];

internalField   nonuniform List<scalar> 
816
(
-9.8e-11
-4.24e-09
4.34e-09
-5.8e-10
-7.71e-09
8.29e-09
6.76e-09
-6.85e-09
1.04e-08
-1.04e-08
-4.26e-11
4.55e-09
-4.55e-09
9.71e-09
1.84e-09
-1.16e-08
4.77e-09
-4.77e-09
-4.96e-09
4.96e-09
-8.77e-09
-1.46e-09
1.02e-08
-4.16e-09
3.58e-09
1.41e-08
-4.44e-09
1.18e-08
-8.47e-09
-3.36e-09
2.67e-09
7.03e-09
-9.71e-09
1.12e-08
-1.04e-08
-8.33e-10
1.12e-08
-9.84e-09
-1.4e-09
-7.41e-09
1.2e-08
-4.62e-09
2.69e-09
4.14e-09
-6.83e-09
-1.11e-08
7.81e-10
1.03e-08
1.34e-09
1.05e-08
4.89e-09
-1.37e-08
7.76e-09
2.67e-09
8.58e-10
-8.27e-09
7.21e-09
-1.38e-09
-5.82e-09
-7.26e-09
-3.18e-09
1.04e-08
-7.86e-09
6.07e-10
-9.91e-09
2.25e-09
7.66e-09
-9.31e-09
1.04e-08
-1.07e-09
7.95e-11
3.08e-09
-3.16e-09
2.98e-09
-1.07e-08
3.92e-09
8.12e-09
-6.34e-09
6.42e-09
-7.29e-09
9.14e-09
1.47e-08
-1.07e-08
-1.16e-08
5.8e-09
5.79e-09
8.71e-10
1.04e-08
-2.08e-09
1.02e-08
8.81e-10
1.03e-08
-1.77e-09
-8.14e-09
-1.27e-08
4.56e-09
8.18e-09
2.87e-09
1.67e-09
-3.67e-09
-3.62e-09
3.2e-09
-9.61e-09
-2.26e-10
-8.2e-09
-1.98e-09
1.02e-08
2.94e-09
1.83e-09
-3.9e-09
9.37e-09
-1.08e-08
-5.98e-09
-8.84e-09
-4.76e-10
-3.05e-10
3.5e-09
-3.2e-09
9.2e-09
-6.52e-09
7.24e-09
-3.21e-11
-4.08e-09
-7.51e-09
5.06e-09
4.64e-09
3.11e-09
-1.05e-08
7.41e-09
-1.38e-09
-8.2e-09
1.13e-08
-8.6e-09
3.43e-09
-5.51e-09
1.91e-10
-2.31e-09
6.46e-09
7.24e-09
-6.46e-09
-5.35e-10
-9.84e-09
-5.25e-09
-5.99e-09
1.12e-08
-1.05e-08
8.45e-10
9.8e-09
4.86e-09
6.36e-09
7.79e-09
-4.01e-09
1.27e-08
-8.72e-09
2.27e-09
8.03e-09
-1.03e-08
-2.07e-09
-7.6e-09
4.66e-09
-9.91e-09
7.95e-09
4.39e-09
-1.23e-08
4.39e-09
7.89e-09
-1.23e-08
4.2e-09
-4.2e-09
-4.88e-09
9.77e-09
-7.3e-09
2.42e-09
1.17e-08
1.62e-09
2.73e-09
-4.34e-09
-1.1e-08
1.63e-09
9.36e-09
-4.24e-09
4.67e-09
-4.67e-09
-4.66e-09
4.66e-09
4.96e-09
-1.1e-08
6.06e-09
-3.41e-09
-6.78e-10
3.5e-09
-8.26e-09
1.14e-08
-1.04e-12
-7.8e-09
7.8e-09
-6.87e-09
-2.18e-10
7.09e-09
4.04e-09
-5.68e-09
1.06e-08
3.58e-11
-8.42e-09
8.38e-09
7.41e-09
4.33e-09
-1.17e-08
-8.62e-09
1.1e-09
7.34e-09
-8.44e-09
-4.85e-09
-5.07e-09
-4.16e-09
-6.12e-10
1.1e-08
-2.32e-10
-1.02e-08
-6.6e-09
8.87e-09
-1.01e-08
6.78e-09
3.33e-09
6.17e-09
5.4e-09
4.3e-09
-9.06e-10
1.12e-08
-7.16e-09
3.67e-09
-3.41e-09
1.22e-11
-4.21e-09
3.85e-09
6.35e-09
1.03e-08
7.52e-09
-1.1e-08
3.5e-09
-4.2e-09
-5.91e-09
-2.8e-09
-7.59e-09
-3.77e-10
-8.85e-09
9.23e-09
3.65e-10
-7.24e-09
1.02e-08
-4.8e-09
-4.73e-10
8.13e-09
-5.59e-09
9.34e-10
2.35e-09
8.56e-09
-7.98e-10
-9.22e-10
8.56e-09
-9.46e-09
8.96e-10
-6.18e-09
-4.81e-09
-9.09e-09
6.69e-09
2.4e-09
-8.72e-09
-1.21e-09
1.03e-08
-2.9e-10
-1e-08
1.01e-08
-1.53e-09
-3.03e-09
1.04e-08
-2.72e-09
2.72e-09
9.49e-09
8.37e-10
3.47e-10
-9.22e-09
8.87e-09
1.52e-11
-8.49e-09
-9.53e-09
-1.49e-09
7.3e-09
-7.59e-09
8.92e-11
-3.26e-09
3.17e-09
1.37e-09
7.39e-09
1.69e-10
7.52e-09
-7.69e-09
-3.2e-09
-7.16e-10
8.9e-09
6.41e-10
6.13e-09
-6.77e-09
-6.42e-09
4.61e-09
1.81e-09
-9.27e-09
8.06e-09
-1.11e-08
6.1e-11
1.11e-08
-4.42e-09
4.42e-09
3.43e-09
4.15e-10
2.31e-09
-9.82e-10
-1.05e-08
1.15e-08
-3.74e-10
-8.46e-09
1.04e-08
-7.44e-09
-2.26e-09
1.02e-08
-7.93e-09
2.73e-09
4.59e-10
-1.16e-08
-9.38e-09
-3.26e-09
-8.99e-09
9.05e-09
-3.46e-09
3.46e-09
-8.63e-09
-3.29e-09
8.01e-09
-8.99e-09
-6.93e-09
4.67e-09
-3.94e-09
1.46e-08
-1.07e-08
-5.97e-10
-8.39e-09
3.62e-09
-3.61e-09
-3.61e-09
3.96e-09
4.13e-10
-2.75e-09
2.34e-09
4.79e-11
7.96e-09
6.82e-09
4.43e-09
-4.49e-09
1.13e-08
-8.98e-09
-4.9e-09
4.3e-09
3.33e-11
-7.51e-09
7.48e-09
3.71e-09
-3.66e-09
6.64e-10
-8.37e-09
7.7e-09
7.01e-09
-7.69e-09
7.21e-09
-6.33e-10
-8.59e-09
-6.42e-09
-5.51e-09
-4.39e-09
-4.7e-09
-1.04e-08
-7.67e-10
1.11e-08
-3.39e-09
3.42e-09
-1.02e-08
-7.87e-10
1.1e-08
9.22e-09
-1.7e-10
-8.49e-09
-5.03e-10
-3.58e-09
-8.08e-09
1.27e-08
-4.61e-09
-4.67e-09
4.24e-09
4.3e-10
-4.61e-09
4.23e-09
-9.45e-09
9.26e-09
1.98e-10
8.96e-09
-8.43e-09
-5.23e-10
-6.93e-09
1.15e-08
-3.68e-09
-9.89e-10
-1.2e-08
7.32e-09
3.98e-09
4.69e-10
-5.81e-10
-1.01e-08
-2.14e-10
6.34e-09
-1.18e-08
-4.76e-10
9.96e-09
1.22e-08
-4.84e-09
6.91e-09
6.63e-09
1.93e-09
2.12e-09
-2.34e-09
1.01e-08
7.15e-09
8.17e-10
-6.43e-09
6.85e-09
4.13e-09
-4.3e-09
-4.16e-09
3.66e-09
-6.35e-09
-8.24e-09
1.33e-08
-5.09e-09
-3.39e-09
-3.68e-09
-2.75e-09
-1.51e-09
-6.78e-09
-4.9e-09
4.13e-09
-4.16e-09
-2.55e-09
-2.15e-10
6.29e-09
-6.07e-09
3.71e-09
4.45e-09
4.42e-10
4.23e-09
3.17e-09
-3.42e-09
-7.37e-10
-3.61e-09
-7.64e-09
-4.46e-09
1.21e-08
7.55e-09
-7.8e-10
-8.68e-09
1.78e-10
8.96e-09
6.42e-10
-2.1e-09
1.45e-09
-3.2e-09
8.47e-09
-9.98e-09
7.14e-11
1.24e-08
-1.15e-08
2.1e-09
-2.31e-09
4.24e-09
4.2e-09
-7.78e-11
1.7e-09
-4.98e-09
-1.48e-09
-1.02e-08
1.31e-09
4.89e-09
8.44e-09
6.7e-09
-8.56e-09
1.34e-08
-1.01e-08
2.48e-09
2.12e-09
-3.96e-09
-4.71e-09
-8.01e-09
1.27e-08
3.61e-09
-1.3e-08
-5.22e-09
1.37e-08
-5.36e-09
1.29e-08
8.74e-09
4.23e-10
-2.41e-09
2.41e-09
-4.48e-09
-7.43e-09
9.18e-09
8.56e-09
6.07e-09
-3.4e-09
3.4e-09
-4.2e-09
-1.85e-09
-4.13e-09
3.29e-09
8.37e-10
4.13e-09
-7.28e-10
-1.31e-09
-4.48e-09
-9.28e-09
-9.3e-09
1.79e-09
-1.39e-08
4.98e-09
8.9e-09
-5.14e-09
7.77e-10
-8.35e-09
1.4e-08
-5.66e-09
-1.35e-08
5.13e-09
5.03e-09
-8.2e-09
1.32e-08
7.06e-09
-1.23e-08
-9.8e-10
6.48e-10
4.52e-09
-7.33e-09
8.51e-09
-4.4e-09
-7.14e-09
1.15e-08
-8.05e-09
1.42e-08
-5.71e-09
1.06e-08
4.58e-09
9.65e-09
1.12e-08
-1.21e-08
-1.17e-08
6e-09
8.78e-09
-1.43e-08
8.98e-09
-4.65e-09
9.23e-09
-1.71e-09
-7.82e-09
-4.46e-09
4.7e-09
9.3e-09
1.39e-08
-2.96e-09
-5.88e-09
8.84e-09
-2.75e-09
2.75e-09
-2.47e-09
2.47e-09
2.98e-09
-2.98e-09
2.87e-09
-2.87e-09
2.87e-09
2.94e-09
8.73e-09
-1.18e-08
3.07e-09
-3.9e-09
8.66e-09
5.25e-09
4.12e-09
-4.12e-09
-4.21e-09
4.35e-09
-4.35e-09
-1.24e-08
4.7e-09
7.69e-09
-2.31e-09
-1.34e-08
8.27e-09
5.09e-09
-2.77e-09
2.77e-09
-1.16e-08
4.63e-09
7e-09
-4.12e-09
-7.9e-09
-7.64e-09
7.24e-09
-3.53e-09
7.92e-09
-2.87e-09
-1.09e-08
-1.17e-08
7.24e-09
3.16e-09
2.31e-10
4.07e-10
3.87e-10
-7.22e-09
-1.32e-08
7.49e-09
5.75e-09
-8.54e-09
-4.15e-09
-3.7e-09
-3.09e-10
4.58e-09
-1.07e-08
4.77e-09
-6.02e-09
-8.5e-09
1.46e-08
-4.29e-09
-8e-09
3.31e-09
4.68e-09
-9.57e-10
-9.52e-09
3.92e-10
9.13e-09
-3.23e-09
3.01e-09
-3.01e-09
-1.84e-10
-5.82e-09
-4.86e-09
-5.53e-09
9.84e-09
1e-08
-3.03e-09
-9.68e-09
-6.81e-09
-4.14e-10
1.21e-08
-6.09e-09
-4.77e-09
-8.93e-09
-6.8e-09
-9.4e-09
-1.74e-09
-6.06e-09
-2.62e-09
-5.8e-09
-4.48e-09
-7.86e-09
-1.12e-08
-2.33e-09
9.02e-09
-7.84e-09
-7e-09
-8.9e-09
8.2e-09
-9.46e-09
1.27e-09
-3.27e-09
-7.78e-10
-9.15e-10
8.32e-09
-3.27e-09
-1.78e-09
1.17e-08
2.02e-09
-1.37e-08
1.3e-08
4.35e-09
5.83e-09
-5.07e-09
9.65e-09
3.11e-09
-3.11e-09
8.58e-09
1.7e-09
4.27e-09
1.49e-09
-7.56e-09
7.9e-09
-1.09e-08
1.17e-08
7.16e-09
5.92e-09
-1.04e-08
4.46e-09
-4.86e-10
1.15e-08
-3.79e-09
6.76e-09
9.14e-09
-7.12e-09
5.54e-10
3.08e-09
-7.63e-09
4.12e-09
3.98e-09
4.63e-09
6.81e-09
-8.9e-09
1.39e-09
-6.56e-09
1.14e-09
7.7e-09
-7.03e-09
7.55e-09
1.68e-09
-7.17e-09
3.06e-09
-3.34e-10
3.59e-09
-1.1e-08
-4.94e-10
-1.24e-08
1.37e-09
-2.96e-10
2.48e-09
9.55e-10
-7.34e-09
1.03e-08
9.29e-10
-1.05e-08
-3.16e-09
3.06e-09
8.17e-09
-6.36e-09
-7.42e-09
-4.38e-09
6.85e-09
4.38e-09
-7.77e-09
2.48e-09
4.35e-09
-1.03e-08
-1.03e-08
1e-08
-2.94e-10
-6.3e-09
-5.52e-09
5.52e-09
3.92e-09
-1.07e-08
-5.59e-09
5.59e-09
-7.62e-09
-1.05e-08
-8e-09
-8.06e-09
4.18e-09
4.06e-09
9.61e-09
-2.76e-09
-6.79e-09
7.2e-09
7.74e-09
-1.13e-08
4.97e-09
-6.05e-09
6.28e-09
-7.4e-09
-5.9e-09
-4.48e-09
-5.69e-09
-1.91e-09
-7.35e-09
-3.13e-09
4.51e-09
-5.99e-09
5.68e-09
1.32e-09
9.13e-09
-1.34e-10
-1.07e-08
-9.58e-09
-5.87e-09
-9.57e-10
-7.45e-09
-9e-10
-1.34e-09
-1.79e-09
-4.68e-09
4.56e-09
9.39e-09
-1.11e-09
-6.17e-09
-7.02e-11
6.21e-09
7.58e-09
-8.3e-09
-8.3e-09
-8.69e-09
-9.07e-09
-3.46e-09
2.53e-09
1.28e-09
)
;

boundaryField
{
    front
    {
        type            empty;
        value           nonuniform List<scalar> 0();
    }
    back
    {
        type            empty;
        value           nonuniform List<scalar> 0();
    }
    bottom
    {
        type            calculated;
        value           nonuniform List<scalar> 
12
(
4.09e-09
9.93e-09
8.3e-09
8.39e-09
5.62e-09
1.45e-09
1.48e-09
8.74e-09
1.03e-08
9.37e-09
5.68e-09
4.05e-09
)
;
    }
    left
    {
        type            calculated;
        value           uniform 0;
    }
    top
    {
        type            calculated;
        value           nonuniform List<scalar> 8(-9.7e-09 -9.7e-09 -9.65e-09 -9.65e-09 -9.65e-09 -9.7e-09 -9.7e-09 -9.65e-09);
    }
    right
    {
        type            calculated;
        value           uniform 0;
    }
    inner_arc
    {
        type            calculated;
        value           uniform 0;
    }
}


// ************************************************************************* //
