/*--------------------------------*- C++ -*----------------------------------*\
  =========                 |
  \\      /  F ield         | OpenFOAM: The Open Source CFD Toolbox
   \\    /   O peration     | Website:  https://openfoam.org
    \\  /    A nd           | Version:  9
     \\/     M anipulation  |
\*---------------------------------------------------------------------------*/
FoamFile
{
    format      ascii;
    class       volScalarField;
    location    "0.74";
    object      p;
}
// * * * * * * * * * * * * * * * * * * * * * * * * * * * * * * * * * * * * * //

dimensions      [0 2 -2 0 0 0 0];

internalField   nonuniform List<scalar> 
464
(
2.66733e-12
-5.19817e-12
-9.41958e-13
-7.62057e-13
-6.11424e-12
-9.48655e-13
1.11161e-12
-7.35365e-13
-1.02109e-12
-7.20196e-13
2.69024e-12
6.24539e-12
8.19141e-13
6.30687e-12
1.50735e-12
1.23699e-12
-4.97771e-13
-5.03373e-13
-4.8118e-13
-7.97781e-13
-8.7062e-13
-1.08078e-12
-9.64852e-13
-8.22465e-13
-7.96706e-13
-8.54139e-13
3.99658e-12
-5.03436e-13
3.6033e-12
-1.05692e-12
-1.03073e-12
-1.71625e-14
1.57015e-13
-3.03446e-13
-4.46097e-13
-5.88501e-13
-6.70581e-13
-4.05254e-13
-4.53561e-13
5.79682e-13
-8.00681e-13
-1.02137e-12
-1.01512e-12
5.27793e-12
4.44966e-12
7.18912e-13
-5.96406e-13
-4.4703e-13
-2.62221e-13
-5.32074e-13
-7.46417e-13
-4.20346e-13
-6.00938e-13
-6.74357e-13
-6.53104e-13
-4.16251e-13
-5.2358e-13
-7.10753e-13
-7.10314e-13
-6.57299e-13
-2.74106e-13
-3.72241e-12
-6.4874e-13
-7.17852e-13
-2.39095e-12
-7.35892e-13
-6.41852e-13
-2.00558e-13
3.6293e-12
-6.59068e-13
-7.16337e-13
-3.1748e-12
2.43522e-12
-4.33085e-13
-1.58121e-12
-4.44436e-13
-6.56503e-13
1.19247e-12
-6.95473e-13
2.40409e-12
-5.53146e-12
-1.0073e-12
-8.72501e-12
-1.17172e-12
-5.52203e-12
-6.82922e-13
-2.6651e-12
-1.04784e-12
-7.36218e-13
-1.33274e-12
-4.95288e-12
-3.99774e-12
-6.24574e-13
5.37994e-12
-6.33994e-13
-6.44536e-13
-7.11335e-13
-9.3105e-13
-3.71407e-12
-8.06498e-13
-7.50295e-13
-4.759e-13
-8.56603e-13
-2.1639e-13
-3.34912e-13
-8.63923e-12
-1.09897e-12
-6.34811e-13
-4.92654e-12
-6.31693e-13
-7.36487e-13
-5.24485e-13
-6.14043e-13
-2.87796e-12
-6.49622e-13
-7.47224e-13
-7.32676e-12
-1.28498e-12
-4.43248e-12
-1.10073e-12
-5.65583e-13
6.80704e-13
-2.10259e-12
2.4905e-12
-6.89565e-13
-7.96885e-13
-8.38331e-13
-7.68655e-13
-4.94198e-13
-7.8471e-12
-1.20926e-12
6.97992e-12
-3.55737e-13
-8.38989e-13
-1.17557e-12
-6.16822e-12
-1.32575e-12
-5.85044e-13
-9.23544e-13
-1.26693e-12
-1.40241e-12
-6.76917e-13
-7.4236e-13
-7.3758e-13
-1.40028e-12
-1.99218e-12
-7.45277e-13
-1.09551e-12
-7.11939e-13
-1.21e-12
-8.70409e-13
-8.37019e-13
4.1136e-13
-9.59544e-13
-5.46326e-12
-1.30795e-12
-6.23598e-13
-7.40668e-13
-6.45511e-13
-4.21677e-12
-5.1999e-13
-8.38238e-13
-1.33343e-12
-1.07937e-12
-1.02547e-12
-1.36501e-12
-5.52097e-14
-9.39823e-13
4.88742e-14
-1.04688e-12
-7.69439e-13
-3.2182e-12
-2.31397e-12
-1.15147e-12
-1.33985e-12
-6.87186e-13
-7.45997e-13
-8.03487e-13
1.31669e-12
-4.76387e-13
-7.93615e-13
-6.25364e-13
-5.56093e-13
-5.85039e-13
-1.63958e-13
-5.00361e-13
-5.90831e-13
-5.4974e-13
-1.79266e-12
-5.22167e-13
-5.46691e-13
-4.97888e-13
-3.08004e-13
-4.91625e-13
-7.21143e-13
-7.40682e-13
-8.86238e-13
-6.03879e-13
-3.08703e-13
-6.29707e-13
-5.82705e-13
-7.22751e-13
-5.04965e-13
-6.98738e-13
-5.19572e-13
-3.49026e-13
-5.88383e-13
-7.18576e-13
-7.8046e-13
-2.9201e-12
-1.32174e-12
-6.53681e-13
-2.05307e-13
-5.55466e-13
-8.96673e-13
-6.54085e-13
1.07448e-13
-4.38214e-13
3.69618e-12
-8.00603e-13
-5.6273e-13
-6.59758e-13
-6.6204e-13
-7.12647e-13
-7.45393e-13
-8.26868e-13
-7.31128e-13
-7.31572e-13
-7.21433e-13
-7.25234e-13
-7.24997e-13
-6.76884e-13
-6.78559e-13
-6.73547e-13
-6.53864e-13
-7.05843e-13
-6.20194e-13
-6.39405e-13
-6.71962e-13
-6.22307e-13
-6.82353e-13
-5.9993e-13
-6.44347e-13
-6.46754e-13
-6.46825e-13
-5.86761e-13
-6.16659e-13
-7.9613e-13
-5.82446e-13
-8.16405e-13
-5.49634e-13
-5.71598e-13
-6.11134e-13
-1.0161e-12
-6.07842e-13
-5.75755e-13
-7.30997e-13
-8.29794e-13
-5.72778e-13
-3.71599e-13
-5.66064e-13
-6.0573e-13
-5.11671e-13
2.87615e-13
-4.83623e-13
1.38132e-13
-4.92449e-13
-6.15707e-13
1.11636e-12
-3.92354e-14
-1.08331e-12
-4.02777e-13
-4.47533e-13
5.65399e-13
8.77764e-13
-4.49307e-13
-2.28082e-13
-7.46777e-13
-8.15439e-13
-2.3224e-12
-6.63819e-13
-6.31219e-13
-8.37161e-13
-3.9283e-13
1.06868e-12
-1.07809e-12
-8.14553e-13
-1.8012e-12
-5.88449e-13
-7.2843e-13
-1.41895e-12
-8.0391e-13
-6.31102e-13
-6.62958e-13
-6.10621e-13
-7.32014e-13
-7.18285e-13
-6.34444e-13
-6.12422e-13
-2.25688e-12
7.17542e-13
1.76139e-13
2.01729e-12
5.93462e-12
-5.6218e-13
-5.8154e-13
-6.03218e-13
-7.25694e-13
-3.91353e-12
-9.11475e-13
-6.94403e-13
-7.35281e-13
-6.22591e-13
4.16088e-13
-6.75004e-13
-8.30709e-13
-7.59246e-13
-2.52877e-12
-6.93813e-13
6.51851e-13
-1.09092e-12
-6.5346e-13
-3.24153e-12
-6.13059e-13
-6.08422e-13
-2.38239e-13
-1.72084e-13
1.71329e-12
-5.40187e-13
-1.77844e-12
-8.8689e-13
-1.77601e-12
-8.08053e-13
-5.94991e-13
-6.98183e-13
-7.33314e-13
-1.03844e-12
-7.59378e-13
-1.07098e-12
-9.61466e-13
-7.18494e-13
3.6772e-12
-1.34588e-12
-1.86889e-12
-6.24705e-13
-6.46489e-13
-2.31498e-13
-6.82071e-13
-7.55928e-13
-7.05415e-13
-6.35727e-13
-7.73951e-13
-6.80794e-13
-7.07768e-13
-5.90724e-13
-3.31011e-12
-9.98609e-13
-7.82246e-12
-1.01841e-12
-5.12434e-12
-8.80864e-13
3.30794e-13
-1.00007e-12
-5.58512e-12
3.36286e-12
-5.10122e-13
-6.64e-13
-6.69851e-13
8.05921e-12
-1.1272e-12
-7.00547e-13
6.93313e-12
1.64792e-12
-4.4941e-13
4.84097e-12
-8.45794e-13
3.05006e-12
-1.06089e-12
3.01856e-12
-1.15048e-12
5.35819e-13
-1.67323e-13
-4.13215e-13
-2.56543e-13
-5.03011e-13
-1.08757e-13
-4.88833e-13
-9.44309e-13
-6.40275e-13
-4.36955e-13
-7.01582e-13
-5.88446e-13
-6.50731e-13
-5.46313e-13
-7.82828e-13
-9.03042e-13
-8.48837e-13
-9.59927e-13
-9.98817e-13
2.44048e-12
-2.886e-12
-8.31161e-13
5.38933e-12
-6.39106e-13
4.64087e-13
2.31944e-12
6.64255e-12
-5.5184e-13
3.31693e-12
-5.75639e-13
-1.37454e-12
-6.17103e-13
-9.14188e-13
-8.97516e-13
-8.43318e-13
-2.63616e-12
9.55539e-12
-5.67585e-13
-8.7992e-13
-3.79816e-12
-6.66593e-13
-8.11357e-13
3.07293e-12
6.10393e-12
3.08849e-12
1.7862e-12
2.34359e-12
1.50295e-12
9.84615e-13
-8.8185e-12
-1.06582e-12
-2.91452e-13
-3.44231e-13
-1.04953e-12
-5.32123e-13
-5.28091e-13
-5.52982e-13
-9.41923e-13
-5.29995e-13
-1.22838e-12
-6.19803e-13
-5.43964e-13
-7.10668e-13
-7.73831e-13
-8.92547e-13
-8.44423e-13
-8.93651e-13
-1.08945e-12
-8.40063e-13
-7.91654e-13
1.95964e-13
7.88065e-13
5.01696e-13
-9.23352e-13
-6.67195e-13
-5.5507e-13
-5.57053e-13
-5.51937e-13
-6.42386e-13
-6.03458e-13
-6.08774e-13
9.0858e-12
5.77866e-12
-9.34785e-13
)
;

boundaryField
{
    back
    {
        type            empty;
    }
    front
    {
        type            empty;
    }
    left
    {
        type            zeroGradient;
    }
    top
    {
        type            zeroGradient;
    }
    right
    {
        type            zeroGradient;
    }
    bottom
    {
        type            uniformFixedValue;
        uniformValue    
        {
            type            scale;
            scale           
            {
                type            squarePulse;
                start           0.3;
                duration        0.3;
            }
            xScale          
            {
                type            constant;
                value           1;
            }
            value           
            {
                type            constant;
                value           15.1;
            }
        }
        value           uniform 0;
    }
}


// ************************************************************************* //
