/*--------------------------------*- C++ -*----------------------------------*\
  =========                 |
  \\      /  F ield         | OpenFOAM: The Open Source CFD Toolbox
   \\    /   O peration     | Website:  https://openfoam.org
    \\  /    A nd           | Version:  9
     \\/     M anipulation  |
\*---------------------------------------------------------------------------*/
FoamFile
{
    format      ascii;
    class       surfaceScalarField;
    location    "0.74";
    object      phi;
}
// * * * * * * * * * * * * * * * * * * * * * * * * * * * * * * * * * * * * * //

dimensions      [0 3 -1 0 0 0 0];

internalField   nonuniform List<scalar> 
663
(
-6.57747e-18
6.83025e-18
-2.52772e-19
2.20732e-18
7.68082e-18
-1.02608e-20
1.02608e-20
2.14969e-19
-1.04806e-19
-1.10164e-19
-3.38583e-18
5.59315e-18
1.66284e-21
-1.19236e-20
-7.34169e-18
7.64217e-19
6.95874e-20
1.45382e-19
-8.6374e-18
3.54744e-18
5.08996e-18
-2.90323e-19
-8.34708e-18
-2.63588e-18
9.46612e-18
4.60809e-18
-2.42893e-18
-2.17916e-18
-3.79425e-18
4.30699e-18
3.01091e-19
9.63523e-19
-8.79555e-19
-8.39676e-20
1.00697e-18
-4.34498e-20
5.09465e-19
-5.16216e-19
6.75129e-21
5.40494e-19
-3.10289e-20
6.44661e-21
-6.44661e-21
7.51527e-19
-9.29028e-19
1.77502e-19
-1.87976e-19
9.39503e-19
-2.6963e-19
-3.51586e-19
6.21216e-19
-6.99996e-19
4.30366e-19
-2.78937e-19
2.31116e-19
4.78209e-20
2.18327e-20
-1.26638e-19
-1.56032e-19
-1.22905e-19
-7.43956e-19
3.86606e-19
3.57351e-19
2.36657e-19
-7.97894e-20
-1.56868e-19
4.4998e-19
-1.19394e-18
4.59159e-19
-3.80938e-19
-7.8221e-20
2.2685e-19
2.32309e-19
-9.88969e-19
1.01783e-18
-2.88606e-20
1.23035e-19
-1.112e-18
9.05995e-19
-9.6163e-19
5.5635e-20
7.86989e-19
1.19006e-19
4.09482e-19
1.31012e-19
7.4823e-19
-3.38748e-19
-3.54635e-20
4.19101e-20
6.22645e-20
1.74393e-19
-1.00497e-18
6.87372e-20
9.36237e-19
-5.57996e-19
-3.71033e-19
7.78807e-19
-8.7072e-19
9.19131e-20
7.88111e-20
-3.69163e-19
7.55768e-19
-2.79809e-18
1.99825e-21
-3.64923e-19
7.96392e-19
-4.31469e-19
-7.4559e-19
6.80435e-19
6.51548e-20
-1.04175e-19
1.04175e-19
-1.15253e-19
2.91915e-19
-8.4991e-19
3.27702e-19
6.83885e-20
-3.96091e-19
-8.28402e-19
1.37586e-19
6.90816e-19
1.21715e-19
-6.21777e-19
5.00063e-19
1.0041e-18
-8.82389e-19
-2.2677e-19
5.54473e-19
-5.91693e-19
-1.95787e-19
-4.14229e-19
6.10016e-19
7.85046e-19
-9.80833e-19
-7.07986e-19
-1.20416e-19
-4.19101e-20
-1.03985e-18
3.99647e-18
-2.95662e-18
-5.48301e-19
3.81374e-19
1.66927e-19
4.88628e-19
-5.79412e-19
9.07845e-20
-5.62068e-18
5.33036e-18
-2.54599e-19
-3.67178e-19
-7.31707e-19
7.36357e-19
-4.64956e-21
1.72563e-19
-4.81503e-18
3.05811e-20
9.73522e-19
9.11143e-19
-1.26098e-19
-6.66053e-18
9.30782e-19
-4.80802e-19
-2.71007e-19
-4.74583e-19
-2.19626e-21
1.13883e-18
-1.13664e-18
-2.21698e-19
8.25605e-20
-8.14268e-19
-6.92229e-18
6.66952e-18
-6.21425e-19
2.07196e-19
5.12273e-20
2.80506e-18
3.53929e-18
-6.34435e-18
-8.56375e-20
8.17893e-20
3.84816e-21
1.08561e-18
-1.85361e-18
7.67993e-19
3.24582e-20
6.41253e-21
-3.88707e-20
3.89068e-18
-1.76948e-19
-3.71353e-19
4.21004e-18
-2.13575e-19
-5.31793e-20
-3.62456e-19
2.78677e-19
8.3779e-20
-1.17068e-18
1.16848e-18
9.34054e-19
-3.12124e-18
9.59612e-19
-7.16487e-19
-2.43125e-19
-2.80111e-18
-3.27869e-18
6.0798e-18
7.55138e-19
2.04474e-19
4.63935e-19
-1.32798e-19
-2.12919e-20
1.03081e-19
1.78159e-19
3.88461e-19
-5.6662e-19
2.80595e-18
-6.6002e-18
-2.41503e-19
-1.20953e-19
-1.52046e-19
8.32481e-19
1.84607e-19
-4.2611e-19
4.38176e-19
5.79654e-19
-5.23454e-19
-1.85361e-18
6.41253e-21
8.18615e-19
-8.22579e-20
-7.37652e-19
1.67171e-18
-7.37059e-19
1.00296e-18
-2.65899e-19
8.70901e-19
2.62024e-19
-1.13292e-18
5.25385e-19
1.02128e-19
-7.38972e-19
9.17131e-19
-5.35654e-20
3.32242e-19
-2.7665e-19
4.61257e-19
-7.67993e-19
3.03408e-20
4.62247e-20
3.88707e-20
-8.50954e-20
3.88461e-19
2.26001e-19
-1.79776e-19
-8.89106e-19
-2.44322e-18
5.24917e-18
2.94021e-18
1.26984e-18
-4.1676e-18
4.93182e-18
7.34196e-19
1.24514e-18
-3.74239e-19
4.22071e-18
-1.2805e-18
-8.32102e-19
1.09413e-18
4.05787e-19
3.81202e-19
7.54877e-19
-7.54877e-19
1.91955e-19
-4.68605e-19
-9.29335e-20
-3.54491e-19
4.47424e-19
3.03408e-20
-8.50954e-20
7.65394e-20
-2.33407e-19
-2.83739e-19
2.83739e-19
1.50755e-19
-2.43689e-19
-3.77786e-19
-8.38052e-19
7.11954e-19
4.07691e-19
-1.50755e-19
6.56598e-20
-1.54986e-20
1.15433e-18
-3.29505e-19
5.2146e-19
1.72822e-19
-5.66829e-19
-1.25833e-20
-3.25597e-19
4.18579e-20
1.59532e-19
-4.89037e-19
-5.62962e-19
9.43575e-20
5.73083e-19
1.07761e-18
-1.6507e-18
1.03274e-18
2.12402e-19
4.18802e-19
2.43689e-19
4.00499e-20
-4.12723e-19
-1.03493e-19
-3.38959e-19
4.98491e-19
1.77749e-18
1.93925e-18
-2.67545e-19
4.83634e-19
-1.08205e-18
5.98418e-19
1.12841e-19
-4.518e-19
7.2091e-20
-1.20873e-18
-3.25597e-19
5.69492e-20
-3.82546e-19
5.32077e-19
-4.84436e-20
-7.35755e-19
7.92704e-19
-7.04814e-20
1.12975e-18
-1.05927e-18
-5.10027e-19
5.10027e-19
-4.12229e-19
-9.77982e-20
1.72568e-18
-5.82118e-19
5.6662e-19
-7.06077e-19
5.82118e-19
8.68264e-20
-9.18929e-19
-2.92395e-19
4.05236e-19
-3.22585e-19
3.01897e-20
-1.13397e-18
1.70706e-18
-2.72583e-20
-7.26933e-19
7.54191e-19
4.99258e-19
-8.21843e-19
1.64181e-20
6.6554e-19
-6.81958e-19
2.99277e-19
-2.99277e-19
2.72018e-19
3.64275e-19
-4.34757e-19
-3.64275e-19
6.49983e-20
2.7219e-19
-2.55772e-19
2.7219e-19
-3.25403e-19
4.12229e-19
-7.87439e-19
-1.2057e-19
9.08009e-19
3.25403e-19
-5.32131e-20
3.17607e-19
-3.17607e-19
4.50421e-20
-1.04122e-19
-8.76711e-19
-9.00694e-19
7.96572e-19
-9.23731e-19
-8.85937e-19
9.16518e-19
2.20726e-20
-8.72853e-19
-2.78413e-20
3.84722e-19
-3.62649e-19
-9.21423e-19
4.85694e-20
3.62649e-19
3.84722e-19
3.79817e-19
-3.79817e-19
3.51976e-19
-2.55771e-19
1.72563e-19
-2.68509e-19
2.68509e-19
-3.82546e-19
-4.34757e-19
-3.58242e-19
3.58242e-19
3.51976e-19
2.72018e-19
4.90469e-21
-6.67664e-20
-2.2441e-19
-8.36579e-20
-1.40752e-19
-1.50424e-19
-1.71647e-19
-6.53737e-19
8.25384e-19
-1.51936e-19
1.51136e-21
-6.11514e-20
-2.32798e-19
-7.57371e-19
1.03634e-19
-2.21892e-19
-5.35479e-19
2.38663e-19
-8.66691e-19
9.70326e-19
-2.56018e-20
4.99559e-19
1.5965e-19
-6.59209e-19
7.0276e-19
-2.03201e-19
-2.47493e-19
-7.55716e-19
9.15366e-19
-8.83066e-21
-8.58966e-20
-5.73312e-19
1.6728e-19
-2.12032e-19
-4.51049e-20
-7.48965e-19
-1.31001e-19
5.8999e-20
-9.8273e-19
-5.75021e-19
1.70928e-21
-3.23547e-19
1.1018e-19
-6.85201e-19
-7.47255e-19
-1.96803e-19
-3.7228e-19
5.69084e-19
-1.3794e-19
-1.21605e-19
-9.39599e-21
-1.14257e-20
-9.30717e-20
5.91562e-19
-3.23547e-19
-2.08229e-19
4.39695e-19
-9.16717e-19
4.77021e-19
8.37993e-20
-2.92028e-19
-4.64792e-19
-3.35348e-19
8.0014e-19
-3.03377e-19
3.87176e-19
-9.03401e-19
8.98768e-19
4.63332e-21
1.36318e-19
-3.71324e-19
-3.28474e-19
4.08782e-19
1.10537e-18
-1.18934e-18
1.1771e-19
7.81058e-19
-6.66027e-19
8.66606e-20
-4.15134e-19
1.17415e-19
-1.65859e-19
1.11001e-18
1.08157e-18
-2.35125e-19
3.21786e-19
-4.14793e-20
-3.10497e-19
3.10497e-19
4.15361e-19
4.43889e-19
-6.09748e-19
4.0461e-19
3.08113e-21
7.98896e-20
-7.06289e-19
-4.83052e-19
8.62149e-19
-4.1826e-19
3.85408e-20
2.71956e-19
1.34443e-18
-2.62493e-18
-1.87084e-19
-2.19902e-19
1.11481e-18
-1.33471e-18
2.45924e-18
-5.24541e-19
-6.33077e-19
-4.54539e-19
7.50495e-19
-2.71956e-19
1.61844e-20
-7.14455e-19
7.67668e-19
-8.99257e-19
-1.05228e-18
-3.13204e-18
2.68131e-18
4.50734e-19
1.50588e-18
6.25437e-19
1.22793e-19
3.25958e-19
-7.13135e-19
-8.25489e-20
1.51257e-19
9.96327e-19
9.60939e-19
3.18445e-18
-1.40697e-18
4.25902e-19
-7.47688e-19
-1.06839e-18
1.6913e-19
-3.66114e-20
1.06199e-19
2.05048e-18
-1.25852e-19
-2.55086e-19
-6.86607e-19
-2.52453e-19
2.52453e-19
-1.16558e-18
6.10272e-19
3.29231e-19
8.13762e-18
-4.76544e-18
3.45251e-20
-3.45251e-20
1.00951e-18
-2.27841e-19
4.95364e-19
-5.6358e-20
5.6358e-20
-2.60448e-19
-1.97467e-20
1.97467e-20
9.34484e-19
-9.63022e-18
7.50222e-19
-2.29161e-19
-4.24623e-21
-8.00722e-20
3.63721e-19
-6.70423e-19
2.60481e-18
1.66285e-21
2.60481e-18
1.66285e-21
-5.6222e-19
8.24304e-18
1.78094e-20
-7.54847e-21
-1.83233e-18
-8.07538e-21
-7.51205e-19
6.18744e-18
1.84417e-21
-8.29078e-21
-1.97251e-19
6.03038e-19
1.05597e-18
-2.57997e-19
2.11549e-21
1.76313e-20
8.91174e-22
-9.63854e-19
-5.5694e-19
1.44217e-19
-8.91169e-22
-1.16783e-19
-5.74114e-19
4.09469e-19
1.92338e-19
-3.6602e-19
6.063e-19
-6.71298e-19
-3.37063e-19
-3.03999e-19
7.52198e-19
5.96027e-19
-1.77324e-19
1.68526e-19
-1.37497e-19
-7.43898e-19
5.76618e-19
1.85961e-19
-1.85961e-19
4.54351e-19
5.78069e-19
-4.92612e-19
-6.75982e-20
5.32256e-19
-7.43202e-19
7.99072e-18
1.78094e-20
7.12192e-18
2.11555e-21
6.30529e-18
-2.9607e-18
2.56185e-18
-2.56185e-18
1.84419e-21
-3.43541e-18
1.84419e-21
-5.1218e-18
-3.22527e-18
7.89405e-20
-8.31867e-20
7.88173e-20
-9.55329e-20
1.67156e-20
-3.21208e-19
-1.04902e-19
1.05597e-18
-3.63124e-20
2.30121e-20
-2.64439e-18
4.09469e-19
3.6602e-19
-4.50171e-21
1.68526e-19
1.37497e-19
4.55862e-19
6.33364e-19
-5.56635e-19
-1.26269e-19
-2.27807e-19
-4.331e-21
-3.95975e-21
4.06434e-20
)
;

boundaryField
{
    back
    {
        type            empty;
        value           nonuniform List<scalar> 0();
    }
    front
    {
        type            empty;
        value           nonuniform List<scalar> 0();
    }
    left
    {
        type            calculated;
        value           uniform 0;
    }
    top
    {
        type            calculated;
        value           uniform 0;
    }
    right
    {
        type            calculated;
        value           uniform 0;
    }
    bottom
    {
        type            calculated;
        value           nonuniform List<scalar> 8(-9.88814e-18 -3.37218e-18 8.69574e-18 -5.99064e-18 -8.55294e-18 5.99726e-18 9.76631e-18 3.34459e-18);
    }
}


// ************************************************************************* //
