/*--------------------------------*- C++ -*----------------------------------*\
  =========                 |
  \\      /  F ield         | OpenFOAM: The Open Source CFD Toolbox
   \\    /   O peration     | Website:  https://openfoam.org
    \\  /    A nd           | Version:  9
     \\/     M anipulation  |
\*---------------------------------------------------------------------------*/
FoamFile
{
    format      ascii;
    class       volVectorField;
    location    "0.74";
    object      U;
}
// * * * * * * * * * * * * * * * * * * * * * * * * * * * * * * * * * * * * * //

dimensions      [0 1 -1 0 0 0 0];

internalField   nonuniform List<vector> 
464
(
(-1.75595e-10 -1.2048e-10 -9.9515e-30)
(-1.14719e-10 2.56681e-10 0)
(7.61434e-14 1.76111e-13 0)
(5.05467e-12 -2.11524e-13 4.68922e-29)
(-8.21411e-11 2.04155e-10 0)
(5.94171e-14 1.43717e-13 -1.46749e-29)
(-1.67751e-10 -7.22906e-11 1.12365e-28)
(4.78617e-12 -1.00145e-12 0)
(-2.06611e-10 9.54673e-12 -1.06594e-29)
(-1.95805e-10 7.82423e-11 -8.96194e-29)
(-1.39784e-10 -1.55477e-10 9.14256e-30)
(-5.90094e-11 -9.26753e-11 -9.25665e-30)
(-1.82688e-10 -2.21919e-11 -3.66409e-30)
(-4.24226e-11 -9.63833e-11 0)
(-3.14296e-12 3.17282e-11 3.06561e-29)
(-3.78786e-13 2.93416e-11 -7.95563e-29)
(-4.68617e-13 1.83328e-11 0)
(-6.73849e-13 1.54727e-11 -1.17091e-29)
(2.07107e-13 -9.11956e-14 -2.28442e-29)
(4.46054e-13 2.77519e-11 4.80718e-29)
(1.35018e-12 2.89383e-11 -7.1765e-29)
(6.95445e-12 1.83978e-11 1.56045e-29)
(8.04319e-12 1.95362e-11 -7.59533e-30)
(5.92804e-12 1.76967e-12 0)
(3.52051e-12 1.3803e-13 -4.81609e-29)
(5.98763e-12 2.91703e-12 2.55937e-29)
(-1.47822e-11 -3.24089e-13 -1.1948e-28)
(3.17766e-12 -4.30071e-12 -2.88871e-29)
(-2.0482e-11 5.35229e-12 0)
(6.0311e-12 9.70347e-12 0)
(7.27894e-12 8.18494e-12 3.4539e-30)
(7.74109e-12 3.1796e-11 5.15263e-32)
(5.8805e-12 3.47501e-11 2.53019e-30)
(6.08286e-12 2.65486e-11 -2.09047e-29)
(6.71941e-12 2.43372e-11 2.10685e-29)
(-7.96079e-13 1.69292e-11 3.84031e-29)
(-2.06873e-12 2.16408e-11 -3.57511e-29)
(5.34124e-13 -8.8482e-13 -3.38777e-30)
(2.54588e-12 -5.2781e-12 1.93406e-30)
(2.05125e-12 2.91113e-11 0)
(-9.59224e-13 2.80632e-11 6.8466e-29)
(5.12418e-12 2.46434e-11 0)
(7.00173e-12 2.23524e-11 -1.96287e-29)
(-2.25697e-11 -2.39038e-11 -2.76117e-28)
(-4.51033e-11 -5.02569e-11 2.81765e-28)
(1.53817e-12 3.32736e-11 2.386e-30)
(9.39773e-12 -1.55104e-11 3.26129e-29)
(2.8806e-12 -1.8588e-11 1.27247e-30)
(5.85008e-13 -1.94977e-12 0)
(1.61565e-12 -2.28301e-12 3.28e-30)
(-1.23847e-12 2.90083e-11 -4.59797e-29)
(3.1515e-12 -9.42483e-12 -1.14561e-30)
(-6.9227e-13 2.11868e-11 -2.67631e-29)
(3.64421e-12 -1.80537e-11 -3.99044e-29)
(2.92557e-12 -2.64084e-11 -1.23823e-30)
(4.75425e-12 -1.3193e-11 2.3901e-29)
(7.85151e-12 -1.39733e-11 0)
(-5.25552e-12 -1.72205e-11 0)
(-4.2673e-12 -2.47685e-11 -4.2547e-29)
(-1.50582e-12 2.3371e-11 0)
(9.25944e-13 -2.64972e-12 1.84633e-29)
(-9.35911e-11 7.82637e-11 4.02719e-28)
(-4.02786e-12 -1.06703e-11 7.82387e-29)
(-2.23137e-12 -1.29484e-11 -4.23783e-29)
(-1.61111e-10 7.92456e-11 -5.51986e-30)
(6.03426e-12 -1.18651e-11 -4.11457e-29)
(-2.01467e-13 -2.2194e-11 -3.80473e-29)
(1.14311e-12 -5.1406e-12 -1.09175e-29)
(-1.01599e-10 -1.1974e-10 -1.01307e-28)
(1.05516e-12 -2.89418e-11 4.0288e-29)
(-3.63862e-12 -2.5211e-11 4.24588e-29)
(-1.28647e-10 1.06673e-10 -2.13395e-28)
(-1.42742e-11 1.95807e-11 0)
(4.61617e-12 -1.84011e-11 2.63977e-29)
(8.01083e-13 -3.52927e-11 -8.68309e-29)
(4.33656e-12 -8.33377e-12 2.67121e-29)
(-1.81869e-12 -2.1223e-11 -3.99494e-29)
(-1.99235e-10 -1.12083e-10 -1.12661e-28)
(-4.98735e-12 -1.23444e-11 -4.17747e-29)
(-5.61402e-12 2.4074e-11 5.566e-29)
(-7.92389e-11 1.42395e-10 0)
(1.27778e-12 1.28845e-12 1.40831e-29)
(-1.83582e-11 4.97222e-11 -5.08599e-28)
(4.62642e-13 8.26468e-13 7.25792e-29)
(-4.77306e-11 9.09945e-11 0)
(-4.82815e-12 -1.58647e-11 7.41591e-31)
(-9.25227e-11 4.81678e-11 -1.91673e-28)
(1.43996e-12 2.08216e-12 0)
(8.42742e-12 -2.19134e-12 0)
(-5.10156e-13 -3.40205e-11 -6.99333e-29)
(-5.76667e-11 7.11673e-11 2.95347e-28)
(-1.20658e-10 1.52108e-10 0)
(5.59106e-12 -2.27584e-11 3.82157e-29)
(-8.10077e-11 -1.8094e-10 -2.72419e-28)
(6.17614e-12 -2.58001e-11 -3.75385e-29)
(-2.22138e-12 -1.48972e-11 -3.85049e-29)
(-3.57329e-12 -1.83545e-11 4.18716e-29)
(2.41218e-12 1.64384e-12 -1.2916e-29)
(-2.18972e-12 -1.78549e-11 -2.41906e-28)
(-1.59263e-10 2.03689e-12 -8.40956e-31)
(8.76825e-12 2.79801e-13 0)
(3.69987e-12 -2.29125e-11 3.26643e-30)
(1.01502e-11 2.01966e-12 0)
(8.32384e-12 2.92479e-11 -5.04196e-32)
(7.04383e-12 2.93342e-11 0)
(-1.22525e-11 3.94322e-11 -4.02967e-28)
(1.579e-13 7.90124e-14 0)
(1.64381e-12 -2.10989e-11 3.7241e-29)
(-3.1288e-11 3.59493e-11 -2.95663e-28)
(6.00014e-12 -2.39507e-11 0)
(7.77022e-12 -2.98829e-11 0)
(7.57578e-12 -1.91148e-11 -3.32929e-29)
(3.05977e-12 -2.30045e-11 0)
(-8.1714e-12 -2.28805e-11 1.54389e-28)
(9.42775e-12 -4.3276e-12 1.20536e-30)
(1.17924e-11 4.3841e-13 -7.12253e-31)
(-1.11128e-11 1.4938e-11 4.05877e-28)
(7.56158e-13 2.44841e-12 8.34504e-29)
(-2.37625e-12 -8.62535e-12 1.94593e-28)
(2.31121e-12 5.13702e-12 -4.36352e-30)
(6.10101e-12 -2.37525e-11 3.27826e-29)
(-1.31695e-10 -1.16182e-11 -1.45625e-30)
(-1.16779e-10 3.55408e-11 8.73436e-29)
(-1.31684e-10 -6.50145e-11 -9.65987e-29)
(-3.91974e-12 -2.27068e-11 0)
(8.64456e-12 -2.97198e-11 5.23623e-29)
(-1.01618e-10 1.43849e-11 -8.81047e-29)
(5.23832e-12 -2.9202e-11 0)
(3.92708e-12 2.28371e-11 0)
(-8.04424e-12 1.51655e-11 3.94009e-28)
(3.59419e-13 7.2656e-13 -5.63671e-29)
(-8.92504e-12 -1.5429e-11 -3.21179e-28)
(4.02201e-13 -7.33968e-13 -1.51233e-29)
(1.25617e-11 3.05621e-12 0)
(2.92974e-12 1.31055e-11 0)
(-4.81619e-12 -2.59212e-13 -3.21884e-28)
(4.87938e-13 1.72289e-12 -1.27443e-28)
(5.40883e-12 -4.8391e-12 -3.74387e-29)
(-1.50379e-10 4.03331e-11 9.78494e-29)
(4.07775e-13 5.91346e-12 5.91945e-29)
(1.11212e-12 7.62705e-12 0)
(8.52253e-12 -2.6019e-11 0)
(-2.30042e-12 -2.38137e-11 4.41741e-31)
(1.12649e-11 -3.87408e-12 4.18097e-29)
(9.93595e-13 4.71412e-12 7.94777e-29)
(-1.44539e-12 -3.15342e-11 -1.29264e-28)
(1.31707e-11 4.66897e-13 0)
(2.91479e-12 4.15015e-12 0)
(-3.12501e-13 -1.88495e-11 1.75729e-31)
(6.82796e-13 1.21543e-11 -1.39172e-28)
(1.28984e-11 4.40264e-12 1.63935e-30)
(1.11759e-11 8.06274e-12 5.18923e-29)
(-3.81122e-11 1.00483e-11 3.54105e-29)
(6.14331e-12 -3.35664e-11 -5.25946e-29)
(-5.89876e-12 -6.74141e-12 -2.7373e-31)
(9.06329e-13 1.03058e-11 -8.39306e-29)
(-2.89255e-15 1.61657e-11 0)
(1.26123e-11 8.15545e-13 0)
(-1.07716e-10 2.72138e-13 -6.80949e-30)
(-3.64627e-11 1.93667e-11 2.45641e-28)
(-2.71759e-11 -1.38806e-13 0)
(1.14896e-11 5.58003e-12 -4.88433e-29)
(2.29535e-12 -3.20648e-11 1.58458e-28)
(3.28137e-13 6.86624e-12 4.38674e-30)
(3.39433e-13 1.3799e-11 6.26566e-29)
(6.05722e-13 3.16313e-12 0)
(-1.3987e-11 6.31307e-12 -1.50421e-29)
(9.08874e-13 2.3403e-11 5.59683e-29)
(3.41401e-12 2.8131e-11 3.68189e-30)
(7.54453e-13 -1.04896e-11 1.00393e-28)
(1.7078e-12 -1.72444e-11 -1.17311e-29)
(-6.16018e-11 2.57617e-11 -1.65867e-28)
(1.77519e-13 -2.1441e-11 -3.36313e-29)
(4.47235e-12 1.77946e-11 -1.55033e-29)
(1.3964e-12 -2.04064e-11 2.22634e-29)
(3.2972e-12 -2.3889e-11 -3.94983e-29)
(1.02689e-11 6.40321e-13 4.83352e-29)
(8.37985e-12 6.2842e-12 -1.90278e-31)
(-5.00189e-11 3.40258e-12 5.84398e-29)
(2.22323e-12 1.99875e-11 3.5825e-30)
(7.42628e-12 1.73101e-11 4.92408e-29)
(5.68551e-13 -1.83421e-11 3.69109e-29)
(5.30787e-13 6.23644e-12 0)
(9.55709e-13 1.09831e-11 -3.72215e-29)
(1.23077e-12 1.60275e-11 1.27903e-29)
(1.25587e-12 1.31354e-11 -7.60294e-31)
(2.38859e-13 -9.97095e-12 0)
(2.78182e-13 -5.41211e-12 -2.50152e-29)
(3.15006e-13 -1.21075e-11 -1.72887e-28)
(1.43939e-12 -1.3813e-11 7.04879e-32)
(2.24676e-12 -2.61395e-11 -3.35183e-32)
(8.6763e-13 -1.12231e-11 3.12917e-29)
(4.88515e-13 -6.29941e-12 -2.8702e-29)
(2.01338e-12 -2.19709e-11 -2.94058e-29)
(-3.17475e-12 -2.74446e-11 4.25111e-32)
(-2.02646e-12 -2.61506e-11 -4.26458e-32)
(7.21903e-13 2.74761e-11 -5.14613e-29)
(3.75752e-12 -2.71649e-11 3.31617e-32)
(6.46037e-13 7.8395e-12 -1.1185e-29)
(5.84517e-13 -2.78106e-11 3.85454e-29)
(9.50048e-13 -2.42649e-11 0)
(-1.08224e-12 -2.40604e-11 0)
(3.24318e-13 -1.41663e-11 0)
(-9.60523e-13 -2.76908e-11 4.08357e-32)
(5.90699e-13 -6.5348e-12 0)
(7.45281e-13 -1.28413e-11 -3.49014e-30)
(7.08097e-14 -7.70666e-12 0)
(-1.45663e-13 -7.59147e-12 -3.29075e-29)
(-4.59432e-13 -1.38722e-11 4.71877e-29)
(-7.127e-13 -1.1999e-11 1.24962e-28)
(6.07851e-13 4.93195e-12 6.24563e-29)
(-2.64194e-14 -5.0713e-12 0)
(6.38858e-13 -3.35462e-12 9.70739e-30)
(-2.47674e-13 6.08698e-12 -2.80931e-29)
(4.29044e-14 7.74175e-12 0)
(7.98124e-13 -8.37675e-12 -3.39949e-29)
(3.57892e-13 9.76535e-12 1.40987e-30)
(2.96465e-13 -7.25987e-12 1.8801e-29)
(-2.49872e-12 8.6615e-12 4.46602e-29)
(-3.00666e-13 -7.01853e-12 -3.7756e-29)
(4.19485e-13 5.59821e-12 2.72866e-29)
(-9.92436e-14 -1.44897e-11 4.11568e-29)
(-1.64911e-13 -2.49049e-11 -3.85918e-29)
(1.72801e-12 -1.27877e-11 8.32298e-29)
(6.30406e-12 6.39296e-13 4.77468e-29)
(3.92761e-12 7.15489e-12 -4.52207e-29)
(1.74502e-12 9.24409e-13 0)
(-3.55511e-12 1.94051e-11 2.17023e-29)
(-3.59968e-13 7.12718e-12 -1.28241e-30)
(-2.34453e-12 3.90161e-13 -4.4193e-29)
(-4.02381e-12 7.10605e-12 4.38026e-29)
(-4.14396e-12 2.28343e-11 -4.74913e-30)
(-5.27865e-12 1.7775e-11 0)
(-5.69512e-12 -1.14904e-11 -3.95984e-29)
(-3.2803e-12 2.71623e-11 4.00915e-29)
(-5.27052e-12 7.76469e-13 0)
(-3.50644e-12 1.92824e-11 -1.19291e-30)
(-4.88619e-12 1.62677e-11 -7.30096e-31)
(-5.83117e-12 6.85685e-12 4.01745e-29)
(-2.61035e-12 2.31655e-11 3.49241e-29)
(-5.97997e-12 5.85094e-13 -4.09273e-29)
(-2.18397e-12 1.54979e-11 -3.54826e-29)
(-4.94355e-12 2.07346e-11 3.7307e-29)
(-5.33619e-12 6.2365e-12 0)
(-4.21149e-12 4.98684e-13 0)
(-9.45411e-13 2.23089e-11 -1.47637e-30)
(-2.38631e-12 5.76522e-12 -1.13416e-30)
(-6.28243e-14 2.47616e-11 0)
(4.72399e-15 1.86995e-11 0)
(-3.34142e-13 1.38773e-11 0)
(2.27031e-12 1.53008e-11 -3.00222e-29)
(2.21985e-13 2.20497e-11 -6.39734e-29)
(4.7599e-12 -1.07092e-11 -3.61609e-29)
(3.79483e-12 -3.17827e-11 7.01495e-29)
(-1.87419e-13 3.70329e-13 0)
(2.36764e-12 5.30681e-12 0)
(1.20735e-11 -8.20866e-12 0)
(-5.07507e-13 7.17601e-12 -3.21769e-29)
(5.01398e-12 -5.86364e-14 -3.49256e-29)
(1.04637e-11 1.79177e-11 0)
(7.48163e-12 5.28418e-12 3.33626e-29)
(1.13768e-11 -1.36223e-11 7.422e-29)
(9.81381e-12 -3.59051e-14 3.02191e-29)
(-1.37272e-12 2.66293e-11 6.77395e-30)
(1.1308e-11 5.92282e-12 -3.02198e-29)
(-1.17497e-11 1.91821e-11 -5.16663e-29)
(1.18447e-11 -1.94219e-13 -6.49684e-32)
(7.57725e-12 -6.28833e-12 -1.17814e-30)
(-5.26438e-12 3.29075e-11 -3.40027e-29)
(3.94032e-12 2.17659e-11 -6.86576e-30)
(2.84446e-12 1.83144e-11 -5.78143e-29)
(1.07768e-11 6.51595e-12 0)
(-4.08862e-12 -2.81184e-14 1.46751e-29)
(-8.47968e-15 3.44065e-11 -5.83841e-30)
(-1.19719e-10 -3.39848e-11 2.3749e-29)
(8.19251e-12 -1.58787e-13 0)
(3.3159e-12 7.11334e-12 0)
(-1.56058e-12 -2.21701e-11 -4.44036e-29)
(-3.42354e-13 -6.18438e-12 0)
(-6.96186e-12 -3.01017e-11 -2.64477e-29)
(-3.39028e-12 -1.4689e-11 2.60375e-31)
(1.13554e-11 -7.24883e-12 -1.19592e-31)
(-6.43266e-13 -1.25794e-11 0)
(3.17608e-12 -1.3952e-11 -2.44085e-29)
(-1.56098e-11 2.62116e-11 -4.73891e-29)
(-1.17316e-11 -1.9123e-11 -5.27656e-29)
(-5.89364e-13 -1.10836e-11 -4.74399e-29)
(-7.31359e-11 7.09502e-12 0)
(9.13188e-12 -1.06048e-11 0)
(-2.5341e-11 -1.10819e-11 5.40686e-29)
(-3.73251e-11 -1.05584e-11 3.7412e-31)
(-5.85138e-11 -1.97505e-12 -3.29449e-31)
(1.17784e-11 -1.04822e-11 -4.09976e-29)
(7.50188e-12 -1.63536e-11 8.38244e-29)
(2.04646e-12 -1.48178e-11 3.68924e-29)
(-1.42877e-12 -1.9944e-11 8.76581e-29)
(-2.82724e-13 -1.00299e-11 0)
(4.02293e-12 -2.46304e-11 2.21131e-30)
(1.94687e-12 -2.16118e-11 -3.69937e-29)
(-5.70689e-11 7.37207e-12 1.64278e-28)
(-2.07558e-11 1.99022e-11 2.38166e-29)
(-4.25802e-11 3.11864e-12 -1.41811e-29)
(-6.55872e-11 -2.66262e-11 -2.74204e-28)
(-4.86925e-11 -1.33742e-10 3.44593e-28)
(-2.38574e-12 2.3031e-11 1.96628e-29)
(6.79215e-12 -1.58918e-11 -3.59364e-29)
(1.02316e-11 -1.80487e-11 -7.20873e-29)
(-1.59489e-12 1.93638e-11 1.90166e-29)
(-1.81625e-11 -1.71925e-12 -4.56691e-28)
(3.62335e-12 -2.85103e-11 -5.91148e-29)
(-3.09026e-13 -2.72573e-11 -4.02976e-29)
(1.25978e-11 -6.08146e-12 1.49229e-32)
(-2.27551e-13 -1.03461e-11 0)
(-8.31347e-11 -2.87896e-12 4.94279e-31)
(1.00259e-11 -2.03476e-11 -7.722e-29)
(3.53604e-12 -2.14194e-11 0)
(-2.47773e-13 -5.40666e-12 3.75797e-29)
(-3.42474e-11 -8.68364e-12 0)
(2.97217e-12 -7.74268e-13 0)
(-7.50295e-11 -7.4789e-12 -5.93315e-29)
(6.35596e-12 1.26774e-11 4.93089e-29)
(-1.39291e-13 -2.07066e-11 -1.50968e-31)
(-1.94058e-11 -1.33913e-11 2.14103e-28)
(2.06379e-12 -2.0197e-11 3.72119e-29)
(-6.22902e-11 -1.78018e-13 1.948e-29)
(1.0433e-12 -1.06884e-11 2.28861e-30)
(1.20299e-12 -7.95522e-12 -1.18918e-29)
(-8.84778e-11 -2.35429e-11 8.10825e-29)
(7.12306e-12 -8.87989e-12 0)
(-2.83407e-11 -1.73336e-11 -1.09797e-28)
(3.4262e-12 2.71917e-11 -2.78616e-29)
(-2.14013e-10 8.72681e-11 -3.98613e-29)
(7.04984e-13 7.4958e-14 -1.95969e-29)
(9.39322e-12 -1.19409e-11 7.04955e-29)
(-1.4594e-12 -2.88863e-11 -4.06338e-32)
(9.76955e-12 -1.03653e-11 -4.13176e-29)
(8.10529e-12 1.45713e-11 -4.69226e-29)
(9.85412e-13 -1.0342e-13 -3.61749e-29)
(4.54011e-12 -3.36772e-11 -1.25821e-29)
(3.56422e-12 2.68764e-11 5.80531e-29)
(4.02087e-13 -1.72947e-13 1.84659e-29)
(-1.75991e-10 -2.26109e-10 0)
(-8.08542e-12 -2.90235e-11 -1.13182e-30)
(-1.37346e-11 -2.72455e-11 1.08976e-28)
(8.08504e-12 -1.49348e-11 3.87497e-29)
(5.09466e-12 -3.17987e-12 1.81446e-29)
(6.29331e-13 -4.96841e-12 2.08396e-29)
(-2.59183e-12 -2.31451e-11 3.98331e-29)
(1.81057e-12 8.77215e-15 4.42804e-29)
(-2.90102e-12 -2.6532e-11 0)
(1.03721e-11 -1.36632e-11 -1.15078e-30)
(1.4818e-12 -2.9004e-13 -2.10034e-29)
(-6.88927e-13 -1.84221e-11 0)
(-1.63737e-12 -2.16636e-11 -4.29416e-29)
(8.36859e-12 -2.00075e-11 -3.37459e-29)
(-3.81132e-11 1.61164e-10 4.59849e-28)
(-7.22059e-14 1.99543e-15 0)
(-1.10803e-11 6.72668e-11 -2.48309e-28)
(-6.11539e-15 -6.83018e-14 -2.34982e-29)
(-1.47065e-10 2.27853e-10 0)
(6.38042e-13 4.03504e-13 -2.86444e-29)
(-2.15391e-10 -2.64818e-11 1.63741e-29)
(4.54593e-13 4.81341e-13 1.56902e-29)
(-6.35655e-11 1.57236e-10 0)
(-1.27388e-10 -1.92073e-10 8.34321e-30)
(8.29951e-14 -3.86909e-15 3.13405e-29)
(6.32098e-12 -2.25533e-12 0)
(2.73713e-12 2.26563e-11 0)
(-1.62743e-11 -4.29238e-11 0)
(3.51127e-12 7.65902e-12 3.80636e-29)
(5.03364e-13 -2.87515e-13 0)
(-1.0073e-11 -1.26931e-11 6.24062e-28)
(-2.18974e-11 1.98052e-11 -1.07686e-29)
(1.00761e-12 1.94951e-11 0)
(-4.88496e-12 6.62483e-12 4.19416e-29)
(7.02444e-12 7.1536e-13 0)
(-6.9236e-11 -4.79513e-11 1.55819e-28)
(3.35212e-12 2.17718e-11 9.78784e-29)
(-1.95117e-12 1.65091e-11 3.45838e-28)
(3.83669e-12 1.19894e-11 1.89586e-29)
(7.55993e-13 1.75073e-11 0)
(4.98876e-12 2.84721e-11 -3.94868e-30)
(3.59891e-12 2.36223e-11 0)
(1.02173e-11 2.24202e-11 -8.47047e-30)
(4.32925e-12 1.81589e-11 3.41177e-31)
(7.51911e-12 2.5115e-11 0)
(8.51676e-12 1.97914e-11 -1.58517e-29)
(4.10783e-12 2.90245e-12 -2.95611e-29)
(3.5558e-13 9.01107e-12 0)
(-3.76334e-13 9.13894e-12 0)
(-3.29868e-12 2.62319e-11 -2.01091e-29)
(-3.13023e-12 2.40486e-11 0)
(-3.59387e-13 1.0302e-11 1.6027e-29)
(-6.64414e-13 1.14338e-11 6.62505e-29)
(-2.07383e-12 2.25761e-11 -2.50325e-29)
(8.12884e-12 1.8825e-11 -4.93235e-29)
(5.026e-12 2.18646e-11 0)
(1.05488e-11 1.15989e-11 -1.13658e-28)
(1.93319e-12 2.4607e-11 0)
(-4.21279e-11 -7.82574e-12 1.40837e-28)
(-1.8074e-10 2.25405e-10 0)
(3.52219e-13 1.0142e-13 0)
(-1.49489e-10 -2.33352e-10 0)
(1.87714e-14 -1.09547e-13 -1.4652e-29)
(-2.20441e-10 -1.44934e-12 5.47913e-29)
(-1.98665e-10 -1.54221e-10 0)
(-1.37712e-11 -7.01629e-11 0)
(-3.71122e-16 6.12528e-14 2.5444e-29)
(-4.13256e-11 -1.59664e-10 0)
(-5.88034e-14 1.46217e-14 -3.3048e-29)
(-1.92323e-10 1.25539e-10 4.08885e-29)
(3.29042e-12 -2.1904e-12 2.03216e-29)
(2.62984e-12 7.01969e-13 0)
(9.31647e-12 4.56289e-12 2.79228e-29)
(3.92411e-12 1.0115e-12 0)
(-1.51331e-10 1.75455e-10 0)
(-6.99175e-12 -2.81217e-11 0)
(1.81731e-12 -1.74721e-12 1.12731e-30)
(2.02585e-12 9.34832e-13 2.57703e-29)
(-2.04241e-10 1.41974e-10 -4.05863e-29)
(2.48913e-12 -1.19319e-12 2.21588e-29)
(1.20011e-12 1.34592e-13 2.84321e-29)
(-1.04867e-10 -7.89048e-11 1.08568e-28)
(-3.12347e-12 2.33322e-13 -2.81849e-28)
(-1.13827e-10 -2.59163e-10 -2.20525e-28)
(-3.84628e-11 6.58346e-12 5.70861e-29)
(-4.84793e-13 9.972e-12 -1.25591e-28)
(3.19432e-13 1.79309e-11 4.0172e-29)
(1.29654e-13 9.34584e-12 -2.89981e-29)
(-2.56772e-11 9.45763e-11 5.86841e-28)
(7.32631e-14 2.89353e-14 3.50124e-29)
(1.02899e-11 1.81052e-11 9.10829e-30)
(2.8245e-12 2.21074e-11 8.56893e-31)
(4.38361e-12 4.70559e-12 5.86955e-29)
(7.07534e-12 1.43292e-11 5.12768e-29)
(9.72929e-14 4.09307e-12 0)
(-2.81081e-13 7.50903e-12 9.05281e-30)
(9.55822e-12 7.6705e-12 -2.92303e-29)
(-2.02038e-13 3.71665e-12 0)
(2.38796e-12 8.27967e-12 -3.84136e-29)
(-4.07525e-12 2.46074e-11 0)
(-1.63654e-13 4.8811e-12 -1.26865e-29)
(-4.64761e-13 1.74541e-11 1.48996e-30)
(1.36529e-12 2.182e-11 -2.60029e-29)
(1.17063e-11 1.10586e-11 8.34871e-29)
(3.52646e-12 1.81454e-11 -1.6197e-30)
(1.04098e-11 1.49486e-11 -3.02369e-29)
(1.67752e-12 2.0066e-11 -3.53781e-29)
(1.03918e-11 1.33447e-11 3.23473e-29)
(-6.11482e-13 2.70487e-11 2.20989e-29)
(4.30997e-12 3.2691e-11 0)
(-2.18079e-10 -8.86243e-11 -3.26358e-29)
(2.77409e-12 3.56631e-11 2.89471e-29)
(7.61129e-12 4.35868e-12 0)
(-2.12985e-12 2.79785e-11 -4.42737e-29)
(2.32237e-12 2.1128e-11 0)
(1.39554e-12 2.20259e-11 3.84502e-29)
(2.45733e-13 -3.25591e-13 -1.82721e-29)
(1.26275e-12 -7.19241e-13 -1.02501e-30)
(9.1766e-13 -9.01972e-13 -1.47558e-30)
(-3.81667e-14 -3.2883e-14 3.27246e-29)
(-1.93487e-11 -8.32533e-11 0)
(-7.89146e-11 -2.07876e-10 6.07736e-29)
(6.36774e-12 6.13694e-12 -7.38451e-29)
)
;

boundaryField
{
    back
    {
        type            empty;
    }
    front
    {
        type            empty;
    }
    left
    {
        type            noSlip;
    }
    top
    {
        type            uniformFixedValue;
        uniformValue    
        {
            type            scale;
            scale           
            {
                type            squarePulse;
                start           0.3;
                duration        0.3;
            }
            xScale          
            {
                type            constant;
                value           1;
            }
            value           
            {
                type            constant;
                value           (0 -0.7 0);
            }
        }
        value           uniform (0 -0 0);
    }
    right
    {
        type            noSlip;
    }
    bottom
    {
        type            zeroGradient;
    }
}


// ************************************************************************* //
