/*--------------------------------*- C++ -*----------------------------------*\
  =========                 |
  \\      /  F ield         | OpenFOAM: The Open Source CFD Toolbox
   \\    /   O peration     | Website:  https://openfoam.org
    \\  /    A nd           | Version:  9
     \\/     M anipulation  |
\*---------------------------------------------------------------------------*/
FoamFile
{
    format      ascii;
    class       surfaceScalarField;
    location    "2.68";
    object      phi;
}
// * * * * * * * * * * * * * * * * * * * * * * * * * * * * * * * * * * * * * //

dimensions      [0 3 -1 0 0 0 0];

internalField   nonuniform List<scalar> 
2420
(
8.85945e-07
-8.09813e-07
-7.6132e-08
-6.19691e-09
6.19691e-09
3.05572e-07
-8.01165e-08
-2.25456e-07
9.88112e-08
-9.88112e-08
-5.14186e-07
2.02625e-07
3.11561e-07
1.37695e-07
-1.54478e-07
1.67828e-08
2.60746e-07
4.48266e-08
-7.4946e-07
6.31879e-08
6.86272e-07
1.4741e-06
-1.70772e-06
2.33619e-07
-4.05488e-07
-1.08697e-07
-5.30209e-07
6.85435e-08
4.61665e-07
-5.34529e-07
4.32085e-09
-7.4946e-07
-9.67715e-08
-1.22147e-08
1.08986e-07
-1.03073e-07
-1.10573e-07
2.13646e-07
-3.1688e-07
3.08282e-07
8.59829e-09
4.24415e-07
5.62807e-08
-4.80695e-07
3.60662e-07
-6.84486e-07
3.23824e-07
-4.10167e-08
1.99219e-08
2.10948e-08
-1.09529e-07
1.27576e-08
1.33354e-07
2.48566e-07
-3.81919e-07
-5.60473e-08
-4.62588e-07
6.47408e-07
-1.84821e-07
-5.88779e-07
1.26192e-07
4.39644e-07
4.46301e-07
6.59216e-08
3.58493e-07
1.14869e-08
-3.28367e-07
-5.53914e-07
-1.01199e-06
1.5659e-06
-1.24006e-06
6.86141e-07
2.07288e-07
-1.08566e-07
-9.87223e-08
-6.44899e-07
-2.21711e-07
8.6661e-07
-1.01893e-07
2.44619e-07
-1.42726e-07
-4.64934e-07
4.21221e-07
4.37134e-08
-2.90329e-07
2.45246e-07
4.50833e-08
-3.23466e-07
6.84127e-07
-1.94949e-07
-9.53803e-08
4.68245e-08
9.08704e-08
7.72948e-08
-8.34917e-08
-6.64433e-08
-3.98491e-07
-7.83617e-08
8.45586e-08
2.79538e-07
-1.46184e-07
5.54299e-07
6.0901e-08
-6.152e-07
3.0527e-07
-3.71713e-07
1.80864e-08
-3.65236e-08
1.84372e-08
1.08016e-07
-1.00345e-08
-9.79813e-08
6.96602e-08
2.9151e-08
-9.63591e-08
-2.45211e-09
1.19794e-07
-1.17781e-08
-1.75118e-07
3.04168e-07
-1.2905e-07
-7.56608e-08
3.80931e-07
-8.19878e-08
-7.24898e-08
-1.82009e-07
-5.16122e-07
4.13049e-07
-1.04465e-06
-6.63075e-07
2.27556e-07
9.15383e-08
-3.19094e-07
1.68367e-07
-1.79334e-07
1.09672e-08
-5.65929e-08
-1.05797e-07
1.6239e-07
2.31177e-07
-1.62633e-07
-1.37804e-07
2.29601e-08
1.14844e-07
5.25364e-07
-3.56998e-07
7.13983e-08
-7.16297e-07
6.06362e-08
-7.29938e-08
1.23576e-08
-7.51458e-07
-5.83555e-08
-9.64145e-07
1.02733e-06
4.51922e-08
-2.32452e-08
-2.1947e-08
-4.55151e-07
2.3344e-07
-1.47204e-07
1.54699e-07
-7.49446e-09
-2.55436e-07
1.47397e-07
1.08038e-07
3.08212e-07
-6.31677e-07
-3.44802e-08
-2.4259e-08
-1.94405e-07
3.25243e-07
-2.66391e-07
-5.88518e-08
2.8287e-08
-1.3886e-07
4.41864e-07
8.47606e-08
-5.26625e-07
-1.19168e-07
2.57184e-08
9.34499e-08
-1.18461e-06
-5.54412e-08
-2.634e-07
5.71611e-07
2.22945e-07
4.18445e-08
1.65444e-07
7.88332e-08
-3.3641e-08
-1.09234e-07
-9.93375e-09
3.67207e-07
-1.39651e-07
-4.49542e-08
6.30406e-08
7.22927e-08
2.24547e-07
-2.96839e-07
1.40773e-07
-2.1826e-07
7.7487e-08
5.53471e-07
-1.11607e-07
2.58659e-07
6.6584e-08
7.7844e-07
-1.38247e-07
-6.40193e-07
-3.51887e-07
1.02702e-07
2.49185e-07
-2.65033e-07
-8.68533e-08
-1.5176e-07
-7.3696e-08
-5.86407e-08
1.7624e-08
2.99789e-08
-2.05097e-07
6.86226e-08
-1.1395e-09
-6.74831e-08
-3.70965e-09
2.36316e-08
-1.63653e-07
1.6449e-08
-8.02061e-08
-5.7598e-08
1.89078e-07
5.55407e-08
-4.66011e-07
1.27571e-07
3.3844e-07
7.47161e-08
-2.26476e-07
-1.46538e-07
1.79671e-07
-3.31331e-08
1.7373e-07
1.30438e-07
-1.17497e-07
-2.90408e-08
2.65028e-07
-3.17097e-07
5.20687e-08
1.91393e-08
4.14969e-08
-1.20553e-06
2.77042e-07
9.28486e-07
-6.0064e-09
-1.02559e-07
-1.71698e-07
-2.94313e-07
3.59927e-08
-2.15327e-07
8.38953e-09
-3.38026e-07
3.29637e-07
-1.99187e-08
-5.14611e-07
2.26596e-07
-1.90603e-07
3.34297e-07
-2.62004e-07
1.12328e-06
-1.85801e-07
-9.37483e-07
-1.2426e-07
-9.92697e-07
-2.12831e-07
9.26204e-08
5.75463e-08
7.20893e-07
2.45739e-07
1.92898e-08
2.71346e-07
-4.47509e-08
1.59765e-08
-6.4878e-07
6.32804e-07
-4.32829e-08
-6.28187e-07
6.7147e-07
-6.43896e-08
-3.24624e-07
3.89014e-07
-1.29249e-07
-3.44048e-08
-9.20296e-07
2.2972e-07
6.90576e-07
-3.30832e-07
2.55171e-07
1.7042e-08
5.15806e-08
3.88286e-08
2.69453e-07
1.61682e-07
-3.74865e-07
2.13183e-07
3.65648e-07
-1.5212e-07
-2.13528e-07
-3.34598e-07
3.42988e-07
-1.20629e-06
2.42148e-07
-5.96989e-07
-3.23307e-07
-1.99535e-08
1.99535e-08
-1.94079e-07
-1.70422e-07
3.645e-07
-3.73316e-07
-1.726e-07
5.45916e-07
-5.16122e-07
-1.05797e-07
7.09121e-08
8.37868e-08
5.25364e-07
1.73876e-07
-1.6239e-07
-1.73876e-07
7.59794e-08
9.78971e-08
3.0276e-09
4.77475e-07
-4.80503e-07
4.43004e-08
4.80695e-07
-5.24996e-07
-4.77475e-07
4.93452e-07
-2.9365e-07
4.80503e-07
-1.86853e-07
-8.56511e-08
3.56998e-07
-2.72504e-07
8.56511e-08
1.86853e-07
-6.06328e-07
6.64946e-07
-5.86182e-08
6.06328e-07
-5.34929e-07
-6.64946e-07
5.24996e-07
1.3995e-07
-4.93452e-07
5.78212e-07
-5.78212e-07
5.34929e-07
-1.01125e-07
-1.17135e-07
-3.84527e-08
-2.92379e-07
5.66421e-08
-7.98873e-08
-2.34805e-07
6.04533e-07
-3.69728e-07
1.30588e-07
-3.8664e-08
-5.28455e-07
-1.73835e-07
-8.99909e-07
1.07374e-06
-1.37223e-06
3.27584e-07
4.79719e-07
1.24814e-07
4.82747e-07
1.20248e-07
-2.00454e-07
-1.67507e-06
7.98827e-07
-9.84628e-07
5.04224e-08
1.76226e-07
-4.39625e-07
7.83908e-07
-7.27627e-07
-5.39499e-07
5.06542e-08
4.88845e-07
-4.68469e-07
1.95965e-07
-1.27513e-06
2.34176e-07
1.04095e-06
-9.98085e-07
8.73886e-08
2.7826e-07
-1.37746e-07
3.13972e-07
-3.29752e-09
3.85928e-07
-3.82631e-07
-8.60643e-08
-2.34649e-08
1.13669e-07
-3.33437e-07
-2.06062e-07
1.11432e-08
-9.3131e-08
-1.84111e-07
1.19721e-07
4.96885e-08
-1.10192e-07
6.05032e-08
-4.29483e-07
-9.75364e-08
5.2702e-07
-8.7764e-08
-2.14705e-08
-4.32781e-07
4.59445e-07
2.52007e-08
-4.84645e-07
-4.98673e-07
1.65237e-07
3.93184e-08
-4.93529e-08
-6.06623e-08
-1.23315e-08
-3.37519e-07
-8.20134e-08
4.19533e-07
-2.10102e-07
2.80926e-08
-4.28857e-07
-1.76144e-07
6.05001e-07
-2.59599e-08
1.21926e-07
-5.26393e-07
2.56859e-07
-3.95106e-07
-1.88062e-07
-3.10611e-07
-6.89475e-08
5.30829e-08
1.58646e-08
7.57309e-08
-1.44678e-07
-2.48763e-07
-2.34607e-07
4.83371e-07
-1.66244e-07
4.1481e-07
-4.0869e-07
4.18564e-07
-9.87361e-09
3.68113e-07
-4.50126e-07
-2.43704e-07
4.05386e-07
3.51425e-07
-1.06179e-07
2.50274e-07
-8.00036e-07
5.49763e-07
3.16437e-07
-5.26539e-07
-2.7244e-07
1.02855e-06
2.34298e-08
-1.09494e-07
3.0636e-08
4.02761e-08
1.66033e-07
-3.60982e-07
-9.12576e-07
7.3874e-07
4.4761e-07
3.66556e-07
-8.14165e-07
2.33093e-07
-4.21155e-07
3.20298e-08
-1.23261e-07
3.73647e-07
4.7574e-08
-6.3339e-07
4.57573e-07
1.75817e-07
-3.50434e-08
6.21083e-07
-4.05061e-07
-2.16022e-07
2.34604e-07
3.86479e-07
-3.35617e-07
-8.10344e-07
3.23773e-07
4.8657e-07
-2.13974e-07
-5.96369e-07
-3.35948e-07
3.63362e-07
-2.74142e-08
-6.21343e-07
1.33404e-07
4.87939e-07
-1.07659e-07
-5.13684e-07
3.62356e-07
2.09255e-07
4.03174e-07
1.53902e-08
-4.11599e-07
7.56512e-08
-5.81205e-07
3.67146e-07
9.66834e-10
-4.1255e-07
6.47154e-07
-1.40766e-07
1.26774e-07
1.39919e-08
1.91156e-07
3.48461e-08
1.48425e-08
3.31904e-08
-1.73956e-07
-1.38709e-08
3.38244e-08
-3.905e-07
-2.42889e-07
-1.51573e-07
2.18157e-07
9.41775e-07
-4.1461e-07
-5.27165e-07
-9.89161e-07
-3.83069e-07
1.92451e-07
6.90666e-07
-3.00177e-10
-3.62234e-08
1.32292e-08
3.14027e-08
-4.46319e-08
5.66711e-07
-6.20905e-08
4.65264e-07
-3.52427e-07
4.38074e-08
4.40521e-07
-4.84329e-07
-6.05794e-07
2.15294e-07
-2.04998e-07
6.72525e-08
3.63584e-07
-3.16009e-07
-4.93787e-07
-5.03635e-07
9.97422e-07
3.68435e-07
1.74927e-08
6.55643e-07
-2.69164e-07
-1.59983e-07
-6.63173e-08
7.95465e-08
9.8636e-07
-9.34012e-07
-5.23475e-08
3.70697e-07
-7.11337e-09
1.66634e-07
-2.05087e-07
3.93264e-07
-4.28307e-07
2.14509e-07
-3.47815e-08
-1.79727e-07
4.13049e-07
5.30054e-07
-1.67698e-07
7.41645e-08
-1.20602e-07
4.89037e-07
4.20889e-07
-2.11634e-07
1.72943e-07
3.57111e-07
5.74204e-07
3.67571e-07
-2.33038e-07
-3.72756e-07
2.16044e-07
9.72988e-08
-3.13342e-07
3.55843e-07
8.30673e-07
-1.18652e-06
-3.37969e-07
3.17196e-07
2.07733e-08
8.87918e-07
-9.1778e-07
2.98621e-08
-2.60295e-07
4.33238e-07
-4.07962e-08
-4.75326e-07
-2.07632e-07
1.66836e-07
-9.15039e-08
4.48615e-07
2.89838e-07
1.29695e-07
4.57595e-07
-3.52313e-07
-1.05282e-07
3.60823e-07
5.16429e-07
-5.4163e-07
7.19723e-08
-1.26314e-08
2.97942e-07
-2.85311e-07
7.81107e-07
-7.30453e-07
1.6889e-07
1.98256e-07
3.91145e-07
1.1267e-07
-5.03815e-07
6.86272e-07
-4.90392e-07
3.38244e-08
4.37647e-07
-3.16477e-07
-1.2117e-07
-4.06187e-07
4.51641e-07
-4.54543e-08
9.49023e-09
2.04887e-08
9.49023e-09
-5.20538e-07
3.4442e-07
1.76118e-07
3.97631e-07
2.58012e-07
-4.89121e-07
4.29761e-07
5.93594e-08
-4.06418e-07
5.98869e-07
9.2995e-08
-2.22373e-07
1.29378e-07
6.5533e-07
-2.57699e-07
-2.2438e-07
-1.45022e-07
3.69402e-07
-7.55761e-07
8.00061e-07
-1.10108e-06
6.07288e-07
4.88767e-08
2.61885e-07
1.11134e-07
5.19928e-07
1.35402e-07
-4.12296e-07
4.56103e-07
-2.02294e-07
1.89662e-07
5.14076e-08
-1.29393e-07
-3.74794e-08
-2.84471e-08
-2.9151e-08
-2.84471e-08
-4.60945e-08
-4.86622e-09
4.45387e-07
3.15338e-07
-3.47186e-07
3.18484e-08
-4.25129e-07
3.63038e-07
3.27951e-07
-4.25026e-08
4.25026e-08
3.99083e-07
1.99785e-07
-3.0456e-07
8.21871e-08
4.14905e-07
2.32249e-07
2.39353e-07
7.59847e-08
2.90829e-07
-5.91088e-07
3.21924e-07
-3.03593e-07
-4.5775e-07
-5.18141e-07
2.35308e-07
2.82833e-07
1.60594e-07
-7.60986e-07
5.47012e-07
-4.75326e-07
-1.73721e-07
5.42432e-07
5.15462e-07
3.53071e-07
1.35966e-07
4.49462e-07
-4.49462e-07
3.04711e-08
-2.65078e-07
-6.27582e-07
-4.60062e-07
4.22582e-07
8.15481e-07
-8.82057e-07
6.65764e-08
6.27605e-09
5.13652e-07
-3.55779e-07
6.08236e-07
-2.86312e-07
-1.84032e-07
3.07247e-07
-1.23215e-07
6.54989e-07
-6.11287e-07
-4.37017e-08
5.00385e-08
-6.43057e-08
-2.24745e-07
1.04023e-06
1.17964e-06
-1.64054e-07
-1.01558e-06
-1.33026e-07
1.33026e-07
2.41194e-07
-3.38818e-07
3.38818e-07
-9.32043e-08
2.40219e-07
1.42353e-07
-3.82572e-07
1.66302e-07
-1.66302e-07
-4.44671e-07
-1.86554e-07
1.86554e-07
5.23977e-07
-3.50537e-07
-1.7344e-07
2.47107e-07
-2.47107e-07
-5.46548e-08
6.6267e-07
-1.44146e-07
-5.18523e-07
8.15715e-07
3.00532e-07
6.28297e-08
-5.71801e-07
2.52989e-07
-2.80403e-07
4.3341e-07
7.46227e-07
8.109e-07
-8.63247e-07
-1.2432e-06
1.07914e-06
1.46749e-07
3.95683e-07
-1.0095e-07
5.30253e-07
7.4209e-08
2.08858e-07
6.72917e-07
-1.05422e-07
2.24261e-07
-1.9379e-07
1.8673e-07
4.7594e-07
-7.46202e-07
1.57491e-08
5.13856e-07
-2.31024e-07
3.20225e-07
2.10028e-07
7.6087e-07
-2.47218e-07
-1.21391e-06
-5.1349e-07
-3.02001e-07
8.15491e-07
3.13959e-07
-1.98496e-07
-1.15462e-07
-5.3431e-07
9.6772e-07
-8.12276e-07
-1.05504e-07
2.12781e-08
2.87877e-07
-3.09155e-07
3.84031e-07
8.1233e-08
-5.80965e-07
-1.21411e-07
3.45672e-07
7.72948e-08
4.19795e-07
-5.63941e-07
-1.40522e-07
1.40522e-07
-4.85727e-07
-3.04183e-07
7.8991e-07
-4.82559e-08
-1.19494e-06
4.41073e-07
4.78461e-07
-9.44293e-08
-5.22606e-07
5.99148e-07
-7.65419e-08
1.09701e-07
-4.06452e-07
2.98793e-07
-1.0843e-06
1.03605e-06
-4.87236e-07
8.07461e-07
2.83197e-07
-7.96687e-07
-1.02004e-06
-4.35502e-08
4.05956e-08
2.95457e-09
2.73634e-07
-6.87374e-07
-1.15946e-07
8.0332e-07
4.16067e-08
6.28236e-07
-6.69843e-07
-2.79678e-07
2.27544e-07
6.31332e-07
-6.01894e-07
8.77942e-07
-2.76048e-07
-4.34457e-07
1.67949e-07
-3.18588e-07
1.50639e-07
1.20087e-07
1.81915e-07
3.5668e-08
-2.17583e-07
-8.26789e-07
-5.54493e-07
-5.16753e-07
1.07125e-06
-7.45091e-08
3.14728e-07
6.42976e-08
4.19073e-07
-6.73049e-08
6.73049e-08
-2.16757e-07
8.15906e-07
4.2914e-08
1.18724e-06
-1.23016e-06
-1.57338e-07
3.59267e-08
1.03668e-06
-7.63046e-07
-1.24576e-06
5.08201e-08
-7.7125e-07
-7.86058e-07
4.38312e-07
3.47746e-07
9.38868e-08
-3.18754e-07
-4.67304e-07
-1.62388e-07
-8.4671e-07
2.44816e-07
-4.7512e-07
1.54496e-06
-1.06984e-06
6.32586e-07
1.86479e-07
-8.19066e-07
-1.23806e-06
2.2248e-07
-2.14124e-07
-1.05882e-06
7.97557e-07
2.61266e-07
8.7265e-07
-3.32247e-07
-5.40403e-07
-7.2465e-08
-1.1733e-06
5.59188e-07
1.24399e-07
-1.10207e-06
6.87801e-07
4.14268e-07
-1.01591e-06
-1.37734e-06
9.02224e-07
-4.10894e-07
6.94091e-07
-1.73729e-07
9.64215e-07
2.54244e-07
5.65523e-07
-8.19767e-07
9.22806e-07
-2.35005e-07
1.01484e-06
-9.20375e-08
2.93116e-07
7.41597e-09
1.30539e-07
1.40024e-06
-4.33354e-07
-9.66882e-07
7.24242e-07
2.90601e-07
1.29518e-06
-5.70935e-07
-2.991e-07
-1.02093e-06
1.32003e-06
3.51933e-07
-1.31497e-07
-2.20436e-07
1.37395e-07
-1.92179e-07
5.47847e-08
4.07771e-07
-9.56693e-08
-4.68272e-07
6.25398e-07
-3.71154e-07
-4.93742e-07
6.80221e-07
-5.25223e-07
-7.89223e-07
1.31445e-06
-1.81194e-07
1.03279e-07
3.11598e-07
-4.14878e-07
-3.64975e-07
5.58204e-08
1.2191e-08
-2.4991e-07
2.37719e-07
5.17258e-07
8.82979e-07
-5.88138e-07
2.73727e-07
3.14411e-07
5.48856e-07
1.43471e-07
-8.36587e-07
6.93116e-07
3.56296e-07
7.4254e-07
-1.09884e-06
-1.04198e-06
-6.58801e-07
3.56529e-07
3.02272e-07
-8.89e-08
7.72146e-07
-7.60756e-07
9.04227e-07
-5.92405e-07
-1.81166e-07
7.73571e-07
5.05955e-07
-2.84007e-07
-8.05981e-07
1.08999e-06
-5.92513e-07
5.03374e-07
8.91391e-08
8.76412e-07
-2.22093e-07
-6.54319e-07
1.33735e-07
-6.27477e-07
-1.02105e-06
-1.9046e-07
5.02058e-07
1.99955e-07
5.74012e-07
-7.73967e-07
9.91429e-07
-2.48889e-07
-3.37294e-07
-5.82698e-07
9.19992e-07
2.93519e-07
-2.81143e-07
-1.06846e-07
-7.29741e-07
1.23934e-06
-3.37111e-07
-3.33727e-07
1.59122e-06
-1.25749e-06
-3.75419e-07
-2.83382e-07
5.09202e-07
-2.75762e-07
-6.50516e-07
1.13724e-06
-4.86719e-07
-5.03952e-07
9.82472e-07
-4.7852e-07
8.68495e-07
-9.60533e-07
1.33783e-07
-5.40606e-07
6.14823e-08
4.79124e-07
-6.23111e-07
4.01018e-07
1.14495e-06
-1.47867e-06
1.02135e-06
-4.16329e-07
-6.05026e-07
-5.49572e-07
3.68406e-07
-3.20864e-07
-2.67274e-07
4.4222e-07
-4.4222e-07
-1.55266e-07
1.55266e-07
5.85805e-08
-5.85805e-08
8.45586e-08
2.04887e-08
-2.88315e-07
2.88315e-07
-1.78365e-07
1.78365e-07
1.08746e-07
-1.08746e-07
-1.66313e-07
-7.63511e-08
7.63511e-08
-9.63591e-08
4.11817e-07
-4.11817e-07
3.06544e-08
-3.06544e-08
4.14478e-07
-4.14478e-07
-2.12103e-07
2.12103e-07
-1.264e-06
1.33285e-06
-6.88489e-08
-1.60387e-07
1.60387e-07
-1.05763e-07
1.05763e-07
3.22401e-07
8.51906e-07
-1.17431e-06
4.55564e-07
-7.04453e-07
1.46735e-06
-2.35984e-07
1.37513e-06
-1.08161e-06
6.16019e-07
-7.22865e-07
4.89762e-07
5.7808e-07
8.4476e-08
4.47306e-07
-5.31782e-07
-1.88673e-07
-2.4719e-07
7.96953e-07
2.89928e-07
4.65234e-07
-7.55162e-07
-1.62416e-07
-1.13346e-07
-1.6203e-06
5.50452e-07
-4.68318e-07
-1.59159e-07
6.68928e-07
-1.23782e-06
6.66884e-07
-6.40167e-07
-1.78899e-07
-8.59972e-07
5.22678e-07
7.13421e-07
-9.60611e-07
-1.17399e-06
-4.46301e-07
-2.4693e-07
-2.3263e-07
2.68557e-07
-2.99251e-07
1.58688e-08
7.32716e-07
-1.67547e-07
-1.48554e-07
5.70649e-07
-3.28729e-07
7.00495e-07
-1.17225e-07
4.8563e-07
-6.09012e-07
1.40695e-07
-1.28732e-06
7.83368e-07
-7.89257e-07
1.23475e-07
6.65782e-07
8.17334e-07
-1.06322e-06
2.45884e-07
1.11134e-07
-1.40141e-06
7.55895e-07
6.45512e-07
-1.39703e-06
7.46513e-07
-1.3094e-06
7.54846e-07
5.54552e-07
8.41397e-07
-7.79914e-07
-4.12597e-07
-3.69324e-07
-1.18901e-06
7.72686e-07
-7.99326e-07
-1.07851e-06
7.86827e-07
2.91682e-07
4.23984e-07
-2.2559e-07
-1.25309e-06
-9.69226e-07
-2.05081e-07
7.59794e-08
-9.96721e-07
2.06878e-07
7.89842e-07
-4.22539e-07
1.86555e-07
-5.29523e-07
-1.7493e-07
3.60183e-07
-4.88712e-07
-4.0667e-07
-4.69986e-07
-4.72586e-07
3.76637e-07
9.59487e-08
-1.85028e-07
-2.21822e-07
-4.52149e-08
4.92521e-07
-6.18039e-07
-6.41134e-07
-5.62885e-07
-1.08855e-07
-6.80403e-07
4.84634e-07
3.31271e-07
8.9588e-07
-7.72404e-07
-4.34168e-07
-1.30747e-07
-7.58238e-08
2.06571e-07
-7.76453e-07
-3.05824e-07
-3.62008e-07
1.94461e-07
4.22094e-07
-3.01846e-07
-1.19482e-06
4.17224e-07
7.96992e-07
-7.13677e-07
-8.33147e-08
-4.38167e-08
1.86595e-08
2.47164e-07
5.91911e-07
-6.39102e-07
2.28208e-07
1.40398e-06
-7.11361e-08
-2.47972e-07
-1.26076e-07
-7.89172e-07
9.15248e-07
6.16444e-07
1.67464e-07
-2.09893e-07
-8.81992e-07
1.38795e-06
-1.3129e-06
1.09108e-06
-1.50896e-07
1.4567e-06
-1.30581e-06
1.25118e-06
1.0376e-06
-1.42509e-06
3.87482e-07
-1.9921e-07
-1.11369e-06
-9.05108e-07
7.2621e-07
-1.58877e-06
9.70733e-07
-1.32273e-07
-2.74397e-07
9.20299e-07
-7.61482e-08
-6.46717e-07
8.44818e-07
-6.11925e-07
-1.87401e-07
9.94006e-08
-1.06895e-07
-1.84543e-07
1.14874e-06
8.35311e-07
-1.26948e-06
-1.57572e-08
3.28389e-07
-3.12632e-07
-9.06786e-07
3.9391e-07
5.12875e-07
-4.86537e-07
-4.52454e-08
5.25324e-07
-6.34179e-07
-9.25666e-07
6.49618e-07
3.00015e-07
-2.54125e-07
-4.58893e-08
-8.36434e-08
4.92386e-08
-9.10165e-07
6.96042e-07
-1.72211e-07
-7.32898e-07
7.48266e-07
-8.24836e-08
6.49033e-08
8.55817e-07
-1.01549e-07
-7.54268e-07
-2.86031e-07
-4.86389e-07
4.0997e-07
-9.49551e-07
7.77341e-07
-1.59709e-07
-5.62685e-07
-4.31885e-07
8.47845e-07
-4.1596e-07
-9.48881e-07
-1.15009e-06
1.07896e-06
-1.83956e-07
-1.35615e-09
1.15858e-07
-8.29534e-07
-1.04879e-06
-1.2789e-06
3.96907e-07
-8.32223e-07
4.09334e-07
4.22889e-07
-8.70011e-07
3.8279e-07
4.87221e-07
2.83143e-07
-1.50831e-06
1.03832e-06
-9.31833e-07
7.47877e-07
-7.34578e-07
-6.57417e-08
4.42379e-07
2.90601e-07
7.92663e-07
-1.08326e-06
5.99322e-07
-4.60645e-07
-2.29559e-07
2.24485e-07
5.07354e-09
-6.46847e-07
-2.9248e-07
9.39327e-07
1.10342e-06
9.05113e-07
-2.88669e-07
8.0727e-07
-1.01716e-06
1.54493e-07
1.63296e-07
2.06107e-07
5.46283e-08
7.6005e-08
-8.88281e-07
3.47423e-07
-5.71826e-07
2.24403e-07
-2.29624e-07
7.60042e-07
-1.84037e-07
-5.76005e-07
-2.74774e-07
-7.21389e-07
8.88853e-07
-2.42477e-07
5.98796e-07
-3.5632e-07
-3.47598e-07
-1.41611e-07
-3.64184e-07
-3.26664e-07
6.90847e-07
-5.98365e-07
-2.61606e-07
5.90149e-07
-6.4825e-08
1.84836e-07
7.19391e-07
5.50198e-08
-3.67651e-07
-2.26304e-07
1.60562e-07
-3.49175e-07
-3.06336e-07
-1.11875e-06
-4.06062e-07
7.53485e-07
9.42333e-07
-2.92716e-07
-8.36964e-09
5.76082e-08
5.07665e-07
5.94736e-07
2.35648e-07
1.12883e-08
-2.46936e-07
4.13995e-07
4.91118e-07
6.84199e-08
-7.89809e-07
9.16724e-08
2.08342e-07
-4.98435e-07
-1.93225e-07
6.9166e-07
-9.39562e-07
-7.51375e-07
-7.96068e-07
-6.67742e-07
1.29447e-07
5.38295e-07
-4.60677e-07
-3.49781e-07
4.41453e-07
3.11772e-07
-3.49503e-07
3.77315e-08
-8.90846e-07
-4.14834e-07
9.27709e-07
-2.97275e-07
8.35569e-07
-5.43005e-07
-1.02246e-07
4.14018e-07
1.54881e-06
1.12591e-06
-6.12016e-07
7.03089e-07
-9.32713e-07
-9.69479e-07
1.97075e-07
-1.76817e-07
3.56629e-07
-9.51364e-07
5.36531e-07
4.67032e-07
8.20088e-07
2.32432e-07
-4.74909e-07
-2.36473e-07
-8.62051e-07
-4.07429e-07
1.09321e-07
-3.63446e-07
5.91579e-07
3.04816e-07
3.57341e-07
-6.62157e-07
-5.39389e-07
8.97367e-07
-3.57977e-07
9.07679e-07
-1.76809e-07
2.72133e-07
4.33685e-07
-6.17722e-07
4.6039e-07
-1.88258e-07
-3.31452e-07
-3.77615e-07
-4.94241e-07
8.71856e-07
-1.42494e-06
-5.11228e-07
8.94018e-07
-2.76539e-07
5.04747e-07
1.00428e-06
-4.29507e-07
-5.7477e-07
4.01558e-07
2.89289e-07
5.47078e-07
-7.47363e-07
2.00285e-07
-9.76589e-07
-1.4902e-08
9.91491e-07
-3.53604e-07
1.83783e-07
5.18642e-08
3.1099e-07
6.93288e-07
-9.17004e-07
9.3366e-07
-4.66629e-07
1.00557e-06
-8.57219e-07
4.94572e-07
-9.10532e-07
8.15373e-08
-4.91244e-07
2.14706e-07
7.39535e-07
3.50453e-07
-6.81049e-07
2.12777e-07
-1.28202e-07
1.80066e-07
4.22432e-07
9.84905e-08
3.94031e-07
-3.05011e-07
5.65119e-07
5.54995e-07
2.18577e-07
4.76912e-07
-9.4354e-07
-8.02091e-07
2.26086e-07
-7.51465e-07
2.32942e-07
4.07009e-07
5.12983e-07
7.853e-07
-2.98079e-07
3.89395e-07
-1.56962e-07
5.69935e-07
1.3056e-07
4.30803e-07
2.81855e-07
1.78535e-07
2.01137e-07
5.36041e-07
1.06256e-06
-6.31757e-07
3.74869e-08
1.86998e-07
8.41195e-07
-4.00162e-07
-4.41033e-07
-8.30774e-07
5.38688e-07
2.92085e-07
-9.01233e-07
6.6476e-07
5.52857e-07
-1.69438e-07
-4.90568e-07
-1.90481e-07
-4.33621e-07
-5.71145e-07
2.2197e-07
-1.44703e-07
-4.9549e-07
-2.94733e-07
7.27705e-07
1.31685e-07
3.53946e-07
3.55163e-07
-3.43875e-07
9.91187e-08
-8.41858e-07
1.15285e-06
-6.41834e-07
-1.60257e-07
-2.69274e-07
-1.81842e-07
5.01522e-08
-4.10493e-07
-5.83784e-07
-2.46412e-07
8.30196e-07
8.22832e-07
-7.46827e-07
6.86679e-07
6.96492e-07
-2.89178e-07
-3.07318e-07
5.96496e-07
-1.23343e-06
8.26003e-07
4.929e-07
-1.97568e-07
-2.95331e-07
7.89964e-07
3.28677e-08
8.1369e-07
-3.22572e-07
4.24366e-07
-7.12869e-07
3.5655e-07
9.58112e-07
-4.4109e-07
-2.7178e-07
-8.23676e-07
-6.00974e-07
-8.56249e-07
2.72465e-07
-4.4723e-07
6.58198e-07
-2.10968e-07
3.36094e-07
-8.10056e-08
6.68426e-07
-3.3242e-07
-1.76113e-07
5.08533e-07
-2.85451e-07
2.97642e-07
2.25982e-07
-3.49197e-07
8.04547e-07
-5.71605e-07
4.13092e-07
2.78568e-07
-4.596e-07
-4.6147e-07
-5.58134e-07
7.44865e-07
4.31518e-07
-6.23343e-07
1.7881e-07
2.62643e-07
-7.0748e-07
2.20703e-07
-1.81933e-07
6.74833e-07
8.19826e-07
-4.90362e-07
6.90316e-07
1.54499e-07
-4.8642e-07
3.3192e-07
5.28422e-07
2.16442e-07
2.11725e-07
-6.98237e-08
-1.41901e-07
5.91902e-07
1.01005e-07
5.15222e-07
-1.57882e-07
-1.60476e-07
5.61608e-07
-4.01132e-07
8.73139e-07
-3.60157e-07
-2.57261e-07
8.57205e-07
4.39519e-07
-6.02788e-07
2.30032e-07
-1.60402e-07
6.87814e-07
-1.59391e-07
5.29933e-08
-7.9982e-07
7.62418e-07
-2.01937e-07
-5.60481e-07
2.31152e-07
2.18376e-08
-5.49819e-07
7.60602e-07
-2.10783e-07
-5.2984e-07
7.19117e-07
-1.89277e-07
1.67837e-07
-3.26111e-07
-1.33488e-07
5.08169e-07
-1.09553e-07
-5.07669e-07
3.91724e-07
5.09089e-07
-8.01246e-07
-7.55885e-07
-2.856e-07
1.95483e-08
-2.66484e-07
7.00851e-07
-2.33214e-07
2.36169e-07
2.18607e-07
-5.06794e-07
-1.77818e-07
6.84611e-07
-6.43563e-09
1.11423e-07
-1.04988e-07
-7.87243e-07
-3.25243e-08
1.71348e-07
1.56369e-07
5.30311e-07
4.29626e-07
1.94721e-07
2.12599e-07
4.87057e-07
2.00756e-07
1.91935e-07
-3.89503e-07
3.71795e-07
2.62306e-08
-3.98026e-07
-1.03868e-07
4.50791e-07
-8.7753e-08
-4.75886e-07
3.20122e-07
1.98946e-07
-4.2997e-07
-3.21964e-07
-4.14814e-08
-6.3874e-07
6.91733e-07
5.48143e-08
3.72095e-07
-8.12662e-08
-5.93852e-07
7.31837e-07
-1.37985e-07
-1.54787e-07
-5.41299e-07
7.06419e-07
-1.6512e-07
-1.41864e-07
3.84796e-07
-2.42932e-07
3.49067e-07
-8.10527e-08
1.33374e-07
-2.15167e-08
-1.11857e-07
-1.43947e-07
2.25485e-07
6.41557e-07
5.51263e-07
2.09339e-07
-1.02465e-07
-6.36263e-08
1.66091e-07
5.69826e-07
-3.50674e-07
-4.86513e-07
4.3962e-07
-5.52107e-07
4.71054e-07
6.08939e-07
-1.69319e-07
4.10435e-07
-7.52634e-07
7.85502e-07
-6.75648e-07
3.69076e-08
1.12567e-07
-3.55095e-08
-4.51004e-07
3.98156e-07
4.91603e-08
6.82677e-07
3.03499e-07
6.10013e-08
-3.76806e-07
-4.61338e-07
2.87617e-07
2.38568e-07
1.40343e-07
1.74386e-07
-6.26487e-07
-1.17143e-07
8.21984e-08
2.3176e-07
-4.34212e-08
6.01607e-07
-2.0345e-07
3.09092e-08
2.15774e-07
-7.54316e-08
2.65527e-07
-2.34618e-07
-7.29227e-07
-1.81093e-07
9.1032e-07
-1.2401e-06
9.94304e-09
2.47535e-07
-7.41709e-07
-1.46572e-07
1.07849e-07
1.07925e-07
-4.32013e-07
1.12271e-07
3.19742e-07
-8.58852e-07
-6.13879e-08
-8.40745e-08
1.45462e-07
2.248e-07
2.30018e-07
-5.07839e-07
6.01343e-07
-9.35032e-08
-9.84147e-08
-2.84216e-07
-3.60172e-07
3.73332e-07
-3.29401e-07
3.0779e-07
-1.67456e-07
3.76314e-07
-2.8005e-07
2.73614e-07
1.7718e-07
-1.70411e-07
3.44141e-07
-1.20606e-07
-2.0682e-08
1.41288e-07
-9.73394e-07
1.13484e-06
-1.61444e-07
3.76121e-07
-1.13478e-07
-3.90578e-07
8.63326e-08
-3.56362e-07
-8.75799e-07
2.45483e-07
-4.5889e-07
-1.87816e-07
6.72104e-08
-4.13694e-07
5.35222e-08
2.02913e-07
-2.691e-07
6.61864e-08
-1.32539e-07
8.05111e-07
-5.75079e-07
-2.53819e-07
1.25002e-06
-9.22438e-07
8.32939e-08
-1.9066e-07
2.30082e-07
2.41385e-07
2.21334e-07
1.36726e-07
-7.72941e-09
2.07971e-07
1.06364e-08
-7.70718e-07
7.88188e-07
-2.14176e-07
6.24019e-07
-7.32461e-08
-8.97774e-07
9.7102e-07
-2.0122e-07
8.00132e-07
-5.98912e-07
8.39312e-07
2.57771e-07
-6.8109e-08
7.76063e-07
-4.85211e-07
7.15167e-08
-1.50335e-07
-1.01302e-06
1.16335e-06
4.12251e-07
-8.03305e-08
-3.63508e-07
1.96051e-07
1.97032e-07
-8.24223e-07
6.86237e-07
7.00261e-07
1.39052e-07
9.79731e-07
-1.08068e-06
-3.26049e-07
-1.59162e-07
8.76077e-07
3.18197e-07
-1.12091e-07
2.07857e-07
3.93141e-07
1.72037e-07
2.73829e-07
4.51061e-08
4.92293e-07
-1.8665e-07
-3.05643e-07
-2.00984e-07
-6.74815e-07
1.76324e-08
-1.59497e-07
8.4743e-07
-6.38091e-07
7.54654e-07
-2.47266e-07
-5.07388e-07
4.76629e-07
2.93227e-07
-7.76613e-08
1.43e-07
-6.53386e-08
6.43783e-08
3.52626e-07
-8.02831e-07
9.12532e-07
8.90598e-08
-1.94048e-07
2.30832e-07
4.63259e-07
-9.29889e-07
9.45638e-07
8.04816e-07
-1.02156e-06
6.10238e-08
-6.35012e-07
-1.89211e-07
-1.41985e-07
5.83458e-07
-1.76505e-07
-1.31355e-07
3.0786e-07
2.31346e-07
6.14703e-07
-8.15923e-07
-2.64223e-07
-1.33802e-07
-1.73569e-08
-9.44668e-07
-2.70402e-07
-1.08655e-06
1.35042e-07
-1.13313e-06
3.35622e-08
-7.74193e-07
2.13711e-07
5.40866e-07
-1.09542e-06
-1.72615e-07
1.69983e-07
1.73484e-07
-1.85532e-07
-1.47038e-07
2.3337e-07
-9.43868e-07
-2.1417e-09
-1.15813e-07
6.11586e-08
2.4738e-07
5.82816e-07
4.14739e-07
3.66206e-07
1.06692e-07
5.43686e-07
1.81346e-07
2.67224e-07
5.48267e-07
1.4854e-07
2.07299e-07
4.68789e-07
-1.1143e-06
-1.29669e-07
-9.06814e-08
4.82405e-07
-1.14391e-07
-8.27302e-07
-5.73436e-07
2.46587e-09
-1.33821e-07
1.43208e-07
1.23459e-07
1.94967e-07
1.485e-07
2.13542e-07
7.24892e-08
3.29773e-07
5.12314e-07
-7.58198e-07
-4.863e-08
4.81326e-09
6.02212e-07
-8.16388e-07
2.25823e-07
-7.99259e-07
1.67851e-07
1.74554e-07
1.0199e-06
1.06147e-07
6.66525e-08
-5.73466e-07
8.20846e-07
2.45646e-07
-4.17154e-07
4.22432e-07
2.089e-07
-1.06558e-06
1.07371e-07
9.58205e-07
6.59216e-08
8.8082e-08
-5.90565e-07
1.79453e-07
-7.20755e-07
-2.66079e-08
-2.95302e-08
1.00254e-06
-5.75106e-07
4.15945e-07
6.19464e-07
5.6458e-08
3.0155e-08
1.09364e-07
7.30483e-07
-8.20732e-07
8.25214e-07
-8.2657e-07
3.09388e-07
-1.24746e-09
-9.13381e-07
-3.85446e-07
-3.64014e-07
7.60437e-07
-7.75339e-07
8.22994e-08
9.05006e-08
-7.44383e-07
9.75306e-09
5.9159e-07
-5.29265e-07
4.85563e-07
5.658e-08
-7.77335e-07
8.64049e-08
1.04843e-06
9.01986e-08
5.06143e-07
-2.30281e-07
3.13191e-07
-1.17708e-07
-8.5503e-07
-3.05454e-07
2.28871e-07
2.16996e-07
4.78859e-07
3.54588e-09
-4.00248e-07
-2.23095e-07
-1.8321e-07
5.80383e-07
3.80905e-07
5.59666e-07
4.77612e-07
-7.7749e-07
3.38122e-07
-9.95771e-07
-1.72476e-08
-5.05959e-07
1.04826e-07
2.29606e-07
2.55381e-07
3.04285e-07
9.94074e-08
-6.78708e-09
-1.1537e-06
3.98957e-07
-4.86431e-08
-8.38885e-07
9.38934e-07
1.17063e-06
1.30884e-07
7.40944e-07
1.17094e-06
-2.35334e-07
1.01479e-06
7.7379e-07
5.7989e-08
-1.06632e-07
2.93869e-07
-1.45315e-07
-1.02657e-07
-5.0561e-07
1.56297e-07
1.03367e-08
4.58953e-07
-2.27409e-08
-1.51881e-07
-1.20559e-07
-5.30572e-08
-1.32024e-07
-5.20868e-08
1.98766e-07
-1.68507e-08
7.0442e-07
-2.85369e-07
1.31314e-06
-6.27002e-07
1.63475e-07
5.53515e-08
1.1074e-07
-8.41247e-07
7.852e-07
-1.34637e-07
5.65299e-08
7.81074e-08
4.91586e-07
-1.67762e-07
-1.65956e-07
-3.3845e-07
-2.32326e-07
3.4845e-07
-9.08435e-08
-1.58537e-07
3.41764e-07
-1.63229e-07
4.84825e-07
-2.822e-07
1.11509e-07
-1.26943e-06
6.57417e-07
3.32319e-07
-2.07582e-08
1.17788e-07
4.33951e-07
2.13457e-07
-2.79552e-07
-1.88918e-07
1.47235e-07
-1.59719e-07
2.79483e-07
-1.19764e-07
6.82443e-07
3.82951e-09
1.50357e-07
7.24657e-07
7.4547e-08
1.17711e-06
-7.80198e-07
5.76058e-07
7.37085e-07
-4.28493e-07
-7.52923e-07
-4.73228e-07
4.34623e-08
3.24189e-07
6.82443e-07
1.02338e-07
-2.0796e-07
-2.26454e-07
-1.65051e-07
1.2357e-07
4.45385e-07
-3.62091e-07
-1.76746e-07
-7.14154e-07
1.2607e-07
-1.73238e-08
-1.44507e-07
-1.58798e-08
-3.56068e-07
6.77531e-08
6.39935e-08
-5.41308e-09
-4.74372e-08
-2.17029e-07
2.68396e-07
-8.76513e-08
-6.39935e-08
4.74372e-08
8.76513e-08
-1.13001e-08
4.322e-07
-1.77224e-08
2.17029e-07
-2.68396e-07
1.2607e-07
-1.44507e-07
-3.56068e-07
4.322e-07
3.77457e-07
3.65608e-08
-1.95654e-07
3.93382e-07
3.51789e-07
-2.12627e-07
2.12627e-07
-1.95654e-07
-3.60419e-07
-4.28904e-07
2.2039e-07
4.18814e-07
-2.01819e-07
7.17375e-07
2.62329e-07
-4.52932e-07
4.30654e-07
1.15659e-08
-4.30654e-07
1.61759e-08
-9.75806e-07
-6.99259e-07
6.49212e-08
-1.05545e-07
8.24645e-09
-1.42884e-07
4.04504e-07
-3.12118e-08
7.52105e-07
8.37073e-08
-1.35888e-06
-2.01381e-07
-4.62365e-07
1.45888e-07
8.27126e-07
3.28082e-08
-7.69862e-07
1.69391e-08
-5.65013e-07
1.75111e-07
1.33441e-07
-2.9745e-08
-1.72119e-07
1.2063e-07
-1.16782e-07
-3.84739e-09
5.48758e-07
-1.14807e-07
5.32099e-08
-5.32099e-08
-3.17924e-07
-1.14692e-07
-6.52075e-07
4.74811e-08
-8.64218e-07
8.75784e-07
2.64547e-09
1.17984e-07
6.00681e-07
-4.59929e-07
1.07616e-07
-7.6918e-07
8.52711e-07
2.58783e-08
2.92938e-07
-2.87255e-07
2.20276e-07
-5.5726e-07
-8.91361e-08
-1.7496e-08
2.6153e-07
7.24338e-08
8.15043e-08
-1.37043e-07
4.79072e-08
-1.1395e-09
-3.30179e-07
-6.40163e-08
7.54592e-07
-3.15006e-07
1.54524e-07
-1.54524e-07
-3.80606e-07
-6.16141e-08
3.80606e-07
4.35935e-08
-1.7662e-07
1.7662e-07
2.39818e-07
3.3789e-08
1.4556e-07
4.57369e-09
-1.95234e-07
-3.7835e-07
-1.30492e-07
1.32958e-07
-1.1345e-07
6.17328e-08
-3.8098e-07
-8.03635e-07
-1.27132e-07
3.89461e-07
2.85674e-08
4.19688e-07
-3.81956e-07
-2.59599e-08
-1.43879e-07
4.09202e-07
-4.09202e-07
4.02411e-07
1.45232e-07
-2.17625e-07
-5.14979e-07
5.48856e-08
6.75631e-08
-1.22449e-07
2.25451e-07
9.45738e-09
8.1413e-08
-1.22787e-07
-2.11971e-08
2.50937e-07
3.59067e-08
-1.48139e-07
-9.68495e-08
-3.69715e-08
-3.48643e-08
3.48643e-08
1.46475e-07
1.33008e-07
3.85446e-07
-1.81884e-07
4.12592e-08
1.40625e-07
-9.80969e-08
2.70024e-08
-9.21373e-08
-8.15043e-08
9.6864e-08
9.21373e-08
-1.38987e-07
5.53656e-08
8.36215e-08
-1.10661e-07
-8.54932e-09
-1.66762e-07
-6.74831e-08
-1.30072e-06
7.85156e-07
5.15559e-07
-2.9745e-08
-2.24011e-07
-1.19764e-07
2.24011e-07
9.00681e-08
1.17068e-08
-1.29415e-07
-1.19394e-08
-5.04543e-08
1.19394e-08
5.04543e-08
-1.14006e-07
1.14006e-07
6.9898e-08
-1.54958e-07
-4.20578e-07
-1.94622e-07
-2.93333e-07
-5.70886e-07
6.71529e-08
8.81126e-08
-8.81126e-08
-6.27002e-07
5.11525e-09
2.11971e-08
-1.30292e-07
4.13631e-08
-1.45232e-07
-8.58346e-07
-1.33961e-07
9.39828e-09
1.45402e-07
6.46959e-07
1.70194e-07
-9.50392e-07
-3.24302e-07
1.3342e-08
1.4556e-07
-1.35077e-07
3.38585e-08
6.9408e-09
7.56553e-08
-4.80021e-08