/*--------------------------------*- C++ -*----------------------------------*\
  =========                 |
  \\      /  F ield         | OpenFOAM: The Open Source CFD Toolbox
   \\    /   O peration     | Website:  https://openfoam.org
    \\  /    A nd           | Version:  9
     \\/     M anipulation  |
\*---------------------------------------------------------------------------*/
FoamFile
{
    format      ascii;
    class       surfaceScalarField;
    location    "1.09";
    object      phi;
}
// * * * * * * * * * * * * * * * * * * * * * * * * * * * * * * * * * * * * * //

dimensions      [0 3 -1 0 0 0 0];

internalField   nonuniform List<scalar> 
2420
(
8.10293e-07
-7.4478e-07
-6.5513e-08
-1.03448e-06
1.03448e-06
-1.54089e-06
4.59925e-07
1.08096e-06
-1.08583e-06
1.08583e-06
-9.42903e-07
3.10575e-07
6.32328e-07
1.14727e-06
-1.0412e-06
-1.06068e-07
-1.15228e-06
-3.88606e-07
-1.34839e-06
2.54431e-07
1.09396e-06
1.50366e-06
-2.16239e-06
6.58732e-07
-6.36275e-07
-3.06628e-07
-1.07804e-06
5.16539e-07
5.61505e-07
-6.22984e-07
-4.55059e-07
-1.34839e-06
-3.94056e-07
-4.86148e-07
8.80204e-07
-6.12137e-07
-1.75641e-06
2.36855e-06
-1.01051e-06
1.82071e-06
-8.102e-07
-2.1841e-06
7.66326e-07
1.41778e-06
-1.38585e-06
1.24258e-06
1.43269e-07
-1.39906e-06
1.44588e-06
-4.68205e-08
-6.46498e-07
2.52443e-07
3.7827e-07
1.00297e-06
-1.38124e-06
-3.0918e-07
-1.03777e-06
1.34896e-06
-3.1119e-07
-1.332e-06
2.94231e-07
3.1037e-07
4.99923e-07
-1.22875e-06
-9.55357e-07
4.66507e-07
-1.47701e-06
-8.24718e-07
-1.05333e-06
1.87805e-06
-1.64863e-06
8.23913e-07
1.01315e-06
-3.46427e-07
-6.66723e-07
1.45808e-06
4.68515e-07
-1.92659e-06
-1.44301e-06
8.59062e-07
5.83948e-07
-2.0477e-06
2.08764e-06
-3.99391e-08
9.41519e-07
-7.93326e-07
-1.48193e-07
-1.14293e-07
-1.27155e-06
5.04836e-07
4.36683e-07
4.64415e-07
6.8285e-07
-7.48451e-07
-2.86026e-07
-1.05406e-07
-1.94229e-06
2.83438e-07
7.51039e-07
1.1234e-06
-7.45134e-07
1.21133e-06
4.53895e-08
-1.25672e-06
1.67053e-06
-1.77594e-06
-1.41171e-06
1.42048e-06
-8.76476e-09
-8.0833e-07
1.06495e-06
-2.56615e-07
-3.24602e-07
-7.61226e-07
6.61299e-07
4.24529e-07
-1.03429e-06
2.25959e-07
-8.18712e-07
8.38022e-07
-1.93098e-08
-1.39498e-07
1.81003e-06
-1.02195e-06
-1.92526e-08
-9.83086e-07
-2.08568e-06
1.47354e-06
-1.03683e-06
-1.12556e-06
1.40787e-06
-5.29076e-07
-8.78797e-07
3.73924e-07
-1.83377e-06
1.45985e-06
-2.46398e-07
-7.3328e-07
9.79678e-07
6.993e-07
-1.82761e-07
-8.61851e-07
1.23406e-06
-3.72209e-07
2.31234e-06
-1.93842e-06
-1.39562e-07
1.59764e-06
1.31731e-06
-1.25931e-06
-5.79966e-08
-6.38066e-07
-1.06714e-07
-1.32872e-06
1.58315e-06
-1.64542e-06
1.12978e-06
5.1564e-07
1.7729e-06
-1.30439e-06
1.34671e-06
-1.62531e-06
2.78604e-07
-5.55154e-07
8.56552e-07
-3.01398e-07
-1.41304e-06
1.29875e-06
-1.20667e-07
1.44146e-07
6.20622e-07
1.29817e-06
-1.19082e-06
-1.0735e-07
4.75162e-08
-1.80393e-06
-2.97314e-07
-3.5948e-07
6.56794e-07
9.60528e-07
-8.3535e-08
-8.76993e-07
-1.51614e-06
-1.32487e-07
1.08241e-07
-1.52128e-06
8.77006e-07
9.27671e-08
9.20383e-07
-9.22178e-07
-7.23239e-07
9.52556e-07
7.97224e-09
8.83571e-07
5.24301e-07
-4.0584e-07
-1.00587e-06
2.25592e-07
1.09805e-06
-1.32364e-06
-1.71861e-06
2.30086e-06
-5.82246e-07
-7.70584e-07
4.7327e-07
1.12324e-06
1.74927e-07
9.84923e-07
-4.39174e-07
-5.45748e-07
8.57171e-07
1.14321e-06
-2.00038e-06
1.89431e-06
-1.03714e-06
1.13149e-07
9.67814e-07
-3.54866e-07
-1.04419e-06
-2.61055e-09
-8.16102e-07
-7.18269e-08
-5.07277e-07
5.79104e-07
3.9654e-07
1.04934e-06
1.44066e-06
-9.39515e-08
-1.05545e-06
1.93602e-07
1.22133e-06
-3.6227e-07
-2.21155e-06
7.83221e-07
1.42833e-06
-5.85426e-07
6.98575e-07
1.12878e-06
-1.32868e-06
1.99903e-07
5.74832e-07
2.6319e-07
1.21461e-06
-8.58312e-08
-1.23801e-06
5.39051e-07
6.98957e-07
4.46679e-07
8.7063e-07
-1.87326e-06
7.59078e-07
1.11418e-06
1.86586e-07
-5.33013e-07
-8.81154e-07
-1.3304e-06
-2.1283e-06
2.94527e-07
-5.73919e-08
-1.58635e-06
1.64374e-06
1.1271e-07
-7.35695e-07
-1.13311e-06
-9.9519e-07
1.43953e-06
-1.21394e-06
1.76842e-06
-5.47272e-07
-1.22115e-06
1.75699e-07
-1.26195e-06
-6.11314e-07
9.09457e-07
3.54923e-07
6.29999e-07
-4.6224e-07
-7.75769e-07
6.293e-07
-1.76241e-06
-1.22538e-07
6.74695e-07
-5.52158e-07
-1.46976e-07
1.35601e-06
-1.20903e-06
-4.27404e-08
-1.43564e-06
1.47838e-06
1.07507e-06
3.65586e-07
-1.75289e-06
6.05716e-07
1.14717e-06
-1.5093e-06
1.36981e-06
6.73944e-07
-7.45771e-07
1.17374e-06
6.46973e-07
7.12752e-07
-1.78001e-06
1.06726e-06
8.77397e-07
-2.49007e-08
-8.52497e-07
-1.63853e-06
1.58114e-06
-1.9636e-06
6.34882e-07
-9.75575e-07
-7.7731e-07
-3.83104e-07
3.83104e-07
-1.00434e-06
2.99582e-07
7.04757e-07
-6.85071e-07
-3.20155e-07
1.00523e-06
-2.08568e-06
-7.3328e-07
-1.0532e-06
-5.72113e-07
2.31234e-06
1.44618e-06
-9.79678e-07
-1.44618e-06
1.29338e-06
1.52807e-07
-1.42743e-07
-4.86694e-07
6.29437e-07
2.57436e-07
-1.41778e-06
1.16034e-06
4.86694e-07
-6.09232e-07
-1.3303e-07
-6.29437e-07
7.62467e-07
-1.30912e-06
1.93842e-06
-5.4665e-07
1.30912e-06
-7.62467e-07
1.25525e-06
-1.31942e-06
6.41655e-08
-1.25525e-06
1.11569e-06
1.31942e-06
-1.16034e-06
-1.59074e-07
6.09232e-07
-9.68712e-07
9.68712e-07
-1.11569e-06
1.40011e-06
9.00755e-07
-7.05299e-08
-1.43878e-06
-2.7806e-07
1.40784e-06
9.13213e-07
-8.90982e-07
-2.22304e-08
5.06472e-07
2.92434e-07
7.80183e-07
-4.57354e-07
-6.34517e-07
1.09187e-06
-1.88692e-06
8.50089e-07
-3.76122e-07
-5.14861e-07
-5.18865e-07
-3.53837e-07
-7.01615e-07
-2.17889e-06
1.12986e-06
-1.67713e-06
-2.53612e-07
-1.42612e-06
1.53436e-06
-1.18628e-06
1.95261e-06
-1.01778e-06
-4.65715e-07
1.4835e-06
4.69243e-07
-1.01589e-06
-1.87815e-06
7.38561e-07
1.13959e-06
-1.11907e-06
4.00903e-09
8.73388e-07
1.5319e-07
-1.57931e-06
1.82894e-07
1.48898e-06
-1.67187e-06
-6.0419e-07
-4.23079e-08
2.60305e-06
-1.331e-06
3.13214e-07
-1.01642e-08
-1.01178e-06
-1.26452e-06
1.22178e-06
-7.74546e-07
-6.75588e-08
8.42105e-07
-1.8658e-06
7.3451e-08
1.79235e-06
8.79684e-07
7.28719e-08
-1.68291e-06
-1.52844e-07
-1.20211e-06
1.35495e-06
-1.12875e-06
-2.02248e-07
7.06116e-07
3.58829e-07
-3.00742e-07
-9.58571e-07
1.17396e-06
-1.23815e-06
6.41907e-08
7.10784e-07
-1.69387e-06
-1.88765e-06
-3.08435e-08
1.91849e-06
-1.96518e-07
1.02112e-06
-1.8142e-06
3.01903e-07
-7.41077e-07
-1.17544e-06
4.66935e-08
3.76019e-07
-1.26181e-06
8.85786e-07
-7.63144e-07
1.13916e-06
2.35067e-06
-5.99218e-07
-1.75146e-06
-5.71052e-07
1.57403e-06
-2.00807e-06
1.48501e-06
5.23059e-07
-1.10427e-06
-1.33886e-07
-1.15203e-06
1.86478e-06
-6.8869e-07
-1.04636e-07
-6.34498e-07
-1.07464e-06
1.70914e-06
1.61408e-06
-9.03293e-07
-7.209e-07
1.73557e-06
-1.86999e-08
-5.85491e-07
3.11641e-07
-1.36484e-06
-1.5583e-07
6.60666e-07
-9.69298e-07
5.11944e-07
1.71941e-06
-6.75993e-07
-1.04342e-06
7.7831e-08
-1.25327e-06
-1.54606e-07
-2.58005e-07
1.44485e-06
6.42785e-07
-1.30938e-06
1.12542e-06
1.83964e-07
-5.63214e-07
1.96406e-06
-1.86759e-06
-9.64694e-08
2.47013e-07
1.71705e-06
1.31353e-06
-1.13249e-06
1.66608e-06
-5.33594e-07
-1.62737e-06
4.94889e-07
-1.46759e-06
1.29973e-06
1.67867e-07
-1.18547e-06
1.67244e-06
-4.86969e-07
-1.7655e-06
5.8003e-07
-5.93236e-08
-1.46196e-06
1.9699e-06
-4.84894e-07
-1.2385e-06
-2.29097e-07
-1.89844e-06
2.75747e-07
-1.38002e-06
-1.74081e-06
1.98783e-06
-1.08223e-06
1.80938e-06
-7.27145e-07
2.02081e-06
-9.53969e-07
1.79422e-07
7.4904e-07
-1.83127e-06
-1.03134e-07
4.86238e-07
-9.79077e-07
-3.30308e-07
-8.17248e-07
9.92176e-07
-2.01266e-06
8.84156e-07
1.1285e-06
-1.0118e-06
-8.75124e-07
1.77678e-07
1.20325e-06
1.09266e-06
3.27814e-07
2.01409e-06
-1.61796e-06
-3.96132e-07
9.79579e-07
4.00111e-07
1.56979e-06
6.44775e-07
5.15666e-07
1.71447e-06
-2.23014e-06
-1.41077e-06
4.31697e-07
1.66043e-06
-1.50724e-06
1.81359e-06
-1.1708e-06
6.1685e-07
-1.39377e-06
7.76923e-07
1.56681e-06
-7.78348e-08
2.00973e-06
-2.92677e-07
-1.57929e-06
1.58238e-06
4.31712e-07
1.47937e-06
-1.28529e-06
-1.94084e-07
1.28468e-06
5.28906e-07
9.17303e-07
-9.87833e-07
1.5235e-06
-2.08671e-06
1.24236e-06
-4.76984e-07
-7.65372e-07
1.47354e-06
-1.34766e-06
1.28833e-06
-2.47853e-07
-8.55991e-08
1.65241e-06
-1.5629e-06
1.00941e-07
-1.42679e-06
7.91372e-08
-1.19297e-06
-8.19692e-07
-4.78532e-07
-9.32242e-07
-1.18873e-06
8.53374e-07
3.35351e-07
1.71343e-06
-7.04548e-07
-1.00888e-06
1.67605e-07
1.04643e-06
-1.21404e-06
1.22119e-06
-1.32947e-06
1.08278e-07
7.07696e-08
-1.49756e-06
-1.3414e-07
-1.95154e-06
-2.1171e-06
1.98296e-06
1.31921e-06
-1.24007e-06
1.16735e-06
-1.10316e-06
2.17561e-06
-1.45787e-06
-7.17736e-07
1.80774e-06
1.67794e-08
1.18533e-06
2.47042e-07
4.84503e-07
1.04755e-06
-1.53205e-06
9.96774e-07
-1.46249e-06
-1.03633e-06
1.31208e-06
1.93681e-06
-2.21001e-07
-1.71581e-06
1.09396e-06
6.22658e-07
4.86238e-07
1.96922e-06
-1.36356e-06
-6.05659e-07
-1.57028e-06
2.14418e-06
-5.73901e-07
-6.14267e-07
6.11657e-07
-6.14267e-07
-1.76924e-06
1.81258e-06
-4.33477e-08
1.549e-06
4.60731e-07
-1.75237e-06
2.0482e-06
-2.95822e-07
-1.70675e-06
1.88443e-06
1.42737e-06
-3.15834e-07
-1.11153e-06
2.02257e-06
-4.73578e-07
-4.50046e-08
1.45795e-06
-1.41294e-06
1.65356e-06
-1.39612e-06
-9.16409e-07
1.53326e-06
2.58225e-07
3.91036e-07
1.35965e-06
1.39819e-06
6.24382e-07
-1.59749e-06
2.11316e-06
-7.56208e-07
1.24071e-06
6.05332e-07
1.67579e-07
3.91806e-07
-5.67624e-07
7.61226e-07
-5.67624e-07
-6.41005e-08
-2.86315e-07
2.00079e-06
1.60769e-06
-2.12772e-06
5.20026e-07
-1.3644e-06
1.76451e-06
2.08926e-07
-5.23692e-07
5.23692e-07
1.54202e-06
3.42406e-07
1.16215e-06
-1.47798e-06
1.5722e-06
4.15629e-07
1.95767e-06
-3.49977e-07
1.57645e-06
-1.93122e-06
1.63855e-06
-2.17871e-07
-2.17139e-06
-1.8105e-06
1.38361e-07
1.67214e-06
-1.49213e-06
-1.21403e-06
-4.13343e-07
-1.95154e-06
2.08522e-09
1.82719e-06
1.81733e-06
1.43283e-06
2.19579e-07
1.04056e-06
-1.04056e-06
-2.21587e-06
1.61665e-06
4.58405e-07
-1.64394e-06
2.03574e-06
9.45647e-07
-1.60956e-06
6.63914e-07
-5.88106e-07
1.9863e-06
-1.79286e-06
1.95211e-06
-3.13563e-07
-3.8246e-07
1.46215e-06
-1.07969e-06
1.27902e-06
-2.03566e-06
7.5664e-07
3.608e-07
4.43343e-07
-7.8444e-07
1.73009e-06
9.98586e-07
-1.79525e-06
7.9666e-07
6.86297e-07
-6.86297e-07
2.38161e-06
-9.65064e-07
9.65064e-07
-1.04435e-06
1.4731e-06
2.53493e-08
-1.49845e-06
-8.16882e-07
8.16882e-07
-2.12883e-06
7.45528e-07
-7.45528e-07
1.93077e-06
-1.47853e-06
-4.52236e-07
7.915e-07
-7.915e-07
-1.49399e-06
1.65832e-06
4.62453e-07
-2.12077e-06
1.12426e-06
1.39341e-06
-9.36837e-08
-1.88933e-06
1.24719e-06
-1.07932e-06
1.77238e-06
-7.7379e-07
1.21119e-06
-1.40527e-06
-1.06436e-06
-7.30891e-07
-1.05486e-07
1.93268e-06
-6.12787e-07
1.34266e-06
9.8362e-07
-1.54257e-06
2.03293e-06
-6.00009e-07
-1.64214e-06
-5.73726e-07
-3.69191e-07
2.02751e-06
-1.09445e-06
-3.6804e-07
1.835e-06
-1.62867e-07
1.88386e-06
-5.41201e-07
1.27685e-06
7.09453e-07
-1.79624e-06
-1.46556e-06
1.0937e-07
1.35619e-06
9.76035e-07
-1.28092e-06
3.04887e-07
8.40384e-07
9.31992e-07
-9.9417e-07
-3.35296e-07
-5.6045e-07
2.29388e-06
-1.73343e-06
1.88972e-06
-3.1993e-07
-1.2967e-06
-2.28746e-06
6.45318e-07
-7.48451e-07
2.23798e-06
-1.77553e-06
-5.48035e-07
5.48035e-07
-1.81025e-06
9.04671e-07
9.05578e-07
-1.8145e-06
7.5015e-07
1.67753e-06
1.61874e-06
2.70981e-07
-1.83275e-06
8.69495e-07
9.63256e-07
-9.34445e-08
-1.13181e-06
-6.3369e-07
-1.14361e-06
-6.70898e-07
6.52501e-07
1.23136e-06
-1.41712e-09
-1.46414e-06
-9.69865e-07
2.11394e-07
-1.08614e-06
8.74742e-07
1.92935e-06
6.14276e-07
-1.78514e-06
1.17087e-06
-3.01518e-07
-1.18801e-06
1.48952e-06
6.77567e-07
1.52144e-06
1.95765e-06
-1.11301e-06
2.25215e-06
-1.13914e-06
-2.00392e-06
1.15308e-06
-1.44593e-06
2.92849e-07
1.84564e-06
3.81173e-07
1.74205e-07
-5.55378e-07
-9.2808e-07
-8.41561e-07
-9.19934e-07
1.7615e-06
-5.54051e-08
1.5285e-06
-2.36244e-06
6.10984e-07
-4.7349e-07
4.7349e-07
-9.44282e-07
1.81378e-06
1.86577e-06
-8.20765e-07
-1.045e-06
-6.22229e-07
-1.66523e-06
1.18108e-06
7.48266e-07
-1.10626e-06
1.8564e-06
-1.78584e-06
-2.13302e-06
5.25615e-07
1.6074e-06
-4.50188e-07
-1.37266e-06
-7.6036e-07
-2.19168e-06
-2.03762e-06
9.24605e-07
5.57767e-07
1.2046e-06
-1.76236e-06
1.33077e-06
4.34735e-07
-1.7655e-06
-1.03564e-06
1.8323e-06
-7.06851e-07
-9.90305e-07
-8.62435e-07
1.85274e-06
1.60253e-06
1.04968e-07
-1.7075e-06
-1.88311e-06
7.76856e-07
8.79487e-07
1.36448e-06
-9.39636e-07
1.65844e-06
-7.18801e-07
8.75462e-07
-1.17555e-06
1.73332e-06
-1.2279e-06
1.22649e-06
-4.65942e-07
-7.02031e-07
1.85331e-06
-9.2466e-07
-9.28647e-07
8.53848e-07
8.04589e-07
1.59075e-06
-7.36906e-07
1.35442e-06
3.89909e-08
1.67166e-06
1.26623e-06
4.67497e-07
-1.73372e-06
7.51922e-07
8.38832e-07
1.51434e-06
-7.62422e-07
-7.79022e-07
-9.54606e-07
1.73363e-06
8.11862e-07
1.03297e-06
-1.84484e-06
5.5304e-07
-1.20249e-06
6.49453e-07
1.98847e-06
4.78131e-07
-2.25366e-06
8.78837e-07
9.7447e-07
-1.21597e-06
1.65071e-06
-7.75213e-07
-8.72668e-07
1.64788e-06
-8.92889e-07
3.6795e-07
8.81216e-07
-1.24917e-06
-2.30551e-06
5.72077e-07
4.24801e-07
-1.69332e-06
1.26852e-06
-4.32154e-07
1.69838e-06
-1.80328e-06
1.40648e-06
3.96798e-07
1.84209e-06
5.22695e-07
-2.11802e-06
1.59532e-06
-5.73851e-07
1.69459e-06
-1.12074e-06
-1.69515e-06
1.86101e-06
-1.19118e-06
-6.69832e-07
-8.34543e-07
9.82474e-07
-1.77426e-06
2.29696e-06
-1.66291e-06
3.15453e-07
1.34745e-06
6.41677e-07
3.97095e-07
-1.70577e-06
1.30867e-06
1.64977e-06
-1.12216e-06
-5.27613e-07
1.26581e-06
4.19887e-07
-1.6857e-06
1.50314e-07
-1.36629e-06
-1.7494e-06
-6.53645e-07
1.53486e-06
-4.95457e-08
1.079e-06
-1.02946e-06
1.19065e-06
5.03942e-07
-1.28977e-06
-9.83777e-07
2.27355e-06
6.93274e-07
-1.09885e-06
-3.82304e-07
-1.73571e-06
1.23827e-06
4.95048e-07
6.82945e-07
1.10407e-06
-1.78701e-06
1.54268e-06
3.18332e-07
-1.69291e-06
3.88524e-07
4.60922e-07
1.20433e-06
-1.66526e-06
6.34211e-07
1.15387e-06
-1.78808e-06
7.09352e-07
-1.44626e-06
-1.50231e-07
-1.83055e-06
7.6476e-07
1.06579e-06
-1.17896e-06
1.59885e-06
1.75679e-06
-1.07385e-06
1.21519e-06
5.85046e-07
-1.80024e-06
-1.27096e-06
1.58642e-06
-6.41971e-07
-1.16131e-06
5.85794e-07
-5.85794e-07
7.92078e-07
-7.92078e-07
-8.79157e-07
8.79157e-07
7.51039e-07
6.11657e-07
-3.38591e-07
3.38591e-07
8.40074e-07
-8.40074e-07
-8.78004e-07
8.78004e-07
-1.07325e-06
9.21954e-07
-9.21954e-07
6.61299e-07
7.2507e-07
-7.2507e-07
-7.62925e-07
7.62925e-07
4.6921e-07
-4.6921e-07
9.87734e-07
-9.87734e-07
-9.67159e-07
1.68744e-06
-7.20282e-07
8.54448e-07
-8.54448e-07
-2.68541e-07
2.68541e-07
-6.34531e-07
1.6901e-06
-1.05557e-06
1.59838e-06
-1.09444e-06
1.12226e-06
4.5859e-07
1.57961e-06
-8.86338e-07
1.52649e-06
-1.90879e-06
9.97065e-07
-5.29127e-07
4.70234e-07
1.36102e-06
-1.83126e-06
-1.01869e-06
4.6758e-07
1.24156e-06
1.02775e-07
1.45303e-06
-1.5558e-06
1.6059e-06
-1.21737e-06
-1.1506e-06
-6.11767e-07
-1.39643e-06
3.01415e-08
1.85997e-06
-1.33664e-06
5.7422e-07
-1.51249e-06
-2.5301e-07
-2.23265e-06
9.42878e-07
1.83931e-06
-1.37173e-06
-1.77773e-06
6.27136e-07
5.6936e-07
-2.27934e-06
6.1411e-07
1.59748e-06
-1.27914e-06
1.73658e-06
4.19423e-07
3.27882e-07
1.7119e-06
5.32648e-07
1.99672e-06
2.23095e-07
1.36332e-06
-1.16799e-06
-2.28443e-07
-1.14051e-06
1.77472e-06
-1.62535e-06
-4.30004e-08
1.66835e-06
1.80036e-06
-1.09604e-06
-7.04315e-07
6.12454e-07
-1.19095e-06
1.718e-06
-5.27048e-07
-1.2337e-06
1.69463e-06
-1.25788e-06
1.77952e-06
-5.21643e-07
1.81537e-06
-1.05061e-06
3.80105e-07
-6.27291e-07
-1.31811e-06
1.90316e-06
-1.48235e-06
-1.46841e-06
1.95665e-06
-4.88237e-07
1.56353e-06
6.67832e-07
-1.74168e-06
-1.65823e-06
6.02657e-07
1.29338e-06
-1.68659e-06
-2.39678e-07
1.92627e-06
1.6666e-06
-1.20801e-06
-1.57211e-06
4.77673e-07
8.23406e-07
-1.04664e-06
3.87452e-07
6.59848e-07
1.75928e-06
-1.12849e-06
-6.30785e-07
3.95541e-07
7.19328e-07
-5.11228e-07
1.87225e-06
5.83774e-07
4.84293e-07
4.36749e-07
4.55253e-08
-1.67087e-06
1.00018e-06
8.13594e-07
1.77355e-06
-1.81655e-06
4.61407e-07
-1.37608e-06
1.99646e-07
1.17643e-06
-1.00275e-06
4.34749e-07
-1.02778e-06
1.4472e-06
9.22312e-07
-1.27615e-06
-9.90396e-07
-6.73664e-07
8.53196e-07
-1.41614e-06
5.62943e-07
-9.82736e-07
-8.80266e-07
1.39998e-06
1.45585e-06
-1.30584e-06
7.79349e-08
1.02517e-06
6.62274e-07
-1.15298e-06
-2.31313e-07
-1.89895e-06
2.13026e-06
-1.98058e-06
7.94292e-07
2.70055e-07
-7.83638e-07
1.42531e-06
-1.07886e-06
1.79819e-06
7.16516e-07
1.05989e-06
-1.77641e-06
1.01335e-06
8.10156e-07
-1.47885e-06
6.68695e-07
7.2712e-07
-1.80598e-06
-1.86639e-06
1.61338e-06
-1.17261e-06
1.75638e-06
1.61347e-06
-1.22602e-06
1.59963e-06
-2.86361e-07
-1.62243e-06
1.82359e-06
-1.6371e-06
1.5475e-07
1.59906e-06
-1.32046e-06
4.531e-07
1.42261e-06
1.8084e-06
-1.34699e-06
-2.90908e-07
1.70383e-06
-1.41292e-06
-2.35555e-06
1.70444e-06
6.5111e-07
-1.46249e-06
-3.68768e-07
1.57887e-06
-1.53335e-06
-2.3406e-06
1.20147e-06
1.88962e-06
-9.87476e-07
-9.02142e-07
-1.30815e-06
1.67374e-06
-2.13123e-06
1.42438e-06
-1.12008e-07
-1.75438e-06
1.77679e-06
-1.08445e-07
7.72978e-07
1.96702e-06
-1.5436e-07
-1.81266e-06
5.51272e-07
-8.2305e-07
-1.71712e-06
-1.93623e-06
1.82422e-06
-9.96197e-09
-1.74885e-06
-1.45783e-06
1.80149e-06
-3.43661e-07
-1.90891e-06
-9.20101e-07
1.58238e-06
-5.17851e-07
5.02509e-07
-5.91979e-07
-8.2416e-07
-1.033e-06
-1.17243e-06
3.88792e-07
-2.23006e-06
3.16718e-07
1.91334e-06
-2.18273e-06
1.46101e-07
2.03662e-06
1.33506e-06
-1.12453e-06
1.78437e-06
-2.18022e-06
1.66237e-06
-1.92167e-06
6.95383e-07
-1.82388e-06
-3.30902e-07
1.76179e-06
-1.43089e-06
-1.75294e-06
-1.82738e-06
-1.16073e-06
1.6885e-06
-5.27774e-07
-1.21776e-06
-1.20438e-06
2.42215e-06
1.79607e-06
-1.23268e-06
-7.47893e-07
1.94802e-06
-1.67797e-06
3.56e-07
1.2692e-07
-1.53986e-06
7.63064e-07
3.34543e-07
-1.32871e-06
-1.84862e-06
1.07031e-06
7.78312e-07
-9.1622e-07
2.12659e-06
-9.05228e-07
-1.22136e-06
-1.67196e-06
1.82718e-06
-1.03288e-06
-1.06294e-06
1.65341e-06
-5.9047e-07
-1.47607e-06
3.9111e-08
-3.90388e-07
-1.22905e-06
1.61944e-06
-1.14664e-06
-1.08601e-06
1.6305e-06
-5.16335e-08
7.06837e-07
1.59012e-06
2.2679e-07
-1.63971e-06
1.79541e-06
-1.10002e-06
-1.20306e-06
-5.38976e-07
-9.39874e-07
-8.38721e-07
-1.0099e-06
2.44112e-06
-1.23965e-06
3.36893e-07
1.33684e-06
1.52206e-06
9.65052e-07
1.86078e-06
-2.42539e-07
-1.61824e-06
8.73936e-07
-2.10662e-06
6.68045e-07
1.15913e-06
7.92142e-07
1.09748e-06
-1.04058e-06
-9.48816e-07
1.9894e-06
-2.45742e-06
-8.56315e-07
-1.84822e-06
1.0849e-06
7.53569e-07
-1.83847e-06
-1.86601e-06
-9.50359e-07
1.7425e-06
-1.33555e-06
-5.79047e-07
1.9146e-06
-2.35103e-06
-1.66353e-06
2.31464e-06
-8.12819e-07
-1.02565e-06
-1.89918e-06
-1.62015e-06
2.84602e-07
1.22725e-06
1.4775e-06
-5.9821e-07
1.45299e-06
-2.36921e-06
-1.58227e-06
-2.34279e-07
1.79515e-07
1.43837e-06
-2.40342e-06
7.39894e-07
4.4863e-07
1.91225e-06
5.73892e-07
-1.63683e-06
-1.00443e-06
-1.71614e-06
3.69151e-07
8.12612e-07
-1.80009e-06
-1.8457e-06
1.75222e-07
1.82898e-06
-2.0042e-06
-1.84646e-06
1.83858e-06
7.87695e-09
1.71155e-06
-1.70727e-06
4.24359e-07
1.08656e-06
-1.99179e-06
1.38941e-06
-9.65052e-07
-1.11169e-08
-9.6129e-08
-1.62248e-06
1.71861e-06
-1.27939e-06
-1.88169e-06
2.02779e-06
-9.99848e-07
1.07778e-06
-9.60937e-07
1.86437e-06
-9.03434e-07
1.3768e-06
2.42644e-07
-5.15793e-07
-9.79625e-07
1.49542e-06
8.94613e-07
-1.91245e-06
1.01784e-06
-1.79006e-07
2.86115e-07
1.57467e-06
-1.87471e-06
9.13773e-07
-1.94259e-06
2.14851e-06
-1.69988e-06
-9.71767e-07
-1.49136e-06
1.67577e-06
-2.01943e-06
-1.33404e-06
-1.36851e-06
3.68666e-07
1.67274e-06
-3.64073e-07
-1.89627e-06
-3.57393e-07
-4.71075e-07
2.04574e-06
2.66817e-07
6.33978e-07
1.23827e-06
-2.17834e-06
1.94355e-06
1.63199e-06
-2.84531e-07
5.396e-07
-2.23948e-06
-2.20142e-06
9.8006e-07
-1.77228e-06
-3.48493e-07
1.49959e-06
7.7396e-07
2.03587e-06
7.51612e-10
1.6335e-06
-1.05961e-06
1.39234e-06
6.04386e-07
-1.8752e-06
1.14611e-06
2.43299e-07
6.68447e-07
2.03567e-06
-9.26092e-07
-9.49109e-07
5.95066e-07
1.09344e-06
7.17743e-07
-1.22737e-06
5.0963e-07
-1.89911e-06
2.12967e-06
-2.30566e-07
-2.37539e-06
1.37097e-06
1.77524e-06
1.4667e-06
-2.17244e-06
2.76171e-07
-1.47983e-06
-1.38876e-06
1.85692e-07
3.86026e-07
-9.31774e-07
1.36564e-07
2.08856e-06
-2.0909e-07
1.57241e-06
1.78066e-06
-2.0232e-06
2.08081e-06
-9.63392e-07
-9.11318e-07
-1.41443e-06
-7.86985e-07
-1.18282e-06
-7.85273e-07
-3.97684e-07
-2.22506e-06
-1.68692e-06
2.85302e-07
1.40162e-06
1.30419e-06
-9.69646e-07
1.4229e-06
1.10377e-06
-1.0419e-06
4.0168e-07
6.40223e-07
-1.33431e-06
1.70346e-06
9.68663e-07
-1.8239e-06
8.55237e-07
1.16425e-06
1.3994e-07
-9.16485e-07
-1.19013e-06
1.69933e-06
-1.85933e-06
1.26886e-06
1.38821e-06
-7.63356e-07
-1.09598e-06
-2.19971e-06
-1.94889e-06
-1.48352e-06
-2.03398e-07
-9.95499e-07
8.68287e-07
1.27213e-07
1.37466e-06
1.86588e-07
2.02632e-06
-8.49512e-07
6.96586e-08
7.79853e-07
-1.37797e-06
1.80277e-06
4.11127e-07
-1.49082e-06
1.59286e-06
-1.94136e-06
8.83694e-07
1.1057e-06
-7.42322e-07
-8.68822e-07
-1.87817e-06
1.50898e-06
1.83334e-06
-9.25841e-07
9.36734e-07
8.05767e-07
-8.25693e-07
-1.88948e-06
1.86559e-06
-8.96931e-07
1.27253e-06
-9.18904e-07
8.69359e-07
-1.81586e-07
-1.53861e-06
1.72019e-06
1.78544e-06
-2.76465e-07
-1.63862e-06
1.70325e-06
-6.4631e-08
1.82043e-06
-2.91551e-07
1.88278e-06
-5.37945e-08
-4.28774e-08
7.23707e-07
-6.80829e-07
2.05918e-06
-1.28522e-06
2.72571e-07
1.71298e-06
5.79354e-07
-1.45877e-06
5.26524e-07
-1.34149e-06
1.47418e-06
3.1126e-07
2.72976e-07
-1.24262e-06
1.36906e-06
8.15974e-10
-1.36988e-06
1.15127e-06
9.59196e-08
-1.18472e-06
1.38401e-06
-1.99298e-07
-8.26481e-07
9.22329e-07
-9.58476e-08
-5.06178e-08
4.27898e-07
-1.17022e-06
1.23933e-06
-7.52461e-07
-1.26157e-06
-5.23571e-07
3.63686e-07
-2.04858e-06
-9.94871e-07
2.28374e-07
2.72924e-08
-1.64554e-06
1.66078e-06
1.02055e-06
-1.45805e-07
1.29902e-06
-7.30854e-07
-2.08311e-07
9.39165e-07
2.69724e-07
-1.81696e-06
1.54723e-06
9.36625e-07
-1.86527e-06
-1.40421e-07
-1.69426e-07
1.59232e-06
2.08931e-06
1.56154e-06
1.84346e-07
1.64909e-06
-1.74907e-07
-8.70741e-07
-9.53159e-07
-1.92825e-06
-2.90579e-07
2.21883e-06
5.89759e-08
1.42339e-06
3.41122e-07
-1.41127e-06
7.24451e-07
1.52403e-06
-1.6869e-06
-1.08088e-06
-7.19209e-07
-9.30993e-07
1.20397e-06
-7.14724e-09
1.12945e-06
4.47007e-07
-6.92925e-07
1.07668e-06
-3.83758e-07
-9.12381e-07
-7.14018e-07
9.63976e-07
-2.49958e-07
2.88537e-08
1.49522e-06
-1.52407e-06
1.78632e-06
-1.8918e-06
1.10719e-06
3.18937e-07
-1.42613e-06
-1.39177e-06
5.77312e-08
1.4675e-06
9.99322e-07
3.84691e-07
3.22404e-07
-1.20608e-06
8.83676e-07
1.57732e-06
-6.43422e-07
-9.13588e-07
1.46832e-06
-1.00165e-06
-8.90153e-07
1.46005e-06
8.26929e-09
1.88858e-06
-1.24936e-06
1.3893e-06
-1.11378e-06
1.82786e-07
2.71051e-07
-1.40942e-06
4.95834e-07
1.26075e-06
2.78059e-07
7.98624e-07
8.66738e-07
-1.61981e-07
-1.04764e-06
-1.65946e-06
1.66155e-06
1.19026e-06
1.35608e-06
1.72422e-07
-8.3572e-07
-4.43998e-07
-2.89983e-07
1.26602e-06
-1.32745e-07
1.45707e-06
-1.96322e-07
1.4296e-06
1.5508e-06
-1.94717e-07
1.00537e-06
4.24229e-07
-8.62351e-07
-4.92825e-07
1.35518e-06
8.44377e-07
-1.88938e-06
-1.75256e-06
-8.2795e-07
-5.00763e-07
1.24515e-06
3.05642e-07
-1.46527e-06
-1.26858e-07
1.59213e-06
-1.27195e-06
6.23592e-09
-1.15841e-06
1.15218e-06
4.09432e-07
-4.04053e-07
-8.54835e-07
-9.92317e-07
1.84715e-06
-4.12748e-07
-1.25912e-06
-1.87239e-06
1.69645e-06
-1.52848e-06
1.57279e-06
1.41915e-07
-1.68448e-06
1.87906e-06
-1.60934e-06
1.19649e-06
-6.12701e-08
6.36102e-07
-1.21945e-06
2.30071e-07
9.89375e-07
-9.79114e-07
-8.97903e-07
1.87702e-06
1.87619e-06
-1.07042e-06
-8.39337e-07
1.56409e-06
-1.69437e-06
-1.36311e-06
-1.35106e-06
-1.83021e-06
-1.10473e-06
-1.14713e-07
-1.02142e-06
-8.50968e-07
-3.20927e-07
2.09513e-06
-1.7742e-06
-1.19606e-06
1.40771e-06
-8.81182e-07
1.58848e-06
1.87814e-06
-1.02806e-06
-5.96039e-07
-8.13949e-07
1.09276e-06
1.1799e-06
9.63809e-07
1.32654e-06
1.07828e-06
1.39078e-06
-9.17616e-08
-1.44152e-06
1.04588e-06
3.31213e-08
9.14881e-07
3.94537e-09
-1.23371e-06
1.22977e-06
-1.43622e-07
1.09366e-06
-9.50035e-07
1.34658e-06
8.0353e-07
4.3718e-07
1.40875e-06
-1.81076e-06
7.89341e-07
-1.93086e-06
8.18336e-07
1.11252e-06
1.5158e-06
2.04388e-07
1.81306e-06
-1.67114e-06
6.21654e-07
-1.17363e-06
7.89871e-07
1.06864e-06
2.77935e-07
1.05768e-06
-1.67046e-06
-1.10083e-06
-7.09928e-07
1.25261e-06
-1.65894e-06
1.1908e-07
-8.63107e-07
-3.90124e-07
8.94788e-07
1.25447e-06
-2.3458e-07
1.67189e-06
-4.55965e-07
-1.21592e-06
-5.27571e-07
-8.35542e-07
1.5602e-06
-1.53135e-06
1.31762e-06
-9.32928e-07
1.05747e-06
1.86761e-07
-1.24423e-06
-3.79471e-07
-9.863e-07
2.16705e-07
9.22976e-07
-1.13968e-06
-7.04575e-08
1.05288e-06
-1.25655e-06
1.16311e-06
-4.8497e-08
1.59573e-06
-2.23745e-08
1.24886e-06
-1.46113e-06
1.09309e-06
1.01988e-06
-8.14457e-07
-6.318e-07
-8.43699e-07
-3.2993e-07
-1.38768e-06
1.03051e-06
-1.25054e-06
3.55047e-07
8.9549e-07
3.08768e-07
1.07851e-06
-1.22213e-06
1.5654e-06
6.5343e-07
-2.98021e-07
-8.84142e-07
-1.62096e-06
-1.16339e-06
5.77375e-07
-1.69645e-06
2.64506e-07
-1.35585e-06
-1.40267e-08
1.69922e-06
-1.17758e-06
-4.82077e-07
8.62692e-07
7.92958e-07
2.04836e-06
4.20238e-07
1.14385e-06
-1.29781e-06
-1.58023e-06
-1.74212e-07
-1.31978e-06
-2.36042e-07
1.63766e-06
1.20013e-06
1.31927e-06
1.5117e-06
1.18468e-06
1.2989e-06
-1.13864e-07
1.47006e-06
-1.31205e-06
-3.48667e-07
1.7339e-06
-1.20685e-06
1.52527e-06
-1.68876e-06
1.16519e-06
-1.76593e-06
-1.26286e-06
-1.53076e-06
9.43074e-07
-5.88027e-07
6.14125e-07
6.71317e-07
8.79856e-07
7.75793e-07
-1.71299e-06
1.16172e-06
9.92889e-07
1.81483e-06
-1.11051e-06
1.05963e-07
-1.0887e-06
1.23616e-06
-1.20304e-06
-1.69561e-07
-1.3612e-06
1.91921e-07
-1.82717e-06
1.48799e-06
4.01658e-07
4.31308e-07
-1.45342e-06
1.21738e-06
-1.86473e-06
-1.18736e-06
1.38315e-06
5.74498e-07
-1.08687e-06
1.73977e-06
-6.52899e-07
-1.22875e-06
4.39024e-07
-1.3726e-06
-1.89043e-06
5.71378e-07
-1.551e-06
-1.75777e-06
1.18997e-06
-1.89377e-06
1.18384e-06
2.00481e-06
-3.4838e-07
-1.55147e-06
-3.85433e-07
1.135e-06
-1.26666e-06
1.27922e-06
-7.76711e-07
9.74018e-07
1.56808e-06
-1.18259e-06
-8.00594e-07
-5.47793e-07
-8.64603e-07
-1.04785e-06
3.65373e-07
4.67594e-07
6.11275e-07
-1.86268e-06
8.70365e-07
-1.24296e-06
1.9996e-06
1.66258e-06
-1.0912e-06
-1.88771e-06
9.89811e-07
7.6185e-07
1.94569e-06
1.55223e-07
1.47682e-06
-8.12093e-07
-6.14375e-07
-7.98297e-07
1.10641e-06
1.04285e-06
-5.12913e-07
1.6781e-06
-1.03507e-06
1.09234e-07
4.56679e-09
9.54421e-07
1.76336e-06
1.09473e-06
1.05517e-06
-9.26057e-07
7.18583e-07
-1.09759e-06
1.91593e-06
-6.67965e-07
-1.28641e-08
1.07298e-06
-8.43278e-07
1.938e-06
-4.12253e-07
1.32171e-06
-1.04334e-06
-1.04886e-06
1.86697e-07
-1.26632e-06
-9.5096e-07
1.74907e-06
4.06253e-07
1.15632e-06
-8.72592e-07
-1.96219e-06
1.00968e-06
-5.869e-07
1.07316e-06
-8.86461e-07
1.03495e-06
-1.36283e-06
2.09844e-07
8.05874e-07
7.84072e-07
1.33231e-07
2.19917e-06
-1.06216e-06
3.65033e-07
-1.08593e-06
1.54937e-07
-1.37218e-06
1.07658e-07
5.49335e-07
-1.68162e-07
4.6458e-07
-8.05186e-07
1.68703e-06
-8.63114e-07
7.14759e-07
1.20924e-06
-3.25563e-07
-1.09256e-06
7.83382e-07
8.93924e-07
1.55982e-07
-1.04991e-06
-6.71373e-07
8.14642e-07
-9.17389e-07
3.12449e-07
1.18569e-06
-3.12076e-07
-1.30798e-06
4.89394e-07
1.20207e-06
-9.58775e-07
7.52737e-07
-4.42163e-07
6.76667e-08
-1.06172e-06
4.63514e-07
7.10632e-07
-7.83036e-08
7.02031e-07
8.52802e-07
4.96155e-07
1.19133e-06
-7.22089e-07
5.59427e-07
-3.90477e-07
8.60208e-07
-4.69731e-07
9.95601e-07
9.83557e-08
1.53342e-06
7.85489e-07
-1.95748e-07
1.04659e-06
-6.57796e-07
7.71173e-07
9.15854e-07
-1.37666e-06
-1.02538e-06
9.48322e-07
2.12968e-07
1.42675e-06
9.95601e-07
-1.47837e-06
4.80852e-07
-1.04751e-06
-1.60908e-06
8.89868e-07
9.56208e-07
-1.55225e-06
-8.96083e-07
1.35204e-06
-8.29533e-07
-4.84706e-08
8.38298e-07
1.61504e-08
-3.72009e-07
3.34174e-08
-8.63957e-07
-1.52002e-08
8.68993e-07
1.13251e-06
4.51302e-07
8.31183e-07
8.63957e-07
-8.68993e-07
-8.31183e-07
-9.07705e-08
4.37522e-07
3.16887e-08
-1.13251e-06
-4.51302e-07
-8.29533e-07
8.38298e-07
-3.72009e-07
4.37522e-07
-1.05605e-06
1.34065e-06
8.93783e-07
-9.78271e-07
1.3617e-06
-6.70834e-07
6.70834e-07
8.93783e-07
-1.62669e-06
-1.47393e-06
8.92823e-07
1.99938e-06
-9.56533e-07
-1.71562e-06
-2.09006e-06
1.09487e-06
5.32398e-07
5.33963e-08
-5.32398e-07
6.31877e-08
-1.02425e-06
-1.15463e-06
6.39228e-07
-1.08554e-06
-1.49156e-07
1.04308e-06
5.75186e-07
-1.48217e-07
7.78216e-07
9.89623e-07
-1.89938e-06
-9.87055e-07
-2.16537e-06
8.01805e-07
9.79065e-07
8.55417e-07
-1.65169e-06
6.26313e-07
-5.97144e-07
8.47352e-07
6.86313e-07
-2.71249e-07
-1.42529e-06
1.8125e-06
-1.46041e-06
-3.52088e-07
1.20432e-06
-3.51514e-07
3.13557e-07
-3.13557e-07
-7.59791e-07
-7.80851e-07
-9.4966e-07
8.95564e-07
-6.84075e-07
7.37471e-07
-1.76616e-08
1.83016e-06
1.07811e-06
-2.15772e-06
6.99845e-07
-6.06377e-07
9.89276e-07
-1.50221e-06
1.25435e-06
-1.31802e-06
1.11513e-06
-9.45363e-07
1.46738e-07
-1.0332e-06
8.33082e-07
5.56488e-07
4.12687e-07
9.28252e-07
-7.81514e-07
-5.07277e-07
-1.38817e-06
-2.39961e-07
1.38713e-06
-4.69217e-07
-5.90922e-07
5.90922e-07
-5.76853e-07
-8.94106e-09
5.76853e-07
-5.12586e-08
7.37555e-07
-7.37555e-07
-2.1542e-07
-9.06177e-07
5.89058e-07
-1.39629e-06
5.82339e-07
-1.12445e-06
2.14762e-07
7.28312e-07
8.88707e-07
-6.67676e-07
-3.40554e-07
-1.17559e-06
-1.31218e-06
-7.77876e-07
1.25101e-06
9.66101e-07
9.48496e-07
-1.96518e-07
-6.62982e-07
1.12146e-06
-1.12146e-06
4.97002e-07
-6.40171e-07
-1.36035e-06
-7.68054e-07
1.16959e-07
-1.66461e-06
1.54765e-06
4.27005e-07
-9.68929e-08
7.79743e-07
-6.2246e-07
6.66032e-07
-1.55418e-06
1.01704e-07
-2.78693e-07
2.08677e-07
-7.96705e-07
-1.83688e-07
1.83688e-07
5.06403e-07
3.53805e-07
8.00594e-07
1.06136e-06
-2.93595e-07
-7.67769e-07
4.89251e-07
1.14534e-07
5.69029e-07
-4.12687e-07
9.08141e-07
-5.69029e-07
-5.57884e-07
1.56527e-07
4.01357e-07
1.33423e-06
-2.94694e-07
6.1676e-07
5.79104e-07
-1.55666e-06
1.00072e-06
5.55941e-07
-2.71249e-07
-6.13551e-07
-4.69731e-07
6.13551e-07
2.42707e-07
-5.1765e-08
-7.60328e-07
-3.16963e-07
-3.05328e-07
3.16963e-07
3.05328e-07
4.98483e-07
-4.98483e-07
-1.5249e-06
-4.23168e-07
-8.25987e-07
-4.30732e-07
-1.36911e-07
-5.47164e-07
-2.79936e-07
-5.12142e-07
5.12142e-07
-8.63114e-07
-6.68676e-07
-6.66032e-07
-5.13979e-07
1.64146e-08
6.40171e-07
-7.34055e-07
-1.54021e-07
-1.65891e-07
6.75263e-07
1.61834e-06
1.0043e-07
-7.58227e-07
-5.71075e-07
4.83154e-07
5.89058e-07
-8.71986e-07