/*--------------------------------*- C++ -*----------------------------------*\
  =========                 |
  \\      /  F ield         | OpenFOAM: The Open Source CFD Toolbox
   \\    /   O peration     | Website:  https://openfoam.org
    \\  /    A nd           | Version:  9
     \\/     M anipulation  |
\*---------------------------------------------------------------------------*/
FoamFile
{
    format      ascii;
    class       volScalarField;
    location    "0.62";
    object      p;
}
// * * * * * * * * * * * * * * * * * * * * * * * * * * * * * * * * * * * * * //

dimensions      [0 2 -2 0 0 0 0];

internalField   nonuniform List<scalar> 
90
(
-3.07211e-07
2.46884e-07
-7.76633e-07
-8.63899e-07
-8.47163e-07
2.91592e-07
-2.48071e-07
-4.32037e-08
-5.12803e-07
4.04232e-08
-2.12656e-07
-1.50273e-07
-2.24868e-07
-7.38996e-08
-5.02205e-07
-5.37847e-07
-8.10681e-07
-8.72173e-07
-6.00493e-07
-6.78465e-08
3.73929e-07
1.97488e-07
-5.15627e-08
1.88919e-07
7.2663e-08
-7.98508e-08
2.82421e-07
1.6574e-07
-1.07901e-06
-1.23439e-07
-2.31476e-08
-1.74332e-07
3.15895e-07
5.12816e-08
9.76742e-08
-4.3901e-07
-3.91997e-07
-9.77715e-07
3.30074e-07
-1.22788e-07
-1.62333e-07
-3.38038e-07
-1.60348e-07
-1.75846e-07
-1.69395e-08
3.06947e-07
4.58505e-07
-6.57434e-07
-5.32048e-07
-1.55152e-07
-3.29618e-08
2.01815e-07
-1.41389e-07
1.24303e-07
2.913e-07
-2.6746e-07
-5.31776e-08
3.35105e-07
1.52192e-07
-1.56766e-07
-2.62903e-07
-2.59427e-07
-2.06788e-07
-4.70094e-07
-3.23068e-07
-8.28024e-07
-1.56838e-07
1.32791e-07
-1.12952e-06
-1.01021e-06
-6.0477e-07
8.56386e-08
-3.64111e-07
-6.16312e-07
-9.01611e-07
3.882e-07
2.75486e-07
-1.78683e-07
-2.73788e-09
4.50402e-08
-1.11058e-06
-5.44292e-08
2.25198e-07
-7.52755e-07
-1.35284e-07
-5.70472e-08
-3.97691e-08
-8.32506e-08
-4.55222e-07
2.76455e-07
)
;

boundaryField
{
    back
    {
        type            empty;
    }
    front
    {
        type            empty;
    }
    bottom
    {
        type            zeroGradient;
    }
    outer_arc
    {
        type            zeroGradient;
    }
    right
    {
        type            uniformFixedValue;
        uniformValue    
        {
            type            scale;
            scale           
            {
                type            squarePulse;
                start           0.3;
                duration        0.3;
            }
            xScale          
            {
                type            constant;
                value           1;
            }
            value           
            {
                type            constant;
                value           15.1;
            }
        }
        value           uniform 0;
    }
    inner_arc
    {
        type            zeroGradient;
    }
}


// ************************************************************************* //
