/*--------------------------------*- C++ -*----------------------------------*\
  =========                 |
  \\      /  F ield         | OpenFOAM: The Open Source CFD Toolbox
   \\    /   O peration     | Website:  https://openfoam.org
    \\  /    A nd           | Version:  9
     \\/     M anipulation  |
\*---------------------------------------------------------------------------*/
FoamFile
{
    format      ascii;
    class       surfaceScalarField;
    location    "0.62";
    object      phi;
}
// * * * * * * * * * * * * * * * * * * * * * * * * * * * * * * * * * * * * * //

dimensions      [0 3 -1 0 0 0 0];

internalField   nonuniform List<scalar> 
122
(
-9.41288e-14
2.9912e-14
6.42168e-14
-2.04753e-19
4.81079e-14
-4.81076e-14
-1.84891e-13
1.71591e-13
1.33004e-14
-1.98102e-14
-1.6508e-13
-2.16995e-13
2.16995e-13
1.6233e-14
6.25764e-14
-7.88094e-14
5.60072e-14
2.22431e-14
-7.82503e-14
8.09144e-14
-6.46811e-14
-2.99121e-14
3.88194e-14
-8.90728e-15
-4.81078e-14
9.27811e-14
-4.46732e-14
1.24214e-13
-6.8207e-14
-9.27813e-14
1.97185e-13
1.69169e-14
1.54674e-13
-1.42838e-13
2.00455e-13
-1.01895e-13
-9.85597e-14
-4.57705e-14
4.57705e-14
-2.07004e-13
2.07004e-13
-6.17488e-14
3.68107e-14
2.49381e-14
1.54508e-13
4.59464e-14
6.2629e-14
-5.25815e-17
-5.82297e-15
-5.5926e-14
1.68582e-14
-2.20355e-13
1.33501e-14
-1.34981e-13
1.51898e-13
4.19988e-14
-3.1791e-15
-8.90715e-15
-6.37635e-14
1.09534e-13
9.01225e-14
-9.0175e-14
2.63588e-14
3.56548e-14
-3.56548e-14
1.97185e-13
1.09534e-13
-1.40679e-13
1.40679e-13
6.63255e-14
-1.75071e-13
2.41397e-13
-1.31713e-13
1.58071e-13
-6.95562e-15
7.11724e-14
2.00689e-14
-8.54982e-14
-4.71476e-14
-9.59902e-16
-8.47304e-14
8.47304e-14
1.01169e-13
5.35043e-14
-1.61771e-13
-1.1288e-13
3.87842e-14
3.87842e-14
-8.19428e-14
1.67057e-14
6.52371e-14
-1.10821e-13
3.87842e-14
3.5001e-14
-1.16944e-13
8.21862e-14
-4.71475e-14
-6.15552e-14
8.16239e-14
-1.47301e-14
1.47301e-14
2.09248e-14
1.48421e-13
-4.72509e-14
-5.64371e-14
5.64371e-14
7.62578e-14
-3.75826e-14
1.1384e-13
6.22033e-14
5.76627e-15
-6.22033e-14
1.15007e-13
-6.15029e-14
1.93592e-14
2.07821e-14
1.57664e-13
3.62173e-14
-3.62173e-14
-3.31191e-15
9.61615e-14
-6.79932e-14
)
;

boundaryField
{
    back
    {
        type            empty;
        value           nonuniform List<scalar> 0();
    }
    front
    {
        type            empty;
        value           nonuniform List<scalar> 0();
    }
    bottom
    {
        type            calculated;
        value           uniform 0;
    }
    outer_arc
    {
        type            calculated;
        value           uniform 0;
    }
    right
    {
        type            calculated;
        value           nonuniform List<scalar> 4(-9.41287e-14 6.54293e-14 -8.91417e-14 1.17841e-13);
    }
    inner_arc
    {
        type            calculated;
        value           uniform 0;
    }
}


// ************************************************************************* //
