/*--------------------------------*- C++ -*----------------------------------*\
  =========                 |
  \\      /  F ield         | OpenFOAM: The Open Source CFD Toolbox
   \\    /   O peration     | Website:  https://openfoam.org
    \\  /    A nd           | Version:  9
     \\/     M anipulation  |
\*---------------------------------------------------------------------------*/
FoamFile
{
    format      ascii;
    class       volVectorField;
    location    "0.62";
    object      U;
}
// * * * * * * * * * * * * * * * * * * * * * * * * * * * * * * * * * * * * * //

dimensions      [0 1 -1 0 0 0 0];

internalField   nonuniform List<vector> 
90
(
(-1.89725e-06 -1.06419e-06 2.66995e-23)
(-5.72281e-07 1.08504e-06 2.6964e-23)
(2.4809e-06 2.82724e-06 -4.34412e-23)
(2.00952e-06 5.53716e-06 4.30225e-23)
(1.34557e-06 4.17657e-06 3.68598e-23)
(-2.88169e-07 2.58141e-07 -2.14222e-23)
(-2.26126e-06 -6.86583e-07 -3.20118e-23)
(6.85183e-07 -2.36823e-06 1.68302e-25)
(-2.45373e-06 4.00805e-06 0)
(1.047e-06 -2.6245e-06 0)
(-1.39369e-07 -7.11464e-07 -5.2397e-24)
(-2.72871e-07 3.15042e-06 5.71639e-24)
(-3.75782e-07 -4.47174e-07 -2.80899e-24)
(-3.5485e-07 1.25298e-06 -4.6135e-24)
(-6.07201e-07 5.21186e-06 0)
(8.36212e-07 5.48193e-06 0)
(3.6463e-06 5.82663e-06 -8.28658e-23)
(4.61999e-06 3.40529e-06 2.07103e-23)
(-2.19919e-06 3.28093e-06 0)
(-4.53055e-06 -3.15707e-06 2.92347e-24)
(-2.23622e-07 -1.00057e-06 1.87498e-23)
(-2.56324e-06 -3.58104e-06 1.59644e-25)
(1.28881e-06 -1.16872e-06 -3.22956e-24)
(-4.28636e-06 -1.29653e-06 -4.41387e-24)
(3.47833e-07 -2.04211e-06 -1.82624e-24)
(1.41749e-06 -3.96744e-07 2.44926e-24)
(2.19812e-07 -1.10507e-06 -1.77039e-23)
(-3.20786e-06 -5.35177e-06 -2.94594e-24)
(4.99016e-06 3.96468e-06 0)
(-5.92241e-08 -1.40774e-06 4.31388e-24)
(8.33001e-07 -1.84055e-06 -3.86868e-24)
(2.1671e-07 -2.68328e-07 -7.1921e-24)
(-1.46176e-06 -2.5406e-06 4.63638e-24)
(2.93921e-07 -2.44342e-06 -3.23554e-24)
(-6.55149e-07 -3.06055e-06 2.57302e-24)
(1.91376e-07 2.28029e-06 1.04121e-23)
(7.26143e-07 2.52579e-07 0)
(2.41269e-06 3.2083e-06 0)
(-1.47934e-06 -2.1668e-06 -7.60865e-24)
(-2.31267e-06 -2.82314e-06 -1.68394e-24)
(-4.16297e-06 -5.88593e-06 -5.85912e-24)
(-4.68102e-06 -4.87329e-06 2.48197e-23)
(1.59845e-07 -3.84919e-06 -1.95225e-25)
(-2.30977e-06 -1.63632e-06 3.51876e-24)
(1.8846e-06 -2.57995e-06 1.64833e-24)
(-1.29836e-06 9.94275e-07 -2.86005e-24)
(-1.71436e-06 9.5439e-08 1.46828e-23)
(3.75524e-06 -9.40583e-08 -2.43163e-23)
(-2.20779e-06 -3.77879e-06 2.42815e-23)
(-1.46526e-06 3.57132e-06 1.29957e-24)
(-2.58049e-06 -2.66141e-06 0)
(-9.12027e-07 -6.12699e-07 -9.05293e-24)
(2.43272e-06 -1.29121e-06 6.60857e-26)
(-2.72476e-06 -4.64221e-06 0)
(-3.61517e-07 -4.72787e-07 1.96675e-23)
(3.16577e-06 1.29046e-07 8.58888e-26)
(-2.43404e-06 -2.52693e-06 -2.51178e-24)
(-7.5296e-07 2.50339e-07 0)
(2.77541e-06 -2.03435e-06 0)
(6.41255e-07 8.15467e-09 1.00654e-23)
(-4.75496e-06 -2.55673e-06 -1.75575e-23)
(1.01386e-06 2.30111e-07 0)
(2.97215e-07 3.90805e-08 9.66371e-24)
(4.7741e-07 -3.81127e-06 6.80997e-24)
(-2.43725e-06 -4.80324e-06 -3.04134e-23)
(1.13869e-06 6.82734e-07 -3.626e-23)
(-4.14206e-06 1.29708e-06 0)
(-3.61409e-06 1.32149e-06 0)
(3.98997e-06 3.50658e-06 4.39911e-24)
(2.30913e-06 1.65728e-06 -3.22412e-23)
(4.27258e-06 2.15467e-07 0)
(1.81177e-06 -1.63243e-06 5.8866e-24)
(2.84437e-06 -1.76718e-06 0)
(1.74409e-06 8.4986e-07 -3.51519e-23)
(4.65483e-06 2.8521e-06 3.25517e-23)
(-2.50962e-06 -1.1204e-06 -1.15623e-23)
(8.61353e-07 -1.64702e-07 -3.42375e-24)
(-7.99286e-07 -4.68552e-06 0)
(1.51245e-06 -1.68125e-06 1.47526e-24)
(3.43132e-06 -8.08737e-07 8.02142e-24)
(1.35202e-06 1.09187e-06 4.6057e-23)
(-9.16683e-08 -3.03028e-06 5.77378e-25)
(-2.55213e-06 3.89641e-07 -2.2629e-23)
(4.82303e-06 1.73025e-06 -1.9015e-23)
(2.10054e-06 2.63633e-07 1.8555e-24)
(-2.46127e-06 2.2607e-06 3.35025e-24)
(3.18354e-07 -2.59348e-06 -1.99003e-24)
(-5.94677e-07 -2.05257e-06 -2.15187e-24)
(3.61919e-06 1.15205e-06 5.31873e-23)
(1.29642e-06 -8.71325e-07 -5.70078e-24)
)
;

boundaryField
{
    back
    {
        type            empty;
    }
    front
    {
        type            empty;
    }
    bottom
    {
        type            uniformFixedValue;
        uniformValue    
        {
            type            scale;
            scale           
            {
                type            squarePulse;
                start           0.3;
                duration        0.3;
            }
            xScale          
            {
                type            constant;
                value           1;
            }
            value           
            {
                type            constant;
                value           (0 0.7 0);
            }
        }
        value           uniform (0 0 0);
    }
    outer_arc
    {
        type            noSlip;
    }
    right
    {
        type            zeroGradient;
    }
    inner_arc
    {
        type            noSlip;
    }
}


// ************************************************************************* //
