/*--------------------------------*- C++ -*----------------------------------*\
  =========                 |
  \\      /  F ield         | OpenFOAM: The Open Source CFD Toolbox
   \\    /   O peration     | Website:  https://openfoam.org
    \\  /    A nd           | Version:  9
     \\/     M anipulation  |
\*---------------------------------------------------------------------------*/
FoamFile
{
    format      ascii;
    class       surfaceScalarField;
    location    "0.48";
    object      phi;
}
// * * * * * * * * * * * * * * * * * * * * * * * * * * * * * * * * * * * * * //

dimensions      [0 3 -1 0 0 0 0];

internalField   nonuniform List<scalar> 
1363
(
-2.14511e-07
-5.91813e-07
8.06325e-07
-2.5937e-07
3.35353e-07
-7.59829e-08
1.05365e-06
-7.38652e-07
-3.14996e-07
2.40263e-08
2.93904e-07
-3.17931e-07
9.43957e-07
1.09691e-07
4.19201e-07
-2.60431e-08
-3.93158e-07
-1.41179e-07
1.41179e-07
2.48605e-07
1.70596e-07
-2.33452e-07
3.02539e-07
-6.90873e-08
1.45055e-08
-2.47957e-07
-3.25484e-07
3.0636e-07
1.91238e-08
5.71599e-07
-6.75274e-07
1.03675e-07
3.7622e-07
-3.52194e-07
-3.9296e-07
3.64354e-07
2.86054e-08
1.86542e-07
3.85057e-07
-2.67184e-07
7.81355e-09
1.03073e-08
-2.62552e-07
2.52244e-07
-4.01198e-07
1.86687e-07
5.99001e-07
1.24701e-07
-7.23702e-07
-1.23294e-07
1.23294e-07
1.45273e-07
-1.34966e-07
-2.29666e-07
-4.45608e-07
1.0877e-06
-3.62206e-07
-7.25493e-07
2.37961e-07
7.31476e-07
-9.69437e-07
-1.68767e-07
-1.56716e-07
5.77244e-07
-3.39283e-07
7.95041e-07
-7.21457e-07
-7.35841e-08
7.02583e-07
3.85116e-07
-7.91337e-07
8.02236e-07
-1.08993e-08
-4.00625e-07
3.2039e-07
8.02356e-08
1.91902e-07
-3.11329e-07
1.19427e-07
1.86584e-08
7.76382e-07
-7.16278e-08
-7.19709e-07
-8.51145e-07
1.2483e-07
7.26315e-07
7.08817e-07
-5.985e-07
-1.10317e-07
-2.38063e-07
-8.61613e-07
1.09968e-06
-9.78169e-08
-3.29369e-08
1.30754e-07
1.06577e-07
-4.06909e-08
-6.58864e-08
-6.35743e-08
-3.42427e-08
-2.02308e-07
9.33784e-07
7.55069e-07
-7.80259e-07
2.51903e-08
9.65897e-07
-5.1085e-07
-4.55046e-07
-9.21242e-07
7.18935e-07
-7.79172e-08
-6.32621e-08
1.92535e-08
1.21926e-07
5.86491e-07
1.06021e-07
-6.92513e-07
-6.80232e-07
5.39624e-08
6.2627e-07
-2.06864e-08
-8.30458e-07
-9.09327e-08
8.46002e-07
-1.66902e-07
-2.26057e-07
6.18212e-07
-1.92116e-08
-6.90736e-07
3.2853e-07
-1.23386e-06
9.95799e-07
9.70493e-07
-5.41225e-07
-4.29267e-07
3.21841e-07
-3.07335e-07
1.29415e-07
-3.46816e-07
2.17401e-07
-2.38301e-07
2.38301e-07
-2.81912e-08
3.50032e-07
-2.10479e-07
-2.78224e-08
8.56409e-08
2.29094e-07
-3.14735e-07
-5.01198e-09
-3.95613e-07
7.95107e-07
-6.77276e-07
-1.17831e-07
-2.04091e-07
3.28921e-07
-8.12429e-07
2.20615e-07
-6.73672e-08
1.73945e-07
2.00559e-07
-6.84772e-08
-1.32082e-07
7.36505e-08
8.00499e-07
-6.88701e-07
-1.11798e-07
1.02144e-06
-8.92026e-07
5.45815e-07
-2.85589e-07
-2.60226e-07
2.21748e-07
1.13605e-07
-1.42742e-07
1.82783e-07
-4.00414e-08
-1.899e-07
1.899e-07
4.43015e-07
-1.22625e-07
7.62217e-07
2.08275e-07
3.1787e-08
-1.55081e-07
9.18133e-08
3.1481e-08
3.15409e-08
-9.21226e-08
2.84025e-07
-1.97493e-07
-6.96903e-08
2.65203e-08
-4.16985e-08
1.51782e-08
2.65915e-07
-2.28772e-07
2.17189e-08
2.07053e-07
3.06553e-09
-4.8566e-08
-1.99111e-08
-9.49565e-07
9.15613e-07
3.39519e-08
-1.20958e-07
2.06599e-07
8.9369e-08
7.13939e-08
-1.60763e-07
8.36396e-08
2.80715e-07
-1.4319e-07
-8.55824e-08
4.13151e-07
5.52746e-07
2.71014e-07
-5.18913e-08
-2.19122e-07
-3.43012e-07
3.1482e-07
-1.37841e-07
-2.08975e-07
-1.49447e-07
3.66849e-07
-2.34153e-07
1.69921e-07
6.4232e-08
2.54647e-07
-7.65497e-07
3.46945e-08
5.46746e-08
-2.06297e-07
2.32818e-07
-7.23792e-08
1.81309e-07
1.56839e-09
-1.82877e-07
-2.78616e-09
-3.40226e-07
-6.20199e-08
4.67898e-07
-3.49816e-07
2.00369e-07
-4.06041e-07
1.04275e-08
-6.8311e-08
6.54802e-07
5.2385e-08
7.05107e-07
-7.57492e-07
7.46805e-08
7.25819e-07
4.48902e-08
-7.33591e-07
9.80958e-08
9.23345e-07
3.43168e-08
-9.26343e-07
-2.32756e-07
-2.73514e-08
-1.15391e-07
6.65802e-08
2.3978e-07
2.71014e-07
1.17741e-07
-3.09854e-07
1.92113e-07
4.88733e-07
-1.94829e-07
-1.4989e-07
7.75107e-08
1.52723e-07
-6.32773e-07
4.8005e-07
-7.75107e-08
-3.2853e-07
-9.89299e-07
8.40296e-08
9.05269e-07
-9.21242e-07
-1.82086e-07
1.92965e-07
1.11013e-07
-2.03135e-07
-6.90736e-07
6.47307e-07
-7.18935e-07
-6.47307e-07
4.3956e-07
2.07747e-07
-1.23386e-06
-6.1049e-07
7.35191e-07
6.1049e-07
-5.97966e-07
-1.25232e-08
-7.35191e-07
7.89153e-07
-9.08724e-07
8.88038e-07
9.08724e-07
-8.34043e-07
5.97966e-07
-4.91945e-07
1.14983e-06
-1.05174e-06
-7.89153e-07
8.34043e-07
-1.01742e-06
1.05174e-06
1.01742e-06
-1.10835e-06
-8.88038e-07
1.10835e-06
-2.20315e-07
4.91945e-07
-4.3956e-07
-1.15015e-07
1.75195e-07
-6.41822e-08
2.62046e-07
-1.3441e-08
2.14075e-07
1.07823e-07
-3.93412e-07
1.1626e-07
6.65234e-08
-4.36726e-08
5.58456e-07
-5.14783e-07
-2.93266e-07
-6.56299e-07
1.40696e-07
1.2135e-07
2.02693e-07
-5.38895e-07
3.36202e-07
5.2148e-07
-5.73372e-07
-3.71998e-07
3.80489e-07
-8.4911e-09
-6.62118e-07
6.36186e-08
-3.92526e-07
3.28951e-07
-8.59909e-08
3.74248e-08
5.37076e-08
-5.21156e-08
-1.59209e-09
-8.07602e-08
-2.02366e-07
-1.1431e-07
2.83191e-08
-8.13441e-07
4.20915e-07
-3.57117e-07
3.91868e-08
1.48877e-07
-1.8829e-08
-1.30048e-07
3.6244e-07
-1.59747e-07
2.49062e-08
-3.95795e-07
3.70889e-07
6.46744e-08
1.16634e-07
7.22799e-07
-2.54901e-07
1.25938e-08
-1.07321e-07
-1.0464e-07
-8.03412e-08
-6.59541e-08
7.13011e-07
1.51015e-07
7.64598e-07
-6.50646e-07
3.33271e-07
3.17375e-07
-4.64381e-09
1.74565e-07
-3.94429e-07
-2.56217e-07
9.12e-08
-2.29041e-07
-8.46971e-07
4.45223e-07
4.01748e-07
-3.64144e-07
-7.85431e-09
4.23464e-07
3.78773e-07
-7.66096e-08
-5.137e-07
4.18172e-08
4.7999e-07
-2.01292e-07
-8.80622e-08
2.89354e-07
-7.82955e-07
1.10082e-07
6.72873e-07
6.09648e-07
-9.02914e-07
1.03052e-06
-5.853e-07
9.05272e-07
-6.82836e-07
-2.22435e-07
6.36497e-07
3.94026e-07
7.32193e-07
-1.91823e-08
3.1184e-07
-1.92413e-07
-1.4748e-07
-6.35475e-07
4.36383e-07
-6.0163e-08
8.06461e-07
-5.69903e-07
-2.36558e-07
-5.06e-07
-2.7426e-07
1.12846e-06
-1.12846e-06
-1.4989e-07
3.44912e-07
9.14708e-08
-5.13937e-07
3.66457e-07
-2.49958e-07
-2.22336e-07
-2.89316e-07
3.00895e-07
-7.98899e-07
9.08982e-07
2.0722e-07
1.70986e-07
-1.23095e-07
4.68008e-07
-2.75188e-07
4.73277e-07
-1.98089e-07
-8.90346e-07
7.72515e-07
-3.38743e-07
-7.92504e-07
8.1737e-07
-2.4866e-08
-2.95426e-07
9.05074e-07
8.07373e-07
-4.65489e-07
-3.41884e-07
-7.99436e-07
2.29533e-07
-5.16659e-07
-2.82777e-07
-7.08926e-08
9.20921e-07
-8.50029e-07
-2.23856e-07
-5.68647e-07
-5.0607e-07
1.14257e-06
6.12266e-07
-5.96867e-08
-5.52579e-07
-9.21569e-08
9.21569e-08
4.58482e-07
-4.58482e-07
-1.54547e-07
-7.35799e-07
-1.93224e-07
9.38958e-07
-7.45734e-07
2.62213e-07
2.95811e-07
-5.58024e-07
2.35333e-07
2.44657e-07
-9.04959e-07
1.06059e-07
3.66173e-07
-3.66173e-07
1.31799e-07
-1.31799e-07
7.46477e-07
2.83505e-07
-4.066e-07
5.61522e-07
2.45851e-07
7.27697e-07
5.74052e-07
-7.91282e-07
2.74623e-07
-4.95471e-07
2.42218e-07
4.80581e-07
-5.36167e-07
-6.58029e-07
1.1942e-06
6.04304e-07
-2.86929e-07
-3.72082e-07
7.73831e-07
-5.753e-07
-4.02791e-07
-4.71704e-07
8.74495e-07
5.874e-07
2.91275e-07
7.50725e-07
-1.46366e-07
-1.4295e-07
2.03813e-07
-8.86649e-07
-5.13604e-07
9.07631e-07
4.08321e-07
-1.1641e-06
2.73715e-07
8.68851e-07
-4.99338e-07
-3.80169e-07
8.79507e-07
2.32221e-07
-5.82468e-07
-2.6756e-07
3.72938e-07
-8.72276e-07
-8.46116e-07
-6.5273e-07
9.26445e-07
-4.18465e-07
-5.32392e-08
1.11623e-07
1.05382e-06
-1.16544e-06
4.29205e-08
6.22808e-07
2.51687e-07
8.64243e-07
-2.41435e-07
-9.00969e-07
8.92766e-07
8.20255e-09
-1.21176e-07
-1.27491e-07
9.00006e-07
-7.33973e-07
-3.84317e-07
7.57256e-07
-7.80665e-07
-2.09249e-07
9.89914e-07
-8.98551e-07
6.76116e-07
3.05063e-07
-9.95799e-07
-9.55267e-07
9.36544e-08
-8.44691e-07
1.14975e-06
-9.87625e-07
2.0696e-07
7.00769e-07
-4.03721e-07
-2.97048e-07
-6.24623e-07
5.43863e-07
6.95103e-08
9.13715e-07
-9.83225e-07
-1.09471e-06
1.16422e-06
8.44306e-07
8.21385e-08
9.55929e-07
4.32125e-07
2.68644e-07
2.03598e-08
-1.41536e-07
-7.59703e-07
3.75386e-07
-3.05135e-07
5.8849e-07
-2.83355e-07
-6.53792e-07
4.44542e-07
-1.34666e-07
1.40662e-07
-5.99613e-09
6.54679e-07
-6.41109e-07
-1.35703e-08
3.00562e-08
1.74318e-07
-8.15426e-07
-6.82783e-08
6.12141e-07
6.32645e-07
-1.24074e-07
-5.08571e-07
-7.391e-08
-1.03885e-06
2.6672e-07
7.72127e-07
-8.90485e-07
3.9711e-07
4.93375e-07
1.18035e-07
5.1461e-07
8.97609e-07
2.96587e-07
-9.78901e-07
4.94834e-07
4.84067e-07
-1.99376e-07
1.99376e-07
-1.55081e-07
-2.19122e-07
-6.32621e-08
9.78082e-08
-9.78082e-08
1.44947e-07
-1.44947e-07
-1.82086e-07
6.56781e-07
-1.04856e-06
3.91781e-07
-2.88321e-08
2.88321e-08
-1.1632e-08
1.1632e-08
-2.10479e-07
-1.42663e-07
1.42663e-07
1.82127e-07
-1.82127e-07
9.18133e-08
9.43241e-08
-9.43241e-08
1.92535e-08
1.92965e-07
7.50212e-08
-5.46614e-08
3.63353e-07
4.45599e-07
-8.08952e-07
-5.76505e-08
5.76505e-08
6.55002e-07
-9.60137e-07
-1.12028e-06
6.65235e-07
-7.38804e-08
7.38804e-08
-5.72529e-07
1.68808e-07
6.84581e-07
-9.64419e-07
2.79838e-07
-3.3206e-07
-7.99431e-07
1.13149e-06
-6.67477e-07
-3.7137e-07
-9.87861e-07
6.55801e-07
-3.40849e-07
-2.3168e-07
-5.86398e-07
-3.04087e-07
2.07692e-08
7.57453e-08
-9.65146e-08
-1.13896e-07
-1.14983e-06
3.58934e-07
-2.409e-07
1.15556e-07
-5.93935e-07
4.78379e-07
-5.6575e-07
4.54746e-07
-2.8468e-07
-1.70065e-07
-8.30062e-07
7.61784e-07
3.0947e-07
-8.15568e-07
7.16782e-07
9.87852e-08
-4.63501e-07
-4.08986e-08
8.47123e-07
-8.17066e-07
9.25145e-07
-7.50827e-07
-3.9356e-07
9.58377e-07
-7.24319e-07
-2.34058e-07
-7.4254e-08
1.49999e-07
-6.71476e-07
-3.16384e-07
-8.33037e-07
7.08963e-07
-2.75557e-07
1.97439e-07
-8.86264e-07
6.88826e-07
8.25816e-07
-7.1026e-07
1.00666e-06
-7.39943e-07
4.37822e-07
4.55097e-07
-8.92919e-07
-2.03122e-07
6.59572e-07
-4.56451e-07
-1.00176e-07
1.05944e-06
-6.62331e-07
-4.44183e-07
-2.98034e-07
7.42217e-07
4.31511e-07
-7.68081e-07
3.36569e-07
1.08586e-06
-5.91028e-07
-4.84767e-07
-1.09168e-07
2.27744e-07
1.18253e-06
-5.17295e-07
-7.12049e-07
5.41984e-07
1.70606e-08
-5.37839e-08
1.00822e-06
-1.1084e-06
1.08079e-07
2.0755e-07
3.91963e-07
6.04691e-07
-8.07812e-07
-1.16254e-07
2.82344e-07
8.26397e-07
1.71103e-07
-8.26346e-07
6.55243e-07
-3.40975e-07
1.02607e-06
-6.8509e-07
9.37425e-07
-5.05914e-07
7.65794e-07
-1.2293e-06
2.15389e-07
-3.30259e-07
4.99464e-07
-7.88116e-07
5.56436e-07
-2.54985e-07
-1.77301e-07
6.16781e-07
6.81667e-07
-9.79701e-07
-6.12974e-07
1.06807e-06
-1.08065e-06
3.40708e-07
-1.12398e-06
4.61654e-07
1.18593e-06
-1.7771e-07
9.10375e-07
-6.949e-07
-4.7024e-07
1.16514e-06
-8.50693e-07
5.53645e-07
-1.21219e-06
-5.55825e-07
-3.37094e-07
-1.16895e-06
5.77918e-07
4.85422e-07
3.96263e-07
-1.19569e-06
-6.24521e-07
-6.88688e-07
-2.46132e-07
5.42611e-07
7.4332e-07
2.79055e-07
-1.02237e-06
5.959e-07
-4.24797e-07
3.43684e-07
-1.28294e-07
1.02566e-06
5.47291e-07
1.94926e-07
-1.22399e-07
7.71742e-07
-6.49343e-07
-8.50167e-07
9.58246e-07
4.46401e-07
-5.52166e-07
7.07759e-07
-8.98286e-07
8.44502e-07
-2.26795e-07
8.82037e-07
9.86514e-07
-2.22712e-07
9.11538e-07
-7.08162e-07
-2.03892e-07
9.12054e-07
8.33032e-07
-1.22659e-06
7.54401e-07
-9.31703e-07
-5.6785e-07
6.8382e-07
-1.1597e-07
4.20212e-07
-9.30874e-07
-2.94257e-07
6.65406e-07
5.75556e-07
-6.51539e-07
-3.16217e-07
-7.98869e-07
1.00642e-06
-8.8103e-07
8.98091e-07
2.33757e-07
-1.76473e-07
-7.81708e-07
4.67005e-07
3.14702e-07
3.18438e-07
1.56252e-07
-5.84756e-07
8.94974e-07
-3.10218e-07
7.72155e-08
1.94608e-10
-8.04074e-07
8.0388e-07
-1.0637e-06
3.75011e-07
8.9439e-07
-3.40745e-07
-3.9635e-07
1.14008e-06
-5.62158e-07
1.30986e-07
-8.41246e-07
-6.02044e-07
-3.49583e-07
1.1493e-06
5.44807e-07
-9.16971e-07
8.00716e-07
-9.25501e-07
5.15555e-07
6.32971e-07
-9.27228e-07
-7.24692e-08
3.74633e-07
5.20341e-07
-4.80014e-07
8.01676e-07
-3.21662e-07
2.61822e-07
6.50232e-07
-7.90233e-07
-4.26676e-07
-2.9253e-07
2.91767e-07
8.77256e-07
-1.19347e-06
2.0793e-07
4.7589e-07
9.1944e-07
-4.46777e-07
-4.60644e-07
9.0742e-07
8.3532e-08
-5.68299e-07
-8.75366e-07
4.95196e-07
7.57714e-07
-8.30183e-07
-5.40198e-08
6.29576e-07
3.55324e-07
-7.37335e-07
3.82011e-07
-1.07111e-07
-5.44427e-07
1.22331e-06
4.13461e-07
5.0598e-07
-3.62195e-07
-4.46758e-07
8.80466e-07
3.13853e-07
4.87823e-07
-8.34141e-07
4.71946e-07
-8.93534e-07
-8.58094e-07
5.25716e-07
-1.70392e-07
-6.2127e-07
-7.80879e-07
-3.87555e-07
-8.8799e-07
7.31738e-07
1.50299e-07
-8.58162e-07
5.65632e-07
-3.94622e-07
-4.80744e-07
-2.63037e-08
-2.24601e-07
-6.23928e-07
4.19822e-07
-3.41951e-07
8.37147e-07
2.54337e-07
-2.11417e-07
-4.46639e-07
-3.87501e-07
-6.42303e-07
7.9796e-07
-5.77345e-07
8.34194e-07
-4.22633e-07
-2.72958e-08
3.00736e-07
2.2498e-07
-3.03687e-07
8.01833e-07
6.11248e-07
-3.65997e-07
-2.45251e-07
3.07561e-07
4.07211e-07
-3.0769e-07
8.9079e-07
-5.831e-07
7.07948e-07
9.22401e-07
-1.71676e-07
-8.03161e-07
6.85727e-07
-2.09837e-07
7.94909e-07
4.61126e-07
5.37623e-07
-4.36402e-07
4.956e-07
3.41547e-07
-6.19787e-07
-2.66862e-07
-1.00455e-07
-1.10961e-07
3.56212e-07
-1.31232e-07
1.33302e-07
-8.57592e-07
2.37805e-07
2.03819e-07
2.69458e-07
7.88924e-07
-2.01525e-07
9.05649e-07
-2.9607e-07
-8.79171e-07
7.82941e-07
-5.45137e-07
-1.40638e-07
-1.57439e-07
6.98461e-07
-5.41022e-07
-9.23469e-07
-8.37343e-08
1.65376e-07
1.62398e-07
-1.0217e-06
-2.75224e-07
-2.04872e-08
-7.5649e-07
4.87324e-07
-9.51694e-08
1.80373e-07
1.76217e-07
-3.60264e-08
-2.56512e-07
1.16924e-07
1.31376e-07
1.37613e-07
1.32531e-07
3.01222e-07
5.07175e-07
-1.39665e-08
5.7088e-08
-4.31215e-08
-8.16297e-07
-2.6679e-07
5.95954e-07
-1.87633e-07
6.15536e-08
1.22144e-07
9.55888e-08
4.5304e-07
-7.66629e-07
-3.70423e-07
1.19772e-07
6.39259e-08
-6.50601e-08
-6.61721e-08
2.99691e-07
6.82417e-08
-7.92517e-07
1.65788e-07
-2.0515e-08
-9.00031e-07
-1.39588e-07
4.32599e-07
-3.98389e-08
2.58724e-08
4.63818e-07
-3.99895e-07
-2.32879e-07
-6.14117e-07
5.304e-07
1.99167e-07
6.02764e-07
-3.11534e-07
-1.03342e-06
-6.1683e-08
-8.82404e-07
1.70329e-07
2.61016e-07
-8.02241e-07
8.69468e-08
-1.27638e-07
5.13193e-08
1.64681e-07
7.36198e-08
-1.05404e-07
-2.0613e-07
-3.53026e-07
2.15335e-07
-6.33799e-07
-1.42132e-07
-7.75372e-08
2.99285e-07
-5.42418e-07
-6.10265e-07
3.54048e-07
6.3121e-07
1.79242e-07
-1.30788e-07
-4.84546e-08
4.45611e-08
1.01959e-07
-7.39234e-08
-5.93779e-08
-3.8623e-07
-9.92168e-08
4.45611e-08
-3.10574e-07
2.35908e-07
-7.01202e-08
4.96605e-08
-1.41959e-07
3.06406e-07
-1.14293e-07
5.52038e-07
-5.25735e-07
-4.25645e-08
8.26422e-07
-1.26281e-07
-2.83561e-07
2.26576e-07
5.69844e-08
-1.28185e-07
-1.76745e-07
-1.5103e-07
-3.5498e-07
-1.61191e-07
-6.79974e-08
-1.36093e-07
1.0631e-06
3.73716e-07
2.14774e-07
5.10275e-07
-5.17933e-08
1.05114e-07
-4.39824e-07
-1.33367e-07
4.121e-08
4.39824e-07
1.33367e-07
2.54657e-07
5.10275e-07
1.51943e-07
-7.11475e-07
4.07389e-07
7.05563e-07
-4.59712e-07
4.10592e-07
1.53227e-08
-4.41549e-08
-4.39282e-08
-1.37223e-08
1.19527e-07
-1.59725e-07
-1.4686e-07
-7.22622e-08
1.53227e-08
-7.67744e-08
-2.10338e-08
1.13364e-07
3.15826e-08
5.37383e-08
-1.13992e-08
-2.32791e-10
-1.19527e-07
-2.31361e-08
1.59725e-07
-1.70619e-08
1.4686e-07
-5.2536e-08
-5.37383e-08
-4.05858e-08
1.13992e-08
7.67744e-08
-4.39282e-08
1.13364e-07
-5.88443e-08
-5.54403e-07
1.17222e-07
-3.26597e-07
6.18364e-07
3.20733e-07
-4.47015e-07
1.33281e-07
-9.99234e-08
1.60427e-07
8.34624e-07
-4.90429e-07
3.31295e-07
-4.12945e-07
-9.99234e-08
1.74504e-07
-4.43148e-07
5.19094e-07
-5.31617e-07
6.26118e-07
-1.63298e-07
1.83508e-08
1.63298e-07
-3.80256e-07
3.43173e-07
3.70837e-08
-7.71264e-07
-2.04608e-07
3.31537e-07
-6.46532e-07
2.65763e-07
4.97848e-07
-5.96633e-07
-4.49439e-07
3.33469e-07
-4.99983e-08
1.29814e-07
3.34632e-07
1.63685e-07
-3.69983e-07
4.22765e-07
1.83933e-07
-5.44227e-07
5.44227e-07
-2.75677e-07
-4.90107e-07
-3.54336e-07
3.34632e-07
4.18722e-07
-3.28305e-07
3.85718e-07
-1.59235e-07
-2.3656e-07
2.01551e-07
-3.96478e-07
7.13282e-07
-4.79225e-07
-1.73054e-07
1.73054e-07
6.55168e-08
-1.77827e-07
-6.29431e-08
6.29431e-08
-8.67446e-07
8.67446e-07
-1.78763e-07
5.49337e-09
3.49202e-07
-3.66038e-07
-5.50911e-08
4.21129e-07
4.88735e-07
-4.88735e-07
-4.16985e-08
1.0319e-07
2.67699e-07
-5.21156e-08
-7.08092e-07
1.45338e-07
2.9227e-08
1.28276e-07
-4.49668e-07
-5.55586e-07
-1.14781e-07
-1.7018e-08
-1.07733e-07
-7.51438e-08
3.22614e-08
8.13438e-08
8.92899e-09
2.33324e-08
-8.77361e-07
-2.26702e-08
-1.89723e-07
-2.03435e-07
-4.78575e-07
1.51978e-07
1.64681e-07
2.93028e-08
1.7775e-07
6.82901e-08
-1.3077e-07
1.56254e-07
-1.56254e-07
-6.15646e-08
5.06107e-07
-4.85207e-07
1.51782e-08
-1.00742e-07
1.00742e-07
-7.6767e-07
-4.16036e-07
-1.2655e-10
-1.39462e-07
-2.27408e-07
-2.42752e-07
3.74414e-07
-1.31663e-07
-4.18567e-07
8.44237e-08
3.34143e-07
-1.59209e-09
1.27237e-07
4.6098e-07
-4.61107e-07
-3.20078e-07
-2.74593e-08
2.74593e-08
1.73497e-07
3.87866e-07
-2.96666e-07
2.10311e-07
4.46335e-09
6.55322e-10
1.77937e-07
4.09772e-08
-2.4507e-07
2.7789e-07
-5.20641e-07
-3.01122e-07
-6.87003e-07
6.6782e-07
7.02195e-08
-2.3141e-07
2.02415e-08
1.87529e-07
-1.90265e-07
2.41584e-07
1.14781e-07
1.52932e-07
3.21819e-08
-3.01887e-07
9.97124e-08
5.322e-08
5.43289e-07
-8.45176e-07
2.89024e-07
9.04755e-08
-2.86716e-08
5.24074e-07
3.41345e-08
3.28917e-07
3.46509e-11
-5.43324e-07
1.71253e-07
-5.0591e-08
4.34766e-07
-6.83087e-08
-1.95575e-08
5.26933e-07
-5.54229e-07
3.88737e-07
-2.68103e-08
1.15142e-07
-2.63408e-08
5.64016e-07
9.96165e-08
-2.97982e-07
1.03153e-07
1.58651e-07
-5.6272e-07
4.24261e-07
3.79092e-07
-2.27113e-07
3.26556e-07
-1.13253e-07
1.04903e-07
5.06277e-08
-2.48694e-07
-8.2009e-07
1.31794e-07
-2.74613e-07
5.84776e-08
5.54923e-08
4.80672e-08
7.15708e-08
-1.08719e-07
1.23185e-07
3.22191e-08
2.09365e-07
-2.58672e-08
2.51183e-07
)
;

boundaryField
{
    back
    {
        type            empty;
        value           nonuniform List<scalar> 0();
    }
    front
    {
        type            empty;
        value           nonuniform List<scalar> 0();
    }
    top
    {
        type            calculated;
        value           nonuniform List<scalar> 10(-3.27775e-07 -3.5659e-07 -2.70144e-07 -1.83698e-07 -1.83698e-07 -2.70144e-07 -3.27775e-07 -6.84365e-08 -6.84365e-08 -3.5659e-07);
    }
    outer_arc
    {
        type            calculated;
        value           uniform 0;
    }
    bottom
    {
        type            calculated;
        value           nonuniform List<scalar> 10(1.0072e-06 7.76977e-07 2.92539e-07 -2.48301e-07 -8.08397e-07 1.08309e-06 -5.48629e-07 1.13705e-06 -1.21665e-06 9.38403e-07);
    }
    inner_arc
    {
        type            calculated;
        value           uniform 0;
    }
}


// ************************************************************************* //
