/*--------------------------------*- C++ -*----------------------------------*\
  =========                 |
  \\      /  F ield         | OpenFOAM: The Open Source CFD Toolbox
   \\    /   O peration     | Website:  https://openfoam.org
    \\  /    A nd           | Version:  9
     \\/     M anipulation  |
\*---------------------------------------------------------------------------*/
FoamFile
{
    format      ascii;
    class       volScalarField;
    location    "1.52";
    object      p;
}
// * * * * * * * * * * * * * * * * * * * * * * * * * * * * * * * * * * * * * //

dimensions      [0 2 -2 0 0 0 0];

internalField   nonuniform List<scalar> 
1655
(
13.0503
13.062
13.0474
13.0511
13.0536
13.0553
13.0465
13.0391
13.0224
13.0539
13.0496
13.0495
13.0409
13.0649
13.0268
13.0475
13.0242
13.0231
13.0548
13.0652
13.0535
13.0222
13.0487
13.0495
13.0499
13.033
13.0517
13.0277
13.0296
13.0561
13.0423
13.0479
13.0649
13.0487
13.0242
13.0486
13.0552
13.0629
13.0652
13.0611
13.0541
13.0508
13.0657
13.0544
13.0645
13.0511
13.0509
13.0644
13.0551
13.0657
13.0552
13.0477
13.0262
13.0256
13.0229
13.0347
13.0555
13.0499
13.051
13.0345
13.0426
13.055
13.0503
13.0383
13.0534
13.0444
13.0523
13.05
13.024
13.0509
13.0499
13.0457
13.0542
13.0251
13.0459
13.0643
13.0313
13.0252
13.0559
13.0553
13.053
13.0646
13.0216
13.0542
13.056
13.0361
13.047
13.0538
13.0562
13.0382
13.0412
13.0482
13.0547
13.0553
13.0636
13.0549
13.0526
13.0506
13.0487
13.0625
13.048
13.0531
13.0552
13.0535
13.0203
13.055
13.0372
13.0565
13.0624
13.0381
13.0641
13.0498
13.0407
13.0565
13.0409
13.0387
13.0391
13.0511
13.0548
13.0208
13.0414
13.0462
13.0439
13.0518
13.0526
13.0441
13.0659
13.0631
13.0418
13.0585
13.0551
13.0638
13.0387
13.0454
13.0563
13.0598
13.0529
13.0282
13.0556
13.0519
13.0319
13.0523
13.0441
13.0454
13.0277
13.0444
13.0468
13.0407
13.0462
13.0352
13.0388
13.031
13.0431
13.0414
13.0342
13.0662
13.0533
13.0469
13.0391
13.0534
13.0475
13.0516
13.0261
13.0467
13.0467
13.0504
13.0277
13.0429
13.0533
13.0235
13.031
13.0258
13.0468
13.033
13.0551
13.035
13.0553
13.0237
13.0579
13.0662
13.0354
13.026
13.0551
13.0519
13.0635
13.0595
13.0646
13.0588
13.026
13.0275
13.0652
13.0549
13.0267
13.0467
13.0607
13.0566
13.0263
13.0598
13.0564
13.0275
13.0517
13.0517
13.0452
13.0452
13.0509
13.0522
13.0648
13.0272
13.0592
13.0477
13.0468
13.0464
13.0611
13.043
13.0663
13.0519
13.0483
13.0528
13.0455
13.0291
13.0649
13.0533
13.065
13.0335
13.0648
13.0617
13.0581
13.0479
13.0439
13.0432
13.0645
13.0403
13.0398
13.0253
13.0647
13.0647
13.0617
13.027
13.0562
13.036
13.0328
13.0639
13.0354
13.0558
13.0335
13.0533
13.0379
13.0283
13.0576
13.0313
13.0545
13.0553
13.0554
13.047
13.0648
13.0461
13.0622
13.0362
13.0212
13.065
13.0508
13.0556
13.0546
13.0455
13.0541
13.0428
13.0651
13.0664
13.0646
13.0659
13.0255
13.0257
13.0649
13.0559
13.0255
13.027
13.0368
13.0368
13.023
13.0411
13.0253
13.0446
13.027
13.0267
13.0272
13.0269
13.0267
13.0639
13.0648
13.0262
13.0271
13.0553
13.065
13.028
13.0276
13.0646
13.0382
13.0448
13.0555
13.0601
13.0637
13.0553
13.0553
13.0646
13.0475
13.0245
13.0638
13.0565
13.0299
13.0423
13.0279
13.0315
13.0565
13.048
13.041
13.0295
13.055
13.0244
13.0338
13.0628
13.0262
13.0643
13.0641
13.0652
13.0642
13.0508
13.0506
13.0428
13.0613
13.0546
13.0648
13.0276
13.0648
13.0533
13.0285
13.0508
13.0548
13.0649
13.0574
13.0272
13.0634
13.0628
13.0267
13.0422
13.0282
13.0642
13.0651
13.0648
13.0634
13.0537
13.0459
13.0537
13.0416
13.0644
13.0263
13.0296
13.0615
13.0542
13.0358
13.0252
13.0296
13.0648
13.0262
13.0302
13.0638
13.0308
13.0604
13.0494
13.029
13.0644
13.0647
13.0646
13.0646
13.043
13.0517
13.0338
13.0535
13.0411
13.0647
13.0629
13.0644
13.0354
13.0445
13.0303
13.0638
13.0281
13.0344
13.0345
13.0278
13.0447
13.0535
13.0549
13.0539
13.0298
13.061
13.0331
13.0228
13.027
13.0284
13.0543
13.0465
13.0637
13.0359
13.0447
13.0543
13.0648
13.0296
13.0541
13.0631
13.0537
13.054
13.0338
13.0249
13.054
13.065
13.0339
13.0315
13.0383
13.0267
13.0263
13.0545
13.0319
13.0485
13.0209
13.0357
13.0365
13.0378
13.0576
13.0498
13.0502
13.0638
13.0497
13.0275
13.0547
13.0313
13.0416
13.0636
13.0491
13.0548
13.037
13.0483
13.0156
13.0548
13.0164
13.0184
13.039
13.0504
13.0547
13.0501
13.055
13.0498
13.0462
13.0492
13.0248
13.0495
13.0235
13.0539
13.0148
13.0505
13.0491
13.0436
13.0183
13.0401
13.0474
13.0547
13.0444
13.019
13.0168
13.0256
13.043
13.0456
13.0643
13.0267
13.0541
13.0469
13.0454
13.0472
13.0445
13.0325
13.0493
13.0211
13.0531
13.0293
13.0491
13.0455
13.0268
13.0491
13.0495
13.0532
13.053
13.0467
13.0501
13.0326
13.0517
13.0486
13.0435
13.0389
13.0492
13.0426
13.051
13.0502
13.0472
13.0487
13.0487
13.0362
13.0497
13.049
13.0496
13.0477
13.0492
13.0536
13.0493
13.053
13.046
13.0489
13.0515
13.0482
13.0452
13.0411
13.0436
13.0432
13.0404
13.0479
13.0479
13.0423
13.0371
13.0503
13.0491
13.0465
13.0458
13.0507
13.0497
13.0528
13.0519
13.055
13.0604
13.0553
13.0499
13.0535
13.0508
13.0547
13.0459
13.0549
13.0513
13.0555
13.0553
13.051
13.0521
13.0466
13.0537
13.0499
13.0483
13.0247
13.0499
13.0473
13.0381
13.0441
13.0474
13.052
13.0495
13.046
13.0528
13.0348
13.0472
13.0546
13.0439
13.0453
13.0233
13.0486
13.0462
13.0491
13.0488
13.0457
13.0534
13.0473
13.0457
13.0489
13.053
13.0415
13.0398
13.0504
13.0507
13.0541
13.045
13.0525
13.0511
13.0487
13.0415
13.0507
13.0402
13.0478
13.0427
13.0439
13.0451
13.0389
13.0428
13.0494
13.0449
13.0462
13.0486
13.0473
13.035
13.0478
13.0494
13.03
13.0262
13.0424
13.0377
13.054
13.0408
13.0471
13.0486
13.0376
13.0378
13.0469
13.0483
13.0385
13.05
13.0353
13.0449
13.0402
13.0416
13.0356
13.048
13.0405
13.0531
13.0427
13.0438
13.0449
13.0506
13.0389
13.05
13.046
13.0515
13.0495
13.047
13.0507
13.0503
13.0481
13.0446
13.0495
13.0493
13.0376
13.0504
13.0492
13.0549
13.0472
13.0512
13.0502
13.0306
13.048
13.0484
13.042
13.0451
13.0452
13.0495
13.0427
13.0491
13.0438
13.0407
13.0464
13.0479
13.0519
13.0442
13.0377
13.0481
13.0525
13.0496
13.0507
13.0486
13.0469
13.0467
13.0527
13.0513
13.0527
13.0512
13.0506
13.0542
13.0478
13.053
13.0499
13.0488
13.0513
13.0395
13.0508
13.0374
13.0499
13.0517
13.0492
13.049
13.0509
13.0523
13.0541
13.0496
13.0482
13.0496
13.0528
13.0483
13.0486
13.0493
13.0414
13.0486
13.0494
13.0514
13.0513
13.0521
13.0528
13.0429
13.0501
13.0499
13.0345
13.0484
13.035
13.0433
13.044
13.0531
13.0534
13.0522
13.0411
13.0319
13.0487
13.0504
13.0295
13.0424
13.0465
13.0311
13.0503
13.0534
13.0469
13.0532
13.0299
13.0547
13.0509
13.0494
13.0546
13.0532
13.0509
13.0517
13.0513
13.0524
13.0355
13.0549
13.0493
13.0282
13.0498
13.0501
13.0511
13.0485
13.0531
13.0518
13.0514
13.053
13.0506
13.0289
13.0321
13.0544
13.054
13.0517
13.0431
13.0543
13.0317
13.033
13.0517
13.0544
13.0498
13.0528
13.0522
13.0325
13.0518
13.0495
13.0294
13.0536
13.0541
13.0492
13.0449
13.0476
13.05
13.0509
13.0493
13.0492
13.0525
13.0523
13.0521
13.052
13.0477
13.0485
13.0547
13.0441
13.0515
13.0467
13.054
13.0291
13.0506
13.0506
13.0533
13.0648
13.0447
13.0532
13.0548
13.0537
13.0549
13.0544
13.054
13.054
13.0403
13.0457
13.0526
13.0551
13.0244
13.0547
13.0457
13.0533
13.0165
13.0545
13.0503
13.0216
13.0536
13.0526
13.0542
13.0269
13.05
13.0537
13.0491
13.0553
13.0486
13.0272
13.053
13.0512
13.0529
13.0532
13.0515
13.0536
13.0501
13.053
13.053
13.0535
13.0532
13.0519
13.0547
13.0533
13.0263
13.0526
13.0249
13.0549
13.055
13.053
13.0231
13.0535
13.0547
13.0532
13.052
13.0528
13.0508
13.0524
13.0535
13.0549
13.0565
13.0527
13.051
13.051
13.0549
13.0508
13.0515
13.019
13.0531
13.0528
13.0551
13.0518
13.0524
13.0516
13.0521
13.0536
13.0479
13.0526
13.0506
13.055
13.0528
13.058
13.0476
13.0306
13.0555
13.0477
13.0284
13.0496
13.0544
13.0493
13.0543
13.0524
13.0519
13.0539
13.0544
13.0312
13.0622
13.053
13.0549
13.0472
13.0397
13.0476
13.0535
13.0311
13.0541
13.0522
13.0592
13.0541
13.0551
13.0535
13.0535
13.0547
13.0544
13.0562
13.0537
13.0204
13.0261
13.0462
13.0538
13.0529
13.0535
13.0321
13.0544
13.0579
13.0504
13.0539
13.0537
13.0484
13.0533
13.0539
13.0398
13.0558
13.0532
13.0493
13.0509
13.0645
13.0484
13.0531
13.0543
13.0594
13.0532
13.0535
13.0411
13.0504
13.054
13.0194
13.0538
13.0495
13.0493
13.0537
13.0483
13.0542
13.0643
13.0532
13.0536
13.0538
13.0501
13.0487
13.0216
13.0643
13.051
13.0506
13.0515
13.0542
13.0499
13.05
13.0527
13.0513
13.0325
13.0644
13.0405
13.0511
13.0255
13.0648
13.0314
13.0545
13.0625
13.0538
13.0503
13.0537
13.0645
13.0509
13.0535
13.0547
13.0521
13.0482
13.065
13.0226
13.0614
13.0529
13.0485
13.052
13.0491
13.0473
13.0624
13.0539
13.054
13.05
13.0575
13.051
13.0236
13.0496
13.0538
13.0488
13.0512
13.0518
13.0573
13.0499
13.048
13.0505
13.0596
13.0413
13.0645
13.0644
13.0628
13.0513
13.0495
13.0641
13.0535
13.046
13.0458
13.061
13.0619
13.0593
13.0431
13.0122
13.042
13.0468
13.0603
13.0649
13.0483
13.0643
13.044
13.0593
13.0278
13.0583
13.0288
13.0612
13.0644
13.0645
13.0295
13.0475
13.0644
13.0548
13.0636
13.0163
13.0546
13.0408
13.0595
13.0647
13.0625
13.0452
13.0301
13.0649
13.0487
13.0649
13.0641
13.0639
13.0315
13.027
13.0626
13.0418
13.0423
13.0237
13.0193
13.0625
13.0548
13.0645
13.0414
13.0482
13.0636
13.0457
13.053
13.0411
13.0386
13.0632
13.0642
13.0519
13.0386
13.0637
13.0452
13.0392
13.0117
13.0518
13.0294
13.0374
13.05
13.0384
13.0304
13.0434
13.036
13.033
13.0186
13.0651
13.0523
13.0513
13.0457
13.0442
13.0485
13.0482
13.0305
13.0542
13.0196
13.0638
13.0374
13.055
13.0341
13.0445
13.0273
13.0362
13.0548
13.0493
13.0323
13.0633
13.0429
13.0486
13.0505
13.0572
13.055
13.0634
13.0587
13.0515
13.0364
13.0343
13.0524
13.055
13.0455
13.0207
13.0349
13.0294
13.0518
13.0436
13.045
13.0487
13.0476
13.0579
13.0403
13.0638
13.0324
13.0537
13.057
13.0407
13.0439
13.036
13.0536
13.042
13.0499
13.045
13.0407
13.0542
13.0454
13.0543
13.0192
13.0406
13.0421
13.0515
13.0388
13.0482
13.0518
13.0497
13.0524
13.063
13.0343
13.0567
13.0662
13.0398
13.0373
13.032
13.05
13.0489
13.0371
13.0389
13.0492
13.0527
13.0527
13.053
13.0411
13.0345
13.0388
13.0527
13.0563
13.0537
13.0261
13.0504
13.052
13.0646
13.0532
13.0201
13.0425
13.0441
13.0389
13.0274
13.0501
13.053
13.0161
13.052
13.0348
13.0368
13.04
13.0364
13.026
13.0369
13.0637
13.0545
13.0541
13.0466
13.0491
13.0496
13.057
13.0141
13.0428
13.0168
13.045
13.0667
13.051
13.0264
13.0252
13.0479
13.0146
13.0308
13.0321
13.0369
13.0445
13.0532
13.0538
13.0541
13.0643
13.043
13.0572
13.0553
13.0539
13.0418
13.033
13.061
13.0536
13.0494
13.0547
13.0551
13.0382
13.055
13.0244
13.0439
13.0282
13.0541
13.0225
13.0494
13.0389
13.0545
13.0549
13.0122
13.0543
13.0563
13.047
13.0229
13.0508
13.0121
13.0322
13.0642
13.0508
13.021
13.0293
13.0224
13.0372
13.0563
13.0212
13.0175
13.0146
13.0118
13.0147
13.0449
13.0548
13.0384
13.064
13.0456
13.0496
13.0209
13.0511
13.0512
13.0166
13.0666
13.0477
13.0617
13.0515
13.0616
13.0502
13.0392
13.0171
13.0518
13.0545
13.0546
13.0508
13.031
13.0122
13.0201
13.0606
13.0259
13.0214
13.0621
13.0232
13.0514
13.0225
13.0566
13.0198
13.0204
13.0367
13.0541
13.0538
13.055
13.0532
13.0528
13.0512
13.0537
13.0242
13.0482
13.0462
13.057
13.053
13.0509
13.0319
13.0365
13.0521
13.0257
13.0516
13.05
13.0288
13.0515
13.02
13.0519
13.0379
13.0523
13.052
13.0352
13.0252
13.0232
13.0654
13.0536
13.0203
13.0659
13.0335
13.0172
13.0546
13.0539
13.05
13.055
13.0552
13.0534
13.0498
13.0547
13.0549
13.0552
13.0549
13.0507
13.0532
13.0495
13.0545
13.0542
13.0501
13.055
13.0552
13.0533
13.0505
13.0499
13.0548
13.0475
13.0523
13.0396
13.0564
13.05
13.0512
13.0528
13.0609
13.0575
13.0527
13.0659
13.0602
13.0354
13.0438
13.0523
13.0514
13.0301
13.0655
13.0647
13.0516
13.0583
13.0507
13.0545
13.0643
13.0306
13.0586
13.0611
13.0498
13.0552
13.0636
13.0208
13.0518
13.0514
13.06
13.0645
13.0342
13.0653
13.0546
13.024
13.0481
13.0664
13.0329
13.0641
13.0225
13.0644
13.0523
13.0543
13.0502
13.0203
13.0487
13.0642
13.0506
13.035
13.0317
13.0541
13.061
13.055
13.0469
13.0636
13.0553
13.0317
13.0501
13.0637
13.0639
13.0631
13.044
13.0543
13.0648
13.0646
13.0532
13.0658
13.05
13.0534
13.0546
13.064
13.0644
13.0486
13.0514
13.0513
13.0594
13.0202
13.0192
13.0498
13.0639
13.063
13.0633
13.0522
13.0191
13.0331
13.0578
13.046
13.0533
13.0491
13.0536
13.0564
13.0663
13.02
13.0531
13.0535
13.0548
13.0519
13.0294
13.0469
13.0553
13.0665
13.0553
13.0306
13.0564
13.02
13.063
13.0465
13.0666
13.0533
13.0447
13.0616
13.0522
13.0519
13.0667
13.0646
13.0503
13.026
13.0639
13.0548
13.0594
13.0224
13.0552
13.0255
13.0636
13.022
13.0534
13.0483
13.0303
13.0658
13.0549
13.0471
13.0535
13.0485
13.0541
13.0553
13.0549
13.0542
13.0551
13.0546
13.0519
13.0521
13.0204
13.0564
13.0514
13.0526
13.0517
13.0513
13.0316
13.0214
13.0502
13.0553
13.0331
13.0643
13.0642
13.0527
13.0521
13.0516
13.0646
13.0546
13.0594
13.0583
13.054
13.0647
13.0636
13.0242
13.0505
13.0436
13.0492
13.0589
13.0207
13.0642
13.0413
13.0241
13.0236
13.0511
13.0653
13.0255
13.0553
13.0545
13.0629
13.0447
13.0546
13.0551
13.05
13.0648
13.0633
13.0472
13.0532
13.0546
13.0524
13.0647
13.0631
13.0412
13.035
13.0553
13.0641
13.0442
13.0618
13.0548
13.0494
13.0228
13.0426
13.0633
13.0211
13.051
13.0498
13.0473
13.0661
13.0338
13.0518
13.051
13.0549
13.0327
13.0521
13.0237
13.0644
13.0474
13.0193
13.062
13.0379
13.0521
13.0636
13.0665
13.0221
13.0538
13.0528
13.058
13.047
13.0492
13.0635
13.0519
13.0154
13.0497
13.0519
13.0561
13.0364
13.0199
13.0356
13.055
13.0203
13.0537
13.0629
13.0648
13.0284
13.0538
13.0549
13.0645
13.027
13.063
13.0515
13.0211
13.0342
13.0665
13.0304
13.0635
13.0543
13.0322
13.0534
13.0573
13.0476
13.0657
13.0481
13.0479
13.0545
13.0667
13.0524
13.0516
13.0513
13.0523
13.0549
13.0487
13.0516
13.0537
13.0532
13.0665
13.0512
13.0326
13.0665
13.0531
13.0254
13.0638
13.052
13.0535
13.0453
13.0647
13.0466
13.0207
13.0628
13.0468
13.0634
13.0526
13.0209
)
;

boundaryField
{
    back
    {
        type            empty;
    }
    front
    {
        type            empty;
    }
    top
    {
        type            zeroGradient;
    }
    outer_arc
    {
        type            zeroGradient;
    }
    bottom
    {
        type            uniformFixedValue;
        uniformValue    
        {
            type            table;
            format          csv;
            file            "outlet_p.csv";
            nHeaderLine     1;
            refColumn       0;
            componentColumns List<label> 1(1);
            separator       ",";
            mergeSeparators 0;
        }
        value           uniform 13.0194;
    }
    inner_arc
    {
        type            zeroGradient;
    }
}


// ************************************************************************* //
