/*--------------------------------*- C++ -*----------------------------------*\
  =========                 |
  \\      /  F ield         | OpenFOAM: The Open Source CFD Toolbox
   \\    /   O peration     | Website:  https://openfoam.org
    \\  /    A nd           | Version:  9
     \\/     M anipulation  |
\*---------------------------------------------------------------------------*/
FoamFile
{
    format      ascii;
    class       volVectorField;
    location    "0.25";
    object      U;
}
// * * * * * * * * * * * * * * * * * * * * * * * * * * * * * * * * * * * * * //

dimensions      [0 1 -1 0 0 0 0];

internalField   nonuniform List<vector> 
1655
(
(0.163166 -0.108018 -5.14419e-18)
(0.0314168 -0.0516127 3.41926e-17)
(0.244535 0.0568237 2.7478e-17)
(0.13436 -0.030456 -1.65078e-17)
(0.140223 0.192851 0)
(0.184386 0.130021 1.03424e-17)
(0.215172 0.0405646 0)
(0.0578081 0.245012 -1.85168e-17)
(0.088497 0.313718 0)
(0.14116 0.185258 -8.99182e-18)
(0.207228 -0.10015 4.10406e-17)
(0.202801 -0.104979 -4.04392e-17)
(0.0426566 0.152439 -2.0305e-21)
(0.0244502 -0.149463 -2.13585e-17)
(0.11751 0.193245 2.11472e-17)
(0.0676983 -0.0974728 0)
(0.00245836 0.00455013 3.72951e-17)
(0.157623 0.289762 1.09372e-17)
(0.213514 0.0893154 -4.12e-17)
(0.0191834 -0.107556 -1.18906e-17)
(0.0529327 -0.162552 4.80889e-18)
(0.0825872 0.330418 0)
(0.105621 0.226057 -2.22605e-17)
(0.101626 0.215569 1.03332e-17)
(0.175411 -0.113786 -6.4485e-18)
(0.0163499 -0.000839314 -4.41835e-17)
(0.0376764 -0.0674057 -1.91349e-17)
(0.0694245 0.317081 -2.21479e-17)
(0.0645211 0.31443 2.97958e-17)
(0.00540342 -0.145634 -2.12323e-17)
(0.152865 0.0128999 5.3712e-17)
(0.297439 0.0694921 -5.64878e-18)
(0.0315666 -0.365654 -7.72586e-18)
(0.250761 0.11928 0)
(0.160435 0.288361 0)
(0.251933 0.1336 0)
(0.190613 0.139245 -2.76594e-17)
(0.0486394 -0.0811585 0)
(0.0253478 -0.353863 -1.05562e-17)
(0.0561737 -0.0821229 -3.6911e-17)
(0.0359067 -0.112323 2.07058e-17)
(0.115304 0.215773 1.79856e-17)
(0.0243898 -0.321413 -1.10869e-17)
(0.223842 0.0708933 3.26252e-17)
(0.0548391 -0.135312 0)
(0.197257 -0.0465501 0)
(0.194002 -0.0323782 5.1323e-17)
(0.0451473 -0.102003 0)
(0.168214 0.162389 2.00131e-17)
(0.0270977 -0.305452 2.69803e-18)
(0.197895 0.133721 3.07728e-17)
(0.279928 0.0541993 -2.03584e-17)
(0.0601479 0.0862905 -2.28552e-17)
(0.0870344 0.307545 1.9817e-17)
(0.132208 0.292619 -2.54604e-17)
(0.18327 0.237207 0)
(-0.00281522 -0.0104844 -1.0092e-17)
(0.194559 -0.0883389 0)
(0.241208 -0.0694753 0)
(0.155142 0.194006 2.17916e-17)
(0.133306 0.0135886 -5.35803e-17)
(0.201748 0.106114 0)
(0.167859 -0.118702 0)
(0.071301 0.27292 -5.10775e-18)
(0.255399 0.0538421 0)
(0.204851 0.0128876 0)
(0.266246 0.00715599 4.75628e-17)
(0.215354 -0.0860885 -2.35853e-17)
(0.164884 0.292716 0)
(0.10688 0.206603 -2.0565e-17)
(0.195662 -0.0811652 2.61907e-17)
(0.227409 0.026398 -1.25321e-18)
(0.0407658 -0.213138 -1.31735e-18)
(0.151859 0.24229 1.92779e-17)
(0.168389 0.0603348 -2.4702e-17)
(0.044098 -0.132646 1.16688e-17)
(0.0588887 0.291697 -6.77252e-18)
(0.166577 0.289593 0)
(0.0246733 -0.0737261 0)
(0.0142793 -0.149319 0)
(0.253316 0.0471992 2.60582e-17)
(0.0354022 -0.108766 -1.18644e-17)
(0.133269 0.297862 2.60114e-17)
(0.23816 0.0712617 1.31083e-17)
(0.025985 -0.235509 0)
(0.185721 0.271193 0)
(0.185579 0.0655182 -1.48783e-17)
(0.0389926 -0.18239 0)
(0.112105 -0.130812 -1.03031e-17)
(0.199194 0.260981 0)
(0.198356 0.269091 0)
(0.241488 0.0665006 1.28085e-17)
(0.22894 0.0913899 2.51466e-17)
(0.165645 0.153271 0)
(0.00799163 -0.0379306 0)
(0.222111 0.098711 4.18558e-17)
(0.246305 0.00939197 -4.04043e-17)
(0.225902 -0.0693547 0)
(0.292233 0.0843299 -1.20706e-17)
(0.039656 -0.401702 2.52718e-17)
(0.224638 0.0699629 -8.1369e-17)
(0.234709 0.0276188 -2.65703e-17)
(0.164864 0.165573 -2.61094e-17)
(0.250976 0.0335016 2.79431e-17)
(0.148159 0.298712 0)
(0.209075 0.115423 -1.60776e-18)
(0.0920754 0.266097 -2.25309e-17)
(-0.00217545 -0.10445 0)
(0.0272033 -0.399823 0)
(0.198153 0.23834 -2.25188e-17)
(0.0157489 -0.405886 1.78085e-17)
(0.185055 -0.0982414 2.09426e-17)
(0.202472 0.232541 1.36728e-17)
(0.0353692 -0.272125 2.34497e-17)
(0.102367 0.249964 2.14208e-17)
(0.192499 0.275467 -1.33468e-17)
(0.0941143 0.260205 -2.28998e-17)
(0.241511 -0.0599145 0)
(0.119841 -0.133573 2.04144e-17)
(0.147038 0.295875 -4.50181e-17)
(0.201097 0.212214 -3.91059e-17)
(0.189104 0.0826725 4.00224e-17)
(0.16076 0.0325593 -3.17689e-17)
(0.273975 -0.0107957 2.95708e-17)
(0.260546 0.0198525 1.03577e-17)
(0.0888463 0.251176 0)
(0.0226623 -0.267265 -2.55495e-17)
(0.0217613 -0.100969 2.33512e-17)
(0.06519 -0.0825709 -3.21723e-18)
(0.0179325 -0.319873 -3.04064e-18)
(0.184037 0.151709 5.91097e-18)
(0.0152114 -0.409981 3.13769e-17)
(0.0797967 0.273759 1.97593e-17)
(0.0912922 0.241791 2.07808e-17)
(-0.00433525 -0.0248564 0)
(0.095022 -0.135022 0)
(0.13133 0.199802 -1.20952e-17)
(0.0557766 0.08445 2.07315e-17)
(-0.00498933 0.00521404 1.10309e-17)
(0.259584 -0.00126145 -1.07605e-17)
(0.0983325 0.121826 1.42147e-17)
(-0.000736355 -0.00439238 1.97517e-17)
(-0.0122435 0.00296932 0)
(0.169756 0.0913067 0)
(0.013138 0.00199305 -1.234e-17)
(0.147867 0.0611118 0)
(0.17595 0.11895 -4.23404e-17)
(0.174186 0.182629 3.39655e-17)
(0.174537 0.149623 2.18992e-17)
(0.0566927 0.003081 0)
(0.0779792 0.0131559 2.10471e-17)
(0.0345072 0.000715528 -1.1382e-17)
(0.130011 0.0406492 2.19416e-17)
(0.112054 0.0256738 1.91309e-17)
(0.181585 0.274562 0)
(0.0187498 -0.25088 4.11222e-17)
(0.236557 0.0527193 2.65693e-18)
(0.220313 0.151585 1.11174e-17)
(0.100401 0.256038 0)
(0.24216 0.0420154 -2.83454e-17)
(0.207844 0.149437 3.18796e-17)
(0.184363 -0.185093 0)
(0.095602 0.301145 -1.15758e-21)
(0.219233 0.137478 0)
(0.195827 0.109798 0)
(0.228642 -0.0785789 -1.09174e-17)
(0.07783 0.305183 0)
(0.0983531 0.246231 -4.31834e-17)
(0.235477 0.0207852 6.54479e-18)
(0.170319 0.286956 0)
(0.079602 -0.0441018 0)
(0.126693 0.284068 0)
(0.205209 0.175226 1.3091e-17)
(0.0966682 0.277253 2.27616e-17)
(0.0244746 -0.200951 1.37609e-18)
(0.0975925 0.27024 2.26783e-17)
(0.179011 0.155297 5.93224e-18)
(0.166382 0.27512 0)
(0.0565216 -0.330058 -2.42486e-17)
(0.0158002 -0.10967 1.9427e-17)
(0.184852 0.250302 2.76378e-17)
(0.132545 0.281188 1.76476e-17)
(0.191151 0.121357 -3.7612e-17)
(0.269819 -0.0108411 -6.45731e-18)
(0.0669301 -0.131546 -1.24609e-17)
(0.0814075 -0.35945 0)
(0.0502615 -0.126943 0)
(0.0650517 -0.353385 0)
(0.153447 0.284471 0)
(0.132678 0.275471 -1.71592e-17)
(0.0625601 -0.130647 -2.24087e-17)
(0.215955 0.10891 0)
(0.150952 0.277692 -2.2914e-17)
(0.286865 0.0395035 2.86818e-17)
(0.106045 -0.380633 0)
(-0.00365435 -0.0500649 -1.40782e-17)
(0.150549 0.281946 0)
(0.089591 -0.377009 0)
(0.090158 -0.103381 2.68273e-17)
(0.138347 0.27324 0)
(0.267873 -0.0282532 1.47126e-17)
(0.251098 -0.0235898 -6.61718e-18)
(0.180313 0.0531327 2.42754e-17)
(0.169872 0.0313803 5.41881e-17)
(0.212967 0.26521 -2.03547e-17)
(0.0759464 -0.1795 1.62415e-17)
(0.0594967 -0.366979 0)
(0.15556 0.275885 0)
(0.0247437 -0.342935 7.18311e-17)
(0.229518 0.100961 0)
(0.344962 0.0477301 3.84767e-17)
(0.316119 0.0375669 -1.06244e-17)
(0.0833596 -0.126275 0)
(0.0916301 0.252235 2.2574e-17)
(0.0228219 -0.134338 -2.30222e-18)
(0.273441 -0.00705116 5.01141e-17)
(0.236463 0.130572 -1.25344e-17)
(0.156522 -0.161777 0)
(0.344899 0.0173602 2.18902e-17)
(0.138976 0.267674 0)
(0.0409435 -0.10394 0)
(0.0562511 -0.195679 -4.68371e-17)
(0.0406402 -0.358341 3.26393e-17)
(0.135827 0.257904 2.2957e-17)
(0.0497827 -0.371854 -2.35214e-17)
(0.128163 -0.392491 2.26067e-17)
(0.13874 -0.384047 -2.25397e-17)
(0.207733 0.270246 0)
(0.344281 -0.0145035 2.77726e-17)
(0.351891 -0.0329424 2.22545e-17)
(0.0998535 -0.30173 0)
(0.343094 -0.0816147 -2.78139e-17)
(0.351318 -0.101333 2.77754e-17)
(0.164589 0.287372 -4.39922e-17)
(0.0699836 -0.37891 -2.32284e-17)
(0.0978228 -0.317035 2.28584e-17)
(0.112817 -0.391647 0)
(0.156557 0.27165 0)
(0.131967 -0.371963 2.81014e-17)
(0.340787 -0.152296 2.22187e-17)
(0.18096 0.256238 -2.12914e-17)
(0.0550953 -0.107056 4.10629e-17)
(0.346794 -0.171502 -2.77546e-17)
(-0.00134554 -0.0331472 1.96824e-17)
(0.141765 0.256311 5.7452e-18)
(0.0246043 -0.127002 -2.89945e-17)
(0.115761 -0.00866782 1.74092e-17)
(0.0955059 0.293356 0)
(0.11483 -0.368386 -5.63272e-18)
(0.134737 0.263725 0)
(0.234464 0.0806178 -1.86098e-17)
(0.01164 -0.107231 4.65297e-18)
(0.202933 0.245218 -2.25303e-17)
(0.32732 0.0517071 -1.60801e-17)
(0.0794182 -0.373006 2.28522e-17)
(0.350839 0.0306314 -2.746e-17)
(0.0590841 -0.39485 -2.33441e-17)
(0.143219 0.25057 -5.72238e-18)
(0.155711 0.251551 3.04671e-17)
(0.0433697 -0.333492 2.16133e-17)
(0.208569 -0.235596 1.68899e-17)
(0.0610363 -0.308855 2.32395e-17)
(0.15413 -0.384177 2.24628e-17)
(0.32505 0.0208085 2.21027e-17)
(0.198854 0.252398 2.25944e-17)
(0.111285 0.240993 2.28608e-17)
(0.051131 -0.325925 0)
(0.0196717 -0.197477 -3.20448e-17)
(0.0479789 -0.387684 1.22582e-17)
(0.0289457 -0.209736 0)
(0.0396492 0.0351748 -2.47006e-17)
(0.1629 0.283981 1.73166e-17)
(0.0507295 -0.107007 1.20519e-17)
(0.0782041 -0.317006 0)
(0.16654 0.285787 9.27488e-22)
(0.163579 0.281481 -1.74281e-17)
(0.122876 -0.0142075 0)
(0.149218 0.249291 2.86146e-17)
(0.146426 0.288444 -2.86982e-17)
(0.258618 -0.285683 5.51828e-18)
(0.142408 0.281815 2.33906e-17)
(0.119488 0.233313 5.73647e-18)
(0.167678 0.282356 2.31169e-17)
(0.0893803 0.145429 2.06453e-17)
(0.143485 0.229119 -3.85123e-17)
(0.161896 0.277804 -2.31961e-17)
(0.147643 0.274713 2.30706e-17)
(0.0408214 -0.404953 2.03611e-17)
(0.0605285 -0.34407 0)
(0.15908 0.284346 0)
(0.157854 0.278676 2.26945e-17)
(0.0194637 -0.0933518 2.23065e-17)
(0.0413231 -0.2703 4.77768e-17)
(0.121546 0.280617 0)
(0.153576 0.26827 -2.30431e-17)
(0.100175 -0.398931 5.71509e-18)
(0.0348512 0.15467 0)
(0.351694 -0.000495753 -3.87352e-17)
(-0.00132378 -0.00442435 -2.28621e-17)
(0.0448426 -0.364506 -5.63033e-17)
(0.0615322 -0.406732 -2.36786e-17)
(0.131762 0.12411 0)
(0.0833495 0.0709413 3.53731e-17)
(0.123295 -0.396146 -5.6828e-18)
(0.165533 -0.374932 -4.49299e-17)
(0.146085 0.284283 -2.45244e-17)
(0.0840625 -0.405676 -5.74664e-18)
(0.105817 -0.349362 5.62895e-18)
(0.160362 0.262433 -5.73807e-18)
(0.18065 -0.374182 -2.23599e-17)
(0.16782 0.275039 0)
(0.0717361 -0.0246506 1.23594e-17)
(0.0880213 -0.342864 -5.6662e-18)
(0.231273 -0.254097 -5.625e-18)
(0.109424 0.247209 0)
(0.154866 0.263367 0)
(0.00397105 -0.0173537 -2.28496e-17)
(0.137368 0.284303 -2.3026e-17)
(0.192745 -0.36431 5.64949e-21)
(0.0649781 -0.402504 2.47357e-17)
(0.142468 0.276722 0)
(0.0384528 -0.230741 -2.41461e-17)
(0.0530399 -0.404966 3.12672e-18)
(0.111389 -0.394316 -5.69975e-18)
(0.0743403 -0.40593 -2.30755e-17)
(0.181655 -0.0529963 3.28012e-17)
(0.104707 -0.0360256 1.12554e-17)
(0.117686 0.239542 -2.88913e-17)
(0.0662867 -0.384871 0)
(0.2095 0.229749 -2.25091e-17)
(0.0788883 -0.351701 0)
(0.14835 0.269743 2.3015e-17)
(0.00796307 -0.0203643 1.04439e-17)
(0.11317 -0.332825 -2.27015e-17)
(0.163093 0.266538 2.29521e-17)
(0.141496 -0.359304 -1.69137e-17)
(0.201412 0.230425 1.69156e-17)
(0.0509779 -0.295455 -2.38764e-17)
(0.158026 -0.389328 0)
(0.161442 0.270671 0)
(0.0568887 -0.407326 2.44067e-17)
(0.146869 -0.390643 2.26019e-17)
(0.16633 0.284955 0)
(0.343652 -0.0474974 -2.77322e-17)
(0.0710591 0.101545 0)
(0.134071 -0.390499 -3.96611e-17)
(0.0298122 -0.197839 0)
(0.0973597 -0.404423 5.7228e-18)
(0.0789628 -0.403826 0)
(0.0829514 -0.29626 0)
(0.045901 0.125383 0)
(0.21082 0.26092 2.23421e-17)
(0.351832 -0.0665651 0)
(0.0778875 -0.398928 2.30334e-17)
(0.115413 0.290417 0)
(0.207066 -0.362376 0)
(0.145767 -0.39411 0)
(0.170552 -0.385394 -5.55647e-21)
(0.158947 0.252827 -2.28596e-17)
(0.197947 -0.338819 2.80074e-17)
(0.126642 0.178379 -1.96458e-17)
(0.0677472 -0.33619 0)
(0.108663 0.294101 -6.14148e-18)
(0.286323 -0.296597 2.21257e-17)
(0.00192094 -0.0122076 2.39065e-17)
(0.158037 0.23797 -1.97972e-17)
(0.0591657 -0.369103 5.92301e-18)
(0.0497398 0.116108 -2.27522e-17)
(0.144608 0.265949 0)
(0.135286 -0.351143 0)
(0.0177809 -0.0270262 0)
(0.06807 -0.393153 2.30554e-17)
(0.0100765 -0.0220726 0)
(0.195087 -0.374329 0)
(0.0575248 0.107317 0)
(0.162282 0.257411 5.71464e-18)
(0.216615 0.204803 1.68782e-17)
(0.0903568 0.258916 -1.5792e-21)
(0.113795 -0.315897 5.6678e-18)
(0.132653 -0.396937 -2.26362e-17)
(0.0896847 -0.26595 -5.84118e-18)
(0.284167 -0.283344 0)
(0.106716 0.236893 -2.37312e-17)
(0.274093 -0.306168 -2.76218e-17)
(0.107893 -0.402377 -5.68803e-18)
(0.115261 0.28363 0)
(0.208602 -0.367598 0)
(0.15301 0.253774 -2.5525e-21)
(0.169644 0.279982 0)
(0.159059 -0.362458 -5.61614e-18)
(0.048964 -0.0966773 2.1613e-17)
(0.216613 0.253004 -2.23734e-17)
(0.208824 0.206912 -2.25218e-17)
(0.121953 0.27424 0)
(0.156872 -0.383774 0)
(0.2186 -0.360858 -2.22107e-17)
(0.219717 -0.352048 2.22222e-17)
(0.163262 0.274609 0)
(0.102521 0.289899 0)
(0.200128 0.166262 0)
(0.183545 -0.37958 -2.23745e-17)
(0.063869 -0.241807 4.77017e-17)
(0.294932 -0.27334 5.52508e-18)
(0.125697 0.232051 -2.86379e-17)
(0.228158 0.227182 -5.60479e-18)
(0.090413 -0.382242 -2.29193e-17)
(0.128021 0.271765 2.3108e-17)
(0.2251 0.252068 -2.80511e-17)
(0.01442 -0.0305377 0)
(0.223525 0.210606 0)
(0.0723095 0.0942972 0)
(0.31601 -0.260659 5.51845e-18)
(0.272344 -0.317777 5.54368e-18)
(0.220982 0.219972 0)
(0.099442 -0.375202 0)
(0.333207 -0.241166 -2.20615e-17)
(0.128775 0.265721 0)
(0.342431 -0.116753 0)
(0.2591 -0.326725 -1.66589e-17)
(0.232419 -0.353315 2.21887e-17)
(0.200375 0.158589 2.25561e-17)
(0.306075 -0.272746 -5.51707e-18)
(0.268164 0.167026 5.62506e-18)
(0.232641 -0.34868 0)
(0.234404 -0.341643 2.22289e-17)
(0.141261 -0.0352521 -1.44112e-17)
(0.3499 -0.136589 0)
(0.170416 -0.38243 1.68702e-17)
(0.132166 -0.339591 2.26571e-17)
(0.306107 0.138543 2.788e-17)
(0.103053 -0.399026 0)
(0.288939 0.179464 -6.72399e-21)
(0.240261 -0.344982 0)
(0.148511 0.17662 -7.39689e-18)
(0.324129 -0.254841 1.6552e-17)
(0.309833 -0.223452 -1.66174e-17)
(0.138849 -0.337325 2.26191e-17)
(0.220658 0.261164 9.63977e-18)
(0.0752065 0.0850008 0)
(0.330806 -0.232145 0)
(-0.0179121 0.0136293 1.99325e-17)
(0.29164 -0.294965 0)
(0.23044 0.243544 2.80163e-17)
(0.245618 -0.337955 0)
(0.277407 -0.314982 0)
(0.319355 -0.236617 -2.76366e-17)
(0.290479 0.16763 2.23067e-17)
(0.212541 0.221193 0)
(0.29873 0.159151 -5.70612e-21)
(0.211431 0.245579 2.24156e-17)
(0.316234 0.138348 -5.5733e-18)
(0.352578 -0.104657 -2.22321e-17)
(0.329983 0.122838 -5.55491e-18)
(0.294358 -0.29487 5.5163e-18)
(0.322957 0.126506 -4.45317e-17)
(0.310635 -0.275834 2.75749e-17)
(0.213647 0.166835 0)
(0.269459 -0.321759 0)
(0.298393 0.147904 0)
(0.277256 0.181573 0)
(0.261497 -0.260687 -5.5435e-18)
(0.303484 -0.281405 -5.5176e-18)
(0.270077 -0.278149 5.5362e-18)
(0.336293 -0.1004 -2.2294e-17)
(0.194435 0.155549 -2.25854e-17)
(0.101772 0.241213 4.56257e-17)
(0.28997 -0.303441 -5.5185e-18)
(0.256456 -0.332956 0)
(0.32308 -0.250598 5.56132e-18)
(0.271209 -0.252719 0)
(0.258227 -0.23388 -2.22476e-17)
(0.114579 -0.299087 1.69668e-17)
(0.305868 -0.283028 5.5185e-18)
(0.224461 0.236683 5.60539e-18)
(0.355024 -0.0788853 2.22632e-17)
(0.265806 -0.225669 -5.55826e-18)
(0.248505 -0.205926 -3.9e-17)
(0.300452 -0.197169 -1.66597e-17)
(0.341503 -0.204964 1.66629e-17)
(0.285468 0.154163 -1.06936e-17)
(0.214918 -0.340089 -2.79296e-17)
(0.232178 0.208635 0)
(0.333246 -0.235719 -5.51397e-18)
(0.324242 0.129993 5.56311e-18)
(0.276293 -0.205156 -5.55832e-18)
(0.321488 -0.262199 -1.65394e-17)
(0.293579 0.166315 -2.21424e-17)
(0.306555 0.140019 0)
(0.237304 0.225698 0)
(0.1943 -0.351756 -5.60332e-18)
(0.361463 -0.0641971 -5.01727e-17)
(0.296148 0.178463 -2.22703e-17)
(0.338355 -0.231025 5.51505e-18)
(0.29723 0.0638956 -5.59518e-18)
(0.301227 -0.103399 -2.23507e-17)
(0.292428 -0.222031 5.54627e-18)
(0.198088 -0.0359126 -3.18526e-19)
(0.288933 0.139622 0)
(0.315111 -0.211407 1.66127e-17)
(0.307152 0.0731468 2.79409e-17)
(0.297971 -0.0557241 0)
(0.253622 -0.197648 2.22818e-17)
(0.270277 0.152473 1.12482e-17)
(0.329497 -0.0665102 2.7917e-17)
(0.205197 -0.0656502 0)
(0.297509 -0.0747588 1.67822e-17)
(0.323914 0.121672 -2.22835e-17)
(0.308035 -0.0646847 -5.60272e-18)
(0.32364 -0.11049 1.18331e-21)
(0.310255 0.149323 -1.67004e-17)
(0.167191 0.186701 1.70464e-17)
(0.293382 -0.0929505 -2.79423e-17)
(0.258725 0.119849 -5.60879e-18)
(0.280085 -0.194745 -5.5605e-18)
(0.310887 0.125218 0)
(0.299779 0.0525288 2.23763e-17)
(0.328667 -0.0889526 0)
(0.335867 -0.151653 1.66463e-17)
(0.217793 -0.0233474 2.02557e-17)
(0.223972 0.000624389 0)
(0.370183 -0.0553875 -2.22591e-17)
(0.367733 -0.122474 0)
(0.235359 -0.221209 4.47474e-17)
(0.339022 -0.0770551 0)
(0.198555 -0.0105298 -2.1634e-17)
(0.356642 -0.187361 2.76201e-17)
(0.276778 -0.070661 -1.69238e-17)
(0.3067 -0.084494 -1.42272e-21)
(0.318188 -0.142236 5.56494e-18)
(0.366203 0.00809616 -2.77669e-17)
(0.27913 -0.0537368 2.25969e-17)
(0.303002 0.167607 2.22723e-17)
(0.0493578 -0.0473754 -1.26509e-17)
(0.111425 -0.00626757 2.14461e-17)
(0.0928741 0.0539264 1.42246e-18)
(0.0321912 -0.0428818 2.70563e-18)
(0.0862429 0.0827688 -3.46591e-22)
(0.0866328 -0.0483422 -4.61131e-17)
(0.1026 0.0134443 0)
(0.114277 -0.0337337 -1.99489e-17)
(0.104092 0.0386533 -3.34452e-17)
(0.269529 0.0246264 -5.84361e-17)
(0.0985806 0.0466367 -2.27118e-17)
(0.110157 -0.0142697 0)
(0.0421934 -0.0472988 3.32831e-17)
(0.0884323 0.0634477 2.28625e-17)
(0.0638163 -0.0491077 2.47683e-17)
(0.117007 -0.00165482 0)
(0.283321 -0.170647 1.67122e-17)
(0.10535 0.0248337 -3.52294e-17)
(0.0848872 -0.0372755 0)
(0.291466 -0.120351 -5.585e-18)
(-0.0164596 0.0148227 0)
(0.271304 -0.0865297 -1.68201e-17)
(0.314323 -0.130135 5.56725e-18)
(0.224044 -0.053673 0)
(0.0921478 0.0354571 0)
(0.259438 -0.177293 5.57579e-18)
(0.28883 0.0451289 -2.241e-17)
(0.318351 0.143538 -5.56353e-18)
(0.360842 -0.0912199 1.6697e-17)
(0.270758 0.0436505 -3.92902e-17)
(0.349073 -0.202777 5.55946e-18)
(0.348631 0.0596648 -1.65195e-17)
(0.206224 0.147534 0)
(0.263495 -0.0037849 -4.92603e-21)
(0.356529 -0.117676 2.77851e-17)
(0.254022 -0.336695 -5.53407e-18)
(0.329173 0.106784 6.21065e-21)
(0.361988 0.0258871 -1.65767e-17)
(0.222714 -0.193006 -5.6447e-18)
(0.335716 0.108825 4.44824e-17)
(0.112019 0.0587675 2.06564e-17)
(0.254773 0.110911 5.04991e-17)
(0.357172 0.0542646 -2.76561e-17)
(0.346224 -0.129257 -1.66569e-17)
(0.285266 -0.109617 2.79312e-17)
(0.239204 0.240884 -4.48005e-17)
(0.26077 -0.0327535 2.24333e-17)
(0.288405 -0.258656 -2.76732e-17)
(0.266243 -0.0773882 2.24915e-17)
(0.271331 -0.0618003 -1.56305e-21)
(0.206939 0.170204 0)
(0.283546 0.0109152 3.79149e-17)
(0.278848 0.0492449 1.68192e-17)
(0.273941 -0.0450413 2.28643e-17)
(0.323983 0.0956774 4.38842e-17)
(0.37234 -0.122457 2.22102e-17)
(0.31257 0.0108095 5.5978e-18)
(0.366725 -0.153865 -1.66372e-17)
(0.260569 -0.167381 -2.23091e-17)
(0.375313 -0.0902121 5.55949e-18)
(0.375966 -0.057982 0)
(0.374338 -0.0265354 -5.56987e-18)
(0.358184 -0.183402 -5.53195e-18)
(0.278963 -0.0192626 -2.24153e-17)
(0.216834 -0.199566 4.47314e-17)
(0.11255 0.0967708 -2.09295e-17)
(0.370382 0.00351884 -1.67021e-17)
(0.338917 0.101628 -2.22395e-17)
(0.363741 0.0314026 -1.66842e-17)
(0.0105176 0.00121427 5.70379e-18)
(0.320504 0.0676773 1.61659e-17)
(0.305044 0.162655 2.22723e-17)
(-0.00519018 0.00508388 1.12303e-17)
(-0.0251391 0.013832 0)
(0.0773081 0.0210747 -1.20972e-17)
(0.10929 0.11448 -3.84413e-17)
(-0.0124626 0.0225026 4.60021e-17)
(0.0637618 0.00948766 5.27533e-18)
(0.300681 -0.146867 -2.2268e-17)
(0.272985 -0.123696 5.58764e-18)
(-0.0247836 0.019343 0)
(0.0339848 0.00409418 -4.69553e-17)
(0.106729 0.071876 0)
(0.353916 0.056255 -2.78181e-17)
(0.2616 -0.0632421 2.23972e-17)
(0.258253 -0.091603 2.24182e-17)
(0.346679 -0.216258 -2.20606e-17)
(0.312633 0.00637959 2.77732e-17)
(0.277874 -0.0497686 -2.24015e-17)
(0.370309 -0.138784 0)
(0.265438 -0.0968631 -4.47083e-17)
(0.329073 0.0802865 -2.67191e-17)
(0.362853 -0.168404 2.76981e-17)
(0.264708 0.0475746 2.24595e-17)
(0.374723 -0.107628 -1.66543e-17)
(0.376375 -0.0759454 0)
(0.375478 -0.0445602 5.57315e-18)
(0.310848 -0.00211415 -1.11907e-17)
(0.337606 -0.21856 -5.52505e-18)
(0.327897 0.0171951 1.67514e-17)
(0.372083 -0.0142502 0)
(0.267059 -0.0356196 2.47604e-17)
(0.262825 -0.100957 -2.80208e-17)
(0.365978 0.0142776 5.00456e-17)
(0.25545 -0.0722475 0)
(0.236338 -0.0869255 1.11998e-17)
(0.27738 -0.13439 0)
(0.348439 -0.142573 5.55078e-18)
(0.233757 -0.113154 -2.80281e-17)
(0.273482 0.122961 -1.92169e-17)
(0.311525 -0.248804 1.65834e-17)
(0.246475 -0.0846441 0)
(0.251539 -0.112837 -2.95343e-17)
(0.194991 0.148859 2.258e-17)
(0.282921 -0.159665 -5.57126e-18)
(0.266469 -0.0434029 -2.45812e-17)
(0.323888 0.0577881 -2.2316e-17)
(0.11731 -0.0660059 -5.70329e-18)
(0.356842 0.040147 0)
(0.232722 -0.178025 0)
(0.358111 -0.163147 -5.53929e-18)
(0.321435 -0.170782 0)
(0.302913 -0.185486 2.77676e-17)
(0.210854 -0.140481 0)
(0.348543 -0.173644 5.53948e-18)
(0.337753 0.100472 0)
(0.3721 -0.106648 1.66627e-17)
(0.308622 -0.0571773 0)
(0.302828 -0.158685 2.2268e-17)
(0.353783 0.0635108 5.55127e-18)
(0.28975 0.0339602 3.92112e-17)
(0.336447 -0.164867 -2.77463e-17)
(0.346306 -0.209915 0)
(0.344097 0.0860404 0)
(0.2696 0.0101655 2.20077e-17)
(0.248254 -0.103783 3.46281e-17)
(0.247254 -0.0766186 0)
(0.238377 -0.149348 0)
(0.361297 0.0371988 3.87669e-17)
(0.369287 -0.0182455 2.22786e-17)
(0.2689 0.0209555 -5.70632e-18)
(0.278748 0.152648 0)
(0.272195 0.033864 2.24474e-17)
(0.294743 -0.00605626 1.12137e-17)
(0.303367 0.127073 -5.57842e-18)
(0.243704 0.0787659 0)
(0.343424 0.0760381 5.53535e-18)
(0.267271 0.0239148 -1.00844e-17)
(0.322041 0.116317 0)
(0.342833 0.0860723 0)
(0.300507 0.0167766 -1.11936e-17)
(0.352027 -0.19541 5.52717e-18)
(0.314152 0.0360528 -1.11765e-17)
(0.279719 -0.0832435 5.58651e-18)
(0.235705 -0.0957637 1.11713e-17)
(0.227894 0.254348 1.04572e-17)
(0.340437 0.0771459 0)
(0.344317 0.0625169 1.11284e-17)
(0.312509 0.0487677 -3.02426e-21)
(0.279345 0.0287157 5.60985e-18)
(0.225408 0.141703 0)
(0.337128 0.0536906 5.57473e-17)
(0.259304 -0.14499 2.79465e-17)
(0.328098 0.10395 -5.57046e-18)
(0.269753 0.0183522 -1.67045e-17)
(0.349403 0.0795047 0)
(0.237768 -0.141021 -2.90527e-17)
(0.234931 -0.12168 3.95202e-17)
(0.345829 -0.187651 -5.53507e-18)
(0.256322 -0.134493 5.59071e-18)
(0.207615 -0.165472 2.38487e-17)
(0.30078 0.0288984 -3.35943e-17)
(0.271269 0.170467 0)
(0.25256 0.170717 -2.80144e-17)
(0.266932 0.029742 0)
(0.366799 -0.135781 -2.2185e-17)
(0.323642 0.0935167 5.01708e-17)
(0.306985 0.159077 -5.76804e-21)
(0.284136 -0.119408 2.23033e-17)
(0.351581 -0.0122964 2.79019e-17)
(0.228797 -0.0851194 0)
(0.359446 -0.148826 -5.54279e-18)
(0.366668 -0.121541 1.6636e-17)
(0.240281 0.215475 0)
(0.260626 0.0473163 5.915e-18)
(0.274912 0.113606 2.24018e-17)
(0.329776 -0.20815 -1.66068e-17)
(0.105577 -0.0733881 0)
(0.351314 0.0329512 0)
(0.320448 0.0706825 0)
(0.170288 0.271581 0)
(0.333801 -0.194888 2.21434e-17)
(0.127417 0.225691 2.85745e-17)
(0.288689 -0.15766 -2.23419e-17)
(0.310299 0.116946 -5.57841e-18)
(0.258743 0.0879848 -2.24493e-17)
(0.329356 -0.12247 1.67089e-17)
(0.262305 0.0435607 0)
(0.160752 -0.0898626 5.61972e-18)
(0.221464 0.119803 5.06684e-17)
(0.286908 0.145487 0)
(0.339368 0.0391732 -2.78722e-17)
(0.216941 0.131716 -5.63047e-18)
(0.259692 0.103719 -1.68319e-17)
(0.280035 0.164399 0)
(0.285677 0.00101571 -2.25114e-21)
(0.302881 0.0843363 -4.47095e-17)
(0.271511 0.0153023 -5.71362e-18)
(0.310786 -0.127133 0)
(0.200556 0.145219 0)
(0.210041 -0.149088 -1.85252e-17)
(0.276898 -0.172633 1.6745e-23)
(0.328587 0.0807643 -2.22952e-17)
(0.327597 0.0311664 -1.67541e-17)
(0.291151 0.125701 -2.23533e-17)
(0.234821 -0.169605 0)
(0.266582 0.0322543 2.62662e-17)
(0.287362 0.0121193 1.13244e-17)
(0.28384 0.133829 -4.07695e-21)
(0.264903 0.0353565 -5.7204e-18)
(0.269514 0.212352 0)
(0.136262 -0.105063 -3.92067e-17)
(0.170429 -0.0799192 -4.53672e-17)
(0.239862 0.0848385 0)
(0.24634 0.0958228 2.24772e-17)
(0.286281 0.11451 2.23677e-17)
(0.28597 -0.232438 0)
(0.223842 0.133517 -2.24989e-17)
(0.238422 -0.12098 -2.2317e-17)
(0.214038 -0.096974 2.30602e-17)
(0.260926 0.165912 1.68048e-17)
(0.238887 0.0905549 0)
(0.243515 0.22405 -2.20151e-17)
(0.269834 0.104015 -2.24136e-17)
(0.279243 0.0182579 5.71522e-18)
(0.271385 -0.133612 0)
(0.267789 0.149149 0)
(0.314063 0.147817 -1.67013e-17)
(0.226504 -0.134308 2.23172e-17)
(0.254657 0.0955403 -5.61322e-18)
(0.242941 0.0891124 0)
(0.24797 0.212544 0)
(0.370393 -0.0928655 -3.88789e-17)
(0.361796 -0.0078735 -5.56964e-18)
(0.203358 -0.171439 6.00196e-18)
(0.304982 0.10566 2.79187e-17)
(0.341081 0.0107969 1.67442e-17)
(0.339722 -0.0041337 -3.90666e-17)
(0.268858 0.121207 -2.80046e-17)
(0.265457 0.138338 -2.23996e-17)
(0.259936 0.154974 2.80059e-17)
(0.272552 0.13157 5.03909e-17)
(0.362058 0.00871061 1.67103e-17)
(0.352246 0.0171528 -1.67067e-17)
(0.221462 0.113717 -5.73143e-18)
(0.320468 -0.183439 0)
(0.292416 0.105555 -4.47293e-17)
(0.367934 -0.0351384 -2.22824e-17)
(0.246094 0.076935 -2.24812e-17)
(0.188788 -0.117959 2.23918e-17)
(0.310752 0.0949044 -2.23251e-17)
(0.280841 0.186073 0)
(0.228067 0.166912 0)
(0.089237 -0.395205 0)
(0.374218 -0.076748 2.22525e-17)
(0.244326 0.231753 0)
(0.21619 0.124739 -1.6889e-17)
(0.253347 0.0807747 0)
(0.211978 0.12477 0)
(0.206507 0.155133 0)
(0.22009 0.154569 -5.62692e-18)
(0.247239 0.0823983 0)
(0.297239 -0.248373 2.21312e-17)
(0.37328 -0.0469952 -5.5716e-18)
(0.243585 0.166473 0)
(0.190839 0.147396 -2.85512e-17)
(0.238146 -0.17707 -2.23511e-17)
(0.211454 0.136238 0)
(0.370776 -0.0637678 5.56527e-18)
(0.197188 -0.26155 0)
(0.227057 -0.253952 1.68278e-17)
(0.212107 0.143538 0)
(0.262379 0.218118 0)
(0.256383 -0.204474 -2.23503e-17)
(0.227949 0.158007 0)
(0.250417 0.151583 -2.24361e-17)
(0.219308 0.146223 5.62593e-18)
(0.179496 -0.130918 0)
(0.323497 -0.00898439 1.67882e-17)
(0.233669 0.144517 5.61792e-18)
(0.259672 0.209569 0)
(0.192616 0.141696 -1.53236e-17)
(0.337575 -0.053429 -2.79621e-17)
(0.249074 -0.162491 -7.44745e-22)
(0.234036 0.198637 -2.24487e-17)
(0.256072 0.227335 2.23497e-17)
(0.243183 0.156738 -2.24452e-17)
(0.261847 0.0562625 0)
(0.252877 0.22748 -1.67761e-17)
(0.220988 0.170776 0)
(0.305813 -0.0445844 -2.24601e-17)
(0.248927 0.141881 0)
(0.268388 0.0871871 5.61013e-18)
(0.218496 0.195952 5.62315e-18)
(0.252889 0.126496 0)
(0.252447 0.181518 5.60525e-18)
(0.218149 0.114633 1.96902e-17)
(0.234729 0.153462 1.68526e-17)
(0.157262 0.282298 0)
(0.276961 0.059301 -1.68224e-17)
(0.207017 -0.163142 0)
(0.207399 0.129248 0)
(0.213257 0.119064 -2.02763e-17)
(0.235965 0.170803 0)
(0.198212 -0.178146 0)
(0.256206 0.0546843 -5.8612e-18)
(0.172254 -0.211891 2.81845e-17)
(0.22763 0.1839 -2.24744e-17)
(0.285801 0.0952664 -2.23836e-17)
(0.102101 -0.306138 2.32339e-17)
(0.248765 0.233254 2.27011e-17)
(0.242764 0.195798 0)
(0.239996 0.139311 -5.61801e-18)
(0.201161 0.138794 0)
(0.128268 -0.156255 -1.16869e-17)
(0.235452 0.180374 4.23195e-21)
(0.271247 0.182064 0)
(0.279693 -0.0363 -2.85776e-17)
(0.206446 0.134889 0)
(0.265838 0.212686 -5.58966e-18)
(0.242223 0.241665 1.7736e-17)
(0.245904 -0.220078 2.23309e-17)
(0.226366 0.193171 2.24779e-17)
(0.272001 0.0784813 1.68233e-17)
(0.197554 0.138446 -9.44376e-18)
(0.290495 0.0856675 4.47627e-17)
(0.243803 0.185312 2.24321e-17)
(0.257319 0.218244 -5.5904e-18)
(0.249554 0.212872 0)
(0.198245 0.189098 0)
(0.122713 0.220485 2.2851e-17)
(0.27466 0.0957485 1.68094e-17)
(0.295624 -0.0365469 2.85506e-17)
(0.155548 -0.186826 -5.59581e-18)
(0.255568 0.135937 0)
(0.133634 -0.177139 0)
(0.358409 -0.0375606 0)
(0.128219 -0.155736 -2.24698e-17)
(0.215573 0.237053 0)
(0.117244 0.223586 -2.32283e-17)
(0.13292 -0.118463 3.96926e-17)
(0.289987 0.185823 4.45356e-17)
(0.227384 0.120743 -2.25055e-17)
(0.326381 -0.0440289 0)
(0.232622 0.115256 -2.25019e-17)
(0.282484 0.076677 0)
(0.251732 0.202061 0)
(0.199438 0.181191 0)
(0.169744 0.174283 1.71084e-17)
(0.15143 0.259215 0)
(0.0815801 -0.388508 0)
(0.267929 0.0623187 0)
(0.169472 0.167207 0)
(0.200684 -0.361775 -5.59069e-18)
(0.161002 0.247211 0)
(0.353639 -0.05291 2.78823e-17)
(0.211783 0.191158 -5.63272e-18)
(0.145712 0.260513 0)
(0.241772 0.102378 -2.24816e-17)
(0.285652 0.0666801 -5.60157e-18)
(0.122129 -0.172406 5.83127e-18)
(0.213632 0.158515 0)
(0.172163 0.162707 -2.19954e-17)
(0.202725 0.201837 -2.25982e-17)
(0.256846 0.0594721 5.7278e-18)
(0.171597 0.16842 -1.70482e-17)
(0.234637 0.0964336 2.86738e-17)
(0.160651 -0.210401 -2.24697e-17)
(0.20451 0.193739 0)
(0.219752 -0.20981 0)
(0.160051 -0.175903 0)
(0.115126 0.228964 0)
(0.162221 0.182694 -1.70857e-17)
(0.188828 0.22555 -5.66535e-18)
(0.195514 0.203866 2.26151e-17)
(0.0464819 -0.0415821 1.35884e-17)
(0.235442 0.102378 -5.6756e-18)
(0.119305 -0.15295 2.35438e-17)
(0.278182 0.196375 0)
(0.153349 0.182095 -1.81062e-17)
(0.243616 0.124716 5.61861e-18)
(0.348505 -0.0277003 0)
(0.220319 0.179508 -2.25184e-17)
(0.237886 0.130502 5.6182e-18)
(0.151018 0.243498 -2.85541e-17)
(0.174765 -0.235819 0)
(0.193374 0.211523 -4.53225e-17)
(0.125022 0.21482 0)
(0.172332 0.216516 0)
(0.0875349 -0.246035 5.83059e-18)
(0.163665 0.224315 0)
(0.154722 0.190594 -1.7133e-17)
(0.164047 0.176662 -5.69461e-18)
(0.135735 -0.198143 -2.82993e-17)
(0.265151 0.0712189 5.61263e-18)
(0.257123 0.0730848 0)
(0.220182 -0.346588 -4.45779e-17)
(0.234825 0.248442 5.45134e-18)
(0.240474 0.116306 1.68629e-17)
(0.210749 -0.225916 -1.67653e-17)
(0.206281 0.178369 -2.25792e-17)
(0.276 0.202519 0)
(0.332261 -0.0304748 2.23897e-17)
(0.213082 0.182707 5.06823e-17)
(0.255027 0.166355 -2.91336e-17)
(0.229514 0.128481 2.25008e-17)
(0.129349 -0.311183 -2.26577e-17)
(0.145624 0.190054 -2.04502e-17)
(0.156593 0.184593 -5.71081e-18)
(0.245557 0.110074 -2.24729e-17)
(0.289287 0.178466 0)
(0.187447 0.257833 0)
(0.313074 -0.253292 -5.57359e-18)
(0.0570636 -0.396171 0)
(0.269684 0.203028 2.79368e-17)
(0.301188 -0.0251163 0)
(0.262143 0.186996 0)
(0.198091 0.238095 2.82646e-17)
(0.165777 0.217815 0)
(0.319916 -0.0224423 -2.23882e-17)
(0.186302 0.21309 -3.36817e-21)
(0.260987 0.198293 -2.23812e-17)
(0.126737 -0.174649 2.25564e-17)
(0.121244 -0.400448 5.67006e-18)
(0.187022 0.275852 2.0329e-17)
(0.291316 -0.0174104 -2.78321e-17)
(0.165307 -0.159535 0)
(0.08552 -0.342186 0)