/*--------------------------------*- C++ -*----------------------------------*\
  =========                 |
  \\      /  F ield         | OpenFOAM: The Open Source CFD Toolbox
   \\    /   O peration     | Website:  https://openfoam.org
    \\  /    A nd           | Version:  9
     \\/     M anipulation  |
\*---------------------------------------------------------------------------*/
FoamFile
{
    format      ascii;
    class       volScalarField;
    location    "0.81";
    object      p;
}
// * * * * * * * * * * * * * * * * * * * * * * * * * * * * * * * * * * * * * //

dimensions      [0 2 -2 0 0 0 0];

internalField   nonuniform List<scalar> 
578
(
-3.36361e-15
-8.65773e-15
-2.4994e-15
2.99792e-16
-7.97056e-15
5.28057e-15
7.77718e-15
-6.75358e-15
-5.6737e-15
-1.30612e-14
2.76872e-15
-6.6771e-15
1.72668e-17
-7.53846e-15
7.27304e-15
-2.49205e-16
-4.07307e-15
-3.71478e-15
-5.2095e-15
-3.77469e-15
3.33954e-16
2.03232e-16
1.71973e-15
2.04704e-15
1.97145e-15
-4.95887e-15
-5.26101e-16
-1.15029e-15
-6.21585e-15
4.88508e-17
-7.29386e-16
5.96701e-15
-2.51476e-15
4.7441e-16
6.52994e-15
-2.80294e-15
-6.73638e-15
-6.45235e-15
-1.65914e-16
-9.31149e-15
-7.25751e-15
-5.89556e-15
-7.48558e-15
7.61883e-15
-1.92552e-15
9.4735e-15
7.25412e-15
-6.12143e-15
-2.66434e-16
-6.55324e-16
8.17968e-15
-3.67823e-18
7.89613e-15
4.04192e-16
-1.11382e-16
-3.54081e-15
1.5774e-15
1.21309e-15
-2.0351e-15
-4.30925e-15
-3.96311e-15
-5.5897e-15
-5.47432e-15
-8.36114e-15
-1.53841e-16
7.03799e-15
-1.40432e-15
3.75552e-15
2.55282e-15
-4.80833e-15
7.32567e-16
5.72563e-15
-1.27377e-16
-5.60594e-15
2.6393e-15
-8.91322e-15
-7.2271e-15
-5.93474e-15
-1.07919e-16
5.27418e-15
6.54626e-15
-6.54671e-15
9.71461e-15
9.11609e-15
1.56807e-15
5.02706e-15
9.48977e-15
-2.398e-15
-5.34532e-15
4.85618e-15
-5.23673e-16
3.44732e-15
6.21128e-15
1.28429e-16
3.20629e-15
5.74382e-15
-1.31348e-16
-1.21884e-16
-1.2318e-14
7.24362e-15
6.78273e-15
-5.49142e-15
-3.86568e-16
4.30276e-15
-2.28776e-16
-7.62251e-15
2.97729e-15
-9.03215e-15
6.03344e-15
-7.93767e-15
-2.51971e-15
-5.2077e-15
-4.25173e-15
4.50718e-15
4.98721e-15
-2.74004e-16
2.2282e-16
-4.25035e-15
4.77503e-15
-1.70442e-16
-4.38978e-15
1.26288e-14
-6.07884e-15
1.94482e-16
7.42747e-15
3.19546e-15
5.4203e-15
-8.96672e-17
5.94647e-15
8.36512e-16
6.01418e-15
2.81349e-15
1.40108e-16
-4.84867e-15
5.36192e-15
5.74855e-15
-7.891e-15
-2.60401e-16
2.98141e-15
6.05753e-15
6.52127e-15
1.76671e-15
5.81832e-15
-2.11978e-15
-5.55453e-15
2.12244e-15
2.19169e-15
-7.63647e-16
-6.09462e-15
-1.03854e-17
-6.50078e-15
2.7738e-15
-8.01154e-15
-4.48538e-15
7.08221e-15
-6.29738e-16
-4.77155e-15
2.15534e-16
7.63986e-15
-6.60296e-15
-6.92333e-15
-6.75172e-15
6.91699e-15
-6.33468e-15
-3.44949e-15
1.89795e-15
-2.34438e-15
7.15353e-15
4.20652e-16
-2.37045e-16
-5.77746e-15
-8.1109e-15
5.91442e-15
4.31525e-15
6.94649e-15
-2.298e-16
-1.08213e-16
-3.95846e-15
-6.35966e-15
-5.4559e-15
7.61585e-15
-6.79495e-15
4.03907e-15
-1.04658e-16
5.99459e-15
-6.03567e-16
-3.70934e-16
7.86019e-15
7.01952e-15
-7.77157e-15
-7.07002e-15
-6.84902e-15
2.58817e-15
7.04141e-15
-1.01857e-14
-1.44013e-16
7.22664e-16
-9.92837e-16
6.78552e-15
-7.10506e-15
2.98211e-16
-2.10487e-17
1.33409e-14
-3.45534e-16
-1.93879e-16
-7.26902e-15
6.58677e-15
-2.99367e-16
-6.81943e-15
1.07463e-15
1.195e-15
6.57681e-15
5.07802e-15
-6.16007e-17
5.23672e-15
8.70072e-17
6.99415e-15
-7.02376e-15
7.01276e-15
2.66678e-15
-6.96896e-15
6.87797e-15
-3.19316e-15
-7.10349e-15
7.66944e-15
3.15421e-15
-1.17094e-16
5.33125e-16
-8.25218e-16
-6.10547e-15
-1.16278e-14
1.2716e-14
4.88233e-15
-3.00395e-15
2.97241e-15
-5.24959e-15
-7.29941e-15
7.38067e-15
6.9762e-17
-1.16896e-15
7.36552e-15
-8.19312e-15
-2.55009e-16
7.39105e-15
-9.83423e-16
-5.56247e-15
6.03867e-15
-1.15193e-14
5.09846e-15
-4.29281e-17
-1.23404e-16
4.28809e-15
6.84672e-15
8.88677e-16
6.14611e-15
-1.78728e-15
-4.78172e-15
6.65984e-15
-5.93048e-15
1.13544e-14
-2.72141e-15
7.64707e-15
7.28105e-16
8.41283e-16
-6.79952e-15
-3.84238e-15
2.05704e-15
-1.3593e-15
-9.46038e-15
2.45929e-15
-2.48182e-15
2.4901e-15
1.12119e-15
-1.84258e-16
1.63131e-17
-4.04696e-17
-4.06836e-16
1.33867e-15
7.17208e-15
2.09045e-16
-7.54557e-15
-2.1065e-16
-1.83419e-16
-6.54891e-17
-3.99538e-17
5.68403e-15
-3.34614e-15
3.29551e-15
9.53598e-16
5.97964e-16
9.99716e-16
4.07117e-15
-4.37461e-16
6.5213e-15
5.71604e-16
7.49658e-16
-7.53057e-15
-8.44874e-16
-6.41965e-16
5.09374e-16
3.33716e-17
-1.03396e-15
-1.79763e-16
-1.4221e-15
7.52528e-16
-4.237e-18
2.25046e-17
-4.4157e-15
7.98184e-17
-2.02892e-17
-2.10196e-15
-6.52042e-16
-9.01001e-17
-1.15578e-15
3.99591e-16
-1.44726e-16
3.7055e-15
-9.34932e-16
-2.08568e-15
4.02494e-16
3.89182e-15
-2.16978e-16
-1.42943e-16
1.28224e-15
-1.96844e-16
-4.88518e-16
6.53358e-15
6.79764e-15
-7.05026e-15
-5.9043e-16
-2.41709e-16
5.69686e-15
-2.93073e-16
-4.16822e-16
4.74827e-15
7.83031e-16
5.45731e-17
-3.22647e-16
-2.64123e-15
-4.5062e-16
-1.17242e-16
-9.68362e-17
-6.73696e-16
-3.59832e-15
2.98507e-16
6.2861e-15
3.47245e-15
5.58341e-15
-5.58855e-15
6.45638e-15
-6.1802e-15
-6.81204e-15
6.90174e-15
-2.42864e-15
-8.67785e-15
8.8801e-15
8.56055e-16
8.43889e-15
-9.09828e-15
8.90786e-15
-2.274e-16
-2.99729e-15
5.43765e-16
-4.46342e-15
-9.09834e-17
2.66178e-16
-7.04788e-16
5.49994e-15
3.09533e-17
-6.11878e-16
-6.53774e-15
-6.02359e-15
2.50741e-15
3.67204e-15
2.55591e-15
9.40396e-15
-4.00412e-16
6.32415e-15
-6.5563e-15
-1.55165e-15
-1.75206e-16
-6.62006e-15
6.92881e-15
1.29363e-15
6.9783e-16
-2.16995e-16
4.42677e-17
8.46314e-15
7.91036e-15
-5.14311e-15
-5.03023e-17
1.3793e-15
1.6111e-15
-1.83437e-15
-7.44395e-16
6.91157e-16
6.06649e-15
-1.35047e-15
1.06464e-15
2.09714e-15
-9.42652e-17
4.78502e-15
2.30046e-17
-4.4537e-15
-2.51634e-16
-9.63836e-16
4.09103e-15
-1.84907e-15
2.18893e-15
4.18857e-15
-6.04999e-16
-5.7636e-15
-3.20059e-15
3.55328e-15
-2.11693e-15
2.61897e-15
-5.6782e-15
5.67733e-15
-7.60997e-15
-5.83952e-16
6.23342e-15
3.44145e-15
-6.16797e-15
7.48574e-15
4.79222e-15
-2.97511e-15
-4.85565e-15
-4.68585e-15
-6.01033e-15
-2.8157e-15
4.49502e-15
1.23354e-15
1.68428e-15
-4.56795e-17
4.26798e-15
-3.84758e-15
-6.63696e-15
-3.89686e-15
-4.0364e-15
-1.82663e-15
-3.24018e-15
1.30993e-16
2.74989e-16
-6.77333e-16
5.56626e-15
-1.53246e-15
-8.73455e-16
4.86455e-15
4.8126e-15
-5.3829e-16
6.3994e-15
-3.38668e-16
5.03072e-15
5.54832e-17
6.3952e-15
-1.75745e-16
-8.32427e-15
1.97275e-15
1.40301e-15
-4.64154e-15
1.00113e-14
5.70257e-15
-3.91257e-15
-4.01282e-15
-1.49711e-15
-4.93222e-15
4.28131e-15
-7.71968e-15
-2.51773e-15
-3.73907e-15
-1.24642e-15
-1.25078e-15
4.31144e-15
-5.70301e-16
-1.67545e-15
-5.81402e-15
-4.34176e-15
-4.76293e-15
-2.40404e-15
-4.13817e-15
1.35067e-15
2.22416e-15
-1.98837e-15
-1.11175e-15
-5.57208e-16
-3.55553e-15
-2.34469e-15
-4.68069e-16
-3.6374e-16
6.1224e-15
1.85163e-16
4.4606e-15
-2.32271e-15
1.80706e-16
-3.56338e-16
5.02466e-15
-2.91539e-16
5.70959e-15
-4.313e-16
1.52463e-16
-7.32959e-15
-1.19359e-15
-3.87561e-15
7.17508e-17
-3.90079e-15
-4.6565e-16
5.67448e-15
3.65426e-16
3.85495e-15
-3.7298e-16
-6.71717e-16
7.00786e-15
1.19046e-16
9.23662e-15
6.37417e-15
-5.70669e-16
-6.57437e-15
-8.9402e-15
4.33462e-15
1.12538e-16
2.09776e-15
3.0153e-15
-1.89435e-15
-5.22642e-15
-5.6817e-15
-3.51905e-17
-1.43163e-15
4.15058e-16
-6.10527e-15
-6.02883e-15
-6.39565e-15
-6.3993e-15
-1.08166e-15
-7.61623e-16
5.85096e-15
4.73113e-15
3.87317e-15
5.35579e-15
4.66186e-15
-5.50119e-16
2.48626e-16
5.54828e-15
-3.38783e-15
-4.91795e-15
6.91005e-15
6.76146e-16
2.56876e-15
-3.99401e-15
-3.0625e-15
-4.61705e-15
3.73929e-15
6.87053e-15
-4.48308e-15
6.34298e-15
4.04794e-15
-2.56973e-15
-6.67863e-15
-1.03027e-15
-1.03866e-16
-5.13588e-16
-4.01595e-16
6.87133e-15
-5.9478e-15
-4.6744e-16
1.86335e-16
3.80393e-15
4.60544e-17
-3.83866e-15
-3.78758e-16
1.04645e-16
5.91807e-15
-4.14949e-15
4.2257e-15
-5.83831e-15
-2.34744e-15
2.46299e-15
3.26782e-15
2.33874e-15
)
;

boundaryField
{
    front
    {
        type            empty;
    }
    back
    {
        type            empty;
    }
    bottom
    {
        type            uniformFixedValue;
        uniformValue    
        {
            type            scale;
            scale           
            {
                type            squarePulse;
                start           0.3;
                duration        0.3;
            }
            xScale          
            {
                type            constant;
                value           1;
            }
            value           
            {
                type            constant;
                value           15.1;
            }
        }
        value           uniform 0;
    }
    left
    {
        type            zeroGradient;
    }
    top
    {
        type            zeroGradient;
    }
    right
    {
        type            zeroGradient;
    }
    inner_arc
    {
        type            zeroGradient;
    }
}


// ************************************************************************* //
