/*--------------------------------*- C++ -*----------------------------------*\
  =========                 |
  \\      /  F ield         | OpenFOAM: The Open Source CFD Toolbox
   \\    /   O peration     | Website:  https://openfoam.org
    \\  /    A nd           | Version:  9
     \\/     M anipulation  |
\*---------------------------------------------------------------------------*/
FoamFile
{
    format      ascii;
    class       volScalarField;
    location    "1.78";
    object      p;
}
// * * * * * * * * * * * * * * * * * * * * * * * * * * * * * * * * * * * * * //

dimensions      [0 2 -2 0 0 0 0];

internalField   nonuniform List<scalar> 
1655
(
11.1383
11.1274
11.1319
11.1344
11.1344
11.1329
11.1296
11.1332
11.1231
11.1343
11.1343
11.1337
11.1338
11.1315
11.1294
11.1287
11.1267
11.1236
11.1289
11.1314
11.1274
11.1228
11.1348
11.135
11.137
11.129
11.1285
11.1264
11.1281
11.1277
11.1233
11.1311
11.1305
11.1334
11.1242
11.1324
11.133
11.1279
11.1306
11.1267
11.1275
11.135
11.131
11.1261
11.1292
11.1347
11.1333
11.1289
11.1336
11.1311
11.1327
11.1307
11.1277
11.125
11.1242
11.1295
11.1279
11.1368
11.135
11.1298
11.1255
11.1311
11.1395
11.1325
11.1228
11.1222
11.1231
11.1358
11.1236
11.1352
11.1369
11.1253
11.1276
11.128
11.1325
11.1286
11.1289
11.1245
11.1278
11.1277
11.1222
11.1286
11.1234
11.1256
11.1278
11.1285
11.1331
11.1274
11.1268
11.1286
11.1285
11.1329
11.1284
11.1337
11.1307
11.1294
11.1228
11.1365
11.1329
11.1289
11.133
11.122
11.1338
11.1218
11.1223
11.1314
11.1313
11.1278
11.1289
11.1292
11.1297
11.1358
11.1295
11.1278
11.1326
11.1286
11.132
11.1356
11.1285
11.1232
11.1297
11.1324
11.1312
11.122
11.1219
11.1345
11.1312
11.1307
11.1288
11.1281
11.1332
11.1296
11.1325
11.1346
11.1278
11.1256
11.1346
11.1275
11.1277
11.1244
11.1292
11.1285
11.1291
11.1312
11.1214
11.1319
11.1302
11.13
11.1297
11.1187
11.1244
11.1171
11.1316
11.1298
11.1283
11.1313
11.1235
11.1303
11.1319
11.1222
11.1302
11.1273
11.125
11.1309
11.1314
11.1358
11.1264
11.1336
11.1223
11.123
11.1245
11.1257
11.1297
11.1288
11.1277
11.13
11.1334
11.1247
11.128
11.1315
11.1292
11.1262
11.1324
11.1232
11.1287
11.128
11.1287
11.1281
11.1254
11.1278
11.1292
11.1307
11.127
11.1267
11.1281
11.1278
11.1259
11.1282
11.1276
11.1284
11.1286
11.129
11.1318
11.13
11.1279
11.1276
11.1303
11.1271
11.1282
11.1329
11.1242
11.1246
11.1264
11.1338
11.1316
11.1243
11.1321
11.1289
11.1181
11.13
11.1289
11.1274
11.1306
11.1316
11.1303
11.1283
11.1281
11.1284
11.1096
11.1049
11.1288
11.095
11.0931
11.1252
11.1299
11.1291
11.1283
11.128
11.1279
11.0963
11.1286
11.1288
11.0987
11.1276
11.132
11.1275
11.1155
11.1262
11.128
11.1309
11.1268
11.1276
11.128
11.1264
11.1299
11.1204
11.1286
11.1323
11.1256
11.1308
11.1207
11.1278
11.128
11.1199
11.1283
11.1331
11.1308
11.1314
11.1301
11.1315
11.1279
11.126
11.1292
11.1277
11.1261
11.1264
11.1137
11.1319
11.1245
11.1205
11.1262
11.1333
11.1272
11.1281
11.1281
11.1269
11.128
11.1296
11.1305
11.1251
11.1263
11.1275
11.1311
11.1265
11.1292
11.1291
11.1329
11.1135
11.1276
11.1283
11.1293
11.1337
11.1336
11.1288
11.1279
11.1256
11.129
11.1278
11.1299
11.1278
11.128
11.1197
11.1279
11.1201
11.1326
11.1301
11.1275
11.1256
11.1277
11.1288
11.1275
11.1313
11.1296
11.129
11.1293
11.1354
11.1365
11.133
11.1284
11.1275
11.1299
11.1294
11.1313
11.1277
11.129
11.1278
11.1281
11.131
11.1282
11.1282
11.1291
11.1286
11.127
11.101
11.1287
11.1287
11.1314
11.1289
11.1288
11.1276
11.1352
11.1279
11.0974
11.1294
11.125
11.1276
11.1284
11.1281
11.1311
11.1277
11.129
11.1303
11.125
11.1223
11.1296
11.1287
11.1283
11.1355
11.1304
11.129
11.1291
11.1297
11.1289
11.1278
11.1351
11.1303
11.1276
11.1333
11.1289
11.1284
11.1285
11.1213
11.1337
11.1227
11.1287
11.1263
11.1275
11.1316
11.1277
11.1278
11.128
11.1274
11.1281
11.1281
11.1285
11.1271
11.1274
11.1275
11.1262
11.1314
11.1279
11.1293
11.1212
11.1331
11.1266
11.1295
11.1287
11.1271
11.1283
11.1271
11.1346
11.1197
11.124
11.127
11.1294
11.1151
11.1301
11.0931
11.1246
11.1268
11.1318
11.1207
11.1307
11.1271
11.1257
11.1141
11.0938
11.1283
11.1277
11.1266
11.1285
11.1296
11.1262
11.1342
11.1179
11.1195
11.1289
11.128
11.1342
11.1152
11.1288
11.1248
11.1267
11.1269
11.125
11.1182
11.1278
11.1275
11.1277
11.1274
11.1273
11.1088
11.1274
11.1229
11.1263
11.1216
11.1304
11.126
11.1274
11.1294
11.1209
11.1236
11.1208
11.1137
11.1323
11.1339
11.1243
11.1264
11.1176
11.1217
11.1233
11.1288
11.1221
11.1267
11.1119
11.1247
11.1275
11.1203
11.1061
11.1315
11.1277
11.1268
11.1134
11.129
11.1251
11.1192
11.1304
11.1318
11.1265
11.1278
11.1119
11.1284
11.1122
11.1192
11.1202
11.1226
11.1099
11.1323
11.118
11.1195
11.1247
11.1284
11.1313
11.1194
11.1089
11.125
11.1305
11.1234
11.1147
11.1303
11.1325
11.1233
11.1275
11.1242
11.1318
11.1184
11.1172
11.1091
11.1109
11.1174
11.1014
11.0932
11.1246
11.1166
11.115
11.1012
11.1288
11.1225
11.1129
11.1153
11.1274
11.1288
11.1398
11.1288
11.1321
11.1267
11.1338
11.14
11.1229
11.1356
11.1283
11.1235
11.1305
11.1328
11.1306
11.1331
11.144
11.1245
11.1214
11.1246
11.1382
11.1187
11.1243
11.1284
11.114
11.1074
11.1317
11.127
11.1186
11.1295
11.1082
11.1197
11.1048
11.1242
11.1319
11.1148
11.1057
11.1256
11.1296
11.1187
11.1299
11.1261
11.131
11.1272
11.1219
11.1076
11.1212
11.1266
11.107
11.121
11.1303
11.1297
11.1307
11.1183
11.1194
11.1274
11.131
11.0951
11.1176
11.0966
11.1255
11.0975
11.103
11.1096
11.1018
11.1095
11.1279
11.13
11.1148
11.1276
11.1178
11.1204
11.1295
11.13
11.1164
11.118
11.1318
11.1299
11.1282
11.1304
11.116
11.1208
11.1292
11.1262
11.1301
11.1193
11.1029
11.1293
11.1085
11.1163
11.103
11.0966
11.1031
11.1291
11.0998
11.1204
11.0972
11.1012
11.1071
11.1184
11.1127
11.1169
11.1124
11.1284
11.1268
11.1158
11.1332
11.1341
11.1197
11.1062
11.1278
11.1334
11.1195
11.1333
11.1256
11.1326
11.12
11.1293
11.1179
11.1245
11.1176
11.1316
11.1025
11.1131
11.1186
11.132
11.1063
11.124
11.1005
11.1
11.1163
11.1212
11.1183
11.1093
11.1087
11.1258
11.1217
11.1276
11.1347
11.1283
11.1192
11.1135
11.1202
11.1277
11.1194
11.1195
11.1257
11.1256
11.1268
11.1212
11.1247
11.1223
11.118
11.106
11.1173
11.1006
11.1323
11.1273
11.1204
11.1188
11.1177
11.1189
11.1307
11.1178
11.1231
11.1232
11.121
11.1233
11.1266
11.1269
11.1077
11.1228
11.1346
11.1178
11.1277
11.1281
11.1199
11.0998
11.1216
11.1285
11.1026
11.116
11.108
11.1024
11.1016
11.1266
11.1213
11.1257
11.114
11.1274
11.1169
11.119
11.1284
11.112
11.1334
11.1079
11.1244
11.1245
11.1119
11.1207
11.1205
11.1307
11.1272
11.1169
11.1313
11.1261
11.1277
11.1196
11.1208
11.1199
11.0983
11.1323
11.1336
11.1131
11.1201
11.1169
11.1258
11.1307
11.121
11.1188
11.1268
11.1204
11.1274
11.1277
11.1166
11.1267
11.1266
11.125
11.1226
11.1308
11.1118
11.112
11.128
11.1269
11.1279
11.1252
11.1191
11.1071
11.128
11.1282
11.1166
11.1257
11.1263
11.1285
11.104
11.1149
11.1336
11.1232
11.1165
11.1168
11.1268
11.128
11.1284
11.1272
11.1157
11.1161
11.1304
11.1144
11.1236
11.1123
11.1249
11.121
11.1217
11.1275
11.1295
11.1294
11.1043
11.1265
11.1313
11.1242
11.1316
11.1316
11.1307
11.1251
11.1213
11.1093
11.1287
11.1329
11.122
11.1317
11.1083
11.1212
11.1288
11.1316
11.1274
11.123
11.13
11.1289
11.131
11.1248
11.118
11.1301
11.1283
11.133
11.1183
11.1173
11.1272
11.1272
11.1292
11.1212
11.1265
11.1297
11.1225
11.1291
11.1235
11.128
11.1284
11.1275
11.1308
11.1298
11.1256
11.1201
11.125
11.132
11.1314
11.1288
11.1278
11.1221
11.1216
11.1283
11.123
11.1276
11.1273
11.1269
11.1297
11.1324
11.1247
11.1281
11.1274
11.1249
11.1321
11.1267
11.127
11.1264
11.1277
11.1222
11.1327
11.1215
11.1276
11.1266
11.1264
11.1299
11.1338
11.1239
11.1229
11.1232
11.1285
11.1237
11.1148
11.1291
11.1273
11.134
11.1296
11.1285
11.1302
11.1199
11.1295
11.1212
11.1267
11.1304
11.1329
11.1312
11.1284
11.121
11.1334
11.1276
11.1314
11.1149
11.1287
11.1313
11.1277
11.1201
11.1246
11.1309
11.1335
11.1288
11.1219
11.1331
11.128
11.1222
11.1292
11.1281
11.1299
11.1338
11.133
11.1292
11.1293
11.1292
11.1283
11.1245
11.1272
11.1336
11.1291
11.1164
11.129
11.1297
11.1321
11.1221
11.1291
11.1339
11.1308
11.1285
11.1313
11.1331
11.1332
11.1247
11.1221
11.1231
11.1264
11.1274
11.1289
11.1291
11.1301
11.1278
11.1185
11.1293
11.1306
11.1303
11.1291
11.1337
11.1333
11.128
11.1278
11.1289
11.1198
11.1298
11.127
11.1209
11.1272
11.1282
11.1314
11.1192
11.1297
11.1267
11.1289
11.1286
11.1286
11.121
11.1286
11.1298
11.1277
11.1293
11.1287
11.1237
11.1343
11.1338
11.1308
11.1334
11.123
11.1297
11.1332
11.13
11.1291
11.1292
11.1288
11.1334
11.1289
11.1297
11.1288
11.1318
11.1285
11.1279
11.1341
11.128
11.1236
11.1303
11.1291
11.1303
11.1285
11.1344
11.1344
11.1335
11.1245
11.1345
11.131
11.1337
11.1258
11.1316
11.1289
11.1288
11.129
11.1341
11.1336
11.129
11.1285
11.134
11.131
11.1283
11.1289
11.1272
11.1326
11.1262
11.1285
11.1331
11.1287
11.1291
11.1332
11.1289
11.1316
11.1262
11.1111
11.128
11.1287
11.1286
11.1292
11.1304
11.1282
11.1286
11.1291
11.1338
11.1294
11.1247
11.1285
11.1333
11.1283
11.1292
11.1286
11.1328
11.129
11.129
11.1279
11.1294
11.1295
11.1288
11.1284
11.1278
11.1293
11.1321
11.1289
11.1237
11.122
11.129
11.1294
11.1289
11.1291
11.1298
11.1292
11.1345
11.1322
11.1325
11.1319
11.1293
11.1293
11.1324
11.1322
11.1312
11.1318
11.128
11.1273
11.1293
11.1282
11.1277
11.133
11.1323
11.1275
11.1277
11.1319
11.1287
11.1222
11.1304
11.1286
11.1274
11.1324
11.1323
11.1297
11.1321
11.1274
11.1321
11.1214
11.1291
11.1288
11.133
11.1309
11.1292
11.1277
11.1316
11.1325
11.1275
11.1292
11.1292
11.1328
11.1229
11.1327
11.1282
11.1329
11.1305
11.1285
11.1319
11.1286
11.1303
11.1204
11.1282
11.12
11.1218
11.13
11.1281
11.1309
11.1047
11.1127
11.1329
11.1326
11.128
11.1271
11.131
11.1288
11.1281
11.1277
11.1325
11.111
11.1301
11.1304
11.1023
11.1275
11.1297
11.1325
11.1325
11.1306
11.1316
11.1208
11.0932
11.0976
11.1328
11.1294
11.1265
11.129
11.1323
11.1303
11.1307
11.1294
11.1279
11.1312
11.0967
11.0956
11.1285
11.1299
11.1324
11.0975
11.093
11.1336
11.1326
11.1317
11.1306
11.1301
11.0992
11.1318
11.1273
11.1279
11.1311
11.1146
11.1318
11.1314
11.1297
11.1289
11.1225
11.1306
11.1276
11.122
11.1283
11.1284
11.1312
11.1268
11.1223
11.1236
11.1311
11.1277
11.1277
11.1224
11.1309
11.1301
11.1322
11.1315
11.1211
11.1298
11.1279
11.1268
11.1275
11.1345
11.1289
11.1276
11.1315
11.1202
11.1132
11.1279
11.1223
11.1252
11.1278
11.1279
11.1216
11.1089
11.13
11.1321
11.1312
11.1301
11.1072
11.1279
11.1336
11.1271
11.0955
11.1032
11.1286
11.1315
11.1253
11.1329
11.1334
11.0966
11.1331
11.1246
11.1281
11.1281
11.1255
11.1182
11.1328
11.0951
11.1325
11.1337
11.128
11.1337
11.1279
11.1283
11.1285
11.134
11.1265
11.1039
11.1285
11.1241
11.1229
11.1107
11.1197
11.1314
11.1279
11.1281
11.1231
11.128
11.1267
11.1283
11.1213
11.124
11.1245
11.1285
11.124
11.1296
11.1287
11.1338
11.1312
11.1277
11.1315
11.12
11.1287
11.1296
11.1267
11.1367
11.1286
11.1282
11.125
11.1335
11.1343
11.1297
11.106
11.1277
11.1211
11.1261
11.1257
11.1225
11.1278
11.124
11.1318
11.1237
11.1278
11.1228
11.1229
11.1294
11.1251
11.1239
11.1322
11.1342
11.1344
11.1362
11.1346
11.1237
11.1352
11.1295
11.1279
11.1348
11.1314
11.1285
11.1321
11.1228
11.1254
11.1258
11.1376
11.1282
11.1223
11.1217
11.1226
11.1195
11.1217
11.1207
11.1315
11.1265
11.1246
11.1306
11.1237
11.1223
11.131
11.1175
11.1213
11.1276
11.125
11.1403
11.1318
11.1324
11.1228
11.139
11.129
11.131
11.1329
11.1301
11.1432
11.1237
11.1373
11.1272
11.1257
11.1409
11.1314
11.1326
11.1232
11.1425
11.1383
11.1296
11.1291
11.1235
11.1192
11.1277
11.1353
11.1352
11.1233
11.1266
11.1279
11.1274
11.1314
11.1284
11.1129
11.1284
11.1418
11.1441
11.1276
11.131
11.1288
11.1315
11.1256
11.1353
11.1317
11.1284
11.1278
11.1281
11.1285
11.1349
11.1326
11.1288
11.1223
11.1431
11.1338
11.1283
11.1299
11.1164
11.1314
11.128
11.129
11.1354
11.1315
11.1289
11.1293
11.1231
11.1292
11.1404
11.1265
11.1417
11.127
11.1347
11.1298
11.1412
11.1304
11.129
11.1276
11.1285
11.1317
11.1346
11.1288
11.1332
11.121
11.1379
11.1291
11.131
11.1291
11.1347
11.134
11.1292
11.1289
11.1346
11.1308
11.1374
11.1375
11.1325
11.1292
11.1288
11.1337
11.1245
11.1312
11.1264
11.1224
11.1219
11.133
11.1289
11.1299
11.1301
11.1207
11.1222
11.13
11.128
11.1283
11.1213
11.1282
11.1228
11.1278
11.1313
11.1211
11.134
11.1226
11.1305
11.134
11.1281
11.1352
11.1332
11.1314
11.1332
11.1283
11.1278
11.118
11.1309
11.1317
11.1315
11.1351
11.135
11.1287
11.127
11.1249
11.1315
11.129
11.1361
11.1285
11.1287
11.134
11.1282
11.1243
11.1339
11.1269
11.1304
11.1233
11.1275
11.1299
11.1282
11.1314
11.1298
11.1354
11.1347
11.1354
11.1343
11.1334
11.1341
11.1345
11.1338
11.1342
11.1277
11.1252
11.1253
11.1286
11.1348
11.1378
11.1298
11.1318
11.1294
11.123
11.1372
11.1335
11.1161
11.1299
11.1312
11.1229
11.1349
11.1298
11.1283
11.134
11.1282
11.1267
11.1351
11.129
11.1294
11.1243
11.1394
11.1292
11.1339
11.1266
11.123
11.1291
11.1287
11.1245
11.1265
11.1334
11.1312
11.1255
11.1333
11.1276
11.1277
11.1283
11.1339
11.1331
11.1359
11.1302
11.1311
11.1287
11.1229
11.1272
11.1347
11.1294
11.1297
11.1174
11.1306
11.1333
11.1314
11.1349
11.1286
11.1301
11.1325
11.1234
11.1343
11.1293
11.1226
11.1338
11.1381
11.1346
11.1314
11.1295
11.1347
11.141
11.1319
11.1296
11.1351
11.1248
11.1289
11.1312
11.1221
11.1275
11.1133
11.1271
11.1299
11.1314
11.1244
11.1242
11.135
11.1271
11.1327
11.1337
11.1294
11.1259
11.1187
11.1321
11.1257
11.1279
11.1316
11.1216
11.1314
11.1321
11.1224
11.1346
11.1291
11.1303
11.1281
11.1248
11.1318
11.1301
11.1279
11.1279
11.1393
11.1234
11.1286
11.1315
11.1284
11.1313
11.1343
11.1293
11.1215
11.1285
11.1293
11.1313
11.1278
11.1354
11.1339
11.1315
11.1338
11.131
11.1319
11.1265
11.1339
11.1335
11.1411
11.124
11.1367
11.1315
11.143
11.13
11.1314
11.132
11.1268
11.1313
11.1349
11.1332
11.1289
11.1302
11.1296
11.1235
11.1291
11.129
11.1293
11.1349
11.1233
)
;

boundaryField
{
    back
    {
        type            empty;
    }
    front
    {
        type            empty;
    }
    top
    {
        type            zeroGradient;
    }
    outer_arc
    {
        type            zeroGradient;
    }
    bottom
    {
        type            uniformFixedValue;
        uniformValue    
        {
            type            table;
            format          csv;
            file            "outlet_p.csv";
            nHeaderLine     1;
            refColumn       0;
            componentColumns List<label> 1(1);
            separator       ",";
            mergeSeparators 0;
        }
        value           uniform 11.1217;
    }
    inner_arc
    {
        type            zeroGradient;
    }
}


// ************************************************************************* //
