/*--------------------------------*- C++ -*----------------------------------*\
  =========                 |
  \\      /  F ield         | OpenFOAM: The Open Source CFD Toolbox
   \\    /   O peration     | Website:  https://openfoam.org
    \\  /    A nd           | Version:  9
     \\/     M anipulation  |
\*---------------------------------------------------------------------------*/
FoamFile
{
    format      ascii;
    class       surfaceScalarField;
    location    "0.04";
    object      phi;
}
// * * * * * * * * * * * * * * * * * * * * * * * * * * * * * * * * * * * * * //

dimensions      [0 3 -1 0 0 0 0];

internalField   nonuniform List<scalar> 
1363
(
-1.26646e-06
1.05268e-06
2.13786e-07
-8.1243e-07
8.9385e-07
-8.14199e-08
8.40883e-07
-7.57479e-07
-8.3404e-08
-5.73605e-07
1.35108e-06
-7.77471e-07
9.26363e-07
-8.54799e-08
8.53142e-07
-4.43965e-08
-8.08746e-07
-8.36829e-07
8.36829e-07
7.26684e-07
1.26459e-07
-9.97457e-07
8.38226e-07
1.5923e-07
-8.90605e-08
-9.08396e-07
-7.732e-07
7.62892e-07
1.03081e-08
6.96964e-07
-8.63742e-07
1.66778e-07
8.98645e-07
-1.47225e-06
-7.7204e-07
8.02108e-07
-3.00683e-08
1.69819e-07
5.27145e-07
-7.58599e-07
-5.38311e-08
1.17965e-08
1.09579e-06
-1.10759e-06
-4.32618e-07
-8.33847e-07
-1.21676e-06
-1.08818e-07
1.32557e-06
7.26626e-07
-7.26626e-07
7.6923e-07
-7.57433e-07
-2.72873e-07
-5.90869e-07
-9.59086e-07
-7.45924e-08
1.03368e-06
-2.76237e-08
-1.13249e-06
1.16012e-06
-2.23847e-07
-5.49352e-07
-1.02534e-06
9.97718e-07
6.91195e-07
-7.21115e-07
2.99207e-08
-1.11611e-06
1.57028e-07
1.06254e-06
-1.35611e-06
2.93572e-07
3.01341e-07
-1.37114e-06
1.0698e-06
1.02212e-06
-7.09906e-08
-9.51127e-07
-2.84368e-08
7.19631e-07
-1.64233e-07
1.22677e-06
1.30002e-06
-2.71279e-07
-1.02874e-06
7.161e-07
-7.04857e-07
-1.12431e-08
1.22125e-07
9.3167e-07
-1.05379e-06
-1.33492e-06
7.04278e-07
6.30641e-07
9.30303e-07
-1.81155e-07
-7.49148e-07
-6.43139e-07
-6.91779e-07
-8.11231e-09
-1.12438e-06
-1.07011e-06
1.36097e-06
-2.90862e-07
1.14098e-06
-8.62513e-07
-2.78467e-07
1.10024e-06
-1.10835e-06
-1.22428e-07
-7.14401e-07
5.43759e-07
2.9307e-07
-1.12712e-06
-4.88869e-08
1.176e-06
1.12551e-06
2.58081e-08
-1.15132e-06
6.55517e-08
1.23447e-06
1.68834e-07
-1.23894e-06
-1.72718e-07
-5.99322e-07
-1.19342e-06
-2.33386e-08
1.01492e-06
-1.08951e-06
1.20621e-06
-1.08408e-06
-1.39492e-06
6.96039e-07
6.98883e-07
1.09906e-06
-1.18812e-06
6.31643e-09
9.91023e-07
-9.9734e-07
6.96932e-07
-6.96932e-07
-6.13292e-08
1.16039e-06
5.79104e-07
1.17828e-07
-5.49146e-08
9.52757e-07
-8.97843e-07
-7.68023e-07
1.06936e-06
7.45588e-07
-7.31638e-07
-1.39499e-08
7.23305e-07
-9.94584e-07
3.51843e-08
1.01749e-06
1.03246e-06
-1.02154e-07
7.30676e-07
-5.37459e-07
-1.93218e-07
2.44729e-08
-1.21404e-06
1.20218e-06
1.18669e-08
-1.18424e-06
1.19056e-06
8.38876e-07
-6.69839e-07
-1.69036e-07
5.43026e-07
3.50824e-07
-8.27322e-07
6.90744e-07
1.36577e-07
6.66138e-07
-6.66138e-07
-4.97761e-07
-8.73379e-07
-1.07293e-06
-3.21988e-07
9.64072e-08
6.30219e-07
-5.18782e-07
-2.07844e-07
-1.5538e-08
1.01935e-06
2.76438e-09
-6.71579e-07
-8.70205e-08
3.4633e-09
5.23718e-07
-5.27181e-07
-1.09633e-06
-7.37444e-07
2.41392e-08
7.13305e-07
5.90974e-08
-6.96135e-07
1.58677e-07
-7.60464e-07
7.80733e-07
-2.02691e-08
9.54243e-07
-1.00916e-06
5.79365e-07
9.34218e-08
-6.72786e-07
2.28686e-07
5.73423e-07
-2.37945e-07
-4.99499e-07
5.79912e-07
5.61068e-07
6.12557e-07
-8.6848e-09
-6.03872e-07
-1.24013e-06
1.1788e-06
-1.4743e-07
1.13845e-06
1.88737e-08
-1.01621e-06
-7.63403e-07
6.47966e-07
1.15437e-07
1.47492e-07
-1.01e-06
-1.18407e-07
6.97772e-07
-5.43098e-07
5.46561e-07
2.64434e-07
7.766e-07
7.8139e-09
-7.84414e-07
1.20016e-07
-1.36014e-06
-6.79077e-08
7.16448e-07
-1.05445e-06
1.07332e-06
2.93737e-07
7.75628e-07
4.25634e-08
-1.16968e-06
-5.56657e-08
-1.25839e-06
1.31405e-06
-2.55037e-08
-1.18854e-06
3.54507e-08
1.16673e-06
-5.01428e-08
-1.1341e-06
3.12885e-08
1.15927e-06
9.6611e-07
-4.53966e-07
-3.73355e-07
1.87785e-07
5.75107e-07
6.12557e-07
4.65915e-08
-9.3667e-07
8.90079e-07
8.66682e-07
4.84394e-07
-5.31342e-07
7.95777e-07
3.19273e-07
-1.1345e-06
8.15227e-07
-7.95777e-07
1.08951e-06
1.11035e-06
-7.21054e-08
-1.03825e-06
1.10024e-06
6.12307e-07
-6.07041e-07
8.62921e-07
1.56432e-07
1.01492e-06
-1.27259e-06
1.10835e-06
1.27259e-06
-1.03605e-06
-2.36539e-07
1.20621e-06
1.03951e-06
-1.14833e-06
-1.03951e-06
1.1406e-06
-1.01089e-07
1.14833e-06
-1.12252e-06
1.11257e-06
-1.04702e-06
-1.11257e-06
1.08707e-06
-1.1406e-06
1.09171e-06
-1.1341e-06
1.08396e-06
1.12252e-06
-1.08707e-06
1.11525e-06
-1.08396e-06
-1.11525e-06
1.28408e-06
1.04702e-06
-1.28408e-06
2.37057e-07
-1.09171e-06
1.03605e-06
1.0127e-06
-1.20394e-07
9.83314e-07
7.10632e-07
1.60512e-08
1.02391e-07
9.79118e-08
-7.67751e-07
1.13017e-07
5.77727e-07
9.60402e-08
-1.06913e-06
9.73086e-07
-1.69282e-07
-5.91182e-07
1.22882e-07
5.8775e-07
2.93399e-07
-8.22615e-07
5.29216e-07
6.84617e-07
-6.93302e-07
-6.08047e-07
6.29668e-07
-2.1621e-08
-7.30236e-07
2.53792e-08
2.06686e-07
-8.49825e-07
-5.65395e-07
-1.3074e-07
-1.33867e-07
4.45558e-07
-3.11692e-07
1.60867e-08
-6.66996e-07
-5.92077e-07
2.66818e-08
1.12815e-06
-9.21467e-07
-1.45091e-06
6.73435e-07
6.4797e-07
4.55678e-08
-6.93538e-07
9.32404e-07
-6.39006e-07
-2.9659e-08
-6.85561e-07
7.1522e-07
2.43415e-07
5.33186e-07
8.77912e-07
-1.61464e-07
-8.23823e-08
1.54089e-08
4.59259e-08
-7.96771e-08
-2.37428e-08
-3.40487e-07
2.19411e-07
5.61323e-07
-8.64709e-07
6.52089e-07
2.1262e-07
-3.74402e-08
6.85406e-07
-3.1969e-07
-5.45019e-07
6.55113e-07
-8.02543e-07
-9.10584e-07
6.9858e-07
2.12004e-07
-6.56226e-07
4.8179e-08
-7.72964e-07
-5.83145e-07
8.00318e-07
-2.58494e-07
-9.30379e-07
-9.93941e-07
-9.49117e-07
-5.86615e-08
1.00778e-06
-7.76906e-07
-1.12725e-07
8.89631e-07
5.86801e-07
-7.56083e-07
8.85386e-07
-1.86806e-07
7.77644e-07
-7.34113e-07
-4.3531e-08
7.28971e-07
1.56415e-07
-1.10498e-06
7.64495e-07
1.08065e-07
-1.05919e-06
9.9435e-08
-8.76341e-07
1.39842e-06
-4.99779e-07
8.25699e-07
-8.48063e-07
2.23646e-08
7.91684e-07
5.69289e-07
-1.18742e-06
1.18742e-06
-5.31342e-07
4.82414e-07
9.16009e-07
-8.10969e-07
9.10404e-07
1.01341e-06
1.02811e-06
1.05878e-06
-1.03996e-06
-8.38103e-07
7.25378e-07
-8.7182e-08
-5.06424e-08
-5.97423e-07
1.07984e-06
-3.8426e-07
1.06724e-06
-6.82985e-07
-7.67264e-07
7.53314e-07
-9.31363e-07
-3.19776e-07
1.01754e-06
-6.97769e-07
-1.16324e-07
7.03125e-07
7.85512e-07
-5.72393e-07
-2.13119e-07
-8.6365e-07
1.55865e-08
-8.13896e-07
-4.97537e-08
-7.94998e-07
9.72338e-07
-1.7734e-07
8.50725e-07
-1.1705e-06
-1.21949e-07
8.5092e-07
1.01941e-06
-6.43513e-07
-3.75898e-07
5.82136e-07
-5.82136e-07
6.18434e-07
-6.18434e-07
-9.66004e-09
-7.57604e-07
-8.20252e-07
9.41948e-07
-1.21697e-07
8.47922e-07
1.25769e-07
-9.73691e-07
1.76039e-07
-1.16998e-06
-7.63991e-07
-7.41115e-08
6.22398e-07
-6.22398e-07
-5.91629e-07
5.91629e-07
2.22547e-07
5.58996e-07
-1.15642e-06
6.50958e-07
1.34554e-07
1.52086e-07
9.55987e-07
-8.94242e-07
8.03455e-08
-7.68473e-07
3.63155e-07
5.14756e-07
-9.07343e-08
-7.94395e-07
8.85129e-07
7.86134e-07
-5.73514e-07
-6.33745e-07
8.45748e-07
-9.08998e-07
-8.51214e-07
-6.00565e-08
9.11271e-07
3.21642e-07
9.06234e-07
7.67984e-07
1.08666e-06
-2.78834e-08
5.92319e-08
-7.93345e-07
-6.76712e-07
8.33127e-07
4.36324e-07
-9.16344e-07
8.4251e-08
7.66669e-07
-5.95338e-07
-2.63932e-07
8.5927e-07
1.52389e-07
-1.06451e-06
8.8717e-07
2.6215e-07
-8.57488e-07
-7.68847e-07
-6.71664e-07
7.55915e-07
-9.387e-07
8.78644e-07
3.22459e-08
7.93932e-07
-8.26178e-07
-8.83153e-07
8.6837e-07
4.29011e-08
1.01948e-06
-1.51115e-07
-7.03543e-07
8.37571e-07
-1.34029e-07
7.95797e-07
2.13174e-08
7.31997e-07
-8.14634e-07
-5.14899e-07
7.77049e-07
-6.55955e-07
-1.07051e-07
7.63006e-07
-8.30931e-07
7.874e-07
-6.91587e-08
1.08408e-06
1.05662e-06
-1.24952e-07
9.94768e-07
-1.06393e-06
-7.37522e-07
8.15662e-08
1.04152e-06
-6.11011e-07
-4.30506e-07
-8.55086e-07
8.71173e-07
2.66978e-08
7.28376e-07
-7.55074e-07
-7.88131e-07
8.14829e-07
7.11797e-07
4.4118e-08
7.44043e-07
5.03424e-07
5.38093e-07
1.11194e-06
-3.16139e-07
-8.57261e-07
3.42362e-07
-1.63241e-07
9.28926e-07
-7.65686e-07
-6.68403e-07
5.61353e-07
-1.09371e-06
6.85919e-07
4.0779e-07
9.5462e-07
-7.93076e-07
-1.61544e-07
9.95341e-08
2.36006e-07
-1.02908e-06
-8.21471e-09
8.79388e-07
9.24358e-07
-1.14828e-07
-8.0953e-07
-9.14578e-09
-1.05264e-06
2.79306e-07
7.73333e-07
-9.14935e-07
4.33225e-07
4.8171e-07
1.53696e-07
7.70662e-07
8.2562e-07
5.95093e-08
-9.69548e-07
5.60645e-07
4.08903e-07
5.9009e-07
-5.9009e-07
6.30219e-07
-6.03872e-07
-7.14401e-07
-5.88221e-07
5.88221e-07
-5.37345e-07
5.37345e-07
6.12307e-07
7.16372e-07
-9.35235e-07
2.18862e-07
-5.80585e-07
5.80585e-07
-5.84911e-07
5.84911e-07
5.79104e-07
5.47501e-07
-5.47501e-07
-5.88841e-07
5.88841e-07
-5.18782e-07
5.49507e-07
-5.49507e-07
5.43759e-07
-6.07041e-07
6.86642e-07
4.25295e-07
2.85603e-07
5.40479e-07
-8.26083e-07
6.15616e-07
-6.15616e-07
7.61793e-07
-9.25034e-07
-9.51069e-07
6.72602e-07
5.94365e-07
-5.94365e-07
-1.06189e-06
4.50875e-07
8.15035e-07
-1.09238e-06
2.77348e-07
-1.80707e-07
-6.63196e-07
8.43902e-07
-5.86652e-07
-4.65986e-07
-8.42818e-07
6.62112e-07
-6.95181e-07
-3.66704e-07
-4.8187e-07
-4.33065e-07
7.08104e-07
-1.31053e-06
6.02429e-07
-3.85605e-07
1.1341e-06
1.09882e-06
-9.45119e-07
1.26534e-07
-7.7046e-07
6.43926e-07
-3.89636e-07
1.08079e-06
-7.97285e-07
-2.83502e-07
-8.42665e-07
8.3445e-07
1.13679e-06
-8.51241e-07
7.9392e-07
5.73205e-08
-2.34697e-07
5.80107e-09
8.98939e-07
-7.99405e-07
9.268e-07
-6.90794e-07
-1.73441e-07
8.93233e-07
-6.27154e-07
-2.66078e-07
-3.01531e-07
-1.009e-06
-6.14297e-07
-2.28521e-07
-8.82624e-07
7.67796e-07
-1.09999e-07
2.2339e-07
-9.30715e-07
7.07325e-07
8.15512e-07
-6.88978e-07
8.89648e-07
-6.10342e-07
4.69442e-07
3.19972e-07
-7.89414e-07
-2.34409e-07
8.54976e-07
-6.20567e-07
-7.28981e-08
9.57285e-07
-5.2406e-07
-4.97755e-07
-2.88634e-07
7.86389e-07
3.80593e-07
-8.30749e-07
4.50156e-07
9.71486e-07
-4.10841e-07
-6.05687e-07
-1.64773e-07
1.00591e-06
9.69808e-07
-2.97206e-07
-9.94052e-07
7.1055e-07
5.62749e-08
-1.67911e-08
8.01424e-07
-8.74322e-07
1.27395e-07
2.02439e-07
3.70633e-07
5.0609e-07
-7.40499e-07
-8.87031e-08
2.62493e-07
7.8857e-07
1.78664e-07
-7.87644e-07
6.08981e-07
-2.10358e-07
8.17514e-07
-6.07155e-07
8.5134e-07
-4.70747e-07
6.65195e-07
-8.99891e-07
3.57221e-07
-3.61307e-07
4.89616e-07
-1.0005e-06
6.33794e-07
5.90268e-08
-1.62919e-07
5.80172e-07
5.56929e-07
-8.45563e-07
-5.42558e-07
8.6253e-07
-9.1264e-07
3.02298e-07
-9.36437e-07
4.12377e-07
8.71686e-07
-7.02626e-08
7.61687e-07
-6.04736e-07
-2.84845e-07
8.89581e-07
-9.8509e-07
5.54584e-07
-9.01942e-07
-5.32668e-07
-2.56746e-07
-9.27194e-07
5.16353e-07
5.78212e-07
1.84484e-07
-8.4768e-07
-4.46821e-07
-5.42007e-07
-2.89947e-07
7.59364e-07
6.05268e-07
2.53959e-07
-8.59227e-07
8.13543e-07
-6.34879e-07
8.29743e-07
-4.72522e-07
8.67761e-07
5.33686e-07
2.52703e-07
-1.62229e-07
8.04308e-07
-6.42079e-07
-7.25378e-07
8.52773e-07
2.36747e-07
-3.47022e-07
5.78467e-07
-8.07556e-07
7.90765e-07
-2.04645e-07
8.13625e-07
7.44566e-07
-2.26748e-07
9.34073e-07
-6.46103e-07
-2.26735e-07
8.72838e-07
7.15407e-07
-8.88849e-07
6.99418e-07
-8.62337e-07
-5.77573e-07
7.65242e-07
-1.87669e-07
5.97135e-07
-8.72851e-07
-3.51296e-07
6.44126e-07
7.01216e-07
-7.82636e-07
-1.27162e-07
-6.63117e-07
8.65556e-07
-7.70199e-07
8.26474e-07
-8.76408e-07
-1.73433e-07
-9.74027e-07
4.47204e-07
5.26823e-07
1.48709e-07
1.40178e-07
-5.12834e-07
8.88507e-07
-3.75672e-07
8.25736e-08
-1.89178e-08
-7.32651e-07
7.51568e-07
-8.81479e-07
3.39473e-07
9.54445e-07
-3.99861e-07
-5.71658e-07
9.08136e-07
-3.91783e-07
1.10714e-07
-7.99692e-07
-4.69103e-07
-4.70603e-07
8.68521e-07
4.83842e-07
-8.40327e-07
7.51623e-07
-9.12695e-07
4.61316e-07
5.75909e-07
-9.27206e-07
-4.95614e-08
4.40821e-07
4.47686e-07
-4.61437e-07
9.51685e-07
-4.90248e-07
2.8308e-07
5.89758e-07
-8.37109e-07
-3.17009e-07
-3.36786e-07
2.04656e-07
6.98971e-07
-8.26133e-07
2.61249e-07
5.03994e-07
9.24663e-07
-5.32949e-07
-3.76131e-07
9.0908e-07
7.91486e-08
-6.84836e-07
-9.21283e-07
6.57351e-07
7.20543e-07
-7.70105e-07
-5.43947e-08
7.55611e-07
7.68066e-07
-1.17031e-06
4.02245e-07
-1.04633e-07
-6.78003e-07
1.03978e-06
5.05705e-07
4.18958e-07
-4.74041e-07
-3.52042e-07
9.5291e-07
4.14296e-07
5.37389e-07
-9.48405e-07
4.74364e-07
-8.84991e-07
-7.87045e-07
1.03322e-06
-2.65155e-07
-5.7068e-07
-7.04472e-07
-4.66033e-07
-8.09105e-07
6.68927e-07
1.44698e-07
-8.51006e-07
5.1422e-07
-3.29212e-07
-5.92071e-07
-1.85364e-08
-3.22889e-07
-7.50585e-07
5.76779e-07
-2.64668e-07
9.22019e-07
1.87091e-07
-1.07024e-06
-3.95949e-07
-5.52456e-07
-7.09615e-07
8.62827e-08
9.31211e-07
8.61982e-07
-6.43489e-07
-1.10312e-08
3.32226e-07
7.00994e-07
-7.866e-07
9.79024e-07
9.84565e-07
-7.17371e-07
-2.67194e-07
1.97965e-07
6.49812e-07
-1.44498e-07
8.50005e-07
-7.05507e-07
9.82038e-07
7.56337e-07
1.16474e-08
-9.12971e-07
8.90118e-07
-3.86124e-07
7.77654e-07
5.67229e-07
6.46151e-07
-7.64258e-07
7.15006e-07
2.07012e-07
-6.93925e-07
-9.94196e-08
-2.77535e-07
-7.92709e-07
1.0599e-06
-3.58909e-07
-1.15394e-06
-7.98615e-07
1.04689e-07
4.0867e-07
6.58574e-07
9.87011e-07
-6.65369e-07
8.02986e-07
-1.47657e-07
-8.53164e-07
7.55235e-07
-6.50545e-07
-4.56193e-08
-9.31752e-07
6.95459e-07
2.36293e-07
-6.36764e-07
-2.52149e-07
6.51151e-07
6.69946e-07
-9.51063e-07
-7.28517e-07
-2.89599e-07
-6.37356e-07
9.67666e-07
-9.06957e-07
8.32046e-07
6.05192e-07
-4.42474e-07
-5.50666e-07
-4.44928e-07
-5.92928e-07
5.86497e-07
5.02319e-07
-4.30655e-07
-6.54853e-07
-6.6866e-07
5.06008e-07
1.62652e-07
-4.91029e-07
-3.44968e-07
9.8506e-07
-5.48735e-07
3.03731e-07
4.36664e-07
-4.7713e-07
-6.97262e-07
-4.38055e-07
-3.59139e-07
3.56545e-07
3.8385e-07
7.75058e-07
-1.13397e-06
4.18931e-07
-3.78886e-07
-1.07983e-06
1.04319e-06
-2.73964e-07
-7.43178e-07
-9.95594e-07
-1.02358e-06
-5.07257e-07
-1.61403e-07
6.20325e-07
-5.09674e-07
-6.24825e-07
-7.65023e-07
9.73453e-07
8.90228e-07
-1.13198e-06
-8.31769e-07
-7.83023e-07
-5.07222e-07
-5.63613e-07
-3.21014e-08
-3.28936e-07
1.02497e-06
3.0705e-07
-4.88205e-07
-9.75533e-07
-4.71682e-07
-2.2525e-07
-3.73779e-07
-4.5799e-07
-6.24069e-07
-8.51757e-07
-8.6944e-08
-4.74249e-07
-1.05945e-07
6.48971e-07
1.15415e-06
-9.82156e-07
4.37136e-07
-1.0095e-06
-9.69682e-07
1.03234e-06
-6.26588e-08
-6.16489e-07
-9.63232e-07
-5.81623e-07
-4.79237e-08
-5.42946e-07
-5.55181e-07
-6.16489e-07
-5.63225e-07
9.37691e-07
1.05503e-07
9.27895e-08
-5.36965e-07
9.58596e-07
-6.85167e-08
6.49666e-07
-6.31129e-07
-5.37063e-08
7.61918e-07
3.04548e-07
-1.20456e-06
4.4594e-07
7.58617e-07
-5.51851e-07
-6.18859e-07
-7.02238e-07
-1.35223e-06
-6.15362e-07
-3.66909e-07
1.09021e-06
8.0547e-07
7.91142e-07
1.37784e-07
6.18689e-07
-2.55376e-10
9.47911e-09
-6.46871e-07
5.83815e-07
-1.67936e-09
6.46871e-07
-5.83815e-07
6.79018e-07
6.18689e-07
4.77401e-07
-8.75442e-07
4.42377e-07
7.26342e-07
-5.91788e-07
9.07989e-07
-5.61332e-07
-1.92525e-08
5.914e-07
2.42155e-08
-5.64082e-07
5.92779e-07
-5.61574e-07
-4.22975e-08
-5.61332e-07
6.05308e-07
-1.70866e-08
-5.66019e-07
2.86746e-08
5.50926e-07
-5.91938e-07
7.0267e-09
5.64082e-07
-1.65814e-08
-5.92779e-07
4.52784e-08
5.61574e-07
-1.20673e-08
-5.50926e-07
1.41853e-09
5.91938e-07
-6.05308e-07
5.914e-07
-5.66019e-07
-7.38804e-09
-7.25173e-07
-1.03759e-06
-4.71122e-07
6.75778e-07
-6.57482e-07
9.6203e-07
1.4108e-07
5.49968e-07
7.57969e-08
6.27889e-07
-7.14095e-07
-6.50699e-08
-6.17505e-07
5.49968e-07
3.7936e-07
-9.17453e-07
-9.22971e-07
8.21882e-07
7.01094e-07
5.43273e-07
-5.92832e-09
-5.43273e-07
-6.36694e-07
6.29002e-07
7.69176e-09
-9.7566e-07
4.02604e-07
5.54966e-07
-6.3837e-07
1.11937e-06
8.10871e-07
-8.68191e-07
-6.87682e-07
5.00012e-07
1.83729e-08
-4.75042e-07
6.37936e-07
1.43635e-07
-6.86733e-07
8.5094e-07
-1.06502e-06
-5.9842e-07
5.9842e-07
-8.42895e-07
-5.24768e-07
-5.97554e-07
6.37936e-07
6.80551e-07
-1.05939e-06
7.71591e-07
-1.31391e-07
-5.5417e-07
3.55494e-07
-6.08197e-07
7.65945e-07
-4.99866e-07
4.48364e-07
-4.48364e-07
6.72536e-07
-6.90196e-07
-2.24292e-07
2.24292e-07
8.58487e-07
-8.58487e-07
-7.47042e-07
5.15412e-08
-3.27712e-07
9.47959e-07
-9.98248e-08
-8.48135e-07
4.97792e-07
-4.97792e-07
5.23718e-07
2.5064e-07
4.6458e-07
4.45558e-07
-5.91438e-07
5.94859e-07
9.05472e-08
6.40137e-07
-3.02812e-07
-7.03049e-07
5.75918e-07
1.57109e-08
-5.76048e-07
-2.08366e-07
6.01857e-07
-2.51032e-07
1.57508e-07
4.44349e-07
-6.03666e-07
-1.39512e-07
-3.44957e-07
-4.63789e-07
-5.93003e-07
1.21881e-07
-4.71682e-07
1.46866e-07
5.66439e-07
1.28194e-07
-3.47992e-07
-4.27438e-07
4.27438e-07
-1.21248e-08
5.73477e-07
-6.59802e-07
-5.27181e-07
3.61274e-07
-3.61274e-07
-6.89146e-07
9.66332e-07
-3.90356e-07
-6.05237e-07
-4.66539e-07
-3.38426e-07
9.40965e-07
-6.02539e-07
1.09373e-06
-2.61572e-07
-8.32162e-07
-3.11692e-07
1.42303e-07
5.24864e-07
-9.15221e-07
1.11891e-06
-1.89898e-07
1.89898e-07
-4.331e-07
1.02042e-06
-3.65309e-07
9.80581e-07
-8.42797e-07
4.6143e-07
-6.57234e-07
8.59357e-08
6.60633e-07
4.9395e-07
-8.32376e-07
1.00503e-06
7.9151e-07
-2.70147e-08
4.05713e-08
-6.55933e-07
7.21743e-07
-3.62949e-07
-8.99697e-07
-7.58361e-08
-5.75918e-07
6.16425e-07
-7.06469e-08
9.48539e-07
1.15932e-07
5.00493e-07
-3.17647e-09
9.51715e-07
4.44348e-07
9.04197e-07
2.7078e-07
8.31848e-07
-1.26982e-07
-3.57493e-08
-8.14076e-07
8.17253e-07
5.34436e-07
-1.37275e-07
6.6396e-07
2.46444e-07
-1.24057e-07
5.26222e-07
-5.37253e-07
5.6028e-07
-5.77301e-08
7.36237e-08
-2.51261e-07
5.33914e-07
5.48897e-07
-3.8713e-07
8.71524e-07
8.39903e-08
-5.58874e-07
-3.0248e-08
5.8788e-07
-4.65999e-07
5.75812e-07
-3.89999e-07
4.69786e-07
9.42622e-07
-5.11697e-07
-6.61951e-07
1.07037e-07
-6.30423e-07
1.98974e-07
1.00628e-07
-9.68187e-07
4.94564e-07
-5.1608e-07
-3.47798e-07
-7.32245e-07
6.56408e-07
1.21794e-07
-2.7397e-07
)
;

boundaryField
{
    back
    {
        type            empty;
        value           nonuniform List<scalar> 0();
    }
    front
    {
        type            empty;
        value           nonuniform List<scalar> 0();
    }
    top
    {
        type            calculated;
        value           nonuniform List<scalar> 10(-1.3211e-06 -1.43724e-06 -1.08882e-06 -7.40395e-07 -7.40395e-07 -1.08882e-06 -1.3211e-06 -2.75833e-07 -2.75833e-07 -1.43724e-06);
    }
    outer_arc
    {
        type            calculated;
        value           uniform 0;
    }
    bottom
    {
        type            calculated;
        value           nonuniform List<scalar> 10(8.88913e-07 9.26955e-07 9.9314e-07 1.03786e-06 1.08551e-06 8.35997e-07 1.17439e-06 7.97194e-07 1.1862e-06 8.00604e-07);
    }
    inner_arc
    {
        type            calculated;
        value           uniform 0;
    }
}


// ************************************************************************* //
