/*--------------------------------*- C++ -*----------------------------------*\
  =========                 |
  \\      /  F ield         | OpenFOAM: The Open Source CFD Toolbox
   \\    /   O peration     | Website:  https://openfoam.org
    \\  /    A nd           | Version:  9
     \\/     M anipulation  |
\*---------------------------------------------------------------------------*/
FoamFile
{
    format      ascii;
    class       volScalarField;
    location    "0.88";
    object      p;
}
// * * * * * * * * * * * * * * * * * * * * * * * * * * * * * * * * * * * * * //

dimensions      [0 2 -2 0 0 0 0];

internalField   nonuniform List<scalar> 
90
(
9.2774e-23
9.72894e-24
-6.14998e-22
-1.71509e-21
-8.01533e-22
1.19759e-21
4.00693e-24
2.02073e-22
1.79135e-22
2.0021e-22
-9.74384e-23
3.61507e-22
1.62092e-22
-4.89894e-22
4.32724e-22
2.87224e-21
-3.71407e-21
5.54164e-22
6.06136e-22
1.02339e-22
-2.39843e-24
1.07271e-22
-3.84171e-23
-1.69786e-22
1.64699e-23
-3.80817e-22
2.9942e-22
-1.1009e-22
-7.55769e-22
2.21655e-22
1.50263e-22
-6.60611e-22
-4.80004e-22
-2.89285e-22
-4.4153e-22
3.14569e-21
2.13222e-22
-5.72931e-21
-5.28091e-22
2.3605e-22
3.55571e-22
4.55136e-22
-6.17869e-22
6.84974e-23
1.97452e-23
-7.41229e-22
1.96498e-22
1.40838e-21
6.94655e-22
-8.02012e-22
1.13694e-22
2.01021e-22
3.46864e-22
-5.54172e-22
2.93887e-22
9.59798e-22
8.02161e-24
-8.494e-23
8.05781e-23
-7.86859e-22
2.8559e-22
-6.80552e-22
-1.12613e-21
1.68468e-22
5.81879e-22
2.77981e-22
-6.82501e-22
-8.57301e-22
-4.76417e-21
-3.82952e-22
1.78499e-21
1.88916e-22
-3.11599e-22
1.491e-21
2.72733e-21
2.35179e-22
1.84259e-22
-4.23361e-22
-1.11263e-22
1.27128e-24
-5.39465e-21
4.8759e-23
-9.9255e-23
2.93504e-21
-5.09571e-23
-1.14175e-21
1.34235e-22
1.7293e-22
2.0655e-21
2.98103e-22
)
;

boundaryField
{
    back
    {
        type            empty;
    }
    front
    {
        type            empty;
    }
    bottom
    {
        type            zeroGradient;
    }
    outer_arc
    {
        type            zeroGradient;
    }
    right
    {
        type            uniformFixedValue;
        uniformValue    
        {
            type            scale;
            scale           
            {
                type            squarePulse;
                start           0.3;
                duration        0.3;
            }
            xScale          
            {
                type            constant;
                value           1;
            }
            value           
            {
                type            constant;
                value           15.1;
            }
        }
        value           uniform 0;
    }
    inner_arc
    {
        type            zeroGradient;
    }
}


// ************************************************************************* //
