/*--------------------------------*- C++ -*----------------------------------*\
  =========                 |
  \\      /  F ield         | OpenFOAM: The Open Source CFD Toolbox
   \\    /   O peration     | Website:  https://openfoam.org
    \\  /    A nd           | Version:  9
     \\/     M anipulation  |
\*---------------------------------------------------------------------------*/
FoamFile
{
    format      ascii;
    class       surfaceScalarField;
    location    "0.88";
    object      phi;
}
// * * * * * * * * * * * * * * * * * * * * * * * * * * * * * * * * * * * * * //

dimensions      [0 3 -1 0 0 0 0];

internalField   nonuniform List<scalar> 
122
(
3.47725e-30
-1.19544e-29
1.45845e-30
-1.03741e-29
3.87867e-29
-1.04265e-29
5.97962e-30
8.30118e-30
5.33337e-29
3.21124e-29
-4.47586e-29
-2.15662e-29
1.93062e-29
1.05409e-29
-9.81366e-30
-1.49362e-29
2.64208e-29
-1.30807e-29
7.81393e-30
-1.98638e-30
-1.01927e-30
2.47404e-30
1.97489e-31
-5.34929e-30
2.48015e-29
-5.32706e-29
2.28756e-29
-1.9085e-29
4.93534e-29
1.12136e-28
-1.05904e-28
-7.6246e-29
7.41586e-29
4.24897e-29
-9.46553e-30
1.14986e-29
-1.32547e-29
1.1029e-30
-3.28474e-30
-7.71712e-30
2.43316e-30
-1.69279e-29
1.01352e-29
-6.66884e-30
-5.2941e-30
-1.67056e-29
-1.5499e-29
-6.66237e-30
-2.35295e-29
1.62156e-29
1.42663e-29
-1.17679e-29
-9.0099e-30
-1.01522e-28
-6.20812e-29
-7.40875e-30
1.72758e-29
-3.49472e-30
1.83668e-30
-1.188e-29
-1.73895e-29
1.1666e-29
2.91092e-29
1.97639e-29
1.67293e-30
8.96505e-29
2.12258e-29
-3.21436e-30
1.97634e-30
-4.81938e-30
-8.81924e-30
4.03866e-30
7.99185e-29
-1.22277e-29
-6.32576e-30
3.63946e-31
8.16546e-30
6.10111e-30
-2.04075e-29
-2.32918e-30
4.06339e-30
-1.84836e-29
1.8326e-31
3.09038e-29
1.48577e-29
-6.84369e-29
-4.2042e-30
-2.4588e-30
8.8888e-30
3.13672e-30
-3.38605e-29
9.89201e-30
-1.09382e-29
-1.13554e-29
1.30016e-29
2.13059e-30
3.97513e-30
6.98948e-30
-1.41027e-30
-5.0626e-30
-3.33579e-29
-7.43343e-30
-2.58018e-29
-1.41861e-29
3.98936e-29
-8.12478e-30
-2.07287e-29
-1.07353e-29
1.51996e-29
-2.76337e-29
-2.24894e-29
-7.54664e-30
-3.43635e-30
-1.31141e-29
-8.17902e-31
-8.57628e-30
1.35916e-28
1.06007e-30
-4.84713e-30
6.06937e-30
2.75225e-29
-2.83732e-30
)
;

boundaryField
{
    back
    {
        type            empty;
        value           nonuniform List<scalar> 0();
    }
    front
    {
        type            empty;
        value           nonuniform List<scalar> 0();
    }
    bottom
    {
        type            calculated;
        value           uniform 0;
    }
    outer_arc
    {
        type            calculated;
        value           uniform 0;
    }
    right
    {
        type            calculated;
        value           nonuniform List<scalar> 4(-7.15352e-30 -1.24643e-29 -1.43387e-29 -1.63417e-29);
    }
    inner_arc
    {
        type            calculated;
        value           uniform 0;
    }
}


// ************************************************************************* //
