/*--------------------------------*- C++ -*----------------------------------*\
  =========                 |
  \\      /  F ield         | OpenFOAM: The Open Source CFD Toolbox
   \\    /   O peration     | Website:  https://openfoam.org
    \\  /    A nd           | Version:  9
     \\/     M anipulation  |
\*---------------------------------------------------------------------------*/
FoamFile
{
    format      ascii;
    class       volVectorField;
    location    "0.88";
    object      U;
}
// * * * * * * * * * * * * * * * * * * * * * * * * * * * * * * * * * * * * * //

dimensions      [0 1 -1 0 0 0 0];

internalField   nonuniform List<vector> 
90
(
(-1.02772e-23 6.83701e-23 -4.24434e-39)
(5.81769e-22 8.59212e-23 6.44524e-38)
(2.63124e-21 -3.1629e-21 -6.04743e-38)
(-9.97827e-22 -2.32324e-21 5.98914e-38)
(6.71451e-22 2.30247e-22 1.57127e-37)
(-3.3748e-22 -3.27173e-22 -5.12057e-38)
(-1.03404e-22 8.04014e-23 4.84433e-39)
(4.91799e-22 -1.01163e-22 1.11988e-38)
(-4.78502e-22 2.24646e-22 0)
(-1.07426e-23 3.96673e-23 0)
(3.50485e-24 9.61451e-23 -1.04712e-38)
(-1.59269e-22 7.64629e-23 -5.04806e-40)
(3.52328e-22 -2.9333e-22 2.02481e-39)
(-2.03157e-21 1.35999e-21 4.47832e-39)
(-2.01391e-21 -7.92598e-22 0)
(-1.86801e-21 4.35775e-23 0)
(1.18541e-21 -2.7517e-21 -2.13059e-37)
(5.65055e-21 1.85405e-21 -2.91076e-38)
(1.3339e-21 9.46452e-22 0)
(2.09948e-22 -2.26113e-22 -1.2137e-39)
(-2.57826e-23 -1.69983e-22 4.27523e-39)
(-5.66039e-22 4.6958e-23 1.1041e-38)
(-1.41389e-22 -2.79802e-22 -1.33877e-38)
(3.97828e-23 5.47711e-22 2.8006e-39)
(2.14972e-22 4.2389e-22 -5.66705e-39)
(5.32338e-22 -7.53561e-22 1.07917e-38)
(4.01454e-22 1.53199e-22 -8.60686e-39)
(-1.67287e-22 -3.61189e-22 7.6792e-39)
(4.09064e-21 -1.10479e-21 0)
(7.84566e-22 5.62051e-23 -1.101e-38)
(4.70472e-22 -2.8452e-22 6.57394e-39)
(3.2214e-22 -4.20535e-22 -4.03566e-38)
(3.43184e-22 2.84671e-22 -1.14753e-38)
(2.16703e-22 2.96853e-22 2.23519e-38)
(2.29252e-22 4.33884e-22 -7.39297e-39)
(-1.83576e-21 -1.81023e-21 -7.46075e-38)
(9.45077e-22 -5.82317e-22 0)
(2.00643e-21 -2.56323e-21 0)
(7.02923e-23 -1.28944e-22 1.18657e-38)
(-1.68867e-22 -1.1393e-22 3.50265e-39)
(7.51606e-23 6.60406e-23 -7.51725e-39)
(2.3665e-22 -3.10807e-22 -3.3467e-38)
(-1.79203e-21 8.78968e-22 -3.78253e-39)
(-2.46227e-22 2.94855e-25 -3.61185e-39)
(-2.79419e-22 -4.72518e-23 -1.56894e-39)
(-7.55192e-22 -9.51984e-22 2.80095e-38)
(1.09352e-22 -6.04468e-22 8.70748e-40)
(-6.8648e-22 6.05952e-22 3.41758e-38)
(6.34463e-22 5.90827e-22 -3.71658e-38)
(-9.17398e-22 3.02296e-21 2.51296e-39)
(6.24907e-23 1.8915e-22 0)
(7.7891e-23 2.37547e-23 -9.1016e-39)
(-2.37147e-21 -4.8938e-22 -1.04044e-40)
(-5.59721e-22 -1.89757e-22 0)
(8.58211e-23 -2.13054e-22 1.77438e-38)
(-6.70619e-22 -5.50877e-22 -3.60179e-40)
(-2.92803e-22 3.28027e-24 1.40857e-39)
(-6.21076e-22 -6.29028e-22 0)
(-2.54841e-22 -1.92848e-22 0)
(4.2214e-22 -5.74326e-22 4.48495e-38)
(4.70272e-22 -6.59704e-22 2.16091e-38)
(-3.39306e-22 -1.34113e-21 0)
(-9.72098e-23 -4.67582e-22 5.26272e-38)
(-2.15262e-22 6.5471e-22 -6.15491e-39)
(-9.44551e-23 1.32487e-22 3.85941e-38)
(2.29124e-21 -2.08995e-21 1.0379e-38)
(3.41398e-22 -4.06669e-22 0)
(2.03438e-22 6.3434e-22 0)
(3.17686e-21 -2.13341e-22 2.01038e-38)
(3.14122e-22 1.06859e-21 3.87836e-38)
(-2.69208e-22 7.42363e-22 0)
(-1.13528e-22 -1.59955e-23 7.99312e-39)
(-1.20318e-21 1.20638e-21 0)
(-1.73321e-21 -2.34577e-22 1.12672e-37)
(5.36212e-21 -1.40961e-22 -3.91576e-38)
(4.79889e-22 -8.37997e-23 -8.76583e-39)
(1.73772e-23 -8.23234e-24 -1.95514e-39)
(-1.00896e-21 5.5487e-22 0)
(2.89169e-22 7.00304e-22 -1.30216e-38)
(-1.31723e-22 -2.71828e-23 4.58076e-39)
(1.72775e-21 -9.11746e-22 2.24615e-37)
(-2.6328e-22 -2.97589e-23 1.84636e-40)
(3.41988e-22 -1.36788e-22 -1.34199e-39)
(8.45278e-22 4.13784e-23 7.86281e-38)
(-1.54025e-21 -3.04057e-22 3.4323e-39)
(-3.64904e-22 8.83187e-22 -3.28107e-38)
(-1.24039e-22 -3.14248e-23 5.00866e-39)
(1.1932e-22 -1.1872e-22 -8.79059e-40)
(-9.02281e-22 4.10899e-23 -1.94227e-37)
(2.53008e-22 1.33145e-23 -7.74077e-39)
)
;

boundaryField
{
    back
    {
        type            empty;
    }
    front
    {
        type            empty;
    }
    bottom
    {
        type            uniformFixedValue;
        uniformValue    
        {
            type            scale;
            scale           
            {
                type            squarePulse;
                start           0.3;
                duration        0.3;
            }
            xScale          
            {
                type            constant;
                value           1;
            }
            value           
            {
                type            constant;
                value           (0 0.7 0);
            }
        }
        value           uniform (0 0 0);
    }
    outer_arc
    {
        type            noSlip;
    }
    right
    {
        type            zeroGradient;
    }
    inner_arc
    {
        type            noSlip;
    }
}


// ************************************************************************* //
