/*--------------------------------*- C++ -*----------------------------------*\
  =========                 |
  \\      /  F ield         | OpenFOAM: The Open Source CFD Toolbox
   \\    /   O peration     | Website:  https://openfoam.org
    \\  /    A nd           | Version:  9
     \\/     M anipulation  |
\*---------------------------------------------------------------------------*/
FoamFile
{
    format      ascii;
    class       volVectorField;
    location    "1.73";
    object      U;
}
// * * * * * * * * * * * * * * * * * * * * * * * * * * * * * * * * * * * * * //

dimensions      [0 1 -1 0 0 0 0];

internalField   nonuniform List<vector> 
942
(
(0.0264852 -0.0686495 0)
(0.00747072 -0.0221835 2.79005e-17)
(0.047138 0.11203 0)
(0.0102754 -0.0788364 -1.4742e-17)
(0.0492444 0.124406 8.83801e-18)
(0.0813815 -0.0929309 1.55059e-17)
(0.00355321 -0.00743191 4.10094e-17)
(0.102758 -0.100258 0)
(0.00445516 -0.0483511 -3.22894e-17)
(0.00528265 -0.0530133 3.29123e-17)
(0.0442538 0.0293581 0)
(0.0987617 0.0155862 0)
(0.00974665 -0.0801827 1.37487e-17)
(0.0482562 0.0376623 0)
(0.101715 0.0281689 0)
(-0.0213875 -0.0195277 -3.03267e-17)
(-0.0160262 -0.0272279 -1.19601e-17)
(0.0223852 -0.0695021 0)
(-0.0482662 -0.0214731 -3.57295e-18)
(-0.00601619 -0.00426765 5.48521e-18)
(0.00741586 -0.00556427 2.03916e-17)
(0.122607 0.0139643 1.6348e-17)
(0.0251873 -0.032741 0)
(-0.0258706 -0.0399177 -3.23402e-17)
(0.0552428 0.0359491 0)
(-0.0308651 -0.0497805 2.43035e-17)
(0.0470128 0.127003 0)
(0.0264947 -0.0352598 2.0659e-17)
(-0.0439308 -0.0470749 0)
(0.0196626 -0.0503688 1.30547e-17)
(-0.0332427 -0.0331676 1.63874e-17)
(0.040273 0.119386 0)
(-0.0401914 -0.0450732 1.54112e-17)
(-0.0128098 0.0342147 1.81599e-17)
(0.053923 0.110657 -1.77542e-17)
(-0.0244191 -0.0346841 3.40615e-17)
(-0.0284453 -0.0935369 1.14832e-18)
(0.00531494 -0.0417844 0)
(-0.000250601 -0.075776 -5.88801e-19)
(-0.0276053 -0.0371772 2.30819e-17)
(-0.0313503 0.0642693 -3.23344e-17)
(0.0238585 -0.0766653 0)
(-0.0178621 -0.0198216 -1.59661e-17)
(0.00643422 -0.0171408 -1.36718e-17)
(0.00824482 -0.0165724 -3.45889e-17)
(-0.0409934 -0.0431309 7.79588e-18)
(-0.0528062 -0.0165761 -1.58283e-17)
(-0.0361793 0.0214744 -1.49747e-17)
(-0.0834644 0.0659758 1.66384e-17)
(0.0594618 0.0448018 1.94753e-17)
(-0.0502474 -0.0195712 0)
(0.0174926 -0.0248019 0)
(-0.0143746 -0.0154687 -2.29521e-17)
(-0.00157652 -0.0427835 1.83205e-17)
(0.00539322 -0.0655763 0)
(-0.082148 0.0241861 -1.21489e-17)
(-0.012792 0.0110699 -3.07583e-17)
(0.00693292 -0.0686766 -2.20509e-18)
(-0.0338024 0.0215548 3.93451e-17)
(0.117146 -0.0218113 1.7014e-17)
(0.0155622 -0.0370524 -1.6226e-17)
(0.0501925 0.117736 -4.17761e-17)
(0.0405784 0.0337641 1.95411e-17)
(0.0290588 -0.0617373 -1.59069e-17)
(0.00839897 -0.0422588 1.50805e-17)
(-0.0210021 -0.00100326 1.16054e-17)
(0.0430912 0.110087 3.26653e-17)
(-0.0305854 -0.00403692 -1.49982e-17)
(-0.116824 0.0341994 1.53527e-17)
(0.0170644 -0.0423521 4.23896e-18)
(-0.0076171 -0.0158737 0)
(0.00642302 -0.0323006 0)
(-0.0441243 -0.00946279 -2.00543e-18)
(0.0168033 -0.0572287 3.91306e-18)
(-0.00958666 -0.0439167 -1.73608e-17)
(0.00298823 -0.00642094 -2.53624e-24)
(-0.00655676 -0.00999457 2.0207e-18)
(0.0460187 0.10131 1.8044e-17)
(-0.0221056 -0.0209247 -1.96105e-17)
(-0.00492531 -0.0139957 -3.97367e-18)
(0.0351023 -0.0474349 2.34707e-17)
(-0.0359208 -0.0438249 -8.455e-18)
(0.0368948 0.02097 -2.13814e-18)
(-0.0318973 -0.00726143 8.74563e-18)
(-0.0400092 0.00503418 0)
(0.036127 0.140542 0)
(0.0799891 -0.0123799 -1.7863e-17)
(0.0357344 0.0205175 4.92439e-18)
(0.0581313 0.0468271 0)
(0.0474466 0.0250697 2.44608e-17)
(0.0479602 -0.0392047 -1.24624e-17)
(0.0306636 0.0545323 5.63438e-19)
(0.00693278 -0.0748612 2.4814e-18)
(-0.0411769 0.0360754 0)
(-0.0815754 -0.00744448 -4.79235e-18)
(0.048282 0.00847016 8.87493e-18)
(-0.0207297 -0.08668 1.52476e-17)
(0.0240003 0.0160446 -1.43391e-17)
(0.0386293 -0.0612535 -2.11577e-17)
(0.00945918 -0.0337455 -3.02938e-17)
(0.0126454 -0.0298049 -9.10434e-18)
(0.00585256 -0.0769398 1.02738e-17)
(-0.0472643 -0.0179306 0)
(0.0159759 -0.0380878 1.16623e-17)
(-0.0455056 -0.0207855 -1.84251e-17)
(0.0176508 -0.0315218 -2.97241e-17)
(-0.0395138 -0.0388293 -1.04746e-17)
(-0.0396112 -0.047117 0)
(-0.0387779 -0.000392738 1.62005e-17)
(-0.0458775 -0.0113988 0)
(-0.121711 0.0324678 0)
(-0.116717 0.0608354 -1.62002e-17)
(0.041507 -0.00720841 3.25709e-17)
(0.00606803 -0.0368638 0)
(0.0560371 0.037424 0)
(0.0174508 0.0312948 2.19767e-18)
(0.0870338 -0.030348 -1.74939e-17)
(0.0137403 -0.0775565 1.86294e-17)
(0.00627213 -0.0173572 -6.73589e-23)
(0.153252 0.0700078 -2.12041e-18)
(0.0131123 -0.0211199 7.09042e-18)
(-0.0961585 -0.00397443 -1.81836e-17)
(-0.00355442 3.06146e-05 0)
(-0.0502464 -0.0120657 1.60968e-17)
(-0.0642556 -0.00351486 1.30302e-17)
(-0.0203384 -0.0395378 -3.48225e-17)
(0.00978935 -0.0175874 1.83764e-17)
(-0.0277403 -0.031864 -1.75469e-17)
(-0.0316493 -0.0389161 3.20902e-17)
(-0.029926 -0.00885456 1.67795e-17)
(-0.0316191 -0.0119129 -8.64751e-18)
(-0.0275867 -0.0199368 -2.00072e-17)
(-0.036848 -0.0101434 0)
(-0.0550125 0.0254607 0)
(-0.0386503 0.00785868 -1.79848e-17)
(-0.0300923 -0.0281544 -1.24977e-17)
(-0.127399 0.0433055 1.08406e-18)
(-0.0353869 -0.00478289 0)
(-0.151454 0.0613006 2.2169e-17)
(-0.133045 0.0585372 -7.59662e-18)
(-0.0930545 0.0441655 1.78992e-17)
(-0.0312222 -0.0352334 0)
(0.0375444 -0.0213014 -1.79192e-17)
(-0.00451393 -0.0279184 1.93287e-17)
(0.108251 -0.082025 -4.47769e-18)
(-0.0401933 -0.0420665 -8.16405e-18)
(0.0127689 -0.0311896 0)
(0.00869164 -0.0376231 -1.08266e-17)
(-0.047612 -0.0691499 2.71725e-17)
(0.0415611 0.143695 0)
(0.133261 -0.0791209 4.83823e-18)
(0.15954 0.031527 5.36149e-18)
(0.0508598 0.0835397 0)
(0.0210134 -0.043192 1.01342e-17)
(0.0488407 0.0930045 -1.76564e-17)
(0.00948402 -0.0600237 0)
(-0.0407655 0.0133791 1.99125e-17)
(0.00190416 -0.0160546 0)
(0.122637 -0.0323303 0)
(0.0335535 -0.000688918 7.36482e-18)
(-0.0219777 0.0243832 -2.5752e-17)
(0.00770521 -0.0550587 0)
(0.00693056 -0.0768595 0)
(0.105861 -0.0273203 9.04534e-18)
(0.14505 0.0271751 0)
(0.0503091 0.0497281 -2.69811e-17)
(0.0156405 -0.0347117 0)
(0.020637 -0.0468334 0)
(-0.0393433 -0.0473361 1.59167e-17)
(-0.0408267 -0.0116815 1.89764e-17)
(-0.0145459 0.00803671 -1.58516e-17)
(-0.0854576 0.0561942 -2.08702e-18)
(-0.121771 0.00440749 7.96175e-21)
(0.025393 -0.0357373 1.01902e-17)
(0.0395749 0.155638 0)
(0.0251611 -0.0619554 -1.97882e-17)
(0.03297 0.00745477 -1.87686e-17)
(0.0236144 -0.0624582 0)
(-0.00886634 0.0237863 6.52974e-19)
(0.028218 -0.0647563 0)
(0.0175747 -0.0366757 -1.19025e-17)
(-0.0437833 -0.0486211 0)
(-0.0545165 -0.0915631 -2.32064e-17)
(0.0276847 -0.0659968 1.92519e-22)
(0.019166 -0.0657921 -1.17849e-17)
(-0.0431396 -0.0478618 0)
(0.0714879 -0.0176991 -9.30704e-18)
(0.0379233 0.0791352 1.86279e-17)
(0.0499211 0.155108 2.64276e-17)
(0.0306127 -0.0670019 8.91357e-18)
(0.0707373 0.136348 3.56876e-17)
(0.0306192 -0.0649794 -8.93322e-18)
(0.0276265 -0.0462249 -1.13123e-17)
(-0.0212584 -0.0146249 -1.71462e-17)
(0.0314469 0.0639689 9.43316e-18)
(0.012241 -0.0786775 -8.48402e-18)
(0.0315069 0.0666952 0)
(0.025226 -0.0520298 3.03314e-17)
(-0.0333041 0.0600169 -2.19639e-17)
(-0.000162066 -0.00232288 1.65279e-17)
(0.00136852 -0.00864394 0)
(0.0155952 -0.0784267 8.6127e-18)
(0.0150911 0.0256886 0)
(-0.0252908 -0.0347946 -2.00277e-17)
(0.0106104 -0.010998 1.90357e-17)
(-0.0359099 0.0628949 0)
(-0.106843 -0.0185279 1.87459e-17)
(0.048973 0.112758 -4.10382e-17)
(-0.007073 -0.0102677 -1.5965e-17)
(-0.0115704 -0.034896 1.57813e-17)
(0.0368916 0.0821905 -9.15022e-18)
(0.0171282 -0.0753412 3.64372e-22)
(0.00891383 -0.0582656 1.46216e-17)
(0.0602074 0.136448 8.69007e-18)
(0.00114286 0.00161332 0)
(0.0286592 -0.0756592 -8.39644e-23)
(0.0516123 0.159619 -2.1702e-17)
(0.0977906 0.118151 1.82389e-17)
(0.0408728 0.0877184 1.81279e-17)
(0.0378341 0.0751954 -4.33994e-22)
(0.034001 -0.0723019 0)
(0.0270984 -0.0757102 -1.75194e-17)
(0.0334163 -0.0651478 0)
(0.0228495 -0.0765985 0)
(0.00246977 -0.00948522 -1.82929e-17)
(0.0156046 0.0535733 1.81654e-17)
(0.0655369 0.137943 -1.28015e-17)
(0.0376256 -0.0666757 -1.80095e-17)
(0.00383348 -0.00762381 2.6809e-17)
(0.0299656 0.049605 0)
(-0.0361183 -0.0362873 -1.67074e-17)
(0.053417 0.125343 -3.21018e-17)
(0.0167501 0.0414209 1.75997e-17)
(0.00305545 -0.004262 -9.64372e-18)
(0.0315115 -0.0743593 -9.05415e-18)
(0.0146944 -0.0720792 2.93388e-22)
(0.0924252 0.121864 -1.89226e-17)
(0.0357177 -0.0707495 1.80874e-17)
(0.0101703 0.0309203 -1.73733e-17)
(0.0518026 0.0945087 1.79229e-17)
(0.0510971 0.0834587 0)
(0.0211833 -0.0447461 -4.41081e-18)
(0.037029 -0.0668894 8.9225e-18)
(0.0238565 -0.0539233 -1.00781e-17)
(0.0255769 -0.0577955 -1.78333e-17)
(0.00659313 0.0221269 -1.80764e-17)
(0.0351377 -0.064099 8.97666e-18)
(0.0260498 -0.076008 -9.72481e-18)
(0.0384555 -0.0661728 -1.80164e-17)
(0.0115632 0.0340264 4.446e-18)
(0.0677861 0.140805 -4.5082e-18)
(0.0178308 0.0668139 -1.65757e-17)
(0.0757407 0.136752 0)
(-0.0036534 0.0168365 1.34258e-17)
(0.0273654 -0.0596742 1.77209e-17)
(0.0203421 -0.0747784 1.96944e-17)
(0.036152 -0.0677426 0)
(0.0337844 -0.0623124 0)
(0.105863 0.112051 -8.91633e-18)
(0.0227341 -0.0513822 1.00393e-17)
(0.0329342 -0.0707785 -8.86051e-18)
(0.11028 0.11028 8.76705e-18)
(0.0654483 0.129739 -2.20168e-17)
(0.0297224 -0.0584394 -4.68549e-18)
(0.0339111 -0.0627698 9.32657e-18)
(0.00746973 -0.0491265 0)
(0.0242325 -0.0561031 0)
(0.0321849 -0.0649634 0)
(-0.0235057 -0.0163241 1.69995e-17)
(0.0307733 -0.0728496 9.07814e-18)
(0.0124107 -0.0831609 1.71481e-17)
(0.0580106 0.15 -1.6427e-17)
(0.0123594 0.0675444 1.9392e-17)
(0.0604253 0.143865 -8.66051e-18)
(0.050696 0.112487 1.8226e-17)
(0.100642 0.106404 -1.81602e-17)
(-0.0180992 -0.0215979 0)
(0.0276985 -0.111974 0)
(0.0653272 0.125799 -8.98064e-18)
(0.0151147 -0.0244558 -1.86656e-17)
(0.0264818 -0.0575737 0)
(-0.0656059 -0.0345715 -1.52767e-18)
(0.0162354 -0.0356961 1.89504e-17)
(0.0199082 -0.107037 0)
(0.0841473 0.0480223 3.53585e-17)
(0.148621 -0.0398287 -1.74751e-17)
(0.0220791 -0.0760307 2.66051e-17)
(0.0216477 -0.0868417 1.76944e-17)
(0.0281507 -0.056279 4.59003e-18)
(0.0283315 -0.0600918 4.56205e-18)
(0.0800588 0.0464838 -1.79315e-17)
(0.0776667 0.075694 2.09898e-17)
(0.0930256 0.0932577 -8.12985e-18)
(-0.0536318 -0.138603 1.98073e-17)
(0.0325393 -0.0944005 5.02913e-18)
(-0.00633313 -0.0125566 -1.62917e-17)
(0.159486 -0.0150752 0)
(0.165074 -0.0312381 9.05591e-18)
(0.167095 0.000572586 8.44303e-18)
(0.156514 -0.0442942 0)
(0.125002 -0.00728315 0)
(0.0228329 -0.0815736 -9.10205e-18)
(0.17619 0.0698095 -4.07599e-18)
(0.177428 0.0820048 -2.82629e-17)
(0.101786 0.00279557 -2.83269e-17)
(0.0370501 -0.0671154 8.89777e-18)
(0.121807 0.00737359 -2.82509e-17)
(0.0215098 -0.000853099 0)
(-0.00086085 -0.000468103 -8.22795e-18)
(0.017372 0.0262524 1.71897e-17)
(-0.00243686 -0.000596594 1.39458e-17)
(0.0021185 -0.000506249 1.38615e-22)
(0.0479055 -0.018363 -2.45939e-18)
(-0.0347568 -0.0110572 -1.71524e-17)
(-0.00799247 -0.142495 5.18483e-21)
(0.0103536 0.00874273 2.7685e-17)
(0.00673866 -0.0145001 -1.88204e-17)
(-0.0344004 0.00932798 -1.14485e-21)
(0.00129754 0.000255644 -4.87696e-18)
(0.0299129 -0.00904849 0)
(-0.0132615 -0.0102759 -5.03957e-18)
(0.0136575 0.0153685 0)
(0.000223089 -0.00396588 1.97594e-17)
(-0.0475108 -0.00355403 -3.51916e-17)
(0.0785945 0.0628237 -2.21763e-17)
(0.112259 0.0997624 -1.80493e-17)
(0.00335524 0.00107476 0)
(-0.0394054 -0.154504 -9.11749e-18)
(0.0519056 -0.100635 0)
(0.0363166 -0.0402235 0)
(0.0579125 0.0292885 -3.55237e-17)
(-0.0269343 -0.126797 -1.55983e-17)
(0.0680814 -0.153533 8.85606e-18)
(0.18581 0.0844145 -1.59816e-17)
(0.0766911 -0.136639 0)
(0.0665115 0.0324695 1.77698e-17)
(0.166545 0.0669779 1.00937e-17)
(-0.0284623 -0.0154787 -5.25465e-19)
(0.0125447 0.00383671 0)
(-0.0714166 0.00923801 -1.75594e-17)
(0.0543886 0.00182935 2.61441e-17)
(0.0984208 0.00763829 -1.77903e-17)
(0.0970301 -0.0287767 -4.62693e-18)
(0.0568907 0.017669 -4.4431e-17)
(0.159355 -0.0476721 -1.79484e-17)
(0.029618 0.00968401 0)
(0.155134 -0.0349965 1.82696e-17)
(0.0293755 -0.136682 1.76804e-17)
(0.0249864 -0.0771946 1.76912e-17)
(0.159075 -0.0372944 -8.82999e-18)
(0.0403271 0.0144263 1.78065e-17)
(0.156345 -0.00880756 1.2653e-21)
(-0.0159947 -0.162526 -4.48836e-17)
(0.156179 0.0273102 -9.31651e-18)
(-0.0124958 -0.0089088 -1.59081e-17)
(0.0552052 -0.12992 0)
(0.14658 -0.00776217 1.79962e-17)
(-0.0245224 -0.150839 0)
(0.138774 0.0209802 8.84322e-18)
(0.121088 0.00529538 1.77876e-17)
(0.161092 0.0585029 2.26324e-17)
(0.184593 -0.0524142 0)
(0.0665141 0.0449961 -2.51533e-18)
(0.00120364 -0.104946 1.50979e-17)
(0.195158 0.085758 -1.78463e-17)
(0.0647735 0.0461477 9.41405e-18)
(0.173318 -0.0177367 -8.98456e-18)
(-0.0132194 -0.00809081 4.10756e-17)
(0.163264 0.0214105 2.6686e-17)
(0.082817 -0.00405236 -4.63725e-18)
(0.12602 0.0614574 0)
(0.029878 0.000633767 1.76126e-17)
(-0.0177632 -0.00442315 -8.92454e-18)
(0.0919824 -0.0877597 -1.71713e-17)
(0.096753 0.0262311 8.95497e-18)
(0.158598 -0.043933 8.83787e-18)
(0.113187 0.0191981 8.9692e-18)
(0.16147 -0.0434317 1.83016e-17)
(0.00710921 -0.102413 8.70853e-18)
(0.152585 -0.0241623 8.81989e-18)
(-0.00891996 -0.00954055 2.0084e-17)
(0.00803486 -0.0128827 0)
(-0.0280653 -0.000306067 1.79613e-17)
(-0.070657 0.0227194 0)
(-0.016536 -0.015154 4.46078e-18)
(0.146648 0.00817425 2.79271e-17)
(0.186284 0.0839863 3.51851e-17)
(0.108706 0.0511524 2.73407e-18)
(0.157474 -0.0226252 -3.65205e-17)
(0.146296 0.0403591 -3.74035e-17)
(-0.017861 -0.0055536 -9.12659e-18)
(-0.100934 0.0482658 -4.52111e-18)
(0.0987233 -0.123571 0)
(0.05155 0.0184508 1.83977e-17)
(-0.0530853 0.0134338 4.78662e-18)
(0.12131 -0.121978 0)
(0.192037 0.00340507 1.74591e-17)
(-0.01857 -0.00460578 4.67939e-18)
(-0.0186723 -0.0211695 9.22491e-18)
(-0.0994139 0.0453138 -1.15595e-18)
(-0.0806548 0.0344455 -7.99284e-18)
(0.0478819 -0.148129 -2.62874e-17)
(0.0476095 0.0428597 0)
(0.17818 -0.035038 8.35028e-18)
(0.178322 0.0504379 0)
(0.100626 0.0445213 0)
(-0.00609226 -0.0592818 0)
(0.148521 0.00730431 0)
(0.117469 -0.0513455 8.81294e-18)
(0.00379771 -0.0211023 2.69431e-17)
(-0.0184978 -0.023411 -1.92274e-17)
(0.102213 0.0547669 8.88964e-18)
(0.187236 -0.0370335 0)
(0.152473 0.0640541 2.6571e-17)
(0.19498 0.0733568 0)
(0.00502568 -0.122249 -8.88682e-18)
(-0.013977 -0.148563 8.86251e-18)
(0.142422 -0.0883908 8.76323e-18)
(0.10965 0.0610147 1.77278e-17)
(0.110266 -0.105695 8.7855e-18)
(0.166669 -0.0776476 1.83765e-17)
(0.175737 -0.00042278 -3.53512e-17)
(0.126204 -0.113797 0)
(0.0421892 -0.160175 -8.73379e-18)
(0.200396 0.0598628 1.76298e-17)
(0.17121 0.0746585 -1.76664e-17)
(0.110661 0.0415634 0)
(0.0847319 0.012928 1.85827e-17)
(0.100749 0.0403393 1.78943e-17)
(0.0200668 0.0144634 -3.32403e-17)
(0.0118466 0.0338525 0)
(0.117457 0.0309147 1.7874e-17)
(0.048626 0.0389881 0)
(0.119868 0.0284122 0)
(-0.00591888 -0.0375817 0)
(0.150162 -0.0976822 0)
(0.127767 -0.0270955 2.65412e-17)
(0.0952805 -0.137772 0)
(0.155383 -0.0355452 8.86569e-18)
(0.0662561 0.0328269 -1.87687e-17)
(0.0826848 -0.13665 8.75606e-18)
(0.174244 0.0192355 -1.61403e-17)
(0.147761 -0.0421992 -1.7751e-17)
(0.0705194 0.00764449 0)
(0.0100569 -0.111405 -1.76602e-17)
(0.118504 0.0531302 -2.66431e-17)
(0.141081 0.0347211 0)
(0.138144 0.0440375 0)
(0.167282 -0.0548241 0)
(-0.000156473 -0.167196 1.75722e-17)
(0.148889 0.00724834 1.11849e-22)
(0.113627 0.0446979 1.12488e-22)
(0.0970087 0.0256558 -1.83575e-17)
(0.0284131 -0.167369 0)
(0.144212 0.0344042 0)
(0.114911 0.0578402 0)
(0.13413 0.045048 0)
(0.0334853 -0.0252891 0)
(-0.000590582 -0.163366 -8.81995e-18)
(0.126927 0.0416188 -1.80369e-17)
(0.119957 0.000910475 2.66843e-17)
(0.138543 -0.0441679 -8.85615e-18)
(-0.0405016 -0.0423393 1.7876e-17)
(0.143799 0.0199744 -8.83038e-18)
(0.0982792 0.0666169 8.99998e-18)
(0.130235 0.019974 -8.87245e-18)
(0.0351439 -0.134428 0)
(0.10293 0.0144779 -1.78786e-17)
(0.109441 -0.0135998 -3.54152e-17)
(0.128937 0.0791611 0)
(0.1211 -0.0352906 -1.76995e-17)
(0.108991 -0.0402736 -1.79908e-17)
(0.134813 -0.043583 0)
(0.16227 0.0692533 0)
(0.12041 0.0722863 4.79861e-22)
(0.0984145 0.0897913 8.06704e-18)
(0.198502 0.0146588 0)
(0.128971 -0.00618522 -2.6583e-17)
(0.182399 0.070128 0)
(0.100107 0.0636302 0)
(0.0310655 -0.0726965 -1.76212e-17)
(0.118563 0.0756731 -1.77005e-17)
(0.151058 -0.0216802 0)
(0.131851 0.0769692 -1.76681e-17)
(0.199766 0.0384158 -8.81688e-18)
(0.132332 0.0634586 1.76679e-17)
(0.124865 0.0595626 -1.81773e-17)
(0.144608 -0.0332707 1.77383e-17)
(0.19744 -0.00832298 0)
(0.129196 0.0848457 -8.82849e-18)
(0.10672 0.0665253 -3.12758e-17)
(0.138807 0.055526 0)
(0.123819 0.0753731 0)
(0.147144 -0.00852195 2.64883e-17)
(0.0251402 -0.0830006 -1.73189e-17)
(0.113622 0.104164 0)
(0.133018 0.0707886 1.76661e-17)
(0.096767 0.110863 3.72214e-17)
(0.136003 0.0557873 -1.76618e-17)
(0.0095082 -0.150263 0)
(0.119681 0.0550504 3.76428e-17)
(0.124972 0.0835429 8.82129e-18)
(0.0284168 -0.155161 0)
(0.117511 0.0955162 1.76546e-17)
(0.0933212 -0.0134314 -9.73553e-18)
(0.102787 0.104162 0)
(0.12196 -0.0293158 0)
(0.059634 -0.031624 0)
(0.0731092 0.0498777 1.56335e-17)
(0.0421084 -0.0245012 -8.60902e-18)
(0.185403 0.0419314 -2.15378e-17)
(0.124134 0.0887769 0)
(0.113561 0.0944251 9.07583e-18)
(0.112202 0.0808962 -1.76745e-17)
(0.105696 0.0715208 2.98479e-17)
(0.0146988 -0.123217 0)
(0.102955 0.0826464 -7.67536e-18)
(0.122193 0.0967634 0)
(0.0857804 -0.0361628 0)
(0.0516982 0.0317593 0)
(0.129593 0.0435945 0)
(0.115747 -0.0185754 8.90235e-18)
(0.0928631 -0.0348277 0)
(0.123223 0.0909735 0)
(0.0695229 -0.0249598 -8.98257e-18)
(0.0577088 -0.00554708 -8.84423e-18)
(0.133022 0.0689684 0)
(0.105019 0.0958946 0)
(0.131304 0.0601411 0)
(0.0792767 -0.0171294 3.54723e-17)
(0.103093 -0.0343536 2.69007e-17)
(0.120948 0.0684898 0)
(0.168872 0.0511083 1.52453e-17)
(0.0663671 0.117307 -1.78725e-17)
(0.111207 0.0863513 1.76795e-17)
(0.0886963 0.0938154 -1.77271e-17)
(-0.00395574 -0.00453968 -2.72721e-22)
(0.10597 0.0782244 0)
(0.0341483 -0.0640733 0)
(0.0715811 0.131689 1.71428e-17)
(0.032778 -0.0608556 0)
(0.119829 0.0826244 0)
(0.0750827 0.047699 -1.58015e-17)
(0.0262951 -0.0609194 -2.24937e-17)
(0.0521022 0.0389494 0)
(0.0312936 0.0406694 -1.7783e-17)
(0.120747 0.0880053 0)
(0.0949066 0.0727773 -1.77145e-17)
(0.0507888 0.052119 -8.89764e-18)
(0.0496807 0.0625366 3.55985e-17)
(0.0938244 0.0796351 0)
(0.115635 0.102514 -1.76407e-17)
(0.0796302 0.117957 8.89891e-18)
(0.0738438 0.0643674 0)
(0.0639741 0.138596 2.23002e-17)
(0.0718926 0.071673 -8.88694e-18)
(0.0680175 0.0993529 -1.78088e-17)
(0.100241 0.0498146 -1.65906e-17)
(0.0619629 0.14442 -8.97534e-18)
(0.101786 0.0574819 0)
(0.10212 0.118938 -1.7845e-17)
(0.0345783 -0.0699355 0)
(0.0295266 -0.071988 2.64249e-17)
(0.086526 0.103002 2.66207e-17)
(0.0799454 0.132809 1.77957e-17)
(0.000845462 0.00548274 3.60145e-17)
(0.0293123 0.0195441 -9.50876e-18)
(-0.0279513 -0.0265615 -1.80979e-17)
(0.0847603 0.130679 0)
(0.011825 -0.0574487 0)
(0.0770809 0.126001 -1.78343e-17)
(0.0597676 0.14139 3.71262e-17)
(0.0240383 0.0173239 0)
(0.0695008 0.0900922 -2.66661e-17)
(0.0262285 -0.0721747 -3.1023e-22)
(0.0564318 0.114711 9.00785e-18)
(0.0897311 0.126871 0)
(0.0900683 0.12385 9.02257e-18)
(0.0777053 0.123378 -2.67857e-17)
(0.0572559 0.101653 0)
(0.0212232 -0.0760878 2.04484e-17)
(0.0489886 0.128658 -3.84782e-17)
(0.00169616 -0.0729372 0)
(0.0935561 0.11634 0)
(0.0324239 -0.0702799 -1.78448e-17)
(0.0312008 -0.0720356 0)
(0.0710039 0.121735 1.78362e-17)
(0.0319331 0.0638916 5.2015e-19)
(0.0151666 -0.0653682 -1.95435e-17)
(0.0575762 0.124856 -1.80985e-17)
(-0.049481 -0.0586756 -1.45893e-17)
(0.0283348 -0.070925 1.79184e-17)
(0.00202467 -0.0794208 0)
(0.00477945 0.000165886 0)
(-0.00623105 -0.0304404 6.18343e-17)
(0.00149863 -0.0600884 -3.97873e-17)
(0.0006888 -0.0605928 -3.92193e-17)
(0.0539316 -0.00543909 0)
(0.0537729 0.167712 1.90691e-17)
(0.0203387 -0.0697743 -2.79658e-17)
(0.0229808 -0.0687877 2.8132e-17)
(0.000808594 -0.0406368 0)
(0.00678177 -0.040267 -1.96753e-17)
(0.0461816 0.1794 -5.8941e-17)
(0.00113401 -0.0408332 -1.86417e-17)
(-0.00658331 -0.0177615 -7.45793e-23)
(0.0445115 0.113429 1.66413e-17)
(0.0175098 -0.0650079 -1.91948e-17)
(-0.0263335 -0.0293713 9.25595e-18)
(0.0266207 0.0483965 0)
(0.0251893 0.00359579 -2.1247e-17)
(0.0536401 0.155881 4.31067e-17)
(0.00141385 -0.0130842 -2.08624e-17)
(0.00245404 -0.0527299 1.22938e-21)
(0.0635571 -0.0156299 2.91015e-17)
(0.0059376 0.00318548 -6.40161e-22)
(0.151067 0.0838206 3.48024e-17)
(0.0182508 -0.0153483 1.28139e-17)
(0.0348871 -0.0660283 0)
(0.00243577 -0.0512357 1.9983e-17)
(-2.89956e-05 -0.055394 0)
(0.0481921 -0.00280246 -1.1784e-17)
(0.0500283 0.171926 -6.17034e-19)
(0.00238013 -0.0280263 0)
(0.0481322 0.165459 5.67792e-19)
(0.0520482 0.128567 1.99111e-17)
(0.00416562 -0.0244153 -2.32417e-17)
(0.00204597 -0.0304331 -5.63688e-18)
(0.0119009 -0.0537264 4.75767e-18)
(-0.0116011 0.0142779 2.76517e-17)
(0.0376533 -0.0107913 2.07965e-17)
(0.0751231 0.0381945 -2.19904e-17)
(-0.0597224 0.0500861 1.71578e-17)
(0.0377003 -0.0600617 0)
(-0.020916 0.0285615 1.0379e-17)
(0.0354211 -0.0214848 0)
(-0.0217035 -0.0492665 1.6563e-17)
(0.0203964 -0.0556872 0)
(-0.0436725 -0.0490036 -3.93824e-17)
(-0.00766396 -0.0145622 -2.14141e-17)
(0.0292706 -0.00716457 -1.74539e-17)
(0.00319219 -0.0113446 -1.49685e-17)
(0.0617777 0.0341953 0)
(0.0709111 0.00650875 9.77744e-19)
(0.00690045 -0.00760724 0)
(0.119422 -0.00739977 -3.06677e-17)
(0.0895122 -0.0103278 -1.45776e-17)
(0.0587783 0.00625851 -5.13623e-18)
(-0.0045145 0.001797 3.80684e-17)
(0.0161056 -0.0364443 0)
(0.017708 -0.056855 1.63922e-17)
(0.0177874 -0.00161368 0)
(0.108743 -0.0226119 -2.77362e-17)
(0.00225428 -0.0678055 -2.12003e-17)
(0.0964542 -0.0310028 1.96673e-17)
(0.0542155 -0.0284553 0)
(0.0731689 -0.0200478 -5.13444e-18)
(0.0557884 0.142826 0)
(-0.0413399 -0.0506454 1.95071e-17)
(0.00633283 -0.0676578 6.26763e-19)
(0.00140737 -0.0507327 4.1884e-17)
(0.037464 -0.0646334 0)
(0.00359148 -0.0770297 1.81907e-17)
(0.00312121 -0.0674725 1.94339e-17)
(0.00594431 -0.0797098 1.02596e-17)
(0.0163345 -0.0365595 -1.68034e-23)
(0.0902192 0.0352998 -2.70513e-17)
(0.0556608 0.146068 0)
(-0.0629751 -0.123205 0)
(0.0246537 0.0982991 -9.86478e-18)
(0.0625252 -0.0248694 2.02408e-17)
(0.0267961 0.0881753 0)
(0.0058207 -0.0149195 9.74815e-18)
(0.0283045 0.0795055 -1.6448e-17)
(0.0057288 -0.0103234 0)
(0.0105736 -0.0765346 0)
(0.0147733 0.0621256 -2.78172e-22)
(0.0176377 0.0487749 1.7096e-17)
(0.00353294 -0.00756729 9.52508e-18)
(0.00951916 -0.0667127 -9.99002e-18)
(0.128405 0.0559137 0)
(0.0822802 0.112373 1.93641e-17)
(-0.0361591 -0.119697 -9.94444e-18)
(0.0207506 0.0183579 -9.75823e-18)
(0.0130016 0.0124299 0)
(0.00878888 0.00362585 0)
(0.00594368 -0.000467271 8.75576e-18)
(0.0301177 0.045788 -1.87217e-17)
(0.0066038 0.0035949 0)
(0.00807362 0.00817566 1.63801e-17)
(0.0848936 -0.0367261 0)
(0.0240011 0.0238497 9.6481e-18)
(0.0156539 -0.0261787 -1.86757e-17)
(0.00499333 0.00489909 2.49895e-18)
(0.00642419 0.00176046 1.50159e-17)
(0.0276463 0.0370414 -1.98247e-17)
(0.0250549 0.0299921 -2.0037e-17)
(0.0107538 -0.0179413 0)
(0.0140932 0.00678453 1.83102e-17)
(0.00508186 0.00275096 0)
(0.00284561 -0.000909284 -2.35916e-18)
(0.00174719 0.001095 0)
(0.0152733 0.0197395 0)
(0.0115161 0.0115517 -9.69164e-18)
(0.0575379 -0.033323 4.77058e-22)
(0.00306712 -0.00897631 0)
(0.00324941 -0.00126698 -1.54402e-17)
(0.16397 0.0583349 -1.03545e-17)
(0.0900219 0.0654818 -1.90671e-17)
(-0.0158765 -0.0102466 0)
(0.000675553 -0.0601041 -1.82851e-22)
(0.0845256 0.0999783 -3.10524e-17)
(-0.0345843 -0.0444433 -2.26388e-17)
(0.00540621 -0.0523911 0)
(0.0776587 -0.0615803 -3.78209e-17)
(0.075446 0.111291 -9.45666e-18)
(0.0559022 0.150455 0)
(0.0863628 0.0539117 1.92852e-17)
(0.0168427 -0.0781717 -1.08755e-17)
(0.0595615 0.0916327 2.15703e-17)
(0.0510255 -0.0385547 1.91609e-17)
(0.0228662 0.00726936 1.04123e-17)
(0.0534071 0.0261758 3.02822e-17)
(-0.0456975 -0.0327926 1.08156e-17)
(0.140047 -0.094935 0)
(0.0654174 -0.0228031 -3.77407e-17)
(0.0499844 -0.0213219 -4.62096e-18)
(0.0244656 -0.0506472 2.89706e-17)
(0.00161014 -0.0729607 -2.02035e-17)
(0.170934 0.0858115 -3.24657e-17)
(-0.0467363 -0.0276973 1.61214e-17)
(0.039243 0.0819805 -2.64825e-17)
(0.00868186 -0.0722309 5.13266e-18)
(0.133936 -0.0396887 1.9594e-17)
(0.116071 -0.0217767 -2.94996e-17)
(0.089766 0.0366253 4.10742e-17)
(-0.0956143 -0.0217336 0)
(0.0235189 -0.0763708 -2.11485e-17)
(0.0304654 0.0625488 3.30356e-17)
(0.0315894 -0.0617397 -1.92487e-17)
(0.0179826 -0.078785 1.14508e-17)
(-0.0241403 -0.0303653 -5.12877e-18)
(0.0126528 0.0728466 0)
(0.0793436 -0.0286173 -9.93505e-18)
(0.00831269 -0.0782972 -2.10947e-17)
(0.0286708 -0.0736738 1.9532e-17)
(0.0212596 -0.0738771 1.27129e-17)
(0.0180129 0.0372424 -2.13402e-17)
(0.0196813 -0.0482395 1.13417e-17)
(0.143972 -0.0114176 -1.58238e-17)
(0.011216 -0.0503444 0)
(0.0593943 0.0552672 3.64863e-17)
(0.00355128 0.0321371 -2.0134e-17)
(0.00434052 0.0254298 2.55734e-17)
(0.0368315 -0.0129407 2.41198e-17)
(0.17529 0.058296 5.0297e-18)
(0.168284 0.0222684 -1.08003e-17)
(-0.0538885 0.0160711 -2.24537e-17)
(-0.0670216 0.00575978 2.13374e-17)
(0.0224329 -0.00122955 0)
(0.0176587 0.0121245 0)
(0.00261072 -0.0765695 -2.22433e-17)
(0.000927804 -0.00664607 -1.08629e-17)
(0.000970104 -0.00570756 -2.17202e-17)
(0.00330597 -0.0799433 1.15589e-22)
(0.0215828 -0.0409909 9.92155e-18)
(0.0872253 -0.0534152 -1.99244e-17)
(0.00061376 -0.015849 0)
(0.00125017 -0.0170589 0)
(-0.0906198 -0.0680483 3.61417e-17)
(0.00429589 0.084759 -3.58793e-17)
(0.0220294 -0.0299752 -1.01201e-17)
(0.0567916 0.0589899 1.17513e-17)
(0.000607369 -0.00868453 2.05126e-17)
(0.0355748 0.126402 2.33816e-17)
(0.0452457 0.0150095 0)
(0.0901206 0.0606284 0)
(0.0306496 0.0120043 -1.05117e-17)
(0.0208819 0.141267 1.22348e-17)
(0.0863241 0.0757929 -9.52818e-18)
(0.00502334 -0.00513889 -1.5716e-17)
(0.0130189 -0.0363941 1.04706e-17)
(-0.0157141 -0.0148793 -2.5986e-18)
(-0.0145579 -0.0133076 -3.589e-17)
(0.054657 0.157453 -2.506e-17)
(0.069229 -0.100404 6.02721e-18)
(0.0761174 0.0841848 2.57468e-17)
(0.00502703 0.00630392 4.33102e-22)
(-0.0294564 -0.123183 1.80103e-17)
(0.015103 0.00747632 2.11674e-17)
(0.0491789 0.0278649 -1.0175e-17)
(0.0432519 0.133043 -3.40944e-17)
(0.00215098 -0.0354837 2.21898e-17)
(0.0280617 -0.00185551 -1.04347e-17)
(0.0404368 -0.0127998 -2.0833e-17)
(0.0408434 -0.0946967 1.8015e-17)
(0.0505495 0.0724452 -2.47144e-18)
(0.0126756 -0.0195243 5.10497e-18)
(0.0291289 0.0698782 4.55391e-18)
(-0.0330381 -0.014013 0)
(-0.0255001 -0.00831311 6.96164e-18)
(0.05485 0.147703 1.11685e-17)
(-0.0999558 -0.0506735 2.44407e-17)
(0.00895533 -0.0067973 0)
(0.0119002 0.0280118 -4.34183e-18)
(0.101815 0.0243373 2.47077e-17)
(0.0997191 0.0817658 1.37102e-17)
(-0.00664369 -0.0552228 0)
(0.000608883 -0.00782755 -2.14957e-17)
(-0.0617513 -0.126269 1.12497e-17)
(-0.0451579 0.00323527 -2.86945e-18)
(0.0173114 0.0215828 -1.50067e-18)
(-0.0162037 -0.0272405 5.48463e-18)
(-5.13965e-05 -0.00668494 2.35735e-17)
(-0.0043839 -0.0595561 0)
(0.0382192 0.0352375 0)
(-0.0772205 -0.096879 0)
(-0.022791 -0.0350028 -1.21444e-17)
(0.0883096 0.0707366 0)
(-0.0218548 -0.0195419 2.00898e-17)
(0.0117973 -0.0720841 -1.17258e-17)
(0.000126054 -0.0153509 -1.20337e-17)
(-0.00112434 -0.0592641 0)
(0.126398 0.0792297 -6.06285e-18)
(0.0378894 0.0256031 0)
(-0.0393094 -0.0245447 6.84991e-19)
(0.00287099 -0.0106119 1.15867e-17)
(0.00118027 -0.016538 1.69776e-17)
(0.0319189 -0.0474653 0)
(0.0126852 -0.0246603 2.19488e-17)
(-0.00144117 -0.0395478 0)
(0.00254955 -0.0561204 0)
(0.0109295 -0.0620376 1.46722e-18)
(0.10781 0.0814261 -2.1319e-17)
(0.00307354 -0.00480645 -1.25392e-18)
(0.124446 -0.0599861 0)
(-0.030087 -0.0132401 4.21689e-17)
(-0.0133043 -0.0536399 1.19449e-18)
(0.0232134 0.111466 -1.06013e-17)
(0.0545263 -0.0604268 0)
(0.0855198 0.0486116 -9.37447e-18)
(0.0316945 -0.0420512 -2.55656e-17)
(0.140255 -0.0531929 2.32446e-17)
(0.0789412 0.080549 1.11895e-17)
(0.0297182 -0.0448716 1.03496e-17)
(0.0588788 0.033037 -1.11936e-17)
(0.00306727 -0.0167504 -2.26007e-17)
(0.16076 -0.0782582 -2.11166e-17)
(0.0307561 0.0179837 0)
(0.139217 -0.0117339 1.49766e-17)
(0.0344086 -0.0538677 5.19164e-18)
(0.16281 0.0892646 1.99436e-17)
(0.0522097 0.148513 5.40807e-18)
(0.0557986 0.153662 0)
(-0.0131894 -0.00460464 1.99379e-17)
(0.0277806 -0.010087 3.21409e-17)
(0.13407 0.0078207 0)
(0.0259251 -0.0564406 3.30205e-18)
(-0.000786778 -0.000300072 -1.48153e-17)
(0.123447 0.0465997 0)
(0.00739769 -0.060474 -1.39908e-18)
(0.0401248 -0.0108129 -2.01914e-17)
(0.081801 0.0255339 2.3479e-22)
(0.142369 -0.0325819 -1.37402e-21)
(0.0351921 -0.0547067 -5.34948e-18)
(0.0449456 -0.0793405 -2.40003e-17)
(0.00967229 -0.0166088 2.67572e-17)
(0.0161646 0.000850672 4.77703e-17)
(0.0748587 0.0321092 -2.44485e-17)
(0.023091 -0.00426123 3.54565e-17)
(0.0929683 0.00897587 5.06055e-18)
(0.00810426 -0.0281173 1.18528e-17)
(0.0287803 0.0551983 2.36134e-17)
(0.0239399 -0.0540893 0)
(0.162012 -0.0597201 -3.26908e-17)
(0.0264511 -0.0497975 -2.06586e-17)
(0.042824 0.0356962 5.7299e-18)
(-0.0830163 -0.0714101 0)
(0.0244392 0.03637 -2.53368e-17)
(0.0238294 -0.0556454 -2.42246e-17)
(0.00643863 -0.0186597 0)
(0.0120068 -0.0224425 1.32095e-17)
(0.0145567 -0.0743176 1.48437e-17)
(0.0290011 -0.0645791 -1.22135e-17)
(0.0236292 -0.070571 1.47633e-18)
(0.015079 -0.049401 0)
(0.00100438 -0.079365 2.30605e-22)
(0.0773544 0.0989994 0)
(0.0227867 -0.0337171 2.12465e-17)
(0.0234827 -0.0494709 -3.01835e-18)
(-0.0347239 -0.0414344 1.23427e-17)
(0.00162256 -0.0324342 0)
(0.00481777 -0.0317178 2.62769e-17)
(0.0478591 0.0564726 2.43433e-17)
(0.058829 -0.108245 -6.0783e-18)
(-0.102059 -0.042468 -1.98329e-17)
(0.0196503 -0.0386338 -4.16519e-17)
(0.0343494 0.0707413 0)
(0.0215609 0.0350524 0)
(0.0564279 0.0664957 -2.54555e-17)
(0.0485726 0.0607507 3.30051e-17)
(0.109248 0.0639531 1.04262e-17)
(0.17311 0.0348384 1.19276e-17)
(0.0246831 -0.050012 8.64581e-18)
(0.000886868 -0.031564 -1.31038e-17)
(0.0521915 0.162875 0)
(0.0593328 0.0793938 0)
(-0.068942 -0.104528 0)
(0.0218818 -0.0779949 -8.71373e-19)