/*--------------------------------*- C++ -*----------------------------------*\
  =========                 |
  \\      /  F ield         | OpenFOAM: The Open Source CFD Toolbox
   \\    /   O peration     | Website:  https://openfoam.org
    \\  /    A nd           | Version:  9
     \\/     M anipulation  |
\*---------------------------------------------------------------------------*/
FoamFile
{
    format      ascii;
    class       surfaceScalarField;
    location    "0.38";
    object      phi;
}
// * * * * * * * * * * * * * * * * * * * * * * * * * * * * * * * * * * * * * //

dimensions      [0 3 -1 0 0 0 0];

internalField   nonuniform List<scalar> 
816
(
1.62001e-09
-1.19343e-08
1.03143e-08
-2.36022e-09
-2.17161e-08
2.40763e-08
1.92565e-08
-1.76364e-08
3.04513e-08
-3.01383e-08
-3.13044e-10
1.24675e-08
-1.24675e-08
2.63314e-08
5.03364e-09
-3.1365e-08
1.33421e-08
-1.33421e-08
-1.32569e-08
1.32569e-08
-2.33732e-08
-3.53571e-09
2.69089e-08
-1.31637e-08
1.08035e-08
3.76521e-08
-1.13207e-08
3.22456e-08
-2.29035e-08
-9.34207e-09
8.16725e-09
1.798e-08
-2.61473e-08
3.22898e-08
-3.1932e-08
-3.57809e-10
3.2424e-08
-3.11945e-08
-1.22952e-09
-2.02869e-08
3.12039e-08
-1.0917e-08
5.07892e-09
1.26283e-08
-1.77072e-08
-3.04489e-08
3.65857e-09
2.67904e-08
4.08649e-09
2.81591e-08
1.2409e-08
-3.57822e-08
2.30579e-08
7.39344e-09
1.16734e-09
-2.14543e-08
1.95203e-08
-3.75579e-09
-1.57645e-08
-2.21421e-08
-8.74948e-09
3.08915e-08
-2.39958e-08
1.85379e-09
-2.68273e-08
6.07627e-09
2.0751e-08
-2.7307e-08
3.09002e-08
-3.59316e-09
9.01694e-10
1.03879e-08
-1.12896e-08
8.82076e-09
-3.05368e-08
1.16652e-08
1.95387e-08
-1.92577e-08
2.01594e-08
-2.17407e-08
2.67743e-08
3.87172e-08
-2.7052e-08
-3.36444e-08
1.71128e-08
1.65316e-08
2.26391e-09
3.01601e-08
-5.85733e-09
2.5396e-08
1.97537e-09
3.03144e-08
-4.23082e-09
-2.25965e-08
-3.23166e-08
1.10137e-08
2.13029e-08
6.99636e-09
5.47117e-09
-1.04922e-08
-9.17043e-09
9.02612e-09
-2.96363e-08
-1.55814e-09
-2.53475e-08
-7.19329e-09
3.25408e-08
7.17142e-09
6.17065e-09
-1.10782e-08
2.80789e-08
-3.16146e-08
-1.30602e-08
-2.54605e-08
-1.84651e-09
-9.39665e-10
1.09984e-08
-1.00588e-08
2.40387e-08
-1.58714e-08
2.06848e-08
-1.16456e-09
-1.0961e-08
-2.26834e-08
1.35716e-08
1.26785e-08
8.53798e-09
-2.88734e-08
2.03355e-08
-3.75579e-09
-2.53475e-08
2.8622e-08
-2.35431e-08
7.80773e-09
-1.36651e-08
-1.82689e-09
-6.56438e-09
1.91927e-08
2.28513e-08
-1.91927e-08
-2.88487e-09
-2.90471e-08
-1.40493e-08
-1.53398e-08
2.93891e-08
-3.30497e-08
3.41338e-09
2.48586e-08
1.38586e-08
1.69315e-08
2.07206e-08
-1.27911e-08
3.42453e-08
-2.14542e-08
5.80274e-09
2.3105e-08
-2.89077e-08
-6.88302e-09
-2.26803e-08
1.25736e-08
-2.66229e-08
2.3345e-08
1.11544e-08
-3.44994e-08
1.15374e-08
2.00968e-08
-3.16342e-08
1.3377e-08
-1.3377e-08
-1.20965e-08
2.45054e-08
-1.74131e-08
5.31663e-09
3.05536e-08
4.49845e-09
5.81581e-09
-1.03143e-08
-3.13996e-08
5.69717e-09
2.57024e-08
-1.19343e-08
1.40447e-08
-1.40447e-08
-1.24977e-08
1.24977e-08
1.54335e-08
-3.08219e-08
1.53884e-08
-7.04974e-09
-1.37288e-09
1.09984e-08
-2.09382e-08
2.94762e-08
-4.53992e-10
-2.155e-08
2.2004e-08
-1.87035e-08
-3.55641e-10
1.90592e-08
1.16425e-08
-1.71337e-08
3.25672e-08
-6.09018e-10
-2.35674e-08
2.41764e-08
1.9773e-08
9.68178e-09
-2.94548e-08
-2.37081e-08
5.79512e-09
1.80515e-08
-2.38467e-08
-1.30513e-08
-1.34688e-08
-1.31637e-08
-7.33263e-10
3.08934e-08
-1.78179e-09
-3.12679e-08
-1.90068e-08
2.48096e-08
-2.61332e-08
1.62815e-08
9.85169e-09
1.55122e-08
1.41965e-08
1.20535e-08
-2.30378e-09
3.26182e-08
-1.98277e-08
1.04922e-08
-7.04974e-09
1.40777e-09
-1.47848e-08
1.09236e-08
1.44725e-08
2.91812e-08
1.7913e-08
-2.84284e-08
1.05153e-08
-1.20554e-08
-1.40778e-08
-8.349e-09
-2.17893e-08
1.18693e-09
-2.51988e-08
2.40119e-08
5.58854e-10
-1.92624e-08
2.73952e-08
-1.31987e-08
-1.29929e-09
2.20503e-08
-1.59005e-08
3.40273e-09
5.56267e-09
2.60035e-08
-2.94558e-09
-1.85573e-09
2.5658e-08
-2.63658e-08
7.07866e-10
-1.83732e-08
-1.30263e-08
-2.52792e-08
1.75349e-08
7.74428e-09
-2.50696e-08
-2.43012e-09
2.84208e-08
5.03143e-11
-2.84711e-08
2.7948e-08
-2.29002e-09
-7.20065e-09
2.69737e-08
-7.72683e-09
7.72683e-09
2.60802e-08
2.34064e-09
1.31376e-09
-2.30703e-08
2.17566e-08
-2.70121e-10
-2.26334e-08
-2.60511e-08
-2.37725e-09
2.05985e-08
-2.05482e-08
3.9613e-10
-8.24507e-09
7.84894e-09
2.87841e-09
2.09946e-08
3.505e-10
2.27796e-08
-2.31301e-08
-9.02612e-09
-1.14263e-10
2.14172e-08
1.63775e-09
1.77292e-08
-1.9367e-08
-2.01657e-08
1.58508e-08
4.31494e-09
-2.68423e-08
2.44122e-08
-3.16605e-08
1.56336e-09
3.00971e-08
-1.48373e-08
1.48373e-08
7.80773e-09
1.08118e-09
6.64565e-09
-2.17553e-09
-2.90818e-08
3.12574e-08
-9.67987e-10
-2.44925e-08
2.8539e-08
-1.97183e-08
-5.40992e-09
2.79042e-08
-2.24943e-08
5.81581e-09
-4.39558e-10
-3.12209e-08
-2.94867e-08
-8.24507e-09
-2.0905e-08
2.24684e-08
-1.09846e-08
1.09846e-08
-2.52045e-08
-1.06341e-08
2.05703e-08
-2.27459e-08
-2.14994e-08
1.60894e-08
-1.01825e-08
3.71781e-08
-2.69956e-08
-7.11543e-10
-2.01935e-08
9.17043e-09
-9.44055e-09
-7.88937e-09
9.20313e-09
6.22427e-10
-7.12909e-09
6.50666e-09
-4.37154e-10
2.10075e-08
1.73445e-08
1.20446e-08
-1.13248e-08
2.86693e-08
-2.23562e-08
-1.01837e-08
9.47215e-09
8.54612e-11
-2.23504e-08
2.22649e-08
9.03782e-09
-9.47497e-09
1.13082e-09
-2.2908e-08
2.17772e-08
1.80893e-08
-1.94622e-08
1.92288e-08
-3.0513e-09
-2.0019e-08
-2.01657e-08
-1.36651e-08
-1.34966e-08
-1.17826e-08
-2.99935e-08
1.78366e-10
2.98151e-08
-1.06454e-08
1.07308e-08
-2.97393e-08
3.05944e-10
2.94334e-08
2.24185e-08
4.98615e-11
-2.26121e-08
-1.33712e-10
-1.08035e-08
-1.9549e-08
3.07929e-08
-1.12439e-08
-1.60894e-08
1.50037e-08
1.08577e-09
-1.58508e-08
1.48828e-08
-2.28393e-08
2.24338e-08
4.0555e-10
2.28059e-08
-2.27245e-08
-8.14587e-11
-2.14994e-08
2.89106e-08
-1.14386e-08
-2.60616e-09
-2.97315e-08
1.84059e-08
1.02634e-08
1.72502e-10
-1.08275e-09
-3.1971e-08
-7.26391e-10
1.84556e-08
-3.1223e-08
-1.33538e-09
2.74156e-08
2.99917e-08
-1.15858e-08
1.96592e-08
2.01433e-08
5.86017e-09
5.78027e-09
-6.50666e-09
2.71296e-08
1.97554e-08
1.25207e-09
-1.86914e-08
1.97726e-08
9.52202e-09
-9.47216e-09
-9.60868e-09
9.47497e-09
-1.87445e-08
-1.97895e-08
3.19377e-08
-1.21482e-08
-1.06454e-08
-1.14386e-08
-7.12909e-09
-2.69815e-09
-1.78761e-08
-1.01837e-08
9.52202e-09
-9.60868e-09
-5.41613e-09
-8.4688e-10
1.86502e-08
-1.78033e-08
9.03782e-09
1.10034e-08
7.92751e-10
1.48828e-08
7.84894e-09
-1.07308e-08
-2.43284e-09
-7.88937e-09
-2.06859e-08
-1.12798e-08
3.19656e-08
1.87479e-08
-1.55555e-09
-2.48103e-08
4.40133e-10
2.63342e-08
9.76606e-10
-5.79877e-09
4.82216e-09
-1.00588e-08
2.44786e-08
-2.71767e-08
3.39193e-10
3.23057e-08
-2.88923e-08
5.79877e-09
-6.64565e-09
1.50037e-08
1.46906e-08
1.1683e-09
3.3589e-09
-1.65587e-08
-4.86074e-09
-2.74946e-08
2.09142e-09
1.17601e-08
2.01776e-08
1.73248e-08
-2.10044e-08
3.27645e-08
-2.75397e-08
6.85384e-09
5.78027e-09
-9.20313e-09
-1.16898e-08
-2.10046e-08
3.26944e-08
9.44056e-09
-3.22842e-08
-1.28739e-08
3.30514e-08
-1.27453e-08
3.14932e-08
2.10747e-08
7.19848e-10
-7.83475e-09
7.83475e-09
-1.47178e-08
-2.39771e-08
2.586e-08
2.12808e-08
1.58972e-08
-1.1745e-08
1.1745e-08
-1.46906e-08
-2.57052e-09
-1.36863e-08
1.06341e-08
3.05218e-09
1.36863e-08
-1.94122e-09
-1.86406e-09
-1.47178e-08
-2.65476e-08
-2.77079e-08
5.35753e-09
-3.34294e-08
1.20195e-08
2.14099e-08
-1.23548e-08
1.96928e-09
-2.01544e-08
3.451e-08
-1.43557e-08
-3.25927e-08
1.24383e-08
1.65915e-08
-2.09262e-08
3.29457e-08
1.77917e-08
-3.06655e-08
-1.63454e-09
9.19527e-10
1.17682e-08
-2.03791e-08
2.06967e-08
-1.11866e-08
-1.95503e-08
3.07368e-08
-1.9468e-08
3.54204e-08
-1.47237e-08
2.73021e-08
1.11828e-08
2.42375e-08
2.83261e-08
-3.19436e-08
-3.04659e-08
1.57423e-08
2.17592e-08
-3.59495e-08
2.32041e-08
-1.26742e-08
2.73687e-08
-4.58916e-09
-1.9345e-08
-1.13205e-08
1.15127e-08
2.29973e-08
3.41975e-08
-8.34087e-09
-1.484e-08
2.31808e-08
-6.18602e-09
6.18602e-09
-5.56813e-09
5.56813e-09
6.56241e-09
-6.56241e-09
6.54237e-09
-6.54237e-09
6.99636e-09
7.17142e-09
2.35159e-08
-3.16221e-08
8.10623e-09
-1.10782e-08
2.13134e-08
1.28841e-08
1.26363e-08
-1.26363e-08
-1.47848e-08
1.44181e-08
-1.44181e-08
-3.03806e-08
1.15453e-08
1.88353e-08
-6.56438e-09
-3.28261e-08
2.02152e-08
1.26109e-08
-5.83382e-09
5.83382e-09
-2.90154e-08
1.15973e-08
1.74181e-08
-1.01653e-08
-2.03539e-08
-1.86247e-08
2.28513e-08
-1.09078e-08
2.20623e-08
-9.11976e-09
-2.86948e-08
-3.09361e-08
2.06848e-08
8.85802e-09
3.76385e-10
9.74241e-10
1.49417e-09
-1.92014e-08
-3.29324e-08
1.86142e-08
1.43182e-08
-2.13871e-08
-1.04012e-08
-1.03202e-08
-2.65697e-10
1.27812e-08
-2.72012e-08
1.23613e-08
-1.56039e-08
-2.45784e-08
4.00559e-08
-1.32655e-08
-2.05529e-08
8.82599e-09
1.17269e-08
-4.66271e-09
-2.63294e-08
1.39964e-09
2.49298e-08
-8.19167e-09
9.68854e-09
-9.68854e-09
-3.7024e-10
-1.69586e-08
-1.35783e-08
-1.36818e-08
2.57353e-08
2.51417e-08
-7.72365e-09
-2.61169e-08
-1.695e-08
-2.25138e-09
3.12496e-08
-1.56457e-08
-1.30491e-08
-2.40305e-08
-1.87543e-08
-2.46076e-08
-4.07167e-09
-1.74783e-08
-7.07084e-09
-1.64965e-08
-1.23361e-08
-2.21634e-08
-2.88421e-08
-7.32443e-09
2.48593e-08
-2.16781e-08
-2.05675e-08
-2.51659e-08
2.36214e-08
-2.64651e-08
2.84369e-09
-6.83555e-09
-1.57683e-09
-2.87355e-09
2.3209e-08
-6.83555e-09
-3.5553e-09
3.02251e-08
3.99698e-09
-3.42221e-08
3.27078e-08
1.46576e-08
1.78832e-08
-1.27902e-08
2.55713e-08
6.74488e-09
-6.74488e-09
2.47748e-08
4.40647e-09
1.10961e-08
4.5085e-09
-1.9453e-08
2.00991e-08
-2.78227e-08
3.05976e-08
2.07035e-08
1.75838e-08
-3.06651e-08
1.30813e-08
-1.71852e-09
2.86932e-08
-9.85797e-09
2.0636e-08
2.19134e-08
-1.79164e-08
1.89436e-09
1.03879e-08
-2.07269e-08
1.25682e-08
1.03259e-08
1.34598e-08
1.94748e-08
-2.70132e-08
4.32984e-09
-1.93914e-08
4.03752e-09
1.91433e-08
-1.87501e-08
2.1118e-08
2.89388e-09
-2.09794e-08
5.99501e-09
-1.79205e-10
9.53065e-09
-2.92489e-08
-1.00172e-09
-3.11035e-08
4.31199e-09
-3.0486e-10
4.86707e-09
2.94066e-09
-1.82921e-08
2.81337e-08
2.49409e-09
-2.88235e-08
-1.12896e-08
5.99501e-09
2.28104e-08
-1.84954e-08
-2.03406e-08
-1.12815e-08
2.06111e-08
1.20071e-08
-2.20587e-08
4.86707e-09
1.46576e-08
-2.82998e-08
-2.63257e-08
2.56372e-08
-1.68214e-09
-1.66093e-08
-1.61266e-08
1.61266e-08
1.16574e-08
-3.29864e-08
-1.61019e-08
1.61019e-08
-1.88337e-08
-2.79104e-08
-1.99841e-08
-2.28253e-08
1.01234e-08
1.01481e-08
2.62351e-08
-5.62395e-09
-1.7611e-08
1.9277e-08
1.92911e-08
-3.03099e-08
1.18145e-08
-1.6852e-08
1.72283e-08
-1.86525e-08
-1.82021e-08
-1.2463e-08
-1.71601e-08
-5.52026e-09
-1.82105e-08
-9.69993e-09
1.19867e-08
-1.51258e-08
1.48601e-08
3.05541e-09
2.51372e-08
1.27214e-10
-3.17418e-08
-2.60754e-08
-1.75303e-08
-2.03404e-09
-1.80956e-08
-4.03916e-09
-5.39749e-09
-5.35479e-09
-1.20704e-08
1.33612e-08
2.4671e-08
-2.75092e-09
-1.56015e-08
-4.19225e-10
1.67661e-08
1.96182e-08
-2.16662e-08
-2.26916e-08
-2.3608e-08
-2.53479e-08
-9.63074e-09
7.0346e-09
2.58347e-09
)
;

boundaryField
{
    front
    {
        type            empty;
        value           nonuniform List<scalar> 0();
    }
    back
    {
        type            empty;
        value           nonuniform List<scalar> 0();
    }
    bottom
    {
        type            calculated;
        value           nonuniform List<scalar> 
12
(
8.42261e-09
2.74997e-08
2.05743e-08
2.09677e-08
1.75353e-08
4.82216e-09
4.86074e-09
2.60685e-08
2.70491e-08
2.62762e-08
1.75111e-08
8.41238e-09
)
;
    }
    left
    {
        type            calculated;
        value           uniform 0;
    }
    top
    {
        type            calculated;
        value           nonuniform List<scalar> 8(-2.625e-08 -2.625e-08 -2.625e-08 -2.625e-08 -2.625e-08 -2.625e-08 -2.625e-08 -2.625e-08);
    }
    right
    {
        type            calculated;
        value           uniform 0;
    }
    inner_arc
    {
        type            calculated;
        value           uniform 0;
    }
}


// ************************************************************************* //
