/*--------------------------------*- C++ -*----------------------------------*\
  =========                 |
  \\      /  F ield         | OpenFOAM: The Open Source CFD Toolbox
   \\    /   O peration     | Website:  https://openfoam.org
    \\  /    A nd           | Version:  9
     \\/     M anipulation  |
\*---------------------------------------------------------------------------*/
FoamFile
{
    format      ascii;
    class       volVectorField;
    location    "0.38";
    object      U;
}
// * * * * * * * * * * * * * * * * * * * * * * * * * * * * * * * * * * * * * //

dimensions      [0 1 -1 0 0 0 0];

internalField   nonuniform List<vector> 
578
(
(-0.00179 -0.00226 0)
(-0.00111 -0.00349 4.05e-16)
(-0.00274 -0.00343 -1.44e-16)
(0.000119 -0.00372 -3.53e-17)
(0.000688 -0.00134 -6.08e-17)
(0.000226 -0.00463 -1.34e-16)
(-0.000646 -0.00126 6.07e-17)
(0.000585 -0.000935 -9.61e-22)
(0.00284 -0.00461 -2.93e-16)
(-0.000649 -0.00208 5.59e-16)
(0.000296 -0.00482 -2.1e-16)
(0.00196 -0.00374 0)
(0.000516 -0.00442 1.45e-16)
(0.00201 -0.00433 -1.16e-15)
(-0.00211 -0.00441 5.84e-16)
(0.00354 -0.00413 -1.43e-16)
(-0.0019 -0.00164 5.75e-16)
(-0.00318 -0.00289 0)
(0.00183 -0.00319 0)
(0.00309 -0.0045 2.26e-16)
(9.98e-05 -0.00423 0)
(0.00292 -0.00381 0)
(0.00124 -0.0011 -6.76e-16)
(1.41e-05 -0.00383 0)
(-0.000199 -0.00309 0)
(0.00157 -0.00329 5.73e-16)
(-7.21e-05 -0.00356 -7.17e-17)
(1.02e-05 -0.00176 3.41e-17)
(-0.00102 -0.00417 -6.98e-16)
(0.00357 -0.00422 5.89e-16)
(-2.41e-05 -0.00303 -6.22e-16)
(0.000285 -0.004 1.4e-16)
(0.0036 -0.00435 -5.82e-16)
(-1.04e-05 -0.00418 2.87e-16)
(-0.00194 -0.00393 -5.76e-16)
(0.00301 -0.00345 -8.6e-16)
(0.00178 -0.00382 1.13e-15)
(0.00168 -0.00292 0)
(-0.00379 -0.00421 -5.95e-16)
(0.000957 -0.00208 0)
(0.000876 -0.00234 -5.03e-16)
(0.00107 -0.00166 6.07e-16)
(0.000745 -0.00171 0)
(-0.00189 -0.00386 0)
(0.00243 -0.00264 7.04e-17)
(-0.001 -0.002 0)
(-0.000956 -0.00232 5.05e-16)
(0.0025 -0.00424 -7.25e-17)
(-0.00363 -0.00426 8.84e-16)
(-7.17e-05 -0.00418 -1.49e-16)
(7.85e-05 -0.00174 1.89e-17)
(0.00068 -0.00459 -6.13e-16)
(0.00181 -0.0013 -2.8e-16)
(-0.000102 -0.00433 0)
(0.000143 -0.00401 4.85e-16)
(-0.000201 -0.00499 1.24e-15)
(0.000354 -0.000284 9.87e-16)
(0.00148 -0.00138 -5.48e-16)
(-0.00274 -0.00276 -1.09e-15)
(0.00189 -0.00219 2.89e-16)
(-0.00322 -0.00331 5.74e-16)
(-0.00142 -0.00112 0)
(-0.00212 -0.00206 7.52e-17)
(0.00184 -0.00376 5.34e-16)
(-0.000218 -0.0046 1.45e-16)
(-0.00234 -0.00444 3.15e-16)
(0.00346 -0.00441 -6.93e-17)
(0.000644 -0.00491 4.95e-16)
(0.00368 -0.00386 -2.75e-16)
(0.00204 -0.00435 6.32e-16)
(4.37e-05 -0.00336 0)
(6.89e-05 -0.00328 -1.93e-17)
(1.24e-05 -0.00435 -1.54e-16)
(0.00208 -0.00457 0)
(4.44e-05 -0.0051 2.95e-16)
(0.000597 -0.00122 0)
(0.0025 -0.00401 3.77e-16)
(0.00204 -0.00326 -2.96e-16)
(0.000272 -0.00463 0)
(-0.00174 -0.00204 -1.49e-16)
(0.00204 -0.00402 -5.24e-16)
(-0.000893 -0.00129 -5.09e-16)
(0.000739 -0.00142 -2.3e-16)
(0.00076 -0.00128 2.35e-16)
(-0.00323 -0.00459 -7.74e-17)
(-0.000724 -0.00263 0)
(1.31e-05 -0.001 0)
(-0.000273 -0.00515 -4.65e-16)
(0.00149 -0.00333 7.69e-22)
(-0.0015 -0.00378 4.83e-18)
(-7.31e-05 -0.00392 0)
(-0.0028 -0.00417 1.54e-16)
(-0.00156 -0.00326 0)
(0.000456 -0.00483 2.81e-16)
(0.0036 -0.0041 8.33e-16)
(0.00269 -0.00399 -6.87e-16)
(3.02e-05 -0.00424 1.51e-16)
(0.000388 -0.00424 -1.08e-15)
(-0.000298 -0.00121 -9.92e-16)
(-0.00216 -0.00438 0)
(-0.00197 -0.00401 0)
(0.00179 -0.00431 -9.76e-16)
(-0.000593 -0.0048 0)
(-0.00259 -0.00309 0)
(-0.000367 -0.00406 0)
(0.00211 -0.00438 -8.62e-16)
(0.000109 -0.00483 -3.07e-16)
(0.000957 -0.00219 0)
(-0.000321 -0.00127 0)
(0.000981 -0.00217 -6.23e-16)
(0.00295 -0.00384 -2.35e-16)
(0.00185 -0.00389 0)
(0.00334 -0.00446 6.75e-16)
(0.00297 -0.00367 -5.23e-16)
(0.00327 -0.00406 5.19e-16)
(-0.000671 -0.00463 6.21e-16)
(0.000127 -0.00418 3.18e-16)
(-0.00264 -0.00407 -4.69e-16)
(-0.00141 -0.00309 7.79e-17)
(-0.000348 -0.00427 5.4e-16)
(0.0014 -0.00257 -5.35e-16)
(0.0015 -0.00221 -3.88e-22)
(0.0019 -0.00395 -6.06e-16)
(7.14e-05 -0.0035 -7.78e-17)
(0.00112 -0.0023 0)
(-0.00142 -0.00423 6.23e-16)
(0.00148 -0.0042 -5.99e-16)
(0.00341 -0.00376 -3.2e-16)
(-0.00209 -0.00457 3.09e-16)
(-0.000942 -0.00403 0)
(-0.00205 -0.00411 0)
(-0.00129 -0.00423 0)
(0.000315 -0.0047 0)
(0.000404 -0.000679 5.08e-16)
(-0.00195 -0.00419 -5.8e-16)
(-0.0021 -0.00351 0)
(0.00148 -0.00301 0)
(-0.000453 -0.00438 -5.27e-16)
(0.00263 -0.0038 6.1e-16)
(-0.00169 -0.00332 0)
(-0.000788 -0.00149 6.33e-16)
(-0.000984 -0.00424 0)
(-0.00158 -0.0028 0)
(0.0001 -0.00337 0)
(0.000577 -0.00139 0)
(-0.00352 -0.00462 -2.09e-21)
(-0.000975 -0.00272 6.2e-16)
(-0.000206 -0.00242 0)
(0.00197 -0.0042 6.39e-16)
(-0.000922 -0.0036 0)
(0.0024 -0.00458 0)
(-0.000894 -0.00121 0)
(0.000874 -0.000817 0)
(0.000482 -0.00117 6.15e-16)
(-0.00213 -0.0045 -5.99e-16)
(-0.000165 -0.00359 -3.14e-16)
(-0.00116 -0.00451 6.42e-16)
(0.000429 -0.00389 -1.42e-16)
(-0.000699 -0.000725 -1.23e-16)
(0.00248 -0.00462 -5.11e-16)
(0.0022 -0.00435 7.04e-16)
(0.00197 -0.00374 7.27e-16)
(-0.000475 -0.000799 -7.83e-18)
(0.00216 -0.00406 0)
(2.06e-05 -0.00099 7.61e-22)
(-0.00116 -0.00346 -1.79e-22)
(-7.11e-05 -0.00184 -6.2e-16)
(-0.00172 -0.00381 0)
(0.0003 -0.00249 -1.47e-16)
(-0.000134 -0.00506 -2.75e-16)
(0.00207 -0.00359 0)
(0.00085 -0.00149 0)
(-0.00115 -0.00196 0)
(-0.000521 -0.00127 -6.19e-16)
(-0.00159 -0.00309 0)
(-0.000212 -0.0048 -1.5e-16)
(-3.99e-05 -0.00497 -1.54e-16)
(-0.00239 -0.0034 5.37e-16)
(0.00114 -0.00219 7.24e-17)
(-0.000116 -0.00341 3.18e-16)
(-0.000797 -0.00161 0)
(-0.00197 -0.00352 0)
(-0.000816 -0.00364 0)
(0.000195 -0.00483 1.12e-15)
(-0.00244 -0.00411 3.95e-16)
(-0.000247 -0.00171 -4.71e-16)
(0.00125 -0.0015 -2.42e-16)
(-0.00209 -0.00482 1.37e-16)
(-0.00232 -0.00474 6.28e-16)
(-6.08e-05 -0.00181 -6.25e-16)
(0.0022 -0.00464 -6.19e-16)
(0.0018 -0.00347 0)
(0.00191 -0.0025 6.3e-16)
(-0.00171 -0.00342 0)
(-0.00121 -0.0022 0)
(-6.72e-05 -0.00537 2.99e-16)
(7.04e-05 -0.00212 1.19e-15)
(-2.64e-05 -0.00208 -9.59e-16)
(-0.00189 -0.00353 0)
(0.00158 -0.00331 0)
(0.000266 -0.00179 -4.68e-16)
(0.000295 -0.00495 -1.41e-15)
(0.000746 -0.00228 -3e-16)
(-0.000103 -0.00521 0)
(-5.89e-05 -0.00517 -4.64e-16)
(0.00179 -0.00378 0)
(-0.00219 -0.00411 0)
(-0.00187 -0.00249 0)
(0.00228 -0.00471 6.44e-16)
(-0.00105 -0.00123 0)
(-0.00085 -0.00203 6.22e-16)
(-0.00235 -0.00481 -6.25e-16)
(-0.0019 -0.00388 -1.96e-17)
(3.21e-05 -0.00525 1.54e-16)
(-0.00159 -0.00331 -3.19e-16)
(7.26e-05 -0.00401 0)
(-0.00206 -0.00412 -6.3e-16)
(0.00202 -0.00403 6.3e-16)
(-0.00218 -0.00476 6.38e-16)
(-0.000348 -0.00102 -6.29e-16)
(0.00209 -0.00475 3.27e-16)
(-0.00182 -0.00361 0)
(0.00114 -0.00228 -6.19e-16)
(0.000998 -0.00194 0)
(-0.000945 -0.00188 0)
(-0.00115 -0.00238 1.24e-15)
(-4.32e-05 -0.00544 -1.53e-16)
(7.81e-05 -0.00119 -1.44e-21)
(-8.95e-05 -0.00118 2.43e-16)
(6.01e-06 -0.000985 4.86e-16)
(-0.000501 -0.00114 -4.96e-16)
(0.000229 -0.00116 -2.5e-16)
(-0.00044 -0.000713 -5.05e-16)
(0.000971 -0.00413 0)
(-0.000954 -0.00415 0)
(0.0007 -0.00126 1.81e-16)
(0.000533 -0.00106 0)
(-0.000549 -0.0011 0)
(0.000677 -0.00476 2.42e-16)
(0.000857 -0.00194 0)
(-0.00046 -0.000823 0)
(0.000481 -0.000876 0)
(-4.15e-05 -0.00537 -6.17e-16)
(-0.000793 -0.00147 0)
(-4.37e-05 -0.00111 9.49e-16)
(0.000504 -0.000785 0)
(-0.000483 -0.000771 -4.92e-16)
(-0.000271 -0.00205 1.17e-15)
(-0.000654 -0.00108 0)
(-5.02e-05 -0.00497 -1.47e-16)
(-6.58e-06 -0.00532 1.5e-16)
(-0.00164 -0.00425 0)
(0.000443 -0.0036 0)
(0.000157 -0.000718 -4.88e-18)
(-1.39e-05 -0.00085 0)
(0.000991 -0.00421 6.27e-16)
(-1.09e-05 -0.00181 6.17e-16)
(-0.00253 -0.00484 -9.97e-16)
(0.000654 -0.00111 0)
(0.000266 -0.00195 6.25e-16)
(0.000305 -0.000937 6.24e-16)
(-0.000503 -0.00096 5.02e-16)
(3.08e-05 -0.00111 -9.72e-16)
(2.22e-05 -0.00207 6.66e-16)
(-0.00187 -0.00407 4.72e-16)
(0.00126 -0.00304 1.15e-15)
(0.000613 -0.00162 0)
(0.000251 -0.00038 -4.96e-16)
(-7.84e-05 -0.000935 -4.96e-16)
(0.000129 -0.000308 0)
(-0.000129 -0.000336 0)
(-0.00127 -0.00387 -6.07e-16)
(0.000653 -0.00229 0)
(-2.93e-05 -0.0054 -4.47e-16)
(0.000171 -0.00512 -3.22e-16)
(-4.54e-05 -0.00537 -8.99e-16)
(-0.000137 -0.00451 3.27e-16)
(-0.000244 -0.000435 0)
(-0.00106 -0.00192 0)
(-5.92e-05 -0.00523 -7.77e-16)
(0.000938 -0.0018 0)
(-5.54e-05 -0.00519 1.34e-15)
(-1.25e-05 -0.00539 0)
(3.3e-05 -0.00531 -1.52e-16)
(-2.77e-05 -0.00537 3.07e-16)
(-0.000635 -0.0014 -6.07e-16)
(0.000306 -0.000519 -9.87e-16)
(-0.000337 -0.00057 4.98e-16)
(-3.3e-05 -0.000712 0)
(-8.48e-05 -0.00188 -6.28e-16)
(0.000916 -0.00301 0)
(-0.0017 -0.00409 1.93e-17)
(-7.57e-05 -0.005 2.75e-16)
(-0.000612 -0.00109 0)
(3.92e-05 -0.000952 0)
(8.1e-05 -0.00201 7.68e-17)
(0.000464 -0.00092 -5.02e-16)
(0.00104 -0.00397 -1.65e-15)
(-2.14e-05 -0.00196 1.41e-16)
(4.21e-05 -0.00199 -5.51e-16)
(-3.07e-05 -0.00484 7.87e-16)
(-0.000844 -0.00307 0)
(4.61e-05 -0.00113 4.86e-16)
(3.8e-05 -0.000955 0)
(3.29e-05 -0.00112 0)
(-1.15e-05 -0.00121 9.24e-16)
(0.00086 -0.00354 6.06e-16)
(-9.69e-05 -0.00407 -1.4e-15)
(-2.58e-05 -0.0054 -5.94e-16)
(-1.25e-05 -0.00546 0)
(0.000951 -0.00266 3.14e-16)
(-4.04e-05 -0.00551 4.47e-16)
(-2.07e-05 -0.00546 -9.53e-16)
(-0.000679 -0.00235 0)
(9.04e-07 -0.00534 6.07e-16)
(1.88e-05 -0.00525 6.2e-16)
(-0.00156 -0.00372 0)
(-0.000167 -0.000773 0)
(-0.000602 -0.00167 0)
(-1.29e-05 -0.00513 -7.37e-16)
(-0.00129 -0.00307 -6.34e-16)
(-9.69e-06 -0.00541 1.24e-15)
(-7.98e-05 -0.00528 1.57e-16)
(0.000118 -0.00503 -4.72e-16)
(-0.000171 -0.00521 6.14e-16)
(5.15e-05 -0.00535 -2.89e-16)
(-0.00255 -0.00465 5.93e-16)
(-0.00156 -0.00288 0)
(0.00204 -0.00437 0)
(3.41e-05 -0.00536 1.13e-15)
(-0.000357 -0.00491 1.55e-16)
(-0.00288 -0.00478 -2.39e-16)
(1.89e-05 -0.00541 2.99e-16)
(9.18e-05 -0.00512 -5.87e-16)
(-0.00139 -0.00264 9.43e-16)
(2.61e-06 -0.00529 3.08e-16)
(8.04e-05 -0.00508 -2.84e-16)
(1.22e-05 -0.00515 -6.18e-16)
(-1.43e-06 -0.00417 0)
(3.41e-05 -0.00457 0)
(-9.12e-06 -0.00525 -3.06e-16)
(-7.46e-06 -0.00535 4.61e-16)
(1.18e-05 -0.00538 4.46e-16)
(2.53e-05 -0.00353 5.75e-16)
(2.7e-05 -0.00536 4.53e-16)
(0.00256 -0.00363 -1.68e-16)
(0.00146 -0.00352 3.3e-16)
(-0.000288 -0.000812 -5.01e-16)
(0.000267 -0.000659 1.26e-16)
(-0.000266 -0.000801 4.97e-16)
(0.000231 -0.000772 0)
(0.000359 -0.000925 5.07e-16)
(-0.000357 -0.000757 2.54e-16)
(-0.000108 -0.00516 -2.92e-16)
(0.000622 -0.00117 0)
(-0.000638 -0.00122 0)
(-2.56e-05 -0.00531 -4.52e-16)
(-0.000613 -0.00123 -4.97e-16)
(0.000693 -0.0012 0)
(-0.000731 -0.00116 0)
(-3.79e-05 -0.00525 -4.83e-16)
(-0.000482 -0.000324 0)
(-4.76e-05 -0.00533 1.51e-16)
(0.00032 -0.000873 5.6e-16)
(-1.83e-05 -0.00541 -1.58e-16)
(0.000151 -0.00433 -6.43e-16)
(-0.000111 -0.00532 1.53e-16)
(0.00211 -0.00405 6.05e-16)
(0.000166 -0.00503 2.7e-16)
(-0.00135 -0.00121 0)
(0.00156 -0.00436 0)
(-0.00131 -0.000803 -6.41e-17)
(-0.00219 -0.00269 5.75e-16)
(0.00173 -0.00407 -3.16e-16)
(-0.00375 -0.00448 -3.31e-16)
(0.00133 -0.000918 4.95e-16)
(-0.000305 -0.00502 -1.52e-16)
(-0.000753 -0.00157 -6.48e-16)
(0.000694 -0.00153 4.6e-16)
(-0.00118 -0.00206 -6.4e-16)
(-8.11e-05 -0.00402 -5.02e-16)
(0.000712 -0.00158 -3.22e-16)
(-0.0006 -0.00155 0)
(0.000303 -0.00489 -7.61e-16)
(5.87e-05 -0.00506 4.46e-16)
(9e-06 -0.00462 8.94e-16)
(-0.000118 -0.000818 -6.59e-16)
(-0.000962 -0.00222 6.1e-16)
(-0.000952 -0.00221 0)
(0.000575 -0.0015 -3.95e-16)
(0.000366 -0.00404 2.49e-16)
(0.000905 -0.0036 0)
(0.000577 -0.00405 6.22e-16)
(0.00122 -0.00338 -2.94e-16)
(-0.0037 -0.00406 5.7e-16)
(0.000478 -0.00212 3.01e-16)
(0.00255 -0.00205 5.06e-18)
(4.91e-05 -0.00508 7.6e-16)
(0.000302 -0.0029 6.31e-16)
(-4.39e-05 -0.00158 6.37e-16)
(-0.0033 -0.00397 -1.12e-15)
(8.54e-05 -0.00168 -5.79e-16)
(-0.000283 -0.00128 3.07e-16)
(-0.000662 -0.00441 4.84e-16)
(-0.000823 -0.00434 0)
(-0.000381 -0.00392 0)
(0.00329 -0.00288 0)
(-0.00112 -0.00281 9.07e-16)
(0.000483 -0.00468 -7.71e-16)
(0.00126 -0.00439 -6.14e-16)
(-0.000361 -0.00333 -1.24e-15)
(-0.00209 -0.00414 1.5e-16)
(-0.000138 -0.00475 -6.44e-22)
(-0.00126 -0.00406 -1.23e-15)
(-0.00171 -0.00351 -1.52e-16)
(0.000898 -0.00448 1.55e-16)
(0.00144 -0.00436 -6.56e-16)
(-0.00176 -0.00407 -3.35e-16)
(0.00219 -0.00512 0)
(-0.000193 -0.00474 1.48e-16)
(-0.00195 -0.00446 7.83e-17)
(-7.42e-05 -0.000898 8.87e-22)
(0.00194 -0.0043 0)
(-0.00212 -0.00435 7.83e-16)
(-0.00181 -0.00421 0)
(0.00146 -0.0043 -3.18e-16)
(0.000627 -0.00264 8.4e-16)
(-0.000427 -0.00471 -6.71e-16)
(0.000316 -0.00115 -4.7e-16)
(0.00131 -0.00426 0)
(-0.00305 -0.00469 0)
(1.01e-05 -0.00518 -2.99e-16)
(0.00215 -0.0026 -1.59e-16)
(0.000792 -0.00428 0)
(-0.00036 -0.00101 -2.45e-16)
(0.00176 -0.0041 -3.13e-16)
(0.00164 -0.0039 0)
(-0.00155 -0.00442 -6.08e-16)
(0.000789 -0.00354 0)
(-0.000757 -0.00435 6.34e-16)
(-0.0014 -0.00405 -4.69e-16)
(7.19e-05 -0.00481 0)
(0.000329 -0.00418 3.32e-16)
(2.91e-05 -0.00426 0)
(-0.00282 -0.0049 0)
(-0.000221 -0.00504 6.17e-16)
(3.42e-05 -0.00335 -4.75e-16)
(-0.00278 -0.00383 -6.06e-16)
(-0.0023 -0.00343 8.53e-16)
(-4.89e-05 -0.000947 0)
(-0.00211 -0.00429 1.64e-16)
(-0.000802 -0.00406 0)
(-0.00198 -0.00465 -6.49e-22)
(0.000748 -0.00405 2.4e-16)
(-0.00211 -0.0044 -6e-16)
(-6.77e-05 -0.00342 0)
(-0.000308 -0.00335 -9.84e-18)
(0.00183 -0.00295 2.96e-16)
(5.16e-05 -0.00519 9.59e-16)
(-0.00314 -0.00408 0)
(0.001 -0.0036 6.21e-16)
(-0.00119 -0.00139 2.97e-16)
(-0.000749 -0.00484 -2.38e-16)
(0.000579 -0.00209 -3.64e-16)
(-0.000121 -0.00534 1.54e-16)
(0.00256 -0.00428 -3.63e-21)
(-0.000726 -0.00211 0)
(0.00107 -0.00146 -3.08e-16)
(-0.000573 -0.00462 3.16e-16)
(0.00159 -0.00367 -9.56e-16)
(0.000137 -0.00477 -6.78e-16)
(-1.26e-05 -0.000954 0)
(-0.000628 -0.000871 0)
(-0.000344 -0.00371 3.05e-16)
(1.84e-05 -0.0053 -6.57e-16)
(0.00183 -0.00456 3.11e-16)
(0.00167 -0.00429 6.36e-16)
(0.000449 -0.000651 2.42e-16)
(0.000917 -0.0012 1.21e-16)
(0.00237 -0.00296 2.67e-16)
(6.36e-05 -0.00469 0)
(0.000143 -0.00516 3.17e-16)
(-0.00369 -0.00422 -4.62e-16)
(2.83e-05 -0.00537 -1.42e-15)
(-0.000268 -0.00414 2.48e-16)
(0.00124 -0.00418 3.18e-16)
(3.87e-05 -0.00476 4.71e-16)
(-0.000158 -0.00192 0)
(-0.000873 -0.00445 0)
(-0.00256 -0.00446 -3.01e-16)
(0.000165 -0.00192 -2.3e-16)
(-0.00361 -0.00473 8.1e-17)
(0.0013 -0.00387 3.81e-17)
(0.000683 -0.00447 8.01e-17)
(-0.000265 -0.00491 -3.12e-16)
(-0.000681 -0.00165 6.3e-16)
(-3.69e-05 -0.00386 3.27e-16)
(-0.00175 -0.00428 2.97e-16)
(-0.000449 -0.00376 2.37e-16)
(0.000436 -0.0038 0)
(0.00208 -0.00459 -3.21e-16)
(-0.000219 -0.00488 -6.27e-16)
(0.00115 -0.00334 0)
(5.82e-05 -0.00496 9.25e-16)
(-0.00343 -0.00394 1.71e-16)
(-0.000626 -0.00443 0)
(-0.00134 -0.00312 3.34e-16)
(0.000281 -0.0047 0)
(-0.00124 -0.0033 6.32e-16)
(-0.000928 -0.00447 0)
(8.34e-05 -0.00421 6.08e-16)
(0.00226 -0.00355 0)
(8.78e-05 -0.00332 -6.2e-16)
(-0.00154 -0.00313 -3.45e-16)
(-0.00183 -0.00391 -8.45e-17)
(9.94e-05 -0.00199 -5.9e-16)
(0.00201 -0.00469 3.29e-16)
(0.0015 -0.0035 0)
(6.63e-05 -0.00396 0)
(0.00104 -0.0045 6.35e-16)
(-1.34e-05 -0.005 -4.59e-16)
(0.00119 -0.00188 -4.89e-16)
(-0.00012 -0.00534 1.55e-16)
(0.00123 -0.00293 0)
(0.0019 -0.00421 3.42e-16)
(1.12e-05 -0.00469 -8.46e-16)
(4.73e-06 -0.00398 4.2e-16)
(0.000167 -0.00349 -3.26e-16)
(0.00257 -0.00381 1.59e-16)
(-0.000272 -0.0041 3.32e-16)
(0.0014 -0.00228 0)
(0.002 -0.00488 0)
(-6.54e-05 -0.00191 -5.79e-16)
(5.96e-05 -0.00488 0)
(0.00123 -0.00452 7.4e-16)
(-0.00123 -0.00179 -3.24e-16)
(3.44e-05 -0.00303 0)
(-0.00153 -0.0037 -4.15e-16)
(-0.00237 -0.00307 -4.04e-17)
(-0.000564 -0.00309 6.45e-16)
(0.000624 -0.00315 3.93e-21)
(0.000922 -0.00458 -4.03e-17)
(0.00124 -0.00181 0)
(0.00147 -0.00365 3.45e-16)
(0.000664 -0.00421 0)
(-3.16e-05 -0.0049 -3.26e-16)
(-2.76e-05 -0.00393 0)
(-0.0027 -0.00412 0)
(0.00289 -0.0039 -1.57e-16)
(0.00143 -0.00378 3.24e-16)
(0.00312 -0.0032 4.49e-17)
(-0.00195 -0.00407 -1.71e-16)
(0.0018 -0.0042 -3.02e-16)
(-0.00238 -0.00402 1.62e-16)
(0.0024 -0.00306 -1.72e-16)
(-0.000314 -0.00512 -1.55e-16)
(0.00264 -0.00479 -4.35e-16)
(7.16e-05 -0.00537 1.79e-16)
(4.07e-05 -0.00474 1.68e-16)
(-0.000416 -0.0047 8.75e-17)
(-0.000539 -0.00473 0)
(-0.00121 -0.00242 0)
(0.00116 -0.00285 -7.06e-16)
(-0.00105 -0.00416 0)
(0.00113 -0.00421 -3.22e-16)
(5.97e-06 -0.00455 0)
(0.000901 -0.00443 3.41e-16)
(-0.000574 -0.00494 2.29e-16)
(-0.00134 -0.00433 -3.54e-16)
(0.00136 -0.00433 -3.59e-16)
(-0.00208 -0.00426 3.31e-16)
(-0.00328 -0.00417 0)
(0.00264 -0.00237 -2.36e-16)
(-0.000577 -0.0048 -6.94e-16)
(-0.00365 -0.00432 1.85e-16)
(1.02e-05 -0.00461 0)
(-0.00333 -0.00447 3.71e-16)
(-0.00318 -0.00362 0)
)
;

boundaryField
{
    front
    {
        type            empty;
    }
    back
    {
        type            empty;
    }
    bottom
    {
        type            zeroGradient;
    }
    left
    {
        type            noSlip;
    }
    top
    {
        type            uniformFixedValue;
        uniformValue    
        {
            type            table;
            format          csv;
            file            "inlet_v.csv";
            nHeaderLine     1;
            refColumn       0;
            componentColumns List<label> 3(1 2 3);
            separator       ",";
            mergeSeparators 0;
        }
        value           uniform (0 -0.004 0);
    }
    right
    {
        type            noSlip;
    }
    inner_arc
    {
        type            noSlip;
    }
}


// ************************************************************************* //
