/*--------------------------------*- C++ -*----------------------------------*\
  =========                 |
  \\      /  F ield         | OpenFOAM: The Open Source CFD Toolbox
   \\    /   O peration     | Website:  https://openfoam.org
    \\  /    A nd           | Version:  9
     \\/     M anipulation  |
\*---------------------------------------------------------------------------*/
FoamFile
{
    format      ascii;
    class       volVectorField;
    location    "0.38";
    object      U;
}
// * * * * * * * * * * * * * * * * * * * * * * * * * * * * * * * * * * * * * //

dimensions      [0 1 -1 0 0 0 0];

internalField   nonuniform List<vector> 
578
(
(-0.249847 -0.348279 0)
(-0.153558 -0.640034 2.3924e-16)
(-0.384866 -0.530625 0)
(0.0472904 -0.747551 2.81261e-16)
(0.102422 -0.205583 0)
(0.037682 -0.823898 -2.70923e-16)
(-0.108009 -0.216975 -5.04843e-17)
(0.116353 -0.208283 5.03731e-16)
(0.57424 -0.779313 0)
(-0.106975 -0.429295 -4.46803e-16)
(0.0395787 -0.839043 1.19889e-16)
(0.353757 -0.662396 1.6166e-17)
(0.0169413 -0.712726 0)
(0.443927 -0.762152 -2.75219e-16)
(-0.448874 -0.775213 0)
(0.480013 -0.604009 6.8566e-17)
(-0.351016 -0.431552 -1.99818e-16)
(-0.608237 -0.611088 4.21871e-16)
(0.320448 -0.599752 -9.87641e-17)
(0.548891 -0.704304 -2.51835e-16)
(0.0482045 -0.807659 -2.83937e-16)
(0.380504 -0.562264 3.50676e-16)
(0.270258 -0.293212 -2.75722e-16)
(-0.0128539 -0.731306 -3.35008e-17)
(-0.0189258 -0.628444 0)
(0.315849 -0.627414 4.4745e-20)
(-0.046275 -0.729636 0)
(-0.0201292 -0.437723 2.93432e-17)
(-0.127629 -0.740255 -2.79107e-16)
(0.512009 -0.627892 0)
(-0.0331098 -0.675008 -3.87164e-16)
(0.0381036 -0.745418 2.37298e-19)
(0.601555 -0.707635 -5.92753e-17)
(-0.0316456 -0.792476 -6.59388e-17)
(-0.387337 -0.701802 -2.67776e-16)
(0.426471 -0.504638 1.57002e-16)
(0.379223 -0.683289 2.74942e-16)
(0.292922 -0.574926 0)
(-0.488666 -0.594089 -2.69469e-16)
(0.156398 -0.295344 0)
(0.177166 -0.364966 -4.60413e-16)
(0.195983 -0.340584 -2.28883e-16)
(0.164362 -0.329485 -5.64735e-16)
(-0.421747 -0.707985 -8.72117e-18)
(0.632512 -0.582943 0)
(-0.166618 -0.306688 -3.73693e-20)
(-0.182262 -0.381054 5.02583e-16)
(0.593747 -0.808341 -1.36222e-16)
(-0.485416 -0.604517 2.7113e-16)
(-0.0533139 -0.807803 0)
(0.01644 -0.400166 1.5769e-17)
(0.0257685 -0.712371 -1.09367e-19)
(0.465079 -0.405229 3.60909e-16)
(-0.0341645 -0.786904 6.57186e-17)
(0.00203443 -0.70086 0)
(-0.0285832 -0.848419 1.50372e-16)
(0.131442 -0.0888723 -3.10213e-16)
(0.502836 -0.38492 0)
(-0.42196 -0.548943 -3.34063e-16)
(0.241197 -0.303277 1.10854e-16)
(-0.51038 -0.609116 -1.40937e-16)
(-0.41612 -0.336152 -1.91483e-16)
(-0.673717 -0.530081 -3.4284e-16)
(0.419424 -0.697566 1.36906e-16)
(-0.00911062 -0.716203 2.91534e-16)
(-0.51322 -0.801879 1.42077e-16)
(0.617155 -0.753416 2.61933e-16)
(0.069663 -0.826788 0)
(0.597175 -0.642777 3.20122e-17)
(0.381241 -0.77515 1.48162e-16)
(-0.0141385 -0.672167 0)
(0.012167 -0.647636 -3.58336e-16)
(-0.000145217 -0.709927 -6.33987e-16)
(0.39225 -0.788406 3.10744e-16)
(0.00661595 -0.880047 0)
(0.141619 -0.245006 2.06249e-16)
(0.418929 -0.564879 4.90309e-16)
(0.313472 -0.428289 -2.99094e-16)
(0.0108008 -0.71804 2.86403e-16)
(-0.203899 -0.257493 2.56138e-16)
(0.252421 -0.688868 -4.00771e-16)
(-0.133945 -0.230405 8.70655e-16)
(0.0867117 -0.269278 -5.88207e-16)
(0.135326 -0.215865 0)
(-0.62732 -0.779033 1.76982e-16)
(-0.108434 -0.237816 -6.6453e-16)
(0.00662369 -0.236249 0)
(-0.0245423 -0.863559 1.48203e-16)
(0.25251 -0.542584 -3.37677e-16)
(-0.267914 -0.589361 2.97366e-18)
(-0.0460502 -0.779399 2.85403e-16)
(-0.643991 -0.783403 2.12754e-18)
(-0.259441 -0.555059 3.16013e-16)
(0.0423108 -0.755147 1.43676e-16)
(0.513506 -0.655455 -8.66255e-17)
(0.370336 -0.632181 0)
(0.000171816 -0.703238 3.15857e-16)
(0.00870749 -0.704967 0)
(-0.0318776 -0.277841 -1.03858e-16)
(-0.42005 -0.759631 -2.74135e-16)
(-0.49177 -0.736402 -1.67886e-17)
(0.341804 -0.725417 1.63899e-16)
(-0.036714 -0.735193 0)
(-0.368851 -0.427521 0)
(-0.00690792 -0.701247 1.48358e-16)
(0.414059 -0.745908 2.63776e-16)
(0.00847552 -0.847236 0)
(0.208727 -0.379002 2.30365e-16)
(-0.0567207 -0.135219 5.25702e-16)
(0.2732 -0.457994 -4.36832e-16)
(0.440522 -0.540638 1.21214e-16)
(0.364708 -0.737627 1.09931e-16)
(0.553549 -0.687386 -3.15986e-17)
(0.402911 -0.649064 3.74463e-17)
(0.438451 -0.65475 -4.20507e-17)
(-0.0276208 -0.718751 3.24143e-16)
(0.0552922 -0.797151 0)
(-0.331604 -0.683543 -8.23434e-17)
(-0.223187 -0.501101 0)
(-0.00924569 -0.704769 3.306e-16)
(0.261906 -0.515174 -3.94913e-16)
(0.217018 -0.378305 0)
(0.35391 -0.691663 -3.71655e-17)
(0.0388556 -0.717335 3.60694e-16)
(0.17492 -0.379934 0)
(-0.329333 -0.712483 1.51698e-16)
(0.171332 -0.696552 2.79015e-16)
(0.629635 -0.713943 6.64208e-17)
(-0.404329 -0.79927 -3.22037e-16)
(-0.335394 -0.722768 0)
(-0.384071 -0.749058 3.68689e-16)
(-0.345193 -0.739393 0)
(0.0531945 -0.783908 1.61066e-16)
(0.0718882 -0.141151 4.96525e-16)
(-0.384864 -0.778637 -3.64286e-16)
(-0.336743 -0.506306 0)
(0.302977 -0.542979 -3.66902e-16)
(-0.0157314 -0.712132 -3.29746e-16)
(0.319541 -0.649796 -1.18219e-18)
(-0.320821 -0.613815 -3.66869e-16)
(-0.14846 -0.279786 0)
(-0.323449 -0.708477 0)
(-0.272344 -0.516877 0)
(0.00753972 -0.658949 0)
(0.139038 -0.275579 -5.48425e-16)
(-0.549304 -0.669707 0)
(-0.273129 -0.547649 7.51863e-16)
(-0.0477798 -0.638775 4.14356e-16)
(0.387842 -0.770162 0)
(-0.33947 -0.717991 0)
(0.479848 -0.750121 0)
(-0.28441 -0.36125 -1.87477e-16)
(0.110049 -0.130879 -6.19921e-16)
(0.125907 -0.246694 -5.7292e-16)
(-0.418801 -0.765766 -8.62404e-18)
(-0.0554893 -0.746351 3.27933e-16)
(-0.135201 -0.775069 3.03624e-16)
(0.0663078 -0.771618 3.00251e-16)
(-0.0831528 -0.096665 2.71128e-16)
(0.51775 -0.776195 0)
(0.51464 -0.795839 0)
(0.494875 -0.730779 0)
(-0.0826594 -0.155175 0)
(0.391581 -0.612886 -5.46469e-18)
(2.62896e-05 -0.223963 0)
(-0.335646 -0.692263 -3.09019e-16)
(0.0004499 -0.397528 0)
(-0.349305 -0.638072 -2.70916e-18)
(0.0510648 -0.649156 0)
(-0.0419113 -0.805809 0)
(0.346251 -0.510503 -3.59468e-16)
(0.174339 -0.31791 0)
(-0.187097 -0.287919 0)
(-0.124884 -0.239139 -9.4115e-18)
(-0.294585 -0.545088 0)
(-0.0120656 -0.728445 0)
(-0.00101999 -0.735947 -3.02795e-16)
(-0.303483 -0.647008 4.31225e-17)
(0.195394 -0.29997 5.08358e-16)
(-0.0150126 -0.657335 0)
(-0.170445 -0.317195 4.2247e-18)
(-0.272295 -0.591133 -4.93926e-16)
(-0.215354 -0.494923 0)
(0.0110395 -0.729909 5.61214e-16)
(-0.401194 -0.577864 0)
(-0.0266573 -0.460787 -3.36067e-16)
(0.170536 -0.234319 -3.99747e-16)
(-0.415885 -0.791449 3.09525e-16)
(-0.448863 -0.769918 0)
(-0.0140884 -0.40282 0)
(0.448659 -0.763686 0)
(0.332509 -0.536825 -3.49393e-16)
(0.270392 -0.387458 -4.64989e-16)
(-0.314196 -0.552905 2.6898e-18)
(-0.202244 -0.386414 -4.76166e-16)
(-0.0073767 -0.780185 -5.00616e-16)
(0.0369527 -0.561341 -3.95226e-16)
(-0.0370352 -0.55062 4.37431e-16)
(-0.326739 -0.537954 0)
(0.316133 -0.549442 0)
(0.0295245 -0.471855 0)
(0.0259769 -0.746922 -2.91226e-16)
(0.126118 -0.450464 4.47425e-16)
(-0.0198695 -0.774816 5.15505e-16)
(-0.0033399 -0.750067 1.50791e-16)
(0.357866 -0.643509 6.87239e-16)
(-0.387858 -0.616425 0)
(-0.599043 -0.641891 -2.46891e-18)
(0.474419 -0.78716 0)
(-0.144438 -0.191821 -6.85584e-16)
(-0.222947 -0.443103 -3.88264e-16)
(-0.477014 -0.796409 0)
(-0.364729 -0.734419 0)
(0.00874356 -0.762564 -1.45861e-16)
(-0.307187 -0.600351 0)
(0.0368528 -0.766352 -3.24304e-16)
(-0.370416 -0.636849 0)
(0.37488 -0.635654 1.35017e-18)
(-0.44498 -0.799202 2.90268e-16)
(-0.110749 -0.218114 0)
(0.442653 -0.788827 -2.9562e-16)
(-0.333062 -0.628897 3.58193e-16)
(0.241941 -0.478568 7.48991e-16)
(0.187766 -0.317812 5.39821e-16)
(-0.181331 -0.325013 0)
(-0.240607 -0.469059 5.92854e-18)
(0.00222727 -0.805489 2.78254e-16)
(0.0280756 -0.372446 0)
(-0.024222 -0.36564 -3.8468e-16)
(-0.00210362 -0.220905 -4.51604e-16)
(-0.0750372 -0.240776 0)
(0.0352562 -0.255493 4.40179e-16)
(-0.0689028 -0.13165 8.0746e-18)
(0.243117 -0.547902 0)
(-0.250284 -0.557717 0)
(0.101651 -0.154595 4.48917e-16)
(0.101527 -0.175406 4.75541e-16)
(-0.102661 -0.177382 -4.69467e-16)
(0.0458245 -0.745986 -3.00514e-16)
(0.223688 -0.447111 0)
(-0.0910513 -0.170629 -4.71642e-16)
(0.093631 -0.157567 4.80806e-16)
(-0.00970817 -0.794772 -7.14416e-17)
(-0.158113 -0.298727 -8.59339e-18)
(-0.0207632 -0.327873 -7.79335e-16)
(0.0777052 -0.163236 4.81265e-16)
(-0.0769295 -0.145479 0)
(-0.0467312 -0.444234 0)
(-0.0916641 -0.129311 0)
(-0.0351951 -0.837344 1.38529e-16)
(0.00648511 -0.776216 0)
(-0.353601 -0.749564 4.89839e-18)
(0.0550328 -0.670383 3.02095e-16)
(0.0939759 -0.197446 0)
(0.00657195 -0.210972 0)
(0.314519 -0.696099 2.97993e-16)
(-0.00286908 -0.398301 5.29912e-16)
(-0.515717 -0.78691 -1.36646e-16)
(0.103049 -0.164491 4.7578e-16)
(0.0417066 -0.44059 -5.11452e-16)
(0.110795 -0.219121 -6.1192e-16)
(-0.0984744 -0.17764 -3.68419e-18)
(0.0160994 -0.326548 7.859e-16)
(0.0263479 -0.514236 -8.99245e-16)
(-0.24039 -0.672299 5.92823e-16)
(0.291969 -0.587145 -3.07349e-16)
(0.206045 -0.448128 0)
(0.0524417 -0.102878 5.46594e-16)
(-0.00837823 -0.227103 7.08767e-18)
(0.036805 -0.113113 0)
(-0.0375037 -0.114036 0)
(-0.356564 -0.7395 0)
(0.250132 -0.518669 0)
(-0.000147089 -0.818003 -1.39001e-16)
(0.0228147 -0.762623 -1.51903e-16)
(-0.0142598 -0.832142 2.73257e-16)
(-0.0407813 -0.81919 1.58128e-16)
(-0.0526006 -0.102652 -2.67198e-19)
(-0.187456 -0.318429 0)
(-0.0218711 -0.854395 2.7413e-16)
(0.180877 -0.322876 -4.24275e-18)
(-0.0246017 -0.832241 -1.3789e-16)
(0.0101549 -0.832519 0)
(0.018542 -0.796152 1.41456e-16)
(-0.0143009 -0.844864 1.36243e-16)
(-0.136485 -0.260544 0)
(0.0615757 -0.121522 -4.12093e-18)
(-0.0617824 -0.119148 -5.30381e-16)
(-0.00530807 -0.189369 2.51618e-16)
(-0.0109008 -0.403494 2.24737e-16)
(0.316553 -0.679018 3.44658e-16)
(-0.369211 -0.757522 0)
(-0.0389593 -0.823351 -2.42144e-16)
(-0.102668 -0.163099 -4.762e-16)
(0.0110685 -0.248919 2.20504e-16)
(0.0260957 -0.467394 -2.77292e-16)
(0.0982705 -0.177348 0)
(0.326413 -0.711113 -6.73351e-16)
(0.0113079 -0.426105 8.85157e-16)
(0.0115083 -0.453607 -1.10327e-16)
(-0.029322 -0.845863 -2.80066e-16)
(-0.321407 -0.684004 0)
(0.00657225 -0.269112 -4.08436e-16)
(0.0049576 -0.221177 -4.56575e-16)
(0.0165098 -0.303843 3.93667e-16)
(-0.00550697 -0.282906 -3.84334e-16)
(0.333552 -0.712226 -7.796e-20)
(-0.010279 -0.751062 0)
(-0.00540608 -0.85823 -6.71274e-17)
(-0.00485571 -0.848137 -2.01879e-16)
(0.272569 -0.551833 0)
(0.00152823 -0.875239 0)
(0.000224811 -0.871816 -1.37984e-16)
(-0.25103 -0.516971 -1.52261e-18)
(-0.0144971 -0.868504 -3.41189e-16)
(0.0213022 -0.83937 -2.88579e-16)
(-0.350386 -0.712057 0)
(-0.0947843 -0.197692 3.14979e-19)
(-0.206676 -0.447258 0)
(-0.0204792 -0.863177 4.07933e-16)
(-0.290021 -0.573599 0)
(0.00710993 -0.842869 -2.72158e-16)
(-0.0254012 -0.817442 2.77973e-16)
(-0.0121178 -0.867155 7.17885e-17)
(-0.0180038 -0.757436 -3.67017e-16)
(0.015057 -0.855618 2.53018e-16)
(-0.480951 -0.759496 0)
(-0.281004 -0.528857 0)
(0.420591 -0.763503 -3.05661e-16)
(0.0117039 -0.865706 -3.81259e-16)
(-0.0259372 -0.736268 -7.62689e-17)
(-0.511235 -0.733715 0)
(0.00166527 -0.864662 1.3702e-16)
(0.0222497 -0.856499 -7.05435e-17)
(-0.256045 -0.495622 0)
(-0.0115429 -0.876169 6.80374e-17)
(0.0371266 -0.807754 5.2946e-20)
(0.0256235 -0.845495 2.16489e-16)
(0.00512219 -0.760301 0)
(-0.0402522 -0.818281 0)
(0.0249288 -0.826892 0)
(0.0152438 -0.808097 -2.8077e-16)
(-0.00100334 -0.878289 3.9185e-16)
(0.000140864 -0.675191 -9.36355e-18)
(-0.00628397 -0.877146 1.95415e-20)
(0.363335 -0.580395 0)
(0.170731 -0.664823 -1.76293e-16)
(-0.0491413 -0.118976 -2.69427e-16)
(0.0491875 -0.112205 -2.78719e-16)
(-0.0526236 -0.124582 -2.64684e-16)
(0.0541512 -0.127241 3.99782e-16)
(0.0686517 -0.123174 0)
(-0.0735 -0.126909 1.30873e-16)
(-0.00177371 -0.872262 0)
(0.0915974 -0.179485 0)
(-0.0911381 -0.187481 0)
(-0.00351791 -0.881126 -1.31537e-16)
(-0.134572 -0.234236 -1.5822e-16)
(0.206005 -0.313948 3.41228e-16)
(-0.200489 -0.307656 -9.74397e-17)
(-0.00735578 -0.859818 -7.29992e-17)
(-0.138399 -0.11093 0)
(-0.000495116 -0.877984 2.7211e-16)
(0.046202 -0.117909 0)
(-0.00314508 -0.880037 1.37306e-16)
(0.00455117 -0.758277 0)
(-0.00791191 -0.872364 7.2164e-17)
(0.264702 -0.691134 6.38911e-16)
(0.0422729 -0.790732 1.24604e-16)
(-0.479979 -0.389556 0)
(0.332079 -0.704518 -3.39449e-16)
(-0.386746 -0.261731 1.79672e-16)
(-0.628724 -0.594326 4.04873e-16)
(0.195063 -0.716725 -1.51278e-16)
(-0.623339 -0.742438 -1.4311e-16)
(0.375346 -0.249284 1.69856e-16)
(-0.0305028 -0.754403 3.78472e-16)
(-0.104649 -0.248872 0)
(0.105329 -0.240258 3.05009e-16)
(-0.178864 -0.473716 1.98166e-16)
(-0.00195076 -0.70074 -5.94505e-16)
(0.107426 -0.252315 -1.55746e-16)
(-0.111467 -0.25318 0)
(0.0234534 -0.831702 1.37233e-16)
(0.00804185 -0.855169 -2.69535e-16)
(-0.00665642 -0.804051 -4.47343e-16)
(-0.0318659 -0.225261 1.39168e-16)
(-0.206871 -0.386256 0)
(-0.265066 -0.445756 -5.70961e-17)
(0.0952442 -0.234294 0)
(0.00659883 -0.700762 0)
(0.0967606 -0.675038 0)
(0.0578486 -0.7399 -3.12344e-16)
(0.330835 -0.688577 0)
(-0.622964 -0.673482 -2.29243e-16)
(0.068929 -0.495248 2.8157e-16)
(0.672466 -0.516203 0)
(0.0187557 -0.857755 -1.58869e-16)
(0.0330341 -0.603852 -9.49964e-17)
(-0.011699 -0.36646 0)
(-0.639692 -0.733892 1.01561e-18)
(0.00932346 -0.381606 0)
(-0.051152 -0.358912 4.04614e-16)
(-0.0779952 -0.738692 0)
(-0.0201992 -0.703179 -1.64391e-16)
(-0.0504513 -0.716696 -8.28682e-17)
(0.580322 -0.587766 -2.01936e-16)
(-0.148737 -0.58739 1.94317e-16)
(0.0544091 -0.817894 7.12323e-17)
(0.144833 -0.759425 0)
(-0.0501888 -0.644306 8.30187e-17)
(-0.251586 -0.716068 -8.02767e-17)
(-0.0141868 -0.836388 0)
(-0.258567 -0.580748 -1.88032e-16)
(-0.215375 -0.653702 -1.67721e-16)
(0.0900667 -0.781929 3.55584e-16)
(0.305685 -0.628743 1.81704e-16)
(-0.315276 -0.645939 -1.7309e-16)
(0.402203 -0.785982 -1.97547e-16)
(-0.0544427 -0.809194 0)
(-0.361839 -0.755567 3.69205e-16)
(-0.00342091 -0.208425 0)
(0.399599 -0.778653 -8.56428e-20)
(-0.405107 -0.766532 1.84053e-16)
(-0.339214 -0.72128 0)
(0.317441 -0.694877 -1.37499e-16)
(0.105623 -0.236947 0)
(-0.0422659 -0.808235 0)
(0.0530465 -0.132078 3.29257e-17)
(0.335727 -0.726698 1.63464e-16)
(-0.538799 -0.697403 1.29105e-16)
(0.00437444 -0.878771 -2.72925e-16)
(0.614204 -0.636192 1.53479e-16)
(0.0165709 -0.699745 0)
(-0.0531275 -0.131376 0)
(0.364286 -0.753906 -2.56105e-16)
(0.275995 -0.589138 3.51261e-16)
(-0.189703 -0.751327 1.50141e-16)
(0.208052 -0.486408 1.48989e-18)
(-0.0952237 -0.751448 -3.09214e-16)
(-0.163672 -0.722128 1.67714e-16)
(0.0412849 -0.819557 0)
(0.0647896 -0.798766 -7.87842e-17)
(0.0271282 -0.783172 1.07865e-16)
(-0.558083 -0.767837 2.70953e-16)
(-0.0283574 -0.845313 -2.26178e-16)
(0.012854 -0.669123 -3.72856e-16)
(-0.406934 -0.526454 1.79285e-16)
(-0.336275 -0.452877 -3.54329e-16)
(0.00390342 -0.227454 0)
(-0.40084 -0.780776 0)
(-0.0175303 -0.702326 0)
(-0.392022 -0.748966 -1.41333e-16)
(0.0149633 -0.700217 1.46745e-16)
(-0.420507 -0.793808 -2.68464e-16)
(-0.0320867 -0.706786 0)
(-0.0555529 -0.653165 -1.93075e-16)
(0.239228 -0.587518 1.7265e-16)
(-0.00612016 -0.880459 0)
(-0.388591 -0.669366 0)
(0.139537 -0.643785 -3.65916e-16)
(-0.147319 -0.166055 -9.34893e-16)
(-0.0961069 -0.812297 3.72771e-17)
(0.0997865 -0.252007 -3.53006e-16)
(-0.0114771 -0.876086 -2.12645e-16)
(0.420822 -0.599706 -1.69404e-16)
(-0.109227 -0.264012 3.02005e-16)
(0.14773 -0.162664 0)
(-0.0746524 -0.794769 3.09504e-16)
(0.34664 -0.711185 -1.87725e-17)
(0.022362 -0.833337 -3.73802e-17)
(-0.0246932 -0.268201 -2.23329e-16)
(-0.0648622 -0.0776984 -5.39972e-16)
(-0.0656659 -0.764048 -4.37532e-17)
(0.00763974 -0.863384 4.29609e-16)
(0.387436 -0.733321 -1.32489e-19)
(0.338782 -0.728279 2.94614e-16)
(0.0550168 -0.0592918 5.67938e-16)
(0.291374 -0.366504 -1.92315e-16)
(0.341306 -0.409064 5.34806e-17)
(-0.0159287 -0.84507 0)
(0.020405 -0.868058 4.13831e-16)
(-0.534985 -0.671718 0)
(0.0103923 -0.868365 4.08946e-16)
(-0.0616837 -0.796143 -3.00529e-16)
(0.246154 -0.563961 -1.91866e-16)
(0.0126953 -0.843463 -1.64835e-16)
(0.00145492 -0.441976 5.61011e-16)
(-0.0334579 -0.71797 1.64698e-16)
(-0.586875 -0.81753 -2.495e-16)
(-0.00157076 -0.442087 0)
(-0.570256 -0.715126 -5.0103e-17)
(0.350435 -0.733247 1.87479e-17)
(0.074332 -0.793442 -3.11175e-16)
(-0.0520258 -0.790024 0)
(-0.102488 -0.254605 6.28702e-16)
(-0.0343689 -0.753774 -1.59475e-16)
(-0.366253 -0.764774 3.1615e-16)
(-0.0233599 -0.729708 -2.93425e-16)
(0.0225076 -0.730878 7.31437e-17)
(0.41244 -0.778662 1.49844e-16)
(-0.035015 -0.818087 -7.60833e-17)
(0.200508 -0.468575 4.20165e-16)
(0.0360746 -0.832062 0)
(-0.473162 -0.654479 9.46902e-17)
(-0.0745967 -0.797866 1.27464e-16)
(-0.226884 -0.504861 -1.82644e-16)
(0.0547883 -0.796661 -7.89403e-17)
(-0.218539 -0.495205 -1.95271e-16)
(-0.0783258 -0.773203 -1.2575e-16)
(0.0312048 -0.770898 3.59219e-17)
(0.282117 -0.619584 0)
(0.0320427 -0.695012 9.48974e-17)
(-0.265578 -0.562254 1.08426e-16)
(-0.293705 -0.627658 -4.02497e-16)
(-0.00184383 -0.445277 0)
(0.394469 -0.75523 -1.51177e-16)
(0.268329 -0.556691 -2.09956e-16)
(0.00701348 -0.714949 2.68902e-16)
(0.0791009 -0.77012 -1.5593e-16)
(-0.00627834 -0.867082 -7.14342e-17)
(0.196786 -0.498412 -3.38949e-16)
(-0.00432347 -0.876812 -3.55434e-16)
(0.19724 -0.456649 2.78121e-17)
(0.314275 -0.668818 -1.81343e-16)
(0.0334344 -0.817981 0)
(0.0133079 -0.741971 4.47675e-17)
(0.056534 -0.745011 -2.29631e-17)
(0.584342 -0.753585 6.9816e-17)
(-0.0352416 -0.724153 1.81659e-16)
(0.385945 -0.548875 5.91603e-17)
(0.420125 -0.783276 1.56798e-16)
(-0.0373551 -0.48102 6.95168e-16)
(0.0236512 -0.842043 1.52045e-16)
(0.154842 -0.766519 1.65573e-16)
(-0.171215 -0.231664 0)
(0.00305062 -0.621856 -2.0671e-16)
(-0.272128 -0.592826 1.958e-16)
(-0.338827 -0.404641 2.00914e-16)
(-0.0504202 -0.701884 1.91675e-16)
(0.0518851 -0.70496 -1.87009e-16)
(0.100688 -0.785448 0)
(0.170255 -0.243276 -6.78241e-16)
(0.242761 -0.538454 -2.58403e-16)
(0.0916297 -0.722782 0)
(-0.0279176 -0.844941 -1.54694e-16)
(-0.0076398 -0.72697 3.58788e-17)
(-0.34958 -0.616943 1.6528e-16)
(0.654435 -0.76479 -2.25535e-16)
(0.243078 -0.55137 -1.26903e-17)
(0.488047 -0.56698 1.67412e-16)
(-0.392108 -0.747236 -3.80967e-16)
(0.317646 -0.687854 0)
(-0.571668 -0.761816 0)
(0.314531 -0.589671 0)
(-0.0392854 -0.854243 1.47927e-16)
(0.518103 -0.73807 0)
(0.00441706 -0.874038 -2.52753e-16)
(0.0294903 -0.831766 1.69185e-16)
(-0.0623564 -0.794955 -4.75193e-17)
(-0.058828 -0.777579 -1.89875e-16)
(-0.374927 -0.541515 1.17946e-16)
(0.207028 -0.461486 1.03982e-19)
(-0.0956885 -0.788756 -4.5113e-17)
(0.0939157 -0.784785 5.45231e-16)
(0.00317566 -0.803535 -8.3043e-17)
(0.031106 -0.713408 -9.02637e-20)
(-0.0662891 -0.830952 -3.693e-17)
(-0.0828098 -0.76565 4.65514e-17)
(0.0794986 -0.761503 -2.95199e-16)
(-0.348183 -0.732377 0)
(-0.40334 -0.618321 0)
(0.4317 -0.50134 -2.27503e-16)
(-0.075818 -0.815914 0)
(-0.4861 -0.654493 -8.38651e-17)
(-0.00390712 -0.812437 0)
(-0.502985 -0.631108 2.40185e-17)
(-0.410508 -0.49462 2.08728e-16)
)
;

boundaryField
{
    front
    {
        type            empty;
    }
    back
    {
        type            empty;
    }
    bottom
    {
        type            zeroGradient;
    }
    left
    {
        type            noSlip;
    }
    top
    {
        type            uniformFixedValue;
        uniformValue    
        {
            type            scale;
            scale           
            {
                type            squarePulse;
                start           0.3;
                duration        0.3;
            }
            xScale          
            {
                type            constant;
                value           1;
            }
            value           
            {
                type            constant;
                value           (0 -0.7 0);
            }
        }
        value           uniform (0 -0.7 0);
    }
    right
    {
        type            noSlip;
    }
    inner_arc
    {
        type            noSlip;
    }
}


// ************************************************************************* //
