/*--------------------------------*- C++ -*----------------------------------*\
  =========                 |
  \\      /  F ield         | OpenFOAM: The Open Source CFD Toolbox
   \\    /   O peration     | Website:  https://openfoam.org
    \\  /    A nd           | Version:  9
     \\/     M anipulation  |
\*---------------------------------------------------------------------------*/
FoamFile
{
    format      ascii;
    class       volScalarField;
    location    "1";
    object      p;
}
// * * * * * * * * * * * * * * * * * * * * * * * * * * * * * * * * * * * * * //

dimensions      [0 2 -2 0 0 0 0];

internalField   nonuniform List<scalar> 
578
(
8.98378e-22
8.47664e-22
-3.94941e-22
1.41361e-21
-9.56773e-24
1.63029e-21
8.19958e-22
-8.12494e-23
4.38887e-22
6.18133e-22
1.49693e-21
3.00218e-23
1.41451e-21
1.43813e-22
9.01088e-22
1.10396e-21
9.87448e-22
7.50147e-22
9.64441e-23
5.84777e-22
1.424e-21
1.1646e-21
1.42805e-21
1.47943e-21
1.49465e-21
-5.55879e-23
1.37904e-21
1.3404e-21
7.93557e-22
1.07648e-21
1.37162e-21
1.67445e-21
8.48769e-22
1.41432e-21
7.70396e-22
7.89817e-22
1.26898e-22
-1.16368e-22
7.35156e-22
-1.73211e-22
1.04277e-22
2.89528e-23
-2.00365e-22
9.79108e-22
9.37924e-22
8.79818e-22
8.55394e-22
4.39527e-22
-1.4951e-23
1.38638e-21
1.84147e-21
1.43018e-21
1.95005e-21
1.41901e-21
1.40237e-21
1.1285e-21
1.35755e-21
1.26791e-21
8.85954e-22
6.76352e-22
-3.34102e-22
7.75395e-22
1.71101e-21
1.39306e-22
1.39903e-21
8.34581e-22
8.57495e-22
1.5357e-21
1.37115e-21
1.13778e-23
1.44538e-21
1.68266e-21
1.41408e-21
8.19885e-23
1.49297e-21
1.39713e-22
3.0725e-22
4.17565e-22
1.41653e-21
1.13783e-21
1.66353e-21
2.01913e-21
1.8711e-21
1.8368e-21
1.42268e-21
2.53531e-22
1.95845e-21
1.2031e-21
1.05045e-22
3.07611e-22
1.38779e-21
7.34566e-22
5.59333e-22
1.41611e-21
1.42266e-21
1.58763e-21
1.41181e-21
1.41782e-21
1.35469e-22
7.93322e-22
5.86268e-22
-4.67139e-23
1.39291e-21
7.19071e-22
1.3896e-21
-3.08363e-23
1.5136e-21
9.0293e-23
3.13103e-22
2.44193e-22
7.39469e-22
-6.6362e-23
5.89153e-22
1.52997e-21
1.56717e-21
1.40848e-21
1.43181e-21
1.08445e-21
3.27239e-22
1.40377e-21
-5.5253e-23
2.11939e-21
-3.90562e-23
1.40225e-21
1.71795e-21
1.80013e-22
1.5994e-21
1.12192e-21
5.13669e-22
3.37878e-23
4.44205e-22
1.43212e-22
1.42756e-21
-1.2899e-22
3.94552e-22
9.88336e-22
-5.47879e-23
1.41827e-21
1.44019e-21
4.62914e-22
4.56604e-22
7.83583e-23
4.5486e-22
1.23077e-21
-1.48755e-22
1.79858e-21
1.19606e-22
1.37846e-21
-3.52265e-23
-1.19606e-23
2.93177e-22
1.5896e-21
3.20197e-22
-1.40696e-22
7.75248e-22
1.38267e-21
1.0586e-21
1.428e-21
1.27856e-21
3.36765e-22
2.95765e-22
3.48809e-22
4.62515e-22
3.01191e-22
1.20505e-21
9.38105e-23
1.20378e-21
8.11875e-22
1.4573e-21
1.38895e-21
3.92117e-22
-7.76941e-23
9.11668e-22
2.46671e-22
7.24868e-22
1.4032e-21
1.40372e-21
1.68371e-21
3.30419e-22
1.01019e-21
8.09889e-22
1.00052e-21
2.01257e-22
1.40733e-21
1.11182e-21
1.39424e-21
1.0487e-21
7.09105e-22
9.13029e-22
8.60519e-22
1.07751e-22
2.03641e-22
1.34912e-21
7.88204e-22
1.56045e-21
1.39234e-21
1.46033e-21
1.36801e-21
7.4708e-22
7.65812e-23
1.44438e-21
1.41369e-21
2.16499e-21
1.40114e-21
1.39437e-21
2.82304e-25
9.42977e-22
2.62719e-21
1.94201e-22
1.6514e-21
5.75005e-23
9.46619e-22
3.58455e-22
1.40323e-21
3.91353e-22
1.39578e-21
9.28785e-22
1.25228e-22
7.86936e-22
1.27741e-22
4.48586e-23
6.00618e-22
-4.3768e-23
1.67014e-22
7.31254e-22
1.91581e-22
1.3829e-21
1.47058e-21
1.38858e-21
1.13465e-21
1.556e-21
2.15255e-21
3.11278e-22
-1.56733e-22
1.47089e-22
4.55974e-22
1.08828e-22
3.9864e-22
1.43171e-21
1.89642e-23
5.99501e-22
-1.06215e-22
1.39923e-21
5.33948e-22
1.3614e-21
-1.0747e-22
4.32389e-22
3.19246e-22
1.64712e-21
1.38931e-21
1.40611e-21
2.63473e-22
1.72078e-21
9.59424e-23
1.73e-21
-1.94874e-23
1.19609e-21
8.64827e-22
3.06128e-22
2.05328e-21
-9.71717e-23
9.73224e-22
1.45904e-21
1.45914e-21
9.35528e-22
-5.37474e-23
1.74109e-22
-3.20634e-23
5.39586e-22
1.92965e-22
-1.28413e-22
1.4008e-22
1.37086e-22
1.37822e-21
1.4105e-21
1.38753e-21
1.3805e-21
6.58587e-23
4.11145e-22
1.39674e-21
3.10452e-23
1.39234e-21
1.36755e-21
1.39072e-21
1.39429e-21
3.78882e-22
-1.03129e-22
1.69238e-22
1.42999e-21
1.41693e-21
1.12802e-22
2.69143e-22
1.38439e-21
2.70062e-22
1.42469e-21
1.44585e-21
-1.55409e-24
-5.08585e-24
1.33475e-21
1.44076e-21
1.41364e-21
-5.97503e-23
1.40888e-21
1.25986e-21
1.43612e-21
1.383e-21
8.74641e-23
1.12586e-21
1.37365e-21
1.38106e-21
-1.38427e-23
1.30583e-21
1.35107e-21
-6.49322e-23
1.39826e-21
1.37677e-21
2.24459e-22
-5.40115e-23
-1.11439e-22
1.41717e-21
2.52672e-22
1.36305e-21
1.39599e-21
1.43037e-21
1.39521e-21
1.33483e-21
1.05953e-21
5.2142e-22
-9.08666e-24
1.33201e-21
1.40822e-21
5.32196e-22
1.36683e-21
1.36006e-21
3.28528e-22
1.41672e-21
1.40117e-21
1.36761e-21
1.23628e-21
1.39091e-21
1.38369e-21
1.40701e-21
1.31748e-21
1.21355e-21
1.3641e-21
1.65296e-21
1.4657e-21
4.05659e-22
-1.22202e-23
5.53651e-22
2.02185e-24
-6.25968e-24
7.01712e-22
1.20563e-21
6.90506e-23
1.02802e-21
1.38704e-21
1.42841e-21
1.98813e-22
4.73435e-22
1.29944e-21
1.02456e-21
1.38734e-21
-2.61436e-23
1.34535e-21
1.21449e-21
1.3314e-21
1.62591e-21
1.40531e-21
2.97877e-21
-3.3317e-23
6.91241e-22
3.34636e-21
1.5087e-21
2.62747e-21
2.0275e-21
1.37779e-21
5.02165e-22
-5.52414e-23
1.40889e-21
1.40709e-21
-9.97588e-24
6.38516e-22
1.37374e-21
1.40711e-21
1.21267e-21
1.24669e-21
1.07797e-21
1.46053e-21
-3.01494e-23
1.40411e-21
1.28865e-21
1.37923e-21
1.14641e-23
1.37168e-21
1.27758e-21
1.7123e-21
1.27037e-21
1.26751e-21
1.51292e-21
3.0215e-21
1.63951e-21
1.24849e-21
8.84557e-22
1.40268e-21
1.23064e-21
1.56456e-21
1.5209e-21
1.46157e-21
1.53121e-21
1.10827e-21
1.22659e-21
1.16396e-21
1.96386e-22
1.84434e-21
1.4533e-21
8.92931e-23
5.85572e-22
-4.95511e-23
1.38442e-21
5.13629e-22
1.57888e-21
4.7282e-23
7.32336e-22
3.12305e-22
-4.83192e-24
-3.04588e-22
1.03748e-21
-2.77047e-22
-3.09294e-23
3.72752e-22
1.43678e-21
1.16644e-21
1.4106e-21
2.71762e-22
-1.34184e-23
-3.10182e-23
1.47512e-21
-1.69938e-22
1.31012e-21
1.61525e-21
1.40862e-21
1.4458e-21
1.33882e-21
3.20819e-22
1.13778e-21
1.34429e-21
9.56444e-22
1.44007e-21
1.37176e-21
5.17743e-22
1.40004e-21
6.52876e-22
1.42789e-21
6.85799e-22
1.38381e-21
6.97769e-22
1.39879e-21
1.43434e-21
-1.75214e-22
1.93312e-21
1.1608e-21
8.50756e-22
-5.47965e-23
1.27541e-21
4.82656e-22
2.52062e-22
3.13452e-22
9.34404e-22
-4.09156e-23
1.3034e-21
1.35576e-21
1.78785e-21
1.39291e-21
1.24067e-21
8.32197e-23
-6.05613e-23
5.3758e-22
8.00669e-22
5.82687e-22
1.47334e-21
1.50022e-21
-7.65095e-22
1.30507e-21
1.39081e-21
-6.95225e-23
1.21303e-21
1.39027e-21
1.40413e-21
-8.29171e-23
1.43327e-21
6.63234e-22
1.00574e-23
1.43858e-21
1.37892e-21
3.50296e-22
1.39666e-21
3.86746e-22
1.3997e-21
1.4406e-21
-4.49969e-23
1.06616e-21
-2.48683e-23
1.39435e-21
-4.91319e-22
1.39224e-21
4.56917e-22
1.43522e-21
2.31324e-22
1.39369e-21
1.34188e-21
1.69933e-21
1.41235e-21
8.56885e-22
5.50857e-22
1.36374e-21
4.29076e-23
-1.59802e-22
1.58405e-21
1.42118e-21
1.47532e-21
1.53848e-21
1.2533e-21
-1.77342e-23
-7.18646e-24
1.38102e-21
1.29832e-21
1.45524e-21
4.65856e-22
9.20766e-22
4.44866e-22
2.15273e-23
1.36322e-21
1.35105e-21
1.65327e-21
1.70204e-21
1.59779e-21
3.95519e-22
3.47273e-22
1.39564e-21
1.44605e-21
1.61253e-21
6.25395e-22
4.43597e-23
1.7041e-21
1.43093e-21
1.52631e-21
2.02031e-22
7.28909e-22
-3.77622e-23
1.54162e-21
6.24872e-22
-1.38564e-23
-2.52082e-22
1.55536e-21
1.13369e-21
3.53766e-22
1.30562e-21
1.37766e-21
1.37429e-21
1.40887e-21
-2.65136e-22
-5.68646e-24
1.38631e-21
1.43414e-21
1.547e-21
1.4366e-21
1.00931e-21
1.39174e-21
1.42631e-21
4.25147e-22
-4.40857e-22
1.61618e-21
9.07484e-22
-9.47742e-22
1.47822e-21
6.03098e-22
2.6621e-22
)
;

boundaryField
{
    front
    {
        type            empty;
    }
    back
    {
        type            empty;
    }
    bottom
    {
        type            uniformFixedValue;
        uniformValue    
        {
            type            scale;
            scale           
            {
                type            squarePulse;
                start           0.3;
                duration        0.3;
            }
            xScale          
            {
                type            constant;
                value           1;
            }
            value           
            {
                type            constant;
                value           15.1;
            }
        }
        value           uniform 0;
    }
    left
    {
        type            zeroGradient;
    }
    top
    {
        type            zeroGradient;
    }
    right
    {
        type            zeroGradient;
    }
    inner_arc
    {
        type            zeroGradient;
    }
}


// ************************************************************************* //
