/*--------------------------------*- C++ -*----------------------------------*\
  =========                 |
  \\      /  F ield         | OpenFOAM: The Open Source CFD Toolbox
   \\    /   O peration     | Website:  https://openfoam.org
    \\  /    A nd           | Version:  9
     \\/     M anipulation  |
\*---------------------------------------------------------------------------*/
FoamFile
{
    format      ascii;
    class       surfaceScalarField;
    location    "1";
    object      phi;
}
// * * * * * * * * * * * * * * * * * * * * * * * * * * * * * * * * * * * * * //

dimensions      [0 3 -1 0 0 0 0];

internalField   nonuniform List<scalar> 
816
(
2.01469e-28
1.67495e-28
-3.57236e-28
-1.22582e-28
4.32864e-28
-2.85832e-28
-5.49487e-28
5.52058e-28
6.06155e-29
-6.65881e-29
5.74391e-30
4.45355e-28
-4.44846e-28
-8.65168e-29
2.36115e-28
-1.49643e-28
-2.82383e-28
2.78676e-28
-3.92421e-28
3.92786e-28
-9.11189e-28
-4.85918e-30
9.15817e-28
1.12589e-28
-2.47062e-28
3.32152e-28
-4.09081e-28
1.02794e-27
-7.50956e-28
-2.76661e-28
8.64133e-30
1.66659e-30
-1.02107e-29
1.04062e-27
-9.36121e-28
-1.04123e-28
-6.53373e-28
5.75873e-28
7.43976e-29
-7.76644e-28
1.28029e-27
-5.0526e-28
-3.48258e-28
-5.25115e-29
4.20429e-28
7.64349e-28
-1.85561e-28
-6.3244e-28
1.21907e-28
9.07439e-28
4.32708e-28
-1.34188e-27
7.96293e-29
-1.29463e-29
9.72046e-29
-8.70068e-28
4.80193e-28
-1.81755e-28
-3.00167e-28
4.46176e-29
3.15263e-29
-7.57027e-29
7.0351e-29
-1.71971e-29
-8.36951e-28
2.01064e-28
6.36162e-28
2.17013e-29
-1.13889e-29
-1.00486e-29
1.53976e-29
-1.9014e-29
3.22827e-30
2.43871e-28
1.49099e-28
4.45852e-28
8.42218e-28
2.98973e-29
-9.24646e-30
2.31897e-31
2.41728e-28
1.36225e-27
-9.19684e-28
7.41949e-29
-7.15333e-29
-2.84673e-30
-7.1235e-29
-5.93657e-28
-2.17257e-28
1.06151e-27
9.92825e-29
9.40805e-28
-1.19277e-28
-7.19454e-28
1.02142e-27
-3.19528e-28
-6.67808e-28
2.77314e-28
1.62748e-28
-3.46612e-28
-2.70142e-28
2.68098e-28
6.10603e-28
-1.13069e-29
-4.79566e-28
-2.2572e-28
7.01274e-28
-1.65533e-28
-1.13679e-28
2.11959e-28
8.4992e-28
-8.54216e-28
4.41442e-28
-4.72449e-30
3.11832e-29
-3.18846e-29
7.68178e-30
2.52039e-29
1.91541e-29
-5.51965e-30
3.76128e-28
1.28803e-28
6.28298e-29
1.73504e-29
-2.66441e-30
2.68072e-30
2.53421e-28
-1.64568e-28
-8.67474e-29
-1.87066e-28
-4.7406e-28
-6.15617e-28
2.74338e-28
3.73592e-28
-5.91291e-28
-8.90911e-29
1.24731e-28
-2.05012e-28
-3.37502e-28
2.98167e-28
-2.75843e-29
-9.10792e-28
5.22567e-30
-1.95518e-29
1.43658e-29
6.3344e-28
-2.65806e-30
8.77902e-28
4.89942e-28
-2.37191e-28
5.73509e-28
-3.86577e-28
1.13504e-27
-7.49016e-28
2.03403e-28
7.40339e-28
-9.42792e-28
7.13389e-30
-2.11663e-29
1.8551e-29
-8.07971e-30
7.60457e-28
3.87089e-28
-1.14495e-27
1.92962e-28
-1.16652e-28
-7.63033e-29
3.74498e-28
-3.74458e-28
-5.47381e-28
9.77851e-28
-7.40264e-28
1.91942e-28
2.78123e-29
-7.25682e-29
-1.96678e-28
2.3137e-28
-7.35231e-28
-2.40648e-28
9.76238e-28
3.30209e-28
3.23946e-28
-3.24289e-28
-4.82304e-28
4.82759e-28
-2.55574e-28
6.13397e-28
-2.8051e-28
1.58638e-28
4.98952e-29
1.81641e-29
1.2647e-28
1.34049e-28
-1.59963e-29
-7.41871e-28
7.59507e-28
3.93827e-28
1.36435e-29
-4.07186e-28
2.53904e-29
1.54197e-28
-5.04097e-28
1.04923e-29
5.02027e-28
-5.12703e-28
3.43944e-29
-8.01543e-30
-2.63142e-29
-8.8424e-28
-5.14045e-30
7.89905e-28
-7.85931e-28
-4.54884e-30
7.31891e-31
4.0598e-29
5.48809e-29
-6.50829e-28
-7.98459e-29
6.85736e-28
-6.45728e-28
8.47205e-28
-7.95751e-30
2.20552e-29
-1.41744e-29
-4.2777e-28
2.62241e-30
-2.6479e-30
-1.42635e-28
1.07929e-27
5.39356e-29
3.45969e-28
1.59863e-28
-3.54707e-29
-3.41351e-28
4.65351e-28
5.9814e-28
9.39176e-28
8.78735e-28
-1.09716e-27
2.17678e-28
5.90108e-30
-9.70771e-30
-3.12243e-29
-2.95625e-29
2.74279e-28
3.68857e-28
-6.07283e-28
-1.03798e-29
4.04703e-28
3.69784e-30
1.90117e-30
-3.65569e-29
6.72284e-28
-5.38417e-28
6.56239e-29
1.85992e-28
8.00258e-29
1.9294e-30
-2.07073e-28
-5.1248e-28
5.52442e-28
-4.05564e-29
-1.80661e-28
-5.50798e-28
5.27437e-28
-3.73377e-28
-1.54376e-28
4.81069e-28
1.01519e-28
-5.773e-28
-4.39249e-30
5.82128e-28
-5.88312e-28
7.70183e-29
-1.26904e-30
4.061e-29
-2.28037e-28
2.28234e-28
-5.26708e-28
-4.70833e-29
4.75621e-30
5.52637e-28
-5.47121e-28
-1.69557e-29
-7.35784e-28
-6.87091e-28
-4.06294e-28
-4.05853e-28
4.02082e-28
-4.74954e-30
1.46645e-28
-1.4166e-28
-1.07507e-28
-4.01765e-28
8.64777e-30
1.60284e-28
-1.69358e-28
-2.67934e-28
-7.17809e-29
-5.09698e-28
-5.21975e-29
-3.06418e-28
3.58134e-28
-4.21225e-30
-2.43551e-30
6.54432e-30
5.20337e-28
-4.19403e-28
-1.04608e-27
-3.00605e-29
1.07694e-27
6.7993e-29
-1.10241e-28
3.7386e-28
3.81132e-29
1.89671e-28
6.99703e-29
6.07931e-28
-6.77072e-28
-9.59332e-30
7.20827e-30
-2.46222e-28
4.92077e-28
-4.78722e-30
1.97819e-29
-1.51272e-29
-1.89452e-28
9.81772e-29
-1.14503e-27
-8.1457e-28
1.42363e-28
-8.25602e-28
7.94818e-28
-7.95741e-29
8.13722e-29
4.68794e-28
-7.7328e-29
-4.1433e-28
5.01712e-28
-4.2902e-30
4.89542e-30
4.21113e-29
-1.09243e-29
-3.08977e-29
-7.66367e-29
-7.49257e-28
2.71099e-28
-2.88302e-28
1.39e-28
-1.45026e-28
-1.28154e-29
1.24224e-28
-1.10927e-28
6.35297e-30
-4.21297e-28
3.6152e-29
-1.68556e-29
1.38031e-29
2.51019e-29
6.89196e-28
-4.26506e-28
3.4878e-28
-3.49141e-29
-8.60782e-29
1.2283e-28
-1.43944e-28
1.59901e-28
-2.23684e-28
5.84916e-28
-3.42852e-28
-3.78396e-28
4.29057e-28
4.43516e-29
6.76168e-29
5.20476e-28
-1.41933e-31
-5.90884e-28
2.52317e-28
2.76259e-28
6.3025e-28
3.65116e-29
-6.5793e-28
-9.46553e-29
6.27927e-29
-9.68763e-28
-5.85218e-29
1.02734e-27
8.27838e-28
-3.23788e-29
4.754e-28
2.29187e-29
1.68409e-28
-6.46955e-29
2.81919e-29
3.66036e-29
-1.23043e-29
1.59612e-29
-3.51415e-30
-3.86686e-30
-3.45857e-30
5.05225e-28
-5.48867e-28
4.71668e-29
7.8947e-28
-7.66032e-28
-2.26183e-29
-1.60932e-30
4.18879e-29
-1.15536e-28
-1.98472e-28
-1.30712e-29
5.67606e-29
-2.89855e-29
4.8943e-29
-4.28856e-29
3.76113e-28
1.84635e-29
-3.24237e-28
7.13616e-28
2.24888e-29
-5.47755e-28
4.25743e-29
1.69776e-29
-3.76161e-28
9.05781e-29
-7.40598e-30
-9.32515e-29
1.11705e-28
8.82268e-28
-3.8956e-28
-3.77609e-29
-5.44223e-28
5.82647e-28
3.1405e-28
-3.48211e-28
2.221e-28
-1.98935e-28
3.45936e-28
-9.30455e-29
5.82099e-29
3.48665e-29
-7.50746e-29
-1.06496e-28
1.25825e-28
-1.8686e-28
-6.26205e-28
-4.26936e-28
3.14254e-28
1.94042e-28
1.0096e-31
-3.88214e-29
5.1593e-28
-4.7728e-28
-1.52909e-28
-5.51293e-29
-1.32942e-29
-1.25432e-30
-1.36833e-28
-5.06448e-29
7.05582e-29
1.98472e-28
-2.34305e-29
6.55173e-29
-4.19559e-29
8.68252e-29
4.19539e-29
5.11145e-28
7.96593e-29
1.6575e-28
4.82694e-29
-1.49995e-28
1.01377e-28
3.22988e-29
7.47312e-28
-9.33789e-28
1.74968e-29
-7.19736e-28
7.27716e-28
1.49773e-28
-1.89153e-28
2.07598e-29
3.16288e-29
2.62398e-28
1.28283e-28
-3.87498e-28
6.51609e-29
5.45319e-28
1.28293e-28
-5.58755e-29
1.189e-28
6.17533e-29
-7.10673e-29
1.80626e-29
2.53194e-29
-4.40291e-29
-9.16711e-29
2.15406e-28
6.29717e-29
-3.30894e-29
-2.9813e-29
2.89938e-28
2.06107e-30
1.96948e-29
1.02021e-28
1.52275e-29
7.15788e-29
8.86434e-29
-9.15638e-30
2.87289e-29
-2.88758e-29
3.88322e-29
-6.35158e-28
-5.06131e-28
5.01654e-29
-5.57172e-29
-3.95881e-29
3.99074e-29
-3.14144e-29
-1.80617e-28
-7.91128e-29
7.60523e-29
1.90283e-30
6.76715e-29
-2.29297e-29
6.98983e-29
3.87515e-29
-8.15119e-28
-2.05911e-28
1.27816e-28
-6.15676e-29
-2.76007e-29
8.91868e-29
3.21605e-29
1.04466e-28
-6.16829e-29
1.71147e-28
-1.09918e-28
-1.13559e-28
5.58075e-29
-2.53972e-28
-3.53801e-29
1.27753e-29
1.28005e-28
-1.05597e-28
3.91161e-29
-2.61074e-29
-5.72052e-29
3.85296e-28
1.37113e-28
2.03841e-30
1.11892e-29
-1.33249e-29
-3.91788e-29
1.57336e-28
-2.0307e-29
9.30307e-28
1.29557e-29
1.47974e-28
1.20475e-29
7.45777e-28
-1.46574e-28
1.29666e-28
2.36453e-29
-7.92545e-29
9.74272e-29
-1.42612e-29
1.81726e-28
-1.51968e-29
-1.17476e-28
1.42311e-29
1.67256e-28
8.86589e-30
8.12741e-29
3.20324e-28
-8.36044e-28
5.18938e-28
1.35985e-28
-1.36348e-28
-2.19468e-28
2.20068e-28
-1.47508e-28
1.47855e-28
2.56226e-28
-2.55975e-28
2.75955e-28
-1.6251e-28
3.51533e-29
-1.97976e-28
1.63137e-28
2.13299e-28
-2.78751e-29
1.08768e-28
-1.88575e-28
2.27461e-28
-3.42886e-28
-2.94332e-28
2.75261e-28
-1.84415e-28
4.60827e-28
-2.74664e-28
1.25008e-28
-1.45387e-28
-1.38299e-28
2.85916e-28
-2.26851e-28
2.26951e-28
-2.43318e-28
7.40649e-28
-5.11344e-28
-3.09292e-28
-9.15657e-28
-1.40822e-29
-2.77017e-28
-3.70325e-28
7.5564e-28
2.16116e-28
-5.88333e-28
6.47065e-28
3.80322e-28
-2.72993e-29
-8.44956e-30
3.53853e-29
4.74892e-28
-1.02593e-29
-2.55075e-28
-3.59605e-28
6.17426e-28
2.2187e-28
-5.9408e-28
-6.66691e-29
-8.50787e-30
7.50652e-31
-3.98054e-28
-4.41506e-28
3.587e-28
-7.10824e-28
-1.10851e-27
5.47404e-28
-2.41559e-28
-3.87178e-28
6.25521e-28
-9.05216e-29
-1.61381e-28
-6.33538e-30
1.66538e-28
-6.82254e-28
-4.08889e-29
3.59037e-29
-3.70783e-30
-7.08997e-29
2.1139e-28
-1.97512e-30
2.36943e-30
1.3668e-28
-6.39753e-28
-8.33278e-28
6.03982e-28
-5.94094e-28
3.94873e-28
-7.59192e-28
1.71473e-28
6.60848e-28
3.9004e-28
1.63213e-28
-1.54938e-28
-5.87303e-28
1.57765e-28
3.45018e-28
-4.21214e-28
-7.2702e-28
7.52678e-30
1.53303e-28
-5.23105e-28
-7.00339e-28
4.15745e-28
5.26648e-28
7.5316e-28
-9.06653e-28
1.54179e-28
-2.82053e-28
-1.09014e-28
-1.44719e-28
6.45838e-29
-2.83255e-28
-1.81106e-28
-7.63024e-28
-1.1154e-28
8.17288e-28
1.7913e-28
3.02521e-28
4.05607e-28
-2.44655e-30
3.15158e-30
-1.44209e-28
1.43799e-28
7.63024e-28
1.77109e-28
3.87241e-28
4.58313e-28
-7.35847e-28
-6.52528e-28
2.12473e-29
9.05503e-29
2.56481e-29
1.18591e-28
-1.67879e-28
5.04419e-29
-6.4344e-31
1.58022e-28
-4.3696e-28
1.30743e-28
-6.29663e-28
5.66822e-28
-4.85258e-29
-1.46265e-29
4.30616e-28
2.5402e-31
-2.35892e-28
1.38646e-33
-3.97101e-28
4.64017e-29
-2.6261e-29
1.96223e-29
-3.50362e-28
8.78054e-28
4.07651e-29
-4.50104e-28
-2.57344e-28
-3.71064e-28
-2.54665e-28
5.89387e-29
4.56012e-28
4.15638e-30
-5.62151e-29
-1.79165e-28
2.30048e-28
1.62956e-29
2.31479e-28
1.40141e-28
4.43324e-28
8.9121e-28
3.39043e-29
-1.89055e-28
7.39968e-30
-1.75697e-28
5.65987e-30
5.32079e-30
-1.51434e-28
-4.50283e-29
6.54517e-28
4.27039e-28
-7.32153e-28
2.32452e-28
3.02283e-28
5.51119e-29
7.3237e-28
1.47842e-28
1.70458e-29
-5.82176e-28
-7.91779e-31
7.92677e-31
-2.63514e-30
5.96528e-28
-4.87989e-31
4.82506e-31
5.0395e-28
-9.56191e-30
-1.9637e-29
4.79486e-28
1.19581e-30
1.81553e-30
8.81793e-28
-2.29151e-28
-6.38213e-28
1.07741e-28
-5.44103e-28
-3.44246e-30
1.06156e-29
3.539e-28
-3.62607e-28
-4.09732e-30
-7.40935e-29
-9.02659e-29
3.22914e-29
-5.48331e-29
-5.2026e-30
-4.40667e-30
3.25078e-29
-5.33459e-28
5.24917e-28
1.0932e-28
1.02217e-28
4.00533e-29
-8.95569e-28
-3.70798e-28
3.59874e-29
4.32815e-29
5.12722e-28
2.66608e-30
1.16085e-30
2.02447e-28
-4.2309e-28
-3.373e-29
-6.18501e-28
-1.14544e-28
-6.10982e-28
-1.28239e-29
4.7921e-28
-2.94525e-28
-2.66466e-30
-1.45713e-30
-1.81055e-30
1.65813e-30
-2.84551e-28
-9.35224e-29
-4.11629e-29
)
;

boundaryField
{
    front
    {
        type            empty;
        value           nonuniform List<scalar> 0();
    }
    back
    {
        type            empty;
        value           nonuniform List<scalar> 0();
    }
    bottom
    {
        type            calculated;
        value           nonuniform List<scalar> 
12
(
-2.03379e-28
-5.81965e-28
8.09773e-28
-4.82331e-28
4.39881e-28
1.04761e-28
-6.7676e-29
7.65119e-28
9.26853e-28
-4.906e-28
-2.83373e-28
3.85431e-28
)
;
    }
    left
    {
        type            calculated;
        value           uniform 0;
    }
    top
    {
        type            calculated;
        value           uniform 0;
    }
    right
    {
        type            calculated;
        value           uniform 0;
    }
    inner_arc
    {
        type            calculated;
        value           uniform 0;
    }
}


// ************************************************************************* //
