/*--------------------------------*- C++ -*----------------------------------*\
  =========                 |
  \\      /  F ield         | OpenFOAM: The Open Source CFD Toolbox
   \\    /   O peration     | Website:  https://openfoam.org
    \\  /    A nd           | Version:  9
     \\/     M anipulation  |
\*---------------------------------------------------------------------------*/
FoamFile
{
    format      ascii;
    class       surfaceScalarField;
    location    "1";
    object      phi;
}
// * * * * * * * * * * * * * * * * * * * * * * * * * * * * * * * * * * * * * //

dimensions      [0 3 -1 0 0 0 0];

internalField   nonuniform List<scalar> 
2377
(
-8.0242e-08
7.91437e-08
1.09824e-09
-3.76503e-08
3.94376e-08
-1.78736e-09
1.50608e-07
-1.20553e-07
-3.00548e-08
1.01421e-07
8.1903e-08
-1.83324e-07
9.25338e-08
7.42576e-08
-1.66791e-07
-1.54506e-07
6.32586e-08
9.12473e-08
5.2227e-08
-3.83314e-08
-1.38956e-08
-1.03818e-07
2.0358e-07
-9.97622e-08
-4.36801e-08
8.27161e-08
-3.90361e-08
-2.72333e-08
-1.23059e-07
1.50292e-07
1.28527e-07
-1.5576e-07
7.3336e-08
3.18645e-09
-7.65224e-08
5.0979e-08
-8.24536e-08
3.14747e-08
4.10383e-08
-1.47686e-07
1.06647e-07
-1.16004e-08
8.49364e-08
-8.00376e-08
-7.44683e-08
-1.23137e-07
7.59348e-10
1.22377e-07
1.84127e-07
-9.15937e-08
2.22476e-07
-2.27664e-07
5.18849e-09
1.46607e-07
-2.38899e-07
9.22918e-08
-9.77116e-10
5.32042e-08
1.42143e-07
1.09888e-07
-2.52031e-07
-2.22446e-07
1.07536e-07
1.14909e-07
-7.88072e-08
-1.43473e-09
4.01513e-08
6.22536e-08
-1.02405e-07
-6.41223e-10
7.97849e-08
-1.07743e-07
-1.53934e-08
6.29701e-08
-2.19319e-08
4.49162e-08
-3.9552e-08
-5.36422e-09
-6.61607e-08
1.09286e-07
-4.31249e-08
3.01742e-08
-2.58952e-08
-4.27894e-09
1.32046e-07
-3.92874e-08
-9.27582e-08
-8.87206e-08
2.25599e-08
2.43221e-08
1.07724e-07
9.93749e-08
-6.66083e-08
-3.27666e-08
-7.00762e-08
2.63961e-08
5.25894e-08
-1.90349e-08
-3.35545e-08
-4.35061e-08
5.85579e-09
1.8426e-07
3.82157e-08
-7.09399e-08
-1.36309e-07
2.07249e-07
1.6372e-08
2.37793e-08
-8.00208e-08
1.21357e-09
4.40013e-08
2.77762e-08
3.07401e-08
8.69757e-09
-7.03396e-08
1.71761e-07
1.10431e-07
-1.63174e-07
5.27437e-08
1.99639e-08
3.26255e-08
-1.12418e-07
1.84252e-07
-7.18344e-08
6.97182e-08
2.96567e-08
1.55726e-07
7.59419e-08
-2.31668e-07
-1.54256e-07
4.18387e-08
9.47219e-08
5.58862e-08
7.92304e-10
-4.3565e-08
4.27727e-08
7.79465e-08
-1.81765e-07
-1.99623e-08
-1.79117e-07
1.99079e-07
-1.65262e-07
6.8171e-08
9.70911e-08
1.60673e-07
-1.80635e-07
-9.34225e-08
-7.18395e-08
-1.09354e-07
1.61099e-09
1.65738e-07
-1.52873e-07
-1.28645e-08
-2.80287e-09
8.5519e-08
-9.63521e-08
9.71458e-08
-7.93758e-10
-8.34345e-10
-6.59959e-08
6.68303e-08
1.23063e-07
8.0517e-08
1.88346e-07
7.84133e-08
-2.66759e-07
7.86232e-08
5.93136e-08
-1.37937e-07
-2.71836e-08
1.73791e-07
1.69995e-07
-1.42693e-08
-9.44124e-09
5.34426e-08
1.71005e-07
-5.01895e-08
-1.20816e-07
3.29843e-08
1.1932e-08
-6.88424e-11
-1.21195e-07
-1.00943e-08
1.21417e-07
-1.11322e-07
1.4143e-07
-1.42265e-07
5.99163e-08
1.11089e-07
-9.93821e-08
-3.08743e-07
3.08743e-07
-1.19049e-07
2.26585e-07
7.71541e-09
1.36112e-07
-1.43828e-07
-1.05046e-07
1.98596e-07
-9.35494e-08
-1.0416e-07
2.46303e-07
-9.03624e-08
1.72265e-07
3.62083e-09
4.73582e-08
3.06595e-07
-1.96707e-07
1.67908e-07
3.15532e-08
-1.99461e-07
-3.61769e-08
-4.62768e-08
7.39191e-08
1.82193e-08
1.19549e-08
-1.89988e-07
1.20898e-07
-1.13183e-07
1.20203e-07
-1.30297e-07
-3.22353e-07
1.36094e-08
-7.75264e-08
1.92873e-08
5.82391e-08
1.15548e-07
-1.60793e-07
1.68522e-07
-7.72879e-09
-7.36881e-08
7.44804e-08
-1.74403e-07
-1.31432e-07
3.38696e-08
-1.5185e-07
1.1798e-07
1.88377e-07
1.2484e-07
5.94118e-08
1.43939e-07
-1.34766e-07
-9.17318e-09
-2.58131e-07
5.90172e-08
1.99114e-07
-5.02032e-08
2.4308e-08
-1.13643e-09
-1.47666e-07
1.48803e-07
2.14285e-07
-8.94445e-08
-8.68586e-08
1.67396e-07
-8.05377e-08
-3.30216e-07
2.02828e-07
1.27388e-07
-1.05177e-07
1.83184e-08
6.81334e-08
-7.15061e-08
3.37275e-09
-9.89746e-08
1.73232e-07
7.28949e-08
-4.76147e-09
-1.03258e-07
-2.03655e-07
2.44817e-07
-4.11621e-08
1.54072e-07
2.15659e-07
-1.46865e-07
-6.8794e-08
-2.41634e-07
6.72308e-08
-2.22032e-07
9.05996e-08
1.35621e-07
-7.88858e-08
-1.89972e-08
9.7883e-08
-8.62336e-08
-2.06249e-09
-1.2293e-08
1.43555e-08
6.5651e-08
-3.20176e-08
-3.36334e-08
-8.8464e-08
2.24589e-07
-1.36125e-07
-1.21757e-07
-1.00275e-07
-9.22402e-08
-4.1119e-09
-1.05875e-07
-1.35758e-07
1.57241e-07
-1.58198e-07
9.5683e-10
6.65937e-08
-6.65937e-08
-9.84433e-08
1.95575e-08
1.78064e-08
1.26133e-07
-3.70158e-08
-2.95925e-08
1.32693e-07
3.7303e-08
1.34976e-07
-2.10419e-08
-5.64845e-08
1.89503e-08
-9.5961e-08
7.70108e-08
1.58845e-07
-1.60372e-09
2.86776e-08
7.8111e-08
-6.92915e-08
3.41208e-07
-2.71917e-07
6.28481e-08
7.6643e-08
3.14197e-09
-7.24259e-08
7.16443e-08
7.81584e-10
-1.40319e-07
5.18547e-08
-2.12603e-08
9.09785e-08
1.58396e-08
-1.63506e-07
-6.21343e-08
2.25822e-08
-7.62623e-09
-1.6433e-07
3.53659e-09
-6.76801e-08
2.50275e-08
4.26527e-08
-5.14667e-08
-2.78749e-07
-6.15493e-08
-9.95684e-09
-7.60898e-08
3.66382e-09
-1.18029e-08
-6.26701e-08
1.17845e-07
-5.51751e-08
9.82246e-08
-1.98517e-09
-9.62394e-08
-1.39756e-07
-9.91433e-08
-2.27143e-08
4.20016e-08
-1.8248e-07
3.56154e-08
1.39361e-07
4.47668e-08
-3.87261e-08
-4.77996e-09
6.0148e-08
3.1106e-09
4.05797e-10
1.55514e-08
-1.59572e-08
-1.35067e-07
-2.2019e-08
-1.65492e-08
3.85682e-08
-9.20819e-08
-1.66049e-07
1.2343e-07
-1.92721e-07
-1.09172e-07
4.65019e-08
-1.60764e-07
2.06391e-07
-4.56264e-08
-2.19241e-08
-5.80967e-08
-9.64193e-08
-1.27527e-08
-7.93833e-08
1.7834e-08
5.80384e-08
1.6655e-07
-1.07173e-07
2.4731e-07
-1.40136e-07
-7.1045e-09
7.59935e-08
-6.8889e-08
-9.79454e-08
2.65853e-07
-8.17467e-08
-6.97393e-09
1.56792e-08
-1.38738e-07
1.30278e-07
-1.41201e-07
1.09238e-08
-3.36791e-09
-7.79297e-08
8.12976e-08
1.89337e-07
-9.29671e-08
-9.63699e-08
1.0916e-07
-2.02326e-08
-8.89272e-08
-1.32131e-08
1.43491e-07
5.98439e-09
1.93021e-07
-8.7612e-09
-1.01023e-08
5.34943e-08
-5.03938e-08
-3.10055e-09
5.74029e-08
-5.74029e-08
-1.27958e-07
-1.17937e-08
1.39752e-07
-1.2293e-08
3.76664e-08
-3.96516e-08
2.98391e-09
-4.171e-08
-1.14574e-07
1.27981e-07
-1.34064e-08
1.27084e-07
-1.42251e-07
1.51667e-08
-6.76801e-08
-7.06505e-08
8.96008e-08
8.72357e-08
-1.09938e-07
9.16502e-08
3.84362e-08
-1.30086e-07
-1.41177e-08
-1.34104e-08
1.34104e-08
-1.06786e-07
1.03663e-08
4.12933e-08
-1.77602e-07
4.82252e-09
-2.68415e-08
2.904e-08
3.2823e-08
-6.1863e-08
1.60324e-07
-1.00323e-08
6.20243e-08
1.20845e-08
-8.65528e-08
-5.39784e-08
2.12118e-08
3.61791e-08
-4.32836e-08
-1.27787e-07
-1.02772e-08
8.24178e-08
-2.04175e-07
3.76664e-08
8.72499e-09
-1.30837e-07
-1.37884e-07
2.68721e-07
1.33193e-07
-2.39068e-07
-1.39339e-07
-4.31419e-08
-3.22851e-09
-2.00427e-07
-7.06757e-08
-2.33717e-07
7.29521e-08
-1.58358e-07
1.40671e-07
1.7687e-08
-3.35545e-08
9.03861e-09
1.54924e-07
-3.88524e-08
-1.51261e-08
4.64263e-08
-4.60205e-08
-2.05119e-07
2.5524e-08
-6.25398e-08
-1.40803e-08
5.49078e-08
2.17352e-08
3.23659e-08
4.81752e-08
6.73259e-09
-1.88597e-09
-5.71632e-08
5.90492e-08
5.08053e-08
2.20895e-08
1.47832e-07
4.51885e-08
-9.05741e-08
8.86882e-08
-3.84523e-08
8.92576e-08
-1.32592e-09
-9.79029e-09
2.32007e-08
-1.44386e-07
1.07513e-08
1.33634e-07
1.6454e-07
-3.60131e-08
1.02366e-07
-1.1416e-07
-2.79145e-08
-6.01994e-08
-3.91715e-08
1.77068e-08
2.14648e-08
1.28256e-07
-9.18609e-08
-1.88169e-08
2.57753e-08
-6.95836e-09
5.34943e-08
2.70685e-09
1.55124e-08
5.31683e-09
9.31985e-08
1.237e-07
8.94493e-09
-1.32645e-07
-1.40803e-08
-9.48998e-08
-1.18857e-08
6.21672e-08
1.2256e-08
-7.44232e-08
-2.59301e-07
2.01353e-07
5.79479e-08
1.51473e-07
-5.17641e-08
-9.97085e-08
-7.33748e-09
6.95046e-08
4.21172e-08
-5.53557e-08
1.32385e-08
-2.62029e-08
3.49004e-08
1.07481e-07
4.39917e-08
-4.65781e-08
-2.12723e-07
-4.0003e-08
5.1935e-08
-9.85679e-08
-2.27503e-08
1.21318e-07
-1.88169e-08
-1.34635e-07
1.14402e-07
2.3956e-08
8.36212e-08
-1.07577e-07
5.09374e-08
-6.07277e-08
-1.47759e-07
1.34233e-08
1.34335e-07
-6.7219e-09
1.30422e-07
-1.33284e-08
-7.71458e-08
3.71429e-08
-1.16418e-07
-2.44644e-09
1.18864e-07
-2.13173e-07
2.37129e-07
-1.55638e-07
1.03874e-07
-1.30177e-07
-1.20731e-08
-1.0257e-08
-1.03055e-07
1.13312e-07
-8.30053e-08
9.72837e-08
-1.42784e-08
5.37667e-08
-2.72341e-10
1.18807e-07
1.33457e-07
-1.40183e-07
6.72625e-09
-4.3565e-08
6.33691e-08
-5.11131e-08
-3.86533e-10
-1.93956e-08
1.97821e-08
3.73884e-08
-8.71079e-09
1.17594e-07
3.30395e-09
-1.35122e-07
1.38164e-07
-3.0421e-09
5.67287e-08
-5.71152e-08
-1.05428e-07
1.29503e-07
-2.40743e-08
1.14695e-07
-9.90158e-08
4.21172e-08
-1.00428e-07
-5.52097e-08
-2.3855e-07
9.98369e-08
1.38713e-07
1.27352e-07
-7.72969e-09
-1.19622e-07
6.23002e-08
-1.97637e-08
-4.25365e-08
-1.32636e-07
-1.51229e-08
-1.37048e-07
1.32442e-07
4.60612e-09
1.17095e-07
-5.78884e-08
7.25227e-10
-1.30116e-07
-2.30482e-08
1.53164e-07
2.1726e-09
1.52085e-07
-1.54258e-07
-2.59751e-07
-1.23624e-07
3.34073e-09
3.63623e-09
1.18063e-07
-1.21699e-07
1.17646e-09
-9.81924e-08
-3.75583e-10
6.37174e-08
-8.2215e-09
-5.54959e-08
8.36212e-08
-1.55087e-07
1.55087e-07
3.29269e-08
4.46147e-09
-7.74148e-09
-1.45326e-07
1.26898e-08
1.51464e-07
-1.51089e-07
-3.74836e-10
1.42998e-07
-1.34054e-07
-5.97552e-10
-5.68516e-08
5.74492e-08
-1.25074e-07
4.20686e-08
-1.31908e-07
-1.34171e-08
-1.93956e-08
-2.56776e-07
-2.38935e-08
2.8067e-07
-3.10676e-07
5.39001e-08
1.3823e-07
-1.61278e-07
1.38506e-07
-2.76175e-10
5.53557e-08
-5.45964e-08
-9.16912e-08
8.92447e-08
2.57753e-08
3.3078e-08
-1.33462e-07
-6.9899e-08
1.7738e-07
-3.00258e-09
-1.52085e-07
-1.48585e-07
1.95807e-08
-2.01782e-08
-5.90319e-08
2.18031e-09
3.35909e-09
1.48105e-07
1.92721e-07
1.16022e-07
-1.32924e-07
1.00669e-08
1.22857e-07
-9.36892e-09
5.88978e-08
-4.95289e-08
-1.31755e-07
1.29263e-07
2.49129e-09
1.62653e-08
-1.88467e-08
2.58138e-09
-1.42039e-07
1.84141e-08
-2.1621e-07
2.13207e-07
1.69209e-07
-1.60137e-08
-1.53195e-07
-1.76082e-07
1.59482e-07
1.66001e-08
1.64178e-07
-2.08063e-07
4.38848e-08
8.62069e-08
-9.55758e-08
6.37174e-08
-4.55018e-08
4.55018e-08
-2.44637e-08
-1.26385e-07
1.50849e-07
-1.1904e-08
-1.48543e-07
-5.952e-08
1.23372e-07
2.97924e-08
1.45087e-07
-1.27471e-07
1.03007e-07
3.20112e-08
-1.57059e-08
1.37122e-07
7.98387e-08
-1.16016e-07
-2.17085e-07
6.85423e-08
1.5645e-07
1.15202e-08
1.42552e-07
-1.44295e-07
1.23869e-08
1.17634e-07
-9.33118e-08
-1.15977e-09
2.80662e-08
1.07577e-07
-1.35643e-07
-1.28211e-08
-1.34014e-07
1.46835e-07
-1.39976e-07
-1.34142e-10
-2.31685e-07
-6.29659e-10
7.87406e-08
-1.33418e-07
9.0681e-08
3.88217e-08
1.74522e-07
-1.04119e-08
-1.6411e-07
-3.99278e-08
2.65994e-08
1.69152e-07
-1.66979e-07
7.71638e-08
-9.28691e-08
1.57054e-08
-5.2379e-08
1.32218e-07
1.00446e-07
-1.16152e-07
-2.45179e-08
-1.10117e-07
1.0899e-07
-1.61369e-07
4.83694e-09
7.47235e-08
-7.95604e-08
-8.95109e-08
-7.77601e-09
9.13696e-08
1.16374e-08
2.10976e-08
7.02409e-08
-9.13385e-08
-8.80473e-08
-1.29038e-07
-2.03124e-08
2.01782e-08
-1.9013e-08
-2.64888e-08
-2.64099e-07
5.13767e-08
-6.22268e-08
6.70638e-08
-2.58553e-08
7.00862e-09
1.88467e-08
-2.03124e-08
3.3389e-09
1.03209e-07
-1.06547e-07
1.9013e-08
4.97577e-09
-2.39888e-08
-2.58553e-08
-1.39017e-07
4.62586e-08
-1.36153e-07
1.36089e-07
6.32059e-11
2.45002e-08
1.44709e-07
-7.38247e-10
-2.13805e-08
2.21187e-08
-4.08134e-09
-1.86435e-07
1.62541e-07
1.11779e-07
1.39165e-08
-1.65163e-07
1.51246e-07
-3.88518e-08
2.44435e-07
-1.04761e-07
-1.39675e-07
1.61715e-07
-8.50562e-09
-1.5321e-07
-1.44722e-07
1.0708e-08
1.2343e-07
1.44412e-07
-1.44412e-07
-1.66155e-07
3.97691e-08
3.61219e-08
-5.21377e-08
1.60158e-08
2.52035e-09
1.16344e-07
-1.62318e-07
2.29792e-08
1.48643e-07
-1.95807e-08
1.8508e-10
-1.81456e-08
-1.40274e-07
1.01422e-07
1.60331e-08
1.58489e-07
3.30989e-08
-1.14752e-07
8.16534e-08
1.16521e-09
5.6284e-08
1.3861e-07
-1.41998e-07
2.45805e-07
-1.03807e-07
1.93864e-07
-1.65416e-07
-2.84477e-08
-9.77399e-08
8.0717e-10
9.69327e-08
-1.23179e-07
-3.87642e-08
6.04734e-08
-2.17092e-08
-2.87634e-09
-5.04108e-08
5.74194e-08
1.51197e-07
-2.39418e-09
1.83846e-07
9.13696e-08
5.45964e-08
-5.29854e-08
-9.62821e-08
-5.54959e-08
4.48905e-09
-1.96151e-08
1.03136e-07
-9.81594e-08
-4.97693e-09
1.50582e-07
-1.60993e-07
5.03938e-08
-4.70549e-08
3.87642e-08
-3.07792e-08
-7.98503e-09
-1.58273e-07
1.74061e-07
-1.57882e-08
1.35434e-07
-1.37402e-07
1.96742e-09
1.74877e-07
-1.58844e-07
2.28384e-07
-1.10701e-07
-1.17683e-07
-2.07843e-07
2.07843e-07
9.04099e-08
-4.52313e-08
-2.18868e-07
1.66048e-08
-2.76164e-07
1.34166e-07
-1.06521e-07
2.10698e-07
-1.04176e-07
1.62653e-08
1.05652e-08
1.5115e-07
1.00358e-08
9.31005e-08
2.73273e-08
-2.59814e-08
-1.34599e-09
-1.04523e-07
1.43344e-07
1.07765e-07
-1.28806e-07
-1.83473e-07
1.13574e-07
2.05007e-08
4.81011e-08
-6.86019e-08
-2.05007e-08
9.56616e-08
-7.51609e-08
2.50018e-07
3.06518e-08
1.5126e-07
-1.60643e-07
1.52137e-07
-2.91015e-08
2.13805e-08
7.72102e-09
-3.94663e-08
-1.22851e-07
-2.152e-08
2.44314e-08
-2.91141e-09
1.40337e-07
-7.33642e-09
-1.53306e-07
-1.47033e-08
-1.32982e-07
1.60218e-07
1.38427e-08
1.7571e-07
-1.54918e-08
-2.30548e-07
1.19847e-07
1.74467e-07
-2.20128e-09
5.19271e-08
1.59123e-07
-6.18397e-08
2.76916e-07
-2.6898e-08
1.21547e-07
1.05038e-07
-1.22888e-07
1.46548e-07
-1.53884e-07
-7.70145e-08
9.6111e-08
-1.90965e-08
-9.80371e-09
1.66073e-07
-1.5627e-07
-2.91015e-08
7.51745e-09
-1.41571e-07
-1.81649e-09
-9.59234e-08
1.29885e-07
-2.16119e-07
1.17433e-07
5.9947e-08
-5.94963e-08
5.21377e-08
7.35862e-09
-1.59819e-07
1.74265e-07
-1.44453e-08
-1.09001e-07
2.16097e-08
-5.72674e-08
4.29981e-08
1.8196e-07
-2.15522e-07
1.97821e-08
-7.9599e-08
-1.03312e-08
-4.51647e-08
5.94963e-08
-6.04734e-08
-1.57835e-07
-1.58906e-08
1.73725e-07
1.68686e-07
-1.81041e-08
5.23161e-08
-3.9792e-08
-1.25241e-08
-7.38247e-10
1.7471e-07
-1.62215e-08
-1.19685e-07
-2.02909e-08
9.30146e-08
1.57193e-07
-1.59587e-07
-1.73848e-07
4.67504e-08
-1.38234e-08
-2.46931e-07
8.35556e-08
1.63376e-07
3.61219e-08
-1.56708e-07
5.61905e-09
-4.41031e-08
2.05074e-08
-2.73273e-08
3.07792e-08
-3.45187e-09
1.54416e-07
-1.29915e-07
2.26926e-07
-3.04345e-07
7.74194e-08
-1.56845e-08
-1.55195e-07
1.70879e-07
-4.4878e-08
4.70549e-08
-2.17689e-09
-6.10565e-08
2.62409e-07
-1.16265e-07
2.39601e-07
-1.23337e-07
1.31487e-07
-9.99343e-08
1.72436e-07
-1.58519e-07
6.44731e-08
-4.81011e-08
1.43184e-07
-7.26385e-08
-7.05459e-08
1.01262e-09
5.80366e-08
1.54679e-07
-9.56616e-08
-7.71458e-08
-1.83775e-07
-2.32007e-08
2.59814e-08
-2.78066e-09
-1.35643e-07
-1.54258e-07
-1.29349e-07
1.38171e-07
-3.04063e-08
1.16121e-08
1.38692e-07
-1.50305e-07
-2.21591e-08
-1.86435e-07
5.3007e-08
-5.3007e-08
8.84225e-08
-8.97281e-08
1.30559e-09
-1.46457e-07
1.46082e-07
1.2282e-07
-2.53657e-07
6.44731e-08
2.44945e-07
-1.52653e-07
1.54679e-07
-1.32592e-09
1.09513e-07
2.86581e-08
-1.27699e-09
1.17621e-07
8.53567e-10
1.33091e-07
-1.33944e-07
2.5906e-07
-1.41563e-07
-1.17497e-07
1.59392e-07
-1.27026e-07
-2.06589e-07
7.75507e-08
-9.07288e-08
1.82098e-07
8.89949e-08
-5.72674e-08
-1.90295e-07
3.2018e-07
1.52104e-07
-9.56451e-08
-5.64587e-08
-2.63309e-07
1.47044e-07
7.51247e-08
-1.74887e-07
8.4581e-08
1.78226e-07
-6.87132e-08
1.5858e-07
-1.00613e-07
1.63239e-07
-1.85304e-08
2.09261e-07
-1.44229e-08
-1.94838e-07
-1.45603e-07
-4.4878e-08
2.59089e-07
-1.93768e-07
-6.53208e-08
-2.152e-08
-2.05074e-08
-9.39691e-08
1.69094e-07
-2.03131e-09
1.75385e-07
7.04204e-08
-1.52129e-07
-1.30341e-08
-1.05918e-07
2.41767e-07
-1.55026e-07
-8.67411e-08
1.32862e-07
3.62698e-09
-1.36489e-07
-2.59356e-07
4.04877e-08
1.64663e-07
9.68941e-08
-2.32201e-07
5.43159e-08
1.77885e-07
1.58922e-07
1.77201e-08
1.45519e-07
-1.08233e-09
1.71031e-07
7.81943e-09
6.8863e-08
-7.66825e-08
-1.83334e-07
-4.88669e-08
6.59258e-10
1.34775e-07
-1.30067e-07
-1.97723e-08
1.49839e-07
1.62858e-07
1.42359e-07
2.3691e-07
-1.82594e-07
2.55688e-07
-2.87621e-08
-1.67942e-07
2.9533e-07
1.00004e-07
1.39597e-07
3.9024e-08
2.29789e-08
1.31437e-07
1.50174e-07
2.10772e-08
1.11406e-07
-1.32484e-07
8.68146e-09
1.21122e-07
-1.29803e-07
3.73993e-08
-3.66178e-08
3.73993e-08
-1.30017e-07
1.47374e-07
2.91319e-08
-2.59454e-08
2.91319e-08
-1.54168e-07
2.17484e-07
-4.21e-08
1.53918e-07
1.69614e-08
-2.96874e-08
3.75068e-08
2.00314e-08
-1.50098e-07
8.91329e-08
1.87102e-07
2.96874e-08
-5.55486e-10
-5.95824e-09
-1.47926e-07
1.05587e-07
-1.60006e-07
-4.57124e-09
1.24643e-08
1.54989e-07
-1.67453e-07
1.5799e-07
1.3582e-07
-1.41778e-07
-5.29854e-08
-5.50313e-09
1.26625e-07
-1.79753e-07
1.94983e-07
1.37381e-07
-2.67432e-08
2.98852e-08
3.66178e-08
-2.98852e-08
-2.67432e-08
2.5645e-08
-2.44314e-08
1.52464e-07
-2.5645e-08
4.26527e-08
1.88603e-08
-1.88603e-08
-2.59454e-08
-1.4328e-08
1.4328e-08
3.75068e-08
1.69027e-07
-1.51085e-08
5.2603e-08
1.31243e-07
-6.68831e-10
1.08588e-07
1.36356e-07
-6.20324e-08
4.76496e-09
1.06407e-07
6.01203e-08
-1.19652e-07
1.39684e-07
1.00203e-07
2.19977e-07
1.49157e-07
1.00204e-07
1.62541e-07
1.36492e-07
2.11774e-09
2.36873e-07
-1.69023e-07
-6.78504e-08
-1.74011e-07
-9.75779e-08
9.20748e-08
-5.66676e-09
1.08033e-07
1.60716e-07
-1.68409e-08
-1.43875e-07
2.41265e-07
1.12114e-09
1.64952e-07
-1.63675e-09
-9.59411e-08
1.36812e-07
7.88713e-09
-1.44699e-07
1.62481e-07
5.37667e-08
-1.56938e-07
1.69402e-07
1.40943e-07
-2.33925e-07
1.30435e-07
-1.14986e-07
-4.63651e-09
-6.43611e-08
1.73351e-07
9.09598e-10
1.16711e-07
-1.31078e-07
1.14261e-08
1.49271e-07
-1.60088e-07
1.08162e-08
-5.76872e-08
1.13121e-07
-5.5434e-08
-4.96629e-09
1.47978e-07
-1.44637e-07
1.52186e-07
-1.13414e-07
-1.76647e-08
-1.37205e-07
1.09768e-07
-1.11203e-07
-1.7955e-08
-9.15373e-08
1.09492e-07
9.68582e-08
-8.33256e-08
-1.35327e-08
1.57158e-07
-1.17017e-07
-1.70509e-08
1.57994e-07
2.39675e-08
-1.36887e-07
1.36218e-07
-1.31492e-07
-1.86059e-08
1.66442e-07
-1.42564e-08
-9.96818e-08
9.23278e-09
1.50745e-07
1.21132e-08
1.41288e-07
1.28519e-08
-1.66061e-07
-1.72047e-07
-6.66773e-09
-1.38032e-07
1.19957e-07
1.64222e-07
-9.4322e-08
1.15399e-07
9.34241e-09
1.55331e-07
8.91043e-08
1.34664e-08
-1.70104e-07
1.56637e-07
7.59054e-08
-7.75421e-08
-1.33587e-07
7.83854e-08
8.07381e-08
-6.20324e-08
5.35391e-08
-1.53344e-07
1.04684e-07
-1.26091e-08
-1.16184e-07
2.1862e-08
-1.26705e-07
1.21739e-07
1.49391e-07
-2.01722e-07
1.71316e-07
-9.26105e-08
1.14793e-07
-2.21825e-08
2.38839e-07
-1.38835e-07
1.88722e-07
-1.28101e-07
2.48432e-08
1.10547e-07
-1.10547e-07
4.29981e-08
1.62243e-07
-5.75407e-08
-6.93853e-08
6.93853e-08
-3.53719e-08
3.53719e-08
-6.748e-09
-4.90978e-08
4.90978e-08
-8.72266e-08
8.72266e-08
-2.48587e-07
1.79874e-07
3.36515e-08
-3.36515e-08
-1.51481e-08
-1.70603e-07
-4.55162e-08
1.58314e-07
9.86689e-08
-1.81067e-09
7.20187e-08
-7.20187e-08
-1.09372e-08
1.09372e-08
-1.49554e-07
-1.04318e-07
-6.32575e-08
6.32575e-08
9.00504e-09
-9.00504e-09
2.35882e-07
-8.88378e-08
-1.23159e-08
-1.15471e-07
2.27887e-08
9.79358e-08
1.46862e-07
1.53811e-08
-7.13343e-08
7.13343e-08
2.38884e-08
-2.38884e-08
-1.17129e-07
1.07096e-07
2.2106e-08
-2.2106e-08
1.09156e-08
-4.70579e-08
2.02069e-07
-3.8693e-08
-4.51647e-08
4.97577e-09
1.32122e-07
1.12695e-07
-2.35825e-07
8.07986e-08
6.94626e-09
-1.02887e-07
1.3574e-07
-7.42677e-09
-1.28313e-07
7.92705e-08
-7.02558e-08
-9.01471e-09
-2.89893e-10
-7.4191e-08
-1.00696e-07
5.6469e-08
-1.55146e-07
1.57427e-07
1.29946e-07
7.73025e-08
2.31648e-07
-1.67392e-07
-6.42558e-08
-1.46199e-08
-1.14401e-08
1.45437e-07
-1.33997e-07
1.30622e-07
-1.00606e-07
2.0081e-07
-7.51665e-08
6.94997e-08
-1.63998e-08
1.38612e-07
-1.29317e-07
-9.29432e-09
-2.2206e-07
5.7563e-09
1.46004e-07
-1.5176e-07
-2.43369e-09
-5.6371e-08
1.44699e-07
1.27279e-08
-2.28704e-07
1.16137e-07
-1.15478e-07
-1.46444e-07
-1.49789e-07
1.07689e-07
-1.14428e-07
6.98167e-08
9.30724e-08
-9.73852e-08
1.53067e-07
-8.36783e-09
-5.96223e-08
2.35923e-07
-8.68813e-08
-2.20162e-08
1.09935e-07
-8.79191e-08
-1.40238e-07
9.27768e-08
-1.00214e-07
1.0535e-07
-5.13623e-09
-2.62458e-08
-9.15273e-08
1.45128e-08
8.30176e-08
-7.46597e-08
-8.35785e-09
-7.7271e-08
1.24997e-07
1.36149e-08
-1.54433e-07
8.0222e-08
8.20053e-09
1.27855e-08
1.81158e-07
1.90266e-07
-1.54346e-09
-1.61492e-07
2.7008e-07
6.73495e-08
7.5995e-08
-1.68521e-07
1.17148e-07
-2.43717e-08
7.83035e-08
1.41627e-07
2.01372e-09
1.14123e-07
2.02876e-08
1.16997e-07
3.1646e-08
9.70471e-08
-1.50888e-08
1.72046e-07
1.81059e-07
-1.7753e-08
-1.63306e-07
8.28601e-08
8.07929e-08
2.35666e-07
5.59972e-09
1.99165e-07
9.8734e-09
6.97619e-08
7.09233e-08
1.23339e-09
-1.87494e-07
1.61193e-08
-1.47815e-07
1.49933e-07
-9.05973e-08
8.69129e-10
1.25597e-07
1.41549e-08
1.99423e-08
-1.39347e-07
-2.22405e-09
1.47383e-07
-2.24936e-07
-8.07672e-09
1.48834e-08
-1.48121e-08
-1.14198e-07
1.29011e-07
5.40914e-08
8.6819e-08
-1.6101e-07
-1.78246e-09
9.61779e-08
-1.99985e-07
7.14396e-08
1.13231e-07
5.36108e-08
3.00693e-08
-8.36801e-08
-2.66448e-08
-8.81074e-08
1.54631e-07
-1.71302e-08
-1.50142e-07
-4.93187e-08
1.86585e-07
-8.95383e-08
-1.32641e-07
1.64652e-07
-1.40188e-07
1.34915e-07
5.27267e-09
6.13972e-08
-1.11806e-07
-1.26744e-07
2.21046e-07
1.88754e-07
-1.4487e-07
1.3547e-07
1.38089e-07
7.20814e-08
6.86037e-08
4.35615e-08
-4.5344e-08
-2.09843e-09
1.56769e-07
-1.18169e-07
2.47051e-08
1.55443e-07
-1.32691e-07
4.58346e-11
2.34985e-07
1.36674e-08
-1.81752e-07
3.16098e-08
-1.26338e-07
1.44752e-07
1.48401e-07
1.95866e-07
-1.09083e-07
-1.21681e-07
-3.99278e-08
3.44542e-09
1.20928e-07
1.01623e-09
-3.93476e-08
-1.43256e-07
3.90915e-09
-6.09736e-10
-1.28739e-07
-8.45991e-08
5.79862e-08
5.20727e-08
1.696e-07
1.70999e-07
-1.33618e-07
-3.73816e-08
1.43555e-08
1.6176e-07
1.45355e-07
6.49425e-10
6.88196e-08
1.66994e-08
1.24511e-07
-5.56913e-08
-1.66601e-07
1.76134e-07
-2.12098e-08
-1.05295e-08
1.31457e-07
2.01512e-07
-1.31695e-07
8.99622e-08
2.71863e-08
-3.89099e-08
1.52141e-07
3.29903e-08
8.84868e-08
6.46163e-10
1.31271e-07
-9.42012e-08
-3.70696e-08
-1.18182e-07
1.13631e-07
-1.20787e-09
-1.12423e-07
-1.21891e-07
-1.47533e-08
1.67218e-07
1.46076e-07
2.02893e-09
-1.71372e-07
2.08545e-07
-8.85604e-08
1.53246e-07
5.48905e-08
1.47532e-08
-1.13053e-08
1.43337e-07
-1.2967e-07
1.15491e-07
-2.55288e-08
8.97202e-08
3.64791e-08
-4.51899e-08
-1.00195e-07
6.12849e-08
-9.91786e-08
1.35114e-07
1.3601e-07
-1.43436e-07
-2.16558e-08
1.40689e-07
6.26025e-08
-1.22784e-07
-9.78685e-09
1.2065e-07
-1.20604e-07
1.54942e-07
-9.84996e-08
2.34742e-07
-1.14895e-07
8.10722e-09
-1.45312e-07
-1.37872e-07
-3.95097e-08
1.10949e-07
2.35729e-08
1.26266e-07
-1.44117e-07
1.32031e-07
-2.34698e-09
9.34279e-08
7.01816e-09
2.73836e-08
5.52846e-08
7.69331e-08
1.30269e-07
-1.53272e-07
1.15514e-07
9.68524e-08
1.09629e-07
2.76641e-08
9.68467e-08
-1.35642e-07
-1.27618e-08
9.34835e-08
-8.07217e-08
1.08792e-07
1.37345e-07
1.64906e-07
-5.84064e-09
1.33202e-07
-9.66502e-09
-1.08504e-07
1.2659e-07
1.07082e-07
-9.51271e-08
-1.54958e-07
-1.41403e-07
8.58721e-08
-1.37989e-07
3.92e-08
-1.21311e-07
1.90516e-07
-1.90516e-07
-8.00418e-10
-1.30952e-08
1.09661e-07
9.84209e-08
1.12403e-08
-9.07674e-09
1.26172e-07
-1.3739e-07
-3.77485e-08
5.4295e-08
1.19733e-08
1.40753e-07
-6.00154e-08
9.80656e-08
1.10479e-07
-1.02215e-07
1.60921e-07
-2.07979e-07
1.06621e-07
1.29643e-07
-1.82368e-08
1.4304e-07
1.18349e-07
1.05078e-07
-5.77465e-08
-4.73317e-08
-1.27253e-07
2.50385e-08
9.43055e-08
1.0877e-08
1.08818e-07
1.50143e-07
-9.0833e-08
1.61732e-08
1.20089e-07
-9.39278e-08
-7.85728e-08
6.42943e-08
1.15972e-07
-1.16582e-07
5.58231e-08
-8.92808e-08
-1.48151e-08
1.04096e-07
-1.25823e-08
1.28095e-07
-1.1448e-07
-9.54119e-08
1.08197e-07
-1.4524e-07
3.46929e-08
-9.2818e-08
-5.61935e-08
9.30921e-08
-3.68987e-08
1.0241e-07
-1.04221e-07
-1.16352e-07
-9.31079e-08
8.78373e-10
-8.73627e-08
8.64844e-08
-1.12231e-07
1.73312e-08
-1.9919e-07
6.13055e-08
8.67592e-08
3.97683e-09
1.14656e-07
-6.93281e-09
-7.29226e-09
1.95906e-08
-7.15546e-08
1.07635e-07
-4.72466e-08
6.48294e-08
-1.76635e-07
3.61692e-07
-2.72588e-07
3.71429e-08
1.19615e-07
-1.29589e-07
9.85915e-08
-1.2412e-07
-1.32991e-07
7.67971e-08
1.36457e-07
1.69092e-08
-1.53366e-07
-9.14626e-08
-5.32278e-09
-1.38114e-07
1.13448e-07
2.44414e-08
1.74672e-07
1.037e-07
1.43632e-08
-1.46725e-07
3.53456e-08
1.11336e-07
-9.87919e-08
-1.25437e-08
2.20548e-08
2.00093e-08
1.37985e-07
-8.03653e-08
-7.38911e-08
5.60575e-08
1.17294e-07
2.18155e-07
5.22248e-08
-2.84455e-08
-8.50265e-08
1.5105e-08
1.49185e-07
-2.06873e-08
-1.03433e-07
1.46566e-08
-2.0344e-08
1.27805e-07
-1.07461e-07
-1.53263e-08
-1.39107e-07
8.40166e-08
-4.8671e-08
1.45069e-07
-1.26803e-08
-2.64912e-08
-1.35167e-07
-1.39303e-07
-2.72981e-08
-1.05379e-07
1.19742e-07
1.19048e-07
-1.39392e-07
-1.67243e-07
2.102e-07
-6.00567e-08
4.98606e-08
1.06278e-07
-1.07071e-07
1.24662e-08
-6.10081e-08
4.27727e-08
1.5188e-08
-4.6624e-08
-1.2129e-07
6.95525e-09
4.73057e-08
2.65994e-08
-4.48651e-08
-6.73659e-08
-8.81315e-08
-1.23378e-07
-1.4524e-07
6.98432e-09
-6.53857e-08
-9.7234e-08
2.06383e-08
1.42441e-07
-1.25531e-07
8.63354e-08
1.59863e-07
-8.59435e-08
-1.10413e-07
1.24204e-07
7.23657e-08
1.58098e-07
9.35817e-08
-2.40771e-08
-4.05292e-08
4.41507e-08
-4.41507e-08
-1.01401e-09
-9.12362e-10
1.60294e-08
-9.67511e-08
-3.96516e-08
4.66446e-08
-5.00125e-08
3.0584e-08
1.46275e-07
1.71589e-07
-8.03634e-08
-1.54359e-07
-1.58645e-07
-1.67734e-07
2.58193e-07
-1.5382e-07
-8.13558e-08
-4.12139e-08
4.89349e-08
-9.18987e-08
2.97151e-09
8.05779e-08
2.3518e-08
1.96379e-07
-3.54576e-08
8.18766e-08
1.13218e-08
3.64046e-08
-2.82845e-08
1.37208e-07
4.39503e-08
3.71507e-08
3.46269e-08
-6.84347e-08
2.18076e-07
-1.1174e-07
-2.0744e-08
6.68104e-08
-1.47855e-08
-9.48457e-08
1.82845e-07
9.48457e-08
2.14621e-08
1.45527e-08
-1.45527e-08
8.59985e-08
1.26387e-07
-6.04767e-08
9.86369e-08
-3.63833e-08
7.98095e-09
7.07597e-08
6.98432e-09
-1.28714e-07
8.13827e-08
-1.73266e-07
2.34663e-07
-5.19173e-08
-1.85741e-08
-9.39966e-08
-8.12078e-08
6.12485e-08
1.19671e-07
1.44096e-07
-1.47471e-07
3.64348e-09
-1.33567e-07
-5.5519e-08
-2.89482e-08
2.76022e-08
1.58871e-07
-9.23195e-08
-5.23486e-08
1.44668e-07
-1.67435e-07
9.0252e-08
-1.73509e-07
7.11874e-08
9.13228e-08
8.03115e-08
-9.38442e-08
-9.05919e-08
7.14953e-08
1.63987e-08
1.63987e-08
-7.52979e-08
7.52979e-08
1.09471e-07
-2.9796e-08
-9.90948e-09
-3.21058e-09
-1.03948e-07
1.76072e-07
-2.42491e-07
-1.29389e-07
-3.74042e-09
3.04254e-08
1.17221e-07
-3.04254e-08
-1.16139e-07
7.48593e-08
1.54912e-08
2.17547e-07
-4.33986e-09
-3.96672e-08
-1.50849e-07
8.09643e-08
1.99639e-08
-2.4332e-07
1.05203e-08
-9.98832e-09
-7.03751e-08
1.65765e-07
-1.21422e-08
2.70256e-08
2.46559e-09
5.80267e-08
9.69677e-08
-7.34497e-08
-4.80064e-08
-6.6153e-08
-1.50634e-07
9.82855e-08
-1.38424e-08
-7.6349e-08
2.59382e-08
-5.0593e-08
1.55514e-08
5.53172e-08
-1.98739e-07
1.43422e-07
4.63351e-08
4.74311e-08
1.56119e-08
3.91369e-09
6.4856e-09
1.10865e-07
-1.5113e-07
-8.68972e-08
1.63513e-08
-1.92039e-07
-1.61595e-08
2.08198e-07
-2.36374e-07
1.54105e-08
-6.59959e-08
8.92234e-08
-6.61891e-08
1.71452e-07
-1.13039e-07
1.12025e-07
7.20298e-08
1.42902e-07
-1.40934e-07
2.15539e-07
3.32622e-09
4.89899e-08
1.50849e-07
3.82977e-09
1.26919e-07
1.07287e-07
4.06065e-08
-2.33326e-07
-7.27618e-09
-8.40624e-08
-1.55673e-08
1.55673e-08
-1.20799e-07
-3.72415e-08
-9.80214e-08
-7.15684e-09
-5.47062e-08
2.75499e-08
1.02726e-08
-1.21337e-07
8.15387e-09
-5.5519e-08
-1.33567e-07
-9.3971e-08
-7.27163e-08
-1.78755e-08
-8.40216e-08
-7.06326e-09
-6.24018e-08
-5.96457e-08
8.7422e-08
2.81533e-08
-3.0007e-07
1.19072e-08
-2.40494e-08
-4.79025e-08
-1.13376e-07
2.71659e-08
2.19665e-07
-2.71659e-08
6.05039e-08
6.53853e-08
6.68303e-08
-3.0035e-08
-1.37208e-07
1.58406e-07
-2.2423e-08
4.41183e-08
-9.89882e-09
1.88585e-07
8.95772e-08
7.83163e-08
-7.42344e-08
-9.32129e-10
-2.27885e-08
-2.37154e-07
1.77068e-08
-5.45636e-08
-3.46116e-08
-4.17375e-08
5.45636e-08
-2.23489e-08
6.62066e-08
-1.39516e-08
-1.49966e-08
-1.32602e-07
7.63552e-08
-6.47178e-08
2.1537e-08
1.39123e-07
9.55403e-08
-5.70526e-09
8.41455e-08
1.78467e-09
4.01e-08
6.07518e-08
7.63552e-08
-5.76804e-08
5.7125e-08
-7.51972e-08
6.33479e-08
-7.77095e-08
1.59572e-08
3.08083e-10
1.83564e-08
5.7549e-08
2.09542e-07
-1.97108e-07
1.79915e-08
2.04315e-07
8.39348e-08
6.46487e-09
5.83328e-08
6.40447e-08
-4.36616e-09
7.38659e-08
-1.29269e-08
-1.13328e-07
-2.81022e-08
-1.74035e-08
7.20707e-08
-5.60549e-08
1.35778e-07
-1.02788e-07
-2.15209e-08
-1.73971e-07
-2.14277e-08
2.15693e-08
-8.39348e-08
9.57986e-08
-7.37437e-08
-5.50606e-08
-8.53845e-08
1.40702e-07
-2.50596e-07
8.80685e-08
1.40791e-07
4.77936e-08
2.7256e-08
7.95645e-10
-2.22745e-08
-1.12796e-08
8.85628e-08
-7.72832e-08
-1.1365e-07
1.1365e-07
5.65662e-08
-4.08609e-08
6.84486e-08
-6.98168e-08
-9.33044e-09
4.78986e-08
5.21097e-09
-9.92505e-08
-2.77121e-09
-1.84048e-07
3.75866e-08
-1.04953e-07
2.1664e-07
-5.42458e-08
1.02895e-08
-1.04591e-07
6.59504e-08
-4.43811e-08
1.36321e-08
-1.72476e-07
-9.16193e-08
1.72557e-07
-1.58925e-07
-8.82223e-08
7.54695e-08
-1.87781e-07
-5.96949e-08
-2.84488e-09
-1.38311e-07
7.07732e-09
-2.44808e-08
5.04132e-08
-1.17785e-07
-1.1451e-07
-7.69627e-08
-2.12307e-08
1.2971e-07
-6.63621e-08
6.89608e-08
-7.11377e-08
1.22342e-09
4.69527e-08
-5.26512e-09
1.26803e-08
1.64765e-09
-1.77742e-07
6.40798e-08
2.87841e-08
-6.21521e-09
2.50871e-08
4.08633e-08
-1.10355e-09
-9.07701e-10
-8.2668e-08
-2.62765e-08
3.5739e-08
1.15577e-07
3.75142e-08
-1.95887e-07
1.47689e-07
1.77644e-07
3.98212e-08
-7.52327e-08
-1.65734e-07
-1.43888e-07
-8.778e-08
4.20602e-08
-6.28941e-08
-2.03437e-08
-1.59482e-07
9.10284e-08
8.99815e-09
2.75499e-08
1.02988e-07
-2.58978e-07
7.76214e-08
1.11873e-07
2.25096e-08
-2.34173e-08
-7.15689e-08
1.78502e-07
-6.93485e-08
2.27885e-08
-8.73749e-08
2.11117e-07
2.12799e-07
4.96104e-08
-1.08137e-07
8.90573e-08
-1.49927e-07
-9.68149e-08
1.84992e-07
1.78788e-07
-4.97069e-08
3.4019e-08
-1.85066e-08
-1.13355e-08
1.18325e-08
-1.45822e-07
1.29662e-07
-8.23865e-09
-2.2423e-08
-3.07616e-08
-3.35599e-08
-1.51343e-07
-2.35217e-08
9.01605e-08
-1.02879e-08
-1.65909e-07
1.10906e-07
-2.47724e-08
-1.78467e-09
8.68326e-08
-3.78945e-08
1.4333e-07
-1.23479e-07
-1.0665e-07
6.02278e-08
-1.07714e-07
4.88644e-08
5.88493e-08
2.76895e-08
-9.41834e-08
-4.81897e-08
-4.42754e-09
-9.45883e-08
-7.48026e-08
4.48995e-08
5.78716e-08
-4.49399e-08
-3.15825e-08
1.61096e-07
-4.10714e-09
-1.57506e-07
1.81199e-08