/*--------------------------------*- C++ -*----------------------------------*\
  =========                 |
  \\      /  F ield         | OpenFOAM: The Open Source CFD Toolbox
   \\    /   O peration     | Website:  https://openfoam.org
    \\  /    A nd           | Version:  9
     \\/     M anipulation  |
\*---------------------------------------------------------------------------*/
FoamFile
{
    format      ascii;
    class       volVectorField;
    location    "1";
    object      U;
}
// * * * * * * * * * * * * * * * * * * * * * * * * * * * * * * * * * * * * * //

dimensions      [0 1 -1 0 0 0 0];

internalField   nonuniform List<vector> 
578
(
(1.06604e-20 5.76329e-21 0)
(6.65623e-21 6.95219e-21 2.7079e-38)
(1.41157e-20 1.30249e-20 0)
(-2.63521e-22 -1.64017e-21 7.91254e-38)
(3.34932e-21 -7.22143e-21 0)
(5.56489e-21 -3.67097e-21 -8.37262e-38)
(2.08745e-21 4.36032e-21 -4.92979e-39)
(3.29452e-21 -5.97574e-21 -2.74401e-39)
(1.72261e-20 -2.77732e-20 0)
(3.8256e-21 5.904e-21 -4.00639e-38)
(9.14638e-21 -5.62901e-21 4.43046e-38)
(1.10948e-20 -2.16969e-20 -5.3456e-41)
(-1.47092e-22 -3.60562e-22 0)
(1.19379e-20 -2.48374e-20 -8.30633e-39)
(7.83333e-21 1.5829e-20 0)
(2.16254e-20 -2.45643e-20 1.79184e-38)
(1.09345e-20 4.1571e-21 -4.00405e-38)
(1.25984e-20 1.53904e-20 7.62962e-38)
(9.99398e-21 -1.92629e-20 -1.4864e-39)
(1.86916e-20 -2.73055e-20 -3.46635e-38)
(-5.2529e-22 -2.19928e-21 -8.14698e-38)
(1.8006e-20 -2.24271e-20 7.20299e-38)
(8.95755e-21 -4.6827e-21 -6.50571e-38)
(-2.52806e-22 1.88752e-21 -9.49408e-39)
(-3.49713e-22 1.91308e-21 0)
(9.83708e-21 -1.96198e-20 3.38725e-40)
(-4.70252e-22 3.38588e-22 0)
(-2.23402e-22 4.41333e-22 4.43827e-39)
(7.78894e-21 4.85158e-21 -5.21363e-38)
(2.1557e-20 -2.49543e-20 0)
(-4.28061e-22 6.96903e-22 -8.20475e-38)
(3.70176e-21 -3.08711e-21 -1.06259e-39)
(2.17851e-20 -2.58502e-20 -1.43706e-38)
(-8.7522e-22 1.77893e-21 -2.01929e-38)
(6.68815e-21 1.41058e-20 -4.72566e-38)
(1.86185e-20 -2.10213e-20 2.16108e-38)
(1.04743e-20 -2.19524e-20 6.80726e-39)
(9.36462e-21 -1.77894e-20 0)
(1.47941e-20 1.93577e-20 -2.16697e-38)
(5.43361e-21 -1.14628e-20 0)
(5.67008e-21 -1.25514e-20 -6.52011e-39)
(5.81248e-21 -1.00698e-20 3.1562e-39)
(5.20404e-21 -9.95988e-21 1.07686e-38)
(6.48244e-21 1.40716e-20 -1.72587e-39)
(1.3173e-20 -1.43109e-20 0)
(3.39195e-21 7.13781e-21 1.12274e-39)
(3.39578e-21 7.82731e-21 5.19023e-38)
(1.51641e-20 -2.47996e-20 -1.31992e-38)
(1.6673e-20 1.8596e-20 2.21108e-38)
(-6.01987e-22 1.7558e-22 0)
(3.40466e-22 4.00892e-22 3.23133e-39)
(-8.00684e-23 -4.05717e-22 -8.44067e-41)
(1.08024e-20 -6.28172e-21 9.51309e-38)
(-9.48818e-22 1.50213e-21 1.99708e-38)
(-4.83086e-23 -4.67256e-23 0)
(5.03361e-21 -3.15283e-21 3.62815e-38)
(3.86788e-21 -1.54416e-21 -3.12973e-38)
(7.60466e-21 -7.12037e-21 0)
(1.24328e-20 6.97774e-21 -6.24828e-38)
(1.21196e-20 -1.34546e-20 6.90261e-39)
(1.31154e-20 1.32847e-20 -5.65402e-39)
(6.22578e-21 2.46215e-21 -1.71609e-38)
(8.91617e-21 9.79028e-21 -7.32627e-38)
(1.04416e-20 -2.1839e-20 5.06918e-39)
(-4.2655e-22 -3.69677e-22 8.04301e-38)
(8.68229e-21 1.7125e-20 2.73192e-38)
(2.05624e-20 -2.61139e-20 4.76945e-38)
(1.17844e-20 -7.73489e-21 0)
(2.1845e-20 -2.22067e-20 1.00197e-38)
(1.21185e-20 -2.52971e-20 -8.14698e-40)
(-5.29931e-22 1.89535e-21 0)
(1.37208e-21 -4.97462e-22 -1.04388e-37)
(-2.87213e-22 -3.47125e-22 -1.70253e-37)
(1.24951e-20 -2.59982e-20 8.30806e-40)
(4.33922e-21 -1.98048e-21 0)
(3.22234e-21 -6.81692e-21 3.42753e-39)
(1.52878e-20 -2.34513e-20 3.34589e-38)
(1.22414e-20 -1.88141e-20 -1.35942e-38)
(-3.39758e-22 -5.17577e-22 8.31018e-38)
(7.28788e-21 6.01739e-21 4.02997e-38)
(1.54212e-20 -1.64653e-20 -1.26401e-37)
(4.51102e-21 3.52461e-21 1.86283e-37)
(3.8893e-21 -5.7418e-21 -1.35443e-37)
(5.6214e-21 -7.60466e-21 0)
(1.16209e-20 1.47203e-20 6.9373e-38)
(2.34288e-21 5.75671e-21 -2.2698e-38)
(4.34773e-22 -1.67087e-22 0)
(7.17999e-21 -2.91501e-21 4.06451e-38)
(8.57057e-21 -1.87931e-20 -1.49017e-39)
(5.54476e-21 1.25403e-20 1.266e-40)
(-6.53978e-22 5.20448e-22 8.33581e-38)
(8.55726e-21 1.19814e-20 7.8246e-40)
(5.38699e-21 1.18435e-20 2.98945e-38)
(-2.83737e-22 -9.03379e-22 3.92186e-38)
(2.24668e-20 -2.3707e-20 -2.08733e-38)
(1.80083e-20 -2.09697e-20 0)
(-1.42846e-22 -1.23514e-22 8.40249e-38)
(-6.76703e-23 -1.21718e-22 0)
(9.59409e-22 1.70094e-21 -1.62819e-39)
(7.82979e-21 1.63361e-20 -4.44438e-38)
(6.9609e-21 1.65507e-20 -9.99263e-40)
(1.13457e-20 -2.46741e-20 -7.84582e-40)
(-4.79042e-22 -2.58581e-22 0)
(1.11163e-20 1.15045e-20 0)
(-4.9705e-23 1.19525e-24 3.4163e-38)
(1.20385e-20 -2.53294e-20 5.82809e-40)
(3.8719e-21 -1.70088e-21 0)
(5.66134e-21 -1.21765e-20 3.4608e-39)
(1.09494e-21 3.0023e-21 1.40868e-38)
(6.24828e-21 -1.26218e-20 -1.32668e-38)
(1.81539e-20 -2.26896e-20 1.2713e-38)
(1.14183e-20 -2.38055e-20 -2.66342e-39)
(2.02041e-20 -2.67868e-20 -9.97538e-39)
(2.11991e-20 -1.9462e-20 1.14842e-38)
(2.10661e-20 -2.20961e-20 -1.14174e-38)
(-2.89986e-22 -2.19414e-22 8.77173e-38)
(-2.74224e-22 -1.50442e-21 0)
(1.30766e-20 1.14325e-20 -1.78067e-38)
(4.68907e-21 1.05412e-20 0)
(-1.07154e-22 -4.30012e-23 9.005e-38)
(7.87468e-21 -1.56352e-20 3.7961e-39)
(9.11484e-21 -1.25035e-20 0)
(1.13622e-20 -2.22883e-20 -1.78999e-40)
(-3.42617e-22 -2.29228e-21 9.54089e-38)
(8.12394e-21 -1.08133e-20 0)
(6.25101e-21 1.50831e-20 5.54749e-39)
(1.22257e-20 -1.39817e-20 1.05301e-37)
(2.01409e-20 -2.24049e-20 1.57253e-38)
(8.12146e-21 1.67004e-20 -3.14258e-38)
(5.49249e-21 1.52453e-20 0)
(7.80836e-21 1.52296e-20 3.32218e-38)
(6.23735e-21 1.55075e-20 0)
(-2.38052e-22 -1.05685e-21 4.68431e-38)
(2.01519e-21 -4.02935e-21 -6.63339e-39)
(7.87971e-21 1.57894e-20 -2.83785e-38)
(7.14354e-21 1.29406e-20 0)
(9.44345e-21 -1.78111e-20 1.72974e-39)
(-2.93416e-22 -2.07106e-22 -8.9872e-38)
(2.08283e-20 -1.76388e-20 -3.60657e-40)
(6.48083e-21 1.20737e-20 -2.78413e-38)
(2.77713e-21 5.09293e-21 0)
(5.51717e-21 1.50559e-20 0)
(5.33147e-21 9.85878e-21 0)
(-1.65535e-22 -4.77006e-21 0)
(4.31002e-21 -8.35478e-21 8.34513e-39)
(1.20953e-20 1.93972e-20 0)
(4.62687e-21 1.01321e-20 1.17255e-38)
(-1.22061e-22 -4.98302e-23 8.86915e-38)
(1.25183e-20 -2.51889e-20 0)
(5.30695e-21 1.41136e-20 0)
(1.4512e-20 -2.75593e-20 0)
(1.64367e-21 9.4266e-22 -4.66779e-38)
(5.07633e-21 -5.40278e-21 -2.09134e-38)
(3.66225e-21 -7.34004e-21 5.38433e-39)
(8.33288e-21 1.68206e-20 -1.33684e-39)
(-3.73152e-22 3.50087e-23 8.51893e-38)
(1.21006e-20 6.40621e-21 5.87255e-38)
(9.9141e-24 -4.36126e-22 8.08464e-38)
(2.90923e-21 2.76148e-21 2.91458e-38)
(1.51218e-20 -2.79691e-20 0)
(1.28952e-20 -2.51432e-20 0)
(1.16956e-20 -2.18363e-20 0)
(1.37918e-21 2.58817e-21 0)
(1.2968e-20 -2.36733e-20 -3.34753e-40)
(9.65911e-24 -1.60846e-21 0)
(5.6401e-21 1.33418e-20 -6.49861e-39)
(-7.10434e-23 -2.93841e-21 0)
(6.92165e-21 1.38082e-20 -3.87164e-40)
(7.78396e-23 -1.80525e-22 0)
(-1.20422e-21 -7.31591e-23 0)
(1.21773e-20 -2.07847e-20 -2.20162e-38)
(5.24544e-21 -9.6878e-21 0)
(2.88835e-21 5.39828e-21 0)
(2.20899e-21 4.24323e-21 -2.64934e-40)
(5.75599e-21 1.08559e-20 0)
(-6.45585e-22 -4.80224e-22 0)
(-7.56691e-22 -7.17671e-22 -8.59904e-38)
(1.50911e-20 8.81066e-21 1.00705e-38)
(7.14234e-21 -1.22093e-20 2.07511e-38)
(1.42916e-21 -3.32169e-21 0)
(2.97002e-21 5.37842e-21 4.21321e-40)
(1.14475e-20 1.00965e-20 -6.57822e-38)
(3.98388e-21 1.08636e-20 0)
(-5.42558e-22 -7.70994e-22 1.55579e-37)
(9.81304e-21 1.45325e-20 0)
(-5.69472e-23 -4.23307e-23 -6.43562e-38)
(7.49712e-21 -9.14991e-21 -4.89105e-38)
(8.14697e-21 1.70672e-20 3.82039e-38)
(8.78454e-21 1.73337e-20 0)
(4.51531e-22 -2.92786e-21 0)
(1.35066e-20 -2.70701e-20 0)
(1.08908e-20 -2.02318e-20 -1.13642e-38)
(1.18789e-20 -1.56012e-20 -7.75379e-38)
(6.03518e-21 1.22909e-20 3.79777e-40)
(7.3032e-21 7.43247e-21 -1.02664e-37)
(-1.57032e-21 -9.87662e-22 -1.46801e-37)
(-6.66315e-24 -5.32964e-22 -7.99281e-38)
(-1.71989e-22 -2.00657e-23 8.48e-38)
(6.08758e-21 1.34522e-20 0)
(1.00305e-20 -1.92504e-20 0)
(2.14522e-23 -4.30335e-23 0)
(-5.49216e-22 -1.00408e-21 -7.80151e-38)
(4.63085e-21 -7.22058e-21 1.18634e-37)
(-1.33245e-21 -5.36437e-22 1.49292e-37)
(-1.00534e-21 -8.24797e-22 4.22677e-38)
(1.1251e-20 -2.19979e-20 -1.91071e-39)
(7.82987e-21 1.53856e-20 0)
(4.84186e-21 5.68607e-21 -2.58616e-38)
(1.38498e-20 -2.77071e-20 0)
(4.98075e-21 3.99236e-21 -1.13005e-37)
(3.54267e-21 7.73025e-21 -5.38974e-39)
(9.15192e-21 1.78109e-20 0)
(7.32742e-21 1.45939e-20 0)
(-1.10901e-21 -1.19378e-21 -4.23238e-38)
(6.05026e-21 1.1558e-20 0)
(-5.03945e-22 -2.95225e-21 -8.75318e-38)
(7.41212e-21 1.50282e-20 0)
(1.18845e-20 -2.30699e-20 3.92562e-41)
(8.6438e-21 1.74937e-20 4.93286e-38)
(1.84248e-21 3.74412e-21 0)
(1.32213e-20 -2.72633e-20 -6.69883e-40)
(6.54911e-21 1.27058e-20 3.65371e-38)
(6.67961e-21 -1.40762e-20 -8.54068e-39)
(6.14084e-21 -1.13946e-20 1.12025e-38)
(3.71453e-21 7.3123e-21 0)
(4.26605e-21 8.61413e-21 1.48377e-40)
(-1.90122e-21 -1.76229e-21 8.34879e-38)
(3.26474e-23 -1.71723e-22 0)
(-9.25923e-23 -2.86781e-23 -6.59288e-38)
(2.98192e-22 -1.83524e-21 -5.5429e-38)
(3.28079e-21 4.16688e-21 0)
(1.53286e-21 -2.3193e-21 1.00965e-37)
(1.15877e-21 2.18757e-21 2.11562e-40)
(7.09246e-21 -2.15427e-20 0)
(4.70225e-21 1.28722e-20 0)
(4.17968e-21 -6.85343e-21 2.57163e-38)
(3.06835e-21 -5.75459e-21 5.30996e-39)
(1.87427e-21 4.03297e-21 -1.9296e-38)
(-1.34781e-22 -6.25232e-22 -9.02347e-38)
(5.36879e-21 -1.23454e-20 0)
(1.30068e-21 2.59846e-21 -2.8616e-38)
(2.71607e-21 -4.61768e-21 -5.2166e-39)
(-1.8097e-21 -1.01471e-21 -2.09288e-38)
(2.835e-21 5.24989e-21 -5.34407e-40)
(-8.89992e-23 4.32353e-23 -1.26454e-37)
(2.23841e-21 -4.52442e-21 -7.41253e-39)
(1.35755e-21 2.43002e-21 0)
(9.56938e-22 -4.27556e-22 0)
(1.95406e-21 2.46108e-21 0)
(-1.5279e-21 6.93996e-22 4.12365e-38)
(-1.42783e-21 -1.40863e-21 0)
(7.02247e-21 1.56188e-20 2.13085e-40)
(3.83169e-21 -4.76608e-21 9.31133e-38)
(1.84438e-21 -5.13014e-21 0)
(9.11975e-23 6.93202e-22 0)
(8.14111e-21 -2.43008e-20 -7.1498e-40)
(1.54954e-22 -2.93936e-21 7.28714e-38)
(1.02998e-20 1.91901e-20 -2.60956e-38)
(3.35594e-21 -6.13972e-21 1.49825e-38)
(1.38422e-21 -2.18867e-21 -1.31449e-37)
(2.87683e-21 -6.16518e-21 3.87749e-39)
(1.97321e-21 3.12899e-21 -3.37496e-40)
(-1.94068e-23 -3.7374e-22 1.38439e-37)
(-6.22531e-23 -9.33084e-22 -1.8042e-37)
(9.9831e-21 1.0786e-20 1.08223e-37)
(8.43837e-21 -1.79548e-20 2.56757e-39)
(3.842e-21 -1.10366e-20 0)
(1.13415e-21 -2.67688e-21 -3.13197e-39)
(4.03267e-22 -1.33538e-21 4.0703e-40)
(4.80689e-22 -2.3927e-21 0)
(3.13208e-22 1.53216e-21 0)
(6.33803e-21 1.47397e-20 0)
(5.35134e-21 -1.45553e-20 0)
(-2.04735e-21 -1.82055e-21 -4.13858e-38)
(-8.38176e-22 -1.34424e-21 -4.45721e-38)
(-2.02051e-21 -8.3408e-22 8.32655e-38)
(-1.20432e-21 8.06298e-22 4.52476e-38)
(7.26933e-22 1.60164e-21 -1.40071e-43)
(3.19505e-21 7.55954e-21 0)
(-1.66304e-21 3.88853e-22 8.50563e-38)
(5.60543e-21 -1.05611e-20 -3.33062e-41)
(-1.81306e-21 -1.06173e-22 -4.1551e-38)
(-1.91116e-21 -2.80437e-21 0)
(-1.45034e-21 -1.94612e-21 4.26073e-38)
(-1.91371e-21 -7.09944e-22 4.13266e-38)
(2.54482e-21 4.64784e-21 0)
(1.62489e-21 -3.42088e-21 3.79851e-41)
(9.66663e-22 1.97693e-21 -8.2117e-39)
(-3.18732e-23 6.94713e-22 3.38954e-38)
(-1.9218e-22 1.27356e-21 4.21036e-38)
(6.67664e-21 -1.97457e-20 8.12971e-39)
(7.21025e-21 1.52237e-20 0)
(-1.35773e-21 1.32359e-22 -7.46438e-38)
(1.19983e-21 3.35397e-21 -1.30273e-38)
(-1.00746e-22 -8.11726e-22 3.47385e-38)
(-1.28644e-22 -1.33553e-21 -5.30205e-38)
(2.82416e-21 -5.31961e-21 0)
(8.00201e-21 -2.42597e-20 -2.39311e-39)
(-1.89069e-22 -2.77059e-21 1.47173e-37)
(-1.57948e-22 -1.93791e-21 -1.9484e-38)
(-1.4821e-21 9.65836e-22 -8.66654e-38)
(4.59797e-21 1.26452e-20 0)
(-6.34876e-23 -1.42562e-21 -6.52274e-38)
(-7.71395e-23 -1.58161e-21 -6.24534e-38)
(-7.58804e-23 -6.24883e-22 6.78334e-38)
(-1.43761e-22 7.25259e-22 -6.33037e-38)
(7.70274e-21 -2.22206e-20 -3.60654e-39)
(1.5062e-21 -4.61739e-21 0)
(-1.2865e-21 -1.75549e-21 -2.05157e-38)
(-1.78664e-21 -1.81814e-21 -6.25682e-38)
(6.98279e-21 -1.61987e-20 0)
(1.24574e-21 -4.17457e-21 0)
(3.47633e-22 -3.08433e-21 -4.19128e-38)
(3.64625e-21 9.26933e-21 8.88956e-43)
(-1.04979e-21 -4.57408e-22 -1.07187e-37)
(-1.66559e-21 -3.40151e-21 -8.47323e-38)
(6.57128e-21 1.406e-20 0)
(1.23842e-21 3.20895e-21 1.75774e-43)
(2.60737e-21 7.08348e-21 0)
(-1.32794e-21 5.98586e-22 1.25223e-37)
(5.41105e-21 1.09265e-20 0)
(-1.82316e-21 -2.95632e-21 -8.18761e-38)
(-1.70632e-21 -3.06603e-22 8.50429e-38)
(9.14e-24 5.58588e-22 2.23508e-38)
(-1.07643e-21 -5.35259e-22 -1.04387e-37)
(-1.33348e-21 -4.09109e-21 7.54421e-38)
(9.63679e-21 1.82997e-20 0)
(5.45869e-21 1.02746e-20 0)
(1.29196e-20 -2.61315e-20 2.7887e-40)
(-9.14574e-22 -4.20244e-21 -1.13421e-37)
(-6.53437e-22 -3.96237e-22 -2.12852e-38)
(1.17346e-20 1.85775e-20 0)
(-7.23961e-22 -3.02047e-21 4.06364e-38)
(-1.17886e-21 -4.5995e-21 -1.9357e-38)
(4.86026e-21 9.24884e-21 0)
(-2.25686e-22 -4.98392e-22 2.12483e-38)
(-1.00986e-21 -2.10915e-21 2.1524e-40)
(-1.34458e-21 -4.104e-21 6.25302e-38)
(3.07493e-22 -5.3042e-21 0)
(-1.10818e-21 5.03708e-22 0)
(-1.57904e-21 -3.00747e-21 0)
(-1.69804e-21 -2.29031e-21 -8.32808e-38)
(2.82863e-21 -3.9898e-21 1.14806e-37)
(6.40955e-22 -4.73024e-21 -2.13774e-39)
(6.80896e-22 -1.81782e-21 -5.39806e-40)
(1.61576e-20 -2.08705e-20 0)
(1.98893e-20 -1.13352e-20 -4.71001e-38)
(1.13986e-21 2.62293e-21 -8.51704e-39)
(2.02807e-21 -4.54426e-21 3.00352e-40)
(1.24206e-21 2.7723e-21 -1.34538e-38)
(2.2877e-21 -5.00305e-21 -3.21736e-44)
(2.42613e-21 -4.95657e-21 0)
(1.42396e-21 2.85127e-21 9.73873e-39)
(2.40132e-21 -5.00141e-21 0)
(2.74277e-21 -6.09066e-21 0)
(1.51204e-21 3.60345e-21 0)
(2.17989e-21 -1.93913e-21 -3.99723e-38)
(1.53121e-21 3.80584e-21 -2.60823e-38)
(3.75505e-21 -7.01521e-21 8.55778e-39)
(2.97646e-21 6.13186e-21 -4.03407e-40)
(1.05734e-20 -3.58146e-21 -2.07524e-38)
(2.85184e-21 4.48745e-22 0)
(5.99243e-21 -3.26719e-21 8.45887e-38)
(1.89087e-21 -4.8112e-21 0)
(3.66993e-21 -3.05794e-21 4.32633e-38)
(1.85058e-20 -3.70628e-21 0)
(7.75254e-21 -3.56403e-21 1.99848e-38)
(1.89942e-20 -1.71128e-20 1.92121e-37)
(-7.2605e-22 -1.73417e-21 3.82321e-38)
(5.02855e-21 5.51284e-21 0)
(1.10883e-20 -2.39463e-20 -1.01957e-39)
(5.42124e-21 2.71508e-21 1.91744e-38)
(7.73953e-21 8.38388e-21 2.67888e-37)
(1.91477e-20 -1.40697e-20 -5.11716e-38)
(1.18979e-20 1.67608e-20 -6.43086e-38)
(6.36027e-21 -4.01461e-21 4.93212e-38)
(-8.45819e-22 -3.74939e-22 1.03726e-37)
(2.38865e-21 5.4716e-21 0)
(4.16427e-21 -9.28594e-21 -7.65602e-40)
(1.40069e-20 1.99628e-21 3.44693e-38)
(-5.26748e-23 -3.88605e-23 -1.38715e-37)
(4.3835e-21 -9.88353e-21 6.41473e-41)
(2.57841e-21 5.81565e-21 0)
(1.46767e-20 -5.49363e-21 3.57693e-38)
(1.17955e-20 -4.58568e-21 -8.47771e-38)
(1.62204e-20 -3.60772e-21 -1.12514e-37)
(6.43821e-21 -7.05317e-22 2.14469e-38)
(2.90988e-21 7.09547e-21 0)
(4.04683e-21 9.6835e-21 -1.16026e-38)
(3.79935e-21 -8.95729e-21 0)
(-1.49557e-23 -2.76616e-23 0)
(1.96401e-20 -7.80466e-21 0)
(1.89824e-20 -7.25111e-21 -8.58247e-38)
(8.31865e-21 -2.10744e-20 0)
(1.44571e-20 2.24595e-20 -1.2162e-37)
(1.55756e-20 -3.57894e-21 6.15109e-38)
(1.32011e-20 -1.05879e-20 0)
(-2.58738e-22 -5.62564e-21 -3.77977e-38)
(1.84241e-20 -3.87453e-21 -1.97183e-38)
(-1.51576e-22 1.43132e-21 0)
(1.31155e-20 1.85602e-20 -5.52583e-38)
(-4.62696e-23 1.31148e-21 0)
(1.25873e-20 -6.27534e-22 5.91053e-38)
(5.98245e-21 2.0704e-21 0)
(-8.89932e-23 -2.70815e-23 -4.37162e-38)
(1.90174e-20 -5.65037e-22 -1.78909e-38)
(1.93571e-20 -1.64966e-20 -5.99881e-38)
(1.82266e-20 3.30789e-21 5.04603e-38)
(1.50823e-20 -7.63223e-21 2.13188e-38)
(1.7168e-20 -1.24903e-20 0)
(1.90915e-20 -5.30152e-23 1.79841e-38)
(1.30056e-20 1.07396e-20 -1.48129e-38)
(2.8921e-21 -4.48387e-21 0)
(4.96792e-21 1.27343e-20 -5.66109e-39)
(1.76299e-20 6.83256e-21 -5.11028e-38)
(1.75498e-20 -9.37647e-21 1.08424e-37)
(9.89959e-21 -2.13936e-20 2.13009e-39)
(6.37351e-21 1.35732e-20 -2.17022e-38)
(1.28077e-20 -2.64817e-20 2.20446e-41)
(-9.06195e-22 4.59903e-23 0)
(7.58434e-21 1.59099e-20 3.63262e-38)
(-5.64782e-23 8.97841e-22 0)
(1.23824e-20 -2.53694e-20 -1.18464e-39)
(7.81707e-21 1.62412e-20 2.03244e-38)
(6.95193e-21 1.51512e-20 0)
(9.35371e-21 -2.41964e-20 4.22996e-40)
(3.84483e-21 -1.07888e-20 0)
(5.11709e-21 -1.89083e-21 0)
(1.90601e-21 -5.6223e-21 -4.97136e-40)
(9.24332e-21 -2.47744e-20 -5.93556e-40)
(1.27822e-20 1.7542e-20 1.95356e-38)
(6.64445e-21 -3.20693e-21 -8.47167e-38)
(1.14978e-20 -1.4095e-20 3.41426e-38)
(3.68702e-23 -4.75835e-23 0)
(1.15182e-21 2.83922e-21 0)
(1.09277e-20 -2.43804e-20 2.00315e-39)
(9.48737e-21 -2.04872e-20 1.86129e-39)
(1.40739e-20 8.62033e-21 4.60995e-38)
(6.16305e-21 -1.86199e-20 -2.90017e-41)
(1.7975e-20 3.43272e-21 -8.98029e-38)
(1.71871e-20 6.95593e-21 4.20355e-38)
(-8.7865e-22 -2.49744e-21 0)
(-7.37799e-23 -7.68915e-22 -2.35406e-38)
(-6.0656e-22 -4.4766e-21 3.08305e-38)
(1.23553e-20 1.84449e-20 6.70383e-39)
(1.21434e-20 -2.41413e-21 -5.18976e-38)
(-3.41642e-22 -4.1739e-21 -8.26864e-38)
(1.19282e-20 1.57715e-20 5.37092e-38)
(9.38369e-21 1.2607e-20 -7.29163e-38)
(-1.56777e-22 3.49453e-22 0)
(8.16867e-21 1.61707e-20 0)
(-1.64883e-23 -2.51362e-23 0)
(7.12737e-21 1.56858e-20 -2.36062e-38)
(3.85732e-23 -3.58965e-23 3.37954e-38)
(8.27326e-21 1.70551e-20 -4.03153e-38)
(-5.92838e-22 1.24432e-21 0)
(2.46925e-21 3.53212e-23 -2.52332e-38)
(1.93077e-20 -1.08475e-20 4.31611e-38)
(2.39619e-21 -1.07303e-21 0)
(1.42228e-20 1.26592e-20 0)
(7.25737e-21 -1.02797e-20 -1.07774e-37)
(6.60063e-21 5.20997e-21 -7.76396e-38)
(1.31513e-20 2.70105e-21 7.21877e-39)
(3.57022e-21 -1.00179e-20 1.89993e-39)
(6.25509e-21 -3.61767e-21 -5.59355e-38)
(1.46051e-20 -2.42639e-20 -1.32078e-38)
(2.22287e-21 5.88564e-21 7.3364e-39)
(6.95981e-21 -8.20021e-21 0)
(1.52994e-20 1.9243e-21 6.21946e-38)
(9.95188e-21 -2.2511e-20 5.91037e-41)
(-4.71739e-22 -5.55256e-21 -9.88189e-39)
(-1.1041e-22 1.40244e-22 -3.26492e-38)
(3.06367e-21 3.07662e-21 -8.56089e-38)
(-2.28758e-22 -5.94039e-23 -1.04712e-38)
(1.15072e-21 -5.41326e-21 1.21878e-37)
(1.10543e-20 -2.42487e-20 -1.82284e-39)
(1.05255e-20 -2.47792e-20 -2.21541e-39)
(2.6336e-21 -3.71666e-21 2.57809e-38)
(4.57135e-21 -6.44446e-21 -2.2598e-38)
(1.39192e-20 -1.75738e-20 5.64943e-39)
(-5.38424e-22 1.41201e-21 0)
(9.42199e-21 -4.48484e-21 1.36877e-37)
(1.51751e-20 2.07194e-20 0)
(-3.265e-22 -5.00863e-21 1.0327e-37)
(-4.37588e-22 -5.36135e-23 -7.92544e-38)
(7.5926e-21 -2.09611e-20 1.47159e-39)
(4.23831e-22 -5.64099e-21 -3.70955e-38)
(-3.85152e-25 -1.50895e-23 9.43867e-38)
(-1.48689e-22 -1.09142e-22 4.40874e-38)
(1.05708e-20 1.76393e-20 -5.84164e-39)
(-6.46234e-25 -5.91601e-24 0)
(1.20347e-20 1.81872e-20 -1.08752e-38)
(9.39446e-21 -2.34087e-20 -5.88651e-41)
(-3.88573e-23 -3.96936e-22 -9.00595e-38)
(-7.98989e-22 -1.28766e-22 0)
(2.30274e-21 5.41433e-21 2.38226e-38)
(-7.50019e-22 1.02698e-21 -4.45919e-38)
(7.64137e-21 1.59278e-20 2.25183e-38)
(-4.30605e-24 -2.4264e-23 -6.50526e-38)
(1.70672e-23 -2.12958e-23 1.66695e-38)
(1.26088e-20 -2.63257e-20 4.974e-40)
(1.48042e-20 -1.53293e-21 -9.87574e-39)
(6.66215e-21 -1.74142e-20 -2.7992e-39)
(-1.17022e-21 -3.08234e-21 0)
(1.47201e-20 1.42376e-20 -1.24398e-38)
(-2.29971e-22 -9.31975e-23 3.74051e-38)
(4.72426e-21 1.04835e-20 -1.18398e-38)
(-4.19842e-22 -1.507e-21 -2.2006e-38)
(4.32939e-21 1.06907e-20 -7.58121e-39)
(-1.26203e-22 -8.2406e-23 -3.56093e-38)
(-5.99348e-22 -4.11919e-21 1.02326e-38)
(1.43531e-20 -1.67676e-20 0)
(-2.77212e-22 -3.10311e-21 2.20739e-38)
(5.17959e-21 1.21398e-20 1.09125e-38)
(6.19628e-21 1.33541e-20 -4.26078e-38)
(-2.99407e-22 8.64136e-22 0)
(1.22752e-20 -2.53558e-20 -2.18386e-39)
(8.31986e-21 -1.90553e-20 1.48687e-39)
(1.09757e-21 4.30465e-22 7.75545e-38)
(4.2701e-24 -2.19513e-22 -4.48006e-38)
(1.07163e-21 2.47288e-22 -2.19924e-38)
(1.54333e-20 -6.48115e-21 -6.95162e-38)
(3.81179e-21 -4.29936e-21 -9.80071e-38)
(7.04697e-21 -1.64424e-20 6.51515e-41)
(1.07313e-20 -2.30854e-20 8.4277e-40)
(-9.49178e-22 -3.42002e-21 0)
(-3.25112e-22 -5.12538e-21 1.09332e-38)
(-7.65671e-23 -9.38397e-22 -5.82029e-39)
(1.43891e-20 -2.17317e-20 5.03101e-39)
(2.87061e-21 -2.11374e-21 2.68733e-38)
(8.19244e-21 -1.28179e-20 3.066e-39)
(1.28915e-20 -2.66186e-20 1.13838e-39)
(-1.88372e-22 1.82468e-22 1.33958e-37)
(-8.55592e-22 -5.08728e-21 4.2965e-38)
(1.41471e-20 -1.23561e-20 5.52101e-38)
(4.63819e-21 6.1917e-21 0)
(1.75251e-22 1.36498e-21 -5.01543e-38)
(5.75575e-21 1.24856e-20 1.39595e-38)
(1.05801e-20 1.2266e-20 3.56557e-38)
(-6.14533e-23 -3.02491e-23 4.40423e-38)
(4.22798e-23 -3.38017e-23 -4.67064e-38)
(1.10044e-20 -9.26044e-21 0)
(6.69535e-21 -1.06058e-20 -4.36316e-38)
(8.4289e-21 -1.87823e-20 -7.12778e-40)
(7.24424e-21 -7.90206e-21 0)
(-9.79755e-22 1.4399e-21 -4.62231e-38)
(9.29951e-23 1.66912e-21 1.1736e-38)
(1.34406e-20 1.22845e-20 1.59684e-38)
(1.69544e-20 -2.23399e-20 -4.26514e-38)
(8.19221e-21 -1.9632e-20 6.17345e-41)
(2.00251e-20 -1.61492e-20 5.39381e-38)
(7.79314e-21 1.55481e-20 -4.19909e-38)
(1.03499e-20 -2.3692e-20 0)
(8.73018e-21 1.28678e-20 0)
(1.99212e-20 -1.3417e-20 0)
(1.00778e-20 -1.7161e-21 3.49172e-38)
(1.61067e-20 -2.78738e-20 0)
(6.76557e-22 -4.96634e-21 -6.6401e-38)
(-1.0545e-21 -4.02045e-21 4.56703e-38)
(-5.98811e-22 -1.55229e-22 -1.19778e-38)
(-4.44462e-22 -1.97462e-22 -4.82929e-38)
(3.49587e-21 7.58784e-21 6.11961e-40)
(7.2457e-21 -1.61325e-20 1.53942e-39)
(-8.30698e-23 -5.34823e-23 -1.11884e-38)
(6.83356e-23 -1.07065e-22 1.41272e-37)
(1.95905e-21 -5.2139e-23 -2.53095e-38)
(-2.13266e-23 -1.87495e-22 1.53107e-40)
(1.01684e-20 3.0302e-22 -7.00841e-39)
(-3.09166e-23 -5.2264e-23 1.22347e-38)
(5.8412e-23 -5.00867e-23 -8.1767e-38)
(7.33648e-21 1.5409e-20 0)
(1.37844e-20 1.3917e-20 0)
(1.78012e-20 -1.17917e-20 -6.28143e-38)
(7.50729e-21 2.35436e-22 0)
(1.53904e-20 1.62213e-20 1.34177e-38)
(9.6467e-22 7.76302e-22 0)
(1.14218e-20 1.69387e-20 2.89714e-39)
(1.10274e-20 1.38635e-20 1.03702e-38)
)
;

boundaryField
{
    front
    {
        type            empty;
    }
    back
    {
        type            empty;
    }
    bottom
    {
        type            zeroGradient;
    }
    left
    {
        type            noSlip;
    }
    top
    {
        type            uniformFixedValue;
        uniformValue    
        {
            type            scale;
            scale           
            {
                type            squarePulse;
                start           0.3;
                duration        0.3;
            }
            xScale          
            {
                type            constant;
                value           1;
            }
            value           
            {
                type            constant;
                value           (0 -0.7 0);
            }
        }
        value           uniform (0 -0 0);
    }
    right
    {
        type            noSlip;
    }
    inner_arc
    {
        type            noSlip;
    }
}


// ************************************************************************* //
