/*--------------------------------*- C++ -*----------------------------------*\
  =========                 |
  \\      /  F ield         | OpenFOAM: The Open Source CFD Toolbox
   \\    /   O peration     | Website:  https://openfoam.org
    \\  /    A nd           | Version:  9
     \\/     M anipulation  |
\*---------------------------------------------------------------------------*/
FoamFile
{
    format      ascii;
    class       volVectorField;
    location    "1";
    object      U;
}
// * * * * * * * * * * * * * * * * * * * * * * * * * * * * * * * * * * * * * //

dimensions      [0 1 -1 0 0 0 0];

internalField   nonuniform List<vector> 
578
(
(-0.0363 -0.0431 0)
(-0.0193 -0.0653 2.7e-16)
(-0.0543 -0.064 -9.59e-17)
(0.0036 -0.0708 -2.29e-17)
(0.0118 -0.0263 -4.3e-17)
(0.00457 -0.0929 -8.48e-17)
(-0.0123 -0.0269 4.28e-17)
(0.0133 -0.0244 -2.08e-20)
(0.0597 -0.0899 -1.87e-16)
(-0.0114 -0.0409 4.01e-16)
(0.0058 -0.101 -1.26e-16)
(0.0385 -0.075 0)
(0.00935 -0.0872 9.32e-17)
(0.0394 -0.0822 -7.24e-16)
(-0.0401 -0.0831 3.64e-16)
(0.07 -0.0751 -8.75e-17)
(-0.0455 -0.0415 3.9e-16)
(-0.0732 -0.0622 0)
(0.0353 -0.0685 0)
(0.0652 -0.0878 1.34e-16)
(0.00326 -0.0799 0)
(0.0557 -0.0689 0)
(0.0308 -0.0274 -4.64e-16)
(0.000215 -0.0738 0)
(-0.000989 -0.0587 0)
(0.0337 -0.0683 3.68e-16)
(-0.00329 -0.0677 -4.65e-17)
(-0.000248 -0.0337 2.5e-17)
(-0.0169 -0.0782 -4.46e-16)
(0.0721 -0.078 3.57e-16)
(-0.001 -0.0582 -4.29e-16)
(0.00427 -0.0765 9.2e-17)
(0.077 -0.0829 -3.44e-16)
(-0.0012 -0.0795 1.81e-16)
(-0.0352 -0.0748 -3.6e-16)
(0.0617 -0.0653 -5.42e-16)
(0.0345 -0.0734 7.08e-16)
(0.0325 -0.0631 0)
(-0.0695 -0.0756 -3.55e-16)
(0.0189 -0.0403 0)
(0.0193 -0.0438 -3.51e-16)
(0.0222 -0.04 4.21e-16)
(0.0195 -0.0378 0)
(-0.0356 -0.0732 0)
(0.0542 -0.0528 4.61e-17)
(-0.0195 -0.0414 0)
(-0.0198 -0.045 3.51e-16)
(0.054 -0.0826 -4.63e-17)
(-0.0692 -0.0755 5.3e-16)
(-0.00568 -0.0806 -9.75e-17)
(0.000738 -0.0353 1.37e-17)
(0.0139 -0.0901 -3.93e-16)
(0.0459 -0.033 -1.91e-16)
(-0.0014 -0.0805 0)
(0.00151 -0.0811 3.21e-16)
(-0.0043 -0.0975 7.77e-16)
(0.012 -0.0105 7.43e-16)
(0.0364 -0.0301 -3.77e-16)
(-0.0598 -0.0594 -6.79e-16)
(0.0397 -0.0426 1.98e-16)
(-0.0706 -0.0674 3.58e-16)
(-0.0381 -0.0266 0)
(-0.0578 -0.0443 5.14e-17)
(0.0354 -0.0732 3.37e-16)
(-0.0046 -0.0892 8.96e-17)
(-0.0444 -0.0837 1.99e-16)
(0.0733 -0.0856 -4.14e-17)
(0.0102 -0.0978 2.97e-16)
(0.0786 -0.0736 -1.7e-16)
(0.0393 -0.0839 3.96e-16)
(0.000438 -0.0623 0)
(0.00132 -0.063 -1.29e-17)
(0.000154 -0.0862 -9.71e-17)
(0.0402 -0.0855 0)
(0.00159 -0.108 1.8e-16)
(0.0117 -0.0247 0)
(0.0526 -0.0763 2.39e-16)
(0.0433 -0.062 -1.96e-16)
(0.00573 -0.0901 0)
(-0.0358 -0.0385 -1.04e-16)
(0.0362 -0.074 -3.36e-16)
(-0.0178 -0.0257 -3.63e-16)
(0.0108 -0.0251 -1.65e-16)
(0.0178 -0.0252 1.67e-16)
(-0.0702 -0.0865 -4.81e-17)
(-0.0142 -0.041 0)
(0.000657 -0.0206 0)
(-0.00413 -0.107 -2.85e-16)
(0.0286 -0.0634 9.81e-21)
(-0.0306 -0.0702 3.2e-18)
(-0.00241 -0.0739 0)
(-0.0608 -0.0785 9.75e-17)
(-0.029 -0.0648 0)
(0.013 -0.0971 1.74e-16)
(0.0735 -0.0757 5.29e-16)
(0.0528 -0.0699 -4.53e-16)
(0.000134 -0.0822 9.57e-17)
(0.00526 -0.0827 -6.86e-16)
(-0.0039 -0.0246 -7.16e-16)
(-0.0399 -0.0834 0)
(-0.0418 -0.0747 0)
(0.0369 -0.0813 -6.25e-16)
(-0.0138 -0.0946 0)
(-0.0546 -0.0575 0)
(-0.00447 -0.0815 0)
(0.0392 -0.0825 -5.39e-16)
(0.00222 -0.0978 -1.89e-16)
(0.0197 -0.0426 0)
(-0.00838 -0.0229 0)
(0.0221 -0.0444 -4.37e-16)
(0.0615 -0.0711 -1.46e-16)
(0.0376 -0.08 0)
(0.0697 -0.0847 4.01e-16)
(0.0606 -0.0722 -3.23e-16)
(0.0633 -0.0744 3.36e-16)
(-0.0138 -0.0905 3.89e-16)
(0.00603 -0.0801 2.02e-16)
(-0.0499 -0.0771 -2.96e-16)
(-0.0269 -0.0607 5.15e-17)
(-0.00516 -0.0827 3.39e-16)
(0.0278 -0.056 -3.51e-16)
(0.0279 -0.0422 -1.19e-21)
(0.0382 -0.0768 -3.82e-16)
(0.00167 -0.065 -5.13e-17)
(0.0235 -0.0405 0)
(-0.0325 -0.082 3.95e-16)
(0.0244 -0.0751 -3.75e-16)
(0.0752 -0.0765 -1.92e-16)
(-0.0408 -0.0863 1.98e-16)
(-0.0266 -0.0819 0)
(-0.0403 -0.0819 0)
(-0.0317 -0.0833 0)
(0.0111 -0.0937 0)
(0.00808 -0.0163 3.71e-16)
(-0.0397 -0.0843 -3.69e-16)
(-0.0406 -0.0695 0)
(0.0338 -0.0634 0)
(-0.00835 -0.0866 -3.33e-16)
(0.0496 -0.0732 3.76e-16)
(-0.035 -0.0686 0)
(-0.0182 -0.0342 4.53e-16)
(-0.0275 -0.0823 0)
(-0.0302 -0.0585 0)
(-0.000287 -0.0623 0)
(0.0159 -0.0311 0)
(-0.0733 -0.0827 9.84e-21)
(-0.0247 -0.0573 4.16e-16)
(-0.00657 -0.0514 0)
(0.0406 -0.0838 4e-16)
(-0.0264 -0.0763 0)
(0.0487 -0.0902 0)
(-0.0186 -0.0262 0)
(0.018 -0.0178 0)
(0.014 -0.0283 4.44e-16)
(-0.0438 -0.0878 -3.71e-16)
(-0.00577 -0.0704 -2.06e-16)
(-0.0197 -0.0885 4e-16)
(0.0116 -0.0792 -9.17e-17)
(-0.0155 -0.0153 -8.95e-17)
(0.0512 -0.091 -3.16e-16)
(0.044 -0.0831 4.45e-16)
(0.0413 -0.0734 4.62e-16)
(-0.0099 -0.0188 -5.68e-18)
(0.0445 -0.08 0)
(-0.000123 -0.019 2e-20)
(-0.0287 -0.0726 5.38e-21)
(-0.000199 -0.0349 -4.47e-16)
(-0.0391 -0.0756 0)
(0.00766 -0.0527 -1.01e-16)
(-0.00557 -0.103 -1.64e-16)
(0.0429 -0.0708 0)
(0.0203 -0.0366 0)
(-0.0244 -0.0416 0)
(-0.014 -0.0283 -4.47e-16)
(-0.0341 -0.0644 0)
(-0.0052 -0.095 -9.2e-17)
(-0.00027 -0.0985 -9.31e-17)
(-0.048 -0.0729 3.43e-16)
(0.0266 -0.0451 5.03e-17)
(-0.00216 -0.0638 2.11e-16)
(-0.0209 -0.0375 0)
(-0.0367 -0.0643 0)
(-0.0215 -0.0661 0)
(0.00528 -0.0958 6.9e-16)
(-0.0486 -0.0782 2.51e-16)
(-0.00496 -0.038 -3.33e-16)
(0.0249 -0.03 -1.69e-16)
(-0.0417 -0.0866 8.95e-17)
(-0.0459 -0.0903 3.88e-16)
(-0.00105 -0.0362 -4.51e-16)
(0.0449 -0.089 -3.84e-16)
(0.0379 -0.0706 0)
(0.0381 -0.0491 4.28e-16)
(-0.0361 -0.0682 0)
(-0.0242 -0.0417 0)
(-0.00143 -0.111 1.78e-16)
(0.00287 -0.0419 8.53e-16)
(-0.00283 -0.0414 -6.82e-16)
(-0.0381 -0.071 0)
(0.0355 -0.0674 0)
(0.00589 -0.0396 -3.28e-16)
(0.00903 -0.0992 -8.72e-16)
(0.0137 -0.0422 -2.11e-16)
(-0.0041 -0.108 0)
(-0.000974 -0.104 -2.81e-16)
(0.039 -0.0751 0)
(-0.0442 -0.0803 0)
(-0.0451 -0.0536 0)
(0.046 -0.0907 3.95e-16)
(-0.0224 -0.0255 0)
(-0.0197 -0.0456 4.21e-16)
(-0.0469 -0.0921 -3.81e-16)
(-0.0375 -0.0796 -1.24e-17)
(0.00246 -0.107 9.17e-17)
(-0.0328 -0.0664 -2.1e-16)
(0.00135 -0.0726 0)
(-0.0416 -0.0799 -4.02e-16)
(0.0409 -0.079 4.02e-16)
(-0.0446 -0.0905 3.93e-16)
(-0.0111 -0.0239 -4.59e-16)
(0.0437 -0.0893 2.01e-16)
(-0.0372 -0.0722 0)
(0.0238 -0.0503 -4.15e-16)
(0.0227 -0.0428 0)
(-0.0222 -0.0412 0)
(-0.024 -0.0503 8.34e-16)
(3.58e-05 -0.115 -8.97e-17)
(0.00264 -0.0253 3.93e-20)
(-0.00207 -0.025 1.76e-16)
(-0.000322 -0.0191 3.55e-16)
(-0.0094 -0.0231 -3.6e-16)
(0.00463 -0.0225 -1.82e-16)
(-0.00805 -0.0162 -3.69e-16)
(0.023 -0.0726 0)
(-0.0234 -0.0738 0)
(0.0164 -0.0263 1.28e-16)
(0.0124 -0.0237 0)
(-0.0127 -0.0238 0)
(0.0158 -0.0938 1.46e-16)
(0.0194 -0.0453 0)
(-0.0112 -0.0204 0)
(0.0112 -0.0194 0)
(-0.0014 -0.113 -3.64e-16)
(-0.019 -0.0356 0)
(-0.00136 -0.0218 6.92e-16)
(0.009 -0.0179 0)
(-0.0096 -0.0181 -3.58e-16)
(-0.00357 -0.0403 8.37e-16)
(-0.0135 -0.0218 0)
(-0.00186 -0.0998 -9.07e-17)
(0.00142 -0.11 8.99e-17)
(-0.0359 -0.0835 0)
(0.00676 -0.0667 0)
(0.007 -0.0203 -3.58e-18)
(0.000585 -0.0182 0)
(0.0269 -0.081 3.94e-16)
(-0.00041 -0.0357 4.45e-16)
(-0.0516 -0.0922 -6.08e-16)
(0.0133 -0.024 0)
(0.00403 -0.0397 4.49e-16)
(0.0111 -0.0238 4.55e-16)
(-0.0118 -0.0211 3.62e-16)
(0.000766 -0.0217 -7.07e-16)
(0.00109 -0.039 4.77e-16)
(-0.0329 -0.0718 3.04e-16)
(0.0292 -0.0629 7.53e-16)
(0.0138 -0.0404 0)
(0.00489 -0.0116 -3.67e-16)
(-0.000919 -0.0201 -3.63e-16)
(0.00211 -0.00916 0)
(-0.00215 -0.00923 0)
(-0.0323 -0.0796 -3.84e-16)
(0.0188 -0.0521 0)
(-0.000234 -0.117 -2.63e-16)
(0.00635 -0.104 -1.93e-16)
(-0.00105 -0.115 -5.31e-16)
(-0.00236 -0.089 2.05e-16)
(-0.00493 -0.0116 0)
(-0.0229 -0.042 0)
(-0.000937 -0.107 -4.65e-16)
(0.0216 -0.0408 0)
(-0.00189 -0.11 8.01e-16)
(0.000313 -0.116 0)
(0.00288 -0.11 -9e-17)
(-0.000816 -0.115 1.8e-16)
(-0.016 -0.0312 -4.36e-16)
(0.00675 -0.0137 -7.27e-16)
(-0.00677 -0.0137 3.67e-16)
(-0.000487 -0.0149 0)
(0.000222 -0.0345 -4.45e-16)
(0.0225 -0.0677 0)
(-0.0368 -0.0822 1.22e-17)
(-0.00393 -0.102 1.64e-16)
(-0.0132 -0.023 0)
(0.000384 -0.018 0)
(0.000948 -0.0363 5.51e-17)
(0.0115 -0.0209 -3.63e-16)
(0.0261 -0.0807 -9.71e-16)
(-0.000161 -0.0364 1.02e-16)
(0.000315 -0.0367 -3.97e-16)
(-0.00125 -0.0979 4.77e-16)
(-0.023 -0.069 0)
(-1.94e-05 -0.0212 3.53e-16)
(-5.53e-05 -0.018 0)
(0.000631 -0.0209 0)
(2.46e-05 -0.0222 6.69e-16)
(0.0259 -0.0751 3.87e-16)
(-0.00187 -0.0764 -9.2e-16)
(-0.000441 -0.118 -3.49e-16)
(-0.000436 -0.118 0)
(0.0244 -0.0569 2.1e-16)
(-0.000856 -0.116 2.63e-16)
(-0.0004 -0.119 -5.56e-16)
(-0.0191 -0.0525 0)
(-0.000579 -0.114 3.61e-16)
(0.00118 -0.11 3.72e-16)
(-0.0341 -0.0766 0)
(-0.00706 -0.0204 0)
(-0.014 -0.0408 0)
(-0.000879 -0.106 -4.46e-16)
(-0.0294 -0.0624 -4.2e-16)
(4.3e-05 -0.117 7.25e-16)
(-0.00264 -0.11 9.27e-17)
(0.000523 -0.103 -2.89e-16)
(-0.00501 -0.105 3.68e-16)
(0.000386 -0.113 -1.71e-16)
(-0.0493 -0.0915 3.64e-16)
(-0.032 -0.0609 0)
(0.043 -0.0865 0)
(8.77e-05 -0.114 6.69e-16)
(-0.00988 -0.0975 9.44e-17)
(-0.0557 -0.0906 -1.45e-16)
(-0.000266 -0.118 1.77e-16)
(0.000713 -0.104 -3.63e-16)
(-0.0277 -0.0554 6.25e-16)
(-6.33e-05 -0.113 1.83e-16)
(0.00517 -0.104 -1.69e-16)
(0.000882 -0.103 -3.78e-16)
(-0.000461 -0.0763 0)
(-0.00236 -0.0903 0)
(0.00196 -0.108 -1.84e-16)
(0.00181 -0.112 2.72e-16)
(-0.000867 -0.116 2.63e-16)
(-0.000795 -0.0659 3.76e-16)
(-0.000173 -0.117 2.66e-16)
(0.0497 -0.0664 -1.07e-16)
(0.0275 -0.0774 2.11e-16)
(-0.00806 -0.0185 -3.65e-16)
(0.00768 -0.0176 9.26e-17)
(-0.00891 -0.0201 3.61e-16)
(0.00899 -0.0199 0)
(0.00918 -0.0191 3.68e-16)
(-0.00934 -0.0194 1.84e-16)
(-0.00169 -0.103 -1.81e-16)
(0.00988 -0.0223 0)
(-0.0101 -0.0234 0)
(4.17e-05 -0.116 -2.66e-16)
(-0.0117 -0.0243 -3.56e-16)
(0.0142 -0.026 0)
(-0.0143 -0.0266 0)
(-0.00136 -0.113 -2.88e-16)
(-0.0118 -0.0111 0)
(-8.91e-05 -0.116 8.95e-17)
(0.00784 -0.0192 4.09e-16)
(-0.000354 -0.117 -9.26e-17)
(0.000517 -0.0961 -3.9e-16)
(-0.00135 -0.115 9.23e-17)
(0.0396 -0.0782 3.87e-16)
(0.00727 -0.101 1.62e-16)
(-0.0326 -0.0299 0)
(0.036 -0.0786 0)
(-0.0332 -0.0218 -4.5e-17)
(-0.0524 -0.0539 3.75e-16)
(0.0303 -0.0828 -1.95e-16)
(-0.0764 -0.0851 -2.01e-16)
(0.0329 -0.0202 3.44e-16)
(-0.00873 -0.101 -9.32e-17)
(-0.0156 -0.0355 -4.63e-16)
(0.0154 -0.0345 3.31e-16)
(-0.0258 -0.0499 -4.28e-16)
(-0.00127 -0.081 -3.31e-16)
(0.0161 -0.0362 -2.31e-16)
(-0.0163 -0.0366 0)
(0.00342 -0.107 -4.53e-16)
(0.00146 -0.111 2.67e-16)
(-0.000995 -0.104 5.5e-16)
(-0.00159 -0.0193 -4.73e-16)
(-0.0199 -0.0434 4.3e-16)
(-0.0224 -0.0443 0)
(0.0141 -0.0333 -2.84e-16)
(0.00421 -0.0812 1.64e-16)
(0.0151 -0.0813 0)
(0.00976 -0.0916 3.88e-16)
(0.0282 -0.0718 -1.88e-16)
(-0.0797 -0.0775 3.4e-16)
(0.0102 -0.0534 1.99e-16)
(0.0619 -0.0447 3.37e-18)
(-0.000324 -0.0987 4.88e-16)
(0.00542 -0.0716 4.15e-16)
(-0.00105 -0.0314 4.63e-16)
(-0.0748 -0.0793 -6.71e-16)
(0.0011 -0.0335 -4.22e-16)
(-0.00617 -0.0369 2.21e-16)
(-0.0106 -0.0784 3.01e-16)
(-0.0126 -0.0847 0)
(-0.00816 -0.0895 0)
(0.0729 -0.0602 0)
(-0.0236 -0.0679 6.09e-16)
(0.00873 -0.101 -4.68e-16)
(0.0221 -0.0889 -3.82e-16)
(-0.00834 -0.0778 -7.82e-16)
(-0.0373 -0.0799 9.62e-17)
(-0.00285 -0.094 4.98e-21)
(-0.0274 -0.073 -8.02e-16)
(-0.0338 -0.0765 -9.72e-17)
(0.0143 -0.0953 9.38e-17)
(0.0322 -0.0705 -4.26e-16)
(-0.0326 -0.0719 -2.14e-16)
(0.041 -0.0863 0)
(-0.00775 -0.0955 9.25e-17)
(-0.0379 -0.0828 5.01e-17)
(0.000151 -0.0177 -1.67e-20)
(0.0413 -0.0842 0)
(-0.0399 -0.0821 5.2e-16)
(-0.0358 -0.0811 0)
(0.0313 -0.0804 -2.01e-16)
(0.0138 -0.0404 5.68e-16)
(-0.00619 -0.089 -4.32e-16)
(0.00788 -0.0224 -3.39e-16)
(0.0307 -0.082 0)
(-0.065 -0.0874 0)
(0.00128 -0.113 -1.8e-16)
(0.047 -0.0525 -1.02e-16)
(0.0114 -0.0837 0)
(-0.00873 -0.0205 -1.78e-16)
(0.0362 -0.0816 -1.97e-16)
(0.0316 -0.0688 0)
(-0.0281 -0.0862 -3.83e-16)
(0.021 -0.0648 0)
(-0.0155 -0.0929 3.91e-16)
(-0.0258 -0.0864 -3e-16)
(0.00357 -0.0958 0)
(0.00993 -0.0829 2.09e-16)
(0.000245 -0.0774 0)
(-0.0601 -0.0912 0)
(-0.00448 -0.109 3.78e-16)
(-0.000551 -0.062 -3.21e-16)
(-0.0542 -0.0718 -3.83e-16)
(-0.0444 -0.0655 5.43e-16)
(0.000756 -0.0173 0)
(-0.042 -0.0852 1.03e-16)
(-0.0109 -0.082 0)
(-0.0369 -0.0807 1.37e-21)
(0.00967 -0.0814 1.59e-16)
(-0.0432 -0.0889 -3.72e-16)
(-0.00142 -0.0643 0)
(-0.00556 -0.0641 -6.65e-18)
(0.0362 -0.0649 1.93e-16)
(0.000498 -0.109 5.75e-16)
(-0.0584 -0.0756 0)
(0.0172 -0.0642 4.15e-16)
(-0.0251 -0.0281 2.13e-16)
(-0.0141 -0.0968 -1.47e-16)
(0.0143 -0.0382 -2.59e-16)
(-0.00223 -0.113 9.28e-17)
(0.0508 -0.0797 -1.35e-20)
(-0.0153 -0.0399 0)
(0.0249 -0.0269 -2.18e-16)
(-0.0117 -0.0992 1.95e-16)
(0.0335 -0.0761 -6.03e-16)
(0.000475 -0.0911 -4.28e-16)
(-0.00114 -0.0179 0)
(-0.0125 -0.0166 0)
(-0.00989 -0.0756 2.02e-16)
(-0.000629 -0.102 -3.97e-16)
(0.0361 -0.0795 1.91e-16)
(0.0348 -0.0819 4.03e-16)
(0.0104 -0.0136 1.78e-16)
(0.0194 -0.0258 8.75e-17)
(0.0485 -0.0565 1.72e-16)
(0.000487 -0.0932 0)
(0.00309 -0.11 1.88e-16)
(-0.0757 -0.079 -2.88e-16)
(-0.000819 -0.11 -8.88e-16)
(-0.00912 -0.0815 1.62e-16)
(0.0262 -0.0712 2.08e-16)
(-5.84e-05 -0.0929 3.02e-16)
(-0.00212 -0.0407 0)
(-0.0164 -0.0885 0)
(-0.0531 -0.0841 -1.91e-16)
(0.00223 -0.041 -1.63e-16)
(-0.0699 -0.087 4.74e-17)
(0.0315 -0.0786 2.4e-17)
(0.0174 -0.0906 5.01e-17)
(-0.00994 -0.0982 -1.93e-16)
(-0.015 -0.0352 4.51e-16)
(-0.00153 -0.0713 2.13e-16)
(-0.0387 -0.084 1.92e-16)
(-0.00671 -0.0782 1.58e-16)
(0.00638 -0.0788 0)
(0.0405 -0.0853 -2.03e-16)
(-0.00568 -0.105 -3.82e-16)
(0.0239 -0.0608 0)
(0.00257 -0.0991 5.69e-16)
(-0.0691 -0.0739 1.09e-16)
(-0.0157 -0.0897 0)
(-0.0266 -0.0598 2.22e-16)
(0.00916 -0.0936 0)
(-0.0254 -0.0629 4.17e-16)
(-0.02 -0.0895 0)
(0.00103 -0.0769 3.87e-16)
(0.0392 -0.0648 0)
(0.00134 -0.0616 -4.22e-16)
(-0.0278 -0.0646 -2.31e-16)
(-0.0328 -0.072 -5.38e-17)
(0.000227 -0.0362 -4.21e-16)
(0.0395 -0.0825 2.07e-16)
(0.0277 -0.0636 0)
(0.000839 -0.071 0)
(0.0212 -0.0895 3.98e-16)
(0.000559 -0.101 -2.83e-16)
(0.027 -0.0494 -3.36e-16)
(-0.00144 -0.112 9.34e-17)
(0.0247 -0.0571 0)
(0.0349 -0.0763 2.2e-16)
(0.0013 -0.0896 -5.38e-16)
(-1.81e-05 -0.0723 2.76e-16)
(0.0056 -0.0687 -2.17e-16)
(0.0531 -0.0742 9.96e-17)
(-0.00469 -0.0735 2.19e-16)
(0.0312 -0.0471 0)
(0.0427 -0.0874 0)
(-0.00218 -0.036 -4.13e-16)
(0.000287 -0.0938 0)
(0.0214 -0.0863 4.61e-16)
(-0.0248 -0.0373 -2.29e-16)
(0.000916 -0.0579 0)
(-0.031 -0.0688 -2.72e-16)
(-0.0489 -0.0576 -2.63e-17)
(-0.0119 -0.0661 4.42e-16)
(0.013 -0.0672 8.71e-20)
(0.0147 -0.0884 -2.55e-17)
(0.0257 -0.0382 0)
(0.0285 -0.064 2.31e-16)
(0.0125 -0.0749 0)
(-0.000881 -0.0951 -2.03e-16)
(0.000422 -0.0721 0)
(-0.0515 -0.0712 0)
(0.063 -0.0761 -9.88e-17)
(0.0284 -0.0672 2.15e-16)
(0.0673 -0.0611 2.78e-17)
(-0.0414 -0.0829 -1.11e-16)
(0.0342 -0.0788 -1.93e-16)
(-0.0514 -0.0753 1.01e-16)
(0.048 -0.0633 -1.1e-16)
(-0.00624 -0.106 -9.5e-17)
(0.055 -0.0899 -2.6e-16)
(-0.000887 -0.111 1.09e-16)
(0.00102 -0.0918 1.07e-16)
(-0.012 -0.0929 5.61e-17)
(-0.0148 -0.0942 0)
(-0.0305 -0.0483 0)
(0.0249 -0.0558 -4.84e-16)
(-0.0208 -0.0857 0)
(0.0217 -0.0863 -2.08e-16)
(0.000848 -0.0872 0)
(0.016 -0.0873 2.13e-16)
(-0.00993 -0.0986 1.42e-16)
(-0.023 -0.0871 -2.27e-16)
(0.0225 -0.087 -2.28e-16)
(-0.0375 -0.0813 2.1e-16)
(-0.0583 -0.0718 0)
(0.0571 -0.0503 -1.55e-16)
(-0.00979 -0.0908 -4.45e-16)
(-0.0706 -0.0767 1.11e-16)
(0.000681 -0.0891 0)
(-0.0676 -0.0802 2.3e-16)
(-0.0579 -0.0655 0)
)
;

boundaryField
{
    front
    {
        type            empty;
    }
    back
    {
        type            empty;
    }
    bottom
    {
        type            zeroGradient;
    }
    left
    {
        type            noSlip;
    }
    top
    {
        type            uniformFixedValue;
        uniformValue    
        {
            type            table;
            format          csv;
            file            "inlet_v.csv";
            nHeaderLine     1;
            refColumn       0;
            componentColumns List<label> 3(1 2 3);
            separator       ",";
            mergeSeparators 0;
        }
        value           uniform (0 -0.08 0);
    }
    right
    {
        type            noSlip;
    }
    inner_arc
    {
        type            noSlip;
    }
}


// ************************************************************************* //
