/*--------------------------------*- C++ -*----------------------------------*\
  =========                 |
  \\      /  F ield         | OpenFOAM: The Open Source CFD Toolbox
   \\    /   O peration     | Website:  https://openfoam.org
    \\  /    A nd           | Version:  9
     \\/     M anipulation  |
\*---------------------------------------------------------------------------*/
FoamFile
{
    format      ascii;
    class       volVectorField;
    location    "1";
    object      U;
}
// * * * * * * * * * * * * * * * * * * * * * * * * * * * * * * * * * * * * * //

dimensions      [0 1 -1 0 0 0 0];

internalField   nonuniform List<vector> 
1638
(
(0.00144005 -0.0323019 1.45717e-17)
(0.00257089 -0.0177812 -3.69648e-17)
(0.0033385 -0.054299 3.37652e-17)
(-8.63609e-05 -0.0876507 1.97158e-17)
(-0.000391069 -0.0806374 2.20474e-18)
(-0.0260787 -0.0503261 3.93976e-17)
(-0.012597 0.00992692 0)
(0.0428995 -0.078501 -4.92838e-18)
(-0.0154222 -0.0333243 2.65536e-17)
(0.00125925 -0.07235 -4.07871e-17)
(0.000895806 -0.0774252 8.48712e-18)
(-0.000525598 -0.0331465 0)
(0.0190478 -0.0288578 3.01804e-17)
(0.0380902 -0.0491958 3.5833e-17)
(-0.00207316 -0.0390402 -2.09197e-18)
(-0.0281423 -0.0559521 -3.01518e-17)
(0.00168272 -0.0533734 4.01923e-21)
(-0.000724342 -0.0763925 -8.64374e-18)
(-0.0395771 -0.0880589 8.90566e-18)
(-0.048234 -0.0944054 -3.70698e-17)
(-0.00229459 0.0261985 4.1681e-18)
(0.0352785 -0.117545 -3.98912e-18)
(0.0532904 -0.088726 1.89966e-17)
(0.00180206 -0.0384935 1.36205e-17)
(0.0406015 -0.0141711 -3.46846e-17)
(0.00207158 -0.038664 2.01657e-18)
(0.0041499 -0.0559198 0)
(0.017649 -0.0360084 -5.80242e-17)
(-0.00846896 0.0178717 -1.67018e-17)
(0.00492488 -0.0482683 4.78776e-17)
(-0.000642582 -0.0131116 0)
(0.00196726 -0.0581175 -1.74409e-17)
(0.00269553 -0.0430107 -4.08317e-17)
(-0.00189259 -0.0611144 3.59179e-17)
(0.0330203 -0.0210474 9.99167e-18)
(-0.0097054 -0.0363233 -3.82135e-17)
(0.000930674 -0.0240536 -1.97333e-17)
(0.000339169 -0.0234289 3.15467e-17)
(-0.0483716 -0.10043 2.23852e-18)
(0.0687864 -0.0819389 2.66357e-18)
(0.0129729 0.0130917 3.16182e-17)
(0.00134042 -0.0316142 -3.01201e-17)
(-0.000114535 -0.0339256 -1.78583e-17)
(0.0055434 -0.0186301 -2.04086e-17)
(0.000111917 -0.0870374 -3.2158e-17)
(0.0219679 -0.0735654 3.93346e-17)
(-0.000582745 -0.0208913 1.00353e-16)
(-0.0418222 -0.0864203 0)
(0.0435732 -0.0200369 0)
(-0.0465491 -0.0958141 -2.55337e-17)
(-0.0326447 -0.0701645 0)
(0.00344047 -0.0522474 -3.17004e-17)
(-0.00786125 -0.0326066 2.74369e-22)
(0.0346507 -0.0788564 0)
(-0.042679 -0.102445 -1.7377e-17)
(0.000714848 -0.07388 2.49315e-17)
(-0.0477524 -0.109933 0)
(0.000392353 -0.0738188 2.24166e-17)
(0.00382298 -0.0490668 -3.35027e-17)
(-0.000173908 -0.0764481 1.89172e-17)
(-0.0231608 -0.0335407 -2.20051e-17)
(-0.00366182 -0.0480155 4.59748e-18)
(-0.020412 -0.0474595 0)
(0.050655 -0.081437 0)
(-0.0238922 -0.104845 0)
(0.00991145 -0.0490352 0)
(0.00356796 -0.0402654 0)
(-0.0147147 -0.0965136 0)
(-0.0347877 -0.0756093 5.46819e-17)
(-0.0309956 -0.0798961 1.77125e-17)
(0.000667873 -0.0277443 3.46919e-17)
(0.00736082 -0.0733026 1.90072e-17)
(-0.0149493 0.0109991 3.21269e-17)
(0.00538634 -0.0512611 3.98942e-17)
(0.0028883 -0.0492768 -1.90597e-18)
(0.0631819 -0.0353752 -1.91809e-17)
(-0.0323239 -0.0811132 2.12282e-17)
(0.0161119 -0.0745193 -3.88514e-17)
(0.0491667 -0.0830447 -5.94959e-17)
(-0.112872 -0.0764943 -5.53555e-21)
(0.0612188 -0.0896154 0)
(0.000537984 -0.0698008 -3.43387e-17)
(8.60684e-05 -0.0851736 2.10963e-17)
(0.0292221 -0.100154 -8.39776e-18)
(-0.000339395 -0.0870715 -2.06016e-17)
(0.0192582 -0.0224244 1.94688e-22)
(0.0325239 -0.13852 -2.86467e-17)
(-0.0723765 -0.0798365 0)
(0.0151534 -0.0358592 -4.09566e-22)
(4.23748e-06 -0.0830919 0)
(-0.0119207 -0.00707215 -2.56294e-17)
(0.0633607 -0.084838 0)
(0.000462005 -0.0625618 -3.01509e-17)
(0.0589078 -0.0435745 0)
(-0.158768 -0.0951608 1.92406e-17)
(0.0248075 -0.0222103 3.62042e-17)
(0.00787324 -0.0764407 -1.9834e-17)
(0.000190896 -0.0817193 -1.75385e-17)
(-0.00849694 -0.0456445 1.45647e-22)
(-0.0289209 -0.129654 2.16802e-17)
(0.0158217 -0.0978491 2.17873e-17)
(0.0603594 -0.0609359 0)
(0.0327292 -0.0772061 -3.98701e-17)
(-0.0373374 -0.0897867 -3.69612e-17)
(-0.00962131 -0.0693439 3.86832e-17)
(0.0613334 -0.0942489 -9.41669e-18)
(0.0207698 -0.00279456 3.51489e-17)
(-0.00010228 -0.0782708 1.93023e-17)
(-0.0429946 -0.101365 4.35947e-17)
(0.0181557 -0.0760403 -4.37183e-17)
(-0.111273 -0.0928142 0)
(0.0198495 -0.0475014 1.80714e-17)
(-0.0029937 -0.0426988 4.84837e-17)
(-0.000379819 -0.0834211 -1.9397e-17)
(-0.00255706 -0.0375884 -4.39701e-17)
(0.0145089 -0.0711564 -2.08764e-17)
(0.0651401 -0.0860924 0)
(0.0671844 -0.0536672 0)
(-0.0362238 -0.090513 0)
(-0.0338044 -0.128589 -2.36212e-17)
(0.0186744 -0.118992 -2.95819e-17)
(-0.0377066 -0.0848272 0)
(-0.00384404 -0.0534014 0)
(-0.0420566 -0.0989326 -3.13863e-17)
(0.00430517 -0.00986603 -1.1511e-17)
(-0.0218804 -0.00470539 -1.91993e-17)
(-0.029137 -0.0973593 -4.98012e-17)
(0.0181871 -0.119297 -3.90845e-17)
(-0.00193137 -0.0450393 1.92739e-17)
(-0.0357882 -0.126382 1.07478e-17)
(1.83992e-05 -0.0871016 -6.84456e-17)
(-0.0116757 -0.0273131 0)
(-0.00309135 -0.0483507 0)
(-0.00616118 -0.0712421 -3.94926e-17)
(0.0180949 -0.0312471 -1.00254e-17)
(-0.03055 -0.0896319 2.08416e-17)
(8.93036e-05 -0.073011 3.79783e-17)
(0.0253578 -0.0288231 0)
(0.000368117 -0.0485451 1.36038e-22)
(0.000176689 -0.0868248 4.89544e-17)
(0.00716317 -0.0156656 2.31378e-17)
(-0.00215622 -0.0427094 2.14859e-17)
(-0.108686 -0.107491 -1.11551e-18)
(-0.0281294 -0.017433 4.32553e-17)
(0.00170393 -0.0338055 6.61705e-20)
(0.00322923 -0.0376286 0)
(-0.0250031 -0.0780707 1.15945e-17)
(0.0481659 -0.0286749 0)
(0.000336505 -0.0809314 3.4527e-17)
(-0.0111152 0.037485 1.09781e-17)
(-0.0227734 -0.0742119 1.23657e-17)
(-7.74931e-08 -0.0794241 -1.16274e-18)
(-0.000860943 -0.0381945 2.1393e-17)
(-0.112473 -0.0886003 0)
(-0.00244714 -0.0366992 2.96027e-17)
(0.00355828 -0.0415131 0)
(-0.0147837 -0.0402772 0)
(-0.00587733 -0.0728814 2.28007e-17)
(-0.00319427 -0.0492839 -1.99793e-17)
(-0.0483758 -0.0933164 -2.27122e-17)
(0.0165582 -0.0138064 -5.49512e-17)
(-0.028072 -0.0747462 3.60918e-17)
(-0.000202451 -0.0755536 8.36103e-18)
(-0.00035018 -0.0222607 1.79008e-17)
(-0.0199038 -0.029393 1.16535e-17)
(-8.62896e-05 -0.0119552 2.09312e-17)
(-0.00603451 -0.0745471 1.77611e-17)
(-0.00277326 0.0143288 -2.18453e-17)
(0.0710787 -0.0817327 -8.88516e-18)
(-0.0699231 -0.0814742 0)
(-0.0047153 -0.0698488 0)
(-0.0786066 -0.0652313 0)
(0.00161379 -0.0367199 3.62989e-17)
(-0.00553402 -0.0663946 0)
(-0.00255855 -0.0427006 -4.83594e-17)
(-0.0319783 -0.101742 5.13576e-17)
(-0.0534156 -0.096539 4.12021e-17)
(-0.00117539 -0.0383461 -3.88622e-17)
(-0.0820361 -0.0845211 -6.0137e-17)
(0.00354538 -0.0402168 1.92697e-17)
(0.000963655 -0.0677685 3.04839e-17)
(-0.0133388 -0.0709828 3.90919e-17)
(0.000770005 -0.0415992 0)
(-0.000185354 -0.0854224 0)
(0.00189015 -0.0500438 -8.89614e-18)
(-0.0127992 -0.0690365 -3.91087e-17)
(-0.00438005 -0.0540074 -2.03128e-17)
(-0.0425289 -0.0837711 1.83633e-17)
(0.00409909 -0.0437705 0)
(-0.000796766 -0.0369089 0)
(0.000188596 -0.0228146 1.96641e-17)
(0.000514811 -0.0678129 0)
(0.00171677 -0.0041289 -1.16874e-17)
(-0.000766333 -0.0271467 0)
(-0.00182055 -0.0279832 1.23291e-17)
(-0.0111994 -0.0617289 1.47881e-17)
(-0.0129652 -0.0711924 -1.94372e-17)
(-0.000220407 -0.0266296 -2.14404e-17)
(0.000632736 -0.0510213 1.37185e-22)
(0.00189446 -0.0467506 1.85029e-17)
(0.00360951 -0.0537677 -3.90689e-17)
(0.0412348 -0.0536528 0)
(-0.0131303 -0.0692091 -1.95195e-17)
(-0.00224579 0.00944446 1.77804e-17)
(-0.00668839 -0.0668026 1.98885e-17)
(0.0685571 -0.0737594 -2.89013e-18)
(-0.00869211 0.0158696 4.2958e-17)
(-0.0192879 -0.0290741 -2.0111e-17)
(0.00143279 -0.0693965 3.2128e-17)
(-0.0144478 -0.0177766 0)
(-0.0132131 -0.0277251 -1.53965e-17)
(0.0308244 -0.00996462 -1.12825e-17)
(-0.000702882 -0.0280738 0)
(-0.0120786 -0.0641415 -3.99221e-17)
(-0.000326675 -0.0419483 -1.83847e-17)
(0.015857 -0.103423 4.86144e-17)
(-0.00043889 -0.0145026 0)
(-0.0118101 -0.0709937 3.94936e-17)
(0.0534129 -0.118383 2.04043e-17)
(-0.0360076 -0.127802 5.72788e-18)
(-0.0289218 -0.0856226 -5.25228e-17)
(0.0748221 -0.103936 -1.4248e-21)
(0.0260339 -0.0770484 2.5358e-17)
(-0.0903614 -0.0818506 -4.30591e-17)
(0.00759827 -0.0738944 -3.84402e-17)
(0.000334708 -0.013232 -2.13605e-17)
(0.0135664 -0.0879524 5.57174e-18)
(-0.0860822 -0.0670995 -5.10369e-18)
(0.0176189 -0.0118118 2.25161e-17)
(-0.000275024 -0.0241358 0)
(-0.0534668 -0.0981356 2.1256e-17)
(0.0053944 -0.0296254 1.16487e-17)
(0.0021418 -0.00971824 0)
(0.00242351 -0.0381324 -2.19203e-17)
(0.00115086 -0.0724231 -7.66919e-18)
(0.00176312 -0.033987 9.44422e-24)
(0.000841226 -0.0332116 -1.88344e-17)
(-0.00187929 -0.0403276 1.22658e-18)
(-0.0482597 -0.0930273 0)
(0.00119233 -0.0439738 0)
(-0.00408192 -0.0478626 0)
(-0.00169377 0.000339871 -3.02752e-17)
(-0.0014307 0.00941964 -2.7653e-17)
(-0.0131165 -0.0746351 -5.15863e-18)
(0.000930472 -0.0800614 1.09937e-17)
(0.000276206 -0.0594433 0)
(0.0032623 -0.039836 3.05414e-17)
(0.049807 -0.060002 2.29129e-17)
(-0.000496265 -0.0153616 0)
(8.55027e-05 -0.0858233 1.55516e-17)
(0.0476436 -0.0440528 0)
(0.00654776 -0.0141153 -3.10956e-17)
(-0.000345426 -0.0217509 1.98313e-17)
(-0.00467867 0.00471512 9.924e-18)
(-0.000395251 -0.070192 0)
(-0.00167153 -0.0601195 0)
(-0.00889999 -0.0688151 3.86194e-17)
(0.000715661 -0.00572679 0)
(-0.00634861 -0.0632218 -1.94613e-17)
(0.0370512 0.0154346 -2.35458e-17)
(0.00962093 -0.131471 2.92553e-22)
(0.0157171 -0.0727332 -2.23962e-17)
(0.0375599 0.00910883 2.33302e-17)
(-0.0020517 -0.0334702 -1.96525e-17)
(0.00616267 -0.0214071 2.19426e-17)
(0.0182765 -0.0755943 0)
(0.00872114 -0.133929 2.06579e-17)
(-0.0209518 0.0195149 8.24021e-18)
(0.00409956 -0.0625375 0)
(0.00331111 -0.00656401 -1.18176e-17)
(0.0019133 -0.0594802 9.06476e-18)
(0.00818395 -0.0630436 -1.04132e-17)
(-0.00904614 -0.0172255 -2.79211e-17)
(-0.0125778 -0.0752492 6.02586e-17)
(-0.00926214 -0.0654997 0)
(0.00491351 -0.0218279 0)
(-0.000331439 -0.0859414 0)
(-0.0179471 0.0331316 -8.15513e-18)
(-0.00162915 -0.0594421 0)
(0.0119304 -0.113067 -1.00695e-17)
(0.0213582 -0.0761298 -2.20882e-17)
(-0.0121094 -0.0699298 -3.85956e-17)
(-0.00547412 -0.055167 0)
(-0.000631189 -0.0534504 0)
(-0.000433875 -0.0386206 -2.03028e-17)
(-0.0091857 -0.0644784 -4.03505e-17)
(-0.0073182 -0.0792552 -2.52873e-17)
(-0.0033488 -0.0204269 -5.01387e-17)
(0.0343974 0.00843338 -4.63834e-17)
(7.01074e-05 -0.0133329 3.58041e-20)
(0.0109686 -0.017522 0)
(-0.000593823 -0.0587288 1.83276e-17)
(-0.00664084 -0.0705754 4.59255e-18)
(0.00025243 -0.0263295 1.82358e-17)
(0.00639835 -0.0736655 0)
(0.00141803 -0.0606983 -1.06821e-17)
(-0.0012142 -0.017666 1.19407e-22)
(0.018218 -0.0720381 0)
(0.0425039 -0.110889 0)
(-0.00675812 -0.0633403 1.81888e-17)
(0.00755101 -0.0306066 -1.86825e-17)
(-0.0128929 -0.0743717 -3.46899e-17)
(-0.0104113 -0.0760048 0)
(-0.00693587 -0.0613073 0)
(0.000484808 -0.0268268 0)
(0.00109694 -0.0821568 1.70969e-17)
(-0.0278356 -0.0906604 1.65987e-17)
(0.0115253 -0.133394 0)
(-0.0116315 -0.0747512 0)
(-0.00393542 -0.0802268 -5.80272e-18)
(-0.0013088 -0.0624621 -1.8894e-17)
(-0.00117922 -0.0632906 1.86502e-17)
(-0.0034348 -0.0565458 0)
(-0.0131237 -0.0395216 1.00364e-17)
(0.00397585 -0.0340902 0)
(-0.0158973 -0.0640104 1.99284e-17)
(0.0102654 -0.0180326 -2.41609e-17)
(-0.0100439 -0.0773198 2.69297e-17)
(-0.0121846 -0.0738348 0)
(-0.00518424 -0.0783537 4.63618e-18)
(-0.0101645 -0.0711994 -3.81606e-17)
(-0.00067853 -0.0267073 -1.87475e-17)
(0.0185448 -0.0587367 0)
(-0.0122318 -0.0733956 0)
(2.88237e-05 -0.00684357 0)
(0.019144 -0.140388 -1.91637e-17)
(0.0229274 -0.146144 1.64249e-17)
(0.00216226 -0.0829781 5.17138e-18)
(0.00401286 -0.0814467 0)
(-0.000810808 -0.0360012 3.67906e-17)
(-0.00165744 -0.0500675 1.87e-17)
(0.00292296 -0.00957898 0)
(0.0085581 -0.0805466 -6.26515e-18)
(-0.0135384 -0.0733375 -2.00706e-17)
(0.0249116 -0.0835302 0)
(-0.0259331 -0.0986034 -2.02775e-17)
(-0.0133461 -0.073979 5.34905e-17)
(-0.00017751 -0.0134247 -1.8734e-17)
(-0.00102363 -0.0333638 1.88293e-17)
(-0.00540462 -0.0781494 3.7361e-17)
(-0.144398 -0.118596 0)
(-0.00217103 -0.0678178 0)
(-0.000111294 -0.0332275 5.36618e-17)
(-0.026035 -0.0778771 0)
(0.000245085 -0.0124922 0)
(-0.0108323 -0.0733335 4.12714e-17)
(-0.0351295 -0.113646 -4.20658e-17)
(0.000737577 -0.0815528 3.5672e-17)
(-0.00226332 -0.0922076 -2.66302e-17)
(0.0133588 -0.103387 2.70258e-17)
(-0.00015972 -0.0436844 5.0973e-17)
(-0.00821909 -0.0230808 2.95683e-17)
(0.00279029 -0.0183955 0)
(0.0114392 -0.0737959 0)
(-0.000655873 -0.0999085 1.65305e-21)
(0.0189869 -0.106819 0)
(0.00773803 -0.0822903 -2.25398e-17)
(-0.012728 -0.0755388 -3.65202e-17)
(-0.00173176 -0.067596 0)
(-0.0138081 -0.0813284 -2.7608e-18)
(0.062818 -0.0378449 3.89383e-17)
(0.0154243 -0.0526646 0)
(0.0274673 -0.104226 0)
(0.0113567 -0.0811596 5.68167e-18)
(0.0682003 -0.0577854 0)
(-0.0114793 -0.0728265 4.83312e-18)
(-0.00411223 -0.0648303 -4.27296e-17)
(0.000570423 -0.0326555 0)
(0.00864015 -0.0786823 3.87879e-17)
(-0.00107637 -0.0218038 -3.67701e-17)
(-0.0119434 -0.0729565 -3.84093e-17)
(-0.0228409 -0.0666721 0)
(-0.000623044 -0.027489 -1.90999e-17)
(0.0111726 -0.124389 -3.83324e-17)
(-0.0053093 -0.0459054 -1.10505e-17)
(-0.0131386 -0.0729773 -1.94071e-17)
(0.0105471 -0.0692112 0)
(0.000122516 -0.0872077 -2.67048e-18)
(-0.0114986 -0.0717699 7.62232e-17)
(-0.00420614 -0.0232519 0)
(-0.0366806 -0.104727 2.29463e-17)
(0.00646124 -0.0476806 2.42866e-17)
(0.0193572 -0.0631105 0)
(0.00482597 -0.0438443 -3.85418e-17)
(0.0570895 -0.0281377 -2.22628e-17)
(0.00176519 -0.0626407 -2.8344e-17)
(0.0217046 -0.0768921 -2.22479e-17)
(-0.00202162 -0.0435067 -2.41281e-17)
(-9.46589e-05 -0.0251729 0)
(-0.00148073 -0.0449947 -1.89343e-17)
(0.000483709 -0.0311879 0)
(0.00383667 -0.0540337 0)
(0.00107693 -0.0550305 -2.64662e-17)
(0.0324995 -0.103913 2.21432e-17)
(-0.000287616 -0.0137542 -5.85796e-17)
(0.00232163 -0.0301468 -2.26104e-17)
(0.00709461 -0.129918 0)
(-0.000671665 -0.033582 -2.04735e-17)
(0.000492861 -0.0141665 -3.51243e-17)
(-0.000362597 -0.00758846 5.70184e-17)
(-0.00318215 -0.0512051 0)
(-0.00412658 -0.0131597 0)
(0.000607039 -0.00912795 3.33685e-17)
(0.00350093 -0.0596091 1.68841e-17)
(-0.00120578 -0.0736097 -3.6135e-17)
(0.001093 -0.0795317 -9.49957e-18)
(-0.00388716 -0.00698669 -1.01598e-17)
(0.0268834 -0.14036 -8.32884e-18)
(0.0149746 -0.111455 0)
(0.00867135 -0.0602255 0)
(-0.00154565 -0.0835592 1.85718e-17)
(0.0124288 -0.0579783 -2.25911e-17)
(-0.0715969 -0.0874868 2.17118e-17)
(-0.00256246 -0.0821988 0)
(-0.0111558 -0.0734899 0)
(-0.0361648 -0.0465499 2.06995e-17)
(0.0270932 -0.0621844 0)
(0.00810766 -0.0846776 2.64871e-17)
(-0.000719974 -0.0702091 3.78694e-17)
(0.0130681 0.0287349 0)
(-0.00174003 -0.0637243 1.94448e-17)
(-0.0217956 -0.0685766 4.81031e-17)
(0.0658085 -0.0497422 5.57819e-18)
(-7.71407e-05 -0.0131856 0)
(0.00336104 -0.0517356 0)
(0.0158195 -0.0693 2.2321e-17)
(-6.13141e-05 -0.0879406 -1.03851e-17)
(0.00738321 -0.0543242 -5.86324e-17)
(-0.000512165 -0.0325817 -1.87012e-17)
(-0.0190365 -0.0417915 3.63771e-17)
(-0.00158368 -0.0707542 -5.91291e-19)
(0.0580922 -0.100257 0)
(0.00326022 -0.107761 -6.53556e-17)
(-0.00287753 -0.0564583 2.83338e-17)
(0.00893877 -0.0653271 0)
(0.00315263 0.0288541 -5.33007e-22)
(-0.0144187 -0.0425606 -6.34984e-17)
(0.000708927 -0.0277707 3.88657e-17)
(-0.000422052 -0.0804317 -5.69031e-17)
(0.070033 -0.0682331 2.27136e-17)
(0.029861 -0.0298696 -2.05266e-17)
(0.00126221 -0.0345644 0)
(0.0132365 -0.0695142 2.2497e-17)
(-0.00608856 -0.0193306 0)
(0.000420827 -0.0207291 0)
(0.0141099 -0.00395188 2.31174e-17)
(-0.00139933 -0.0529781 3.77295e-17)
(0.000510448 -0.0854289 2.53026e-17)
(-0.012506 -0.0734708 1.91781e-17)
(-0.00114498 -0.0340477 3.99211e-17)
(0.00312327 0.0225723 6.15162e-17)
(-3.47835e-05 -0.00699307 0)
(-0.000382631 -0.088356 0)
(-0.000743843 -0.0738905 2.07809e-17)
(-0.000377339 -0.0881372 -3.13705e-17)
(0.043459 -0.104252 -5.02401e-17)
(-0.0995841 -0.0296232 2.91983e-17)
(-0.00113127 -0.0444841 0)
(0.00823506 -0.134674 4.88446e-17)
(-0.00034634 -0.0880656 1.99371e-17)
(0.0586033 -0.116912 2.00079e-17)
(0.0431003 -0.0934788 1.15361e-22)
(7.33095e-05 -0.00635858 0)
(-0.00244938 -0.0813277 4.63169e-18)
(-0.00178051 -0.056647 1.99213e-17)
(0.00372306 0.01609 9.92178e-18)
(0.0175272 -0.0724091 0)
(0.0405933 -0.0416034 -1.47068e-17)
(0.030672 -0.0876213 4.45717e-17)
(0.0248633 0.00100083 -4.93496e-17)
(0.0323966 -0.0397337 1.9452e-17)
(0.015388 -0.146364 -1.97017e-17)
(-0.000910756 -0.0786162 3.6062e-17)
(-0.00337831 -0.0813781 0)
(0.00222516 -0.0167784 -2.17847e-17)
(-0.023265 -0.0805547 -1.93844e-17)
(0.000331807 -0.0153254 1.83227e-17)
(0.0376976 -0.107528 -2.21999e-17)
(-0.00331065 -0.0813068 3.21847e-17)
(0.0516598 -0.0596847 -3.39731e-22)
(-0.000245552 -0.0880525 3.74918e-17)
(-0.000489075 -0.0880078 -5.10815e-17)
(0.049502 -0.105345 2.79892e-17)
(-0.000196571 -0.0864625 4.20038e-17)
(0.0178327 -0.0786009 0)
(-0.0303108 -0.0659037 2.65401e-18)
(0.0134472 -0.134222 3.80799e-17)
(0.0598832 -0.0972845 0)
(-0.000128299 -0.00731578 5.57944e-17)
(-0.00187503 -0.0647916 3.70478e-17)
(-0.00384568 -0.0786421 4.59592e-18)
(-0.0129469 -0.0468683 -2.17262e-17)
(-0.000219618 -0.0870416 4.79396e-17)
(0.00150485 -0.012941 5.99846e-17)
(-0.00945117 -0.0729461 4.74195e-18)
(-0.0165261 -0.0582415 -1.87828e-17)
(-0.00602403 -0.0539125 0)
(-0.0454435 -0.111728 -2.65391e-17)
(0.0254132 -0.0854823 0)
(0.00041943 -0.00704088 0)
(0.0104242 0.0352447 0)
(-0.000700617 -0.0872134 -2.30803e-17)
(0.0542309 -0.0993206 4.37591e-17)
(0.00748354 -0.0652538 2.85118e-17)
(-0.0127516 -0.0336546 0)
(-0.00472005 -0.102103 -2.1614e-17)
(0.0491918 -0.0949998 -2.14373e-17)
(0.00010836 -0.00693017 3.6815e-17)
(0.0297525 -0.0836998 -2.24271e-22)
(-0.0105724 -0.0351271 -2.09098e-17)
(0.00762496 0.0341223 1.28672e-17)
(0.000131786 -0.0861148 -2.28416e-17)
(0.000406523 -0.0838984 -7.46882e-23)
(0.0096409 -0.0262857 0)
(-0.00726196 -0.00204404 2.02704e-17)
(-0.000179836 -0.087366 1.87889e-17)
(-0.0272208 -0.0768693 4.29376e-17)
(0.0417342 -0.0983187 2.80202e-17)
(-0.000159521 -0.083881 0)
(0.000339919 -0.0852123 1.84907e-17)
(0.012843 -0.0213818 5.5444e-23)
(-0.0899027 -0.079008 -2.50576e-17)
(0.00642031 0.0146215 0)
(-0.000323816 -0.0875238 2.31454e-17)
(-0.00429084 -0.0797658 0)
(-0.0954723 -0.0758171 1.98227e-17)
(0.000167583 -0.013721 -3.70092e-17)
(0.00321547 0.0182003 -2.05379e-17)
(0.00145019 -0.0740174 -2.8392e-17)
(-0.00049091 -0.020046 -1.96119e-17)
(0.0964547 -0.0979237 3.4334e-17)
(0.00451768 0.025472 -1.9017e-17)
(3.59915e-05 -0.0854584 -5.52658e-17)
(-0.00181959 -0.0314304 3.81544e-17)
(0.0126295 -0.131887 0)
(-0.0710314 -0.10435 2.19027e-17)
(-0.0748375 -0.0649649 -2.1306e-17)
(-0.00120739 -0.0862205 -1.85595e-17)
(0.000489972 0.0367785 -1.69636e-17)
(0.0346809 -0.0622624 2.64947e-18)
(0.000669044 -0.0275545 1.86907e-17)
(0.0349222 -0.0790115 -3.0086e-17)
(0.00363344 0.0187815 3.10009e-17)
(-0.0086488 0.0290889 0)
(0.0359185 -0.0867794 2.24093e-17)
(0.0029432 0.0147002 -5.93071e-17)
(0.00643858 -0.0558607 0)
(-0.0168937 -0.0519828 -3.28544e-17)
(-0.0112987 -0.0727119 -5.93061e-17)
(0.0502952 -0.0523457 -4.95919e-18)
(-0.00220817 -0.076535 -3.69459e-17)
(0.0116052 -0.141911 2.86579e-17)
(0.0498121 -0.0521012 1.97985e-17)
(0.0128744 -0.0769693 0)
(-0.00906187 -0.0194823 -2.15647e-17)
(-0.00482275 -0.0476596 0)
(-0.00575163 -0.0761231 3.2379e-17)
(0.04593 -0.122699 0)
(0.00235053 0.0123987 2.96369e-17)
(-0.000549121 0.0294479 -1.06586e-17)
(-0.0552523 -0.105367 3.83009e-22)
(0.0206762 -0.0574845 5.68611e-17)
(5.16449e-05 0.00251932 8.62626e-18)
(0.0430214 -0.0485197 3.80948e-17)
(-0.00125276 -0.0593335 -1.87867e-17)
(-0.0056076 -0.0713246 5.1691e-17)
(-0.00245199 -0.0113392 0)
(-0.0579254 -0.107879 -2.01505e-17)
(0.000808471 -0.0779 8.40041e-18)
(0.0334338 -0.0977904 -2.77665e-17)
(0.0448869 -0.060747 0)
(0.0393105 -0.0810868 4.04796e-17)
(-0.00812213 -0.0159724 8.84121e-18)
(-0.0464911 -0.113516 -1.16743e-17)
(0.0194354 -0.0705438 -2.2255e-17)
(0.00572052 0.0224163 0)
(-0.00107438 -0.0498381 -1.92459e-17)
(-0.0815375 -0.0985432 -2.08556e-17)
(0.041348 -0.0770284 -1.6682e-17)
(-0.000219832 0.011746 5.73746e-17)
(0.00872678 0.00548316 1.99957e-17)
(0.039641 0.000889301 -1.1541e-17)
(0.0490285 -0.07172 0)
(-0.00053005 -0.0866675 5.53259e-17)
(0.0484538 -0.0890764 9.99708e-23)
(0.000889475 -0.081549 0)
(0.0905036 -0.0746702 -1.49873e-17)
(-0.00537585 -0.0752493 4.16116e-17)
(-0.000939825 -0.0169191 -3.66583e-17)
(-0.0382586 -0.113523 0)
(-0.000952934 -0.0181491 -1.93164e-17)
(0.00241446 0.0220995 -8.21834e-18)
(0.000269015 -0.00742648 0)
(0.000265601 -0.0143284 1.13191e-21)
(0.00261322 0.0146713 -6.17967e-17)
(0.0477677 -0.0722921 -2.47378e-17)
(-0.00602954 -0.0687699 -3.71292e-17)
(0.074093 -0.0966214 0)
(-0.00137001 -0.082317 -1.86416e-17)
(0.00636958 -0.0566425 -3.34362e-17)
(-0.0546179 -0.104879 -1.98298e-17)
(0.00196639 0.0120148 1.95472e-17)
(-0.00469493 -0.0721309 1.40803e-17)
(0.00877985 -0.125788 -1.00524e-17)
(0.0136718 0.0254771 3.35687e-17)
(-4.08108e-05 -0.0869755 -2.92831e-17)
(0.0176066 -0.0289534 0)
(0.0238441 -0.0748542 0)
(0.0356038 -0.0950508 -2.78475e-17)
(-0.0347773 -0.116953 -2.08222e-17)
(-0.000340224 -0.0880213 -5.61663e-17)
(0.00118157 -0.0795255 0)
(-0.00512676 -0.0694421 -1.88066e-17)
(-0.000319134 -0.0841582 1.93596e-17)
(-0.00148422 -0.0366662 3.60114e-17)
(-0.0345876 -0.115131 -2.69162e-23)
(2.98557e-06 -0.0703864 5.79007e-17)
(0.00194329 -0.074203 5.51739e-17)
(-0.00196385 -0.0811394 0)
(0.000148741 -0.00715188 0)
(-0.0121807 -0.0738233 0)
(-0.0326424 -0.112327 -5.80387e-17)
(0.102089 -0.0878509 5.90491e-17)
(-0.110039 -0.103805 -1.80022e-17)
(-0.00258495 -0.00473886 2.23122e-17)
(-0.0603078 -0.107207 0)
(0.0292545 -0.0672427 -1.00842e-17)
(0.00171674 -0.0715153 0)
(-0.00445779 -0.076362 2.30496e-17)
(0.00389448 -0.0635059 -1.87165e-17)
(0.000405199 -0.0847939 5.56702e-17)
(-0.00250657 -0.066695 1.84108e-17)
(0.00154579 -0.0247099 -6.38179e-17)
(0.000852184 -0.0145099 5.70995e-17)
(-0.0231528 -0.0642567 -1.13496e-17)
(-0.00247667 -0.0731947 1.84905e-17)
(-1.65645e-05 -0.0180836 3.61207e-17)
(-0.000104311 -0.00995722 -3.4902e-17)
(0.0426235 -0.0681063 -2.12257e-17)
(0.0715503 -0.0771964 3.94413e-17)
(0.000280113 -0.084127 5.52208e-17)
(-0.000827955 -0.0219663 -3.4005e-17)
(0.00219808 -0.0719254 -3.2048e-17)
(-0.000769952 -0.0494502 0)
(0.0770958 -0.064995 2.43438e-17)
(-0.000880216 -0.0195096 4.20568e-18)
(-0.0036113 -0.077559 0)
(0.0418394 -0.077987 0)
(-2.42922e-05 -0.0865389 -1.82762e-17)
(-0.00418406 -0.0798305 0)
(-0.00196912 -0.0842518 4.14506e-17)
(-0.00118102 -0.0865721 2.31064e-17)
(-0.00391703 -0.0730251 -1.83976e-17)
(0.00106638 -0.0194485 -3.50421e-17)
(-0.0026972 -0.0625687 0)
(-0.0923623 -0.094431 0)
(0.0283488 -0.092968 5.54462e-18)
(0.00193814 -0.0642628 -1.79784e-17)
(-0.000802408 -0.0104304 0)
(0.00110495 -0.0191105 -7.44329e-20)
(0.00125782 -0.0219123 -7.00498e-17)
(0.000722343 -0.0129107 6.97789e-17)
(0.000503452 -0.00940777 0)
(0.000407752 -0.0165288 -3.57053e-17)
(5.53196e-05 -0.0853092 -1.88169e-17)
(0.000714857 -0.01051 3.67901e-17)
(0.000672464 -0.017565 3.69413e-17)
(0.000269675 -0.00887533 -3.58915e-17)
(-0.000645479 -0.0194643 6.33147e-18)
(2.72429e-05 -0.0086305 2.48416e-17)
(-0.00037477 -0.00939933 0)
(-0.000101672 -0.00621022 0)
(-0.000279021 -0.0133338 3.4088e-17)
(0.000272443 -0.00831923 1.77021e-17)
(-0.000184348 -0.0845933 -3.67956e-17)
(0.0619665 -0.0756287 -2.28542e-17)
(-0.00432073 -0.0700718 -1.86004e-17)
(-0.0536771 -0.10742 2.21426e-17)
(-0.0199194 -0.0370595 -8.552e-18)
(-0.0579761 -0.109168 -1.97052e-17)
(0.0203276 -0.076389 0)
(0.00265291 -0.0656317 -4.33732e-18)
(-0.0413556 -0.11112 1.83265e-17)
(-0.0506722 -0.113294 0)
(0.0015895 -0.0745539 0)
(-0.0554674 -0.104048 4.10387e-17)
(0.0090577 -0.0675773 0)
(-0.00154679 -0.0740358 2.99941e-19)
(-0.0409798 -0.111693 0)
(-0.00077183 -0.0875201 3.25864e-17)
(-0.00475104 -0.0773337 -5.54551e-17)
(-0.00253104 -0.0547266 0)
(-0.000462523 -0.0542451 0)
(0.000795747 -0.0805234 -4.15616e-17)
(0.104366 -0.0824944 -1.97988e-17)
(-0.000390129 -0.0867449 1.96797e-17)
(-0.00212647 -0.050661 0)
(-0.00315124 -0.074219 -1.38139e-17)
(0.000866447 -0.0811645 1.8402e-17)
(-0.000190874 -0.0219748 2.03287e-17)
(-0.001367 -0.0850647 -4.60515e-18)
(0.0012047 -0.0785113 3.70883e-17)
(0.0881613 -0.104742 0)
(-0.00704786 -0.0684402 1.85914e-17)
(-0.00599252 -0.0606612 -1.96579e-17)
(-0.0338852 -0.108146 3.38861e-17)
(0.0231684 -0.0853982 2.77228e-17)
(-0.000859523 -0.0633689 -1.88068e-17)
(0.00261148 -0.0622253 -2.23837e-18)
(-0.0024309 -0.0812178 0)
(0.0109232 -0.0957236 0)
(0.0244092 -0.0442541 0)
(-0.00360714 -0.0710391 1.84125e-17)
(-0.00527963 -0.0789009 2.63982e-17)
(9.38385e-05 -0.0832463 4.60409e-18)
(-0.00112096 -0.0707959 -3.78469e-17)
(0.00222389 -0.0654749 4.6032e-18)
(-0.0102526 -0.0736177 -4.75478e-18)
(0.00240883 -0.0490696 -3.05494e-17)
(0.00457414 -0.0545028 1.95751e-17)
(-0.0107608 -0.0504068 1.6458e-17)
(-0.0028999 -0.0787991 -4.6046e-18)
(-0.00575205 -0.0636089 1.92148e-17)
(0.000710462 -0.0795784 -4.18908e-17)
(0.0021408 -0.0613523 2.72889e-17)
(-0.0041144 -0.0635168 -3.23594e-17)
(0.00176046 -0.0745007 3.20911e-17)
(0.00192938 -0.0718988 -4.1408e-17)
(0.00280313 -0.0540823 3.3409e-17)
(-0.000461804 -0.0835143 -2.30289e-17)
(-0.00430877 -0.0514056 0)
(-0.00305899 -0.079963 0)
(0.00118778 -0.0791475 2.30194e-17)
(0.0209137 -0.0785183 -2.23201e-17)
(-0.00201223 -0.0823897 -3.68873e-17)
(0.000421793 -0.0799703 0)
(-0.00174977 -0.083013 -2.30561e-17)
(-0.000820834 -0.0856401 0)
(-0.00291074 -0.0720908 -1.84204e-17)
(-0.00300889 -0.0656238 0)
(-0.00256133 -0.0827022 1.84202e-17)
(0.00448464 -0.057352 0)
(-0.00262766 -0.0753612 5.53037e-17)
(-0.0894327 -0.0923448 0)
(-0.00153664 -0.0854569 -5.53008e-17)
(-0.00237692 -0.0799785 3.6878e-17)
(-0.0015804 -0.0403163 0)
(-0.0112555 -0.072952 0)
(-0.0490895 -0.0644891 0)
(-0.0140411 -0.018627 0)
(-0.0366181 -0.113855 2.02041e-17)
(0.0438692 -0.11839 -1.9596e-17)
(-0.0023474 -0.0499909 1.84354e-17)
(0.00416538 -0.0545491 2.32851e-17)
(-0.000985881 -0.0862036 -3.6852e-17)
(-0.003633 -0.0648361 1.81074e-17)
(-0.000155322 -0.0821034 9.7057e-17)
(0.0711661 -0.0667185 4.8834e-18)
(0.00526153 -0.0574419 0)
(-0.0544014 -0.102765 -3.94516e-17)
(0.085331 -0.0749344 -5.84763e-17)
(0.00503868 -0.0667144 1.62017e-17)
(0.0268291 -0.0421206 3.98412e-17)
(-0.0061256 -0.0128747 0)
(-0.000848134 -0.0821602 -6.95696e-17)
(0.027734 0.00984457 4.03599e-17)
(0.0174985 -0.0250838 0)
(-7.78411e-05 -0.0104353 0)
(-0.00308464 -0.0615386 1.34299e-17)
(0.00934707 -0.0166633 -1.82135e-17)
(-0.00972976 -0.0278563 5.23762e-17)
(0.0628338 -0.0886257 8.60001e-18)
(0.00815626 -0.0134071 9.14769e-18)
(0.00219182 -0.0532219 -9.32073e-18)
(-0.00364158 -0.0605757 -3.20229e-17)
(-0.0396898 -0.110671 4.76452e-17)
(-0.000393527 -0.0853906 0)
(-0.00600777 -0.0544 -5.46659e-18)
(-0.0118774 -0.0244896 4.94848e-17)
(0.00572154 -0.00497416 0)
(0.00418065 -0.091061 -1.60247e-17)
(-0.00491385 -0.0545792 0)
(-0.00160968 -0.085134 -1.84641e-17)
(-0.00200441 -0.0839646 7.84002e-23)
(-0.00989445 -0.0198158 1.94314e-17)
(0.0012838 0.00438877 -1.07616e-17)
(-0.0698994 -0.0870275 0)
(-0.0120732 -0.0616195 2.44165e-17)
(-0.0809903 -0.0748363 0)
(0.00505544 -0.0549546 0)
(-0.00256859 -0.0533143 -1.33243e-17)
(-0.000544871 -0.0806404 3.71483e-17)
(-0.0112777 -0.0218676 -2.92536e-17)
(-0.00493254 0.00967825 -5.01341e-17)
(0.00158383 -0.0609928 0)
(-0.00859758 0.00991238 6.08906e-17)
(-0.0025885 -0.0828969 -5.52465e-17)
(-0.0388442 -0.113106 2.62066e-17)
(-0.0748616 -0.0632942 2.47277e-17)
(-0.00455452 -0.0150759 -1.02475e-17)
(-0.00800124 0.00470066 2.08095e-17)
(0.0709549 -0.0850812 1.06754e-17)
(-0.0483021 -0.0966765 0)
(-0.00219677 -0.0552712 -1.43622e-17)
(-0.0091435 -0.0699488 5.73066e-17)
(-0.00764621 -0.0425441 2.96552e-18)
(-0.00478434 -0.0470991 2.33717e-17)
(0.0326509 -0.0771346 2.17439e-17)
(-0.000129556 -0.0262204 1.85363e-17)
(-0.00188844 -0.0837436 1.84181e-17)
(-0.00140601 -0.0805056 -4.20316e-17)
(0.0645879 -0.0903646 0)
(0.0165473 -0.109157 0)
(0.0839046 -0.0705279 -4.94986e-18)
(-0.000462108 -0.0745298 -1.41274e-17)
(0.0264112 -0.0931559 -5.52849e-18)
(-0.0486336 -0.0883034 2.02744e-17)
(-0.000551644 -0.0447372 0)
(3.59968e-05 -0.0787094 0)
(-0.00130233 -0.0719059 -3.79503e-17)
(-0.0295691 -0.103472 -1.95378e-17)
(-0.00451352 -0.0773995 4.68511e-17)
(-0.00121319 -0.0844467 4.60627e-18)
(0.00168574 -0.0568809 0)
(-0.00175138 -0.0307161 2.15369e-17)
(-0.00111764 -0.0788409 0)
(0.012314 -0.132451 1.94655e-17)
(0.000458973 -0.0628048 0)
(0.0429407 -0.105192 0)
(0.0495354 -0.0563045 -2.47874e-17)
(0.00618113 -0.0605343 -2.27948e-17)
(-0.0454654 -0.105908 2.49309e-17)
(3.64937e-05 -0.0869169 5.03968e-24)
(-0.00627843 -0.0547384 -5.68753e-18)
(-0.00216915 -0.0785704 -1.86987e-17)
(0.0648457 -0.0685679 0)
(-0.0355345 -0.11376 -1.57636e-17)
(0.000174892 -0.0123397 -6.51979e-18)
(0.0337035 -0.0818003 -5.59525e-18)
(0.00589201 -0.0513563 0)
(-0.0465704 -0.0993271 0)
(-0.0020389 -0.0743916 0)
(0.00611616 -0.0553616 3.80892e-17)
(-0.00110083 -0.0563322 1.95687e-17)
(0.00511099 -0.0618349 -2.23242e-17)
(-0.011482 -0.0473414 1.59366e-17)
(-0.00951143 -0.0455557 -5.95442e-18)
(0.0740159 -0.0829735 -4.22695e-18)
(-0.000824935 -0.0689101 0)
(0.00151053 -0.0703541 2.881e-17)
(-0.00776347 -0.0477187 0)
(-0.0115798 -0.0497141 -2.13949e-17)
(0.00565217 -0.0950216 1.03186e-17)
(0.0788105 -0.0565287 0)
(-0.0521333 -0.105874 -4.2005e-18)
(0.0331675 -0.04908 -3.94873e-17)
(-0.00788413 -0.0310782 -1.30246e-17)
(0.0255041 -0.0675188 0)
(-0.0316453 -0.107052 3.90474e-17)
(0.00644681 -0.0570037 -5.67102e-17)
(0.0296117 -0.110077 0)
(-0.00191358 -0.0767055 5.15634e-17)
(0.00101384 -0.0583679 1.48108e-19)
(0.0193011 -0.0321448 0)
(-0.0133713 -0.045704 0)
(0.0542145 -0.0564223 0)
(-0.0588826 -0.0911513 1.94752e-17)
(-0.000696013 -0.0870534 3.73244e-17)
(-0.0388438 -0.0740091 0)
(-0.00475657 -0.0942371 0)
(-0.000150853 -0.076189 1.90079e-17)