/*--------------------------------*- C++ -*----------------------------------*\
  =========                 |
  \\      /  F ield         | OpenFOAM: The Open Source CFD Toolbox
   \\    /   O peration     | Website:  https://openfoam.org
    \\  /    A nd           | Version:  9
     \\/     M anipulation  |
\*---------------------------------------------------------------------------*/
FoamFile
{
    format      ascii;
    class       volVectorField;
    location    "1";
    object      U;
}
// * * * * * * * * * * * * * * * * * * * * * * * * * * * * * * * * * * * * * //

dimensions      [0 1 -1 0 0 0 0];

internalField   nonuniform List<vector> 
578
(
(-0.0362 -0.0431 0)
(-0.0193 -0.0653 2.7e-16)
(-0.0543 -0.0639 -9.59e-17)
(0.00359 -0.0707 -2.29e-17)
(0.0118 -0.0262 -4.3e-17)
(0.00456 -0.0928 -8.48e-17)
(-0.0123 -0.0269 4.28e-17)
(0.0132 -0.0244 -2.08e-20)
(0.0596 -0.0898 -1.87e-16)
(-0.0114 -0.0409 4.01e-16)
(0.00579 -0.1 -1.26e-16)
(0.0385 -0.0749 0)
(0.00933 -0.0872 9.32e-17)
(0.0394 -0.0821 -7.24e-16)
(-0.04 -0.0831 3.64e-16)
(0.0699 -0.075 -8.75e-17)
(-0.0455 -0.0415 3.9e-16)
(-0.0731 -0.0622 0)
(0.0353 -0.0684 0)
(0.0652 -0.0877 1.34e-16)
(0.00325 -0.0798 0)
(0.0557 -0.0688 0)
(0.0307 -0.0273 -4.64e-16)
(0.000215 -0.0738 0)
(-0.000987 -0.0586 0)
(0.0336 -0.0682 3.68e-16)
(-0.00329 -0.0677 -4.65e-17)
(-0.000247 -0.0336 2.5e-17)
(-0.0169 -0.0781 -4.46e-16)
(0.0721 -0.078 3.57e-16)
(-0.000998 -0.0581 -4.29e-16)
(0.00427 -0.0764 9.2e-17)
(0.077 -0.0829 -3.44e-16)
(-0.00119 -0.0794 1.81e-16)
(-0.0352 -0.0747 -3.6e-16)
(0.0616 -0.0652 -5.42e-16)
(0.0345 -0.0733 7.08e-16)
(0.0325 -0.0631 0)
(-0.0694 -0.0755 -3.56e-16)
(0.0189 -0.0403 0)
(0.0193 -0.0438 -3.51e-16)
(0.0222 -0.0399 4.21e-16)
(0.0195 -0.0377 0)
(-0.0356 -0.0731 0)
(0.0542 -0.0527 4.61e-17)
(-0.0194 -0.0413 0)
(-0.0198 -0.045 3.51e-16)
(0.054 -0.0825 -4.63e-17)
(-0.0691 -0.0754 5.3e-16)
(-0.00567 -0.0805 -9.75e-17)
(0.000738 -0.0353 1.37e-17)
(0.0138 -0.0901 -3.93e-16)
(0.0459 -0.033 -1.91e-16)
(-0.0014 -0.0804 0)
(0.0015 -0.0811 3.21e-16)
(-0.0043 -0.0974 7.78e-16)
(0.012 -0.0105 7.43e-16)
(0.0363 -0.0301 -3.77e-16)
(-0.0597 -0.0593 -6.79e-16)
(0.0396 -0.0426 1.98e-16)
(-0.0705 -0.0673 3.58e-16)
(-0.0381 -0.0266 0)
(-0.0577 -0.0442 5.14e-17)
(0.0354 -0.0731 3.37e-16)
(-0.00459 -0.0892 8.96e-17)
(-0.0443 -0.0836 1.99e-16)
(0.0732 -0.0856 -4.14e-17)
(0.0102 -0.0978 2.97e-16)
(0.0785 -0.0736 -1.7e-16)
(0.0393 -0.0838 3.96e-16)
(0.000438 -0.0623 0)
(0.00132 -0.0629 -1.29e-17)
(0.000153 -0.0862 -9.72e-17)
(0.0402 -0.0854 0)
(0.00159 -0.108 1.8e-16)
(0.0117 -0.0247 0)
(0.0526 -0.0762 2.39e-16)
(0.0432 -0.0619 -1.96e-16)
(0.00572 -0.0901 0)
(-0.0358 -0.0384 -1.04e-16)
(0.0362 -0.074 -3.36e-16)
(-0.0178 -0.0257 -3.63e-16)
(0.0107 -0.0251 -1.65e-16)
(0.0178 -0.0252 1.67e-16)
(-0.0701 -0.0864 -4.81e-17)
(-0.0142 -0.041 0)
(0.000657 -0.0205 0)
(-0.00413 -0.107 -2.85e-16)
(0.0286 -0.0633 9.8e-21)
(-0.0305 -0.0702 3.2e-18)
(-0.00241 -0.0739 0)
(-0.0607 -0.0784 9.75e-17)
(-0.029 -0.0647 0)
(0.0129 -0.0971 1.74e-16)
(0.0735 -0.0757 5.29e-16)
(0.0527 -0.0698 -4.53e-16)
(0.000134 -0.0822 9.57e-17)
(0.00525 -0.0826 -6.86e-16)
(-0.00389 -0.0246 -7.16e-16)
(-0.0399 -0.0833 0)
(-0.0418 -0.0747 0)
(0.0369 -0.0812 -6.25e-16)
(-0.0138 -0.0946 0)
(-0.0546 -0.0575 0)
(-0.00446 -0.0815 0)
(0.0392 -0.0824 -5.39e-16)
(0.00222 -0.0977 -1.89e-16)
(0.0197 -0.0425 0)
(-0.00838 -0.0229 0)
(0.0221 -0.0444 -4.37e-16)
(0.0614 -0.0711 -1.46e-16)
(0.0376 -0.0799 0)
(0.0697 -0.0846 4.01e-16)
(0.0606 -0.0721 -3.23e-16)
(0.0632 -0.0744 3.36e-16)
(-0.0138 -0.0904 3.89e-16)
(0.00601 -0.08 2.02e-16)
(-0.0499 -0.077 -2.96e-16)
(-0.0269 -0.0607 5.15e-17)
(-0.00515 -0.0827 3.39e-16)
(0.0278 -0.056 -3.51e-16)
(0.0278 -0.0421 -1.2e-21)
(0.0382 -0.0767 -3.82e-16)
(0.00166 -0.065 -5.13e-17)
(0.0235 -0.0405 0)
(-0.0324 -0.0819 3.95e-16)
(0.0244 -0.0751 -3.75e-16)
(0.0751 -0.0764 -1.92e-16)
(-0.0407 -0.0863 1.98e-16)
(-0.0266 -0.0819 0)
(-0.0402 -0.0819 0)
(-0.0317 -0.0833 0)
(0.0111 -0.0936 0)
(0.00808 -0.0162 3.71e-16)
(-0.0397 -0.0843 -3.69e-16)
(-0.0406 -0.0694 0)
(0.0338 -0.0634 0)
(-0.00834 -0.0866 -3.33e-16)
(0.0496 -0.0732 3.76e-16)
(-0.035 -0.0685 0)
(-0.0182 -0.0342 4.53e-16)
(-0.0275 -0.0822 0)
(-0.0302 -0.0584 0)
(-0.000287 -0.0623 0)
(0.0159 -0.0311 0)
(-0.0732 -0.0827 9.84e-21)
(-0.0246 -0.0572 4.16e-16)
(-0.00655 -0.0513 0)
(0.0405 -0.0837 4e-16)
(-0.0264 -0.0762 0)
(0.0486 -0.0902 0)
(-0.0186 -0.0262 0)
(0.018 -0.0178 0)
(0.014 -0.0282 4.44e-16)
(-0.0437 -0.0877 -3.72e-16)
(-0.00576 -0.0703 -2.06e-16)
(-0.0197 -0.0884 4e-16)
(0.0116 -0.0791 -9.17e-17)
(-0.0154 -0.0153 -8.95e-17)
(0.0512 -0.091 -3.16e-16)
(0.044 -0.083 4.45e-16)
(0.0413 -0.0734 4.62e-16)
(-0.00989 -0.0187 -5.68e-18)
(0.0445 -0.0799 0)
(-0.000122 -0.019 2e-20)
(-0.0287 -0.0725 5.38e-21)
(-0.000199 -0.0348 -4.47e-16)
(-0.0391 -0.0755 0)
(0.00764 -0.0526 -1.01e-16)
(-0.00556 -0.103 -1.64e-16)
(0.0428 -0.0708 0)
(0.0203 -0.0366 0)
(-0.0243 -0.0416 0)
(-0.014 -0.0283 -4.47e-16)
(-0.0341 -0.0644 0)
(-0.00519 -0.095 -9.2e-17)
(-0.00027 -0.0985 -9.31e-17)
(-0.048 -0.0728 3.43e-16)
(0.0266 -0.0451 5.03e-17)
(-0.00215 -0.0637 2.11e-16)
(-0.0209 -0.0374 0)
(-0.0367 -0.0643 0)
(-0.0215 -0.066 0)
(0.00527 -0.0958 6.9e-16)
(-0.0486 -0.0781 2.51e-16)
(-0.00495 -0.0379 -3.33e-16)
(0.0249 -0.03 -1.69e-16)
(-0.0417 -0.0866 8.95e-17)
(-0.0459 -0.0902 3.88e-16)
(-0.00104 -0.0362 -4.51e-16)
(0.0448 -0.0889 -3.84e-16)
(0.0379 -0.0705 0)
(0.0381 -0.0491 4.28e-16)
(-0.0361 -0.0682 0)
(-0.0241 -0.0417 0)
(-0.00143 -0.111 1.78e-16)
(0.00286 -0.0419 8.53e-16)
(-0.00282 -0.0413 -6.82e-16)
(-0.038 -0.0709 0)
(0.0355 -0.0673 0)
(0.00588 -0.0395 -3.28e-16)
(0.00901 -0.0992 -8.72e-16)
(0.0137 -0.0421 -2.11e-16)
(-0.00408 -0.108 0)
(-0.000971 -0.104 -2.81e-16)
(0.0389 -0.075 0)
(-0.0442 -0.0802 0)
(-0.0451 -0.0536 0)
(0.0459 -0.0906 3.95e-16)
(-0.0224 -0.0255 0)
(-0.0196 -0.0456 4.21e-16)
(-0.0468 -0.092 -3.81e-16)
(-0.0375 -0.0795 -1.24e-17)
(0.00245 -0.106 9.17e-17)
(-0.0328 -0.0664 -2.1e-16)
(0.00134 -0.0726 0)
(-0.0416 -0.0799 -4.02e-16)
(0.0409 -0.0789 4.02e-16)
(-0.0446 -0.0905 3.93e-16)
(-0.0111 -0.0238 -4.59e-16)
(0.0436 -0.0893 2.01e-16)
(-0.0372 -0.0722 0)
(0.0238 -0.0502 -4.15e-16)
(0.0227 -0.0427 0)
(-0.0221 -0.0412 0)
(-0.024 -0.0503 8.34e-16)
(3.52e-05 -0.115 -8.97e-17)
(0.00263 -0.0253 3.92e-20)
(-0.00206 -0.0249 1.76e-16)
(-0.000322 -0.0191 3.55e-16)
(-0.00939 -0.0231 -3.6e-16)
(0.00463 -0.0224 -1.82e-16)
(-0.00805 -0.0162 -3.69e-16)
(0.023 -0.0726 0)
(-0.0234 -0.0738 0)
(0.0164 -0.0263 1.28e-16)
(0.0124 -0.0237 0)
(-0.0127 -0.0238 0)
(0.0158 -0.0937 1.46e-16)
(0.0194 -0.0453 0)
(-0.0112 -0.0204 0)
(0.0112 -0.0194 0)
(-0.0014 -0.113 -3.64e-16)
(-0.019 -0.0356 0)
(-0.00135 -0.0218 6.92e-16)
(0.00899 -0.0179 0)
(-0.0096 -0.0181 -3.58e-16)
(-0.00356 -0.0403 8.37e-16)
(-0.0135 -0.0218 0)
(-0.00185 -0.0997 -9.07e-17)
(0.00142 -0.11 8.99e-17)
(-0.0359 -0.0834 0)
(0.00675 -0.0667 0)
(0.00699 -0.0203 -3.58e-18)
(0.000585 -0.0182 0)
(0.0269 -0.0809 3.94e-16)
(-0.00041 -0.0357 4.45e-16)
(-0.0516 -0.0921 -6.08e-16)
(0.0132 -0.024 0)
(0.00403 -0.0396 4.49e-16)
(0.011 -0.0237 4.55e-16)
(-0.0118 -0.0211 3.62e-16)
(0.000763 -0.0217 -7.07e-16)
(0.00109 -0.0389 4.77e-16)
(-0.0329 -0.0718 3.04e-16)
(0.0292 -0.0629 7.53e-16)
(0.0138 -0.0404 0)
(0.00489 -0.0116 -3.67e-16)
(-0.000919 -0.0201 -3.63e-16)
(0.00211 -0.00915 0)
(-0.00214 -0.00922 0)
(-0.0323 -0.0795 -3.84e-16)
(0.0188 -0.052 0)
(-0.000233 -0.117 -2.64e-16)
(0.00634 -0.104 -1.93e-16)
(-0.00105 -0.115 -5.31e-16)
(-0.00236 -0.0889 2.05e-16)
(-0.00492 -0.0116 0)
(-0.0229 -0.042 0)
(-0.000934 -0.107 -4.65e-16)
(0.0216 -0.0408 0)
(-0.00188 -0.11 8.01e-16)
(0.000312 -0.115 0)
(0.00287 -0.11 -9e-17)
(-0.000813 -0.115 1.8e-16)
(-0.016 -0.0312 -4.36e-16)
(0.00674 -0.0136 -7.27e-16)
(-0.00676 -0.0137 3.67e-16)
(-0.000486 -0.0149 0)
(0.000222 -0.0345 -4.45e-16)
(0.0225 -0.0676 0)
(-0.0367 -0.0822 1.22e-17)
(-0.00392 -0.102 1.64e-16)
(-0.0132 -0.023 0)
(0.000383 -0.018 0)
(0.000946 -0.0362 5.51e-17)
(0.0115 -0.0209 -3.63e-16)
(0.0261 -0.0806 -9.71e-16)
(-0.000161 -0.0364 1.02e-16)
(0.000314 -0.0367 -3.97e-16)
(-0.00124 -0.0979 4.78e-16)
(-0.023 -0.0689 0)
(-1.97e-05 -0.0211 3.53e-16)
(-5.54e-05 -0.018 0)
(0.00063 -0.0209 0)
(2.49e-05 -0.0222 6.69e-16)
(0.0258 -0.075 3.87e-16)
(-0.00187 -0.0763 -9.2e-16)
(-0.00044 -0.118 -3.49e-16)
(-0.000435 -0.118 0)
(0.0243 -0.0568 2.1e-16)
(-0.000856 -0.116 2.63e-16)
(-0.000399 -0.119 -5.56e-16)
(-0.0191 -0.0525 0)
(-0.000578 -0.113 3.61e-16)
(0.00118 -0.11 3.72e-16)
(-0.034 -0.0765 0)
(-0.00705 -0.0204 0)
(-0.014 -0.0407 0)
(-0.000877 -0.106 -4.46e-16)
(-0.0293 -0.0623 -4.2e-16)
(4.21e-05 -0.117 7.25e-16)
(-0.00264 -0.11 9.27e-17)
(0.000523 -0.103 -2.89e-16)
(-0.005 -0.105 3.68e-16)
(0.000384 -0.112 -1.71e-16)
(-0.0493 -0.0914 3.65e-16)
(-0.0319 -0.0609 0)
(0.043 -0.0865 0)
(8.68e-05 -0.114 6.69e-16)
(-0.00986 -0.0975 9.44e-17)
(-0.0556 -0.0905 -1.45e-16)
(-0.000266 -0.118 1.77e-16)
(0.00071 -0.104 -3.63e-16)
(-0.0277 -0.0553 6.25e-16)
(-6.26e-05 -0.112 1.83e-16)
(0.00515 -0.104 -1.69e-16)
(0.000878 -0.103 -3.78e-16)
(-0.00046 -0.0762 0)
(-0.00235 -0.0902 0)
(0.00195 -0.108 -1.84e-16)
(0.00181 -0.112 2.72e-16)
(-0.000866 -0.116 2.63e-16)
(-0.000794 -0.0658 3.76e-16)
(-0.000172 -0.117 2.66e-16)
(0.0496 -0.0663 -1.07e-16)
(0.0275 -0.0773 2.11e-16)
(-0.00806 -0.0185 -3.65e-16)
(0.00767 -0.0176 9.26e-17)
(-0.00891 -0.0201 3.61e-16)
(0.00899 -0.0199 0)
(0.00918 -0.0191 3.68e-16)
(-0.00933 -0.0193 1.84e-16)
(-0.00169 -0.103 -1.81e-16)
(0.00987 -0.0223 0)
(-0.0101 -0.0233 0)
(4.19e-05 -0.116 -2.66e-16)
(-0.0116 -0.0243 -3.56e-16)
(0.0141 -0.026 0)
(-0.0143 -0.0266 0)
(-0.00136 -0.113 -2.88e-16)
(-0.0118 -0.0111 0)
(-8.89e-05 -0.116 8.95e-17)
(0.00784 -0.0192 4.09e-16)
(-0.000353 -0.117 -9.26e-17)
(0.000516 -0.096 -3.9e-16)
(-0.00135 -0.115 9.23e-17)
(0.0396 -0.0781 3.87e-16)
(0.00725 -0.101 1.62e-16)
(-0.0326 -0.0298 0)
(0.036 -0.0786 0)
(-0.0331 -0.0217 -4.5e-17)
(-0.0524 -0.0539 3.75e-16)
(0.0303 -0.0827 -1.95e-16)
(-0.0763 -0.085 -2.01e-16)
(0.0329 -0.0201 3.44e-16)
(-0.00871 -0.101 -9.32e-17)
(-0.0155 -0.0355 -4.63e-16)
(0.0154 -0.0344 3.31e-16)
(-0.0257 -0.0499 -4.28e-16)
(-0.00127 -0.081 -3.31e-16)
(0.0161 -0.0362 -2.31e-16)
(-0.0163 -0.0366 0)
(0.00342 -0.107 -4.53e-16)
(0.00146 -0.111 2.67e-16)
(-0.000994 -0.104 5.5e-16)
(-0.00159 -0.0193 -4.73e-16)
(-0.0199 -0.0434 4.3e-16)
(-0.0224 -0.0443 0)
(0.0141 -0.0333 -2.84e-16)
(0.00421 -0.0812 1.64e-16)
(0.0151 -0.0812 0)
(0.00975 -0.0915 3.88e-16)
(0.0281 -0.0718 -1.88e-16)
(-0.0796 -0.0774 3.4e-16)
(0.0102 -0.0534 1.99e-16)
(0.0618 -0.0446 3.37e-18)
(-0.000324 -0.0986 4.88e-16)
(0.00542 -0.0715 4.15e-16)
(-0.00105 -0.0314 4.63e-16)
(-0.0748 -0.0792 -6.72e-16)
(0.0011 -0.0335 -4.22e-16)
(-0.00617 -0.0368 2.21e-16)
(-0.0106 -0.0783 3.01e-16)
(-0.0126 -0.0846 0)
(-0.00815 -0.0895 0)
(0.0729 -0.0602 0)
(-0.0236 -0.0678 6.09e-16)
(0.00872 -0.101 -4.68e-16)
(0.022 -0.0889 -3.82e-16)
(-0.00834 -0.0777 -7.82e-16)
(-0.0372 -0.0798 9.62e-17)
(-0.00285 -0.094 4.98e-21)
(-0.0274 -0.0729 -8.02e-16)
(-0.0338 -0.0764 -9.72e-17)
(0.0143 -0.0952 9.38e-17)
(0.0322 -0.0705 -4.26e-16)
(-0.0326 -0.0718 -2.14e-16)
(0.041 -0.0862 0)
(-0.00773 -0.0955 9.25e-17)
(-0.0378 -0.0828 5.01e-17)
(0.000151 -0.0177 -1.67e-20)
(0.0412 -0.0841 0)
(-0.0399 -0.082 5.2e-16)
(-0.0358 -0.081 0)
(0.0313 -0.0803 -2.02e-16)
(0.0138 -0.0404 5.68e-16)
(-0.00618 -0.0889 -4.32e-16)
(0.00787 -0.0223 -3.39e-16)
(0.0307 -0.0819 0)
(-0.0649 -0.0874 0)
(0.00128 -0.113 -1.8e-16)
(0.0469 -0.0524 -1.02e-16)
(0.0114 -0.0837 0)
(-0.00873 -0.0205 -1.78e-16)
(0.0362 -0.0815 -1.97e-16)
(0.0316 -0.0687 0)
(-0.0281 -0.0861 -3.83e-16)
(0.0209 -0.0648 0)
(-0.0155 -0.0928 3.91e-16)
(-0.0257 -0.0863 -3e-16)
(0.00356 -0.0957 0)
(0.00991 -0.0828 2.09e-16)
(0.000243 -0.0773 0)
(-0.0601 -0.0911 0)
(-0.00448 -0.109 3.78e-16)
(-0.000551 -0.0619 -3.21e-16)
(-0.0541 -0.0717 -3.83e-16)
(-0.0444 -0.0655 5.43e-16)
(0.000756 -0.0172 0)
(-0.0419 -0.0852 1.03e-16)
(-0.0108 -0.0819 0)
(-0.0369 -0.0807 1.36e-21)
(0.00965 -0.0813 1.59e-16)
(-0.0431 -0.0888 -3.72e-16)
(-0.00142 -0.0642 0)
(-0.00556 -0.064 -6.65e-18)
(0.0362 -0.0648 1.93e-16)
(0.000498 -0.109 5.75e-16)
(-0.0583 -0.0755 0)
(0.0172 -0.0641 4.15e-16)
(-0.0251 -0.0281 2.13e-16)
(-0.0141 -0.0967 -1.47e-16)
(0.0143 -0.0382 -2.59e-16)
(-0.00222 -0.113 9.28e-17)
(0.0508 -0.0797 -1.35e-20)
(-0.0153 -0.0398 0)
(0.0249 -0.0269 -2.18e-16)
(-0.0117 -0.0991 1.95e-16)
(0.0335 -0.0761 -6.03e-16)
(0.000473 -0.0911 -4.28e-16)
(-0.00113 -0.0179 0)
(-0.0125 -0.0166 0)
(-0.00986 -0.0755 2.03e-16)
(-0.000629 -0.102 -3.97e-16)
(0.0361 -0.0794 1.91e-16)
(0.0347 -0.0819 4.03e-16)
(0.0104 -0.0135 1.78e-16)
(0.0194 -0.0257 8.75e-17)
(0.0484 -0.0565 1.72e-16)
(0.000488 -0.0931 0)
(0.00309 -0.11 1.88e-16)
(-0.0756 -0.079 -2.88e-16)
(-0.000819 -0.11 -8.88e-16)
(-0.0091 -0.0814 1.62e-16)
(0.0262 -0.0712 2.08e-16)
(-5.87e-05 -0.0928 3.02e-16)
(-0.00212 -0.0406 0)
(-0.0164 -0.0884 0)
(-0.0531 -0.084 -1.91e-16)
(0.00222 -0.0409 -1.63e-16)
(-0.0698 -0.0869 4.74e-17)
(0.0315 -0.0785 2.4e-17)
(0.0174 -0.0905 5.01e-17)
(-0.00992 -0.0981 -1.93e-16)
(-0.015 -0.0352 4.51e-16)
(-0.00153 -0.0713 2.13e-16)
(-0.0387 -0.084 1.92e-16)
(-0.0067 -0.078 1.58e-16)
(0.00637 -0.0786 0)
(0.0405 -0.0853 -2.03e-16)
(-0.00567 -0.105 -3.82e-16)
(0.0239 -0.0608 0)
(0.00256 -0.099 5.69e-16)
(-0.0691 -0.0738 1.09e-16)
(-0.0156 -0.0896 0)
(-0.0266 -0.0598 2.23e-16)
(0.00914 -0.0936 0)
(-0.0253 -0.0629 4.17e-16)
(-0.0199 -0.0894 0)
(0.00103 -0.0768 3.87e-16)
(0.0391 -0.0648 0)
(0.00133 -0.0616 -4.22e-16)
(-0.0278 -0.0645 -2.31e-16)
(-0.0328 -0.072 -5.38e-17)
(0.000227 -0.0362 -4.21e-16)
(0.0395 -0.0824 2.07e-16)
(0.0276 -0.0635 0)
(0.000838 -0.0709 0)
(0.0212 -0.0894 3.98e-16)
(0.000558 -0.101 -2.83e-16)
(0.027 -0.0494 -3.36e-16)
(-0.00144 -0.112 9.34e-17)
(0.0247 -0.057 0)
(0.0349 -0.0763 2.2e-16)
(0.0013 -0.0895 -5.39e-16)
(-1.86e-05 -0.0722 2.76e-16)
(0.00559 -0.0686 -2.17e-16)
(0.053 -0.0741 9.97e-17)
(-0.00469 -0.0734 2.19e-16)
(0.0312 -0.0471 0)
(0.0427 -0.0874 0)
(-0.00218 -0.036 -4.13e-16)
(0.000285 -0.0938 0)
(0.0214 -0.0863 4.62e-16)
(-0.0248 -0.0373 -2.29e-16)
(0.000915 -0.0579 0)
(-0.0309 -0.0687 -2.72e-16)
(-0.0488 -0.0576 -2.63e-17)
(-0.0119 -0.0659 4.43e-16)
(0.0129 -0.067 8.69e-20)
(0.0147 -0.0883 -2.55e-17)
(0.0256 -0.0382 0)
(0.0284 -0.0639 2.31e-16)
(0.0125 -0.0749 0)
(-0.000879 -0.0951 -2.03e-16)
(0.000421 -0.0721 0)
(-0.0515 -0.0712 0)
(0.0629 -0.0761 -9.89e-17)
(0.0284 -0.0672 2.15e-16)
(0.0673 -0.061 2.79e-17)
(-0.0414 -0.0828 -1.11e-16)
(0.0341 -0.0787 -1.93e-16)
(-0.0514 -0.0753 1.01e-16)
(0.0479 -0.0632 -1.1e-16)
(-0.00624 -0.106 -9.51e-17)
(0.055 -0.0898 -2.6e-16)
(-0.000887 -0.111 1.09e-16)
(0.00102 -0.0917 1.07e-16)
(-0.012 -0.0928 5.61e-17)
(-0.0148 -0.0941 0)
(-0.0305 -0.0482 0)
(0.0249 -0.0558 -4.84e-16)
(-0.0208 -0.0856 0)
(0.0217 -0.0862 -2.08e-16)
(0.000848 -0.0871 0)
(0.016 -0.0873 2.13e-16)
(-0.00993 -0.0985 1.42e-16)
(-0.023 -0.087 -2.27e-16)
(0.0225 -0.0869 -2.28e-16)
(-0.0374 -0.0812 2.1e-16)
(-0.0583 -0.0718 0)
(0.057 -0.0503 -1.55e-16)
(-0.00978 -0.0908 -4.45e-16)
(-0.0706 -0.0767 1.11e-16)
(0.00068 -0.089 0)
(-0.0676 -0.0802 2.3e-16)
(-0.0579 -0.0655 0)
)
;

boundaryField
{
    front
    {
        type            empty;
    }
    back
    {
        type            empty;
    }
    bottom
    {
        type            zeroGradient;
    }
    left
    {
        type            noSlip;
    }
    top
    {
        type            codedFixedValue;
        value           nonuniform List<vector> 8((0 -0.08 0) (0 -0.08 0) (0 -0.08 0) (0 -0.08 0) (0 -0.0799 0) (0 -0.0799 0) (0 -0.0798 0) (0 -0.0798 0));
        name            ParabolicTimeDependentU_max;
        code            #{
		const vectorField& Cf = patch().Cf();
		vectorField& field = *this;

		const scalar r = 0.015;
		const scalar Umax = 0.6;
		const scalar Umin = 0.02;

		scalar 	Uvar = 0.08;
		scalar 	t = this->db().time().value();
		
		if (t <= 0.35)
		{
			Uvar = 0.08+Umax*(1-(pow(t-0.175,2)/(0.175*0.175)));
		}
		if (t > 0.35 && t <= 0.6)
		{
			Uvar = 0.08+Umin*(-1+(pow(t-0.475,1)/(0.125*0.125)));
		}
		if (t > 0.6)
		{
			Uvar = 0.08;
		}
		
		forAll(Cf, faceI)
		{
			const scalar x = Cf[faceI][0];
			const scalar y = Cf[faceI][1];
			field[faceI] = vector(0, Uvar*(-1+((x*x)/(r*r))), 0);
		}
	#};
    }
    right
    {
        type            noSlip;
    }
    inner_arc
    {
        type            noSlip;
    }
}


// ************************************************************************* //
