/*--------------------------------*- C++ -*----------------------------------*\
  =========                 |
  \\      /  F ield         | OpenFOAM: The Open Source CFD Toolbox
   \\    /   O peration     | Website:  https://openfoam.org
    \\  /    A nd           | Version:  9
     \\/     M anipulation  |
\*---------------------------------------------------------------------------*/
FoamFile
{
    format      ascii;
    class       volScalarField;
    location    "0.62";
    object      p;
}
// * * * * * * * * * * * * * * * * * * * * * * * * * * * * * * * * * * * * * //

dimensions      [0 2 -2 0 0 0 0];

internalField   nonuniform List<scalar> 
578
(
-8.81834e-06
-6.50101e-05
-8.48218e-06
-2.33987e-05
-5.8464e-05
4.33784e-05
4.8135e-05
-5.24105e-05
-3.72002e-05
-8.71095e-05
2.04463e-05
-4.70451e-05
-3.00954e-05
-5.20084e-05
4.62797e-05
2.98e-07
-4.3958e-05
-4.72018e-05
-3.56819e-05
-2.25308e-05
-2.16406e-05
2.30892e-06
4.14001e-05
1.73796e-05
2.17703e-05
-3.76633e-05
-3.57495e-05
-4.36019e-05
-5.13214e-05
5.28468e-06
-3.54632e-05
5.59015e-05
-1.29319e-05
-6.14638e-06
3.97967e-05
-1.60178e-05
-4.79222e-05
-4.91825e-05
-3.63779e-06
-6.86619e-05
-5.43365e-05
-4.38414e-05
-6.05875e-05
4.77501e-05
-2.35297e-06
6.03755e-05
4.36711e-05
-4.09316e-05
-1.95897e-06
-3.93901e-05
9.00254e-05
-2.95175e-05
7.74553e-05
-1.0884e-05
-3.36647e-05
-4.28609e-05
3.93154e-05
2.59182e-05
-2.50791e-05
-2.75052e-05
-3.36092e-05
-6.77513e-05
-6.95406e-05
-5.92825e-05
-3.45976e-05
4.40898e-05
-4.75779e-06
2.9201e-05
2.73807e-05
-3.14974e-05
1.95579e-06
5.35455e-05
-3.32474e-05
-3.71447e-05
1.96975e-05
-6.50852e-05
-4.62421e-05
-3.59606e-05
-3.2981e-05
4.21397e-05
4.98685e-05
-2.85798e-05
5.57486e-05
5.4787e-05
4.83111e-06
3.20458e-05
9.3728e-05
-3.1294e-05
-3.52021e-05
2.85157e-05
-3.44429e-05
1.64537e-05
3.83614e-05
-2.65232e-05
3.18256e-05
4.30003e-05
-3.57535e-05
-3.3051e-05
-9.75763e-05
4.60212e-05
4.14538e-05
-3.56442e-05
-3.90664e-05
3.30692e-05
-3.81451e-05
-5.29958e-05
2.57968e-05
-6.65908e-05
3.18518e-05
-5.77144e-05
-1.29231e-05
-3.81732e-05
-2.5592e-05
3.90904e-05
3.65067e-05
-3.73921e-05
-2.34653e-05
-3.58602e-05
2.67427e-05
-3.74658e-05
-3.66546e-05
8.31258e-05
-4.2269e-05
-2.31789e-05
3.55567e-05
1.78165e-05
4.10708e-05
8.99158e-06
3.75875e-05
3.2973e-06
3.92227e-05
1.7547e-05
-2.68246e-05
-4.73524e-05
3.40288e-05
3.80238e-05
-5.39053e-05
-3.70872e-05
3.19414e-05
4.00229e-05
4.50045e-05
7.81006e-06
3.91843e-05
-4.63317e-05
-5.18547e-05
1.16146e-05
1.73641e-05
-4.82873e-05
-4.23026e-05
-2.57309e-07
-4.24366e-05
5.23509e-06
-5.12932e-05
-4.67162e-05
4.58301e-05
-4.1724e-05
-4.06341e-05
-2.64743e-05
5.65872e-05
-4.49223e-05
-4.73858e-05
-4.70024e-05
4.70996e-05
-4.08555e-05
-6.92522e-05
1.30357e-05
-6.12476e-05
4.75408e-05
-2.52445e-05
-3.02522e-05
-3.5431e-05
-5.44695e-05
4.07372e-05
3.44144e-05
4.61871e-05
-3.44068e-05
-3.16091e-05
-3.44454e-05
-3.74507e-05
-6.57089e-05
5.18513e-05
-4.26912e-05
2.14528e-05
-3.06874e-05
3.96927e-05
-4.50698e-05
-3.40977e-06
5.10499e-05
4.59238e-05
-9.83656e-05
-4.69982e-05
-4.37428e-05
1.41738e-05
4.707e-05
-5.0684e-05
-2.88239e-05
-1.90272e-05
-5.11408e-05
4.52766e-05
-4.64417e-05
-2.63677e-05
-2.96019e-05
9.06935e-05
-3.21242e-05
-3.11548e-05
-4.88647e-05
4.34267e-05
-1.73624e-05
-4.66056e-05
1.71366e-05
1.02558e-05
4.17439e-05
3.35331e-05
-2.9149e-05
3.55319e-05
-2.49356e-05
4.63295e-05
-4.62343e-05
4.48078e-05
2.32689e-05
-4.79379e-05
4.56667e-05
-2.96011e-05
-4.29016e-05
5.29573e-05
2.32119e-05
-2.63724e-05
-2.28546e-05
-4.86608e-05
-8.73407e-05
-6.81973e-05
9.61022e-05
3.68144e-05
-1.42602e-05
1.68803e-05
-2.98697e-05
-4.49611e-05
5.08602e-05
-2.89799e-05
-1.47861e-05
4.98519e-05
-5.81583e-05
-2.74954e-05
5.00607e-05
-4.89591e-05
-4.88394e-05
4.25918e-05
-0.000107608
3.4849e-05
-2.2131e-05
-2.73418e-05
2.69194e-05
5.81759e-05
-6.72781e-06
7.279e-05
-6.79077e-06
-8.2435e-05
4.2214e-05
-3.44046e-05
9.90184e-05
-3.2362e-05
5.22936e-05
-1.77505e-05
-1.48796e-05
-4.7699e-05
-3.24536e-05
6.32453e-06
-1.97388e-05
-0.000100753
6.43242e-06
-1.13113e-05
1.64329e-05
-1.75886e-06
-2.3531e-05
-2.70862e-05
-2.31404e-05
-2.8583e-05
1.30775e-05
4.96565e-05
-1.6372e-05
-4.72231e-05
-2.40462e-05
-2.4683e-05
-2.72331e-05
-1.81945e-05
4.16144e-05
-3.70753e-05
2.70693e-05
1.37797e-05
4.00218e-06
2.25646e-06
2.58157e-05
-3.14163e-05
4.48405e-05
-1.86477e-05
-1.51667e-05
-4.87051e-05
-4.8349e-06
-4.03228e-05
-2.04799e-05
-1.67535e-05
-6.40803e-06
-3.09052e-05
-4.88037e-05
-1.59555e-05
-1.21901e-05
-2.78172e-06
-6.14066e-05
-1.32332e-05
-2.06687e-05
-2.1232e-05
-2.41733e-05
-1.44497e-05
-3.94617e-06
-1.12036e-05
-2.43901e-05
2.48527e-05
-2.48963e-07
-1.07909e-05
-8.19799e-06
2.77985e-05
-2.17897e-05
-2.67448e-05
4.40926e-06
-3.15125e-05
-2.74812e-05
4.22729e-05
4.54612e-05
-4.7806e-05
-2.24894e-05
-3.45982e-05
3.64795e-05
-2.00879e-05
-2.95459e-05
3.30113e-05
-1.71746e-06
-2.52723e-05
-2.67183e-05
-4.87097e-05
-3.12862e-05
-2.53627e-05
-2.51326e-05
-1.66366e-05
-5.40878e-05
-1.14058e-05
4.21429e-05
2.81687e-05
3.1991e-05
-2.84844e-05
3.96781e-05
-3.9596e-05
-4.99425e-05
4.15939e-05
-3.43858e-05
-6.43723e-05
5.56184e-05
9.21654e-07
5.21411e-05
-6.56884e-05
5.48494e-05
-7.58182e-06
-3.11831e-05
-2.47076e-06
-1.36445e-05
-1.20383e-05
-9.59606e-07
-1.51247e-05
4.32234e-05
-2.791e-05
-3.04118e-05
-4.36163e-05
-7.27731e-05
7.5887e-07
3.05287e-05
1.3501e-05
9.41359e-05
-3.67648e-05
3.84686e-05
-3.87684e-05
-1.78134e-05
-3.67298e-05
-4.56688e-05
4.28491e-05
6.37008e-06
4.46598e-07
-4.813e-06
1.94042e-06
5.23324e-05
4.80844e-05
-2.15971e-05
-3.08974e-05
1.04366e-05
1.12506e-05
-1.62176e-05
-1.30096e-05
5.97599e-06
6.77443e-05
-3.62694e-05
7.95134e-06
3.32058e-05
-1.11052e-05
6.78012e-05
-6.79709e-07
-4.00261e-05
-3.82173e-05
-1.11151e-05
4.44449e-05
-1.76557e-05
1.62944e-05
3.19417e-05
-8.16501e-06
-4.39077e-05
-4.51882e-05
2.06996e-05
-1.9426e-05
1.80984e-05
-3.77353e-05
3.51804e-05
-5.36532e-05
-4.00159e-05
4.00075e-05
4.94265e-05
-4.20489e-05
4.7037e-05
2.7996e-05
-1.51479e-05
-2.38663e-05
-5.10145e-05
-1.89265e-05
-1.89352e-05
2.85814e-05
4.04097e-06
2.10119e-05
-2.89366e-05
2.00812e-05
-2.57476e-05
-4.47209e-05
-3.17265e-05
-1.60258e-05
-1.82329e-05
-2.77771e-05
-2.35257e-05
-2.47687e-05
-3.28621e-05
3.49335e-05
-1.86839e-05
-3.6348e-05
3.28643e-05
3.2448e-05
-2.63824e-05
4.02423e-05
-3.98837e-05
2.96676e-05
-2.74976e-05
4.13934e-05
-1.93333e-05
-7.79611e-05
2.12925e-05
6.26462e-06
-3.41596e-05
7.0654e-05
4.1335e-05
-3.52458e-05
-7.81681e-06
-2.24785e-05
-2.97764e-05
1.99893e-05
-4.84251e-05
-2.57556e-05
-2.92125e-05
-3.81419e-05
-4.98614e-05
3.05138e-05
-4.31005e-05
-3.09755e-05
-4.07432e-05
-2.8624e-05
-2.68235e-05
-1.22038e-05
-2.31754e-05
6.38762e-06
1.55695e-05
-2.03419e-05
-2.68283e-05
-4.02882e-05
-1.9099e-05
-4.74457e-05
-4.24948e-05
-3.98406e-05
3.68795e-05
-2.69464e-05
2.76144e-05
-1.68111e-05
-2.63948e-05
-3.48488e-05
2.73465e-05
-2.44957e-05
3.59393e-05
-4.17355e-05
-2.68531e-05
-5.05102e-05
-1.28313e-05
-1.46857e-05
-2.39959e-05
-3.38242e-05
-4.11225e-05
3.40071e-05
-2.2913e-05
1.92063e-05
-3.94543e-05
-2.98929e-05
4.85678e-05
-2.48113e-05
5.99178e-05
3.87516e-05
-2.26555e-05
-4.51648e-05
-6.42846e-05
4.51701e-05
-2.73389e-05
1.75779e-05
2.84518e-05
-2.84067e-05
-2.73932e-05
-3.54459e-05
-2.42152e-05
-3.8151e-05
-2.28163e-05
-4.08973e-05
-6.32352e-05
-4.48373e-05
-4.16967e-05
-4.93514e-05
-2.8055e-05
4.17025e-05
3.24398e-05
4.70296e-05
3.21513e-05
3.28635e-05
-4.41938e-05
-2.72466e-05
4.7404e-05
-1.64042e-05
-2.83177e-05
5.31265e-05
-4.54674e-06
2.18239e-05
-2.82172e-05
-1.72696e-05
-2.42948e-05
3.85275e-05
4.52124e-05
-2.47321e-05
3.74123e-05
3.17684e-05
-2.71112e-05
-4.40199e-05
-3.13614e-05
-2.73514e-05
-4.12065e-05
-3.84742e-05
3.86645e-05
-3.61525e-05
-4.24302e-05
-2.73163e-05
3.49066e-05
-2.85143e-05
-3.84537e-05
-4.03574e-05
-2.6603e-05
3.58083e-05
-3.19007e-05
4.88285e-05
-5.31962e-05
-1.71849e-05
2.48199e-05
2.13442e-05
1.61124e-05
)
;

boundaryField
{
    front
    {
        type            empty;
    }
    back
    {
        type            empty;
    }
    bottom
    {
        type            uniformFixedValue;
        uniformValue    
        {
            type            scale;
            scale           
            {
                type            squarePulse;
                start           0.3;
                duration        0.3;
            }
            xScale          
            {
                type            constant;
                value           1;
            }
            value           
            {
                type            constant;
                value           15.1;
            }
        }
        value           uniform 0;
    }
    left
    {
        type            zeroGradient;
    }
    top
    {
        type            zeroGradient;
    }
    right
    {
        type            zeroGradient;
    }
    inner_arc
    {
        type            zeroGradient;
    }
}


// ************************************************************************* //
