/*--------------------------------*- C++ -*----------------------------------*\
  =========                 |
  \\      /  F ield         | OpenFOAM: The Open Source CFD Toolbox
   \\    /   O peration     | Website:  https://openfoam.org
    \\  /    A nd           | Version:  9
     \\/     M anipulation  |
\*---------------------------------------------------------------------------*/
FoamFile
{
    format      ascii;
    class       surfaceScalarField;
    location    "0.62";
    object      phi;
}
// * * * * * * * * * * * * * * * * * * * * * * * * * * * * * * * * * * * * * //

dimensions      [0 3 -1 0 0 0 0];

internalField   nonuniform List<scalar> 
816
(
-3.52607e-12
4.73908e-11
-4.38647e-11
-5.61801e-12
8.86203e-11
-8.30023e-11
-7.93471e-11
7.5821e-11
3.62198e-12
-6.42544e-12
2.80346e-12
3.91499e-11
-3.91499e-11
-1.3685e-11
5.28162e-11
-3.91312e-11
-4.72975e-11
4.72975e-11
-4.42343e-11
4.42343e-11
-8.90892e-11
-1.26689e-12
9.03561e-11
3.33785e-11
-3.89965e-11
6.47243e-11
-7.84093e-11
1.12275e-10
-8.09443e-11
-3.13302e-11
-2.14776e-13
7.55274e-13
-5.40499e-13
9.85496e-11
-9.1863e-11
-6.68658e-12
-1.04108e-10
9.05273e-11
1.3581e-11
-8.00785e-11
1.26881e-10
-4.68025e-11
-1.52315e-11
-2.03141e-11
3.55456e-11
9.34251e-11
-1.53822e-11
-7.80429e-11
1.34703e-11
9.88043e-11
4.31207e-11
-1.3221e-10
1.23996e-11
-8.77759e-12
7.7286e-12
-8.78071e-11
3.20705e-11
-3.98867e-12
-2.80818e-11
3.32858e-11
-5.33751e-12
-2.79483e-11
3.30028e-11
2.83057e-13
-9.17787e-11
2.75032e-11
6.42755e-11
2.02918e-11
-1.81643e-11
-2.12751e-12
5.35994e-12
-1.3003e-11
7.64307e-12
8.60875e-12
8.00116e-11
4.4519e-11
8.23619e-11
2.16901e-11
-1.63302e-11
-1.30837e-12
5.41246e-11
1.35319e-10
-9.07997e-11
4.30233e-11
-2.28565e-11
-2.01667e-11
-1.12664e-11
-9.28419e-11
-2.09204e-11
1.03282e-10
7.33423e-12
9.12154e-11
-1.51828e-11
-7.65959e-11
1.3128e-10
-4.69928e-11
-8.42872e-11
2.32543e-11
1.58955e-11
-3.18156e-11
-3.0764e-11
2.90515e-11
9.17333e-11
-1.206e-12
-4.65454e-11
-2.30401e-11
6.95855e-11
-2.88814e-11
-1.84161e-11
3.60311e-11
8.321e-11
-8.44769e-11
5.1933e-11
6.37678e-12
1.3915e-11
-1.20449e-11
8.12772e-12
3.91718e-12
5.36666e-13
-7.51439e-13
3.28816e-11
-8.1106e-13
1.89434e-11
2.40799e-11
3.91295e-13
-3.91295e-13
4.67026e-11
8.34802e-12
-5.50506e-11
-3.98867e-12
-4.65454e-11
-8.63501e-11
7.11186e-11
3.49495e-11
-5.58699e-11
7.07495e-12
2.11525e-12
-2.24294e-11
-3.78116e-11
2.24294e-11
-3.92248e-12
-8.79406e-11
2.03973e-12
-3.56857e-12
1.52884e-12
9.15449e-11
1.88365e-13
8.73324e-11
4.79864e-11
-2.07762e-11
8.55005e-11
-4.53636e-11
1.1384e-10
-6.84763e-11
2.53385e-11
7.16676e-11
-9.70061e-11
1.01462e-11
-1.33533e-11
2.97557e-12
-9.35848e-13
7.47977e-11
3.67193e-11
-1.11517e-10
6.14715e-11
-4.25236e-11
-1.89479e-11
3.57381e-11
-3.57381e-11
-5.24466e-11
9.55673e-11
-7.14721e-11
1.90255e-11
3.73085e-12
-1.64061e-11
-2.74586e-11
4.38647e-11
-1.03352e-10
-3.19079e-12
1.06543e-10
4.73908e-11
4.34964e-11
-4.34964e-11
-4.81413e-11
4.81413e-11
-5.25952e-11
1.01855e-10
-4.92596e-11
2.98703e-11
1.39762e-11
8.12772e-12
5.97478e-11
-1.30451e-11
-2.32259e-12
-6.53262e-11
6.76488e-11
6.56667e-11
4.35843e-12
-7.00251e-11
3.52584e-12
3.76788e-11
-9.02739e-11
2.70037e-12
8.04416e-11
-8.31419e-11
4.43535e-12
-3.62058e-12
-8.14773e-13
-9.21661e-11
1.40908e-11
7.6402e-11
-9.04928e-11
-5.4455e-13
-9.3179e-13
3.33785e-11
8.72068e-12
-1.01563e-10
-1.36416e-12
9.29091e-11
-5.88621e-11
8.42006e-11
1.36984e-12
5.42941e-12
-6.79926e-12
-6.33989e-11
7.70693e-13
-7.70693e-13
-9.48707e-12
1.00702e-10
2.23403e-11
3.18156e-11
2.98703e-11
-2.64312e-12
-3.3095e-11
4.48776e-11
5.84048e-11
9.91708e-11
7.80752e-11
-1.11094e-10
3.30186e-11
3.34243e-12
-1.97259e-12
-6.59383e-12
1.68391e-13
9.06538e-12
8.94075e-11
-9.84729e-11
-1.54782e-12
6.72145e-11
2.26141e-13
5.4455e-13
-6.65368e-12
7.09292e-11
-5.95464e-11
1.14051e-11
2.22083e-11
9.57798e-12
2.82159e-12
-1.60501e-11
-8.02383e-11
9.23239e-11
-1.20856e-11
-3.9169e-11
-6.41831e-11
8.17875e-11
-5.79941e-11
-2.37934e-11
7.33462e-11
2.26161e-11
-9.08439e-11
5.4774e-13
9.02962e-11
-9.91789e-11
1.89406e-11
1.80376e-12
2.63159e-12
-2.23978e-11
2.23978e-11
-8.14021e-11
-9.44183e-12
-2.93442e-13
8.24936e-11
-8.22002e-11
-4.98108e-13
-8.04462e-11
-8.90289e-11
-2.2065e-11
-6.20334e-11
6.25811e-11
-1.09804e-12
2.29417e-11
-2.18437e-11
-2.58327e-11
-6.31314e-11
-3.46358e-12
1.659e-11
-1.31264e-11
-2.90515e-11
-2.17584e-12
-8.21114e-11
-1.25951e-11
-4.07064e-11
5.33016e-11
5.06095e-13
-2.2589e-12
1.75281e-12
8.02958e-11
-5.76797e-11
-1.04474e-10
-6.07778e-13
1.05082e-10
3.06336e-11
-3.06336e-11
3.49495e-11
6.68968e-12
1.57081e-11
1.06449e-11
9.2863e-11
-1.03508e-10
-3.25665e-12
9.63343e-12
-7.74751e-11
8.60838e-11
-1.98914e-13
-8.38001e-13
1.03691e-12
-2.74586e-11
7.37369e-12
-1.11848e-10
-8.05669e-11
2.29417e-11
-8.10199e-11
8.04121e-11
-5.11418e-12
5.11418e-12
6.77007e-11
-8.57775e-12
-6.41949e-11
7.48398e-11
9.24417e-13
-1.12333e-12
2.07802e-11
-1.81761e-11
-2.60403e-12
-6.94398e-12
-7.40759e-11
3.0764e-11
-3.12621e-11
3.01798e-11
-3.04732e-11
-3.63098e-12
1.9002e-11
-1.5371e-11
1.59147e-12
-6.57864e-11
9.24827e-12
-7.71943e-12
5.73738e-12
3.51089e-12
8.0184e-11
-4.09077e-11
3.39637e-11
-1.10194e-11
2.75416e-11
-1.65221e-11
-2.49818e-11
2.65733e-11
-8.39426e-12
9.68872e-11
-8.8493e-11
-6.37375e-11
7.77137e-11
9.46823e-12
2.48868e-12
8.00049e-11
5.06094e-13
-5.58699e-11
3.95371e-11
4.22504e-11
9.55696e-11
6.01411e-12
-1.01584e-10
2.9428e-12
-1.39622e-11
-9.8395e-11
-1.91477e-12
1.0031e-10
8.25303e-11
-2.11813e-12
7.27513e-11
2.08847e-12
3.89965e-11
-1.86802e-11
1.6911e-12
1.69891e-11
1.12333e-12
1.08124e-14
-1.13415e-12
2.2589e-12
-5.51555e-12
7.69539e-11
-7.87654e-11
1.8115e-12
8.11989e-11
-8.06155e-11
-5.8346e-13
9.24414e-13
5.84766e-12
-2.27798e-11
-2.07166e-11
2.09997e-12
1.69816e-11
-1.34707e-11
7.52703e-13
-5.24626e-12
6.83124e-11
4.16662e-12
-4.48731e-11
1.09151e-10
6.15122e-12
-8.75533e-11
7.53191e-12
9.44972e-12
-5.69802e-11
1.4704e-11
-5.12602e-12
-1.12044e-11
1.5371e-11
9.08227e-11
-6.0541e-11
-5.24533e-12
-5.00339e-11
5.67236e-11
3.18456e-11
-3.39637e-11
2.86617e-11
-2.65733e-11
4.96706e-11
-2.38896e-11
9.35776e-12
1.45319e-11
2.9428e-12
-2.27798e-11
1.9002e-11
-3.1152e-11
-6.09817e-11
-4.09077e-11
3.18455e-11
2.86617e-11
-2.78105e-13
-5.7589e-12
4.45909e-11
-3.8832e-11
-2.49818e-11
-2.21985e-11
-2.04009e-12
-5.51555e-12
-2.18437e-11
1.39622e-11
1.94163e-11
3.01798e-11
6.50842e-12
2.27028e-11
-2.92112e-11
2.4521e-11
1.10633e-11
8.12605e-11
1.46521e-11
3.94725e-11
4.64997e-12
-9.94925e-12
5.29928e-12
3.91719e-12
6.84029e-11
-9.9555e-11
8.05697e-12
-1.03904e-10
1.04093e-10
9.94925e-12
-1.57081e-11
1.08102e-14
2.81427e-12
1.38849e-11
2.08953e-11
-2.74723e-11
7.08159e-12
8.66413e-11
1.71187e-11
-1.44191e-11
2.37768e-11
1.52974e-11
-9.75403e-12
-4.66504e-12
2.39e-11
-1.73916e-11
-1.12044e-11
3.04732e-11
9.86751e-12
1.02678e-11
-2.01353e-11
3.12621e-11
1.29488e-11
4.3497e-12
1.94271e-11
1.06382e-11
1.38828e-11
5.20247e-12
-2.84167e-12
1.24988e-11
-1.24988e-11
2.2645e-11
-5.24845e-11
-7.649e-11
9.24974e-12
-2.74259e-11
-5.63587e-12
5.63587e-12
-2.81427e-12
-2.85633e-11
-1.0506e-11
8.57775e-12
1.92829e-12
1.0506e-11
-4.87017e-12
1.3434e-11
2.2645e-11
-8.10478e-11
-5.59541e-12
3.3137e-11
-8.08407e-12
1.35684e-11
-5.48433e-12
-2.8816e-12
1.78916e-11
2.06998e-11
2.01107e-11
-4.08105e-11
-1.94324e-11
4.01322e-11
-3.14391e-11
1.68128e-11
-3.24442e-12
2.43107e-11
-1.9961e-11
1.01513e-11
-4.12282e-12
-3.3225e-12
5.98219e-11
1.65455e-11
-2.26717e-11
2.88267e-11
-6.15504e-12
-1.13708e-11
2.87825e-11
-1.2237e-11
9.15755e-11
2.49167e-11
3.86579e-12
-2.29002e-12
1.06581e-10
-2.5891e-11
1.3654e-11
-2.59161e-11
-1.13351e-11
2.19733e-11
-1.58027e-12
-2.46156e-12
1.90515e-11
-2.84147e-11
8.45369e-12
5.99277e-11
-3.9817e-11
1.42161e-11
7.92255e-12
-7.03238e-11
6.24012e-11
2.39254e-11
-2.39254e-11
-1.80081e-11
1.80081e-11
-2.6181e-11
2.6181e-11
2.09318e-11
-2.09318e-11
2.32543e-11
-2.88814e-11
-4.1485e-11
-9.3397e-12
5.08247e-11
3.60311e-11
-3.81466e-11
5.23627e-11
-3.48251e-11
3.48251e-11
-3.3095e-11
-3.34609e-11
3.34609e-11
-1.65583e-11
8.0024e-11
-6.34657e-11
2.11525e-12
-2.17811e-11
-5.41971e-11
7.59782e-11
-2.00225e-11
2.00224e-11
-2.13475e-11
7.04722e-11
-4.91246e-11
-7.07554e-11
-9.22197e-11
3.96224e-12
-3.78116e-11
-3.379e-11
7.05093e-11
3.05008e-11
-8.42971e-11
9.9679e-11
3.28816e-11
-1.36608e-11
-2.25563e-12
2.92364e-12
1.68673e-11
1.86783e-11
-3.50692e-11
-4.78247e-11
8.28939e-11
4.49548e-11
-6.91723e-11
-1.87342e-12
-2.01432e-12
-9.3179e-13
-4.91971e-11
-2.11266e-11
2.1275e-11
-6.31563e-11
-1.3018e-10
5.21369e-11
-2.26842e-11
-1.49939e-11
3.76781e-11
-1.36638e-11
-2.72329e-11
1.81553e-11
9.07761e-12
-4.38108e-11
-1.22157e-11
1.22157e-11
-8.29852e-12
2.27258e-11
5.72858e-11
-2.71448e-13
-4.99246e-13
-2.15396e-12
-4.69707e-11
-8.21401e-11
4.59648e-11
-2.72865e-11
6.21178e-11
-8.33928e-11
-9.04313e-13
1.03292e-10
6.56281e-11
5.28975e-11
-1.22354e-11
-5.30908e-11
2.49375e-11
5.55041e-11
-4.08266e-11
-7.06904e-11
1.1311e-11
2.50794e-11
-8.30735e-11
-7.21568e-11
6.44745e-11
8.5619e-11
6.98227e-11
-9.48089e-11
2.49862e-11
-2.85469e-11
-1.84644e-11
-2.56199e-11
-2.94307e-11
-2.85469e-11
-2.97323e-11
-1.12044e-10
-9.83066e-12
1.21874e-10
3.34546e-11
2.94363e-11
4.01492e-11
-5.71502e-13
-3.60289e-13
-2.54732e-11
2.54732e-11
7.19933e-11
2.71775e-11
3.38588e-11
2.58173e-11
-7.94461e-11
-7.87148e-11
3.17442e-11
1.31957e-11
9.65759e-13
1.46973e-11
-2.4777e-11
1.00797e-11
-5.46239e-12
-1.31823e-12
-6.21474e-11
1.66256e-11
-8.33799e-11
7.35493e-11
-3.37498e-12
-1.3003e-11
6.65028e-11
-2.71449e-13
-3.7088e-11
-5.715e-13
-6.12574e-11
3.37218e-11
-9.64197e-12
4.21421e-11
-9.59627e-12
7.19975e-11
3.34148e-11
-8.23494e-11
-1.61235e-11
-5.98855e-11
-2.68048e-11
-6.53773e-13
3.87463e-11
4.73375e-11
-8.52449e-12
-1.10077e-11
2.14914e-11
4.39705e-12
2.18822e-11
1.30673e-11
7.04905e-11
9.28885e-11
-3.4992e-12
-2.37337e-11
7.64306e-12
-2.68048e-11
-2.8438e-12
4.59661e-12
-2.81291e-11
1.87894e-11
6.35072e-11
3.71953e-11
-6.76314e-11
2.18822e-11
2.94363e-11
2.34892e-11
1.0407e-10
2.20211e-11
6.78963e-12
-5.44599e-11
-1.62996e-14
1.62996e-14
-2.47183e-12
8.74467e-11
1.59704e-13
-1.59704e-13
7.26148e-11
7.58807e-13
-2.34979e-12
7.61771e-11
-1.62992e-14
1.59703e-13
8.29258e-11
-1.94186e-11
-6.29844e-11
2.16494e-11
-7.52744e-11
2.23719e-12
2.35942e-12
5.80625e-11
-6.03182e-11
-2.34645e-13
-9.83382e-12
-1.49432e-11
1.21221e-11
-2.54754e-11
-3.52916e-13
1.11172e-12
2.72598e-11
-4.84296e-11
4.64152e-11
1.16472e-11
1.65234e-11
3.6587e-12
-8.81356e-11
-6.50874e-11
3.8236e-12
6.89637e-12
7.28955e-11
5.22393e-13
7.64712e-13
2.0413e-11
-3.67824e-11
-2.41247e-11
-1.04616e-10
-1.65692e-11
-4.91214e-11
-2.82729e-12
4.99325e-11
-7.51926e-11
4.43984e-12
2.87748e-13
4.11798e-13
-3.13509e-12
-2.78551e-11
-2.87955e-11
-9.49655e-12
)
;

boundaryField
{
    front
    {
        type            empty;
        value           nonuniform List<scalar> 0();
    }
    back
    {
        type            empty;
        value           nonuniform List<scalar> 0();
    }
    bottom
    {
        type            calculated;
        value           nonuniform List<scalar> 
12
(
-4.38464e-11
-9.59623e-11
9.21338e-11
-8.95702e-11
3.21222e-11
5.29927e-12
-7.08159e-12
6.96032e-11
9.69662e-11
-7.11137e-11
-3.55619e-11
4.70114e-11
)
;
    }
    left
    {
        type            calculated;
        value           uniform 0;
    }
    top
    {
        type            calculated;
        value           uniform 0;
    }
    right
    {
        type            calculated;
        value           uniform 0;
    }
    inner_arc
    {
        type            calculated;
        value           uniform 0;
    }
}


// ************************************************************************* //
