/*--------------------------------*- C++ -*----------------------------------*\
  =========                 |
  \\      /  F ield         | OpenFOAM: The Open Source CFD Toolbox
   \\    /   O peration     | Website:  https://openfoam.org
    \\  /    A nd           | Version:  9
     \\/     M anipulation  |
\*---------------------------------------------------------------------------*/
FoamFile
{
    format      ascii;
    class       volVectorField;
    location    "0.62";
    object      U;
}
// * * * * * * * * * * * * * * * * * * * * * * * * * * * * * * * * * * * * * //

dimensions      [0 1 -1 0 0 0 0];

internalField   nonuniform List<vector> 
578
(
(0.00107755 0.00143183 0)
(0.000921715 0.00209953 -3.32158e-21)
(0.0016623 0.00218622 0)
(-0.000121077 -0.000137978 -1.25514e-21)
(0.000306931 -0.000617832 0)
(0.00125514 -0.000884715 -1.69141e-21)
(0.000343167 0.000748535 -2.69045e-22)
(0.000361699 -0.00067421 -2.87772e-21)
(0.00171586 -0.00272728 0)
(0.000512726 0.00134394 4.17722e-21)
(0.0016334 -0.00116776 1.23571e-21)
(0.00123717 -0.00232545 -1.61628e-22)
(1.01867e-05 -3.25574e-05 0)
(0.00122964 -0.00237379 3.24858e-21)
(0.0011951 0.00250975 0)
(0.00208491 -0.00247301 2.48538e-22)
(0.000764535 0.000795876 1.30804e-21)
(0.0015502 0.00173669 -4.42674e-21)
(0.0010979 -0.00211963 8.10148e-22)
(0.00186025 -0.00267696 1.39937e-21)
(-0.000206504 -0.000276331 1.29166e-21)
(0.00171961 -0.00227179 4.55585e-22)
(0.000455213 -0.00050505 -2.05264e-21)
(0.000314452 0.000753724 -1.25695e-22)
(0.000136885 0.000812034 0)
(0.000927173 -0.00214832 4.53195e-23)
(-0.000172738 0.00045025 0)
(-6.96375e-05 0.000420704 -1.28224e-22)
(0.0011228 0.00205362 2.51314e-21)
(0.00211026 -0.00247488 0)
(-0.000137864 0.000645297 2.09113e-21)
(0.000840357 -0.000798839 -1.35646e-22)
(0.00216217 -0.00257319 1.77161e-23)
(1.19466e-05 0.00100072 1.19876e-22)
(0.00105449 0.00225152 -2.40632e-21)
(0.00181516 -0.00204708 -4.0285e-22)
(0.00105391 -0.00205223 -2.97309e-21)
(0.000957362 -0.00197854 0)
(0.00200682 0.00238877 1.61965e-22)
(0.000495893 -0.000984942 0)
(0.000544536 -0.00113205 2.87771e-21)
(0.000659572 -0.00114732 1.63446e-21)
(0.000551469 -0.00112596 3.92428e-21)
(0.00103593 0.00217821 -8.6764e-23)
(0.0013018 -0.0014239 0)
(0.000568668 0.0012113 1.34883e-22)
(0.000571606 0.00130743 2.67512e-21)
(0.00150939 -0.00243936 1.18137e-21)
(0.00201348 0.00247826 -1.65227e-22)
(-0.000241963 0.000369066 0)
(0.000175853 -6.51044e-05 1.30915e-22)
(2.03026e-05 -1.61854e-05 -8.58886e-24)
(0.000731996 -0.000703017 3.3034e-21)
(-0.000106373 0.000993272 -1.18562e-22)
(1.04201e-05 -8.90118e-06 0)
(0.00130114 0.000702829 -1.15062e-21)
(0.000104304 -0.00014503 -4.74898e-22)
(0.000722618 -0.000709695 0)
(0.00125829 0.00162102 2.16114e-21)
(0.00114468 -0.00127204 -5.63414e-22)
(0.00154811 0.00198388 1.13399e-21)
(0.000344377 0.000434374 2.44877e-21)
(0.000927663 0.00101758 3.43346e-21)
(0.00105511 -0.00209162 -1.45737e-21)
(-0.000106416 -4.28836e-05 -1.93751e-21)
(0.00127909 0.00251513 1.37592e-21)
(0.00204879 -0.00258729 -7.57268e-22)
(0.0016212 -0.00149246 0)
(0.00206639 -0.0022926 2.47755e-22)
(0.00109443 -0.00261377 -1.07345e-21)
(2.83896e-05 0.000947908 0)
(0.000479337 -0.000254132 -3.41837e-21)
(-5.21149e-05 -4.43548e-05 4.04221e-21)
(0.00121882 -0.00253297 -2.74756e-21)
(0.0015016 -0.000401161 0)
(0.000312688 -0.000639563 -1.59291e-21)
(0.00151398 -0.00227864 -3.54779e-21)
(0.00119935 -0.00180953 2.03257e-21)
(-5.22011e-05 -6.97202e-05 -1.94399e-21)
(0.00100139 0.00110982 8.79159e-22)
(0.00144198 -0.00229211 -3.50638e-21)
(0.000557433 0.00087599 -3.30362e-21)
(0.000401221 -0.000770338 -4.64575e-21)
(0.000529396 -0.00078692 0)
(0.00190073 0.00255657 4.02162e-22)
(0.000373169 0.00121235 -2.55068e-21)
(0.000121911 -0.000153567 0)
(0.0016665 0.000571738 -5.20723e-22)
(0.00078795 -0.0016432 2.23461e-21)
(0.000892954 0.00212199 1.11438e-23)
(-0.000236672 0.000580486 -2.10692e-21)
(0.00159685 0.00225953 2.99523e-25)
(0.000895522 0.00193313 2.06735e-21)
(-7.42795e-05 -6.759e-05 -7.68397e-22)
(0.00210966 -0.00247962 -2.89941e-22)
(0.00166706 -0.0024196 0)
(-8.65831e-06 -1.77744e-05 -2.16123e-21)
(2.57739e-05 -1.05289e-05 0)
(0.00024193 0.00068337 1.17006e-21)
(0.00121289 0.00255057 -2.53345e-21)
(0.0011554 0.00218835 -1.49493e-22)
(0.00097339 -0.00244333 -1.09796e-21)
(-0.000168303 3.80056e-05 0)
(0.00158181 0.00175354 0)
(-1.3583e-05 1.047e-06 -9.34127e-22)
(0.00124223 -0.00237653 -2.79301e-21)
(0.00124961 -0.000439623 0)
(0.000556187 -0.00114213 -1.89472e-21)
(0.000189287 0.00059866 1.57974e-21)
(0.000615387 -0.00121619 3.71722e-21)
(0.00178048 -0.00220128 -5.7689e-22)
(0.00101042 -0.00253827 -1.01102e-21)
(0.00201287 -0.00263281 -1.77203e-22)
(0.00179026 -0.00229215 2.78347e-22)
(0.00189321 -0.0024888 -2.77162e-22)
(-0.00010138 1.56519e-05 -2.31151e-21)
(-0.00012138 -0.000102956 0)
(0.00156356 0.00251034 6.07728e-22)
(0.000788045 0.0017759 0)
(-3.12684e-05 -5.08383e-06 -2.37678e-21)
(0.00072325 -0.00168198 2.51383e-21)
(0.000866891 -0.00139228 0)
(0.00116957 -0.00242164 2.89255e-22)
(-0.000136331 -0.000306933 -1.6045e-21)
(0.000798657 -0.00133608 0)
(0.00090254 0.00255572 5.6352e-22)
(0.001235 -0.00212638 3.41379e-21)
(0.00197803 -0.00225578 -1.94021e-23)
(0.0012667 0.00259306 -2.35979e-21)
(0.000691283 0.00250855 0)
(0.00119488 0.00238719 2.8809e-21)
(0.000844242 0.00258318 0)
(-9.19237e-05 -6.50361e-05 -8.28205e-22)
(0.000173239 -0.000404817 -2.3671e-21)
(0.00119631 0.00250327 -2.51379e-21)
(0.00108969 0.00195657 0)
(0.00107826 -0.00192757 3.35921e-21)
(-7.74443e-05 -9.61755e-06 2.36857e-21)
(0.00165093 -0.0022292 -8.67903e-24)
(0.000976862 0.00188182 -2.41941e-21)
(0.000428998 0.000793802 0)
(0.000727199 0.00258186 0)
(0.000801062 0.00153976 0)
(0.000164868 -0.000388511 0)
(0.000408947 -0.000893994 2.97405e-21)
(0.00206453 0.00259525 0)
(0.000566707 0.00149471 1.73719e-21)
(-2.61694e-05 4.81524e-05 -3.08429e-21)
(0.001207 -0.00260409 0)
(0.000640201 0.00218003 0)
(0.00150268 -0.00269399 0)
(0.000426858 0.000625825 1.21258e-22)
(0.000468688 -0.000498925 2.89199e-21)
(0.000290852 -0.00069952 2.24171e-21)
(0.0012739 0.0025732 -7.92144e-23)
(-0.000130644 0.000240731 -2.51153e-21)
(0.00146838 0.00209473 -2.82919e-21)
(4.09783e-06 3.25439e-05 -1.48988e-21)
(0.000388457 0.000418608 1.17251e-21)
(0.00154151 -0.00272794 0)
(0.00131074 -0.00244016 0)
(0.00117213 -0.00213139 0)
(0.000221797 0.000411078 0)
(0.00133217 -0.0023299 3.64835e-23)
(4.9365e-05 -0.000106866 0)
(0.000698814 0.00204782 -9.19602e-22)
(5.17936e-05 -0.000265594 0)
(0.00106753 0.00209321 -2.27469e-23)
(9.26172e-06 3.89175e-05 0)
(-0.000474021 0.000262259 0)
(0.00122003 -0.00203433 2.18012e-21)
(0.000604364 -0.00106685 0)
(0.00060233 0.00105911 0)
(0.000296374 0.000634037 -3.37647e-23)
(0.000892115 0.00170147 0)
(-0.000203127 -6.11166e-05 0)
(-0.000248626 -0.000122028 1.90656e-21)
(0.00137872 0.0019721 -2.29075e-22)
(0.000699602 -0.00118456 -2.06532e-21)
(0.000466126 0.000580036 0)
(0.000488045 0.000903995 2.45583e-23)
(0.00127462 0.00236487 3.32044e-21)
(0.000584215 0.00203524 0)
(-0.00014551 -0.000114583 -3.38597e-21)
(0.00133147 0.00228212 0)
(-1.01828e-05 8.50008e-06 2.05564e-21)
(0.000691917 -0.000865255 1.58469e-22)
(0.00126857 0.00262474 2.5192e-21)
(0.00131871 0.00265677 0)
(0.000181584 0.000316116 0)
(0.00145357 -0.00265211 0)
(0.00113707 -0.00201052 2.63674e-21)
(0.00112122 -0.00154405 -4.91482e-22)
(0.000948666 0.00182435 2.23155e-23)
(0.000790656 0.00150114 2.23773e-21)
(-0.000577573 -0.000150148 3.2316e-21)
(-1.54554e-05 2.30656e-05 9.97092e-22)
(-4.95875e-05 0.00013933 -3.1117e-21)
(0.00100925 0.00191462 0)
(0.001111 -0.00197515 0)
(7.18041e-06 2.04407e-05 0)
(-0.000160982 -0.000137678 1.66596e-21)
(0.000531997 -0.00115992 4.31743e-21)
(-0.000524823 7.65713e-06 -3.23119e-21)
(-0.000377645 -0.000152639 -9.48111e-22)
(0.00127487 -0.00227564 -6.0166e-21)
(0.00121272 0.00229365 0)
(0.00106469 0.00139943 1.11602e-22)
(0.00145651 -0.00269575 0)
(0.000621288 0.000751729 -1.55203e-21)
(0.000416003 0.00107405 -8.36597e-22)
(0.00135615 0.00275356 0)
(0.00107833 0.0023187 0)
(-0.00041304 -0.000243073 8.44471e-22)
(0.000888856 0.00181819 0)
(-0.000173515 -0.000445208 1.50798e-21)
(0.0011307 0.00221473 0)
(0.00129017 -0.00230924 -1.06747e-23)
(0.00131556 0.00270328 2.80974e-21)
(0.000213593 0.000501699 0)
(0.00142903 -0.00264866 3.20652e-21)
(0.00102153 0.00196865 2.68595e-21)
(0.000525063 -0.00139447 -4.18462e-21)
(0.000627158 -0.00112653 -2.60824e-21)
(0.000518361 0.000970115 0)
(0.000558759 0.00128706 1.92597e-23)
(-0.000574512 -0.0003289 -1.53786e-21)
(-2.22956e-06 2.59263e-05 0)
(-2.02707e-05 4.35552e-05 2.30958e-21)
(8.46071e-05 5.50404e-05 4.03731e-21)
(0.0003644 0.000804326 0)
(0.000214631 -0.000473148 4.67949e-21)
(0.000164612 0.000342327 2.69709e-23)
(0.000472409 -0.00243601 0)
(0.000652278 0.00237258 0)
(0.000403108 -0.000648342 -1.02483e-21)
(0.000321948 -0.000572288 -2.1956e-21)
(0.00027676 0.000518529 -2.45731e-21)
(-7.48643e-06 -1.86728e-05 1.80632e-21)
(0.000350888 -0.00108057 0)
(0.000240174 0.000447458 -2.37364e-21)
(0.000313051 -0.000522095 -2.85034e-21)
(-0.000607804 -0.00011376 4.21357e-22)
(0.000459045 0.000845011 -4.70179e-23)
(-3.0268e-05 0.000111939 4.60166e-21)
(0.000224128 -0.000497616 -2.65277e-21)
(0.000203062 0.000389423 0)
(0.000303567 0.000865094 0)
(0.000319287 0.00053117 0)
(-0.00035609 0.00066902 -6.8248e-22)
(-0.00052357 -0.000290634 0)
(0.00103824 0.00257772 2.13324e-23)
(0.000675193 -0.00108741 3.11604e-21)
(9.40697e-05 -0.000325208 0)
(8.42344e-05 9.79452e-05 0)
(0.000527546 -0.00262821 -3.31652e-22)
(0.000120755 -4.61157e-05 -5.26993e-21)
(0.00146278 0.00277837 -1.31297e-21)
(0.000330046 -0.000589 -1.68001e-21)
(0.000281681 -0.000595734 -6.08957e-21)
(0.000181744 -0.000493709 1.5644e-21)
(0.000255778 0.000477793 -1.96806e-23)
(-1.61732e-05 2.58364e-06 -1.64458e-21)
(-4.47942e-05 -5.10141e-05 1.96498e-21)
(0.0012755 0.00251672 -5.09351e-21)
(0.00069437 -0.00188258 1.62505e-21)
(0.000218242 -0.000806116 0)
(5.31689e-05 -0.000180268 -1.26225e-21)
(0.000128821 0.000297805 -7.5926e-23)
(8.83273e-06 -0.00011992 0)
(2.59351e-05 0.000161011 0)
(0.000831006 0.00235158 0)
(0.000317036 -0.00122821 0)
(-0.000483653 -0.000312498 6.96861e-22)
(-0.000300406 -0.000229845 8.46782e-22)
(-0.000415984 2.99981e-05 -1.3194e-21)
(-0.000328012 0.000750027 -8.64754e-22)
(7.44202e-05 0.00019852 -1.51798e-25)
(0.000557752 0.00103675 0)
(-9.98077e-05 0.000510149 -1.00092e-21)
(0.000615224 -0.00108984 2.19272e-23)
(-0.00047837 0.000311645 6.88026e-22)
(-0.000354367 -0.000543682 0)
(-0.000505722 -0.000401848 -8.01733e-22)
(-0.000203699 0.000104114 -5.42623e-22)
(0.000373981 0.00073381 0)
(0.000107567 -0.000290539 1.31536e-23)
(0.000120357 0.000279475 -1.31216e-21)
(2.18003e-05 0.000294272 2.19037e-22)
(6.34155e-06 0.000652699 -4.72051e-22)
(0.000398052 -0.00180295 -2.44815e-23)
(0.00103746 0.00244679 0)
(-0.000489331 0.000385543 1.54668e-21)
(0.000303458 0.000549561 -2.15875e-21)
(-2.515e-05 -0.000116465 -4.09438e-22)
(-5.56952e-05 -0.000166671 6.43576e-22)
(0.000317484 -0.000566098 0)
(0.000499518 -0.0025386 7.85048e-22)
(-7.45743e-06 -0.000349619 -4.43523e-21)
(-4.73181e-05 -0.000296782 3.14127e-22)
(-0.00021678 0.00076925 1.01897e-21)
(0.000534778 0.0018349 0)
(-1.48276e-05 -0.000202947 1.69204e-21)
(1.33072e-05 -0.000176334 2.16029e-21)
(-2.79229e-05 -5.46056e-05 -7.20828e-22)
(-1.82612e-05 0.000429968 1.41891e-22)
(0.000475126 -0.00220266 -2.14289e-22)
(0.000623119 0.000286442 0)
(0.000305966 -0.000172767 2.52158e-22)
(-2.18508e-05 -0.000218472 9.104e-22)
(0.000482178 -0.00155697 0)
(0.00109178 -0.000380581 0)
(0.000918123 -0.000349141 3.98906e-22)
(0.000413768 0.00126731 -7.46606e-25)
(0.0004088 0.00018532 6.88844e-22)
(-0.00036899 -0.000661077 1.57601e-21)
(0.000900304 0.00222346 0)
(0.000131993 0.000380176 1.90456e-25)
(0.000288377 0.000890876 0)
(0.000156621 0.000538612 -7.56656e-22)
(0.000738016 0.00168908 0)
(-0.000134397 -0.000528658 1.48196e-21)
(-0.000558427 0.000194903 -1.76251e-21)
(0.000701573 0.000404517 1.69699e-22)
(-0.000428616 -4.24953e-05 2.51801e-21)
(6.24818e-05 -0.000685798 -1.36475e-21)
(0.00139893 0.00271886 0)
(0.00085174 0.00159907 0)
(0.00142111 -0.00259426 2.90923e-21)
(0.000385716 -0.000619208 2.02206e-21)
(-0.000241109 2.46396e-06 5.44563e-22)
(0.00154961 0.00271698 0)
(0.000544403 -0.00041282 -6.38144e-22)
(-3.52037e-05 -0.000756813 3.96985e-22)
(0.00069831 0.0014415 0)
(0.000721069 0.000156595 -9.71623e-23)
(-0.000377857 -0.00036206 -7.3137e-24)
(-0.000228955 -0.00073446 -1.15778e-21)
(0.000395789 -0.000267757 0)
(-0.000372731 0.000596777 0)
(-0.000448112 -0.00058762 0)
(-0.000538179 -0.000473123 1.53357e-21)
(0.00143528 -0.000268276 -1.74617e-21)
(0.000359074 -1.82234e-05 1.22392e-22)
(0.00102686 -0.000146667 -2.28873e-22)
(0.00152235 -0.00225746 0)
(0.00143775 -0.00160783 -9.23402e-22)
(0.000207403 0.000467904 -6.63757e-22)
(0.000156098 -0.000367711 6.99276e-22)
(0.000232571 0.00050055 -9.6248e-22)
(0.000186322 -0.000399582 -1.4909e-21)
(0.000209212 -0.00040442 0)
(0.000256928 0.000513794 6.23565e-22)
(0.00112321 -1.47497e-05 0)
(0.000258211 -0.000543279 0)
(0.000265309 0.000625423 0)
(0.00134774 -0.000210328 1.81464e-22)
(0.000299587 0.000639909 -9.66694e-22)
(0.000365668 -0.000672295 -2.65479e-21)
(0.00035728 0.000675244 -5.32401e-22)
(0.00206087 -0.00011109 1.76403e-22)
(2.52587e-05 7.80102e-05 0)
(0.0018492 -0.000342106 4.53958e-23)
(0.000143112 -0.000428206 0)
(0.00160118 -0.00029956 8.713e-23)
(0.0017486 -0.000328328 0)
(0.00195212 -0.000119743 -1.70051e-22)
(0.00159055 -0.00232978 4.92068e-21)
(-0.000282323 -0.000256938 -7.66087e-22)
(0.000590211 0.000668262 0)
(0.0010252 -0.00222453 2.39077e-21)
(0.000368237 0.000419715 -1.68028e-21)
(0.00117779 0.00140569 -5.46143e-22)
(0.00157737 -0.0020632 -1.35467e-21)
(0.0020492 0.00257407 -2.86972e-22)
(0.000491809 -0.000409377 2.28497e-21)
(-0.000342085 4.06823e-05 -2.57319e-21)
(0.000432896 0.000949163 0)
(0.000343744 -0.000764573 -1.10375e-21)
(0.000696883 0.000525759 -1.57019e-21)
(-7.22723e-06 -5.8597e-06 3.6146e-21)
(0.000382485 -0.000821632 6.75104e-22)
(0.000473542 0.001014 0)
(0.00200174 -0.000760875 -2.99956e-22)
(0.00205349 -0.000598851 -4.69946e-22)
(0.00194738 -0.000227358 2.25459e-22)
(9.51558e-05 -4.15102e-05 6.15034e-22)
(0.000551762 0.00121977 0)
(0.000604507 0.00121406 -4.00136e-22)
(0.000305096 -0.000773244 0)
(2.12544e-05 -7.69699e-07 0)
(0.00141914 -0.00109434 0)
(0.00166204 -0.00103951 -8.84681e-22)
(0.000555895 -0.00211278 0)
(0.00196698 0.00239044 6.67178e-22)
(0.000774106 -0.000439633 6.36434e-22)
(0.00120061 -0.00108766 0)
(0.000405487 -0.000603086 1.26852e-21)
(0.00114143 -0.000461307 -1.07734e-22)
(5.95276e-05 0.000526647 0)
(0.00188004 0.00230983 -3.8779e-22)
(0.000116005 0.000318002 0)
(0.000474577 2.08707e-05 -2.69161e-22)
(0.00100729 0.00176115 0)
(-2.40404e-05 8.13456e-06 1.19532e-21)
(0.00156147 0.000342043 1.46905e-22)
(0.00173786 -0.00173649 -1.55949e-21)
(0.00107864 0.000781138 -5.53934e-22)
(0.00183927 -0.00132011 8.41046e-23)
(0.00160467 -0.00198567 0)
(0.00124494 0.000223776 -1.47718e-22)
(0.0014723 0.00254752 7.55868e-22)
(0.00102498 0.000320141 0)
(0.000749928 0.00224897 -5.75474e-22)
(0.00131206 0.00154616 5.59337e-22)
(0.00173433 -0.00152144 1.14795e-21)
(0.00094982 -0.00190298 -1.32769e-21)
(0.00101386 0.00217009 -1.3432e-21)
(0.00129503 -0.00257444 2.26079e-21)
(-0.000353103 0.000290442 0)
(0.00120499 0.00250437 2.72033e-21)
(4.95724e-05 0.000276528 0)
(0.00132601 -0.00256643 -1.97014e-22)
(0.0012144 0.00250926 1.26026e-21)
(0.00107646 0.00249614 0)
(0.000688055 -0.00256289 4.41233e-22)
(0.000295118 -0.00128424 0)
(0.00113498 0.0010709 0)
(0.000152228 -0.000600644 -4.03395e-23)
(0.000639866 -0.00263389 -5.44888e-22)
(0.00178701 0.0026499 8.78909e-22)
(0.00181633 -0.000546443 -4.54641e-23)
(0.00113635 -0.0013864 1.11314e-22)
(3.22303e-05 5.93273e-06 0)
(0.000201033 0.00051336 0)
(0.000890275 -0.00258589 1.4125e-21)
(0.000858024 -0.00181353 -2.59707e-21)
(0.00151006 0.0022396 -8.77702e-22)
(0.0004385 -0.00207412 -4.24573e-24)
(0.00164041 0.00110902 1.40086e-21)
(0.00150439 0.00170634 -4.91146e-22)
(-0.000323568 -0.00039593 0)
(-3.44182e-05 1.36858e-06 4.22411e-22)
(-4.4317e-05 -0.00063834 -9.46468e-22)
(0.00166809 0.00275299 2.06966e-21)
(0.00199041 0.000383446 9.41524e-22)
(1.16353e-05 -0.000522742 2.1277e-21)
(0.00148038 0.0021307 1.0783e-21)
(0.00118795 0.00187253 -1.98356e-21)
(-4.64475e-05 0.00028198 0)
(0.00125984 0.00250946 0)
(-4.62202e-06 4.16915e-06 0)
(0.0011117 0.00244399 -1.39703e-21)
(1.42792e-05 4.04153e-06 -6.39305e-22)
(0.00127745 0.00261349 -2.6613e-21)
(-0.000107448 0.000902025 0)
(0.000573643 0.00129477 2.16561e-21)
(0.00127036 -0.00143367 7.27168e-22)
(0.00129092 -0.000130749 0)
(0.00169925 0.00261834 0)
(0.000835989 -0.00168562 -3.39875e-21)
(0.00064855 0.000782752 -3.57663e-21)
(0.00166343 0.00159399 -2.83819e-22)
(0.000286135 -0.000973381 4.08192e-22)
(0.00176075 0.000134878 1.2457e-21)
(0.00145406 -0.00236416 1.22933e-21)
(0.000375624 0.00106755 5.93438e-22)
(0.000661894 -0.00076873 0)
(0.00177633 0.00109455 -1.18876e-21)
(0.000777329 -0.00237523 8.76811e-23)
(0.000214838 -0.000666393 2.89142e-22)
(-2.5907e-05 0.000181016 1.1903e-21)
(0.000296743 0.000418839 -1.45857e-21)
(-6.97441e-05 0.000102099 3.42761e-22)
(0.000877667 -0.000247203 -3.53678e-21)
(0.00110942 -0.00222982 -2.17624e-22)
(0.000825752 -0.00258602 -1.59683e-21)
(0.000248263 -0.000342363 -1.28455e-21)
(0.00044715 -0.000621464 -7.70864e-23)
(0.00135679 -0.00168903 -1.60184e-22)
(0.000394495 0.000707996 0)
(0.00190973 -0.000798555 1.0482e-21)
(0.00205656 0.00259466 0)
(0.000539645 -0.000605799 -2.02609e-21)
(-0.000147057 0.000182086 2.33651e-21)
(0.000566165 -0.0022163 5.22302e-22)
(0.000568518 -0.000356422 1.08498e-21)
(-8.86922e-07 -1.32261e-06 -2.87857e-21)
(-5.71747e-05 2.17927e-05 -1.24927e-21)
(0.00146192 0.00249278 -1.95888e-21)
(3.17135e-06 3.42567e-06 0)
(0.00195415 0.00266733 -2.31659e-22)
(0.000662334 -0.0024469 -8.73299e-23)
(1.92183e-05 2.17847e-05 1.65964e-21)
(-0.000309128 0.000167245 0)
(0.000406097 0.000942941 1.86568e-21)
(-0.000191443 0.000850897 8.5143e-22)
(0.00119066 0.00255915 2.00625e-21)
(1.36915e-06 3.19078e-07 1.9635e-21)
(2.88302e-06 2.48041e-06 -3.10822e-22)
(0.00129319 -0.00249217 -1.36956e-21)
(0.00194711 0.000434077 6.76167e-22)
(0.000532618 -0.00174501 -9.25229e-22)
(-0.000362944 -0.000538323 0)
(0.00179748 0.00249924 -4.1392e-22)
(-8.34046e-05 7.18624e-05 -1.05383e-21)
(0.000806365 0.00173946 -9.24875e-22)
(-0.000172446 -0.000148674 3.83255e-22)
(0.000699439 0.00187716 -6.12098e-22)
(-4.87337e-05 4.12156e-05 1.00592e-21)
(-0.00010577 -0.000617728 -2.38929e-22)
(0.00137756 -0.00212696 0)
(-9.32889e-05 -0.000460741 -3.55724e-22)
(0.0008402 0.00195206 5.0751e-22)
(0.0010217 0.00215665 -2.96704e-21)
(-6.58602e-05 0.000616691 0)
(0.0012255 -0.00236728 1.26186e-21)
(0.000791163 -0.00169059 1.78187e-21)
(0.0005513 2.74397e-05 2.15539e-21)
(2.99794e-05 2.30816e-05 8.38624e-22)
(0.000930298 0.000210556 -1.66922e-22)
(0.000835151 -0.00079296 -8.30896e-22)
(0.00148996 -5.13174e-05 1.76964e-21)
(0.000579679 -0.00150033 -1.1098e-22)
(0.00093639 -0.00217082 1.18031e-21)
(-0.000268901 -0.000570245 0)
(0.000132861 -0.000544967 -3.20163e-22)
(-4.46861e-05 -1.12064e-05 8.43282e-23)
(0.00142446 -0.00213366 -8.30717e-22)
(0.000714413 0.000987784 -2.30581e-21)
(0.000802413 -0.00124378 -4.79079e-22)
(0.00138441 -0.00262394 -1.36496e-21)
(-5.4354e-05 0.000260948 -4.84859e-21)
(4.36901e-05 -0.000732987 -9.70413e-22)
(0.0014613 -0.0020516 1.39507e-21)
(0.000629014 0.000975725 0)
(0.000281736 0.000374491 -1.45114e-21)
(0.000956208 0.00205152 1.07669e-21)
(0.00135193 0.00171212 1.567e-21)
(-6.4882e-06 4.92628e-06 -1.44257e-21)
(1.33174e-05 1.77263e-05 8.84793e-22)
(0.00137308 -0.0017367 0)
(0.000649974 -0.00100744 1.81965e-21)
(0.000712717 -0.00168766 1.22284e-21)
(0.000978024 -0.00154231 0)
(0.000189898 0.000802141 2.01993e-22)
(0.000414195 0.000574154 1.55359e-22)
(0.00161644 0.00260729 -1.03286e-21)
(0.00168003 -0.00219924 2.77277e-22)
(0.000657801 -0.00190679 3.82319e-23)
(0.00165857 -0.00181112 1.41697e-21)
(0.0012091 0.00238411 -3.08408e-21)
(0.000843262 -0.00237861 0)
(0.00135698 0.00216864 0)
(0.00141434 -0.00166728 0)
(0.00180714 0.000803948 -6.99444e-22)
(0.0016178 -0.0027178 0)
(0.000875415 -0.000436176 1.57257e-21)
(-0.000216003 -0.000669936 -8.99011e-22)
(-0.000214084 0.000154114 3.53104e-22)
(-0.000160388 8.62826e-05 1.36489e-21)
(0.000773826 0.00126693 8.06746e-22)
(0.000624052 -0.00140045 1.68362e-22)
(-1.54757e-05 1.84043e-05 3.32754e-22)
(2.25889e-05 1.87874e-05 -2.69316e-21)
(0.000877542 -5.13187e-05 -6.46537e-22)
(3.53411e-05 6.61981e-06 -3.46066e-23)
(0.00161195 0.00136539 2.75845e-22)
(-3.54835e-06 4.54632e-06 -3.63877e-22)
(1.44643e-05 8.59556e-06 1.53938e-21)
(0.00117094 0.00246484 0)
(0.00176818 0.00255582 0)
(0.00132095 -0.00136242 -2.13652e-21)
(0.00132204 0.00147345 0)
(0.00193465 0.00264531 4.45277e-22)
(0.000775782 0.000283583 0)
(0.00191199 0.00247169 1.10023e-22)
(0.0016424 0.00199774 7.96462e-22)
)
;

boundaryField
{
    front
    {
        type            empty;
    }
    back
    {
        type            empty;
    }
    bottom
    {
        type            zeroGradient;
    }
    left
    {
        type            noSlip;
    }
    top
    {
        type            uniformFixedValue;
        uniformValue    
        {
            type            scale;
            scale           
            {
                type            squarePulse;
                start           0.3;
                duration        0.3;
            }
            xScale          
            {
                type            constant;
                value           1;
            }
            value           
            {
                type            constant;
                value           (0 -0.7 0);
            }
        }
        value           uniform (0 -0 0);
    }
    right
    {
        type            noSlip;
    }
    inner_arc
    {
        type            noSlip;
    }
}


// ************************************************************************* //
