/*--------------------------------*- C++ -*----------------------------------*\
  =========                 |
  \\      /  F ield         | OpenFOAM: The Open Source CFD Toolbox
   \\    /   O peration     | Website:  https://openfoam.org
    \\  /    A nd           | Version:  9
     \\/     M anipulation  |
\*---------------------------------------------------------------------------*/
FoamFile
{
    format      ascii;
    class       surfaceScalarField;
    location    "0.24";
    object      phi;
}
// * * * * * * * * * * * * * * * * * * * * * * * * * * * * * * * * * * * * * //

dimensions      [0 3 -1 0 0 0 0];

internalField   nonuniform List<scalar> 
816
(
2.04e-11
-5.36e-09
5.34e-09
-8.88e-10
-1.03e-08
1.12e-08
8.83e-09
-8.81e-09
1.45e-08
-1.44e-08
-1.53e-10
5.77e-09
-5.77e-09
1.32e-08
2.4e-09
-1.56e-08
6.08e-09
-6.08e-09
-6.74e-09
6.74e-09
-1.17e-08
-2.32e-09
1.4e-08
-5.51e-09
4.62e-09
1.91e-08
-5.89e-09
1.62e-08
-1.14e-08
-4.8e-09
3.79e-09
9.21e-09
-1.3e-08
1.53e-08
-1.45e-08
-7.91e-10
1.54e-08
-1.39e-08
-1.57e-09
-9.74e-09
1.57e-08
-5.96e-09
3.33e-09
6.05e-09
-9.38e-09
-1.53e-08
1.27e-09
1.4e-08
1.89e-09
1.43e-08
6.56e-09
-1.82e-08
1.08e-08
3.75e-09
9.72e-10
-1.07e-08
1.01e-08
-1.94e-09
-8.18e-09
-1e-08
-4.24e-09
1.43e-08
-1.08e-08
7.92e-10
-1.37e-08
3.03e-09
1.06e-08
-1.29e-08
1.45e-08
-1.58e-09
2.27e-10
4.23e-09
-4.45e-09
4.18e-09
-1.44e-08
5.3e-09
1.04e-08
-8.81e-09
9.04e-09
-9.89e-09
1.23e-08
1.98e-08
-1.45e-08
-1.59e-08
7.92e-09
8.02e-09
1.03e-09
1.44e-08
-2.72e-09
1.31e-08
1.04e-09
1.43e-08
-2.43e-09
-1.12e-08
-1.65e-08
5.76e-09
1.08e-08
3.51e-09
2.26e-09
-4.72e-09
-4.84e-09
4.31e-09
-1.33e-08
-5.4e-10
-1.19e-08
-2.82e-09
1.47e-08
3.6e-09
2.48e-09
-5.05e-09
1.3e-08
-1.53e-08
-7.69e-09
-1.23e-08
-6.46e-10
-4.04e-10
4.64e-09
-4.24e-09
1.22e-08
-8.45e-09
1.04e-08
-2.52e-10
-5.47e-09
-1.05e-08
6.77e-09
6.28e-09
4.3e-09
-1.43e-08
1e-08
-1.94e-09
-1.19e-08
1.52e-08
-1.19e-08
4.07e-09
-6.79e-09
-6.66e-11
-3.31e-09
9.36e-09
1.06e-08
-9.36e-09
-9.59e-10
-1.36e-08
-7.01e-09
-7.87e-09
1.49e-08
-1.49e-08
1.52e-09
1.32e-08
6.62e-09
8.68e-09
1.04e-08
-5.61e-09
1.73e-08
-1.17e-08
2.99e-09
1.11e-08
-1.41e-08
-2.89e-09
-1.03e-08
6.26e-09
-1.33e-08
1.1e-08
5.83e-09
-1.68e-08
5.83e-09
1.07e-08
-1.65e-08
5.68e-09
-5.68e-09
-6.15e-09
1.27e-08
-9.22e-09
3.07e-09
1.55e-08
2.11e-09
3.23e-09
-5.34e-09
-1.47e-08
2.45e-09
1.23e-08
-5.36e-09
6.03e-09
-6.03e-09
-5.82e-09
5.82e-09
6.78e-09
-1.5e-08
8.26e-09
-4.15e-09
-6.39e-10
4.64e-09
-1.1e-08
1.53e-08
3.39e-11
-1.03e-08
1.03e-08
-9.02e-09
-2.01e-10
9.22e-09
5.68e-09
-8.22e-09
1.5e-08
5.94e-11
-1.12e-08
1.12e-08
9.94e-09
5.48e-09
-1.54e-08
-1.16e-08
1.77e-09
9.42e-09
-1.12e-08
-6.5e-09
-6.73e-09
-5.51e-09
-5.67e-10
1.5e-08
-5.59e-10
-1.43e-08
-8.88e-09
1.19e-08
-1.33e-08
8.74e-09
4.61e-09
7.87e-09
7.16e-09
5.89e-09
-9.72e-10
1.52e-08
-9.77e-09
4.72e-09
-4.15e-09
2.81e-10
-5.96e-09
5.05e-09
8.06e-09
1.41e-08
9.8e-09
-1.47e-08
4.93e-09
-5.77e-09
-7.58e-09
-3.83e-09
-1.06e-08
-1.58e-10
-1.21e-08
1.22e-08
4.71e-10
-9.49e-09
1.36e-08
-6.48e-09
-6.3e-10
1.12e-08
-7.1e-09
1.28e-09
3.12e-09
1.2e-08
-1.21e-09
-1.08e-09
1.18e-08
-1.28e-08
9.85e-10
-8.38e-09
-6.35e-09
-1.25e-08
9.06e-09
3.44e-09
-1.22e-08
-1.24e-09
1.42e-08
-3.21e-10
-1.39e-08
1.37e-08
-1.85e-09
-4.01e-09
1.4e-08
-3.68e-09
3.68e-09
1.32e-08
1.03e-09
5.79e-10
-1.2e-08
1.15e-08
7.45e-11
-1.15e-08
-1.3e-08
-1.76e-09
9.99e-09
-1.03e-08
1.08e-10
-4.32e-09
4.21e-09
1.44e-09
1.01e-08
2.09e-10
1.04e-08
-1.06e-08
-4.31e-09
-9e-10
1.17e-08
6.89e-10
8.67e-09
-9.36e-09
-9.07e-09
6.61e-09
2.46e-09
-1.29e-08
1.17e-08
-1.54e-08
4.16e-10
1.5e-08
-6.4e-09
6.4e-09
4.07e-09
5.37e-10
3.14e-09
-1.15e-09
-1.46e-08
1.57e-08
-5.71e-10
-1.17e-08
1.42e-08
-9.99e-09
-3.04e-09
1.39e-08
-1.09e-08
3.23e-09
2.54e-10
-1.56e-08
-1.33e-08
-4.32e-09
-1.16e-08
1.21e-08
-4.64e-09
4.64e-09
-1.22e-08
-4.43e-09
1.08e-08
-1.2e-08
-9.76e-09
6.72e-09
-5.19e-09
1.95e-08
-1.43e-08
-5.66e-10
-1.11e-08
4.84e-09
-4.77e-09
-4.44e-09
5.02e-09
5.24e-10
-3.65e-09
3.13e-09
8.9e-11
1.07e-08
8.93e-09
5.96e-09
-5.86e-09
1.48e-08
-1.2e-08
-5.98e-09
5.41e-09
2.79e-11
-1.02e-08
1.02e-08
4.9e-09
-4.81e-09
7.41e-10
-1.1e-08
1.03e-08
9.25e-09
-9.89e-09
9.61e-09
-1.06e-09
-1.1e-08
-9.07e-09
-6.79e-09
-6.24e-09
-6.27e-09
-1.44e-08
-7.72e-10
1.51e-08
-4.52e-09
4.55e-09
-1.42e-08
-7.7e-10
1.49e-08
1.21e-08
-4.82e-11
-1.14e-08
-5.93e-10
-4.62e-09
-1.05e-08
1.64e-08
-5.97e-09
-6.72e-09
6.07e-09
6.51e-10
-6.61e-09
6.04e-09
-1.25e-08
1.21e-08
3.9e-10
1.19e-08
-1.13e-08
-5.96e-10
-9.76e-09
1.51e-08
-4.82e-09
-1.2e-09
-1.57e-08
9.56e-09
5.24e-09
4.3e-10
-1.08e-09
-1.46e-08
-2.1e-10
8.88e-09
-1.59e-08
-5.79e-10
1.38e-08
1.58e-08
-6.23e-09
9.52e-09
9.22e-09
2.77e-09
2.92e-09
-3.13e-09
1.4e-08
9.73e-09
1e-09
-8.99e-09
9.53e-09
5.36e-09
-5.41e-09
-5.41e-09
4.81e-09
-8.84e-09
-1.07e-08
1.73e-08
-6.61e-09
-4.52e-09
-4.82e-09
-3.65e-09
-1.65e-09
-8.86e-09
-5.98e-09
5.36e-09
-5.41e-09
-3.18e-09
-2.2e-10
8.84e-09
-8.62e-09
4.9e-09
5.78e-09
5.85e-10
6.04e-09
4.21e-09
-4.55e-09
-9.64e-10
-4.44e-09
-1.05e-08
-5.85e-09
1.63e-08
9.82e-09
-9.23e-10
-1.19e-08
1.82e-10
1.21e-08
7.77e-10
-2.92e-09
2.14e-09
-4.24e-09
1.17e-08
-1.34e-08
1.17e-10
1.7e-08
-1.55e-08
2.92e-09
-3.14e-09
6.07e-09
5.92e-09
1.52e-10
2.25e-09
-7.32e-09
-2.16e-09
-1.41e-08
1.53e-09
6.33e-09
1.09e-08
8.86e-09
-1.13e-08
1.76e-08
-1.38e-08
3.32e-09
2.92e-09
-5.02e-09
-6.14e-09
-1.09e-08
1.7e-08
4.77e-09
-1.71e-08
-6.9e-09
1.78e-08
-7.02e-09
1.68e-08
1.15e-08
5.54e-10
-3.22e-09
3.22e-09
-6.11e-09
-1.08e-08
1.28e-08
1.13e-08
8.12e-09
-4.7e-09
4.7e-09
-5.92e-09
-2.15e-09
-5.65e-09
4.43e-09
1.22e-09
5.65e-09
-9.47e-10
-1.5e-09
-6.11e-09
-1.29e-08
-1.27e-08
2.54e-09
-1.82e-08
6.5e-09
1.17e-08
-6.71e-09
9.02e-10
-1.1e-08
1.86e-08
-7.59e-09
-1.77e-08
6.74e-09
7.38e-09
-1.1e-08
1.75e-08
9.35e-09
-1.62e-08
-1.24e-09
7.63e-10
5.99e-09
-1.01e-08
1.11e-08
-5.8e-09
-9.78e-09
1.56e-08
-1.04e-08
1.88e-08
-7.71e-09
1.44e-08
6.06e-09
1.28e-08
1.47e-08
-1.66e-08
-1.57e-08
8.04e-09
1.17e-08
-1.9e-08
1.2e-08
-6.4e-09
1.26e-08
-2.26e-09
-1.02e-08
-6.01e-09
6.24e-09
1.23e-08
1.84e-08
-4.19e-09
-7.88e-09
1.21e-08
-3.36e-09
3.36e-09
-3.02e-09
3.02e-09
3.65e-09
-3.65e-09
3.54e-09
-3.54e-09
3.51e-09
3.6e-09
1.18e-08
-1.6e-08
4.21e-09
-5.05e-09
1.15e-08
6.94e-09
5.59e-09
-5.59e-09
-5.96e-09
6.15e-09
-6.15e-09
-1.65e-08
6.26e-09
1.03e-08
-3.31e-09
-1.77e-08
1.1e-08
6.74e-09
-3.4e-09
3.4e-09
-1.57e-08
6.22e-09
9.46e-09
-5.52e-09
-1.05e-08
-1.01e-08
1.06e-08
-4.74e-09
1.06e-08
-3.98e-09
-1.47e-08
-1.59e-08
1.04e-08
4.28e-09
2.91e-10
5.25e-10
6.51e-10
-1e-08
-1.78e-08
1.01e-08
7.66e-09
-1.15e-08
-5.59e-09
-5.25e-09
-3.83e-10
6.25e-09
-1.45e-08
6.58e-09
-8.24e-09
-1.2e-08
1.99e-08
-5.93e-09
-1.1e-08
4.6e-09
6.4e-09
-1.5e-09
-1.3e-08
6.39e-10
1.24e-08
-4.43e-09
4.01e-09
-4.01e-09
-2.24e-10
-7.91e-09
-6.53e-09
-7.19e-09
1.31e-08
1.37e-08
-4.19e-09
-1.32e-08
-9.22e-09
-8.05e-10
1.63e-08
-8.11e-09
-6.59e-09
-1.19e-08
-8.91e-09
-1.28e-08
-2.24e-09
-8.05e-09
-3.45e-09
-7.78e-09
-6.02e-09
-1.08e-08
-1.49e-08
-3.2e-09
1.23e-08
-1.08e-08
-9.69e-09
-1.21e-08
1.12e-08
-1.27e-08
1.48e-09
-3.96e-09
-7.8e-10
-1.31e-09
1.13e-08
-3.96e-09
-2.2e-09
1.56e-08
2.72e-09
-1.83e-08
1.74e-08
6.31e-09
8.38e-09
-6.61e-09
1.29e-08
3.84e-09
-3.84e-09
1.2e-08
2.18e-09
5.52e-09
2.23e-09
-9.64e-09
1.06e-08
-1.48e-08
1.57e-08
9.9e-09
8.15e-09
-1.44e-08
6.21e-09
-9.5e-10
1.54e-08
-5.16e-09
9.37e-09
1.18e-08
-9.05e-09
7.92e-10
4.23e-09
-1.05e-08
5.79e-09
5.3e-09
6.43e-09
9.46e-09
-1.24e-08
1.88e-09
-8.87e-09
1.78e-09
1.03e-08
-9.55e-09
1.02e-08
2.02e-09
-9.58e-09
3.65e-09
-4.11e-10
4.96e-09
-1.49e-08
-5.61e-10
-1.65e-08
1.63e-09
-3.1e-10
2.91e-09
1.16e-09
-9.83e-09
1.42e-08
1.2e-09
-1.43e-08
-4.45e-09
3.65e-09
1.12e-08
-8.76e-09
-1.01e-08
-5.82e-09
9.45e-09
5.79e-09
-1.05e-08
2.91e-09
6.31e-09
-1.4e-08
-1.36e-08
1.34e-08
-4.72e-10
-8.15e-09
-7.59e-09
7.59e-09
5.49e-09
-1.52e-08
-7.68e-09
7.68e-09
-1.01e-08
-1.41e-08
-1.06e-08
-1.1e-08
5.46e-09
5.3e-09
1.3e-08
-3.58e-09
-8.72e-09
9.71e-09
1.02e-08
-1.53e-08
6.5e-09
-7.97e-09
8.26e-09
-9.77e-09
-8.28e-09
-6.08e-09
-7.76e-09
-2.54e-09
-9.65e-09
-4.41e-09
6.03e-09
-7.73e-09
7.34e-09
1.68e-09
1.25e-08
-3.49e-10
-1.5e-08
-1.29e-08
-7.98e-09
-1.23e-09
-9.46e-09
-1.48e-09
-2.09e-09
-2.53e-09
-6.04e-09
6.28e-09
1.23e-08
-1.37e-09
-8.28e-09
-2.47e-10
8.53e-09
1.02e-08
-1.11e-08
-1.13e-08
-1.17e-08
-1.23e-08
-4.78e-09
3.47e-09
1.6e-09
)
;

boundaryField
{
    front
    {
        type            empty;
        value           nonuniform List<scalar> 0();
    }
    back
    {
        type            empty;
        value           nonuniform List<scalar> 0();
    }
    bottom
    {
        type            calculated;
        value           nonuniform List<scalar> 
12
(
4.79e-09
1.35e-08
1.05e-08
1.07e-08
8.1e-09
2.14e-09
2.16e-09
1.23e-08
1.39e-08
1.32e-08
8.14e-09
4.74e-09
)
;
    }
    left
    {
        type            calculated;
        value           uniform 0;
    }
    top
    {
        type            calculated;
        value           nonuniform List<scalar> 8(-1.3e-08 -1.3e-08 -1.3e-08 -1.3e-08 -1.3e-08 -1.3e-08 -1.3e-08 -1.3e-08);
    }
    right
    {
        type            calculated;
        value           uniform 0;
    }
    inner_arc
    {
        type            calculated;
        value           uniform 0;
    }
}


// ************************************************************************* //
