/*--------------------------------*- C++ -*----------------------------------*\
  =========                 |
  \\      /  F ield         | OpenFOAM: The Open Source CFD Toolbox
   \\    /   O peration     | Website:  https://openfoam.org
    \\  /    A nd           | Version:  9
     \\/     M anipulation  |
\*---------------------------------------------------------------------------*/
FoamFile
{
    format      ascii;
    class       volScalarField;
    location    "0.84";
    object      p;
}
// * * * * * * * * * * * * * * * * * * * * * * * * * * * * * * * * * * * * * //

dimensions      [0 2 -2 0 0 0 0];

internalField   nonuniform List<scalar> 
464
(
3.01905e-18
-6.39629e-18
-6.74974e-19
-6.80124e-19
-7.37549e-18
-6.73596e-19
1.25266e-18
-6.80829e-19
-1.13037e-18
-8.93278e-19
3.1142e-18
7.08754e-18
9.38421e-19
7.26084e-18
1.26449e-18
8.26618e-19
-1.31634e-18
-1.28666e-18
-6.66354e-19
-7.07287e-19
-6.94572e-19
-6.62159e-19
-6.72925e-19
-6.77492e-19
-6.78602e-19
-6.78601e-19
4.33558e-18
-6.74414e-19
3.79101e-18
-6.82674e-19
-6.80887e-19
-5.07307e-19
-4.01936e-19
-9.73077e-19
-9.963e-19
-1.17599e-18
-1.14023e-18
-6.61298e-19
-6.74712e-19
1.64045e-20
-7.34931e-19
-6.69763e-19
-6.65905e-19
6.13264e-18
5.26113e-18
1.96695e-19
-6.82815e-19
-6.9061e-19
-6.71287e-19
-6.73503e-19
-7.42195e-19
-6.81377e-19
-8.43923e-19
-6.49774e-19
-6.36659e-19
-6.85123e-19
-6.84407e-19
-4.74976e-19
-4.25607e-19
-8.67099e-19
-6.63785e-19
-4.28757e-18
-5.01183e-19
-6.07668e-19
-2.78729e-18
-6.55366e-19
-5.12779e-20
-6.77839e-19
4.24121e-18
-6.12639e-19
-3.09999e-19
-3.64577e-18
2.672e-18
-6.90764e-19
-1.24166e-18
-6.77909e-19
-2.20526e-19
1.29286e-18
-5.76434e-19
2.45261e-18
-6.3918e-18
-6.81142e-19
-1.02244e-17
-6.91305e-19
-6.39522e-18
-3.86042e-19
-3.02141e-18
-6.80098e-19
-6.80789e-19
-1.1002e-18
-5.71123e-18
-4.6543e-18
-1.43644e-19
6.39995e-18
-1.59791e-20
-2.9622e-19
-5.51319e-19
-6.75514e-19
-3.82346e-18
-9.35498e-19
-6.79555e-19
-6.86512e-19
-6.82088e-19
-7.09209e-19
-1.01506e-18
-1.01401e-17
-6.86446e-19
-1.58284e-19
-5.63971e-18
-6.64819e-19
-1.92691e-19
-6.87228e-19
1.17233e-20
-2.98417e-18
-6.79935e-19
-6.81223e-19
-8.45427e-18
-6.90628e-19
-4.78964e-18
-6.80009e-19
-6.79514e-19
7.90379e-19
-2.42508e-18
2.84916e-18
-3.21724e-19
-4.33776e-19
-9.52036e-19
-2.03889e-20
-1.0795e-18
-9.12062e-18
-6.89834e-19
8.08661e-18
-6.6317e-19
-6.78769e-19
-6.64047e-19
-7.00739e-18
-6.85189e-19
-6.78043e-19
-1.05834e-18
-6.30539e-19
-6.54971e-19
-2.33083e-19
-2.14905e-19
-6.81938e-19
-6.78827e-19
-1.78267e-18
-6.83252e-19
-6.83467e-19
-6.09075e-19
-6.18614e-19
-6.80689e-19
-6.79028e-19
4.1496e-19
-5.46259e-19
-6.08987e-18
-6.34464e-19
-1.56177e-18
-6.82715e-19
-7.56364e-19
-4.75761e-18
-5.53002e-19
-6.69582e-19
-8.4268e-19
-6.33151e-19
-6.4173e-19
-6.65883e-19
-1.35646e-19
-6.81975e-19
-6.07597e-19
-1.27629e-19
3.40442e-19
-3.62352e-18
-1.93115e-18
-6.64313e-19
-5.37692e-19
1.53636e-19
-6.79009e-19
-6.68652e-19
1.38523e-18
-1.24213e-18
-6.83429e-19
2.3467e-19
-1.81602e-18
-1.86678e-18
-1.31885e-18
-1.83496e-18
6.98291e-19
7.19241e-19
-1.22703e-18
7.73127e-19
-6.62869e-19
8.51674e-19
-7.13104e-19
-6.79368e-19
-4.36202e-19
-3.83477e-19
-6.99719e-19
-6.58116e-19
-1.49456e-18
-6.08168e-19
-6.38741e-19
-4.45899e-19
-6.78027e-19
-5.15949e-19
7.54142e-19
-7.15532e-19
-6.31029e-19
-5.09329e-19
-4.27086e-19
-2.78977e-18
-6.46253e-19
5.1429e-19
-6.86699e-19
-1.1175e-18
-6.81285e-19
5.02865e-19
-9.24295e-19
-6.9427e-19
3.95269e-18
-3.20311e-19
-1.74077e-18
-5.86598e-19
-5.6325e-19
-6.35608e-19
-6.70258e-19
-6.61052e-19
-6.57246e-19
-7.02449e-19
-6.6441e-19
-6.35526e-19
-6.73965e-19
-7.597e-19
-7.12055e-19
-5.39031e-19
-8.04114e-19
-6.07993e-19
-8.68367e-19
-7.29093e-19
-6.81959e-19
-9.61113e-19
-5.64147e-19
-7.27144e-19
-8.23425e-19
-6.95443e-19
-5.18896e-19
-1.10866e-18
-7.05501e-19
-7.44547e-19
-9.28099e-19
-7.08451e-19
-6.6334e-19
-1.01598e-18
-4.59761e-19
-7.76526e-19
-4.72881e-19
-6.79462e-19
-6.76816e-19
-7.57858e-19
-4.51581e-19
-4.70447e-19
-7.30279e-19
-4.95901e-19
-4.00998e-19
6.22081e-20
-6.01357e-19
4.33133e-20
-4.09262e-19
-6.79873e-19
8.98451e-19
-1.36846e-19
-6.63156e-19
-5.6263e-19
-4.14889e-19
2.97476e-19
9.78742e-19
-3.91456e-19
-3.37472e-19
-2.87895e-19
-6.71169e-20
-2.27506e-18
-6.40371e-19
-6.82678e-19
-1.94503e-19
-6.89385e-19
9.98516e-19
-1.01547e-18
9.90402e-20
-1.99725e-18
-6.81826e-19
-7.63019e-19
-1.49404e-18
-8.71859e-19
-6.84142e-19
-6.71645e-19
-2.30974e-19
-9.98871e-20
4.17078e-19
2.05297e-19
2.35593e-19
-2.48945e-18
6.50048e-19
1.69662e-19
2.24057e-18
7.00858e-18
-9.66242e-19
-1.97275e-19
-2.56461e-19
-9.72561e-19
-4.33303e-18
-2.09599e-19
-5.86944e-19
-6.80733e-19
-4.67652e-19
4.33032e-19
-3.87591e-19
-6.48912e-19
2.27527e-19
-2.7293e-18
-6.80137e-19
6.70894e-19
-6.71848e-19
1.37327e-19
-3.49527e-18
2.76414e-19
-6.69588e-19
-7.15552e-19
-6.97939e-19
1.90946e-18
-6.80352e-19
-1.85843e-18
-6.7561e-19
-2.09935e-18
-6.75919e-19
-4.56796e-19
-5.39378e-19
-6.69092e-19
-6.76405e-19
-6.80529e-19
-4.95399e-19
-6.69033e-19
-6.84778e-19
4.5115e-18
-1.25722e-18
-1.84904e-18
-5.60475e-19
-6.79719e-19
-7.05176e-19
-1.70383e-19
-6.7474e-19
-5.16644e-19
-6.82685e-19
-6.87155e-19
8.68364e-20
-2.79125e-20
-6.79825e-19
-4.16545e-18
-6.78274e-19
-9.38713e-18
-6.80011e-19
-6.08059e-18
-6.71333e-19
5.05662e-19
-6.78174e-19
-6.41312e-18
3.95545e-18
-6.66451e-19
-6.79412e-19
-1.40047e-18
9.52336e-18
-6.77567e-19
-6.86236e-19
7.89928e-18
1.65633e-18
-1.2997e-18
5.4734e-18
-6.82077e-19
3.41789e-18
-6.58367e-19
3.00804e-18
-6.74537e-19
-3.1323e-19
-9.11354e-19
-1.19537e-18
-5.44293e-19
-8.14715e-19
-3.90235e-19
-8.13207e-19
-6.78746e-19
-1.84851e-18
-1.269e-18
-8.72781e-19
-9.74586e-19
-1.02831e-18
-8.40726e-19
-7.11616e-19
-6.69448e-19
-6.754e-19
-6.7539e-19
-6.72394e-19
2.73015e-18
-3.4874e-18
-6.67743e-19
6.32696e-18
-6.79629e-19
4.25361e-19
2.81152e-18
8.05928e-18
-6.70956e-19
4.19663e-18
-6.73547e-19
-1.77818e-18
-6.778e-19
-6.81345e-19
-6.83819e-19
-6.78277e-19
-3.04089e-18
1.11628e-17
-6.75658e-19
-6.73013e-19
-4.33358e-18
-6.79233e-19
-6.70198e-19
3.54087e-18
6.95576e-18
3.80664e-18
1.89422e-18
2.1973e-18
9.66154e-19
2.68592e-19
-1.04252e-17
-6.84865e-19
-4.76258e-19
-1.27822e-18
-6.80731e-19
-7.37929e-19
-1.67083e-18
-1.55972e-18
-6.79183e-19
-1.4501e-18
-6.76488e-19
-8.88099e-19
-9.41542e-19
-6.79809e-19
-6.92139e-19
-6.83562e-19
-6.77232e-19
-6.76421e-19
-6.50317e-19
-6.73469e-19
-7.73174e-19
-4.3864e-19
9.73148e-19
1.5857e-19
-6.79497e-19
-8.08457e-19
-1.24791e-18
-1.0167e-18
-6.69881e-19
-6.78863e-19
-6.76691e-19
-6.77426e-19
1.05861e-17
6.91054e-18
-6.77108e-19
)
;

boundaryField
{
    back
    {
        type            empty;
    }
    front
    {
        type            empty;
    }
    left
    {
        type            zeroGradient;
    }
    top
    {
        type            zeroGradient;
    }
    right
    {
        type            zeroGradient;
    }
    bottom
    {
        type            uniformFixedValue;
        uniformValue    
        {
            type            scale;
            scale           
            {
                type            squarePulse;
                start           0.3;
                duration        0.3;
            }
            xScale          
            {
                type            constant;
                value           1;
            }
            value           
            {
                type            constant;
                value           15.1;
            }
        }
        value           uniform 0;
    }
}


// ************************************************************************* //
