/*--------------------------------*- C++ -*----------------------------------*\
  =========                 |
  \\      /  F ield         | OpenFOAM: The Open Source CFD Toolbox
   \\    /   O peration     | Website:  https://openfoam.org
    \\  /    A nd           | Version:  9
     \\/     M anipulation  |
\*---------------------------------------------------------------------------*/
FoamFile
{
    format      ascii;
    class       surfaceScalarField;
    location    "0.84";
    object      phi;
}
// * * * * * * * * * * * * * * * * * * * * * * * * * * * * * * * * * * * * * //

dimensions      [0 3 -1 0 0 0 0];

internalField   nonuniform List<scalar> 
663
(
-6.78951e-24
8.15537e-24
-1.36586e-24
1.68108e-24
8.57457e-24
-2.86719e-27
2.8672e-27
2.83118e-26
-1.47814e-26
-1.35304e-26
-3.7647e-24
5.44577e-24
-1.43546e-28
-2.70935e-27
-8.6891e-24
1.89963e-24
1.06055e-26
1.76872e-26
-1.02546e-23
4.31466e-24
5.93996e-24
-1.26621e-24
-8.98849e-24
-1.56847e-24
9.72385e-24
4.56182e-24
-1.55149e-24
-3.01033e-24
-4.37443e-24
3.98066e-24
5.81143e-25
1.89828e-24
-2.08987e-24
1.91596e-25
2.02845e-24
-1.30153e-25
7.89494e-27
-2.87311e-25
2.79416e-25
6.41903e-26
-5.62911e-26
2.97857e-27
-2.97849e-27
4.91824e-27
6.98577e-26
-7.4776e-26
6.885e-26
-6.39168e-26
-3.90753e-26
1.59667e-26
2.31085e-26
-1.06015e-26
-2.84676e-26
-3.17229e-26
2.55383e-26
6.18463e-27
3.66215e-27
-1.84639e-26
-1.73413e-26
-1.44009e-26
6.8798e-26
-6.53078e-25
5.84279e-25
2.71019e-26
-1.20227e-26
-1.50791e-26
1.82833e-24
-1.75948e-24
3.04886e-26
-3.06245e-26
1.358e-28
7.11892e-27
2.33797e-26
-2.12216e-24
1.84378e-24
2.78381e-25
7.95796e-26
-2.20172e-24
1.80515e-24
-1.5232e-24
-2.81955e-25
9.81356e-25
8.23786e-25
1.01712e-25
-3.75289e-26
-3.54019e-26
1.37065e-25
-5.16147e-27
8.15341e-27
5.47328e-27
2.16217e-26
-1.89798e-24
9.92122e-26
1.79876e-24
8.6501e-26
-1.66342e-26
-4.93134e-26
1.43217e-26
3.49916e-26
-5.99316e-26
-1.35844e-24
7.05378e-25
-2.91002e-24
1.30425e-25
-3.383e-26
1.60302e-26
1.77997e-26
-1.18209e-26
2.15269e-26
-9.70598e-27
-1.3599e-26
1.35991e-26
-1.7198e-26
3.00511e-27
8.35057e-26
3.07593e-26
1.76731e-27
-3.25265e-26
9.49667e-26
-1.06002e-26
-8.43659e-26
-8.93344e-26
7.07544e-26
1.858e-26
-8.9197e-26
-1.11301e-28
3.20291e-27
2.75348e-26
-3.06289e-26
1.42617e-25
-3.55198e-26
-1.07097e-25
4.84069e-26
9.42117e-26
8.70921e-26
7.90254e-27
-8.153e-27
1.69897e-25
3.34543e-24
-3.51533e-24
1.46906e-25
4.40522e-25
-5.87428e-25
-4.99629e-26
1.11506e-26
3.88124e-26
-6.73338e-24
5.46719e-24
1.05621e-25
-3.4846e-26
-6.02406e-25
1.84308e-25
4.18098e-25
1.53408e-26
-4.57886e-24
-5.4564e-26
-3.4635e-26
-7.73292e-26
1.25734e-25
-6.56349e-24
2.0058e-24
-1.77469e-25
1.85035e-26
-3.0348e-26
-2.74396e-25
2.45977e-24
-2.18538e-24
-1.09319e-26
-5.95239e-25
-7.17433e-27
-8.2287e-24
6.86284e-24
5.58053e-26
-9.13227e-26
-8.40855e-26
2.01071e-24
4.4207e-24
-6.4314e-24
-1.30735e-26
1.24293e-26
6.44084e-28
1.30349e-24
-1.6818e-24
3.7831e-25
4.53059e-27
2.16276e-27
-6.69343e-27
3.31412e-24
3.44559e-25
-1.97649e-25
4.98525e-24
-1.63986e-24
-8.50973e-27
-3.20931e-26
2.42395e-26
7.85369e-27
-2.59056e-24
2.31617e-24
-2.012e-25
-2.14275e-24
1.56998e-24
-4.86599e-25
-1.08338e-24
-2.3205e-24
-3.90975e-24
6.23023e-24
8.71749e-25
6.98213e-25
-1.5468e-25
5.86696e-27
-3.50842e-27
1.59586e-26
1.74164e-25
9.81618e-25
-1.15578e-24
3.44668e-24
-7.82111e-24
-2.01374e-26
-1.19738e-26
3.96371e-26
-1.81357e-26
8.37579e-27
-2.85274e-26
3.77808e-25
1.46598e-24
-1.14541e-24
-1.68179e-24
2.1774e-27
1.06476e-24
-8.80441e-25
-8.79384e-25
6.78189e-25
-2.42245e-26
-5.42712e-26
7.84958e-26
1.35466e-24
7.32144e-25
-2.0868e-24
3.45278e-26
5.78125e-25
-2.10163e-24
2.27579e-24
1.5618e-27
2.26575e-26
-1.17471e-26
2.01137e-26
-3.78303e-25
-5.0104e-25
3.88141e-27
6.66584e-27
-1.05473e-26
9.8162e-25
2.5182e-26
-2.12873e-26
1.5418e-26
-2.71281e-24
6.15943e-24
2.63136e-24
2.35394e-24
-3.91839e-24
5.81795e-24
2.67236e-25
2.48202e-24
-1.12736e-24
4.90501e-24
-2.27371e-24
-1.25875e-24
1.99091e-24
-1.11372e-25
1.09274e-24
3.84554e-25
-3.84563e-25
-2.85115e-27
-8.90152e-27
1.64538e-27
-2.70163e-26
2.53708e-26
-5.01131e-25
-1.05351e-26
1.1065e-26
-2.61508e-26
-1.76488e-27
1.7648e-27
1.26569e-26
-1.10063e-26
-1.21507e-24
8.3861e-26
4.18812e-26
2.1668e-26
-1.26591e-26
2.12394e-27
4.78995e-26
2.41187e-24
1.97306e-27
-4.82337e-27
1.66774e-26
7.86413e-26
-6.74777e-26
1.31838e-26
-1.49623e-26
-2.00846e-26
2.20613e-26
-2.55103e-26
1.66128e-26
-3.51962e-25
1.98846e-24
-1.63649e-24
1.8749e-24
6.07142e-25
4.80492e-25
1.10139e-26
-9.26613e-27
-9.29269e-26
-1.94385e-25
2.10092e-26
-4.10848e-26
2.19227e-24
2.26658e-24
-1.58842e-24
4.8622e-25
-8.76288e-25
3.90068e-25
-3.69606e-26
5.79786e-26
1.80469e-25
-2.36586e-24
1.31707e-26
-2.10431e-26
3.42138e-26
1.48145e-25
3.38046e-25
2.27525e-26
-4.37823e-26
-1.74192e-25
2.05255e-24
-1.87836e-24
-9.27334e-25
9.27333e-25
-6.95086e-25
-2.32243e-25
6.26775e-25
-1.10785e-24
1.15572e-24
-1.1035e-26
1.1078e-24
2.35498e-25
-1.49425e-24
4.24058e-26
-7.93577e-26
9.22362e-26
-4.9818e-26
-2.2284e-24
1.87644e-24
-1.67715e-25
-8.227e-25
9.90416e-25
3.49923e-26
5.72547e-26
1.51956e-25
4.19088e-25
-5.71045e-25
4.18475e-25
-4.18474e-25
2.5074e-25
6.16003e-25
-7.90184e-25
-6.15983e-25
1.97484e-25
2.58423e-25
-1.06481e-25
2.58421e-25
-4.59613e-25
6.95087e-25
1.9232e-27
5.43721e-26
-5.62953e-26
4.59618e-25
-2.01198e-25
2.81034e-27
-2.81032e-27
-1.622e-26
2.80541e-26
6.61583e-26
9.56517e-26
-6.75967e-26
9.15985e-26
3.61956e-26
-9.07462e-26
-2.01122e-26
1.02627e-25
-6.97868e-27
-3.35667e-26
1.34545e-26
7.25559e-26
3.00796e-26
-1.34387e-26
-3.35684e-26
-5.17477e-26
5.17477e-26
-5.87425e-26
-1.06491e-25
1.53409e-26
3.7466e-26
-3.74655e-26
3.42166e-26
-7.90151e-25
-9.05088e-25
9.05084e-25
-5.87426e-26
2.50741e-25
1.8189e-26
9.72556e-26
5.58214e-26
-4.63825e-26
1.02204e-25
5.08825e-26
1.49476e-26
3.34702e-26
-4.84179e-26
-2.31266e-26
7.40092e-26
1.57135e-26
3.06623e-26
8.36325e-26
-5.01587e-26
1.77e-25
-9.33646e-26
-3.04742e-25
4.12508e-26
-9.14079e-26
-6.06578e-26
3.04288e-25
-3.99859e-25
9.55703e-26
-1.11627e-25
4.15934e-25
1.16348e-25
-3.78401e-25
-2.14378e-26
-1.88394e-25
7.19862e-25
-6.2427e-25
-2.04984e-25
2.27545e-25
-3.59878e-25
-9.8978e-26
3.59985e-25
1.02748e-26
8.13238e-26
6.27309e-26
-6.86989e-25
4.45094e-26
1.05287e-24
-9.90153e-25
-7.85992e-25
-1.21964e-24
1.22009e-25
1.09763e-24
-7.15623e-25
-5.53166e-25
9.1315e-25
4.99645e-25
-2.6815e-26
-1.42595e-26
4.45096e-26
-7.20013e-25
1.44875e-24
-1.81878e-24
3.70032e-25
5.76296e-25
-1.29631e-24
-1.45859e-24
-2.40287e-25
1.69887e-24
-8.64888e-25
1.44117e-24
-1.68525e-24
2.16729e-24
-4.82037e-25
5.83874e-25
-1.53709e-24
-8.74687e-25
3.37077e-26
2.55327e-24
-2.36164e-24
7.90072e-25
1.37724e-24
-2.03093e-26
4.28128e-25
-1.30282e-24
-6.38871e-26
4.01934e-25
2.07125e-24
2.24102e-24
-7.26241e-25
1.15438e-24
1.62816e-26
4.24542e-26
-4.24545e-26
3.10342e-25
1.41218e-24
-1.01027e-24
7.84877e-27
1.38193e-26
-2.81217e-27
-4.51343e-25
-1.91027e-24
1.51051e-24
-9.83267e-26
-5.13815e-26
8.92727e-27
7.14807e-25
-2.98853e-24
-2.2776e-26
6.34184e-25
1.96847e-24
-1.33428e-24
2.68324e-24
-9.00191e-27
4.36569e-26
-7.58464e-25
-9.51396e-27
-8.95558e-27
-9.7536e-26
-7.96015e-25
9.97214e-25
-2.36177e-24
-1.24637e-24
-3.64172e-24
1.67092e-24
1.9708e-24
1.66019e-24
-8.35045e-26
4.81089e-26
1.41897e-26
-1.45536e-24
3.57812e-27
-1.10787e-24
1.7587e-24
-1.02099e-25
3.62912e-24
-1.43685e-24
5.71523e-25
-1.72588e-24
-1.16782e-24
-1.19395e-24
-5.79686e-27
1.63936e-26
1.40066e-24
-2.4255e-26
-6.36583e-27
-1.52996e-25
-1.25288e-26
1.25287e-26
-2.5282e-24
2.97697e-26
-9.368e-26
9.58155e-24
-6.15743e-24
6.54815e-27
-6.54812e-27
-7.20256e-26
-3.56924e-26
-1.13763e-27
-1.02026e-26
1.02025e-26
4.40789e-26
-4.40264e-27
4.40259e-27
1.94398e-24
-1.08043e-23
2.21786e-24
-2.55143e-26
-6.45235e-28
2.60057e-25
-4.99458e-26
-2.50543e-25
2.66743e-24
-1.35392e-28
2.66743e-24
-1.35383e-28
2.42226e-25
8.33243e-24
3.65013e-27
-7.62972e-28
-2.28879e-24
-2.04195e-27
-9.85655e-25
5.81405e-24
-1.26384e-28
-2.84906e-27
-5.22943e-25
4.11522e-25
9.65749e-25
-2.11398e-26
1.45833e-27
2.94298e-27
3.20828e-25
-2.08772e-24
-4.67414e-25
3.7448e-25
-3.20822e-25
-1.23907e-24
1.467e-26
8.21041e-25
1.90128e-26
-6.90886e-25
9.07151e-25
-1.10468e-24
-3.52788e-25
1.02552e-25
1.65562e-24
1.19377e-24
-2.08498e-26
5.63492e-26
-5.23819e-29
8.93473e-26
1.15637e-25
-3.39315e-26
3.39312e-26
-6.50425e-26
-2.49372e-26
-3.64322e-26
-2.66518e-26
3.03093e-28
2.11291e-25
8.95635e-24
3.65209e-27
7.75803e-24
1.46122e-27
7.2928e-24
-3.94152e-24
2.62587e-24
-2.62588e-24
-1.20035e-28
-3.83487e-24
-1.20037e-28
-6.18962e-24
-2.79891e-24
1.12115e-26
-1.18648e-26
1.22925e-26
-1.51964e-26
2.90391e-27
-2.37321e-26
-4.80299e-27
9.6574e-25
-5.98981e-27
4.52564e-27
-2.39532e-24
8.21039e-25
6.90885e-25
-4.17258e-27
5.63502e-26
5.15192e-29
8.97913e-27
-6.57859e-26
-4.58022e-27
-3.30524e-26
-1.92047e-26
-1.49514e-27
-1.34538e-27
7.47552e-27
)
;

boundaryField
{
    back
    {
        type            empty;
        value           nonuniform List<scalar> 0();
    }
    front
    {
        type            empty;
        value           nonuniform List<scalar> 0();
    }
    left
    {
        type            calculated;
        value           uniform 0;
    }
    top
    {
        type            calculated;
        value           uniform 0;
    }
    right
    {
        type            calculated;
        value           uniform 0;
    }
    bottom
    {
        type            calculated;
        value           nonuniform List<scalar> 8(-1.02557e-23 -3.42412e-24 8.86035e-24 -6.43215e-24 -8.71413e-24 6.46072e-24 1.01534e-23 3.35128e-24);
    }
}


// ************************************************************************* //
