/*--------------------------------*- C++ -*----------------------------------*\
  =========                 |
  \\      /  F ield         | OpenFOAM: The Open Source CFD Toolbox
   \\    /   O peration     | Website:  https://openfoam.org
    \\  /    A nd           | Version:  9
     \\/     M anipulation  |
\*---------------------------------------------------------------------------*/
FoamFile
{
    format      ascii;
    class       volVectorField;
    location    "0.84";
    object      U;
}
// * * * * * * * * * * * * * * * * * * * * * * * * * * * * * * * * * * * * * //

dimensions      [0 1 -1 0 0 0 0];

internalField   nonuniform List<vector> 
464
(
(-2.08505e-16 -1.09187e-16 -1.30034e-35)
(-1.34845e-16 2.64571e-16 0)
(4.22296e-20 3.10921e-20 0)
(6.75363e-19 -1.9365e-20 4.08564e-35)
(-9.6801e-17 2.08008e-16 0)
(3.86301e-20 4.31169e-20 -1.01779e-35)
(-1.99134e-16 -5.92113e-17 1.27006e-34)
(6.40981e-19 -1.25334e-19 0)
(-2.44936e-16 8.79987e-18 -8.32575e-36)
(-2.31874e-16 7.03682e-17 -1.05938e-34)
(-1.65711e-16 -1.41893e-16 1.04643e-35)
(-7.02151e-17 -7.1048e-17 -1.06891e-35)
(-2.16742e-16 -1.80949e-17 -3.39416e-36)
(-4.9792e-17 -8.22031e-17 0)
(-1.06105e-18 6.91899e-17 1.2976e-35)
(1.52696e-18 5.96953e-17 -6.00499e-35)
(4.79515e-18 6.39995e-18 0)
(2.41741e-18 2.94837e-18 -2.99864e-35)
(4.18998e-20 -5.94162e-20 -3.05511e-35)
(-1.69653e-18 -1.82849e-18 4.04456e-35)
(-1.5939e-18 -1.68805e-18 -5.90144e-35)
(-4.62625e-19 7.56312e-19 9.28173e-36)
(-8.57048e-19 5.47474e-19 -5.14642e-36)
(6.93183e-19 2.26172e-19 0)
(5.32755e-19 1.92132e-20 -4.19618e-35)
(6.44035e-19 3.67637e-19 1.92843e-35)
(-1.66331e-17 3.14402e-17 -1.32731e-34)
(3.22282e-19 -5.49059e-19 -4.06705e-35)
(-2.34134e-17 4.38849e-17 0)
(2.52207e-19 8.76481e-19 0)
(3.83777e-19 7.75039e-19 2.40492e-36)
(2.22206e-17 5.94657e-17 2.74171e-37)
(1.69426e-17 6.63515e-17 -8.38598e-37)
(2.00129e-17 3.89123e-17 -5.4704e-35)
(2.41177e-17 3.28973e-17 5.51326e-35)
(1.70543e-18 4.87245e-19 7.23611e-35)
(2.35469e-18 -2.28664e-20 -6.57321e-35)
(8.94396e-20 -1.98502e-19 -4.81822e-36)
(2.07114e-19 -6.29739e-19 2.02882e-37)
(5.55163e-18 5.55348e-17 0)
(-1.20908e-18 -2.21972e-18 6.44286e-35)
(-1.14871e-18 -3.83159e-20 0)
(-1.26476e-18 2.02321e-19 -1.38452e-35)
(-2.71677e-17 4.14107e-18 -3.23224e-34)
(-5.3344e-17 -2.0747e-17 3.29858e-34)
(5.75463e-18 6.58845e-17 6.9514e-37)
(-3.84263e-19 -7.52533e-19 3.99101e-35)
(-3.97664e-19 -4.24115e-19 -1.26308e-37)
(3.75373e-20 -2.6712e-19 0)
(2.17667e-19 -3.5018e-19 4.66493e-36)
(-8.12602e-19 -2.64595e-18 -4.40392e-35)
(9.0676e-20 -8.27977e-19 -2.51093e-36)
(-2.07148e-19 -2.63301e-18 -3.31938e-35)
(-2.44534e-18 7.76952e-19 -3.69254e-35)
(-2.02963e-18 1.19748e-18 -1.19999e-36)
(-1.5716e-20 -9.14453e-19 4.06243e-35)
(-5.16442e-20 -8.91457e-19 0)
(3.9745e-18 5.51041e-19 0)
(2.93617e-18 1.13546e-18 -2.19387e-35)
(7.73664e-20 -2.81598e-18 0)
(8.72605e-20 -3.94543e-19 3.89376e-35)
(-1.10857e-16 5.03338e-17 4.6208e-34)
(1.39394e-17 -2.37927e-18 5.02215e-35)
(-1.01317e-18 9.60941e-19 -3.60633e-35)
(-1.91047e-16 6.42651e-17 -4.32868e-36)
(-2.54335e-18 3.52792e-19 -3.90553e-35)
(1.31228e-17 -1.20509e-17 -6.25557e-36)
(4.34297e-20 -5.38226e-19 -3.80528e-35)
(-1.20978e-16 -9.90477e-17 -1.17565e-34)
(-1.63599e-18 1.79195e-18 3.57079e-35)
(4.04621e-18 1.1279e-19 2.18932e-35)
(-1.52745e-16 8.59994e-17 -2.4545e-34)
(-1.51822e-17 5.9681e-17 0)
(-3.7786e-19 -6.95389e-19 4.14439e-35)
(6.06096e-18 -7.19221e-17 -6.20961e-35)
(2.30433e-19 -8.19655e-19 4.02401e-35)
(1.28657e-17 -7.60228e-18 -1.16708e-35)
(-2.36913e-16 -1.06003e-16 -1.25562e-34)
(2.07123e-18 7.5008e-19 -3.34846e-35)
(-5.5946e-18 5.87328e-17 5.29334e-35)
(-9.41491e-17 1.29194e-16 0)
(2.13475e-19 2.14055e-19 9.83682e-36)
(-2.16974e-17 3.88865e-17 -5.93761e-34)
(7.51821e-20 1.63746e-19 4.21203e-35)
(-5.65523e-17 7.24224e-17 0)
(9.53775e-18 -1.62351e-18 1.10176e-36)
(-1.0902e-16 1.72411e-17 -2.19345e-34)
(1.83457e-19 3.16895e-19 0)
(7.52291e-19 -2.30099e-19 0)
(8.05105e-18 -7.1659e-17 -5.58702e-35)
(-6.83632e-17 4.41829e-17 3.39342e-34)
(-1.43416e-16 1.37417e-16 0)
(2.40848e-17 -2.76611e-17 4.94485e-36)
(-9.56381e-17 -1.77791e-16 -3.2219e-34)
(2.16226e-17 -3.6297e-17 -4.77093e-36)
(1.6462e-17 -5.61997e-18 -2.37393e-35)
(2.18775e-19 1.33842e-18 3.35624e-35)
(3.54475e-19 2.44575e-19 -9.02167e-36)
(-2.06582e-18 -4.02163e-17 -2.55794e-34)
(-1.88377e-16 1.2939e-18 -6.27601e-37)
(7.87163e-19 3.35685e-20 0)
(-7.73524e-19 -1.03586e-19 2.21642e-36)
(6.81893e-19 2.02689e-19 0)
(2.44032e-17 5.10284e-17 -2.68282e-37)
(2.04776e-17 4.89453e-17 0)
(-1.44092e-17 3.61566e-17 -4.74964e-34)
(2.62568e-20 4.07652e-20 0)
(1.88412e-17 -1.62846e-17 6.0029e-36)
(-3.69187e-17 7.06558e-18 -3.39706e-34)
(-1.7528e-18 3.06315e-19 0)
(2.24218e-17 -5.08869e-17 0)
(-6.24901e-19 -6.72695e-19 -4.07423e-35)
(1.80359e-17 -2.28854e-17 0)
(-7.97335e-18 -5.99601e-17 1.56115e-34)
(6.42055e-19 -4.13743e-19 1.29481e-36)
(5.16077e-19 4.53475e-20 -6.53845e-37)
(-1.31767e-17 -2.60126e-18 4.65053e-34)
(7.60334e-20 3.38157e-19 4.41829e-35)
(-2.59114e-18 -2.06661e-17 2.05749e-34)
(1.8659e-19 6.02157e-19 -2.50494e-36)
(-1.23148e-18 -8.97483e-20 3.82693e-35)
(-1.54854e-16 -4.64447e-18 -1.65278e-36)
(-1.37383e-16 1.38019e-17 1.00291e-34)
(-1.55898e-16 -4.35718e-17 -1.09768e-34)
(7.32773e-18 -1.90762e-18 0)
(2.50938e-17 -5.4012e-17 2.92186e-35)
(-1.1812e-16 -2.77981e-18 -1.01165e-34)
(1.40872e-17 -4.94447e-17 0)
(2.05364e-17 2.47632e-17 0)
(-9.52071e-18 7.27934e-18 4.59983e-34)
(3.94963e-20 1.34427e-19 -3.27118e-35)
(-1.06504e-17 -7.23861e-18 -3.68822e-34)
(4.84764e-20 -1.567e-19 -3.18572e-35)
(2.40528e-19 2.31412e-19 0)
(-1.06921e-19 7.47229e-19 0)
(-5.645e-18 -1.10611e-17 -3.68814e-34)
(2.91963e-20 2.22865e-19 -6.54214e-35)
(5.0838e-19 -5.508e-19 -4.12126e-35)
(-1.77831e-16 2.69588e-17 1.1355e-34)
(-1.00632e-19 3.58585e-20 2.98534e-35)
(-4.24428e-20 4.7408e-19 0)
(2.68127e-17 -4.08994e-17 0)
(2.23506e-18 8.76493e-19 5.62346e-36)
(5.02885e-19 -3.20491e-19 4.15955e-35)
(3.95927e-20 4.67731e-19 3.97666e-35)
(1.12576e-18 -6.66194e-17 -1.2156e-34)
(-1.17714e-19 3.21237e-20 0)
(2.93157e-19 5.26877e-19 0)
(-1.80461e-18 1.27327e-18 -8.12899e-37)
(-2.37674e-19 -2.06099e-19 -7.3032e-35)
(-5.46957e-19 2.26736e-19 1.26793e-36)
(2.2109e-19 5.99976e-19 3.92349e-35)
(-3.82748e-17 3.6443e-17 3.35195e-35)
(1.85335e-17 -6.39694e-17 -2.93482e-35)
(-6.789e-18 -2.80503e-17 -3.04266e-37)
(-1.35498e-19 2.59489e-19 -4.11188e-35)
(4.36825e-18 1.02507e-17 0)
(-1.0351e-18 5.12779e-20 0)
(-1.25161e-16 -5.58644e-20 -9.62574e-36)
(-4.25714e-17 -1.6861e-17 2.74682e-34)
(-2.18558e-17 -3.15693e-19 0)
(-1.50448e-18 1.32795e-19 -4.14462e-35)
(6.68259e-18 -6.19567e-17 1.01938e-34)
(-1.44288e-19 -2.97525e-19 -5.48978e-37)
(-3.16348e-19 -8.7713e-19 3.79327e-35)
(2.12578e-21 2.69989e-19 0)
(-4.0628e-18 1.52629e-17 -1.64846e-35)
(-7.21947e-19 -1.25103e-18 4.22034e-35)
(8.81549e-18 5.02603e-17 4.32143e-35)
(1.78604e-18 -1.89243e-17 1.07933e-35)
(3.7539e-18 -3.04608e-17 -1.88304e-35)
(-7.17739e-17 -1.13012e-17 -1.85209e-34)
(1.16496e-18 -4.24708e-17 -4.66159e-35)
(-3.48373e-19 6.83263e-19 -9.22156e-36)
(3.0484e-18 -3.8211e-17 3.28193e-35)
(9.4533e-18 -3.73916e-17 1.07621e-35)
(-2.00318e-18 1.51459e-20 4.1169e-35)
(-2.37877e-18 -4.11773e-20 -1.60972e-37)
(-5.47748e-17 3.57131e-17 6.10446e-35)
(8.29845e-18 2.38038e-17 1.05026e-35)
(-2.15739e-18 -2.01761e-19 3.90086e-35)
(6.26961e-18 -1.34077e-17 -1.40234e-35)
(1.68086e-18 8.71123e-18 0)
(2.97077e-18 1.30951e-17 -1.16156e-34)
(2.76129e-18 2.84008e-17 1.66504e-35)
(3.30141e-18 2.06116e-17 -2.80419e-36)
(2.27453e-18 -6.86757e-18 0)
(1.47792e-18 -5.11388e-18 3.75088e-35)
(1.05355e-18 -2.27268e-17 -1.17591e-34)
(3.68567e-18 -2.16806e-17 -5.4049e-38)
(-1.0621e-18 8.40946e-19 -3.85031e-38)
(3.09321e-18 -1.34928e-17 -4.69199e-35)
(-1.09704e-19 -5.25816e-20 -6.81564e-35)
(-6.38287e-19 2.98692e-19 -4.16072e-35)
(9.90608e-19 2.14615e-18 2.38315e-38)
(4.10159e-19 2.63612e-18 -2.3907e-38)
(-1.09009e-18 -1.92692e-18 -3.88048e-35)
(-1.65488e-18 7.98541e-19 3.80935e-38)
(1.68835e-18 1.32273e-17 -6.68469e-35)
(-1.09915e-18 1.92571e-18 3.49501e-35)
(-7.74615e-19 1.28685e-18 0)
(-1.79634e-19 2.72827e-18 0)
(-3.34742e-19 8.54092e-19 0)
(-6.67803e-19 2.72801e-18 3.08468e-38)
(1.83901e-18 -9.23591e-18 0)
(-2.62801e-19 1.7529e-19 1.21275e-36)
(-1.66324e-19 7.13957e-19 0)
(-1.14945e-19 1.10593e-18 -2.61667e-35)
(-1.65284e-19 2.04568e-18 2.23067e-35)
(-4.08477e-19 -2.39214e-17 1.12701e-34)
(-4.84396e-20 2.25005e-19 3.04162e-35)
(1.03172e-18 -2.02303e-18 0)
(3.83999e-22 -3.0862e-19 3.26358e-35)
(2.74435e-19 -9.75757e-19 -4.96409e-35)
(-1.58988e-19 -7.28372e-19 0)
(1.99856e-18 -1.40831e-17 2.01392e-35)
(9.79893e-19 1.76199e-17 5.29261e-35)
(-1.55094e-19 2.8853e-19 3.36682e-35)
(-2.68848e-18 2.07149e-17 6.03672e-35)
(2.59022e-20 1.2763e-18 -1.78481e-35)
(1.64874e-18 5.35007e-18 8.57493e-35)
(-3.21725e-19 1.57082e-18 3.27262e-35)
(-6.66463e-19 2.25187e-18 -3.49921e-35)
(-2.40114e-18 7.39075e-19 7.48913e-35)
(-2.65061e-18 1.30141e-20 4.04318e-35)
(-2.66295e-18 -2.54969e-19 -3.83642e-35)
(-2.47496e-18 -2.44043e-20 0)
(1.60695e-19 -1.39837e-18 2.02055e-35)
(-1.90292e-18 -4.22152e-19 -1.20763e-36)
(-9.9891e-19 -1.47329e-20 -3.98904e-35)
(3.90021e-19 -4.3457e-19 3.9538e-35)
(1.47577e-18 -1.50645e-18 -5.58119e-36)
(3.96899e-18 -5.4302e-19 0)
(7.12656e-18 -2.437e-19 -2.69074e-35)
(9.25649e-19 -2.27396e-18 4.86616e-35)
(2.27801e-18 6.98483e-21 0)
(1.16033e-17 4.31637e-18 6.53712e-38)
(9.55906e-18 1.8232e-18 1.3444e-36)
(4.5971e-18 -9.25102e-20 3.69763e-35)
(8.33571e-18 4.56381e-18 5.98159e-35)
(7.59385e-18 8.65476e-20 -3.76019e-35)
(1.65766e-17 5.98165e-18 -4.65962e-35)
(5.80068e-18 3.89533e-19 4.50899e-35)
(1.07969e-17 8.14356e-19 0)
(1.47902e-17 1.83648e-19 0)
(8.41563e-18 7.68038e-18 1.58381e-36)
(1.86004e-17 2.28998e-18 -1.33555e-36)
(-6.59232e-19 -2.30825e-18 0)
(1.83717e-17 1.08914e-17 0)
(-2.58324e-19 -1.53551e-18 0)
(2.41553e-17 1.21213e-17 -4.27567e-35)
(1.37079e-17 1.26116e-17 -1.16497e-34)
(2.92151e-17 -1.08865e-17 -2.045e-35)
(1.65582e-17 -6.39193e-17 5.60429e-35)
(2.3083e-17 1.98367e-19 0)
(2.68374e-17 4.08296e-18 0)
(-9.86872e-19 -2.50587e-19 0)
(-5.34071e-20 -1.04185e-18 -3.7789e-35)
(3.07739e-17 -2.44518e-19 -3.61714e-35)
(3.3931e-17 2.81708e-17 0)
(3.34949e-17 6.41718e-18 3.46245e-35)
(3.51792e-17 -2.34159e-17 4.87844e-35)
(3.64049e-17 -3.08788e-20 3.04312e-35)
(1.03444e-17 5.70526e-17 -2.25292e-36)
(3.73538e-17 9.31366e-18 -3.04319e-35)
(-2.77963e-18 4.52622e-17 -4.18293e-35)
(3.69615e-17 -4.98885e-19 -5.35573e-38)
(5.3308e-19 -6.29314e-19 -1.26557e-36)
(-6.66651e-19 7.4e-17 -2.52917e-35)
(2.01184e-17 4.41701e-17 2.28345e-36)
(-3.75958e-19 3.9803e-19 -3.59809e-35)
(3.37973e-17 1.19142e-17 0)
(1.0277e-17 -7.27153e-20 1.61204e-35)
(8.67644e-18 7.20484e-17 4.79507e-36)
(-1.40913e-16 -1.33826e-17 2.86786e-35)
(2.91695e-17 -3.74761e-19 0)
(2.10997e-17 1.46422e-17 0)
(7.89118e-19 2.08049e-18 -1.49916e-35)
(2.69416e-19 9.78383e-19 0)
(-4.85807e-18 -7.0793e-17 -3.58781e-35)
(1.03173e-17 -3.20155e-17 2.47245e-37)
(2.30845e-19 -5.24228e-19 -3.55276e-38)
(1.75604e-19 1.87938e-18 0)
(-1.2346e-19 -7.86181e-19 -4.15366e-35)
(-1.28073e-17 6.7752e-17 -4.61258e-35)
(-2.74127e-18 -4.52592e-17 -5.20077e-35)
(7.13799e-19 6.13612e-19 9.77066e-36)
(-8.31998e-17 -1.89825e-17 0)
(1.99962e-19 -7.98405e-19 0)
(-2.02914e-17 -3.03371e-17 5.32375e-35)
(-3.72334e-17 -3.80801e-17 3.92264e-37)
(-6.3782e-17 -2.12659e-17 -3.59591e-37)
(-4.89851e-19 -4.89281e-19 -4.09532e-35)
(-2.15161e-18 2.03378e-19 8.00279e-35)
(2.38206e-17 -1.16595e-17 2.07737e-35)
(2.2539e-18 -4.17982e-19 1.32537e-35)
(1.42779e-18 -2.1862e-18 0)
(1.33125e-17 -3.45776e-17 3.66296e-36)
(1.08868e-17 -2.11766e-17 1.40549e-35)
(-6.50024e-17 -2.99721e-17 1.83417e-34)
(-1.65193e-17 5.31144e-17 1.55816e-35)
(-4.25502e-17 1.2191e-17 -1.62027e-35)
(-7.65376e-17 1.00922e-17 -3.0607e-34)
(-5.77126e-17 -1.27276e-16 4.0842e-34)
(1.35326e-18 -1.85114e-18 2.8708e-35)
(3.01235e-17 -1.94364e-17 -1.97868e-35)
(3.32924e-17 -2.84927e-17 -4.38856e-35)
(4.4619e-19 -2.34958e-18 2.77789e-35)
(-2.07621e-17 -3.68719e-17 -5.05507e-34)
(9.20515e-18 -5.09035e-17 -2.10403e-35)
(-1.56821e-18 1.99055e-18 -3.57157e-35)
(-1.06895e-19 -3.5374e-19 4.30204e-38)
(2.17722e-17 -5.94219e-18 0)
(-9.45992e-17 5.50009e-18 1.95509e-36)
(3.06863e-17 -3.72974e-17 -5.48201e-35)
(1.95088e-17 -4.37536e-17 0)
(6.09557e-19 -4.46067e-20 -7.79944e-36)
(-3.73574e-17 -5.03591e-17 0)
(4.63221e-19 -1.02912e-19 0)
(-8.54681e-17 1.73751e-17 -6.19816e-35)
(4.2902e-20 9.34034e-19 3.16845e-35)
(7.79845e-18 -1.06101e-17 1.00211e-38)
(-2.11813e-17 -5.41347e-17 2.34248e-34)
(8.2398e-18 -2.43259e-17 -1.43695e-35)
(-6.79501e-17 -7.90873e-19 2.2912e-35)
(-1.49871e-19 -3.03386e-19 2.36319e-37)
(-3.98671e-20 -5.31232e-19 -4.14035e-35)
(-1.03002e-16 5.38572e-18 9.03788e-35)
(3.47886e-19 -8.0209e-19 0)
(-2.81692e-17 -5.68313e-17 -1.11633e-34)
(-1.79076e-18 -9.64369e-19 -1.88e-35)
(-2.54796e-16 8.81056e-17 -5.21376e-35)
(1.44444e-19 1.21375e-20 -1.62774e-35)
(3.46073e-17 -1.68829e-17 4.05446e-35)
(-8.471e-19 2.44578e-18 -3.06944e-38)
(-1.91614e-18 -1.41142e-20 -3.96745e-35)
(-1.25298e-19 8.79591e-19 -2.89963e-35)
(1.92947e-19 -1.43949e-20 -3.23519e-35)
(1.20652e-17 -6.31465e-17 -1.88788e-35)
(-1.37724e-18 -6.09925e-19 4.20533e-35)
(9.81539e-20 -2.52252e-20 1.70441e-35)
(-2.09068e-16 -2.28874e-16 0)
(-8.42591e-19 -6.65772e-17 -1.06119e-36)
(-1.04422e-17 -6.89616e-17 1.10786e-34)
(2.80537e-17 -2.89451e-17 2.82727e-35)
(5.77102e-19 -3.86153e-19 2.04123e-35)
(-5.12379e-20 -2.5281e-19 6.73767e-35)
(8.22776e-18 -4.42472e-18 1.16369e-35)
(3.20895e-19 4.26698e-21 3.96008e-35)
(-8.72392e-21 2.18765e-18 0)
(-1.37263e-18 -2.46815e-19 -1.27855e-36)
(2.76093e-19 -4.57399e-20 -1.93861e-35)
(4.14712e-18 -5.43484e-18 0)
(4.76531e-18 -3.33166e-18 -3.82e-36)
(-1.11405e-18 -3.73732e-19 -3.97412e-35)
(-4.4889e-17 1.72512e-16 5.6006e-34)
(-2.93462e-22 3.07422e-21 0)
(-1.30471e-17 7.09174e-17 -3.02422e-34)
(2.55551e-21 4.00484e-22 -1.53629e-35)
(-1.73329e-16 2.27771e-16 0)
(1.39206e-19 6.38466e-20 -2.18669e-35)
(-2.55987e-16 -2.47938e-17 1.33085e-35)
(9.31499e-20 9.40994e-20 1.0882e-35)
(-7.49485e-17 1.52044e-16 0)
(-1.50758e-16 -1.84981e-16 9.88755e-36)
(4.28798e-20 -4.21329e-20 4.19138e-35)
(7.01806e-19 -2.59488e-19 0)
(1.61895e-17 2.17268e-17 0)
(-1.91314e-17 -3.35927e-17 0)
(1.94941e-19 7.62078e-19 2.18403e-35)
(1.29235e-19 -5.09804e-20 0)
(-1.23265e-17 2.79443e-18 7.1487e-34)
(-2.20067e-17 6.24963e-17 -1.36011e-35)
(8.01077e-18 1.58189e-17 0)
(-5.26596e-18 2.52881e-17 5.22357e-35)
(7.64014e-19 8.63601e-20 0)
(-8.13054e-17 -1.42865e-17 1.74037e-34)
(-6.72235e-19 1.04408e-19 6.00621e-35)
(-1.97257e-18 3.67206e-17 3.48117e-34)
(-2.86423e-21 8.57216e-19 1.13723e-35)
(1.62438e-18 3.2682e-17 0)
(1.32346e-17 4.8437e-17 -4.61321e-35)
(1.21057e-17 3.292e-17 0)
(3.09456e-17 3.81108e-17 -1.56466e-35)
(2.5245e-17 1.81873e-17 -1.69001e-36)
(2.4767e-17 4.85016e-17 0)
(3.03951e-17 2.82744e-17 -2.39451e-35)
(4.95462e-19 3.81766e-19 -2.22736e-35)
(2.18947e-18 6.0422e-18 0)
(5.44434e-19 -6.71569e-19 0)
(1.9745e-18 -1.70843e-18 -2.90566e-35)
(5.11208e-18 1.83695e-18 0)
(1.62659e-19 -1.68806e-18 3.47267e-35)
(-9.95756e-20 -1.78507e-18 8.80733e-35)
(-9.7731e-19 -1.65775e-18 -2.28027e-35)
(-1.68852e-18 6.03436e-20 -4.13059e-35)
(-2.21238e-18 -6.16434e-19 0)
(-1.00619e-19 7.18212e-19 -8.38642e-35)
(-8.94781e-19 -8.14482e-19 0)
(-4.86907e-17 3.23129e-17 1.57094e-34)
(-2.13306e-16 2.28806e-16 0)
(8.11438e-20 1.68763e-20 0)
(-1.77178e-16 -2.3422e-16 0)
(3.16102e-20 -2.04841e-20 -1.59897e-35)
(-2.61884e-16 -8.99951e-19 6.79933e-35)
(-2.35767e-16 -1.52259e-16 0)
(-1.59416e-17 -7.41022e-17 0)
(6.0864e-21 -1.48958e-21 3.03168e-35)
(-4.79741e-17 -1.71309e-16 0)
(1.84646e-22 -2.18051e-21 -3.90101e-35)
(-2.28112e-16 1.18483e-16 4.82698e-35)
(4.48544e-19 -2.9306e-19 2.18212e-35)
(4.24655e-19 9.68329e-20 0)
(6.32739e-19 4.5214e-19 2.06958e-35)
(5.59085e-19 1.30354e-19 0)
(-1.79624e-16 1.66662e-16 0)
(-8.29729e-18 -2.5905e-17 0)
(2.79482e-19 -2.74078e-19 1.28368e-36)
(3.36232e-19 1.4803e-19 1.96729e-35)
(-2.42191e-16 1.40528e-16 -4.7913e-35)
(4.00201e-19 -1.70296e-19 2.30048e-35)
(2.27577e-19 2.88309e-20 2.3616e-35)
(-1.24229e-16 -5.23431e-17 1.25991e-34)
(-3.63799e-18 8.17573e-18 -3.20698e-34)
(-1.34134e-16 -2.68626e-16 -2.66387e-34)
(-4.22489e-17 4.6676e-17 5.90533e-35)
(-1.23271e-19 1.99381e-17 -1.21582e-34)
(1.06699e-18 3.49938e-17 1.99804e-35)
(5.25571e-19 1.75243e-17 -1.44228e-35)
(-2.99386e-17 9.30494e-17 6.9169e-34)
(3.50807e-20 3.32599e-20 2.28907e-35)
(3.14353e-17 3.31082e-17 1.68247e-35)
(8.08072e-18 3.46272e-17 3.16048e-36)
(4.26728e-19 5.5821e-19 4.04678e-35)
(3.08995e-17 1.74935e-17 7.68295e-35)
(8.55963e-19 1.56584e-18 0)
(8.03908e-19 1.22505e-18 2.45326e-35)
(4.07357e-19 6.63735e-19 -2.1665e-35)
(2.9883e-19 -4.75661e-20 0)
(7.64629e-20 7.2414e-19 -2.20412e-35)
(4.3311e-18 -2.90346e-20 0)
(9.47197e-21 -9.12215e-19 -2.08394e-35)
(-1.82464e-18 -1.14923e-18 1.13794e-36)
(-2.14388e-18 -1.24829e-18 -2.40103e-35)
(-5.28023e-19 5.18989e-19 6.21451e-35)
(-2.45993e-18 -7.70239e-19 -1.29709e-36)
(-9.05304e-19 5.06532e-19 -2.30076e-35)
(-5.25445e-19 -3.18621e-19 -2.14959e-35)
(-1.40188e-18 2.61885e-19 2.51109e-35)
(-7.08092e-19 -2.71862e-18 2.53286e-35)
(1.15176e-17 6.08962e-17 0)
(-2.58579e-16 -8.84524e-17 -3.67958e-35)
(1.1168e-17 7.13828e-17 1.40426e-35)
(6.30862e-19 4.81315e-19 0)
(-1.67642e-20 -2.70182e-18 -5.39523e-35)
(1.1039e-17 2.15625e-17 0)
(1.3045e-17 1.60661e-17 6.94965e-35)
(8.01553e-20 -7.64431e-20 -2.1288e-35)
(2.42401e-19 -1.12663e-19 -4.11329e-38)
(1.81194e-19 -1.59413e-19 -1.44982e-37)
(2.6312e-20 -2.2423e-20 3.62082e-35)
(-2.28513e-17 -8.2361e-17 0)
(-9.26078e-17 -2.14685e-16 7.49068e-35)
(4.77657e-19 6.53098e-19 -5.09422e-35)
)
;

boundaryField
{
    back
    {
        type            empty;
    }
    front
    {
        type            empty;
    }
    left
    {
        type            noSlip;
    }
    top
    {
        type            uniformFixedValue;
        uniformValue    
        {
            type            scale;
            scale           
            {
                type            squarePulse;
                start           0.3;
                duration        0.3;
            }
            xScale          
            {
                type            constant;
                value           1;
            }
            value           
            {
                type            constant;
                value           (0 -0.7 0);
            }
        }
        value           uniform (0 -0 0);
    }
    right
    {
        type            noSlip;
    }
    bottom
    {
        type            zeroGradient;
    }
}


// ************************************************************************* //
