/*--------------------------------*- C++ -*----------------------------------*\
  =========                 |
  \\      /  F ield         | OpenFOAM: The Open Source CFD Toolbox
   \\    /   O peration     | Website:  https://openfoam.org
    \\  /    A nd           | Version:  9
     \\/     M anipulation  |
\*---------------------------------------------------------------------------*/
FoamFile
{
    format      ascii;
    class       surfaceScalarField;
    location    "1.74";
    object      phi;
}
// * * * * * * * * * * * * * * * * * * * * * * * * * * * * * * * * * * * * * //

dimensions      [0 3 -1 0 0 0 0];

internalField   nonuniform List<scalar> 
1363
(
-5.08719e-07
3.49428e-07
1.59291e-07
1.79676e-07
-2.7775e-08
-1.51901e-07
7.88199e-07
-5.95632e-07
-1.92567e-07
-1.58906e-07
4.65896e-07
-3.0699e-07
7.1374e-07
7.44594e-08
6.87755e-07
4.43218e-08
-7.32076e-07
-9.46023e-08
9.46023e-08
8.11697e-07
-1.23943e-07
-2.93076e-07
3.02501e-07
-9.42421e-09
1.59752e-08
-3.09052e-07
-3.87401e-07
3.69202e-07
1.81987e-08
7.00437e-07
-6.46617e-07
-5.38208e-08
3.38025e-07
-4.96931e-07
-4.39722e-07
4.2563e-07
1.40915e-08
5.01586e-07
1.98852e-07
8.68825e-08
9.27936e-08
6.4965e-08
-2.25346e-07
1.60381e-07
-2.49105e-07
-2.59614e-07
2.86257e-07
1.44604e-08
-3.00717e-07
-5.52652e-08
5.52652e-08
7.8608e-08
-1.36429e-08
1.11916e-07
-7.58533e-07
-2.17336e-07
8.32157e-09
2.09015e-07
-6.98004e-08
2.71689e-07
-2.01889e-07
-1.68602e-07
-2.18799e-07
2.42451e-07
-3.12251e-07
7.30763e-07
-6.88571e-07
-4.2192e-08
-2.44843e-07
2.75067e-08
-2.45651e-07
4.0878e-07
-1.63129e-07
1.15102e-09
-3.6641e-07
3.65259e-07
-2.49674e-07
1.24576e-07
1.25097e-07
9.5812e-09
7.21182e-07
1.03427e-07
-3.49078e-07
-2.41473e-08
-2.74589e-07
2.98736e-07
6.81752e-07
-6.12641e-07
-6.91108e-08
-2.0652e-07
2.35782e-07
-2.92628e-08
-4.09745e-07
-1.7696e-07
5.86705e-07
3.02439e-07
-1.31944e-07
-1.70495e-07
-3.23113e-07
-8.66317e-08
6.99485e-08
2.0174e-07
5.98186e-07
-2.54575e-07
-3.43611e-07
3.68276e-07
-6.39473e-07
2.71197e-07
-4.16388e-08
1.11587e-07
-5.27764e-08
-4.1826e-08
5.0974e-08
4.36283e-08
3.30198e-07
-2.98578e-08
-3.0034e-07
-2.2729e-07
-8.23218e-09
2.35522e-07
1.45546e-07
-1.69694e-07
8.74431e-08
5.10743e-07
-1.69318e-07
-2.70404e-07
2.66919e-07
1.93375e-08
1.24041e-07
-1.15719e-07
-1.00259e-07
-1.0626e-07
2.97593e-07
-1.43322e-07
-1.54271e-07
4.12056e-07
-3.96081e-07
-2.14349e-07
-3.03281e-07
5.1763e-07
-7.80749e-08
7.80749e-08
1.49758e-09
4.10558e-07
-2.02378e-07
1.24303e-07
-1.61606e-07
7.46553e-07
-5.84947e-07
-2.06133e-07
2.07284e-07
7.44947e-07
-6.66984e-07
-7.79627e-08
-2.25735e-08
-2.52015e-07
-5.06712e-08
4.00099e-07
2.02343e-07
1.00096e-07
-1.67601e-07
1.17916e-07
4.9685e-08
5.6376e-08
1.54754e-07
-1.93865e-07
3.91113e-08
5.09932e-07
-7.24281e-07
2.7706e-07
-1.8402e-07
-9.30406e-08
-5.30566e-08
2.52817e-08
-2.2055e-07
2.08064e-07
1.2486e-08
-3.24468e-07
3.24468e-07
-3.50874e-08
-3.31323e-07
2.09615e-07
8.79777e-08
-6.27479e-08
7.48278e-09
1.06825e-07
-5.15598e-08
1.47673e-08
-1.79368e-07
-7.03055e-08
1.60826e-07
-7.39437e-08
-7.97171e-08
2.19775e-07
-1.40058e-07
3.67027e-07
-3.0668e-07
1.22345e-08
2.94446e-07
-6.77451e-09
2.18622e-07
-1.00706e-07
-8.70658e-07
8.39717e-07
3.09412e-08
2.77965e-07
-4.39571e-07
3.82149e-08
2.55403e-07
-2.93618e-07
1.14569e-07
3.11062e-07
-1.47308e-07
-1.59372e-07
3.1343e-07
5.48459e-08
2.81221e-07
-3.37143e-08
-2.47507e-07
-4.1616e-07
4.17657e-07
-3.66525e-08
-2.66628e-07
3.42333e-07
1.75297e-07
-2.11333e-07
2.40386e-07
-2.90529e-08
-5.98896e-07
-4.05768e-08
-1.02811e-07
1.41026e-07
-3.14168e-07
2.34451e-07
-3.79057e-09
2.15933e-07
-1.84926e-08
-1.97441e-07
4.02696e-08
-4.56429e-07
3.96293e-08
2.24284e-07
3.22831e-07
1.95019e-08
4.60659e-08
1.61219e-07
3.44083e-08
2.9579e-07
-6.71861e-09
3.72367e-07
-3.65648e-07
6.22216e-08
9.2532e-08
-5.36382e-09
-1.88501e-07
-2.40385e-07
7.50317e-07
-6.07107e-08
-6.63571e-07
3.17076e-07
-9.18612e-08
-1.28688e-07
9.59611e-08
2.73241e-07
2.81221e-07
-2.26736e-07
-4.08336e-07
6.35072e-07
3.84186e-07
8.17104e-08
-7.34436e-08
6.9653e-08
7.653e-07
-1.00859e-06
2.43288e-07
-6.9653e-08
1.15719e-07
-2.82608e-07
-3.08885e-07
5.91493e-07
-4.16388e-08
-2.31674e-07
3.17693e-07
-1.75964e-07
-3.40413e-09
1.24041e-07
2.15014e-07
-1.11587e-07
-2.15014e-07
1.84342e-07
3.06719e-08
-1.00259e-07
-9.98648e-08
1.14325e-07
9.98648e-08
-1.47766e-07
4.79011e-08
-1.14325e-07
1.06093e-07
-1.62951e-07
3.08497e-07
1.62951e-07
-1.00729e-07
1.47766e-07
-1.77624e-07
4.09144e-07
-6.49529e-07
-1.06093e-07
1.00729e-07
-7.1024e-07
6.49529e-07
7.1024e-07
-6.22797e-07
-3.08497e-07
6.22797e-07
-3.143e-07
1.77624e-07
-1.84342e-07
9.03403e-08
1.78471e-08
-1.93811e-07
7.74251e-07
3.74468e-08
-1.47338e-07
2.83709e-08
-2.12391e-07
6.7357e-08
1.40707e-07
5.52494e-07
-3.62433e-07
-1.90061e-07
-2.71074e-07
-5.99584e-07
1.06644e-07
6.67607e-07
5.8793e-07
-8.28699e-07
2.40769e-07
5.5338e-07
-5.87094e-07
-1.69734e-07
2.29282e-07
-5.95486e-08
-6.57126e-07
4.44851e-08
-8.27276e-08
-2.40385e-07
2.33231e-07
-1.46093e-08
-7.90096e-09
6.10778e-08
-5.31768e-08
3.38217e-07
-2.74081e-07
6.08727e-08
1.72358e-07
1.84368e-07
-2.67095e-07
-4.87323e-07
1.80332e-07
7.13182e-07
-4.47224e-08
-6.6846e-07
8.0684e-07
-2.1891e-07
1.51405e-08
-4.36857e-07
4.21717e-07
1.02657e-07
1.13277e-07
3.34478e-07
-1.10194e-07
7.20264e-08
4.70212e-08
-7.71615e-08
-1.52827e-07
4.67709e-07
-8.36244e-08
1.43782e-07
6.95935e-07
-3.8049e-07
2.9642e-07
8.407e-08
2.02848e-08
2.20101e-07
-1.39383e-07
-2.41107e-07
-1.18026e-07
8.13739e-08
-4.33552e-07
3.20564e-07
1.12989e-07
-1.95921e-07
2.61877e-08
2.60803e-07
1.47977e-07
3.75534e-07
-1.37132e-07
-2.84193e-07
2.19689e-07
-4.91324e-07
2.89538e-07
2.01786e-07
-4.35579e-07
3.46737e-08
4.00905e-07
6.10626e-07
-8.817e-07
4.42069e-07
-1.21505e-07
8.79544e-07
-7.63881e-07
-1.15663e-07
3.32172e-07
1.09897e-07
-3.14588e-07
2.30964e-07
-4.75309e-08
1.72628e-07
-2.61877e-08
-4.09391e-07
5.1998e-07
-1.81955e-07
4.49032e-07
-4.36951e-07
-1.2081e-08
1.5564e-08
-2.70139e-07
3.39124e-08
-3.39124e-08
-7.34436e-08
2.00375e-07
3.19605e-07
-8.682e-08
6.06323e-08
-1.5332e-07
1.37361e-07
-4.19456e-07
6.43006e-07
-6.74274e-07
7.08948e-07
-7.72646e-09
3.96411e-08
-2.4796e-07
4.48335e-07
-2.10639e-07
4.11717e-07
-2.01078e-07
-8.9293e-07
8.14967e-07
-6.89728e-08
-1.98284e-07
4.89778e-07
-2.91494e-07
-2.64763e-07
8.75389e-07
8.95114e-07
-5.61866e-07
-3.33248e-07
-5.01149e-07
6.41978e-08
-4.74756e-07
-2.63934e-08
-3.47718e-07
4.74038e-07
-1.2632e-07
3.19568e-07
-5.17852e-07
-9.88272e-08
4.31e-07
4.66147e-07
-2.57817e-07
-2.0833e-07
7.35637e-08
-7.35637e-08
4.06431e-07
-4.06431e-07
-8.54554e-08
-8.07474e-07
-3.61659e-07
4.49349e-07
-8.76898e-08
2.25284e-07
9.52289e-08
-3.20512e-07
-1.20646e-07
3.40335e-07
-7.07623e-07
3.33489e-08
3.40474e-07
-3.40474e-07
-4.03836e-08
4.03836e-08
1.4206e-07
1.97223e-07
-4.45183e-07
6.6827e-07
2.26843e-07
1.12379e-07
1.77753e-07
-5.93331e-07
1.18575e-07
-4.98102e-07
1.52293e-07
1.82185e-07
-8.55131e-08
-3.66468e-07
4.51981e-07
3.18429e-07
-2.34359e-07
-2.63979e-07
3.76968e-07
-8.10538e-08
-3.63836e-07
-7.57698e-08
4.39605e-07
1.74652e-07
1.51359e-07
7.94089e-07
7.95453e-08
-4.99001e-07
1.40398e-07
-9.04279e-07
-2.83927e-07
3.93824e-07
1.90518e-07
-4.65295e-07
8.1336e-08
3.49664e-07
-5.65583e-07
-3.76239e-07
9.41822e-07
5.44497e-08
-4.78859e-07
3.52539e-07
3.91471e-07
-9.57053e-07
-8.76585e-07
-2.8363e-07
3.64966e-07
-3.93492e-07
3.17722e-07
8.07678e-08
3.48578e-07
-4.29345e-07
5.19827e-08
3.20214e-07
1.19392e-07
5.93217e-07
-2.73003e-07
-8.31842e-07
8.67938e-07
-3.60956e-08
-2.64066e-07
-6.62787e-08
8.81246e-07
-6.67982e-07
-4.65785e-07
8.57256e-07
-6.14893e-07
2.20111e-07
3.94782e-07
-7.9013e-07
6.74467e-07
1.77803e-08
1.0626e-07
-1.4245e-07
3.78232e-07
2.07328e-07
-1.89548e-07
-3.03782e-07
-3.11111e-07
5.6597e-07
-3.26e-07
-2.39971e-07
-6.27576e-07
9.65793e-07
-1.61802e-07
4.67229e-07
-3.05427e-07
-4.94781e-07
3.32979e-07
2.98598e-07
6.63679e-08
3.79366e-07
3.83554e-07
1.82416e-07
4.75013e-07
-7.39078e-07
-8.69053e-07
4.03268e-07
7.58145e-07
-5.173e-08
-7.06415e-07
-2.78608e-07
4.98719e-07
1.08705e-08
7.76124e-08
-8.84829e-08
9.67791e-07
-7.85957e-07
-1.81835e-07
3.40216e-07
1.79483e-07
-9.65439e-07
4.27971e-07
5.37822e-07
4.74179e-07
2.68788e-07
-7.42967e-07
1.63447e-07
-8.86993e-07
-3.33613e-07
1.22061e-06
-7.69397e-07
-3.45366e-07
1.11476e-06
-1.36653e-07
6.10832e-07
3.72299e-07
7.96819e-08
-5.9962e-07
1.02826e-07
4.96795e-07
1.42797e-07
-1.42797e-07
7.48278e-09
-2.47507e-07
-4.1826e-08
-4.55601e-08
4.55601e-08
-3.54632e-07
3.54632e-07
-2.31674e-07
9.22895e-07
-2.50585e-07
-6.7231e-07
-1.17054e-07
1.17054e-07
-1.12669e-07
1.12669e-07
-2.02378e-07
2.94388e-08
-2.94388e-08
-2.30602e-07
2.30602e-07
1.06825e-07
1.56729e-07
-1.56729e-07
5.0974e-08
3.17693e-07
-4.71418e-08
5.22154e-07
3.9326e-07
5.09547e-07
-9.02808e-07
6.65137e-08
-6.65137e-08
9.43829e-07
-1.85684e-07
-4.70442e-07
7.41639e-07
3.59699e-07
-3.59699e-07
-3.98225e-07
7.22253e-08
7.91759e-07
-2.96397e-07
-4.95362e-07
2.88424e-07
-1.02668e-06
7.38255e-07
-1.25497e-06
3.67977e-07
-6.46982e-07
9.35406e-07
-2.58698e-07
-1.39527e-07
-9.98835e-07
2.29438e-07
-2.05117e-08
1.69792e-07
-1.4928e-07
-9.64119e-09
-4.09144e-07
1.83649e-07
-3.20302e-07
-1.1149e-07
-4.05407e-07
5.16898e-07
-2.86191e-07
2.68339e-07
-2.4583e-07
-2.25089e-08
-5.80393e-07
1.00836e-06
1.49838e-07
-5.56588e-07
9.70152e-07
-4.13564e-07
4.52453e-07
-1.46203e-07
9.86522e-07
-6.46306e-07
8.9815e-07
-7.18667e-07
6.93245e-07
7.68974e-07
-8.58449e-07
8.94749e-08
6.21808e-08
1.07611e-07
-7.85812e-07
1.3883e-07
-6.1748e-07
8.86268e-07
6.06075e-07
-4.81296e-08
-7.27253e-07
7.75382e-07
6.24502e-07
-7.35992e-07
7.14298e-07
-1.04791e-06
4.6168e-07
6.29348e-07
-1.09103e-06
2.1897e-07
2.35285e-07
-4.54255e-07
2.9682e-07
9.0298e-07
-1.24835e-06
-4.71565e-07
2.53041e-07
2.18524e-07
8.47871e-07
-1.15286e-06
3.04984e-07
8.76967e-07
-7.74141e-07
-4.883e-07
8.28927e-08
7.18158e-07
7.51343e-07
-9.70426e-09
-5.62702e-07
5.40193e-07
4.06129e-07
4.51776e-07
6.42307e-07
-3.45487e-07
2.51844e-07
5.03072e-08
-3.51989e-07
8.04284e-07
-5.85314e-07
3.52672e-07
-1.44152e-07
8.11463e-07
-1.19042e-07
-2.52144e-07
3.71186e-07
-1.71022e-08
9.54379e-07
-9.37277e-07
1.09907e-06
-2.51195e-07
9.98239e-07
-5.45786e-07
-2.3628e-07
-6.91176e-07
-1.21868e-07
-6.58283e-07
5.18756e-07
-1.78066e-07
1.59015e-07
4.65153e-07
7.84922e-07
-5.31881e-07
-5.22988e-07
1.15234e-06
-7.746e-07
-2.73311e-07
-9.93171e-07
-2.55175e-07
2.9948e-07
3.42827e-07
9.05555e-07
-7.89513e-07
-2.38469e-07
1.02798e-06
-7.60018e-07
5.20047e-07
-7.99217e-07
-7.1591e-07
-3.75118e-07
-9.70146e-07
1.96005e-07
7.94361e-07
-5.06919e-07
-5.19759e-07
-1.11504e-06
-1.12659e-06
-1.18089e-07
4.87845e-07
6.99575e-07
-1.87964e-07
-5.11611e-07
3.97153e-08
-1.58757e-07
2.28077e-08
-2.59087e-07
5.55424e-07
4.40108e-07
-2.21584e-07
-1.80249e-08
7.00855e-07
-6.8283e-07
-5.02055e-07
7.53898e-07
-1.99022e-07
-5.04994e-07
1.21098e-06
-4.79183e-07
9.3096e-07
3.69192e-08
3.34267e-07
6.75806e-07
-3.16569e-08
8.07039e-07
-7.52259e-07
-1.01733e-07
8.53992e-07
1.05271e-06
-3.59461e-07
8.42244e-07
-6.83229e-07
-5.99122e-07
7.0725e-07
-1.08128e-07
4.6982e-07
-7.83915e-07
-2.41262e-07
6.8895e-07
7.6504e-08
-2.28405e-07
5.46095e-07
-5.92343e-07
6.4265e-07
-4.58948e-07
8.65078e-07
1.77206e-07
5.83285e-08
-7.03187e-07
4.47731e-07
2.55456e-07
-3.9103e-07
1.40595e-07
-5.89572e-07
9.41427e-07
-3.51855e-07
2.9495e-07
-3.85894e-07
-2.81306e-07
6.67201e-07
-8.54186e-07
-2.72403e-07
8.54052e-07
-3.34005e-07
-4.75793e-07
1.09715e-06
-9.01141e-07
-2.36354e-07
-4.99639e-07
-1.10936e-06
-3.19633e-07
4.91691e-07
5.34419e-07
-5.6691e-07
9.19582e-07
-9.23576e-07
-1.78931e-08
6.32169e-07
-8.73431e-07
3.64049e-07
3.9785e-07
5.43577e-07
-5.05067e-07
9.07343e-07
-4.02275e-07
1.84481e-07
6.69511e-07
-8.56923e-07
-4.47506e-07
-2.91407e-07
2.9539e-07
9.10789e-07
-3.64695e-07
2.04423e-07
5.02827e-07
9.32269e-07
-4.76757e-07
-4.67923e-07
9.4468e-07
-2.33936e-07
-2.54364e-07
-8.85933e-07
5.09694e-07
7.33574e-07
-3.69525e-07
-2.75557e-07
3.52061e-07
2.42136e-07
-5.98703e-07
3.56566e-07
-1.74766e-07
-5.36394e-08
1.19309e-06
4.09636e-07
5.22633e-07
-4.23218e-07
-4.7959e-07
8.57367e-07
3.7203e-07
5.35312e-07
-9.43848e-07
5.2063e-07
-9.56348e-07
-5.56863e-07
3.90042e-07
-1.47906e-07
-8.37287e-08
-2.61914e-07
-4.33715e-07
-4.36679e-07
2.96084e-07
3.81828e-08
-8.73934e-07
5.82526e-07
-3.88759e-07
-4.97174e-07
2.97676e-07
-2.74397e-07
-6.71555e-07
3.89444e-07
-2.94092e-07
8.03786e-07
4.66086e-08
5.3741e-09
-4.81893e-07
-4.61955e-07
-7.36187e-07
7.57452e-08
3.24354e-07
9.15607e-07
-3.43247e-07
7.39389e-08
2.53184e-07
1.36858e-07
-2.73904e-07
7.4601e-07
4.62331e-07
-3.16343e-07
-1.45988e-07
1.88427e-07
3.57251e-07
-2.00594e-07
8.53378e-07
-6.52784e-07
6.10435e-07
8.64772e-07
-7.06829e-08
-6.98696e-07
7.72382e-07
-2.69555e-07
7.98493e-07
4.97985e-07
6.08574e-07
-3.52916e-07
5.10268e-07
2.93518e-07
-7.22456e-07
-1.81823e-07
5.74705e-08
-5.20964e-08
1.98085e-07
-6.12271e-08
2.34677e-07
-9.17579e-07
1.95123e-07
1.9809e-07
2.13627e-07
4.69493e-07
-2.9484e-07
7.38665e-07
-2.49309e-07
-9.02092e-07
8.39934e-07
-6.44811e-07
-1.03746e-07
-3.4024e-07
3.62632e-07
-2.23913e-08
-6.95748e-07
-7.68925e-08
2.08323e-07
2.28477e-07
-4.74421e-07
-3.32361e-07
-1.79918e-08
-3.70129e-07
3.95313e-07
-2.76065e-07
2.65787e-07
2.09413e-07
-7.66264e-09
-1.93403e-09
5.39891e-08
1.21497e-07
1.71706e-07
1.88294e-07
1.80558e-07
1.66618e-07
-3.64283e-07
3.47439e-07
1.68445e-08
-7.45256e-07
-2.58646e-07
4.34223e-07
-2.43705e-07
1.30613e-07
1.14187e-07
1.63853e-07
7.3323e-08
-7.29327e-07
-3.40818e-07
1.3681e-07
1.0799e-07
-1.25534e-07
6.43068e-08
1.51608e-07
1.09143e-07
-3.77792e-07
5.39723e-08
2.46356e-08
-8.22148e-07
5.2055e-08
3.02055e-07
-2.59634e-07
-1.0465e-07
8.94003e-08
-1.20463e-06
1.96046e-07
-1.27583e-07
4.28284e-07
3.02319e-07
3.30471e-07
-1.91189e-07
-9.87972e-07
-1.36589e-07
-8.4419e-07
1.13316e-07
-8.71245e-09
-1.3461e-07
2.21847e-08
-1.54128e-07
-2.31227e-07
-3.99866e-08
1.18062e-07
3.55198e-08
-2.26708e-07
-4.16863e-07
-3.40594e-07
-5.28975e-08
1.85176e-07
-2.23408e-07
1.70352e-07
-3.15655e-07
-3.90545e-07
1.49438e-07
2.91475e-07
8.43246e-09
-1.26949e-07
1.18516e-07
-1.3455e-08
-5.16733e-07
-1.60399e-08
-1.95606e-07
-5.62927e-07
-4.55239e-07
-1.3455e-08
-2.38938e-07
1.07859e-07
-5.38868e-08
2.57943e-07
-1.87758e-07
3.05901e-07
3.29171e-07
1.28653e-07
-4.26328e-07
1.71964e-07
8.39054e-07
-7.41728e-08
-4.03559e-07
2.13461e-07
1.90097e-07
-1.72242e-07
-2.21536e-07
-2.15264e-07
-4.56661e-07
-1.57941e-07
-4.99249e-07
4.76675e-07
9.81254e-07
7.12887e-07
-7.64617e-07
4.49287e-07
-4.28563e-08
-1.85423e-07
-3.9685e-07
5.88762e-08
1.46875e-08
3.9685e-07
-5.88762e-08
2.35703e-07
4.49287e-07
2.0948e-07
-4.49235e-07
6.78673e-07
7.79182e-07
-5.52339e-07
9.13423e-08
-8.34428e-08
-3.36108e-08
6.93513e-08
-2.83757e-09
-3.33255e-08
2.77675e-08
-1.91848e-07
-5.5659e-08
-8.34428e-08
4.8315e-08
-2.75497e-09
-4.41467e-07
8.68355e-08
1.32194e-07
-7.71617e-08
-3.55069e-08
3.33255e-08
-3.88676e-09
-2.77675e-08
-1.67123e-09
1.91848e-07
-3.51191e-08
-1.32194e-07
-2.45349e-08
7.71617e-08
-4.8315e-08
6.93513e-08
-4.41467e-07
-5.85411e-07
-6.31274e-07
4.80617e-08
-3.97304e-07
6.92694e-07
1.82947e-07
-2.57119e-07
1.31824e-07
4.04021e-07
1.34371e-07
8.02958e-07
-5.70877e-07
4.39454e-08
-4.52723e-07
4.04021e-07
1.36195e-07
-3.18611e-07
2.32519e-07
-1.84618e-07
9.01005e-07
2.75325e-07
7.9307e-08
-2.75325e-07
-1.93776e-07
2.74977e-07
-8.12019e-08
-8.36658e-07
-6.81979e-08
1.85878e-07
-3.78446e-07
3.93793e-07
8.66993e-07
-4.53429e-07
-4.8005e-07
3.71922e-07
4.49043e-07
-1.5522e-07
3.25707e-07
-6.65799e-08
-2.47588e-07
3.6355e-07
1.9479e-07
-4.80229e-07
4.80229e-07
-3.59635e-07
-3.45188e-07
-2.82005e-07
3.25707e-07
2.52095e-07
-7.66782e-07
2.80984e-07
-1.59406e-07
-2.77451e-07
2.07983e-07
1.36009e-08
6.35195e-07
-7.2467e-07
-2.16987e-07
2.16987e-07
-4.00466e-08
-2.27952e-07
-5.12588e-08
5.12588e-08
-4.26248e-08
4.26248e-08
-2.47248e-07
3.99412e-08
6.12867e-08
-4.55402e-07
6.43574e-07
-1.88171e-07
4.31637e-07
-4.31637e-07
2.19775e-07
1.38517e-07
2.83199e-07
6.10778e-08
-6.4244e-07
2.09872e-07
1.023e-08
2.082e-07
-4.03708e-07
-6.35199e-07
1.8408e-08
2.19756e-08
-1.55394e-07
-4.20464e-08
-9.61677e-08
1.21449e-07
3.39975e-09
-9.95674e-08
-7.9095e-07
-3.11984e-08
-4.62368e-07
-2.69708e-07
-5.41785e-07
1.44481e-07
-3.99866e-08
7.28914e-08
2.21554e-07
7.87418e-08
-1.46014e-07
-1.25953e-07
1.25953e-07
1.75181e-07
3.23538e-07
-5.08382e-07
-1.40058e-07
-1.10225e-07
1.10225e-07
-7.16491e-07
-6.35962e-09
2.80016e-08
2.40534e-08
4.75598e-08
-7.31508e-07
5.43032e-07
1.88476e-07
-3.32628e-07
1.04951e-07
2.27677e-07
-5.31768e-08
-6.15073e-07
1.91914e-07
-1.63912e-07
-2.07207e-07
-4.68039e-08
4.68039e-08
1.76201e-07
8.52552e-08
-2.03282e-07
-3.60582e-07
-4.04035e-07
-2.42601e-08
1.06307e-07
4.43961e-08
-1.56428e-07
-2.78105e-07
-4.53403e-07
-2.17478e-07
2.29939e-07
1.02459e-09
-4.95298e-09
-1.52988e-07
-8.88603e-08
1.45627e-07
-3.21921e-07
9.06938e-08
-1.8408e-08
7.54442e-07
-1.39924e-07
2.57446e-07
2.56891e-07
4.97551e-07
9.81717e-09
2.47629e-07
5.25887e-07
3.25379e-07
1.00876e-07
1.55722e-07
4.00576e-08
4.19131e-08
-2.82298e-07
2.72481e-07
4.09632e-07
-1.15607e-07
1.41453e-07
-8.08203e-08
-4.49418e-08
2.62943e-07
-1.89004e-07
7.82778e-07
2.73895e-08
-6.36647e-07
-2.24594e-08
1.81741e-07
1.35252e-07
-2.09842e-07
2.91552e-07
1.40356e-07
-2.48553e-07
1.94665e-08
4.03145e-07
-2.58664e-07
3.68026e-07
2.2527e-07
1.52386e-07
-2.39539e-07
-5.47442e-08
-7.44526e-07
1.77359e-08
-3.10526e-07
9.16018e-08
4.85918e-08
1.69681e-07
5.76858e-07
-1.63259e-07
1.11171e-07
-1.83952e-07
2.74646e-07
6.37289e-09
-9.5468e-09
)
;

boundaryField
{
    back
    {
        type            empty;
        value           nonuniform List<scalar> 0();
    }
    front
    {
        type            empty;
        value           nonuniform List<scalar> 0();
    }
    top
    {
        type            calculated;
        value           nonuniform List<scalar> 10(-4.368e-07 -4.752e-07 -3.6e-07 -2.448e-07 -2.448e-07 -3.6e-07 -4.368e-07 -9.12e-08 -9.12e-08 -4.752e-07);
    }
    outer_arc
    {
        type            calculated;
        value           uniform 0;
    }
    bottom
    {
        type            calculated;
        value           nonuniform List<scalar> 10(7.7264e-07 3.88121e-07 9.59668e-09 -1.75486e-07 -3.47176e-07 1.0039e-06 -2.37176e-07 1.07015e-06 -1.03911e-07 8.35345e-07);
    }
    inner_arc
    {
        type            calculated;
        value           uniform 0;
    }
}


// ************************************************************************* //
