/*--------------------------------*- C++ -*----------------------------------*\
  =========                 |
  \\      /  F ield         | OpenFOAM: The Open Source CFD Toolbox
   \\    /   O peration     | Website:  https://openfoam.org
    \\  /    A nd           | Version:  9
     \\/     M anipulation  |
\*---------------------------------------------------------------------------*/
FoamFile
{
    format      ascii;
    class       volScalarField;
    location    "0.41";
    object      p;
}
// * * * * * * * * * * * * * * * * * * * * * * * * * * * * * * * * * * * * * //

dimensions      [0 2 -2 0 0 0 0];

internalField   nonuniform List<scalar> 
942
(
13.4382
13.4441
13.4426
13.447
13.4419
13.4386
13.4423
13.4386
13.4464
13.4467
13.4503
13.4396
13.447
13.4509
13.4392
13.444
13.4474
13.4391
13.4438
13.4471
13.4473
13.4386
13.4279
13.4478
13.4501
13.4488
13.4483
13.4297
13.4508
13.4406
13.4495
13.448
13.45
13.4328
13.4505
13.4196
13.4213
13.4505
13.4204
13.4484
13.4294
13.4265
13.4466
13.4428
13.4404
13.4473
13.4399
13.4324
13.4273
13.4507
13.4445
13.4298
13.4187
13.4418
13.4466
13.4249
13.4409
13.4464
13.4411
13.4354
13.443
13.4495
13.4326
13.434
13.4483
13.4433
13.4494
13.4362
13.4242
13.4432
13.4449
13.4448
13.444
13.4438
13.442
13.4471
13.4471
13.4504
13.4486
13.4438
13.4394
13.4509
13.4494
13.4438
13.4426
13.4447
13.4352
13.4405
13.451
13.4491
13.4273
13.4519
13.4467
13.4261
13.4235
13.4471
13.4254
13.441
13.4393
13.4467
13.443
13.4467
13.4407
13.4428
13.4247
13.4379
13.4474
13.4477
13.4352
13.4371
13.4227
13.4245
13.4361
13.4454
13.4503
13.4516
13.4373
13.4463
13.4465
13.4327
13.4388
13.4219
13.4416
13.4441
13.4442
13.4464
13.4243
13.4474
13.4473
13.4142
13.4418
13.4438
13.4385
13.4304
13.4322
13.445
13.4193
13.4351
13.4219
13.425
13.4278
13.4463
13.4373
13.4432
13.4389
13.4507
13.4434
13.444
13.4206
13.4455
13.4383
13.4338
13.4517
13.4402
13.4511
13.4203
13.4427
13.446
13.4364
13.447
13.442
13.4207
13.448
13.4394
13.4338
13.4517
13.4426
13.4408
13.4474
13.4387
13.4345
13.4268
13.4231
13.4347
13.4434
13.4427
13.4473
13.4432
13.4262
13.4419
13.4403
13.45
13.4205
13.4423
13.442
13.4518
13.4409
13.444
13.445
13.4407
13.4491
13.4403
13.4332
13.4507
13.4446
13.4461
13.4468
13.4368
13.431
13.4394
13.4477
13.446
13.4439
13.4476
13.4388
13.4276
13.4233
13.4447
13.4429
13.4437
13.4458
13.4456
13.4454
13.4489
13.4453
13.4412
13.4442
13.451
13.4478
13.4485
13.4364
13.4404
13.4383
13.4441
13.4443
13.4481
13.4492
13.4312
13.4424
13.4499
13.4522
13.4458
13.4502
13.4428
13.4395
13.4458
13.4511
13.4349
13.4496
13.4491
13.4496
13.4406
13.4334
13.4428
13.4426
13.4465
13.4275
13.4426
13.4308
13.4487
13.4487
13.4282
13.4498
13.4479
13.4414
13.4446
13.4363
13.438
13.4505
13.4431
13.4348
13.4509
13.45
13.4398
13.425
13.4454
13.4426
13.4362
13.4506
13.4279
13.425
13.4458
13.4303
13.448
13.4464
13.4512
13.4465
13.4375
13.4488
13.4226
13.4412
13.4199
13.4227
13.4369
13.4465
13.4369
13.4373
13.4352
13.4397
13.4381
13.4473
13.4311
13.4516
13.4239
13.4385
13.4465
13.4354
13.4366
13.4357
13.4382
13.4419
13.4379
13.4342
13.4318
13.4427
13.4335
13.4295
13.4401
13.4472
13.4521
13.4428
13.4496
13.4385
13.4445
13.4274
13.4517
13.44
13.442
13.4482
13.4393
13.4468
13.4521
13.4405
13.4434
13.4329
13.4507
13.4504
13.4263
13.4289
13.4389
13.4464
13.4253
13.4355
13.4332
13.4374
13.4454
13.4309
13.4452
13.445
13.4181
13.4424
13.4467
13.4289
13.4442
13.4392
13.4461
13.4408
13.429
13.4344
13.4378
13.4452
13.437
13.4279
13.4363
13.4443
13.4376
13.4426
13.427
13.4442
13.4462
13.4358
13.437
13.4398
13.4264
13.4332
13.4402
13.4385
13.4412
13.4312
13.4467
13.4312
13.4437
13.4373
13.4306
13.4445
13.4392
13.4436
13.4406
13.4298
13.4381
13.4455
13.434
13.4279
13.4145
13.4421
13.4376
13.4343
13.4388
13.4422
13.4369
13.4338
13.4185
13.438
13.4412
13.4258
13.4362
13.4376
13.4306
13.4441
13.4167
13.4217
13.4314
13.4407
13.4379
13.4321
13.4457
13.421
13.4437
13.4309
13.4161
13.4458
13.4393
13.436
13.4369
13.4347
13.4311
13.4298
13.4343
13.447
13.4328
13.4369
13.4331
13.4375
13.4343
13.4337
13.4358
13.445
13.4471
13.4393
13.4419
13.4402
13.4385
13.4407
13.4471
13.4219
13.436
13.4396
13.4351
13.4326
13.4403
13.433
13.4376
13.4419
13.4409
13.4337
13.4384
13.4451
13.4468
13.4345
13.4304
13.4446
13.4479
13.4473
13.4319
13.446
13.4464
13.4457
13.4442
13.4313
13.4473
13.439
13.4406
13.451
13.4456
13.4483
13.4464
13.4369
13.4396
13.4401
13.4488
13.4409
13.4432
13.442
13.4366
13.4476
13.451
13.4346
13.4454
13.436
13.4477
13.4309
13.4482
13.4433
13.4482
13.4352
13.447
13.438
13.4432
13.4365
13.4493
13.4495
13.4472
13.4491
13.4444
13.4318
13.4506
13.4477
13.4512
13.4465
13.4337
13.4483
13.4487
13.435
13.4498
13.4461
13.4503
13.4443
13.4443
13.4487
13.4434
13.4367
13.4492
13.4506
13.4488
13.4502
13.4348
13.4509
13.4502
13.4433
13.4487
13.4388
13.4453
13.4422
13.4497
13.4426
13.442
13.4484
13.4499
13.4479
13.4416
13.4443
13.4489
13.4377
13.4492
13.4494
13.45
13.4512
13.4503
13.436
13.4502
13.4299
13.4498
13.4479
13.4384
13.4495
13.4501
13.4499
13.449
13.4499
13.4502
13.4496
13.4502
13.45
13.4494
13.4479
13.45
13.4499
13.4488
13.4474
13.4493
13.4507
13.437
13.4369
13.4502
13.45
13.4504
13.4496
13.4514
13.4506
13.4449
13.4498
13.4464
13.4504
13.45
13.4428
13.448
13.4507
13.4504
13.4509
13.4512
13.4435
13.4402
13.4463
13.4504
13.4394
13.4405
13.4508
13.4397
13.4451
13.4474
13.4242
13.4418
13.4471
13.4387
13.4385
13.4497
13.4387
13.4394
13.4405
13.4443
13.4435
13.45
13.4381
13.4403
13.4471
13.4502
13.4406
13.4444
13.4499
13.4406
13.4478
13.4409
13.441
13.4405
13.4395
13.4429
13.4318
13.4434
13.4305
13.4502
13.4389
13.447
13.4409
13.4455
13.4426
13.4441
13.4375
13.4494
13.4453
13.4411
13.4464
13.4487
13.431
13.4254
13.4414
13.4455
13.4462
13.4433
13.4491
13.4423
13.4428
13.4437
13.4397
13.4344
13.447
13.4386
13.4398
13.4393
13.4433
13.4405
13.4434
13.4483
13.4386
13.4465
13.4384
13.4453
13.4458
13.4476
13.4484
13.4492
13.4467
13.4289
13.4477
13.4488
13.4468
13.4433
13.4324
13.4446
13.424
13.4473
13.4395
13.4486
13.4435
13.4498
13.4429
13.4464
13.4466
13.4493
13.4433
13.4463
13.4296
13.4514
13.4231
13.4516
13.4506
13.4494
13.4473
13.4522
13.4512
13.4499
13.4383
13.4518
13.4403
13.4487
13.4478
13.4522
13.452
13.4405
13.4503
13.4507
13.449
13.4476
13.4522
13.4518
13.4387
13.4405
13.45
13.4328
13.4504
13.4415
13.4468
13.4515
13.4498
13.4496
13.4387
13.4514
13.4465
13.4497
13.4453
13.4518
13.4388
13.447
13.4476
13.4451
13.4381
13.4386
13.439
13.4399
13.4483
13.4322
13.4448
13.4426
13.4479
13.4388
13.4407
13.448
13.4231
13.4419
13.4514
13.4394
13.4458
13.4469
13.4444
13.445
13.423
13.4389
13.4443
13.4511
13.4429
13.4348
13.4441
13.4516
13.4409
13.4416
13.4389
13.4339
13.4346
13.4416
13.4434
13.4487
13.4509
13.4465
13.4497
13.4349
13.4468
13.4402
13.4386
13.45
13.4473
13.4224
13.4413
13.4392
13.4516
13.4455
13.4469
13.4475
13.4506
13.4479
13.4388
13.4512
13.4426
13.4431
13.4453
13.4461
13.4422
13.4386
13.4518
13.4408
13.4254
13.4401
13.4495
13.447
13.447
13.4397
13.4391
13.439
13.4521
13.4397
13.4507
13.4443
13.4465
13.4429
13.4221
13.4412
13.4404
13.4285
13.4301
13.44
13.4467
13.4228
13.4428
13.442
13.4481
13.4474
13.4402
13.4271
13.4231
13.4495
13.4513
13.4465
13.446
13.4474
13.4401
13.4299
13.4505
13.4455
13.4348
13.4494
13.4273
13.4429
13.4416
13.4413
13.4476
13.4313
13.4431
13.4384
13.4432
13.4426
13.4454
13.4392
13.4498
13.4251
13.4382
13.4518
13.4237
13.4472
13.4449
13.4376
13.4497
13.4398
13.4274
13.431
13.4461
13.4441
13.4254
13.4264
13.4339
13.4218
13.443
13.433
13.4487
13.4422
13.4478
13.44
13.4251
13.4392
13.4463
13.4425
13.4485
13.4397
13.4345
13.4429
13.4415
13.4395
13.4383
13.4397
13.4515
13.4237
13.4426
13.4396
13.4398
13.4421
13.4467
13.4229
13.439
13.4434
13.4466
13.4517
13.4396
13.4397
13.451
13.4504
13.4394
13.4315
13.4385
13.423
13.4244
13.4431
13.4413
13.4521
13.4521
13.4291
13.4352
13.4403
13.4474
13.4431
13.452
13.4231
13.4447
13.4459
13.4462
13.4414
13.4426
13.4284
13.4383
13.4429
13.449
13.4232
13.4415
13.4421
13.446
13.4381
13.4486
13.4427
13.4456
13.4426
13.4388
13.452
13.4464
13.4227
13.4482
13.4469
13.4213
13.4387
13.4474
13.428
13.4274
13.422
13.4472
13.4462
13.4454
13.4455
)
;

boundaryField
{
    back
    {
        type            empty;
    }
    front
    {
        type            empty;
    }
    top
    {
        type            zeroGradient;
    }
    outer_arc
    {
        type            zeroGradient;
    }
    bottom
    {
        type            uniformFixedValue;
        uniformValue    
        {
            type            table;
            format          csv;
            file            "outlet_p.csv";
            nHeaderLine     1;
            refColumn       0;
            componentColumns List<label> 1(1);
            separator       ",";
            mergeSeparators 0;
        }
        value           uniform 13.4396;
    }
    inner_arc
    {
        type            zeroGradient;
    }
}


// ************************************************************************* //
