/*--------------------------------*- C++ -*----------------------------------*\
  =========                 |
  \\      /  F ield         | OpenFOAM: The Open Source CFD Toolbox
   \\    /   O peration     | Website:  https://openfoam.org
    \\  /    A nd           | Version:  9
     \\/     M anipulation  |
\*---------------------------------------------------------------------------*/
FoamFile
{
    format      ascii;
    class       volScalarField;
    location    "0.96";
    object      p;
}
// * * * * * * * * * * * * * * * * * * * * * * * * * * * * * * * * * * * * * //

dimensions      [0 2 -2 0 0 0 0];

internalField   nonuniform List<scalar> 
90
(
7.77875e-23
2.62039e-23
-5.87231e-22
-1.66298e-21
-7.34919e-22
1.16811e-21
-6.87693e-24
1.67139e-22
1.93517e-22
1.68364e-22
-1.08677e-22
3.12844e-22
1.58916e-22
-5.20217e-22
4.30993e-22
2.92929e-21
-3.52939e-21
5.77892e-22
6.09924e-22
9.29588e-23
-4.14342e-23
6.27087e-23
-6.31234e-23
-1.71511e-22
-1.35582e-23
-3.87732e-22
2.78128e-22
-1.57052e-22
-6.51427e-22
2.08496e-22
1.21464e-22
-6.58987e-22
-4.83861e-22
-2.92213e-22
-4.17062e-22
3.02133e-21
1.45763e-22
-5.38135e-21
-5.36114e-22
2.28675e-22
3.08472e-22
4.04183e-22
-6.0958e-22
5.0734e-23
1.39425e-23
-7.04295e-22
2.05892e-22
1.33823e-21
6.71728e-22
-8.06677e-22
1.07897e-22
2.084e-22
3.25377e-22
-5.77632e-22
3.02769e-22
9.13403e-22
2.61551e-24
-7.11547e-23
6.77377e-23
-7.90597e-22
2.49572e-22
-7.34207e-22
-1.123e-21
8.23408e-23
5.38867e-22
2.15299e-22
-6.4426e-22
-7.98632e-22
-4.4902e-21
-3.47058e-22
1.64274e-21
1.63797e-22
-4.01029e-22
1.38688e-21
2.78549e-21
2.47707e-22
1.54111e-22
-4.62442e-22
-1.3471e-22
-1.16397e-23
-5.17732e-21
3.90361e-23
-5.55122e-23
2.80288e-21
-8.84927e-23
-1.0753e-21
1.09324e-22
1.50451e-22
1.92794e-21
2.69304e-22
)
;

boundaryField
{
    back
    {
        type            empty;
    }
    front
    {
        type            empty;
    }
    bottom
    {
        type            zeroGradient;
    }
    outer_arc
    {
        type            zeroGradient;
    }
    right
    {
        type            uniformFixedValue;
        uniformValue    
        {
            type            scale;
            scale           
            {
                type            squarePulse;
                start           0.3;
                duration        0.3;
            }
            xScale          
            {
                type            constant;
                value           1;
            }
            value           
            {
                type            constant;
                value           15.1;
            }
        }
        value           uniform 0;
    }
    inner_arc
    {
        type            zeroGradient;
    }
}


// ************************************************************************* //
