/*--------------------------------*- C++ -*----------------------------------*\
  =========                 |
  \\      /  F ield         | OpenFOAM: The Open Source CFD Toolbox
   \\    /   O peration     | Website:  https://openfoam.org
    \\  /    A nd           | Version:  9
     \\/     M anipulation  |
\*---------------------------------------------------------------------------*/
FoamFile
{
    format      ascii;
    class       surfaceScalarField;
    location    "0.96";
    object      phi;
}
// * * * * * * * * * * * * * * * * * * * * * * * * * * * * * * * * * * * * * //

dimensions      [0 3 -1 0 0 0 0];

internalField   nonuniform List<scalar> 
122
(
1.65494e-29
1.95573e-30
2.68131e-30
-2.27183e-28
3.13199e-29
1.43639e-28
2.25385e-28
-2.2733e-28
-2.05108e-28
3.14804e-28
-3.03253e-28
-6.13996e-28
6.19043e-28
-1.01019e-29
3.57157e-29
1.65658e-29
-4.7755e-29
-8.44707e-29
7.40071e-29
1.96016e-30
6.73658e-30
-4.50476e-29
-5.00205e-29
1.0347e-28
1.26644e-28
-2.27839e-28
1.16035e-28
-2.35322e-28
8.60625e-29
-1.06457e-28
3.79161e-28
2.34373e-28
-1.30966e-28
2.02985e-29
5.16534e-29
-9.42688e-30
-9.13689e-30
-6.15561e-29
6.62043e-29
4.80338e-29
-3.21779e-29
6.7071e-29
-4.04608e-29
1.68836e-29
6.36587e-29
-2.66127e-29
-1.79302e-29
3.99091e-29
6.56198e-29
-3.94143e-29
-1.22013e-29
7.8372e-29
-6.3019e-29
5.70539e-28
-2.80359e-28
1.97744e-29
-6.54912e-30
2.80703e-29
-4.41635e-30
1.65511e-29
3.01788e-29
-3.03125e-29
6.43199e-30
8.86884e-29
-1.53524e-28
-1.93965e-28
-8.9819e-30
-9.56079e-30
1.29768e-29
-1.39048e-29
-4.03088e-29
1.8746e-29
-8.78242e-29
-1.88983e-29
9.84316e-30
-1.04172e-29
-9.81518e-30
-5.76398e-30
-6.68961e-29
4.50763e-29
-8.03741e-30
5.11801e-29
1.5704e-28
-5.67732e-29
1.41308e-29
7.86049e-29
-5.2406e-30
-1.14604e-29
-9.2223e-29
9.25586e-29
7.15675e-29
-1.29242e-29
1.33171e-29
1.31919e-28
-1.11931e-28
-3.73042e-30
-5.50383e-30
-1.44168e-29
9.29048e-30
3.87257e-29
6.30589e-29
-6.82943e-29
-4.06322e-29
6.79481e-29
2.279e-29
-1.23854e-28
4.01337e-29
-5.99491e-29
2.67219e-29
7.25503e-29
-3.68765e-28
3.72392e-28
2.23799e-28
-1.57198e-28
-9.34012e-30
-7.95603e-29
-1.00097e-28
1.60797e-29
-5.52918e-30
-9.00794e-30
9.19175e-29
-1.5833e-30
)
;

boundaryField
{
    back
    {
        type            empty;
        value           nonuniform List<scalar> 0();
    }
    front
    {
        type            empty;
        value           nonuniform List<scalar> 0();
    }
    bottom
    {
        type            calculated;
        value           uniform 0;
    }
    outer_arc
    {
        type            calculated;
        value           uniform 0;
    }
    right
    {
        type            calculated;
        value           nonuniform List<scalar> 4(3.91765e-30 9.34718e-30 7.00428e-30 7.40543e-30);
    }
    inner_arc
    {
        type            calculated;
        value           uniform 0;
    }
}


// ************************************************************************* //
