/*--------------------------------*- C++ -*----------------------------------*\
  =========                 |
  \\      /  F ield         | OpenFOAM: The Open Source CFD Toolbox
   \\    /   O peration     | Website:  https://openfoam.org
    \\  /    A nd           | Version:  9
     \\/     M anipulation  |
\*---------------------------------------------------------------------------*/
FoamFile
{
    format      ascii;
    class       volVectorField;
    location    "0.96";
    object      U;
}
// * * * * * * * * * * * * * * * * * * * * * * * * * * * * * * * * * * * * * //

dimensions      [0 1 -1 0 0 0 0];

internalField   nonuniform List<vector> 
90
(
(3.08898e-22 3.91312e-23 -3.00744e-39)
(4.08931e-21 3.38564e-21 6.36361e-38)
(-7.81836e-21 -8.73883e-22 -5.83845e-38)
(-6.39334e-21 7.95009e-21 5.78218e-38)
(8.00902e-21 1.25234e-20 1.49212e-37)
(2.15477e-21 1.90971e-21 -5.05572e-38)
(2.01176e-22 1.37322e-22 3.36554e-39)
(-7.08102e-22 -2.89607e-22 8.354e-39)
(3.67026e-22 -2.5195e-21 0)
(3.88563e-23 5.43928e-23 0)
(-2.36456e-21 5.16128e-22 -1.05975e-38)
(1.80908e-21 -7.719e-21 1.71178e-39)
(-5.93498e-22 -2.02626e-22 1.98514e-39)
(-2.1368e-22 -1.56549e-21 2.92095e-39)
(3.63954e-21 -4.95258e-21 0)
(7.99534e-21 4.80812e-21 0)
(2.7454e-21 1.36478e-20 -2.01018e-37)
(-8.07963e-21 -1.92939e-21 -2.82538e-38)
(-9.77761e-22 3.12432e-21 0)
(-6.85707e-22 -6.42266e-22 -1.67792e-39)
(-1.34636e-21 -7.05e-22 2.69411e-39)
(8.02828e-22 8.0911e-22 8.93806e-39)
(-1.16668e-21 5.39049e-22 -1.38544e-38)
(-1.66728e-21 1.99457e-22 3.1229e-39)
(-1.33145e-21 -2.34051e-22 -3.37358e-39)
(-4.45799e-22 2.14654e-21 1.13589e-38)
(-1.0255e-21 -3.02583e-22 -6.99579e-39)
(2.11265e-21 1.18311e-21 6.41761e-39)
(-1.63611e-20 -2.24588e-21 0)
(-8.53742e-22 4.43601e-22 -9.75949e-39)
(-1.02997e-21 3.28903e-23 5.8761e-39)
(-1.77791e-21 3.26843e-22 -4.02769e-38)
(-1.40159e-21 -5.87661e-22 -1.13456e-38)
(-7.71622e-22 -9.08396e-22 2.27365e-38)
(-8.01812e-22 -6.87822e-22 -7.19025e-39)
(2.21151e-21 -3.19122e-21 -7.16578e-38)
(1.95079e-21 2.76092e-21 0)
(-2.99234e-21 4.3796e-21 0)
(-1.97384e-22 -5.22738e-24 1.20044e-38)
(-1.99498e-23 -2.28133e-22 3.17365e-39)
(7.03694e-22 -2.041e-23 -5.65233e-39)
(-1.06915e-22 -8.5128e-22 -2.95086e-38)
(1.19679e-21 -6.49358e-22 -3.66308e-39)
(3.74824e-22 1.5247e-23 -3.03196e-39)
(3.02422e-22 8.2459e-23 -1.21841e-39)
(1.70679e-21 2.63329e-21 2.64562e-38)
(-7.05691e-22 7.62612e-22 2.25527e-39)
(1.44826e-21 -3.8977e-21 3.31733e-38)
(-2.30563e-21 3.36025e-22 -3.51426e-38)
(1.62588e-21 -5.19494e-21 2.71511e-39)
(-3.35556e-22 -9.78856e-23 0)
(8.36862e-23 2.52931e-22 -9.3927e-39)
(2.96685e-21 -2.48938e-21 -8.26624e-41)
(1.08712e-21 8.41674e-22 0)
(1.49422e-23 3.37626e-22 1.83822e-38)
(4.03477e-21 1.51549e-21 -3.3823e-40)
(2.68307e-22 -1.01947e-24 1.04683e-39)
(-3.24127e-22 1.32084e-21 0)
(4.74998e-22 1.0986e-22 0)
(-1.43319e-21 1.30708e-21 4.49366e-38)
(2.33368e-22 -2.77269e-22 1.90642e-38)
(1.83172e-21 3.09547e-21 0)
(-8.78259e-23 1.03208e-21 5.24809e-38)
(3.69469e-21 -9.36453e-22 -5.03614e-39)
(1.92625e-21 5.47754e-22 3.67138e-38)
(-4.21201e-21 4.45955e-22 7.71441e-39)
(-1.47228e-21 -1.35965e-21 0)
(-1.50007e-21 9.1487e-22 0)
(-1.30982e-20 1.99659e-21 1.91503e-38)
(-1.51811e-20 2.59259e-21 4.03634e-38)
(6.35942e-21 -3.55874e-21 0)
(3.86257e-22 2.13053e-22 7.10389e-39)
(5.15699e-21 -2.83282e-21 0)
(-1.18607e-21 4.0604e-21 1.04933e-37)
(-1.11709e-20 1.64002e-22 -4.07526e-38)
(-5.54291e-22 9.48035e-22 -9.13119e-39)
(2.89489e-22 9.44101e-23 -1.48784e-39)
(2.03076e-21 3.1051e-22 0)
(8.75744e-22 -1.07308e-21 -1.39539e-38)
(5.11368e-22 1.97522e-22 3.4859e-39)
(-8.0042e-21 5.73141e-22 2.15667e-37)
(2.70137e-22 2.67978e-23 1.78544e-40)
(-1.18204e-21 1.88916e-21 -3.47582e-39)
(1.80765e-21 -4.60211e-22 7.43997e-38)
(1.4548e-21 3.81179e-21 3.82835e-39)
(3.21963e-22 -3.95776e-22 -3.09911e-38)
(3.11566e-22 5.16762e-23 4.23113e-39)
(1.98357e-22 1.35931e-22 -7.65628e-40)
(2.90651e-21 3.27472e-21 -1.82171e-37)
(8.84591e-23 3.87632e-23 -6.87961e-39)
)
;

boundaryField
{
    back
    {
        type            empty;
    }
    front
    {
        type            empty;
    }
    bottom
    {
        type            uniformFixedValue;
        uniformValue    
        {
            type            scale;
            scale           
            {
                type            squarePulse;
                start           0.3;
                duration        0.3;
            }
            xScale          
            {
                type            constant;
                value           1;
            }
            value           
            {
                type            constant;
                value           (0 0.7 0);
            }
        }
        value           uniform (0 0 0);
    }
    outer_arc
    {
        type            noSlip;
    }
    right
    {
        type            zeroGradient;
    }
    inner_arc
    {
        type            noSlip;
    }
}


// ************************************************************************* //
