/*--------------------------------*- C++ -*----------------------------------*\
  =========                 |
  \\      /  F ield         | OpenFOAM: The Open Source CFD Toolbox
   \\    /   O peration     | Website:  https://openfoam.org
    \\  /    A nd           | Version:  9
     \\/     M anipulation  |
\*---------------------------------------------------------------------------*/
FoamFile
{
    format      ascii;
    class       volScalarField;
    location    "0.93";
    object      p;
}
// * * * * * * * * * * * * * * * * * * * * * * * * * * * * * * * * * * * * * //

dimensions      [0 2 -2 0 0 0 0];

internalField   nonuniform List<scalar> 
90
(
-6.20453e-23
1.54266e-23
4.79995e-22
1.37e-21
4.71114e-22
-1.02394e-21
1.03899e-23
-1.48594e-22
-2.11676e-22
-1.19809e-22
5.78021e-23
-1.20222e-22
-1.51919e-22
6.37941e-22
-3.48197e-22
-2.64611e-21
2.8923e-21
-5.19075e-22
-5.84598e-22
-5.62404e-23
-5.39266e-23
-5.22378e-23
1.60986e-23
1.44934e-22
-3.22078e-23
2.85275e-22
-2.89295e-22
1.32294e-22
3.87446e-22
-1.88292e-22
-1.29011e-22
4.91292e-22
3.32605e-22
2.05479e-22
3.00582e-22
-2.60851e-21
-1.20006e-22
4.2038e-21
3.5768e-22
-1.46126e-22
-2.33239e-22
-3.05016e-22
5.58288e-22
-3.03243e-23
-6.12228e-24
5.95185e-22
-2.10961e-22
-9.78784e-22
-5.12928e-22
7.68949e-22
-4.94059e-23
-1.42449e-22
-2.14402e-22
4.36832e-22
-2.34144e-22
-6.94237e-22
4.17649e-24
-2.3006e-24
-4.8874e-23
5.92346e-22
-2.06092e-22
6.25596e-22
8.64298e-22
3.07866e-23
-4.17773e-22
-2.19935e-22
5.71776e-22
6.66792e-22
3.53474e-21
1.32354e-22
-1.24794e-21
-1.27534e-22
5.13005e-22
-1.15475e-21
-2.44418e-21
-2.24256e-22
-1.34279e-22
3.90819e-22
6.71419e-23
1.33995e-23
4.15381e-21
-1.60373e-23
-1.30597e-23
-2.26155e-21
8.85649e-23
9.18208e-22
-6.33562e-23
-1.08429e-22
-1.54407e-21
-2.4756e-22
)
;

boundaryField
{
    back
    {
        type            empty;
    }
    front
    {
        type            empty;
    }
    bottom
    {
        type            zeroGradient;
    }
    outer_arc
    {
        type            zeroGradient;
    }
    right
    {
        type            uniformFixedValue;
        uniformValue    
        {
            type            scale;
            scale           
            {
                type            squarePulse;
                start           0.3;
                duration        0.3;
            }
            xScale          
            {
                type            constant;
                value           1;
            }
            value           
            {
                type            constant;
                value           15.1;
            }
        }
        value           uniform 0;
    }
    inner_arc
    {
        type            zeroGradient;
    }
}


// ************************************************************************* //
