/*--------------------------------*- C++ -*----------------------------------*\
  =========                 |
  \\      /  F ield         | OpenFOAM: The Open Source CFD Toolbox
   \\    /   O peration     | Website:  https://openfoam.org
    \\  /    A nd           | Version:  9
     \\/     M anipulation  |
\*---------------------------------------------------------------------------*/
FoamFile
{
    format      ascii;
    class       surfaceScalarField;
    location    "0.93";
    object      phi;
}
// * * * * * * * * * * * * * * * * * * * * * * * * * * * * * * * * * * * * * //

dimensions      [0 3 -1 0 0 0 0];

internalField   nonuniform List<scalar> 
122
(
-1.10796e-29
2.86886e-30
-4.56002e-30
1.71887e-28
-4.21548e-29
-9.3186e-29
-1.41694e-28
1.59877e-28
1.21173e-28
-1.7468e-28
1.96814e-28
4.24406e-28
-4.33634e-28
-1.13294e-30
-1.45321e-29
-6.60845e-30
3.39372e-30
6.56668e-29
-5.67815e-29
-4.88429e-31
-6.28093e-30
2.67439e-29
2.75514e-29
-6.03441e-29
-1.03752e-28
1.80434e-28
-6.4377e-29
1.79572e-28
-7.58287e-29
2.99146e-29
-2.06556e-28
-1.11893e-28
5.11426e-29
-3.0663e-29
-2.93097e-29
2.46544e-30
5.28902e-30
3.39499e-29
-4.47146e-29
-3.20621e-29
1.70341e-29
-4.1446e-29
1.96247e-29
-1.36609e-29
-4.51527e-29
1.93963e-29
1.52907e-29
-2.2143e-29
-3.5788e-29
1.79099e-29
-1.87062e-30
-4.19746e-29
3.61837e-29
-3.45296e-28
1.81688e-28
-9.35504e-30
-4.65438e-30
-1.88442e-29
-4.40508e-30
-7.94953e-30
-1.18559e-29
1.80283e-29
-2.18211e-29
-6.16688e-29
1.02621e-28
1.11481e-28
-5.12097e-30
8.52216e-30
-8.71401e-30
8.23468e-30
2.96597e-29
-4.15537e-30
2.49343e-29
2.17956e-29
-3.92018e-30
6.58328e-30
5.01956e-30
-3.29319e-31
5.91482e-29
-3.71571e-29
8.28265e-31
-3.0941e-29
-1.02457e-28
2.95745e-29
-1.0395e-29
-3.65814e-29
3.9016e-30
1.13223e-29
6.05702e-29
-8.16537e-29
-3.5449e-29
-4.81534e-30
-2.18757e-30
-7.38261e-29
6.5713e-29
3.12931e-31
5.53371e-30
8.53958e-30
-4.85736e-30
-2.30285e-29
-3.02682e-29
4.37668e-29
4.31312e-29
-2.99562e-29
-1.4866e-30
8.14487e-29
-1.93274e-29
4.71781e-29
-2.42203e-29
-4.86913e-29
2.47125e-28
-2.48747e-28
-1.51229e-28
1.20573e-28
1.22531e-29
4.43569e-29
2.53312e-29
-1.18888e-29
5.64417e-30
2.51022e-30
-6.37841e-29
3.01232e-30
)
;

boundaryField
{
    back
    {
        type            empty;
        value           nonuniform List<scalar> 0();
    }
    front
    {
        type            empty;
        value           nonuniform List<scalar> 0();
    }
    bottom
    {
        type            calculated;
        value           uniform 0;
    }
    outer_arc
    {
        type            calculated;
        value           uniform 0;
    }
    right
    {
        type            calculated;
        value           nonuniform List<scalar> 4(-1.17494e-30 1.29929e-30 3.10595e-30 -3.80298e-32);
    }
    inner_arc
    {
        type            calculated;
        value           uniform 0;
    }
}


// ************************************************************************* //
