/*--------------------------------*- C++ -*----------------------------------*\
  =========                 |
  \\      /  F ield         | OpenFOAM: The Open Source CFD Toolbox
   \\    /   O peration     | Website:  https://openfoam.org
    \\  /    A nd           | Version:  9
     \\/     M anipulation  |
\*---------------------------------------------------------------------------*/
FoamFile
{
    format      ascii;
    class       volVectorField;
    location    "0.93";
    object      U;
}
// * * * * * * * * * * * * * * * * * * * * * * * * * * * * * * * * * * * * * //

dimensions      [0 1 -1 0 0 0 0];

internalField   nonuniform List<vector> 
90
(
(-2.51505e-22 2.26176e-23 2.13467e-39)
(-2.63516e-21 -2.9121e-21 -5.40124e-38)
(4.53238e-21 8.79284e-22 4.79933e-38)
(3.96751e-21 -4.48477e-21 -4.75307e-38)
(-5.79955e-21 -8.41968e-21 -1.21777e-37)
(-1.61864e-21 -1.53555e-21 4.29114e-38)
(-1.19706e-22 -9.0783e-23 -2.35084e-39)
(2.17765e-22 8.45995e-23 -9.14186e-39)
(-1.8845e-22 1.96368e-21 0)
(-1.36003e-22 -1.09868e-22 0)
(1.30957e-21 -2.6407e-22 7.5931e-39)
(-5.67441e-22 5.54196e-21 -1.06589e-38)
(2.86661e-22 1.75585e-22 -1.89773e-39)
(4.75895e-22 8.88958e-22 3.22073e-39)
(-1.90627e-21 3.89008e-21 0)
(-5.09494e-21 -2.52564e-21 0)
(-2.38374e-21 -8.07623e-21 1.57638e-37)
(4.03002e-21 1.66004e-21 2.17842e-38)
(4.77083e-22 -2.1379e-21 0)
(3.39195e-22 3.63093e-22 2.10183e-39)
(8.55114e-22 3.901e-22 -6.43007e-39)
(-4.1141e-22 -5.04031e-22 -6.85994e-39)
(6.47009e-22 -2.92222e-22 9.90944e-39)
(9.96771e-22 -1.51272e-22 -3.26816e-39)
(6.9426e-22 -4.17918e-23 5.00931e-39)
(4.25892e-22 -1.23517e-21 -7.30597e-39)
(4.90349e-22 2.44178e-23 9.74896e-39)
(-1.08318e-21 -7.1405e-22 -4.84277e-39)
(9.25634e-21 1.55433e-21 0)
(2.79486e-22 -2.47644e-22 9.39378e-39)
(4.64005e-22 3.08461e-23 -6.09052e-39)
(1.08402e-21 -1.39373e-22 3.03678e-38)
(9.42593e-22 2.62527e-22 8.2251e-39)
(4.2172e-22 4.23075e-22 -1.53784e-38)
(8.6246e-22 2.16804e-22 4.64128e-39)
(-1.12143e-21 3.09564e-21 6.18669e-38)
(-1.39274e-21 -1.71412e-21 0)
(1.45599e-21 -2.27485e-21 0)
(2.6397e-22 -3.41271e-24 -8.12748e-39)
(3.8115e-23 1.74504e-22 -2.24837e-39)
(-3.60464e-22 8.85545e-23 4.21757e-39)
(-3.58038e-23 4.91716e-22 2.28177e-38)
(-1.3457e-22 -8.96739e-23 3.05332e-39)
(-1.85788e-22 4.05193e-23 2.10739e-39)
(-4.69054e-24 -5.83059e-23 5.08526e-40)
(-9.92931e-22 -2.04562e-21 -2.25142e-38)
(3.30387e-22 -4.80377e-22 -4.24776e-39)
(-1.57506e-21 2.24402e-21 -2.55772e-38)
(1.36711e-21 -9.42343e-23 2.70515e-38)
(-7.32697e-22 3.60443e-21 -3.24563e-39)
(1.50113e-22 7.89065e-23 0)
(-1.13821e-22 -2.01922e-22 7.03384e-39)
(-1.51865e-21 1.9525e-21 6.51143e-41)
(-3.76219e-22 -5.39096e-22 0)
(-1.48045e-22 -2.22294e-22 -1.41878e-38)
(-2.2136e-21 -6.32076e-22 2.66545e-40)
(1.49627e-23 3.55988e-23 -3.1853e-40)
(4.38072e-22 -9.55325e-22 0)
(-2.20642e-22 -1.11104e-22 0)
(8.06812e-22 -6.31433e-22 -3.36035e-38)
(-5.47268e-22 1.93001e-22 -1.49575e-38)
(-1.11826e-21 -1.73699e-21 0)
(1.20828e-22 -4.6587e-22 -4.0391e-38)
(-2.12191e-21 3.02856e-22 3.05186e-39)
(-1.17698e-21 -7.22289e-22 -2.75679e-38)
(2.65418e-21 -3.09136e-22 -8.24656e-39)
(1.00233e-21 8.23641e-22 0)
(9.65901e-22 -8.26298e-22 0)
(8.06879e-21 -9.80718e-22 -1.52457e-38)
(9.63381e-21 -2.00473e-21 -3.83589e-38)
(-4.47306e-21 2.43161e-21 0)
(-2.93639e-22 -2.50834e-22 -6.13776e-39)
(-2.765e-21 1.79306e-21 0)
(5.86468e-22 -2.50529e-21 -8.54812e-38)
(6.63994e-21 -2.33756e-22 3.87288e-38)
(1.74817e-22 -6.65693e-22 7.66733e-39)
(-2.43536e-22 -8.64275e-23 1.25857e-39)
(-6.27359e-22 -5.97022e-22 0)
(-2.67451e-22 7.70631e-22 8.84566e-39)
(-2.78389e-22 -1.46875e-22 -2.94874e-39)
(5.2831e-21 -4.93343e-22 -1.73115e-37)
(-7.04494e-24 -1.81451e-23 -1.63013e-40)
(7.72522e-22 -1.40163e-21 6.54664e-39)
(-2.40966e-21 4.57646e-22 -5.98528e-38)
(-7.24015e-22 -2.24943e-21 -3.03055e-39)
(1.50704e-22 -3.95619e-22 2.63734e-38)
(-1.80348e-22 -2.71475e-23 -2.78782e-39)
(-2.83593e-22 -2.13207e-23 3.72807e-40)
(-1.85568e-21 -2.07381e-21 1.47502e-37)
(-2.7712e-22 -1.78315e-22 5.94398e-39)
)
;

boundaryField
{
    back
    {
        type            empty;
    }
    front
    {
        type            empty;
    }
    bottom
    {
        type            uniformFixedValue;
        uniformValue    
        {
            type            scale;
            scale           
            {
                type            squarePulse;
                start           0.3;
                duration        0.3;
            }
            xScale          
            {
                type            constant;
                value           1;
            }
            value           
            {
                type            constant;
                value           (0 0.7 0);
            }
        }
        value           uniform (0 0 0);
    }
    outer_arc
    {
        type            noSlip;
    }
    right
    {
        type            zeroGradient;
    }
    inner_arc
    {
        type            noSlip;
    }
}


// ************************************************************************* //
