/*--------------------------------*- C++ -*----------------------------------*\
  =========                 |
  \\      /  F ield         | OpenFOAM: The Open Source CFD Toolbox
   \\    /   O peration     | Website:  https://openfoam.org
    \\  /    A nd           | Version:  9
     \\/     M anipulation  |
\*---------------------------------------------------------------------------*/
FoamFile
{
    format      ascii;
    class       volScalarField;
    location    "0.85";
    object      p;
}
// * * * * * * * * * * * * * * * * * * * * * * * * * * * * * * * * * * * * * //

dimensions      [0 2 -2 0 0 0 0];

internalField   nonuniform List<scalar> 
464
(
7.86164e-19
-1.67281e-18
-1.00625e-19
-1.07532e-19
-1.92664e-18
-9.99002e-20
3.2522e-19
-1.08855e-19
-2.92358e-19
-2.28555e-19
8.08742e-19
1.84197e-18
2.4468e-19
1.88747e-18
3.34025e-19
2.20078e-19
-3.06796e-19
-2.97821e-19
-1.10493e-19
-1.23923e-19
-1.18348e-19
-1.00394e-19
-1.05869e-19
-1.04678e-19
-1.06228e-19
-1.042e-19
1.12717e-18
-1.11747e-19
9.86334e-19
-1.03773e-19
-1.0355e-19
-1.13657e-19
-8.95178e-20
-2.3116e-19
-2.34449e-19
-2.64286e-19
-2.53544e-19
-1.09778e-19
-1.12455e-19
1.66364e-20
-1.33253e-19
-1.05695e-19
-1.04565e-19
1.59545e-18
1.369e-18
5.89325e-20
-1.13363e-19
-1.18512e-19
-1.1349e-19
-1.11595e-19
-1.35873e-19
-1.14553e-19
-1.66404e-19
-1.08914e-19
-1.05514e-19
-1.15757e-19
-1.14142e-19
-6.9905e-20
-5.64762e-20
-1.72694e-19
-1.11358e-19
-1.10937e-18
-8.39335e-20
-1.00871e-19
-7.21045e-19
-1.08783e-19
3.23899e-20
-1.15965e-19
1.10451e-18
-9.99735e-20
-2.71018e-20
-9.42101e-19
6.98206e-19
-1.18009e-19
-3.08082e-19
-1.1319e-19
-1.04201e-20
3.38213e-19
-9.57906e-20
6.4173e-19
-1.65992e-18
-1.01548e-19
-2.65847e-18
-1.02528e-19
-1.65923e-18
-5.01334e-20
-7.80439e-19
-1.00729e-19
-1.09071e-19
-2.71975e-19
-1.47935e-18
-1.20698e-18
-1.4989e-21
1.67065e-18
2.90341e-20
-3.11558e-20
-8.70704e-20
-1.01202e-19
-9.85232e-19
-2.43592e-19
-1.07775e-19
-1.1783e-19
-1.07282e-19
-1.64812e-19
-2.43798e-19
-2.6395e-18
-1.01792e-19
5.61014e-22
-1.46027e-18
-1.11325e-19
-2.41399e-20
-1.15944e-19
4.30199e-20
-7.66735e-19
-1.10313e-19
-1.08933e-19
-2.19406e-18
-1.01844e-19
-1.2379e-18
-1.00915e-19
-1.15096e-19
2.05469e-19
-6.27458e-19
7.40429e-19
-3.26421e-20
-9.09768e-20
-2.44928e-19
2.20716e-20
-2.52236e-19
-2.37026e-18
-1.01875e-19
2.10519e-18
-1.10697e-19
-1.07359e-19
-9.89404e-20
-1.81683e-18
-1.00389e-19
-1.11447e-19
-2.72386e-19
-9.13283e-20
-9.42475e-20
-3.16627e-20
-1.18581e-21
-1.09891e-19
-9.89737e-20
-4.51143e-19
-1.10301e-19
-1.01678e-19
-9.98895e-20
-8.97351e-20
-1.08773e-19
-1.06791e-19
1.13119e-19
-1.22646e-19
-1.57681e-18
-9.10487e-20
-3.75722e-19
-1.11816e-19
-1.95865e-19
-1.23018e-18
-1.3526e-19
-1.08133e-19
-2.01093e-19
-9.6369e-20
-1.00668e-19
-9.67437e-20
-2.50726e-20
-1.12635e-19
-1.4088e-19
-1.03384e-20
1.15525e-19
-9.35297e-19
-4.88936e-19
-1.00305e-19
-1.2056e-19
7.12264e-20
-1.12964e-19
-1.10424e-19
3.62615e-19
-2.99208e-19
-1.14207e-19
1.06376e-19
-4.54459e-19
-4.65572e-19
-3.31071e-19
-4.62041e-19
2.30942e-19
2.32994e-19
-3.02673e-19
2.3607e-19
-1.12528e-19
2.64406e-19
-1.26801e-19
-1.16585e-19
-5.74183e-20
-4.29665e-20
-1.19347e-19
-1.10718e-19
-3.7451e-19
-9.9008e-20
-1.06543e-19
-5.81749e-20
-1.18062e-19
-7.58553e-20
2.34703e-19
-1.2786e-19
-1.05504e-19
-7.39207e-20
-5.25539e-20
-7.14331e-19
-9.34056e-20
1.85009e-19
-1.18516e-19
-2.46329e-19
-1.13934e-19
1.61314e-19
-2.30375e-19
-1.22022e-19
1.03022e-18
-2.53465e-20
-4.28675e-19
-9.40202e-20
-8.76134e-20
-1.05921e-19
-1.12726e-19
-1.10389e-19
-1.11671e-19
-1.27759e-19
-1.14951e-19
-1.08489e-19
-1.20312e-19
-1.45308e-19
-1.34443e-19
-8.95867e-20
-1.57842e-19
-1.04336e-19
-1.83465e-19
-1.43359e-19
-1.26409e-19
-2.0786e-19
-9.63671e-20
-1.47345e-19
-1.66755e-19
-1.34273e-19
-8.87292e-20
-2.50091e-19
-1.41713e-19
-1.34028e-19
-2.03447e-19
-1.23497e-19
-1.34826e-19
-2.2612e-19
-8.30656e-20
-1.86152e-19
-8.15206e-20
-1.39589e-19
-1.10635e-19
-1.38619e-19
-8.0785e-20
-9.57144e-20
-1.58506e-19
-1.0509e-19
-7.36631e-20
2.81098e-20
-1.30545e-19
2.17383e-20
-8.22596e-20
-1.11346e-19
2.42251e-19
-2.15972e-20
-1.01235e-19
-1.26203e-19
-9.51629e-20
8.86176e-20
2.52049e-19
-8.45234e-20
-7.39862e-20
-1.89759e-20
3.93102e-20
-5.81297e-19
-1.53578e-19
-1.11664e-19
7.06856e-21
-1.17579e-19
2.66786e-19
-2.52476e-19
8.20818e-20
-5.14169e-19
-1.12342e-19
-1.89167e-19
-3.80574e-19
-2.21121e-19
-1.13044e-19
-1.12917e-19
-1.91466e-20
2.77673e-20
1.62052e-19
8.82749e-20
1.03181e-19
-6.41044e-19
1.77528e-19
5.03269e-20
5.79664e-19
1.83018e-18
-2.04737e-19
-1.60202e-20
-3.82635e-20
-2.0396e-19
-1.11859e-18
-3.03815e-20
-9.39018e-20
-1.1024e-19
-8.02177e-20
1.14024e-19
-7.92311e-20
-1.53051e-19
1.1357e-19
-7.01406e-19
-1.0969e-19
1.73651e-19
-1.00904e-19
8.34823e-20
-9.00608e-19
1.10648e-19
-1.7015e-19
-1.27436e-19
-1.22244e-19
4.95076e-19
-1.1248e-19
-4.74566e-19
-1.11486e-19
-5.48908e-19
-1.04756e-19
-8.82733e-20
-8.22367e-20
-1.10477e-19
-1.03962e-19
-1.08149e-19
-1.07968e-19
-1.07412e-19
-1.11405e-19
1.18001e-18
-3.15094e-19
-4.70513e-19
-1.28169e-19
-1.1089e-19
-1.24097e-19
5.8948e-21
-1.0576e-19
-7.76498e-20
-1.14234e-19
-1.10756e-19
7.27923e-20
4.46331e-20
-1.14011e-19
-1.09023e-18
-1.00684e-19
-2.45062e-18
-1.00894e-19
-1.58899e-18
-1.00644e-19
1.3424e-19
-1.00643e-19
-1.66754e-18
1.02946e-18
-1.10363e-19
-1.09827e-19
-3.35934e-19
2.48206e-18
-1.00706e-19
-1.12819e-19
2.05576e-18
4.3498e-19
-3.08149e-19
1.42602e-18
-1.06809e-19
8.87184e-19
-1.01357e-19
7.84912e-19
-1.01223e-19
-7.47275e-20
-2.19115e-19
-2.89294e-19
-1.19162e-19
-1.79035e-19
-8.50871e-20
-1.84995e-19
-1.02357e-19
-4.53787e-19
-2.90681e-19
-1.77792e-19
-2.10074e-19
-2.19574e-19
-1.65272e-19
-1.27723e-19
-1.07691e-19
-1.12012e-19
-1.04722e-19
-1.07963e-19
7.09697e-19
-9.12527e-19
-1.00738e-19
1.65433e-18
-1.12119e-19
1.10066e-19
7.35245e-19
2.11467e-18
-1.11247e-19
1.10337e-18
-1.11582e-19
-4.60246e-19
-1.11022e-19
-1.04176e-19
-1.06668e-19
-1.04658e-19
-7.90115e-19
2.91531e-18
-1.11593e-19
-1.01303e-19
-1.12975e-18
-1.10639e-19
-1.023e-19
9.18965e-19
1.80993e-18
9.96894e-19
4.93582e-19
5.73358e-19
2.52576e-19
7.20222e-20
-2.71594e-18
-1.0176e-19
-1.03778e-19
-3.13739e-19
-1.01906e-19
-1.60774e-19
-4.04137e-19
-3.71104e-19
-1.04922e-19
-3.39937e-19
-9.99977e-20
-1.84551e-19
-1.94644e-19
-1.19221e-19
-1.20092e-19
-1.08892e-19
-1.14307e-19
-1.07585e-19
-9.95333e-20
-1.08986e-19
-1.43174e-19
-9.87491e-20
2.53857e-19
5.57162e-20
-1.04117e-19
-1.57909e-19
-2.97823e-19
-2.29064e-19
-1.10679e-19
-1.11422e-19
-1.11691e-19
-1.12128e-19
2.7694e-18
1.81016e-18
-1.02922e-19
)
;

boundaryField
{
    back
    {
        type            empty;
    }
    front
    {
        type            empty;
    }
    left
    {
        type            zeroGradient;
    }
    top
    {
        type            zeroGradient;
    }
    right
    {
        type            zeroGradient;
    }
    bottom
    {
        type            uniformFixedValue;
        uniformValue    
        {
            type            scale;
            scale           
            {
                type            squarePulse;
                start           0.3;
                duration        0.3;
            }
            xScale          
            {
                type            constant;
                value           1;
            }
            value           
            {
                type            constant;
                value           15.1;
            }
        }
        value           uniform 0;
    }
}


// ************************************************************************* //
