/*--------------------------------*- C++ -*----------------------------------*\
  =========                 |
  \\      /  F ield         | OpenFOAM: The Open Source CFD Toolbox
   \\    /   O peration     | Website:  https://openfoam.org
    \\  /    A nd           | Version:  9
     \\/     M anipulation  |
\*---------------------------------------------------------------------------*/
FoamFile
{
    format      ascii;
    class       surfaceScalarField;
    location    "0.85";
    object      phi;
}
// * * * * * * * * * * * * * * * * * * * * * * * * * * * * * * * * * * * * * //

dimensions      [0 3 -1 0 0 0 0];

internalField   nonuniform List<scalar> 
663
(
-1.75998e-24
2.12468e-24
-3.64704e-25
4.3118e-25
2.22952e-24
-7.71408e-28
7.71414e-28
5.92933e-27
-3.16436e-27
-2.7649e-27
-9.78799e-25
1.41002e-24
-7.94552e-29
-6.86188e-28
-2.26148e-24
5.01549e-25
2.34757e-27
3.57174e-27
-2.66961e-24
1.12534e-24
1.54427e-24
-3.33864e-25
-2.33574e-24
-3.99091e-25
2.52395e-24
1.18456e-24
-3.97644e-25
-7.86914e-25
-1.13617e-24
1.03225e-24
1.52292e-25
5.00619e-25
-5.50996e-25
5.03784e-26
5.34898e-25
-3.42222e-26
-3.04975e-27
-7.21166e-26
7.51663e-26
1.16888e-26
-1.47488e-26
6.92017e-28
-6.91888e-28
-6.12124e-27
2.83952e-26
-2.22741e-26
2.06823e-26
-2.67809e-26
-8.17612e-27
7.78443e-27
3.9144e-28
3.88635e-27
-1.20503e-26
-6.23117e-27
4.96749e-27
1.26371e-27
8.44716e-28
-4.02667e-27
-3.39728e-27
-2.84017e-27
2.23968e-26
-1.75818e-25
1.5342e-25
5.19797e-27
-2.49767e-27
-2.70009e-27
4.83681e-25
-4.61345e-25
4.0814e-27
-4.86913e-27
7.87747e-28
-1.96576e-28
4.30083e-27
-5.5957e-25
4.85447e-25
7.41231e-26
2.08388e-26
-5.80494e-25
4.7657e-25
-4.00322e-25
-7.62463e-26
2.56259e-25
2.20294e-25
2.3166e-26
-1.14828e-26
-1.73095e-26
4.04765e-26
-1.12103e-27
1.77084e-27
9.25495e-28
4.23063e-27
-5.00343e-25
2.61049e-26
4.74235e-25
2.93066e-26
-8.88969e-28
-2.1142e-26
1.24211e-26
8.72082e-27
-1.72295e-26
-3.58817e-25
1.83047e-25
-7.56431e-25
3.44498e-26
-5.85164e-27
-3.29197e-27
9.14359e-27
4.00412e-27
-6.99264e-28
-3.30485e-27
-2.65352e-27
2.65367e-27
-3.67601e-27
-2.09183e-27
3.14064e-26
5.26853e-27
-1.48662e-28
-5.11979e-27
3.39501e-26
-4.15462e-27
-2.97948e-26
-2.5694e-26
2.54809e-26
2.13123e-28
-3.42616e-26
8.56042e-27
3.06725e-27
2.18925e-27
-2.76153e-27
4.03479e-26
-5.30106e-27
-3.50468e-26
4.94364e-27
3.53949e-26
3.07655e-26
3.18161e-27
-1.74269e-27
5.17149e-26
8.62653e-25
-9.14366e-25
4.51469e-26
1.14886e-25
-1.60033e-25
-1.85563e-26
8.7322e-27
9.82417e-27
-1.75245e-24
1.41861e-24
3.15175e-26
-6.0378e-27
-1.5476e-25
4.20802e-26
1.1268e-25
2.47794e-27
-1.1861e-24
-1.5239e-26
-1.90269e-26
-3.02041e-26
3.51416e-26
-1.70068e-24
5.28833e-25
-4.5211e-26
7.75608e-27
-3.74267e-27
-7.22174e-26
6.47258e-25
-5.75041e-25
-9.08677e-28
-1.61213e-25
6.45494e-27
-2.14335e-24
1.77857e-24
2.12797e-26
-2.65971e-26
-2.21561e-26
5.1516e-25
1.15234e-24
-1.66749e-24
-2.91543e-27
2.7641e-27
1.51356e-28
3.39267e-25
-4.34182e-25
9.49203e-26
9.73476e-28
5.84229e-28
-1.55776e-27
8.54499e-25
9.4637e-26
-4.94805e-26
1.29686e-24
-4.34277e-25
-1.91908e-27
-5.47687e-27
4.07129e-27
1.40564e-27
-6.82104e-25
6.09869e-25
-5.98677e-26
-5.48343e-25
4.12623e-25
-1.23734e-25
-2.8889e-25
-5.99712e-25
-1.01958e-24
1.61928e-24
2.27075e-25
1.85549e-25
-4.63329e-26
2.74534e-27
-7.7641e-28
3.55178e-27
4.53834e-26
2.58569e-25
-3.03951e-25
8.98832e-25
-2.035e-24
-3.3044e-27
-2.19398e-27
1.24042e-26
-1.30905e-26
5.4843e-28
-3.85735e-27
9.77697e-26
3.87615e-25
-3.02529e-25
-4.34171e-25
5.9553e-28
2.78341e-25
-2.36269e-25
-2.28579e-25
1.68716e-25
4.63707e-28
-2.46664e-26
2.42028e-26
3.55697e-25
1.9356e-25
-5.49257e-25
4.48813e-27
1.54608e-25
-5.54145e-25
5.99531e-25
9.44834e-28
3.10921e-27
-5.83199e-28
1.13567e-27
-9.49169e-26
-1.33617e-25
6.37843e-28
1.5303e-27
-2.1682e-27
2.58541e-25
4.93369e-27
-4.27953e-27
1.28544e-26
-7.0457e-25
1.60342e-24
6.80478e-25
6.16414e-25
-1.01363e-24
1.5153e-24
6.44188e-26
6.53418e-25
-2.9773e-25
1.27651e-24
-5.96009e-25
-3.3012e-25
5.23674e-25
-3.42622e-26
2.90514e-25
9.79229e-26
-9.79308e-26
-2.64082e-27
2.06047e-27
1.30694e-27
-4.1145e-27
2.80733e-27
-1.33677e-25
-2.15303e-27
2.32466e-27
-5.06136e-27
2.18579e-27
-2.18596e-27
2.1002e-27
-7.79747e-28
-3.22207e-25
3.1246e-26
3.88569e-27
2.07799e-27
-2.11736e-27
-3.57221e-29
1.24802e-26
6.34765e-25
3.79146e-27
-6.42266e-27
3.02349e-27
2.71164e-26
-1.83794e-26
6.70384e-27
-4.50195e-27
-7.0775e-27
1.08767e-26
-1.61895e-27
3.68565e-27
-9.65484e-26
5.22896e-25
-4.26347e-25
4.93536e-25
1.59872e-25
1.24867e-25
7.60533e-28
-2.92325e-27
-2.07953e-26
-5.13258e-26
9.15663e-27
-1.62299e-26
5.71962e-25
5.89361e-25
-4.20628e-25
1.26533e-25
-2.27744e-25
1.01212e-25
-1.12521e-26
2.04096e-26
4.74081e-26
-6.22449e-25
6.72569e-27
-6.26517e-27
1.29907e-26
3.78359e-26
8.87159e-26
1.34202e-26
-1.96681e-26
-4.59072e-26
5.4095e-25
-4.95041e-25
-2.44074e-25
2.44073e-25
-1.82875e-25
-6.11693e-26
1.55183e-25
-2.91398e-25
3.03866e-25
3.69595e-27
2.91358e-25
6.23626e-26
-3.92504e-25
1.45727e-26
-2.58292e-26
2.85061e-26
-1.39451e-26
-5.86187e-25
4.89701e-25
-4.50864e-26
-2.14503e-25
2.5959e-25
4.69876e-27
2.37967e-26
4.07995e-26
1.05973e-25
-1.46773e-25
1.09715e-25
-1.09714e-25
6.46342e-26
1.62157e-25
-2.0815e-25
-1.62128e-25
5.23767e-26
6.68869e-26
-2.60867e-26
6.68905e-26
-1.20511e-25
1.82874e-25
8.1967e-27
1.6109e-26
-2.43057e-26
1.20537e-25
-5.36474e-26
-2.34419e-27
2.34422e-27
-4.89484e-27
8.53213e-27
2.68503e-26
3.49622e-26
-2.64354e-26
3.4136e-26
1.85712e-26
-3.38074e-26
-5.72005e-27
3.66186e-26
-1.64316e-27
-1.29386e-26
7.21852e-27
2.887e-26
7.77439e-27
-7.23285e-27
-1.29211e-26
-1.7811e-26
1.78109e-26
-1.94222e-26
-2.60737e-26
2.47802e-27
1.29205e-26
-1.29201e-26
1.30226e-26
-2.08133e-25
-2.38483e-25
2.3848e-25
-1.94222e-26
6.46354e-26
4.9201e-27
2.73212e-26
1.75574e-26
-1.18633e-26
2.94207e-26
1.54624e-26
5.61166e-27
1.59118e-26
-2.15236e-26
-4.82237e-27
2.02848e-26
5.00225e-27
1.06205e-26
3.03869e-26
-1.44634e-26
4.99549e-26
-1.95664e-26
-8.45507e-26
2.01417e-26
-3.45848e-26
-1.5984e-26
7.67527e-26
-1.0946e-25
3.2707e-26
-3.74649e-26
1.14231e-25
3.39785e-26
-9.41642e-26
-1.52798e-26
-5.05722e-26
1.94991e-25
-1.62263e-25
-5.70028e-26
6.36661e-26
-9.63653e-26
-1.89864e-26
9.8621e-26
2.24804e-27
3.18879e-26
2.31837e-26
-1.85439e-25
1.52833e-26
2.8265e-25
-2.59489e-25
-2.04443e-25
-3.26342e-25
3.64468e-26
2.89895e-25
-1.88629e-25
-1.47548e-25
2.46169e-25
1.35072e-25
-6.57525e-27
-9.65893e-27
1.52833e-26
-1.91273e-25
3.84542e-25
-4.79145e-25
9.46025e-26
1.5464e-25
-3.45913e-25
-3.86147e-25
-6.21554e-26
4.48303e-25
-2.28703e-25
3.83323e-25
-4.43366e-25
5.70181e-25
-1.26816e-25
1.55849e-25
-4.05552e-25
-2.30308e-25
5.4158e-27
6.72803e-25
-6.22456e-25
2.08318e-25
3.61857e-25
7.84117e-28
1.14118e-25
-3.44425e-25
-1.77587e-26
1.06456e-25
5.45975e-25
5.89812e-25
-1.90476e-25
3.04555e-25
4.79265e-27
1.46418e-26
-1.46421e-26
8.06045e-26
3.72906e-25
-2.66446e-25
-1.75403e-27
3.83198e-27
-1.53834e-27
-1.17407e-25
-5.05039e-25
3.97703e-25
-2.47716e-26
-1.42601e-26
-3.65257e-28
1.81541e-25
-7.77511e-25
-4.50722e-27
1.6993e-25
5.17104e-25
-3.47173e-25
6.98643e-25
2.58014e-27
1.81454e-26
-1.99825e-25
-1.03455e-26
4.03546e-28
-2.64776e-26
-2.06961e-25
2.60582e-25
-6.22356e-25
-3.25141e-25
-9.4907e-25
4.27198e-25
5.21872e-25
4.32587e-25
-2.8966e-26
1.16706e-26
1.01156e-27
-3.84366e-25
1.79003e-27
-2.95732e-25
4.62487e-25
-3.7391e-26
9.45441e-25
-3.73479e-25
1.5057e-25
-4.55127e-25
-3.03789e-25
-3.18567e-25
-1.28874e-27
3.62319e-27
3.59266e-25
-5.51119e-27
6.60694e-28
-3.40744e-26
-9.3976e-28
9.39728e-28
-6.6574e-25
2.16245e-27
-2.89219e-26
2.49596e-24
-1.60621e-24
1.58216e-27
-1.58215e-27
-2.96e-26
-7.69099e-27
-5.10329e-27
-2.4128e-27
2.4128e-27
1.4602e-26
-1.08744e-27
1.0874e-27
5.13182e-25
-2.80954e-24
5.85134e-25
-4.93589e-27
-1.37588e-28
7.08819e-26
-1.73425e-26
-6.05361e-26
6.91642e-25
-7.57373e-29
6.91645e-25
-7.57012e-29
6.87658e-26
2.16077e-24
9.08934e-28
-1.28442e-28
-5.99071e-25
-5.19795e-28
-2.57484e-25
1.50428e-24
-3.14666e-29
-6.9847e-28
-1.39114e-25
1.0483e-25
2.50294e-25
-3.46289e-27
4.05921e-28
6.7288e-28
8.51081e-26
-5.50256e-25
-1.20427e-25
9.96108e-26
-8.51032e-26
-3.29179e-25
9.52165e-27
2.16314e-25
3.48845e-27
-1.82037e-25
2.38365e-25
-2.90763e-25
-9.15362e-26
3.09906e-26
4.35976e-25
3.14914e-25
-4.16157e-27
1.33135e-26
1.42869e-27
3.18106e-26
2.51924e-26
-1.11297e-26
1.11296e-26
-2.23731e-26
-1.25244e-26
-5.10412e-27
-6.70947e-27
-5.0448e-27
6.0576e-26
2.32949e-24
9.12943e-28
2.01746e-24
3.90371e-28
1.89695e-24
-1.03094e-24
6.82832e-25
-6.82837e-25
-4.76531e-29
-9.99391e-25
-4.76554e-29
-1.61242e-24
-7.23283e-25
2.38495e-27
-2.53457e-27
2.76141e-27
-3.43133e-27
6.69912e-28
-3.50977e-27
-3.44401e-28
2.50287e-25
-1.30512e-27
1.06172e-27
-6.19964e-25
2.16312e-25
1.82036e-25
-1.13818e-27
1.33143e-26
-1.4294e-27
-2.07487e-27
-2.4322e-26
4.16856e-27
-7.87589e-27
-3.17159e-27
-3.91297e-28
-3.2622e-28
1.7139e-27
)
;

boundaryField
{
    back
    {
        type            empty;
        value           nonuniform List<scalar> 0();
    }
    front
    {
        type            empty;
        value           nonuniform List<scalar> 0();
    }
    left
    {
        type            calculated;
        value           uniform 0;
    }
    top
    {
        type            calculated;
        value           uniform 0;
    }
    right
    {
        type            calculated;
        value           uniform 0;
    }
    bottom
    {
        type            calculated;
        value           nonuniform List<scalar> 8(-2.66071e-24 -8.89749e-25 2.29637e-24 -1.67048e-24 -2.26074e-24 1.68219e-24 2.63743e-24 8.66009e-25);
    }
}


// ************************************************************************* //
