/*--------------------------------*- C++ -*----------------------------------*\
  =========                 |
  \\      /  F ield         | OpenFOAM: The Open Source CFD Toolbox
   \\    /   O peration     | Website:  https://openfoam.org
    \\  /    A nd           | Version:  9
     \\/     M anipulation  |
\*---------------------------------------------------------------------------*/
FoamFile
{
    format      ascii;
    class       volVectorField;
    location    "0.85";
    object      U;
}
// * * * * * * * * * * * * * * * * * * * * * * * * * * * * * * * * * * * * * //

dimensions      [0 1 -1 0 0 0 0];

internalField   nonuniform List<vector> 
464
(
(-5.4304e-17 -2.81707e-17 -3.30516e-36)
(-3.51054e-17 6.86178e-17 0)
(1.25623e-20 7.4783e-21 0)
(1.42524e-19 -2.75718e-21 6.42708e-36)
(-2.52167e-17 5.39446e-17 0)
(1.13242e-20 1.11741e-20 -1.50996e-36)
(-5.18341e-17 -1.52117e-17 3.30413e-35)
(1.35349e-19 -2.55886e-20 0)
(-6.37534e-17 2.32154e-18 -2.10148e-36)
(-6.03701e-17 1.82235e-17 -2.73362e-35)
(-4.31638e-17 -3.66712e-17 2.72123e-36)
(-1.83043e-17 -1.83129e-17 -2.77944e-36)
(-5.64131e-17 -4.60849e-18 -8.06455e-37)
(-1.29775e-17 -2.12615e-17 0)
(-2.83562e-19 1.82357e-17 3.58437e-36)
(3.97337e-19 1.57399e-17 -1.59172e-35)
(1.29561e-18 1.53601e-18 0)
(6.57559e-19 6.34565e-19 -6.99564e-36)
(9.01511e-21 -1.3925e-20 -5.06194e-36)
(-4.68028e-19 -7.77278e-19 6.98615e-36)
(-4.48684e-19 -7.45744e-19 -1.01105e-35)
(-1.94008e-19 3.2393e-20 1.40445e-36)
(-3.13459e-19 -3.85788e-20 -8.08952e-37)
(1.38581e-19 4.65074e-20 0)
(1.17645e-19 4.30508e-21 -6.60096e-36)
(1.23216e-19 7.52604e-20 2.93374e-36)
(-4.33979e-18 8.35291e-18 -3.45523e-35)
(5.96639e-20 -1.10167e-19 -6.75825e-36)
(-6.1172e-18 1.16411e-17 0)
(1.21511e-20 1.51551e-19 0)
(3.70115e-20 1.37879e-19 3.65633e-37)
(5.86968e-18 1.56589e-17 6.27254e-38)
(4.47108e-18 1.74917e-17 -1.0705e-37)
(5.31754e-18 1.02078e-17 -1.2932e-35)
(6.41937e-18 8.61125e-18 1.30333e-35)
(4.66363e-19 -4.23108e-20 1.62203e-35)
(6.5545e-19 -2.28613e-19 -1.46858e-35)
(2.02486e-20 -4.40348e-20 -7.99083e-37)
(3.31061e-20 -1.21807e-19 8.23797e-39)
(1.46423e-18 1.46367e-17 0)
(-3.22613e-19 -8.86588e-19 1.16944e-35)
(-3.6498e-19 -2.48914e-19 0)
(-4.15498e-19 -1.60735e-19 -2.21055e-36)
(-7.0847e-18 1.24463e-18 -8.40964e-35)
(-1.39073e-17 -5.21598e-18 8.58212e-35)
(1.51762e-18 1.73795e-17 2.24578e-37)
(-1.97857e-19 -5.81337e-20 6.68078e-36)
(-1.37583e-19 6.42247e-20 -5.28266e-39)
(4.44262e-21 -5.2792e-20 0)
(4.54429e-20 -7.41861e-20 7.73661e-37)
(-2.11095e-19 -1.01391e-18 -8.0268e-36)
(-5.3903e-21 -1.35893e-19 -4.25857e-37)
(-4.91042e-20 -9.24944e-19 -6.40697e-36)
(-7.06906e-19 3.88866e-19 -6.17209e-36)
(-5.84916e-19 5.86003e-19 -2.00014e-37)
(-4.99394e-20 -1.23741e-19 6.89686e-36)
(-9.08667e-20 -1.12117e-19 0)
(1.12271e-18 3.23809e-19 0)
(8.33014e-19 5.60249e-19 -2.49272e-36)
(3.61747e-20 -1.00036e-18 0)
(1.58891e-20 -8.03041e-20 6.51593e-36)
(-2.88312e-17 1.28578e-17 1.19482e-34)
(3.79774e-18 -5.33642e-19 7.42896e-36)
(-2.56818e-19 3.9085e-19 -5.95045e-36)
(-4.97052e-17 1.65738e-17 -1.15238e-36)
(-7.57482e-19 2.11978e-19 -6.52522e-36)
(3.53722e-18 -3.01724e-18 9.79608e-37)
(1.5361e-21 -9.59238e-20 -6.54477e-36)
(-3.15206e-17 -2.55534e-17 -3.0565e-35)
(-4.58663e-19 7.74021e-19 5.77109e-36)
(1.12672e-18 2.89981e-19 2.48755e-36)
(-3.97492e-17 2.21621e-17 -6.34702e-35)
(-3.97426e-18 1.57603e-17 0)
(-1.48693e-19 -1.27967e-20 7.09582e-36)
(1.59179e-18 -1.89255e-17 -1.51692e-35)
(2.27647e-20 -1.45312e-19 6.71293e-36)
(3.48479e-18 -1.83019e-18 -1.36264e-37)
(-6.17113e-17 -2.73707e-17 -3.27498e-35)
(6.0599e-19 3.27887e-19 -5.42896e-36)
(-1.47197e-18 1.54916e-17 1.38948e-35)
(-2.45128e-17 3.33748e-17 0)
(4.86695e-20 4.92598e-20 1.46989e-36)
(-5.64401e-18 9.98006e-18 -1.54349e-34)
(1.69702e-20 3.9802e-20 6.23399e-36)
(-1.47146e-17 1.86323e-17 0)
(2.61955e-18 -2.76352e-19 1.61616e-37)
(-2.83558e-17 4.27395e-18 -5.67144e-35)
(3.8032e-20 7.04089e-20 0)
(1.29281e-19 -4.27082e-20 0)
(2.12198e-18 -1.88651e-17 -1.36378e-35)
(-1.77797e-17 1.12584e-17 8.78813e-35)
(-3.73364e-17 3.55128e-17 0)
(6.41932e-18 -7.21458e-18 -8.13181e-37)
(-2.49351e-17 -4.61321e-17 -8.4069e-35)
(5.74859e-18 -9.5025e-18 8.1893e-37)
(4.45892e-18 -1.36426e-18 -3.42607e-36)
(9.00531e-20 5.47149e-19 5.44157e-36)
(7.73459e-20 5.34802e-20 -1.34808e-36)
(-5.39278e-19 -1.05829e-17 -6.60239e-35)
(-4.90112e-17 3.68034e-19 -1.731e-37)
(1.35932e-19 7.07187e-21 0)
(-2.49085e-19 1.94226e-19 3.77592e-37)
(9.29141e-20 3.72871e-20 0)
(6.4622e-18 1.34285e-17 -6.1378e-38)
(5.42789e-18 1.28767e-17 0)
(-3.7561e-18 9.34132e-18 -1.23694e-34)
(6.15701e-21 1.15978e-20 0)
(5.0563e-18 -4.16963e-18 -9.91865e-37)
(-9.59508e-18 1.62887e-18 -8.79756e-35)
(-5.40605e-19 3.16413e-19 0)
(5.93005e-18 -1.33717e-17 0)
(-2.46694e-19 -1.54509e-21 -6.82009e-36)
(4.82533e-18 -5.92641e-18 0)
(-2.07556e-18 -1.58013e-17 4.0014e-35)
(8.7822e-20 -7.33781e-20 2.11048e-37)
(2.94225e-20 8.53012e-21 -1.04955e-37)
(-3.42383e-18 -8.05093e-19 1.20639e-34)
(1.41229e-20 7.26393e-20 6.49676e-36)
(-6.73981e-19 -5.44155e-18 5.31062e-35)
(2.97589e-20 1.20408e-19 -3.70544e-37)
(-3.99144e-19 2.04988e-19 6.44481e-36)
(-4.03057e-17 -1.12828e-18 -4.27412e-37)
(-3.57366e-17 3.44778e-18 2.59068e-35)
(-4.05938e-17 -1.11233e-17 -2.8459e-35)
(2.01399e-18 -2.80042e-19 0)
(6.62348e-18 -1.4215e-17 6.36952e-36)
(-3.07339e-17 -8.2171e-19 -2.61325e-35)
(3.72287e-18 -1.2995e-17 0)
(5.49532e-18 6.43792e-18 0)
(-2.47527e-18 1.82464e-18 1.19573e-34)
(7.69458e-21 3.1555e-20 -4.84149e-36)
(-2.77477e-18 -1.83221e-18 -9.59993e-35)
(9.50968e-21 -3.42143e-20 -5.33105e-36)
(-5.46696e-20 3.45051e-20 0)
(-5.66766e-20 8.2773e-20 0)
(-1.46635e-18 -2.94404e-18 -9.56739e-35)
(3.54101e-21 4.6182e-20 -9.58912e-36)
(8.96688e-20 -1.06871e-19 -6.74785e-36)
(-4.627e-17 6.93129e-18 2.93346e-35)
(-3.15441e-20 -4.57797e-20 4.32723e-36)
(-2.14734e-20 6.04707e-20 0)
(7.10777e-18 -1.07396e-17 0)
(6.2517e-19 4.82659e-19 1.39817e-36)
(3.12784e-20 -5.14718e-20 6.75167e-36)
(1.65252e-21 8.68804e-20 5.81223e-36)
(2.96121e-19 -1.75303e-17 -3.09293e-35)
(-1.61263e-19 3.67801e-21 0)
(5.4585e-20 1.09739e-19 0)
(-4.92213e-19 5.33526e-19 -1.4711e-37)
(-7.14309e-20 -1.70998e-19 -1.07224e-35)
(-2.76245e-19 1.91283e-20 2.02281e-37)
(-4.67958e-20 8.86089e-20 6.12904e-36)
(-9.97574e-18 9.62329e-18 9.15471e-36)
(4.88343e-18 -1.68324e-17 -6.39778e-36)
(-1.76316e-18 -7.41815e-18 -7.86842e-38)
(-4.52299e-20 -2.50203e-20 -5.93177e-36)
(1.17864e-18 2.5986e-18 0)
(-4.09577e-19 5.30609e-21 0)
(-3.25811e-17 -5.09613e-22 -2.4356e-36)
(-1.1066e-17 -4.61612e-18 7.09704e-35)
(-5.68125e-18 -9.7955e-20 0)
(-5.2719e-19 -1.90367e-20 -6.7903e-36)
(1.75659e-18 -1.62993e-17 2.43705e-35)
(-4.23362e-20 -1.46849e-19 -2.59572e-37)
(-8.83923e-20 -3.71275e-19 5.86131e-36)
(-5.04364e-21 4.52854e-20 0)
(-1.03815e-18 4.00052e-18 -3.59944e-36)
(-2.04923e-19 -5.68672e-19 7.07652e-36)
(2.32721e-18 1.32373e-17 1.02596e-35)
(4.70001e-19 -4.9818e-18 6.09788e-37)
(9.87985e-19 -8.01526e-18 -5.12657e-36)
(-1.8667e-17 -3.17706e-18 -4.77605e-35)
(3.01958e-19 -1.11679e-17 -1.22796e-35)
(-1.38553e-19 2.00208e-20 -1.39534e-36)
(7.98887e-19 -1.00531e-17 8.72679e-36)
(2.50509e-18 -9.81203e-18 4.77631e-36)
(-6.52502e-19 -3.06544e-21 6.7504e-36)
(-7.35508e-19 -7.36253e-20 -2.67369e-38)
(-1.42888e-17 9.48101e-18 1.59219e-35)
(2.21473e-18 6.21032e-18 2.584e-36)
(-6.65421e-19 -2.25749e-19 6.38749e-36)
(1.68323e-18 -3.42046e-18 -6.249e-36)
(4.4625e-19 2.28165e-18 0)
(7.96624e-19 3.41721e-18 -2.87703e-35)
(7.28277e-19 7.48287e-18 4.21552e-36)
(8.76262e-19 5.41997e-18 -6.97896e-37)
(6.11717e-19 -1.74839e-18 0)
(3.95128e-19 -1.32479e-18 1.18765e-35)
(2.75703e-19 -5.97768e-18 -2.9019e-35)
(9.75456e-19 -5.69494e-18 -1.79199e-38)
(-3.13355e-19 4.85501e-19 -6.5073e-39)
(8.24818e-19 -3.52017e-18 -1.48564e-35)
(-3.47798e-20 4.71469e-20 -1.2139e-35)
(-1.94984e-19 2.9607e-19 -7.14308e-36)
(2.96717e-19 8.59131e-19 2.91793e-39)
(1.29511e-19 9.78614e-19 -2.92717e-39)
(-3.0459e-19 -7.96513e-19 -6.50667e-36)
(-4.91407e-19 4.83506e-19 6.43807e-39)
(4.45387e-19 3.47877e-18 -1.67649e-35)
(-3.06351e-19 7.99117e-19 5.56771e-36)
(-2.21528e-19 5.89886e-19 0)
(-3.92914e-20 9.81441e-19 0)
(-9.48231e-20 3.72222e-19 0)
(-1.72976e-19 1.0173e-18 4.6206e-39)
(4.89251e-19 -2.42407e-18 0)
(-7.94488e-20 1.74038e-19 2.56708e-37)
(-4.62377e-20 2.69987e-19 0)
(-3.00147e-20 3.74875e-19 -4.00992e-36)
(-4.03025e-20 6.93215e-19 2.32504e-36)
(-1.06962e-19 -6.2899e-18 2.8725e-35)
(-1.89361e-20 1.61677e-20 4.38048e-36)
(2.77968e-19 -4.94032e-19 0)
(-6.33167e-21 -5.08631e-20 5.60824e-36)
(7.59177e-20 -3.26454e-19 -1.07685e-35)
(-4.3491e-20 -2.72934e-19 0)
(5.28389e-19 -3.70703e-18 6.61125e-36)
(2.59323e-19 4.63482e-18 1.32476e-35)
(-4.5392e-20 1.49679e-19 5.96755e-36)
(-7.01363e-19 5.45404e-18 1.56988e-35)
(9.70752e-21 4.14956e-19 -1.86032e-36)
(4.39935e-19 1.37845e-18 2.12542e-35)
(-8.65682e-20 5.70357e-19 5.01512e-36)
(-1.80779e-19 8.59966e-19 -5.57441e-36)
(-6.74814e-19 3.2805e-19 1.24512e-35)
(-7.90181e-19 -3.97744e-21 6.77604e-36)
(-7.68016e-19 -1.40583e-19 -6.42908e-36)
(-6.96152e-19 -1.70318e-20 0)
(7.4541e-20 -5.78644e-19 3.64799e-36)
(-5.17887e-19 -1.86395e-19 -2.10622e-37)
(-2.52836e-19 -9.07443e-21 -6.96803e-36)
(1.41992e-19 -1.89989e-19 6.90648e-36)
(4.37025e-19 -6.4238e-19 -1.08195e-36)
(1.12326e-18 -3.31753e-19 0)
(1.97803e-18 5.13219e-20 -4.05352e-36)
(2.7999e-19 -8.93363e-19 9.51316e-36)
(6.64918e-19 -8.06689e-21 0)
(3.16574e-18 9.62062e-19 1.54267e-37)
(2.62714e-18 3.19925e-19 5.01451e-37)
(1.29791e-18 -9.7132e-20 6.61137e-36)
(2.27322e-18 9.90283e-19 1.3236e-35)
(2.10779e-18 1.39111e-20 -6.71798e-36)
(4.49256e-18 1.44812e-18 -9.67152e-36)
(1.61542e-18 -1.11016e-19 9.00525e-36)
(2.96569e-18 1.52091e-19 0)
(4.03025e-18 3.90677e-20 0)
(2.27866e-18 1.84136e-18 5.27961e-37)
(5.03934e-18 5.52675e-19 -2.69467e-37)
(-1.79185e-19 -8.73366e-19 0)
(4.95758e-18 2.73845e-18 0)
(-6.61225e-20 -5.53056e-19 0)
(6.48868e-18 3.09802e-18 -9.11274e-36)
(3.69624e-18 3.17263e-18 -2.61208e-35)
(7.81413e-18 -2.82881e-18 -3.02758e-36)
(4.35996e-18 -1.68341e-17 1.36799e-35)
(6.22379e-18 4.16841e-20 0)
(7.20776e-18 1.03708e-18 0)
(-3.9065e-19 9.35653e-21 0)
(-9.88461e-21 -3.5319e-19 -7.19453e-36)
(8.23651e-18 -7.77226e-20 -7.31884e-36)
(9.00503e-18 7.38123e-18 0)
(8.93648e-18 1.65994e-18 7.01056e-36)
(9.30991e-18 -6.17397e-18 9.77264e-36)
(9.68456e-18 -2.55103e-20 6.19953e-36)
(2.72187e-18 1.50134e-17 1.47537e-37)
(9.91349e-18 2.42663e-18 -6.19968e-36)
(-7.09301e-19 1.19139e-17 -1.20264e-35)
(9.78737e-18 -1.55553e-19 -1.10796e-38)
(7.54887e-20 -1.14292e-19 -2.06282e-37)
(-1.81849e-19 1.95082e-17 -6.91485e-36)
(5.3025e-18 1.16093e-17 -1.49537e-37)
(-1.30311e-19 -6.48969e-20 -5.53031e-36)
(8.93216e-18 3.10963e-18 0)
(2.72024e-18 -3.8395e-20 3.51564e-36)
(2.28176e-18 1.89794e-17 7.90402e-37)
(-3.66911e-17 -3.30935e-18 7.48375e-36)
(7.69721e-18 -1.25333e-19 0)
(5.56195e-18 3.82603e-18 0)
(2.2802e-19 7.89556e-19 -6.00926e-37)
(7.59123e-20 3.26759e-19 0)
(-1.26219e-18 -1.86451e-17 -9.42403e-36)
(2.72993e-18 -8.45227e-18 5.82824e-38)
(-4.67163e-20 -7.59784e-20 1.12391e-38)
(5.33873e-20 6.36135e-19 0)
(-6.49307e-20 -8.05305e-20 -7.05224e-36)
(-3.34745e-18 1.78671e-17 -1.22133e-35)
(-6.90746e-19 -1.19359e-17 -1.29132e-35)
(1.99131e-19 2.79882e-19 5.87891e-36)
(-2.16524e-17 -5.091e-18 0)
(-3.29511e-20 -1.1876e-19 0)
(-5.27267e-18 -8.01921e-18 1.32201e-35)
(-9.68993e-18 -1.00682e-17 1.00058e-37)
(-1.66031e-17 -5.65138e-18 -9.12772e-38)
(-2.51081e-19 -3.50351e-20 -6.69966e-36)
(-6.65707e-19 2.14055e-19 1.33525e-35)
(6.39628e-18 -2.99384e-18 3.0641e-36)
(6.22132e-19 9.48053e-20 -2.99203e-36)
(3.88741e-19 -4.85107e-19 0)
(3.53675e-18 -9.05297e-18 1.17611e-36)
(2.91141e-18 -5.4795e-18 6.26301e-36)
(-1.69076e-17 -8.01947e-18 4.72973e-35)
(-4.31151e-18 1.40036e-17 4.824e-36)
(-1.10852e-17 3.20985e-18 -3.93273e-36)
(-1.99497e-17 2.85896e-18 -7.93771e-35)
(-1.506e-17 -3.30486e-17 1.06633e-34)
(3.89934e-19 -7.37021e-19 5.98462e-36)
(8.03478e-18 -5.07833e-18 -3.13327e-36)
(8.83149e-18 -7.49074e-18 -8.08122e-36)
(1.36752e-19 -8.32825e-19 5.88321e-36)
(-5.39839e-18 -9.79725e-18 -1.30507e-34)
(2.42698e-18 -1.33844e-17 -4.13064e-36)
(-4.26106e-19 8.12539e-19 -5.77235e-36)
(-1.52183e-19 -3.95051e-20 4.06145e-38)
(5.86831e-18 -1.49811e-18 0)
(-2.46368e-17 1.48426e-18 6.02616e-37)
(8.10706e-18 -9.8268e-18 -1.1725e-35)
(5.1442e-18 -1.15322e-17 0)
(1.67122e-19 4.28129e-20 -4.67226e-36)
(-9.72038e-18 -1.3338e-17 0)
(1.02973e-19 -2.13034e-20 0)
(-2.2271e-17 4.677e-18 -1.61665e-35)
(-4.80104e-20 1.3777e-19 4.82605e-36)
(2.10314e-18 -2.6447e-18 1.35027e-38)
(-5.50889e-18 -1.43141e-17 6.04209e-35)
(2.19741e-18 -6.34075e-18 -5.93386e-36)
(-1.76973e-17 -2.12346e-19 5.48561e-36)
(-5.11266e-20 2.20835e-20 8.0614e-38)
(-2.19552e-20 -6.66899e-20 -7.26955e-36)
(-2.68396e-17 1.59888e-18 2.3381e-35)
(2.77139e-20 -1.36879e-19 0)
(-7.32807e-18 -1.50157e-17 -2.84568e-35)
(-5.24013e-19 -5.31133e-19 -2.95595e-36)
(-6.6345e-17 2.28863e-17 -1.36791e-35)
(3.58642e-20 2.64588e-21 -2.50145e-36)
(9.20293e-18 -4.43367e-18 6.83989e-36)
(-2.18746e-19 9.5278e-19 -4.59776e-39)
(-6.2322e-19 9.54145e-20 -6.61059e-36)
(-1.12671e-19 1.04339e-19 -4.37576e-36)
(4.70178e-20 -3.03306e-21 -5.10491e-36)
(3.17495e-18 -1.66146e-17 -5.09071e-36)
(-4.10723e-19 -4.29512e-19 6.83712e-36)
(2.49768e-20 -5.51518e-21 2.76147e-36)
(-5.44571e-17 -5.92998e-17 0)
(-2.00483e-19 -1.75454e-17 -2.65015e-37)
(-2.71196e-18 -1.81778e-17 2.82408e-35)
(7.39885e-18 -7.64083e-18 6.18535e-36)
(1.12631e-19 -7.78254e-20 3.34661e-36)
(-2.02935e-20 -2.02272e-20 1.18794e-35)
(2.24343e-18 -9.53116e-19 1.35868e-37)
(7.55005e-20 1.3287e-21 6.24873e-36)
(2.33613e-20 8.60193e-19 0)
(-4.80676e-19 6.32679e-20 -2.14181e-37)
(6.53345e-20 -1.06484e-20 -3.14093e-36)
(1.12497e-18 -1.27172e-18 0)
(1.30087e-18 -6.73416e-19 2.15718e-36)
(-3.89047e-19 8.9749e-20 -6.69924e-36)
(-1.16883e-17 4.47941e-17 1.46329e-34)
(7.38736e-22 1.32787e-21 0)
(-3.39982e-18 1.84153e-17 -7.90148e-35)
(1.15053e-21 1.02407e-21 -2.28119e-36)
(-4.51363e-17 5.90425e-17 0)
(3.51883e-20 1.42925e-20 -3.28437e-36)
(-6.66805e-17 -6.36073e-18 3.3227e-36)
(2.27038e-20 2.27768e-20 1.61442e-36)
(-1.95215e-17 3.93567e-17 0)
(-3.92998e-17 -4.79301e-17 2.57849e-36)
(1.1359e-20 -1.04371e-20 6.94459e-36)
(1.36213e-19 -5.06897e-20 0)
(4.34348e-18 5.62977e-18 0)
(-4.98316e-18 -8.6766e-18 0)
(2.12689e-20 1.41152e-19 3.2369e-36)
(3.22775e-20 -1.20349e-20 0)
(-3.22205e-18 8.06694e-19 1.86057e-34)
(-5.7558e-18 1.65155e-17 -3.43987e-36)
(2.15487e-18 4.0684e-18 0)
(-1.38007e-18 6.67825e-18 1.3525e-35)
(1.47088e-19 1.7293e-20 0)
(-2.11901e-17 -3.48974e-18 4.51198e-35)
(-2.1619e-19 -1.79846e-19 9.2131e-36)
(-5.24507e-19 9.67159e-18 9.08024e-35)
(-3.73496e-20 1.25614e-19 1.70724e-36)
(4.25944e-19 8.61671e-18 0)
(3.50218e-18 1.27576e-17 -1.09448e-35)
(3.22296e-18 8.63767e-18 0)
(8.19821e-18 1.00138e-17 -3.4175e-36)
(6.75813e-18 4.70718e-18 -6.30294e-37)
(6.53967e-18 1.27564e-17 0)
(8.08526e-18 7.40081e-18 -5.33038e-36)
(1.0061e-19 7.954e-20 -3.38851e-36)
(5.87546e-19 1.53272e-18 0)
(1.52308e-19 -2.74478e-19 0)
(5.65776e-19 -7.31971e-19 -6.03876e-36)
(1.41137e-18 2.46707e-19 0)
(4.96738e-20 -5.60297e-19 7.69027e-36)
(-1.85229e-20 -5.96895e-19 1.71738e-35)
(-2.47111e-19 -6.7918e-19 -4.1837e-36)
(-5.42705e-19 -1.67816e-19 -6.81087e-36)
(-6.55345e-19 -3.83257e-19 0)
(-1.2919e-19 8.67811e-20 -1.3129e-35)
(-2.62949e-19 -4.60802e-19 0)
(-1.27087e-17 8.64984e-18 4.07575e-35)
(-5.55238e-17 5.93461e-17 0)
(2.09484e-20 3.67177e-21 0)
(-4.61935e-17 -6.07319e-17 0)
(8.98343e-21 -4.59153e-21 -2.64289e-36)
(-6.82354e-17 -1.65586e-19 1.77913e-35)
(-6.14485e-17 -3.93932e-17 0)
(-4.15644e-18 -1.92917e-17 0)
(1.4824e-21 -8.4075e-22 5.02442e-36)
(-1.25039e-17 -4.45929e-17 0)
(8.06108e-22 -4.88541e-22 -6.46404e-36)
(-5.93926e-17 3.06802e-17 1.25582e-35)
(9.41202e-20 -6.09633e-20 3.56677e-36)
(9.60378e-20 2.04858e-20 0)
(8.7003e-20 8.27819e-20 3.21295e-36)
(1.2134e-19 2.64204e-20 0)
(-4.67843e-17 4.31462e-17 0)
(-2.164e-18 -6.71408e-18 0)
(6.12777e-20 -5.98798e-20 2.11066e-37)
(7.71597e-20 3.28048e-20 2.95483e-36)
(-6.31013e-17 3.64635e-17 -1.24654e-35)
(8.9353e-20 -3.68312e-20 3.76198e-36)
(5.51514e-20 6.87802e-21 3.62922e-36)
(-3.23657e-17 -1.33908e-17 3.27556e-35)
(-9.48229e-19 2.16844e-18 -8.34706e-35)
(-3.49596e-17 -6.97718e-17 -6.97726e-35)
(-1.10281e-17 1.23804e-17 1.54427e-35)
(-3.28014e-20 5.25049e-18 -3.17253e-35)
(2.76563e-19 9.22029e-18 5.25233e-36)
(1.37645e-19 4.61167e-18 -3.79138e-36)
(-7.79371e-18 2.40885e-17 1.80135e-34)
(9.35907e-21 1.01365e-20 3.39898e-36)
(8.31188e-18 8.69353e-18 3.67483e-36)
(2.14131e-18 9.10323e-18 7.86568e-37)
(7.73488e-20 1.11851e-19 6.11082e-36)
(8.24559e-18 4.55281e-18 1.69076e-35)
(2.29282e-19 3.75558e-19 0)
(2.18125e-19 2.5132e-19 5.77449e-36)
(2.14363e-20 1.1006e-19 -3.3634e-36)
(8.22423e-20 -5.13395e-20 0)
(-1.27027e-21 1.23784e-19 -3.26667e-36)
(1.20925e-18 -2.61531e-19 0)
(4.36154e-21 -2.96312e-19 -4.21704e-36)
(-4.96059e-19 -4.87734e-19 1.32309e-37)
(-6.00852e-19 -5.57329e-19 -4.18762e-36)
(-2.5954e-19 3.60924e-20 9.81766e-36)
(-7.08995e-19 -3.91353e-19 -2.17843e-37)
(-3.50305e-19 -5.5499e-21 -3.66196e-36)
(-1.59406e-19 -2.78289e-19 -3.29893e-36)
(-4.87483e-19 -5.72028e-20 4.05357e-36)
(-1.87175e-19 -1.01144e-18 4.83788e-36)
(3.04155e-18 1.60602e-17 0)
(-6.73336e-17 -2.28558e-17 -9.57739e-36)
(2.93669e-18 1.88193e-17 4.34141e-36)
(1.03264e-19 9.20861e-20 0)
(1.76327e-20 -1.0194e-18 -1.05582e-35)
(2.95523e-18 5.60593e-18 0)
(3.50677e-18 4.11039e-18 1.55881e-35)
(2.01004e-20 -1.7546e-20 -3.51544e-36)
(5.64455e-20 -2.52346e-20 1.71695e-38)
(4.20666e-20 -3.5838e-20 -1.15785e-38)
(7.64539e-21 -6.33195e-21 5.98834e-36)
(-5.96494e-18 -2.13897e-17 0)
(-2.4166e-17 -5.58375e-17 1.96646e-35)
(7.19258e-20 1.23899e-19 -7.69558e-36)
)
;

boundaryField
{
    back
    {
        type            empty;
    }
    front
    {
        type            empty;
    }
    left
    {
        type            noSlip;
    }
    top
    {
        type            uniformFixedValue;
        uniformValue    
        {
            type            scale;
            scale           
            {
                type            squarePulse;
                start           0.3;
                duration        0.3;
            }
            xScale          
            {
                type            constant;
                value           1;
            }
            value           
            {
                type            constant;
                value           (0 -0.7 0);
            }
        }
        value           uniform (0 -0 0);
    }
    right
    {
        type            noSlip;
    }
    bottom
    {
        type            zeroGradient;
    }
}


// ************************************************************************* //
