/*--------------------------------*- C++ -*----------------------------------*\
  =========                 |
  \\      /  F ield         | OpenFOAM: The Open Source CFD Toolbox
   \\    /   O peration     | Website:  https://openfoam.org
    \\  /    A nd           | Version:  9
     \\/     M anipulation  |
\*---------------------------------------------------------------------------*/
FoamFile
{
    format      ascii;
    class       volScalarField;
    location    "0.71";
    object      p;
}
// * * * * * * * * * * * * * * * * * * * * * * * * * * * * * * * * * * * * * //

dimensions      [0 2 -2 0 0 0 0];

internalField   nonuniform List<scalar> 
464
(
1.67099e-10
-2.97211e-10
-1.06763e-10
-8.41478e-11
-3.56973e-10
-1.07302e-10
7.05953e-11
-8.05821e-11
-6.39311e-11
-3.91191e-11
1.64624e-10
3.90275e-10
5.23548e-11
3.88454e-10
1.2305e-10
1.12457e-10
8.14768e-12
5.90002e-12
-4.90713e-11
-6.11019e-11
-7.03061e-11
-1.07971e-10
-9.28778e-11
-9.09492e-11
-8.87896e-11
-9.41394e-11
2.63825e-10
-5.0881e-11
2.44521e-10
-1.12191e-10
-1.10117e-10
2.93646e-11
4.35066e-11
1.63587e-11
2.21532e-12
-8.20628e-12
-1.90989e-11
-3.97799e-11
-4.42094e-11
7.38354e-11
-5.73609e-11
-9.51328e-11
-9.5669e-11
3.24598e-10
2.69262e-10
8.11161e-11
-5.53119e-11
-3.61404e-11
-2.11265e-11
-5.48431e-11
-4.96235e-11
-3.83042e-11
-2.83588e-11
-5.47993e-11
-5.34949e-11
-3.65814e-11
-4.86307e-11
-5.65827e-11
-5.90075e-11
-3.25917e-11
-2.33303e-11
-2.25636e-10
-4.48109e-11
-5.53259e-11
-1.43008e-10
-6.22203e-11
-6.21089e-11
-1.31794e-11
2.20629e-10
-5.41006e-11
-6.35388e-11
-1.92933e-10
1.62452e-10
-3.58495e-11
-1.18874e-10
-4.21716e-11
-5.71545e-11
7.74076e-11
-5.12785e-11
1.70211e-10
-3.36439e-10
-1.13658e-10
-5.24697e-10
-1.31944e-10
-3.34656e-10
-5.47863e-11
-1.6268e-10
-1.17484e-10
-7.85805e-11
-9.64387e-11
-3.00942e-10
-2.40862e-10
-5.52527e-11
3.19951e-10
-6.19807e-11
-5.24047e-11
-5.63322e-11
-1.04657e-10
-2.4793e-10
-4.72485e-11
-8.05082e-11
-3.80129e-11
-9.12966e-11
1.53728e-11
1.64097e-11
-5.18777e-10
-1.2429e-10
-5.61174e-11
-3.01032e-10
-5.33391e-11
-6.66625e-11
-4.57971e-11
-6.09196e-11
-1.88978e-10
-6.71404e-11
-7.69199e-11
-4.46794e-10
-1.42014e-10
-2.85247e-10
-1.20621e-10
-4.75619e-11
4.43305e-11
-1.25877e-10
1.55743e-10
-5.85219e-11
-6.32116e-11
-4.83942e-11
-7.80481e-11
-1.3684e-13
-4.75037e-10
-1.34922e-10
4.28554e-10
-3.34065e-11
-8.56506e-11
-1.2016e-10
-3.81017e-10
-1.44704e-10
-6.05529e-11
-5.42258e-11
-1.23443e-10
-1.4566e-10
-5.75403e-11
-7.09162e-11
-7.57981e-11
-1.50559e-10
-1.41909e-10
-7.33799e-11
-1.21529e-10
-5.72778e-11
-1.14413e-10
-8.56482e-11
-8.52856e-11
3.36111e-11
-7.74777e-11
-3.43365e-10
-1.30409e-10
5.59158e-12
-6.90928e-11
-3.58052e-11
-2.60555e-10
-2.85598e-11
-7.77952e-11
-1.07894e-10
-9.7132e-11
-8.83538e-11
-1.43902e-10
6.59708e-12
-7.92151e-11
4.08532e-11
-1.07389e-10
-9.5751e-11
-1.98176e-10
-1.73652e-10
-1.15237e-10
-1.23735e-10
-7.58339e-11
-6.58363e-11
-7.01547e-11
9.24401e-11
9.20894e-12
-6.8357e-11
-7.20472e-11
2.49109e-11
2.30298e-11
4.93114e-11
3.25827e-11
-8.73738e-11
-8.37133e-11
-1.44802e-10
-8.4448e-11
-4.3904e-11
-8.36548e-11
-1.96406e-11
-3.88159e-11
-6.16816e-11
-6.68366e-11
-7.08891e-11
-4.94589e-11
3.99073e-11
-5.20853e-11
-4.74274e-11
-6.41083e-11
-3.93704e-11
-6.01141e-11
-8.24775e-11
-2.32072e-11
-4.8673e-11
-6.45132e-11
-7.30455e-11
-2.03983e-10
-1.34269e-10
-8.72215e-11
-1.26333e-11
-8.02433e-12
-7.10619e-11
-8.84803e-11
6.30556e-11
-3.24743e-11
2.48845e-10
-7.75404e-11
1.95877e-11
-5.69447e-11
-5.59778e-11
-5.69431e-11
-6.25078e-11
-6.93184e-11
-5.79373e-11
-5.02603e-11
-5.37577e-11
-5.47383e-11
-5.08049e-11
-3.96754e-11
-4.1124e-11
-4.79726e-11
-3.4625e-11
-5.08765e-11
-2.48047e-11
-3.40038e-11
-4.19993e-11
-2.0857e-11
-4.75699e-11
-2.80652e-11
-3.11917e-11
-3.65812e-11
-4.34941e-11
-9.81577e-12
-3.12212e-11
-5.75807e-11
-1.68214e-11
-5.90738e-11
-2.40849e-11
-1.15515e-11
-4.00641e-11
-7.39756e-11
-3.96476e-11
-2.67692e-11
-6.83639e-11
-5.70817e-11
-3.58791e-11
-1.261e-11
-2.30674e-11
-3.81244e-11
-3.13846e-11
3.75164e-11
-1.94355e-11
2.04638e-11
-2.91907e-11
-6.30742e-11
9.44618e-11
8.97892e-12
-1.05297e-10
-1.22916e-11
-2.56495e-11
5.88859e-11
5.77515e-11
-2.60134e-11
-3.15564e-12
-6.99884e-11
-8.59529e-11
-1.57692e-10
-4.00079e-11
-6.22023e-11
-8.49616e-11
-3.26664e-11
8.36324e-11
-7.12994e-11
-9.10583e-11
-1.10573e-10
-5.73591e-11
-4.28085e-11
-8.93136e-11
-4.73088e-11
-5.89709e-11
-5.6078e-11
-5.01988e-11
-7.33084e-11
-9.10048e-11
-7.16389e-11
-7.0305e-11
-1.40014e-10
5.90381e-11
1.80548e-11
1.31117e-10
3.55809e-10
-1.57553e-11
-4.805e-11
-4.82229e-11
-3.36423e-11
-2.45396e-10
-8.66617e-11
-5.67494e-11
-7.23278e-11
-4.18539e-11
3.21009e-11
-5.1376e-11
-5.8506e-11
-8.89117e-11
-1.60249e-10
-7.6177e-11
4.7779e-11
-1.13706e-10
-7.1463e-11
-2.07153e-10
-7.21534e-11
-3.44658e-11
-1.28857e-11
-7.77455e-12
1.11642e-10
-5.31812e-11
-1.13917e-10
-7.54712e-11
-1.05959e-10
-9.07626e-11
-3.83151e-11
-5.80939e-11
-6.50661e-11
-1.05677e-10
-8.45435e-11
-9.28394e-11
-8.54606e-11
-7.92273e-11
2.11222e-10
-9.10977e-11
-1.24709e-10
-3.81811e-11
-6.87369e-11
-1.32928e-11
-6.32342e-11
-8.42505e-11
-5.76226e-11
-5.61364e-11
-8.59216e-11
-7.32468e-11
-7.23009e-11
-5.15597e-11
-1.84423e-10
-1.13478e-10
-4.59547e-10
-1.15656e-10
-3.04251e-10
-9.94918e-11
1.45134e-11
-1.13237e-10
-3.42254e-10
2.02386e-10
-5.27701e-11
-7.12534e-11
-5.27278e-12
4.84133e-10
-1.21482e-10
-7.66899e-11
4.3387e-10
1.18967e-10
1.33966e-11
3.08498e-10
-9.28596e-11
1.94676e-10
-1.00372e-10
2.16541e-10
-1.19707e-10
8.47871e-11
2.98888e-11
1.45459e-11
3.20712e-12
-1.2269e-11
1.31299e-11
-1.04089e-11
-1.05257e-10
1.51682e-11
1.16284e-11
-3.56231e-11
-1.75345e-11
-2.22305e-11
-2.11234e-11
-5.66545e-11
-8.26535e-11
-7.22106e-11
-9.74652e-11
-8.86299e-11
1.58068e-10
-1.68313e-10
-9.37163e-11
3.24434e-10
-6.91338e-11
3.40842e-11
1.34928e-10
3.86518e-10
-5.80513e-11
1.84117e-10
-6.1079e-11
-7.29049e-11
-6.59047e-11
-1.03053e-10
-9.58625e-11
-9.43041e-11
-1.59777e-10
5.79451e-10
-5.97137e-11
-9.90917e-11
-2.34336e-10
-7.23585e-11
-9.12135e-11
1.90281e-10
3.83498e-10
1.76628e-10
1.23158e-10
1.76614e-10
1.37693e-10
1.09952e-10
-5.26044e-10
-1.21083e-10
-3.64028e-12
2.58098e-11
-1.16211e-10
-1.87719e-11
1.93875e-11
1.18048e-11
-9.91033e-11
9.57782e-12
-1.31056e-10
-2.5347e-11
-1.54286e-11
-5.15793e-11
-5.99288e-11
-8.7757e-11
-7.05296e-11
-8.57901e-11
-1.01117e-10
-7.73421e-11
-5.42815e-11
5.02891e-11
4.49e-11
5.79177e-11
-1.00477e-10
-3.6857e-11
8.2907e-13
-9.41986e-12
-5.81976e-11
-6.95915e-11
-6.43161e-11
-6.52606e-11
5.5199e-10
3.41588e-10
-1.01128e-10
)
;

boundaryField
{
    back
    {
        type            empty;
    }
    front
    {
        type            empty;
    }
    left
    {
        type            zeroGradient;
    }
    top
    {
        type            zeroGradient;
    }
    right
    {
        type            zeroGradient;
    }
    bottom
    {
        type            uniformFixedValue;
        uniformValue    
        {
            type            scale;
            scale           
            {
                type            squarePulse;
                start           0.3;
                duration        0.3;
            }
            xScale          
            {
                type            constant;
                value           1;
            }
            value           
            {
                type            constant;
                value           15.1;
            }
        }
        value           uniform 0;
    }
}


// ************************************************************************* //
