/*--------------------------------*- C++ -*----------------------------------*\
  =========                 |
  \\      /  F ield         | OpenFOAM: The Open Source CFD Toolbox
   \\    /   O peration     | Website:  https://openfoam.org
    \\  /    A nd           | Version:  9
     \\/     M anipulation  |
\*---------------------------------------------------------------------------*/
FoamFile
{
    format      ascii;
    class       surfaceScalarField;
    location    "0.71";
    object      phi;
}
// * * * * * * * * * * * * * * * * * * * * * * * * * * * * * * * * * * * * * //

dimensions      [0 3 -1 0 0 0 0];

internalField   nonuniform List<scalar> 
663
(
-4.4294e-16
4.03684e-16
3.92564e-17
1.79371e-16
4.83845e-16
-1.30864e-18
1.30864e-18
2.53572e-17
-1.24178e-17
-1.29394e-17
-2.14061e-16
3.93432e-16
1.54776e-19
-1.46342e-18
-4.385e-16
-4.4405e-18
8.27923e-18
1.7078e-17
-5.13435e-16
2.05943e-16
3.07493e-16
2.96355e-17
-5.43071e-16
-2.36238e-16
6.39922e-16
3.20663e-16
-2.12336e-16
-1.08327e-16
-2.32557e-16
3.14161e-16
6.50246e-18
2.21491e-17
-1.5005e-18
-2.06486e-17
2.06063e-17
1.54279e-18
5.31882e-17
-4.25593e-17
-1.06289e-17
5.4165e-17
-9.76815e-19
8.41885e-19
-8.41885e-19
8.52856e-17
-1.0467e-16
1.93847e-17
-2.10524e-17
1.06338e-16
-3.14267e-17
-3.97207e-17
7.11474e-17
-7.98627e-17
4.8436e-17
-3.26297e-17
2.70407e-17
5.58895e-18
2.59593e-18
-1.50137e-17
-1.82863e-17
-1.43433e-17
-9.27724e-17
7.90674e-17
1.3705e-17
2.77011e-17
-9.48646e-18
-1.82147e-17
-3.72853e-17
-5.54871e-17
5.28585e-17
-4.40611e-17
-8.79736e-18
2.58564e-17
2.7002e-17
-1.41154e-17
3.09095e-17
-1.67941e-17
1.08028e-17
-2.49183e-17
2.16244e-17
-3.90311e-17
1.74067e-17
4.2846e-17
-2.12215e-17
3.86744e-17
1.54906e-17
8.06776e-17
-4.20032e-17
-4.17712e-18
5.01901e-18
7.19197e-18
2.05092e-17
-2.72832e-17
3.55909e-18
2.37241e-17
-6.17104e-17
-4.296e-17
8.81088e-17
-9.90153e-17
1.09065e-17
8.24601e-18
2.4099e-17
5.49683e-17
-1.88237e-16
-6.6769e-18
-4.23681e-17
9.0942e-17
-4.85739e-17
-8.52021e-17
7.79017e-17
7.30033e-18
-1.2211e-17
1.2211e-17
-1.36636e-17
3.34215e-17
-9.51319e-17
3.8114e-17
7.76853e-18
-4.58825e-17
-9.36791e-17
1.57135e-17
7.79656e-17
1.31546e-17
-7.00027e-17
5.6848e-17
1.13388e-16
-1.00233e-16
-2.56095e-17
6.37235e-17
-6.79776e-17
-2.92516e-17
-4.12721e-17
7.05237e-17
8.06537e-17
-1.09905e-16
-7.92778e-17
-1.44013e-17
-5.01901e-18
-1.32983e-16
3.09116e-16
-1.76134e-16
-6.44324e-17
2.19337e-17
4.24987e-17
5.29704e-17
-6.58194e-17
1.2849e-17
-3.31556e-16
3.61192e-16
-2.79561e-17
-4.20465e-17
-5.24209e-17
6.97288e-17
-1.73079e-17
1.99795e-17
-3.44565e-16
3.22906e-18
1.10158e-16
1.00274e-16
-1.96207e-17
-4.64539e-16
1.22497e-17
-4.95349e-17
-3.04833e-17
-5.47188e-17
1.42599e-17
1.45623e-17
-2.88221e-17
-2.53733e-17
3.31534e-17
-8.55743e-17
-4.1066e-16
4.49917e-16
-7.09657e-17
2.96936e-17
1.07492e-17
2.34067e-16
1.99155e-16
-4.33221e-16
-1.02147e-17
9.7819e-18
4.3281e-19
6.3853e-17
-1.36758e-16
7.29048e-17
3.87824e-18
8.75825e-19
-4.75407e-18
2.9792e-16
-3.4108e-17
-3.03243e-17
2.52714e-16
5.64019e-17
-6.33647e-18
-4.20419e-17
3.2321e-17
9.72092e-18
-1.20544e-17
2.63143e-17
1.21786e-16
-2.65384e-16
3.69781e-17
-5.53833e-17
1.84052e-17
-2.18112e-16
-1.93859e-16
4.1197e-16
4.39574e-17
-6.97931e-18
5.50871e-17
-1.79953e-17
-2.48062e-18
1.22625e-17
1.3101e-17
-2.62676e-18
-1.04743e-17
1.62032e-16
-3.94589e-16
-2.79406e-17
-1.41013e-17
-1.6886e-17
9.47877e-17
2.11398e-17
-4.90804e-17
3.14668e-17
-5.57285e-19
-7.56428e-18
-1.36758e-16
8.75824e-19
4.29315e-17
2.67973e-17
-4.39856e-17
1.65772e-16
-8.41755e-17
1.13658e-16
-2.94828e-17
3.64162e-17
-3.18929e-18
-3.3227e-17
6.04587e-17
-1.24518e-17
1.62676e-17
-3.16654e-18
-5.93272e-18
3.82537e-17
-3.16142e-17
5.2754e-17
-7.29048e-17
2.89192e-17
5.36243e-18
4.75406e-18
-1.01165e-17
-2.62675e-18
2.64748e-17
-2.11123e-17
-1.01061e-16
-1.55947e-16
3.17979e-16
2.19317e-16
3.33973e-17
-3.00707e-16
2.96266e-16
6.61664e-17
2.7092e-17
9.32428e-18
2.59177e-16
-3.98599e-17
-3.63876e-17
3.31983e-17
4.69114e-17
-4.06544e-18
7.1101e-17
-7.1101e-17
2.1678e-17
-5.32922e-17
-1.05223e-17
-4.10008e-17
5.15231e-17
2.89192e-17
-1.01165e-17
9.10028e-18
-2.73149e-17
-3.2549e-17
3.2549e-17
1.75997e-17
-2.8122e-17
1.07304e-17
-9.29154e-17
7.32947e-17
4.68213e-17
-1.75997e-17
7.48318e-18
-4.70741e-18
1.92697e-17
-3.72856e-17
5.89636e-17
2.01383e-17
-6.32527e-17
-2.5667e-18
-3.72305e-17
4.68149e-18
1.77306e-17
-5.50162e-17
-6.44861e-17
1.11939e-17
8.65831e-17
3.13818e-17
-1.17965e-16
3.15491e-17
-4.45713e-18
2.62924e-17
2.8122e-17
4.42701e-18
-3.94546e-17
-3.10477e-18
-3.81204e-17
5.5851e-17
1.0323e-16
1.18478e-16
4.7294e-17
3.48393e-17
-8.80948e-17
5.32555e-17
1.23644e-17
-5.04848e-17
-5.25912e-19
-2.82962e-17
-3.72305e-17
6.47595e-18
-4.37064e-17
5.83188e-17
-2.34795e-17
-8.36379e-17
9.01138e-17
-2.59391e-20
3.45529e-17
-3.4527e-17
-1.57076e-17
1.57076e-17
-1.52627e-17
-4.44948e-19
1.7488e-16
-1.51817e-17
1.04743e-17
-8.07214e-17
1.51817e-17
-5.13198e-19
-3.58744e-17
-3.27027e-17
4.50671e-17
-3.57245e-17
3.02179e-18
-2.52434e-17
1.11827e-16
3.82918e-18
-4.31331e-17
3.93039e-17
5.71222e-17
-9.28467e-17
-4.2837e-18
5.28532e-17
-4.85695e-17
1.46597e-17
-1.46597e-17
1.84889e-17
1.33974e-17
-1.34234e-17
-1.33974e-17
-1.26224e-18
1.82282e-17
-2.25119e-17
1.82282e-17
-1.57759e-17
1.52627e-17
-8.97281e-17
-1.34254e-17
1.03153e-16
1.57759e-17
2.45232e-18
3.62845e-17
-3.62845e-17
5.05966e-18
-1.40753e-17
-9.583e-17
-1.0147e-16
8.73951e-17
-1.0469e-16
-1.0062e-16
1.03849e-16
2.53325e-18
-9.81321e-17
-3.33831e-18
4.38774e-17
-4.13442e-17
-1.04366e-16
6.23353e-18
4.13442e-17
4.38774e-17
4.3361e-17
-4.3361e-17
4.00227e-17
-2.25119e-17
1.99795e-17
-2.98979e-17
2.98979e-17
-4.37064e-17
-1.34234e-17
2.42766e-18
-2.42766e-18
4.00227e-17
1.84889e-17
5.16402e-19
-6.40468e-18
-2.49343e-17
-9.872e-18
-1.50623e-17
-1.62767e-17
-2.31943e-17
-6.98417e-17
9.3036e-17
-1.79948e-17
1.71809e-18
-5.14576e-18
-2.83401e-17
-8.58504e-17
1.60087e-17
-3.38294e-17
-5.20211e-17
4.01994e-17
-9.35244e-17
1.09533e-16
1.35351e-18
3.97984e-17
3.37194e-17
-7.35178e-17
7.98148e-17
-4.00164e-17
-3.24759e-17
-6.40129e-17
9.77323e-17
7.72351e-18
-3.86412e-17
-3.48766e-17
2.77937e-17
-3.22929e-17
1.02058e-17
-7.46418e-17
-2.84354e-17
6.69678e-18
-1.11387e-16
-6.27576e-17
2.78811e-17
-3.70096e-17
-3.08689e-17
-3.18887e-17
-4.67607e-17
2.85881e-17
-4.38632e-17
1.52751e-17
1.94946e-17
9.58572e-18
-3.80212e-17
-2.12832e-17
-1.12141e-17
6.70651e-17
-3.70096e-17
7.30488e-18
-1.40403e-17
-2.11447e-17
3.51849e-17
-1.46858e-17
2.19907e-17
1.28732e-17
-2.59218e-17
1.30486e-17
3.80314e-18
-1.8489e-17
-2.58145e-17
8.99314e-20
2.57245e-17
-1.02371e-17
3.25043e-17
2.6361e-18
4.7354e-17
5.87062e-18
-2.65192e-17
-2.56382e-17
2.57281e-17
-7.62944e-17
-1.01318e-17
1.27679e-17
1.77897e-17
-4.12692e-17
3.15952e-17
1.72726e-17
7.84848e-18
-1.79803e-17
-5.52024e-18
-3.45025e-17
3.45025e-17
3.55373e-17
-1.73821e-17
-2.38872e-17
4.59969e-17
8.24343e-19
9.00466e-18
-6.38861e-17
3.73669e-17
2.95516e-17
-4.69337e-17
6.35754e-18
2.81449e-17
1.25422e-16
-1.65282e-16
-2.19807e-17
-5.85431e-17
3.63927e-17
-9.49358e-17
1.61814e-16
-5.9788e-17
-7.15294e-17
-1.70659e-17
7.96522e-17
-2.81449e-17
5.63306e-18
-4.28537e-17
4.04014e-17
9.59808e-18
-6.47095e-17
-1.92364e-16
2.36535e-16
-4.41714e-17
9.60488e-17
7.06761e-17
1.00016e-17
3.36804e-17
-1.51914e-17
-8.60174e-18
7.35864e-17
3.27534e-17
1.07592e-16
2.00335e-16
-9.71049e-17
2.23728e-17
-4.39254e-18
-7.04199e-17
8.00179e-17
-4.35216e-18
1.26314e-17
1.75091e-16
-1.49645e-17
-2.90966e-17
-6.58773e-17
-2.89842e-17
2.89842e-17
-1.49179e-17
6.96079e-17
3.67302e-17
4.87235e-16
-2.57133e-16
4.14638e-18
-4.14638e-18
1.13825e-16
-2.64623e-17
5.61829e-17
-6.74231e-18
6.74231e-18
-2.94074e-17
-2.39014e-18
2.39014e-18
1.26421e-17
-6.03895e-16
-2.06194e-17
-2.67989e-17
-5.16044e-19
-1.94079e-17
4.06027e-17
-6.02443e-17
1.76547e-16
1.54778e-19
1.76547e-16
1.54778e-19
-8.01706e-17
5.64016e-16
2.16276e-18
-8.54112e-19
-1.03168e-16
-1.0306e-18
-3.97895e-17
4.46063e-16
2.07411e-19
-1.0493e-18
2.78986e-19
4.66324e-17
7.76034e-17
-2.99097e-17
2.86293e-19
2.10385e-18
-1.61326e-17
-1.2168e-17
-3.95829e-17
1.2831e-19
1.61326e-17
4.82983e-17
-6.53879e-17
8.3215e-18
2.24265e-17
-9.86429e-18
2.69886e-17
-2.57264e-17
-2.17019e-17
-3.59541e-17
8.93402e-18
1.39634e-17
-2.0767e-17
1.53841e-17
-1.44073e-17
-8.35228e-17
5.57292e-17
2.12962e-17
-2.12962e-17
5.0076e-17
6.53682e-17
-5.61165e-17
-8.30322e-18
6.07064e-17
-9.96585e-17
5.01572e-16
2.16276e-18
4.58705e-16
2.86289e-19
3.84067e-16
-1.53978e-16
1.73652e-16
-1.73652e-16
2.0741e-19
-2.1658e-16
2.0741e-19
-2.98631e-16
-2.4444e-16
9.33668e-18
-9.85272e-18
9.42479e-18
-1.14084e-17
1.98362e-18
-3.70504e-17
-1.20301e-17
7.76034e-17
-4.3269e-18
2.77866e-18
-1.9539e-16
8.3215e-18
9.86429e-18
-6.28654e-19
1.53841e-17
1.44073e-17
5.17941e-17
7.11789e-17
-6.33194e-17
-1.48834e-17
-2.63734e-17
-5.55601e-19
-4.93695e-19
4.88251e-18
)
;

boundaryField
{
    back
    {
        type            empty;
        value           nonuniform List<scalar> 0();
    }
    front
    {
        type            empty;
        value           nonuniform List<scalar> 0();
    }
    left
    {
        type            calculated;
        value           uniform 0;
    }
    top
    {
        type            calculated;
        value           uniform 0;
    }
    right
    {
        type            calculated;
        value           uniform 0;
    }
    bottom
    {
        type            calculated;
        value           nonuniform List<scalar> 8(-6.63216e-16 -2.30102e-16 5.91253e-16 -3.90609e-16 -5.81743e-16 3.90233e-16 6.54095e-16 2.30089e-16);
    }
}


// ************************************************************************* //
