/*--------------------------------*- C++ -*----------------------------------*\
  =========                 |
  \\      /  F ield         | OpenFOAM: The Open Source CFD Toolbox
   \\    /   O peration     | Website:  https://openfoam.org
    \\  /    A nd           | Version:  9
     \\/     M anipulation  |
\*---------------------------------------------------------------------------*/
FoamFile
{
    format      ascii;
    class       volVectorField;
    location    "0.71";
    object      U;
}
// * * * * * * * * * * * * * * * * * * * * * * * * * * * * * * * * * * * * * //

dimensions      [0 1 -1 0 0 0 0];

internalField   nonuniform List<vector> 
464
(
(-1.04364e-08 -8.88419e-09 -5.60002e-28)
(-6.87775e-09 1.73002e-08 0)
(1.10352e-11 2.13793e-11 0)
(5.96422e-10 -2.58147e-11 5.20292e-27)
(-4.91346e-09 1.38871e-08 0)
(8.8913e-12 1.72634e-11 -1.66079e-27)
(-9.98863e-09 -5.64788e-09 7.06984e-27)
(5.65181e-10 -1.17255e-10 0)
(-1.22993e-08 7.00908e-10 -8.93273e-28)
(-1.16698e-08 5.80261e-09 -5.25254e-27)
(-8.32181e-09 -1.14192e-08 5.66183e-28)
(-3.50921e-09 -7.50117e-09 -5.70785e-28)
(-1.08841e-08 -1.73456e-09 -6.82631e-29)
(-2.55424e-09 -7.38134e-09 0)
(-3.4525e-10 3.7618e-10 3.23298e-27)
(-1.33213e-10 5.70648e-10 -6.85816e-27)
(-2.43211e-10 1.66459e-09 0)
(-1.70475e-10 1.50363e-09 1.28406e-28)
(2.52747e-11 -1.23066e-11 -2.34994e-27)
(3.37652e-11 3.13201e-09 3.78881e-27)
(1.44737e-10 3.2745e-09 -5.74608e-27)
(7.80523e-10 2.10851e-09 1.56029e-27)
(8.99696e-10 2.23418e-09 -7.23796e-28)
(6.95175e-10 2.06839e-10 0)
(4.18063e-10 1.60657e-11 -5.34369e-27)
(6.99791e-10 3.4154e-10 2.83814e-27)
(-9.43046e-10 -1.61472e-09 -7.7332e-27)
(3.69539e-10 -5.05989e-10 -2.87161e-27)
(-1.29516e-09 -1.54984e-09 0)
(6.89227e-10 1.1257e-09 0)
(8.34334e-10 9.5008e-10 3.71603e-28)
(-1.55431e-10 8.78126e-10 -1.02308e-29)
(-1.30636e-10 8.99005e-10 3.84176e-28)
(-1.79928e-10 1.20848e-09 5.06873e-28)
(-2.76059e-10 1.21998e-09 -5.10845e-28)
(-1.58726e-10 1.76171e-09 7.52027e-28)
(-3.27336e-10 2.28573e-09 -7.77304e-28)
(6.32934e-11 -1.07392e-10 -3.42077e-28)
(2.93448e-10 -6.19285e-10 2.76053e-28)
(-3.29971e-11 7.58676e-10 0)
(-1.31967e-10 3.15486e-09 4.80375e-27)
(5.7136e-10 2.80628e-09 0)
(7.81808e-10 2.54644e-09 -1.80717e-27)
(-1.33528e-09 -3.06866e-09 -1.68671e-26)
(-2.70876e-09 -4.96546e-09 1.72079e-26)
(-1.13953e-10 7.44451e-10 2.7182e-28)
(1.05807e-09 -1.78141e-09 2.94024e-27)
(3.22836e-10 -2.12668e-09 6.42732e-29)
(6.67697e-11 -2.28623e-10 0)
(1.89832e-10 -2.71153e-10 3.31195e-28)
(-1.61569e-10 3.26006e-09 -3.1702e-27)
(3.58422e-10 -1.09403e-09 -9.49458e-29)
(-8.57454e-11 2.39546e-09 -1.47547e-27)
(3.94075e-10 -2.04082e-09 -3.21354e-27)
(3.1932e-10 -2.99027e-09 -1.01016e-28)
(5.38249e-10 -1.52359e-09 2.04477e-27)
(8.88336e-10 -1.61122e-09 0)
(-7.92521e-10 -1.86034e-09 0)
(-6.3022e-10 -2.68957e-09 -3.65467e-27)
(-1.91016e-10 2.62482e-09 0)
(1.0723e-10 -3.12877e-10 1.66282e-27)
(-5.59724e-09 6.81607e-09 2.44599e-26)
(-1.01547e-09 -1.02783e-09 5.86564e-27)
(-3.11349e-10 -1.44862e-09 -3.33741e-27)
(-9.6018e-09 6.23063e-09 -4.1579e-28)
(6.62935e-10 -1.3453e-09 -3.47963e-27)
(-5.50437e-10 -1.84184e-09 -3.52303e-27)
(1.30399e-10 -5.98171e-10 -6.71987e-28)
(-6.03081e-09 -9.31866e-09 -6.21551e-27)
(1.09574e-10 -3.2719e-09 3.29961e-27)
(-5.86206e-10 -2.67991e-09 3.6471e-27)
(-7.65835e-09 8.41243e-09 -1.29504e-26)
(-9.71566e-10 -6.25578e-10 0)
(5.18152e-10 -2.1103e-09 2.15968e-27)
(-2.23215e-10 -6.81235e-10 -6.75567e-27)
(4.96942e-10 -9.70715e-10 2.5692e-27)
(-7.19297e-10 -1.92266e-09 -3.59269e-27)
(-1.18143e-08 -8.0367e-09 -7.15082e-27)
(-7.09356e-10 -1.356e-09 -3.19583e-27)
(-4.08234e-10 -3.50712e-11 4.17079e-27)
(-4.70496e-09 1.04987e-08 0)
(1.53082e-10 1.5387e-10 1.58634e-27)
(-1.09606e-09 3.98608e-09 -3.06794e-26)
(5.51119e-11 1.02716e-10 8.13586e-27)
(-2.84533e-09 7.22622e-09 0)
(-9.36413e-10 -1.6111e-09 9.55182e-29)
(-5.58146e-09 4.8841e-09 -1.16519e-26)
(1.70945e-10 2.48975e-10 0)
(9.78003e-10 -2.55268e-10 0)
(-4.87254e-10 -5.4114e-10 -5.07388e-27)
(-3.44497e-09 6.28103e-09 1.79959e-26)
(-7.16196e-09 1.12438e-08 0)
(-3.87787e-10 -1.26654e-09 3.55504e-27)
(-4.83783e-09 -1.26508e-08 -1.63066e-26)
(-2.3438e-10 -1.2336e-09 -3.4962e-27)
(-9.1057e-10 -1.3383e-09 -2.89449e-27)
(-4.89283e-10 -2.03838e-09 3.20325e-27)
(2.87124e-10 1.95146e-10 -1.45488e-27)
(-1.67225e-10 -1.33875e-10 -1.5831e-26)
(-9.53902e-09 1.81859e-10 -1.78609e-28)
(1.0169e-09 3.18174e-11 0)
(4.13308e-10 -2.61442e-09 2.39058e-28)
(1.16943e-09 2.35362e-10 0)
(-1.58066e-10 9.77176e-10 1.00111e-29)
(-1.14972e-10 1.08314e-09 0)
(-7.35256e-10 2.89041e-09 -2.41046e-26)
(1.99868e-11 1.21848e-11 0)
(-5.84159e-10 -1.55463e-09 3.45411e-27)
(-1.88424e-09 3.94171e-09 -1.80152e-26)
(6.66365e-10 -2.7227e-09 0)
(-1.26736e-10 -1.0529e-09 0)
(8.5001e-10 -2.1895e-09 -3.00155e-27)
(-4.03314e-10 -1.48753e-09 0)
(-5.97274e-10 2.42366e-10 1.02925e-26)
(1.08522e-09 -5.04776e-10 1.24052e-28)
(1.34855e-09 4.96474e-11 -7.32589e-29)
(-6.65602e-10 1.92145e-09 2.48962e-26)
(8.76834e-11 2.9358e-10 9.16554e-27)
(-1.5844e-10 1.97648e-12 1.27352e-26)
(2.6777e-10 6.04446e-10 -4.80387e-28)
(6.80701e-10 -2.70661e-09 2.81744e-27)
(-7.96138e-09 -1.15091e-09 -9.53913e-29)
(-7.05437e-09 3.54913e-09 5.17487e-27)
(-7.88165e-09 -5.57039e-09 -6.12422e-27)
(-7.42212e-10 -2.32233e-09 0)
(-1.71787e-10 -8.93503e-10 4.19431e-27)
(-6.23881e-09 1.8542e-09 -5.21996e-27)
(-3.85814e-11 -1.04952e-09 0)
(-4.14294e-10 1.39394e-09 0)
(-4.81303e-10 1.44947e-09 2.37672e-26)
(4.26891e-11 8.98157e-11 -6.31854e-27)
(-5.30113e-10 -1.48553e-09 -1.99217e-26)
(4.67704e-11 -8.80015e-11 -1.3624e-27)
(1.4281e-09 3.52985e-10 0)
(3.29631e-10 1.51099e-09 0)
(-2.94163e-10 5.27095e-10 -1.97441e-26)
(5.59017e-11 2.06114e-10 -1.38974e-26)
(6.27751e-10 -5.67493e-10 -3.93209e-27)
(-9.00843e-09 3.46237e-09 5.82381e-27)
(4.54877e-11 6.79513e-10 5.68422e-27)
(1.25526e-10 8.83455e-10 0)
(-2.1505e-10 -1.06287e-09 0)
(-3.55878e-10 -2.56075e-09 -9.93525e-29)
(1.28875e-09 -4.4895e-10 4.21746e-27)
(1.13546e-10 5.53282e-10 8.60835e-27)
(-2.46306e-10 -4.82736e-10 -8.97628e-27)
(1.48946e-09 5.24453e-11 0)
(3.40245e-10 4.88498e-10 0)
(-6.8618e-11 -2.11831e-09 -4.66018e-29)
(7.6807e-11 1.39014e-09 -1.31216e-26)
(1.45138e-09 5.03765e-10 1.61244e-28)
(1.27103e-09 9.30357e-10 5.27789e-27)
(-2.70226e-09 -6.0403e-10 2.91228e-27)
(-1.75759e-10 -8.70364e-10 -4.21292e-27)
(-3.69904e-10 6.01362e-10 -1.71872e-29)
(1.01578e-10 1.18411e-09 -8.43743e-27)
(-1.73984e-10 1.28178e-09 0)
(1.41312e-09 9.30603e-11 0)
(-6.6159e-09 3.63764e-11 -1.05158e-28)
(-2.23058e-09 3.15726e-09 1.5285e-26)
(-2.22152e-09 -2.40302e-12 0)
(1.28264e-09 6.3437e-10 -4.43259e-27)
(-6.40283e-11 -7.9309e-10 1.27361e-26)
(3.71093e-11 7.86463e-10 6.19158e-28)
(3.91194e-11 1.5752e-09 5.52329e-27)
(6.85815e-11 3.70508e-10 0)
(-1.5244e-09 3.09697e-13 -5.68589e-28)
(1.01482e-10 2.66092e-09 4.61042e-27)
(-1.60565e-11 8.98717e-10 -1.97002e-27)
(1.91885e-12 -3.30885e-10 1.03733e-26)
(2.18804e-11 -5.73376e-10 -5.64723e-28)
(-3.77458e-09 3.63746e-09 -1.02453e-26)
(-4.49743e-11 -4.68057e-10 -1.76534e-27)
(5.02741e-10 2.04197e-09 -1.55017e-27)
(1.24693e-11 -5.68839e-10 1.11691e-27)
(-4.25739e-11 -9.92946e-10 -4.40886e-27)
(1.1422e-09 7.20888e-11 4.38126e-27)
(9.27294e-10 7.114e-10 -1.65069e-29)
(-3.28559e-09 -1.36458e-09 4.16205e-27)
(-9.99284e-11 1.13849e-09 -1.09138e-28)
(8.22969e-10 1.96544e-09 4.39412e-27)
(-1.89765e-10 -1.38375e-09 4.24495e-27)
(-1.16115e-11 3.06441e-10 0)
(-1.78825e-11 6.27621e-10 1.35547e-27)
(1.30271e-11 5.29622e-10 7.59207e-28)
(-2.71636e-12 5.49767e-10 5.29367e-29)
(-6.40344e-11 -7.70353e-10 0)
(-2.95179e-11 -3.63703e-10 -3.99635e-27)
(-1.79086e-11 -3.31248e-10 -1.40178e-26)
(1.66935e-12 -5.78512e-10 9.34344e-30)
(2.51019e-10 -2.97244e-09 -2.71957e-30)
(-3.1579e-11 -6.382e-10 4.99906e-27)
(5.4983e-11 -7.19917e-10 -1.79788e-27)
(2.25846e-10 -2.5037e-09 -2.33279e-27)
(-4.3611e-10 -3.03386e-09 3.73771e-30)
(-2.67441e-10 -2.91326e-09 -3.74956e-30)
(7.89318e-11 3.11656e-09 -4.23915e-27)
(4.17065e-10 -3.08303e-09 2.69064e-30)
(-1.89118e-12 2.90193e-10 2.12576e-27)
(6.39674e-11 -3.15365e-09 3.22465e-27)
(1.07256e-10 -2.75777e-09 0)
(-1.34849e-10 -2.70992e-09 0)
(3.77982e-11 -1.61432e-09 0)
(-1.18949e-10 -3.12532e-09 3.45579e-30)
(-1.25398e-11 -3.17505e-10 0)
(8.38113e-11 -1.46481e-09 -3.53752e-28)
(8.62691e-12 -8.80249e-10 0)
(-1.6669e-11 -8.69005e-10 -2.89976e-27)
(-5.25648e-11 -1.57885e-09 4.49432e-27)
(-6.92365e-11 -2.4901e-10 9.01636e-27)
(6.81184e-11 5.70191e-10 6.28551e-27)
(-4.36133e-11 -4.4963e-10 0)
(7.20825e-11 -3.88454e-10 6.17273e-28)
(-4.00667e-11 6.82861e-10 -7.20027e-28)
(5.21583e-12 8.86524e-10 0)
(6.83529e-13 -3.13137e-10 -4.39961e-27)
(-5.72824e-12 3.07747e-10 -2.64144e-27)
(3.38084e-11 -8.28274e-10 1.32981e-27)
(-1.67972e-10 -9.44657e-13 2.25684e-27)
(-3.76866e-11 -8.01674e-10 -3.59601e-27)
(-2.13359e-11 3.73258e-10 -1.01247e-27)
(-9.21884e-12 -1.65183e-09 3.62667e-27)
(-2.02603e-11 -2.82335e-09 -3.22853e-27)
(1.69402e-10 -1.44249e-09 6.68902e-27)
(6.92363e-10 7.18466e-11 4.00333e-27)
(4.21589e-10 8.06473e-10 -3.7918e-27)
(1.68865e-10 1.04216e-10 0)
(-4.84304e-10 2.15603e-09 1.53638e-27)
(-8.11443e-11 7.98401e-10 -9.41138e-29)
(-3.29449e-10 4.29866e-11 -3.21763e-27)
(-5.5538e-10 7.86e-10 3.18921e-27)
(-5.7865e-10 2.51421e-09 -2.65145e-28)
(-7.92905e-10 1.91954e-09 0)
(-9.53266e-10 -1.21008e-09 -3.00366e-27)
(-4.4494e-10 3.00672e-09 2.18632e-27)
(-7.52334e-10 8.39288e-11 0)
(-8.6024e-10 1.85581e-09 -1.85055e-28)
(-9.42256e-10 1.64537e-09 -1.9251e-28)
(-8.86282e-10 7.36145e-10 2.65653e-27)
(-6.26286e-10 2.25434e-09 8.84521e-28)
(-1.00502e-09 5.89757e-11 -2.70905e-27)
(-9.10299e-10 1.38664e-09 -1.5296e-27)
(-8.08617e-10 2.1847e-09 1.8956e-27)
(-1.04563e-09 6.26286e-10 0)
(-1.07039e-09 4.50583e-11 0)
(-4.42875e-10 2.03294e-09 -2.70361e-28)
(-1.01623e-09 5.13005e-10 -5.52706e-29)
(-1.0149e-11 2.80871e-09 0)
(-7.41364e-10 1.52161e-09 0)
(-3.68124e-11 1.58396e-09 0)
(-7.3382e-10 1.11379e-09 -1.00853e-27)
(-5.28278e-10 1.80419e-09 -1.1702e-27)
(-6.78959e-10 -6.82529e-10 -2.67147e-27)
(-3.79986e-10 -6.59028e-10 5.08956e-27)
(-9.55219e-10 3.05372e-11 0)
(-8.33003e-10 3.90507e-10 0)
(1.35274e-09 -9.39812e-10 0)
(-5.77997e-11 8.23436e-10 -1.80889e-27)
(-7.15711e-10 3.04736e-12 -1.81115e-27)
(-3.09751e-10 7.28037e-10 0)
(-5.74716e-10 2.92656e-10 1.72677e-27)
(-2.91326e-10 -4.68461e-10 5.24125e-27)
(-4.63278e-10 -3.33163e-12 1.54311e-27)
(-7.09925e-10 3.75127e-10 1.29192e-27)
(-3.65091e-10 2.39386e-10 -1.54315e-27)
(-1.31729e-09 6.04608e-11 -4.80444e-27)
(-3.18865e-10 -5.61328e-13 -3.98008e-30)
(8.73212e-10 -7.32939e-10 -1.21251e-28)
(-6.28659e-10 2.84679e-10 -3.01927e-27)
(-5.3891e-10 4.28749e-10 -1.30943e-27)
(3.17893e-10 2.0967e-09 -5.52712e-27)
(-3.30793e-10 1.89558e-10 0)
(-1.03756e-09 -1.53961e-12 5.49217e-28)
(-4.58964e-10 5.69885e-10 -1.1022e-27)
(-7.23125e-09 -3.38172e-09 1.35447e-27)
(-4.47623e-10 -2.41693e-12 0)
(-6.64112e-10 1.2789e-10 0)
(-2.16747e-10 -2.44727e-09 -4.20156e-27)
(-4.97878e-11 -6.92043e-10 0)
(-6.17745e-10 -9.59594e-11 -1.40527e-27)
(-9.54388e-10 -1.82165e-10 1.53836e-29)
(1.29111e-09 -8.38465e-10 -1.09903e-28)
(-8.24178e-11 -1.41334e-09 0)
(3.57678e-10 -1.60635e-09 -2.08727e-27)
(-1.27187e-09 -2.17411e-10 -3.55425e-27)
(-1.3152e-09 -5.52928e-11 -3.32804e-27)
(-9.40914e-11 -1.19095e-09 -5.42207e-27)
(-4.60775e-09 1.78872e-09 0)
(1.03889e-09 -1.22662e-09 0)
(-2.07779e-09 1.7287e-10 3.41467e-27)
(-2.65763e-09 6.22428e-10 2.37797e-29)
(-3.8548e-09 8.181e-10 -1.90721e-29)
(1.32572e-09 -1.20327e-09 -3.93952e-27)
(8.3181e-10 -1.85703e-09 7.18078e-27)
(-7.44257e-10 -1.08243e-09 2.72946e-27)
(-2.51294e-10 -2.08751e-09 8.72093e-27)
(-8.67279e-11 -9.63088e-10 0)
(-1.18186e-10 -1.18662e-09 1.09782e-28)
(-2.3045e-10 -1.41342e-09 -4.25448e-27)
(-3.59374e-09 2.37029e-09 1.01473e-26)
(-1.71174e-09 -2.46198e-10 2.48729e-27)
(-3.02637e-09 -2.31448e-10 -5.99932e-28)
(-4.0158e-09 -3.68051e-09 -1.76981e-26)
(-2.89803e-09 -9.56819e-09 2.05777e-26)
(-3.29746e-10 2.52252e-09 7.94604e-28)
(-5.09207e-10 -8.78167e-10 -2.64645e-27)
(-3.07761e-10 -7.29654e-10 -5.17766e-27)
(-2.02872e-10 2.16083e-09 7.65074e-28)
(-1.1423e-09 1.63679e-09 -2.86373e-26)
(-1.13916e-11 -9.09615e-10 -5.35189e-27)
(-5.63353e-11 -3.07062e-09 -3.30038e-27)
(1.42452e-09 -7.00462e-10 -9.3926e-29)
(-9.06164e-10 -8.45622e-10 0)
(-5.23683e-09 -6.15757e-10 -4.82809e-30)
(-2.72187e-10 -5.94892e-10 -5.3578e-27)
(-5.57706e-10 -4.10524e-10 0)
(-5.12186e-11 -5.64419e-10 4.29742e-27)
(-2.25929e-09 1.46348e-09 0)
(3.53172e-10 -9.15335e-11 0)
(-4.7235e-09 -1.75441e-09 -4.22376e-27)
(7.20659e-10 1.46478e-09 5.06925e-27)
(-3.27058e-10 -1.74443e-09 -1.55674e-29)
(-1.28299e-09 1.094e-09 1.35417e-26)
(-1.14324e-10 -1.13934e-09 4.28921e-27)
(-4.10032e-09 1.74434e-11 6.04162e-28)
(1.16934e-10 -1.22355e-09 1.89973e-28)
(1.35689e-10 -9.16595e-10 -6.19573e-28)
(-5.42736e-09 -3.07494e-09 5.30017e-27)
(8.15197e-10 -1.0324e-09 0)
(-2.02762e-09 7.43604e-10 -7.18213e-27)
(3.77695e-10 3.08343e-09 -2.53838e-27)
(-1.26649e-08 5.98049e-09 -2.11764e-27)
(8.4803e-11 8.64748e-12 -2.20226e-27)
(-4.32503e-10 -5.66027e-10 5.13468e-27)
(-1.92409e-10 -3.24411e-09 -3.43871e-30)
(1.08647e-09 -1.18056e-09 -3.58481e-27)
(9.15535e-10 1.67759e-09 -4.86175e-27)
(1.18221e-10 -1.24216e-11 -4.02971e-27)
(-5.1545e-11 -9.28643e-10 -6.33079e-28)
(3.95402e-10 3.05396e-09 5.06484e-27)
(4.86818e-11 -2.04785e-11 2.04258e-27)
(-1.04387e-08 -1.54512e-08 0)
(-9.66765e-10 -1.86983e-10 -7.58274e-29)
(-1.16169e-09 1.5255e-10 7.12909e-27)
(-4.0612e-10 -3.63527e-10 2.66975e-27)
(5.96202e-10 -3.73287e-10 1.87615e-27)
(7.06799e-11 -5.70519e-10 1.12739e-27)
(-6.20871e-10 -2.25797e-09 3.58223e-27)
(2.16879e-10 9.43681e-13 4.93262e-27)
(-3.88136e-10 -2.95714e-09 0)
(1.15836e-09 -1.55892e-09 -1.0105e-28)
(1.77547e-10 -3.42455e-11 -2.32326e-27)
(-2.4071e-10 -1.71441e-09 0)
(-3.73005e-10 -2.14492e-09 -4.34264e-27)
(9.34928e-10 -2.28487e-09 -2.89067e-27)
(-2.27989e-09 1.0536e-08 2.65874e-26)
(-8.14401e-12 1.07563e-12 0)
(-6.63484e-10 4.45511e-09 -1.43566e-26)
(1.99186e-13 -7.62576e-12 -2.66911e-27)
(-8.79432e-09 1.57216e-08 0)
(7.83832e-11 4.78024e-11 -3.2309e-27)
(-1.27809e-08 -1.90772e-09 1.2393e-27)
(5.66029e-11 5.87697e-11 1.77568e-27)
(-3.80108e-09 1.11137e-08 0)
(-7.59208e-09 -1.36167e-08 4.98173e-28)
(1.0354e-11 -1.74137e-12 3.22394e-27)
(7.38652e-10 -2.65254e-10 0)
(-3.62521e-10 1.49925e-09 0)
(-9.78881e-10 -3.44424e-09 0)
(4.02092e-10 8.93585e-10 4.07988e-27)
(6.16357e-11 -3.42527e-11 0)
(-5.85051e-10 -1.6652e-09 3.88432e-26)
(-1.55653e-09 -7.31561e-10 -5.84904e-28)
(-2.14505e-10 1.40733e-09 0)
(-3.258e-10 -4.77374e-10 2.32851e-27)
(8.21118e-10 8.42663e-11 0)
(-4.19386e-09 -5.00927e-09 1.00131e-26)
(3.73287e-10 2.48576e-09 9.3063e-27)
(-1.43647e-10 1.47725e-10 2.46025e-26)
(4.34464e-10 1.38568e-09 1.97419e-27)
(6.01903e-12 4.94453e-10 0)
(-2.93248e-11 1.01655e-09 2.10269e-27)
(-1.13546e-10 1.1498e-09 0)
(-2.30537e-10 7.89419e-10 -1.32703e-29)
(-5.62475e-10 1.16794e-09 1.152e-28)
(-3.13292e-10 6.1726e-10 0)
(-3.50663e-10 9.2538e-10 -4.60061e-28)
(4.82432e-10 3.40579e-10 -3.27809e-27)
(-4.94381e-11 7.01674e-10 0)
(-6.52568e-11 9.88554e-10 0)
(-4.70449e-10 2.86546e-09 -8.27417e-28)
(-5.58333e-10 2.46349e-09 0)
(-5.00624e-11 1.16361e-09 1.05299e-28)
(-7.42548e-11 1.30586e-09 3.22941e-27)
(-2.8097e-10 2.52481e-09 -1.76324e-27)
(9.02779e-10 2.1406e-09 -4.36339e-27)
(5.53876e-10 2.47634e-09 0)
(1.19302e-09 1.33515e-09 -1.14626e-26)
(2.15846e-10 2.79951e-09 0)
(-2.62041e-09 -2.54374e-09 9.13494e-27)
(-1.07918e-08 1.53741e-08 0)
(4.2984e-11 1.18337e-11 0)
(-8.89193e-09 -1.60541e-08 0)
(2.99961e-12 -1.32159e-11 -1.5769e-27)
(-1.30779e-08 -1.22727e-10 3.10216e-27)
(-1.18008e-08 -1.07326e-08 0)
(-8.38558e-10 -4.64409e-09 0)
(5.06673e-13 7.17972e-12 2.68892e-27)
(-2.50984e-09 -1.04249e-08 0)
(-6.93925e-12 1.38626e-12 -3.49964e-27)
(-1.14335e-08 9.02182e-09 2.431e-27)
(3.88566e-10 -2.58922e-10 2.16666e-27)
(3.13657e-10 8.23119e-11 0)
(1.07221e-09 5.2905e-10 2.9598e-27)
(4.65526e-10 1.17895e-10 0)
(-8.99041e-09 1.25538e-08 0)
(-4.15755e-10 -2.05655e-09 0)
(2.15171e-10 -2.0758e-10 1.19607e-28)
(2.43147e-10 1.10396e-10 2.90672e-27)
(-1.21402e-08 9.87004e-09 -2.41304e-27)
(2.96806e-10 -1.41199e-10 2.40289e-27)
(1.44598e-10 1.57998e-11 3.19514e-27)
(-6.27381e-09 -6.79095e-09 6.66097e-27)
(-1.91942e-10 -3.85488e-10 -1.77367e-26)
(-6.80887e-09 -1.7399e-08 -1.28957e-26)
(-2.52371e-09 -1.53054e-09 4.02306e-27)
(-5.46082e-11 2.04554e-10 -9.22913e-27)
(-2.17829e-11 4.18799e-10 3.99707e-27)
(-1.2507e-11 2.57234e-10 -2.88527e-27)
(-1.55235e-09 6.60477e-09 3.51035e-26)
(9.49621e-12 5.8626e-12 3.97698e-27)
(-2.76741e-10 5.31178e-10 1.42696e-29)
(-3.49163e-11 9.18906e-10 -5.96626e-29)
(5.09486e-10 5.51808e-10 6.41865e-27)
(-5.10936e-10 7.91754e-10 1.5336e-27)
(-2.39466e-11 3.65475e-10 0)
(-6.17112e-11 7.36438e-10 -1.56805e-28)
(1.09297e-09 8.89173e-10 -3.0984e-27)
(-3.39006e-11 3.91118e-10 0)
(2.71457e-10 9.63012e-10 -4.1174e-27)
(-6.45599e-10 2.61047e-09 0)
(-2.04588e-11 5.59677e-10 -4.19904e-28)
(-8.66918e-11 1.95945e-09 1.76201e-28)
(1.33286e-10 2.45969e-09 -1.95486e-27)
(1.31725e-09 1.26772e-09 8.25762e-27)
(3.79857e-10 2.05019e-09 -1.35517e-28)
(1.16593e-09 1.70755e-09 -2.93411e-27)
(1.87093e-10 2.28712e-09 -3.3123e-27)
(1.15952e-09 1.52049e-09 2.97192e-27)
(-7.90599e-11 3.05735e-09 1.32805e-27)
(-4.87081e-11 9.25194e-10 0)
(-1.29607e-08 -6.11485e-09 -2.04076e-27)
(-2.35355e-10 7.61763e-10 3.08139e-27)
(8.80665e-10 5.08309e-10 0)
(-2.78659e-10 3.12668e-09 -2.40717e-27)
(-1.96717e-10 1.34847e-09 0)
(-3.75535e-10 1.66301e-09 6.9728e-28)
(3.0926e-11 -3.99981e-11 -1.93759e-27)
(1.51708e-10 -8.52359e-11 -1.305e-28)
(1.11054e-10 -1.07612e-10 -1.86218e-28)
(-3.65279e-12 -3.96276e-12 3.51233e-27)
(-1.15459e-09 -5.79601e-09 0)
(-4.74236e-09 -1.40023e-08 3.47419e-27)
(7.35548e-10 7.14901e-10 -8.06774e-27)
)
;

boundaryField
{
    back
    {
        type            empty;
    }
    front
    {
        type            empty;
    }
    left
    {
        type            noSlip;
    }
    top
    {
        type            uniformFixedValue;
        uniformValue    
        {
            type            scale;
            scale           
            {
                type            squarePulse;
                start           0.3;
                duration        0.3;
            }
            xScale          
            {
                type            constant;
                value           1;
            }
            value           
            {
                type            constant;
                value           (0 -0.7 0);
            }
        }
        value           uniform (0 -0 0);
    }
    right
    {
        type            noSlip;
    }
    bottom
    {
        type            zeroGradient;
    }
}


// ************************************************************************* //
