/*--------------------------------*- C++ -*----------------------------------*\
  =========                 |
  \\      /  F ield         | OpenFOAM: The Open Source CFD Toolbox
   \\    /   O peration     | Website:  https://openfoam.org
    \\  /    A nd           | Version:  9
     \\/     M anipulation  |
\*---------------------------------------------------------------------------*/
FoamFile
{
    format      ascii;
    class       volScalarField;
    location    "0.63";
    object      p;
}
// * * * * * * * * * * * * * * * * * * * * * * * * * * * * * * * * * * * * * //

dimensions      [0 2 -2 0 0 0 0];

internalField   nonuniform List<scalar> 
90
(
-1.98738e-09
1.72204e-10
-2.13878e-09
-2.23937e-09
-1.80563e-09
2.01633e-10
-1.77433e-09
-1.0243e-10
-1.61131e-09
4.31006e-10
-1.79191e-09
-6.82635e-11
-1.63795e-09
-1.53621e-10
-9.52319e-10
-1.00799e-09
-1.46698e-09
-2.13506e-09
-2.01847e-09
-1.54168e-09
2.70082e-09
2.17013e-10
-5.74248e-10
-5.76922e-10
8.46101e-10
-1.15929e-09
2.09161e-09
7.69001e-10
-2.77706e-09
-8.36303e-10
-1.8826e-10
-1.62951e-09
2.16432e-09
3.08321e-10
9.86301e-10
-7.05285e-10
-2.16745e-09
-1.95385e-09
1.80728e-09
-2.20922e-09
-1.69491e-09
-1.67525e-09
-3.32065e-10
-1.20181e-09
-1.75832e-11
-1.49503e-10
-1.30725e-12
-1.44632e-09
-1.65493e-09
-6.23648e-10
-2.10237e-09
-1.46164e-09
-6.27445e-10
3.80691e-10
-1.15451e-09
-1.25968e-09
-3.23558e-10
-3.40215e-10
1.08754e-09
-1.77588e-09
-1.07386e-09
-2.10721e-09
-2.09197e-09
-1.1415e-09
-1.00351e-09
-3.04137e-09
-1.41709e-09
-4.94671e-10
-2.7798e-09
-2.93115e-09
-1.68134e-09
8.86542e-10
-7.43209e-10
-2.64463e-09
-2.5501e-09
-3.37672e-10
2.15666e-09
-6.61502e-11
8.74697e-11
4.28116e-10
-2.80045e-09
-3.85533e-10
-6.51737e-10
-2.25546e-09
-1.21858e-09
-7.01772e-10
-1.16333e-10
-4.76134e-10
-1.71194e-09
2.08662e-09
)
;

boundaryField
{
    back
    {
        type            empty;
    }
    front
    {
        type            empty;
    }
    bottom
    {
        type            zeroGradient;
    }
    outer_arc
    {
        type            zeroGradient;
    }
    right
    {
        type            uniformFixedValue;
        uniformValue    
        {
            type            scale;
            scale           
            {
                type            squarePulse;
                start           0.3;
                duration        0.3;
            }
            xScale          
            {
                type            constant;
                value           1;
            }
            value           
            {
                type            constant;
                value           15.1;
            }
        }
        value           uniform 0;
    }
    inner_arc
    {
        type            zeroGradient;
    }
}


// ************************************************************************* //
