/*--------------------------------*- C++ -*----------------------------------*\
  =========                 |
  \\      /  F ield         | OpenFOAM: The Open Source CFD Toolbox
   \\    /   O peration     | Website:  https://openfoam.org
    \\  /    A nd           | Version:  9
     \\/     M anipulation  |
\*---------------------------------------------------------------------------*/
FoamFile
{
    format      ascii;
    class       surfaceScalarField;
    location    "0.63";
    object      phi;
}
// * * * * * * * * * * * * * * * * * * * * * * * * * * * * * * * * * * * * * //

dimensions      [0 3 -1 0 0 0 0];

internalField   nonuniform List<scalar> 
122
(
-8.27196e-16
3.89835e-16
4.37361e-16
-2.73645e-24
1.93178e-16
-1.93178e-16
-1.02595e-15
1.2722e-15
-2.46243e-16
6.02143e-17
-1.08617e-15
-1.19105e-15
1.19105e-15
2.59773e-16
5.46922e-16
-8.06694e-16
3.99697e-16
9.7387e-17
-4.97084e-16
7.3485e-16
-4.75077e-16
-3.89835e-16
3.63287e-16
2.65478e-17
-1.93178e-16
4.57222e-16
-2.64044e-16
7.33824e-16
-3.34127e-16
-4.57222e-16
1.25126e-15
3.74129e-16
8.98066e-16
-9.8878e-16
1.09251e-15
-6.01635e-16
-4.90875e-16
-3.45243e-16
3.45243e-16
-1.33851e-15
1.33851e-15
-6.73341e-16
3.10682e-16
3.62659e-16
8.8361e-16
2.08901e-16
6.0803e-16
-6.11083e-17
-1.79609e-16
-4.93732e-16
2.62787e-16
-1.62757e-15
2.89058e-16
-7.89324e-16
1.16345e-15
4.96012e-16
-1.32725e-16
2.6548e-17
-5.77851e-16
9.23094e-16
8.51944e-16
-9.13052e-16
2.74093e-16
4.05895e-16
-4.05895e-16
1.25126e-15
9.23093e-16
-7.97558e-16
7.97558e-16
5.40955e-16
-9.387e-16
1.47965e-15
-9.13219e-16
1.18731e-15
-2.23054e-16
6.60416e-16
3.03296e-17
-6.53927e-16
-2.00687e-16
7.50929e-18
-4.04824e-16
4.04824e-16
4.1305e-16
4.85016e-16
-1.18494e-15
-5.98171e-16
1.95923e-16
1.95923e-16
-7.15057e-16
1.64664e-16
5.50393e-16
-7.04477e-16
1.95923e-16
2.40898e-16
-9.55956e-16
6.01313e-16
-2.00687e-16
-6.57594e-16
6.87923e-16
-1.53061e-16
1.53061e-16
2.52834e-16
8.95884e-16
-4.82834e-16
-5.22936e-16
5.22936e-16
3.86525e-16
-2.04136e-16
5.90662e-16
4.61936e-16
-6.10009e-17
-4.61935e-16
7.48555e-16
-2.63539e-16
7.72565e-17
1.17042e-16
1.10245e-15
3.40044e-16
-3.40044e-16
-5.26132e-17
8.38914e-16
-5.2769e-16
)
;

boundaryField
{
    back
    {
        type            empty;
        value           nonuniform List<scalar> 0();
    }
    front
    {
        type            empty;
        value           nonuniform List<scalar> 0();
    }
    bottom
    {
        type            calculated;
        value           uniform 0;
    }
    outer_arc
    {
        type            calculated;
        value           uniform 0;
    }
    right
    {
        type            calculated;
        value           nonuniform List<scalar> 4(-8.27196e-16 6.23597e-16 -8.24367e-16 1.02797e-15);
    }
    inner_arc
    {
        type            calculated;
        value           uniform 0;
    }
}


// ************************************************************************* //
