/*--------------------------------*- C++ -*----------------------------------*\
  =========                 |
  \\      /  F ield         | OpenFOAM: The Open Source CFD Toolbox
   \\    /   O peration     | Website:  https://openfoam.org
    \\  /    A nd           | Version:  9
     \\/     M anipulation  |
\*---------------------------------------------------------------------------*/
FoamFile
{
    format      ascii;
    class       volVectorField;
    location    "0.63";
    object      U;
}
// * * * * * * * * * * * * * * * * * * * * * * * * * * * * * * * * * * * * * //

dimensions      [0 1 -1 0 0 0 0];

internalField   nonuniform List<vector> 
90
(
(-2.00051e-08 -7.38201e-09 1.81853e-25)
(-2.2699e-09 4.23999e-09 1.87139e-26)
(9.31548e-09 2.20787e-08 -1.16102e-25)
(8.22742e-09 3.55604e-08 1.14983e-25)
(6.44996e-09 2.28496e-08 6.77413e-26)
(-1.10567e-09 1.20903e-09 -1.48677e-26)
(-2.00603e-08 -4.6333e-09 -2.18618e-25)
(9.17735e-09 -2.24565e-08 2.0023e-26)
(-1.57347e-08 2.29762e-08 0)
(1.15593e-08 -2.13781e-08 0)
(-5.3177e-09 -7.7639e-09 -4.63824e-26)
(-2.54135e-09 1.49577e-08 3.54335e-27)
(-6.13877e-09 -4.33002e-09 -2.04609e-26)
(-2.02635e-09 5.16694e-09 -3.28609e-27)
(-6.32778e-09 2.82127e-08 0)
(2.31815e-09 2.96844e-08 0)
(1.81401e-08 3.60828e-08 -1.64702e-25)
(2.58744e-08 2.74079e-08 4.80741e-26)
(-1.65864e-08 2.03075e-08 0)
(-2.61638e-08 -1.67655e-08 -6.79487e-26)
(-1.03615e-09 -8.91418e-09 1.35967e-25)
(-1.81386e-08 -2.31944e-08 -3.72615e-26)
(1.17772e-08 -1.51009e-08 -4.46975e-26)
(-2.42331e-08 -6.51016e-09 6.27921e-26)
(5.92412e-09 -2.0516e-08 -3.23351e-26)
(1.24983e-08 -6.7912e-09 3.68672e-26)
(6.19789e-09 -1.08657e-08 -1.2937e-25)
(-2.64408e-08 -3.53329e-08 -5.94962e-27)
(3.14822e-08 3.171e-08 0)
(-3.16426e-09 -1.44797e-08 3.01706e-26)
(6.74315e-09 -1.98045e-08 -3.15067e-26)
(-1.58521e-10 -4.08672e-09 -7.76289e-26)
(-1.15364e-08 -2.26992e-08 2.40096e-26)
(4.76434e-09 -2.44334e-08 -2.72187e-26)
(-5.55018e-09 -2.70945e-08 1.76366e-26)
(3.91153e-10 1.14578e-08 1.67275e-26)
(8.96981e-09 3.50431e-09 0)
(1.43242e-08 2.05146e-08 0)
(-1.29744e-08 -1.723e-08 -4.69247e-26)
(-1.38418e-08 -1.60979e-08 -2.28197e-26)
(-2.85977e-08 -3.39585e-08 2.9881e-26)
(-3.17926e-08 -2.74327e-08 1.29485e-25)
(-1.40381e-09 -2.90355e-08 2.50046e-27)
(-2.17885e-08 -1.2086e-08 2.25681e-26)
(1.71988e-08 -1.76495e-08 9.60734e-27)
(-5.55962e-09 4.45237e-09 1.34256e-26)
(-7.88298e-09 1.66673e-10 -1.80741e-26)
(2.01529e-08 4.89985e-09 -5.64447e-26)
(-2.07681e-08 -1.88459e-08 7.51895e-26)
(-9.10823e-09 1.83367e-08 3.24468e-27)
(-1.52204e-08 -1.3952e-08 0)
(-4.41018e-09 -3.27843e-09 4.40096e-26)
(2.08437e-08 -1.17723e-08 2.44229e-28)
(-2.33393e-08 -3.3681e-08 0)
(-1.97873e-09 -2.4769e-09 -7.83521e-26)
(2.69118e-08 7.9651e-10 3.52548e-28)
(-2.2542e-08 -1.73e-08 -1.66633e-26)
(-3.0653e-09 1.12755e-09 0)
(2.62464e-08 -1.35555e-08 0)
(5.05287e-09 -3.1486e-09 1.04887e-25)
(-3.13178e-08 -1.28601e-08 -7.56206e-26)
(1.15063e-08 2.66618e-09 0)
(3.46369e-09 -1.18763e-10 9.77632e-26)
(-3.69385e-09 -2.13802e-08 1.8282e-26)
(-2.25747e-08 -2.89032e-08 -9.54959e-26)
(1.0641e-08 7.82271e-09 -1.32653e-25)
(-2.39411e-08 7.73048e-09 0)
(-1.88411e-08 7.49215e-09 0)
(2.39648e-08 2.54906e-08 1.09733e-26)
(1.84043e-08 1.56394e-08 -9.24535e-26)
(2.80377e-08 5.66491e-09 0)
(1.91716e-08 -1.28687e-08 4.85234e-26)
(1.95236e-08 -1.19004e-08 0)
(1.75729e-08 1.01263e-08 -1.42061e-25)
(3.2608e-08 2.47176e-08 9.3345e-26)
(-1.24832e-08 -5.54238e-09 2.35737e-26)
(8.72639e-09 -1.02289e-09 -2.76794e-26)
(-1.08735e-08 -3.2752e-08 0)
(1.37985e-08 -1.87854e-08 1.26505e-26)
(2.92064e-08 -5.23616e-09 6.48508e-26)
(9.67883e-09 8.92675e-09 1.16223e-25)
(1.94395e-11 -2.11669e-08 4.87783e-27)
(-1.21872e-08 2.65619e-09 2.78557e-26)
(3.51744e-08 1.774e-08 -6.23474e-26)
(1.99846e-08 1.73931e-10 2.01429e-26)
(-1.29909e-08 1.15995e-08 -1.57269e-26)
(3.04083e-09 -2.05422e-08 -9.49856e-27)
(-8.39232e-09 -1.69015e-08 -1.72003e-26)
(3.03e-08 1.17126e-08 2.00517e-25)
(1.30958e-08 -6.97907e-09 -4.69914e-26)
)
;

boundaryField
{
    back
    {
        type            empty;
    }
    front
    {
        type            empty;
    }
    bottom
    {
        type            uniformFixedValue;
        uniformValue    
        {
            type            scale;
            scale           
            {
                type            squarePulse;
                start           0.3;
                duration        0.3;
            }
            xScale          
            {
                type            constant;
                value           1;
            }
            value           
            {
                type            constant;
                value           (0 0.7 0);
            }
        }
        value           uniform (0 0 0);
    }
    outer_arc
    {
        type            noSlip;
    }
    right
    {
        type            zeroGradient;
    }
    inner_arc
    {
        type            noSlip;
    }
}


// ************************************************************************* //
