/*--------------------------------*- C++ -*----------------------------------*\
  =========                 |
  \\      /  F ield         | OpenFOAM: The Open Source CFD Toolbox
   \\    /   O peration     | Website:  https://openfoam.org
    \\  /    A nd           | Version:  9
     \\/     M anipulation  |
\*---------------------------------------------------------------------------*/
FoamFile
{
    format      ascii;
    class       volScalarField;
    location    "1.82";
    object      p;
}
// * * * * * * * * * * * * * * * * * * * * * * * * * * * * * * * * * * * * * //

dimensions      [0 2 -2 0 0 0 0];

internalField   nonuniform List<scalar> 
1655
(
10.891
10.8797
10.883
10.8893
10.8844
10.8837
10.8808
10.8834
10.8751
10.8844
10.8864
10.8875
10.8839
10.8832
10.8823
10.8798
10.8787
10.8757
10.8786
10.8831
10.8792
10.8748
10.8844
10.8846
10.8905
10.8806
10.8797
10.8779
10.8794
10.8796
10.8732
10.8812
10.8823
10.8875
10.8761
10.8868
10.8838
10.8802
10.8824
10.879
10.8792
10.8846
10.8828
10.8761
10.8811
10.8879
10.8876
10.8809
10.8844
10.8829
10.8834
10.8805
10.8805
10.8768
10.8765
10.8812
10.8794
10.8889
10.8883
10.8815
10.8769
10.8812
10.8894
10.8829
10.8743
10.8712
10.8796
10.888
10.8752
10.8848
10.8888
10.8746
10.8795
10.8811
10.8865
10.8807
10.88
10.8763
10.8793
10.8796
10.8742
10.8807
10.8757
10.8757
10.8797
10.8804
10.8871
10.8793
10.8751
10.8801
10.8799
10.8853
10.878
10.8845
10.8827
10.8792
10.879
10.8889
10.8841
10.8808
10.8861
10.8758
10.8845
10.8752
10.8745
10.8816
10.8819
10.8796
10.8808
10.8808
10.8816
10.8896
10.881
10.8797
10.8829
10.8801
10.8824
10.8896
10.875
10.8754
10.8814
10.8865
10.8843
10.8791
10.8768
10.8843
10.8829
10.8827
10.8801
10.88
10.8842
10.8814
10.8829
10.8843
10.8796
10.878
10.8845
10.8806
10.8794
10.8817
10.8813
10.8798
10.8803
10.8848
10.8736
10.8862
10.8831
10.8816
10.882
10.8694
10.8765
10.8681
10.8859
10.8836
10.8804
10.883
10.8746
10.8837
10.8824
10.8746
10.8832
10.8736
10.8768
10.8847
10.8851
10.888
10.8779
10.8836
10.8768
10.8745
10.8771
10.8781
10.8819
10.8801
10.8795
10.881
10.8844
10.8772
10.8799
10.8832
10.8809
10.8785
10.883
10.8806
10.881
10.8799
10.8806
10.88
10.8772
10.8797
10.8812
10.8807
10.8784
10.875
10.8801
10.8796
10.8776
10.8801
10.8758
10.88
10.8858
10.8859
10.8853
10.882
10.8788
10.8792
10.8822
10.8788
10.8801
10.8868
10.8716
10.872
10.8791
10.8838
10.8833
10.8817
10.8868
10.8744
10.8644
10.881
10.8808
10.8792
10.8824
10.882
10.8822
10.8802
10.88
10.8794
10.8556
10.8511
10.8808
10.8445
10.8442
10.8775
10.8819
10.8812
10.8802
10.8792
10.8798
10.8525
10.8807
10.8809
10.8557
10.8795
10.8819
10.8794
10.8653
10.8779
10.8799
10.8817
10.8766
10.8795
10.878
10.8743
10.8818
10.8674
10.8805
10.8822
10.878
10.8826
10.8723
10.8797
10.8799
10.8664
10.8784
10.8831
10.8826
10.8832
10.8819
10.8832
10.8807
10.8782
10.8812
10.8797
10.8787
10.8789
10.8636
10.8816
10.8765
10.8743
10.8781
10.8832
10.8798
10.8808
10.8809
10.879
10.8792
10.8814
10.8824
10.8772
10.8782
10.8793
10.8829
10.8787
10.8801
10.8811
10.8832
10.8595
10.8795
10.8802
10.8812
10.8845
10.8844
10.8808
10.8798
10.8776
10.8809
10.8797
10.8806
10.8797
10.8801
10.872
10.8798
10.8724
10.8828
10.8806
10.8793
10.8779
10.8795
10.8807
10.8792
10.8831
10.8814
10.881
10.8812
10.8899
10.8907
10.883
10.8803
10.8774
10.882
10.8801
10.8831
10.8796
10.88
10.8796
10.8779
10.8828
10.8801
10.8798
10.881
10.8805
10.8799
10.8481
10.8812
10.8807
10.8831
10.8809
10.8807
10.8795
10.8849
10.8783
10.8452
10.8814
10.8772
10.8795
10.8803
10.8801
10.881
10.8793
10.8812
10.8823
10.8771
10.8759
10.8818
10.8809
10.8802
10.885
10.881
10.8809
10.8811
10.8816
10.8809
10.8798
10.8848
10.8805
10.8778
10.8834
10.8808
10.8804
10.8806
10.8748
10.8836
10.8764
10.8806
10.8784
10.8796
10.8816
10.8802
10.8796
10.8794
10.8778
10.8782
10.8799
10.8804
10.8794
10.8793
10.8795
10.878
10.8824
10.8799
10.8817
10.8745
10.883
10.877
10.8815
10.8804
10.8777
10.8804
10.8774
10.8846
10.8741
10.8773
10.8771
10.8814
10.8717
10.8812
10.8461
10.8778
10.8791
10.8828
10.8747
10.8846
10.8791
10.8788
10.865
10.8481
10.8803
10.8795
10.8751
10.8805
10.8827
10.8788
10.8846
10.8732
10.873
10.8808
10.879
10.8846
10.8711
10.88
10.8776
10.8773
10.8789
10.8777
10.8728
10.8785
10.8774
10.8779
10.8775
10.876
10.8586
10.876
10.8764
10.8746
10.8758
10.8815
10.8783
10.8764
10.883
10.873
10.8769
10.874
10.863
10.8833
10.8838
10.8772
10.8786
10.8737
10.8734
10.8734
10.8807
10.8757
10.877
10.8601
10.8743
10.8755
10.8744
10.864
10.8853
10.8793
10.8772
10.8709
10.8787
10.8757
10.8748
10.8834
10.884
10.877
10.8802
10.8597
10.8803
10.8697
10.8698
10.8697
10.8744
10.8594
10.8856
10.8727
10.8693
10.8773
10.877
10.8857
10.8687
10.8603
10.8741
10.8805
10.8736
10.8655
10.882
10.8829
10.8719
10.876
10.8766
10.8832
10.8699
10.8657
10.8647
10.8594
10.8655
10.8482
10.8454
10.8733
10.8646
10.8636
10.8588
10.879
10.8704
10.8682
10.8626
10.8814
10.8804
10.8811
10.8856
10.8826
10.8787
10.8846
10.893
10.8758
10.8898
10.8781
10.8716
10.8806
10.8876
10.8767
10.8839
10.8892
10.8814
10.877
10.8756
10.8923
10.8717
10.8765
10.8766
10.868
10.8573
10.8857
10.879
10.8708
10.8798
10.8568
10.8719
10.8631
10.8721
10.8828
10.8621
10.8572
10.8784
10.8789
10.8661
10.8761
10.8744
10.8841
10.8756
10.8701
10.8604
10.8724
10.8774
10.8551
10.8737
10.8796
10.8821
10.8816
10.8654
10.8712
10.8831
10.8806
10.8471
10.8718
10.8521
10.88
10.8463
10.8499
10.8562
10.8593
10.8567
10.8746
10.882
10.8629
10.876
10.8672
10.8717
10.8783
10.8822
10.8672
10.8698
10.8863
10.8816
10.8796
10.8846
10.8722
10.8752
10.8804
10.8792
10.8826
10.8689
10.8529
10.8782
10.8663
10.8628
10.8517
10.8502
10.8555
10.8779
10.8564
10.8723
10.8474
10.8489
10.8539
10.8732
10.8693
10.8703
10.8605
10.8858
10.8764
10.8655
10.8837
10.8837
10.8756
10.8605
10.8815
10.887
10.8732
10.8827
10.8785
10.8835
10.8767
10.8857
10.869
10.877
10.8679
10.8794
10.8585
10.8699
10.8742
10.8859
10.8629
10.8721
10.8506
10.8486
10.8731
10.8699
10.8713
10.8658
10.8664
10.8739
10.8775
10.8788
10.8845
10.883
10.8676
10.8624
10.8747
10.8773
10.8725
10.8752
10.8735
10.8752
10.875
10.8756
10.8725
10.8707
10.8721
10.8634
10.87
10.8517
10.8824
10.8782
10.8696
10.8688
10.8696
10.8724
10.8812
10.8689
10.8798
10.8712
10.8759
10.8717
10.8829
10.8822
10.865
10.8791
10.8805
10.8711
10.8785
10.879
10.8735
10.8532
10.87
10.879
10.8563
10.8681
10.8603
10.8571
10.8532
10.8771
10.8733
10.8734
10.8702
10.8795
10.8683
10.8691
10.8801
10.8687
10.8832
10.8636
10.872
10.8731
10.8645
10.873
10.8739
10.8807
10.8762
10.8688
10.8817
10.8743
10.878
10.8752
10.8697
10.8748
10.8526
10.8833
10.8845
10.869
10.8692
10.8697
10.8735
10.8811
10.8745
10.8735
10.8751
10.8735
10.8795
10.8797
10.8697
10.8762
10.8753
10.8727
10.8739
10.8811
10.8659
10.8653
10.8786
10.8761
10.8798
10.8732
10.8734
10.8617
10.8776
10.8782
10.871
10.8742
10.8753
10.8808
10.8527
10.8657
10.8785
10.871
10.8694
10.87
10.875
10.877
10.8785
10.8756
10.8665
10.868
10.8803
10.871
10.8713
10.8611
10.8745
10.8747
10.8699
10.879
10.8805
10.8813
10.8521
10.8773
10.8815
10.8734
10.8819
10.8826
10.8816
10.8743
10.8739
10.8566
10.8795
10.8838
10.8764
10.8823
10.8558
10.8759
10.8799
10.8824
10.8794
10.8773
10.8809
10.8791
10.8818
10.878
10.8723
10.8805
10.8808
10.8838
10.8684
10.8723
10.8778
10.8786
10.8797
10.8722
10.8777
10.8807
10.8764
10.8789
10.8721
10.8785
10.8774
10.8785
10.8807
10.8805
10.8778
10.871
10.8783
10.8825
10.8816
10.8797
10.8799
10.8733
10.8738
10.8791
10.8711
10.8794
10.8788
10.8778
10.8797
10.8832
10.8748
10.8791
10.8785
10.8815
10.8827
10.8783
10.8781
10.8791
10.8783
10.8714
10.8835
10.8702
10.8785
10.8779
10.8772
10.8804
10.8836
10.8719
10.8783
10.8736
10.8778
10.8762
10.8644
10.8802
10.8773
10.8838
10.8809
10.8811
10.88
10.8723
10.8789
10.8706
10.8777
10.8811
10.8836
10.8813
10.8803
10.8716
10.8842
10.8799
10.881
10.8641
10.8792
10.8814
10.8765
10.8703
10.8777
10.8819
10.8844
10.8789
10.8727
10.8839
10.8772
10.8753
10.8796
10.8801
10.8806
10.8836
10.8834
10.8789
10.8794
10.8804
10.8775
10.8759
10.8791
10.884
10.8783
10.8681
10.8799
10.8795
10.8817
10.8763
10.879
10.8837
10.8806
10.8804
10.881
10.8833
10.8837
10.8783
10.8719
10.8727
10.8793
10.8786
10.878
10.8802
10.8809
10.8803
10.8716
10.8801
10.8846
10.8803
10.8809
10.8839
10.8836
10.8767
10.8791
10.8793
10.8755
10.8817
10.8786
10.8766
10.8784
10.8781
10.8811
10.8736
10.8796
10.878
10.8799
10.8806
10.8801
10.8772
10.8803
10.8818
10.8794
10.8786
10.8806
10.8737
10.8841
10.8841
10.8827
10.8834
10.8731
10.8793
10.8833
10.8797
10.8811
10.8802
10.8812
10.8836
10.8818
10.8794
10.8818
10.8816
10.8811
10.8779
10.8844
10.8803
10.8778
10.88
10.88
10.88
10.8784
10.8841
10.8842
10.8835
10.8789
10.8842
10.8806
10.8836
10.8776
10.8813
10.8808
10.8806
10.8809
10.8839
10.8835
10.8813
10.8783
10.8838
10.8807
10.8811
10.8809
10.8805
10.8825
10.8783
10.8799
10.8829
10.8808
10.8811
10.8831
10.8806
10.8812
10.8799
10.8683
10.8799
10.8797
10.8806
10.8815
10.8824
10.8805
10.8793
10.8807
10.8844
10.8814
10.8779
10.8779
10.8834
10.8808
10.8813
10.8805
10.8826
10.8804
10.881
10.88
10.8815
10.8813
10.8807
10.8795
10.8808
10.8813
10.8819
10.88
10.8758
10.8742
10.8808
10.8791
10.8809
10.8802
10.8832
10.881
10.8842
10.8825
10.8823
10.8823
10.8812
10.8811
10.8825
10.8822
10.883
10.8815
10.8793
10.879
10.879
10.8809
10.8794
10.883
10.8824
10.8792
10.8792
10.882
10.8805
10.8742
10.8822
10.8788
10.8792
10.8823
10.882
10.8795
10.882
10.879
10.8829
10.8738
10.8813
10.8799
10.8839
10.8817
10.8796
10.8804
10.8821
10.8835
10.8791
10.8806
10.8814
10.8827
10.8722
10.8826
10.8804
10.8839
10.8826
10.8805
10.8819
10.8805
10.8813
10.8732
10.8802
10.8737
10.874
10.8811
10.8806
10.8808
10.8511
10.8588
10.8828
10.8824
10.8799
10.8796
10.8829
10.8802
10.8785
10.8805
10.8826
10.8572
10.8803
10.8807
10.8496
10.8793
10.8797
10.8825
10.8831
10.8803
10.8825
10.8727
10.8439
10.8453
10.8828
10.88
10.8796
10.8789
10.8821
10.8802
10.8828
10.88
10.8798
10.8829
10.8464
10.8483
10.8805
10.8796
10.8833
10.8548
10.8475
10.8864
10.8828
10.8818
10.8806
10.8801
10.8548
10.8823
10.88
10.8797
10.8815
10.8709
10.8817
10.8814
10.8818
10.8786
10.8747
10.8804
10.8794
10.8765
10.8799
10.8791
10.8814
10.8793
10.8773
10.8776
10.8818
10.8792
10.8794
10.8748
10.8817
10.8823
10.8832
10.8821
10.8723
10.8856
10.8793
10.8801
10.8791
10.8844
10.8798
10.8793
10.8832
10.8745
10.8705
10.8793
10.8772
10.8782
10.8793
10.8793
10.8758
10.8551
10.8801
10.8826
10.8819
10.8822
10.854
10.8798
10.8845
10.8738
10.8445
10.8608
10.8804
10.8819
10.8791
10.8838
10.8843
10.8479
10.884
10.877
10.8794
10.8793
10.8794
10.8743
10.8845
10.851
10.8833
10.8843
10.8793
10.8841
10.8797
10.8793
10.8795
10.8879
10.8786
10.8603
10.8807
10.8725
10.8748
10.8687
10.8752
10.882
10.8797
10.8793
10.8768
10.8795
10.8786
10.8794
10.8761
10.8785
10.8783
10.8808
10.8783
10.8851
10.8796
10.8856
10.8863
10.8792
10.8832
10.8745
10.8806
10.8865
10.8796
10.8884
10.8797
10.8794
10.8829
10.8841
10.8846
10.8749
10.863
10.8792
10.8763
10.8793
10.8773
10.8746
10.8807
10.8759
10.8876
10.8758
10.8797
10.8744
10.8748
10.8805
10.8751
10.8729
10.8828
10.8842
10.8843
10.8793
10.8846
10.8759
10.8848
10.8815
10.8798
10.8846
10.885
10.8801
10.8826
10.88
10.877
10.8835
10.8836
10.8794
10.8794
10.8741
10.8722
10.87
10.878
10.8768
10.8821
10.8794
10.8769
10.8824
10.8741
10.8746
10.8828
10.869
10.8732
10.8775
10.8756
10.8934
10.8823
10.8831
10.8752
10.8914
10.8789
10.8812
10.8837
10.8801
10.8906
10.875
10.8901
10.8772
10.8761
10.8935
10.8818
10.8833
10.8751
10.8919
10.8905
10.8796
10.8817
10.8799
10.869
10.8796
10.8849
10.8848
10.8789
10.88
10.8798
10.8793
10.8831
10.8802
10.8646
10.8798
10.8831
10.8871
10.879
10.8827
10.8806
10.8876
10.8766
10.8848
10.8762
10.8806
10.8792
10.88
10.8804
10.8889
10.8833
10.8811
10.8746
10.8851
10.8772
10.8802
10.8818
10.8671
10.8832
10.8776
10.8815
10.8849
10.8832
10.8801
10.8813
10.8754
10.8811
10.8817
10.8766
10.893
10.8793
10.8844
10.8816
10.8893
10.8812
10.8803
10.8795
10.8804
10.8819
10.8843
10.8812
10.8841
10.8735
10.8916
10.8815
10.8829
10.881
10.8845
10.8844
10.8811
10.8809
10.8845
10.8826
10.8864
10.8792
10.877
10.8814
10.8809
10.888
10.8818
10.8871
10.8778
10.8745
10.8742
10.8843
10.8811
10.8822
10.8824
10.8765
10.8743
10.8809
10.8798
10.8797
10.8745
10.8799
10.8737
10.8796
10.883
10.8731
10.8841
10.8762
10.8804
10.8839
10.8808
10.8847
10.884
10.8831
10.8841
10.8807
10.8796
10.8694
10.8829
10.8858
10.8832
10.8849
10.8847
10.8806
10.8843
10.8824
10.8832
10.881
10.8909
10.8812
10.8808
10.8845
10.88
10.8765
10.8846
10.8798
10.8825
10.8753
10.8794
10.883
10.8806
10.8832
10.8795
10.885
10.8846
10.8849
10.8845
10.8843
10.8846
10.8846
10.8845
10.8846
10.8846
10.8825
10.8782
10.8763
10.8845
10.8796
10.8863
10.8874
10.8804
10.8753
10.891
10.8844
10.8686
10.8817
10.883
10.8778
10.8776
10.8864
10.8803
10.8845
10.8801
10.8767
10.8784
10.881
10.8813
10.8766
10.8841
10.8811
10.8876
10.8774
10.8754
10.8812
10.8801
10.8765
10.8787
10.8877
10.883
10.8771
10.8842
10.8773
10.8801
10.8795
10.8844
10.884
10.8897
10.882
10.883
10.8805
10.8772
10.8767
10.8845
10.8812
10.882
10.8665
10.8814
10.8842
10.8832
10.8847
10.8805
10.88
10.8876
10.8757
10.8842
10.8818
10.8747
10.8888
10.892
10.8842
10.8832
10.8804
10.8844
10.8868
10.8825
10.8806
10.8847
10.8766
10.8809
10.8852
10.8744
10.8802
10.8632
10.8845
10.8821
10.8831
10.8764
10.8745
10.8848
10.8769
10.8869
10.8868
10.8813
10.8837
10.8714
10.8844
10.8836
10.8797
10.8822
10.8736
10.882
10.8827
10.8746
10.8846
10.881
10.8822
10.881
10.8753
10.8822
10.8819
10.8806
10.8807
10.882
10.8756
10.8807
10.8832
10.8812
10.8831
10.8846
10.8805
10.8738
10.8771
10.8817
10.8831
10.8792
10.8849
10.8843
10.8832
10.8838
10.8871
10.8868
10.8837
10.8845
10.8858
10.8826
10.8747
10.8785
10.8832
10.8863
10.8809
10.8831
10.876
10.8797
10.8831
10.8846
10.8767
10.8805
10.882
10.8823
10.8756
10.881
10.8812
10.8812
10.8846
10.8755
)
;

boundaryField
{
    back
    {
        type            empty;
    }
    front
    {
        type            empty;
    }
    top
    {
        type            zeroGradient;
    }
    outer_arc
    {
        type            zeroGradient;
    }
    bottom
    {
        type            uniformFixedValue;
        uniformValue    
        {
            type            table;
            format          csv;
            file            "outlet_p.csv";
            nHeaderLine     1;
            refColumn       0;
            componentColumns List<label> 1(1);
            separator       ",";
            mergeSeparators 0;
        }
        value           uniform 10.8739;
    }
    inner_arc
    {
        type            zeroGradient;
    }
}


// ************************************************************************* //
