/*--------------------------------*- C++ -*----------------------------------*\
  =========                 |
  \\      /  F ield         | OpenFOAM: The Open Source CFD Toolbox
   \\    /   O peration     | Website:  https://openfoam.org
    \\  /    A nd           | Version:  9
     \\/     M anipulation  |
\*---------------------------------------------------------------------------*/
FoamFile
{
    format      ascii;
    class       volVectorField;
    location    "1.82";
    object      U;
}
// * * * * * * * * * * * * * * * * * * * * * * * * * * * * * * * * * * * * * //

dimensions      [0 1 -1 0 0 0 0];

internalField   nonuniform List<vector> 
1655
(
(0.0426762 -0.0877055 -3.85359e-18)
(-0.0101129 0.0240797 2.55013e-17)
(0.0187242 0.0941855 2.07e-17)
(0.0564959 -0.00784359 -1.23383e-17)
(0.0406486 0.0460067 0)
(0.0151902 0.0020262 7.7891e-18)
(-0.0360586 0.0839458 0)
(0.0359135 0.121094 -1.38015e-17)
(0.0721968 0.164909 0)
(0.0399243 0.0420257 -6.7537e-18)
(0.159947 -0.0929588 3.05805e-17)
(0.134824 -0.108909 -3.01363e-17)
(0.023253 0.0692929 -6.78122e-22)
(0.00569581 -0.0239217 -1.60706e-17)
(0.00366664 -0.0125772 1.59323e-17)
(0.0168819 -0.00888031 0)
(-0.0747447 -0.00336904 2.76996e-17)
(0.0446224 0.0404316 8.28433e-18)
(-0.0256607 -0.0240745 -3.10278e-17)
(0.00155968 -0.0200847 -8.923e-18)
(0.00577766 -0.0307218 3.63262e-18)
(0.069865 0.188444 0)
(0.0461295 0.0738539 -1.66683e-17)
(0.0371324 0.0646509 7.74278e-18)
(0.0531932 -0.107078 -4.83674e-18)
(-0.0533157 -0.00609088 -3.29063e-17)
(0.00873564 -0.00217287 -1.43866e-17)
(0.0586644 0.186897 -1.65667e-17)
(0.0496178 0.183711 2.23622e-17)
(-0.000706625 -0.0290643 -1.60551e-17)
(-0.120267 0.0627115 3.99626e-17)
(0.0984427 0.123239 -4.25936e-18)
(0.00925272 -0.0720131 -5.89806e-18)
(0.0502897 0.0288001 0)
(0.0466628 0.0456852 0)
(0.0316788 0.0129102 0)
(0.0242089 0.00510148 -2.09736e-17)
(-0.0116308 0.0317151 0)
(0.00715627 -0.0697879 -8.07133e-18)
(-0.019859 0.0399796 -2.75257e-17)
(0.000987641 -0.0157898 1.55854e-17)
(0.0434362 0.0641784 1.34701e-17)
(0.00700099 -0.0628158 -8.43948e-18)
(-0.0436269 -0.0225215 2.45377e-17)
(-0.0121287 0.000189216 0)
(0.0927675 -0.0147431 0)
(0.0764417 -0.00675471 3.8371e-17)
(-0.0149448 0.0107227 0)
(0.0388116 0.0271365 1.50393e-17)
(0.00748536 -0.0596327 2.05501e-18)
(0.0238208 0.00257001 2.31564e-17)
(0.0487606 0.115959 -1.53869e-17)
(0.0063435 0.0600072 -1.70153e-17)
(0.0717242 0.163993 1.48453e-17)
(0.0441113 0.00672611 -1.93408e-17)
(-0.0230348 0.000179688 0)
(-0.0015789 0.00431163 -7.54756e-18)
(0.185906 -0.0802005 0)
(0.179666 0.0156127 0)
(-0.00490268 0.017355 1.63729e-17)
(-0.122205 0.0499654 -3.99979e-17)
(-0.0100946 -0.0145017 0)
(0.0115876 -0.0884925 0)
(0.0487648 0.135742 -3.8155e-18)
(-0.0442955 -0.00815712 0)
(-0.0771006 0.0891771 0)
(-0.0240838 0.0339561 3.58364e-17)
(0.206767 -0.0470123 -1.75472e-17)
(0.0489927 0.0418947 0)
(0.0380652 0.0582343 -1.54067e-17)
(0.191624 -0.0634832 1.94506e-17)
(-0.0352848 0.0988633 -9.39938e-19)
(0.00254686 -0.0459674 -9.98467e-19)
(0.0173278 -0.0264161 1.46564e-17)
(-0.0545508 0.0180049 -1.8595e-17)
(0.000914909 0.0146323 8.75402e-18)
(0.0441648 0.165476 -5.0756e-18)
(0.056074 0.0232389 0)
(0.00307413 -0.00448041 0)
(-0.00137606 -0.0308209 0)
(-0.0451918 -0.00642124 1.97315e-17)
(-0.00748839 0.0223595 -8.90205e-18)
(0.0431449 0.00529501 1.97618e-17)
(-0.0391435 -0.0200284 9.89852e-18)
(0.00330111 -0.0474296 0)
(-0.0346115 0.00389616 0)
(-0.0428066 0.0231738 -1.12756e-17)
(0.00121088 -0.0388466 0)
(-0.0371155 0.04357 -7.7269e-18)
(-0.0474961 -0.00138207 0)
(-0.0500721 -0.000302966 0)
(0.017053 0.0706318 9.76664e-18)
(-0.0198161 -0.0186805 1.89914e-17)
(0.0236767 0.0148866 0)
(0.00451464 0.00525742 0)
(-0.0105635 -0.0227845 3.16131e-17)
(-0.0400597 0.0218419 -3.03506e-17)
(0.179494 -0.00452821 0)
(0.0995689 0.0995253 -9.12194e-18)
(0.0100259 -0.0796599 1.94793e-17)
(-0.00300724 0.0571934 -6.15102e-17)
(-0.0602439 0.00341768 -2.0006e-17)
(0.0337664 0.0259343 -1.96308e-17)
(-0.0571696 0.00227741 2.09887e-17)
(0.0399805 -0.00838938 0)
(0.00660886 -0.0144481 -1.21687e-18)
(0.0736942 0.132321 -1.68702e-17)
(-0.0019543 -0.0205425 0)
(0.0070029 -0.0791011 0)
(-0.0406191 -0.0067845 -1.72904e-17)
(0.00413891 -0.0795582 1.358e-17)
(0.130184 -0.100895 1.56087e-17)
(-0.0376702 -0.0122856 1.04601e-17)
(0.00517361 -0.0550038 1.78769e-17)
(0.0740502 0.11373 1.60357e-17)
(-0.0475582 0.00216367 -1.01448e-17)
(0.0720961 0.125154 -1.71496e-17)
(0.144809 0.00379507 0)
(-0.0371037 0.036065 1.53102e-17)
(0.0422401 -0.00943012 -3.43436e-17)
(-0.0322109 -0.0153859 -2.95192e-17)
(-0.0411298 0.00714098 3.02121e-17)
(-0.0757746 0.0345621 -2.3832e-17)
(0.0612122 0.086037 2.22347e-17)
(-0.0458217 0.0205602 7.78802e-18)
(0.0500731 0.102791 0)
(0.00560609 -0.0517441 -1.94151e-17)
(0.0141813 -0.00095537 1.75101e-17)
(0.0159954 -0.00363322 -2.42926e-18)
(0.00399378 -0.0631886 -2.32627e-18)
(0.058126 0.0300022 4.43958e-18)
(0.0040747 -0.08046 2.3965e-17)
(0.0565954 0.133951 1.47927e-17)
(0.0483369 0.0937191 1.55691e-17)
(-0.00135345 -0.00557951 0)
(-0.00619807 0.0363183 0)
(0.044181 0.0540222 -9.08789e-18)
(0.0178492 0.0470966 1.54261e-17)
(-0.00186124 0.00904412 8.24566e-18)
(-0.0135425 0.0327703 -8.14127e-18)
(0.0034987 0.0245015 1.06804e-17)
(0.0027197 0.00114985 1.47687e-17)
(0.00422803 -0.00157594 0)
(-0.025599 -0.00147106 0)
(-0.137808 0.0266967 -9.10839e-18)
(-0.0420243 0.00294996 0)
(-0.016215 -0.00510311 -3.18551e-17)
(-0.0125658 -0.00249493 2.55456e-17)
(-0.0100777 -0.0100778 1.65147e-17)
(-0.194354 0.0433093 0)
(-0.162264 0.032979 1.55617e-17)
(-0.189851 0.0423535 -8.37731e-18)
(-0.0725672 0.00842751 1.63669e-17)
(-0.113485 0.0194537 1.42338e-17)
(-0.0253825 0.00543541 0)
(0.00371698 -0.0490132 3.13206e-17)
(-0.0557214 -0.0123834 1.99596e-18)
(-0.0284527 -0.0152022 8.44565e-18)
(0.0763794 0.118347 0)
(-0.0636474 -0.00689723 -2.12896e-17)
(-0.0307399 -0.0166608 2.40843e-17)
(-0.00637757 -0.0435539 0)
(0.074161 0.13822 -8.15084e-22)
(-0.0259039 -0.00775987 0)
(-0.0394561 -0.00630287 0)
(0.207552 -0.00781787 -8.1272e-18)
(0.0675501 0.175126 0)
(0.0678363 0.111484 -3.23187e-17)
(-0.0583572 0.00767611 4.92739e-18)
(0.0536345 -0.00795091 0)
(-0.116492 -0.0198066 0)
(0.0573939 0.0281562 0)
(-0.0282873 -0.0209266 9.90294e-18)
(0.0777802 0.129328 1.70605e-17)
(0.000626615 -0.0418105 1.04362e-18)
(0.0771763 0.125377 1.69973e-17)
(0.0512974 0.029331 4.45559e-18)
(0.0546243 -0.0409253 0)
(0.0103868 -0.066741 -1.85599e-17)
(0.00239193 -0.0214431 1.459e-17)
(-0.0288436 0.00681012 2.123e-17)
(0.0522614 0.0105035 1.33479e-17)
(0.0042498 -0.00751617 -2.8372e-17)
(0.0416579 0.0721806 -4.84869e-18)
(-0.00236421 0.0135805 -9.35234e-18)
(0.0158361 -0.0740565 0)
(-0.00833273 0.0101801 0)
(0.0126661 -0.0717135 0)
(0.047192 0.0167212 0)
(0.0538052 0.0169785 -1.29812e-17)
(-0.00516236 0.00919262 -1.68479e-17)
(-0.00189708 -0.0116044 0)
(0.0329432 0.00246622 -1.73662e-17)
(0.0523335 0.138731 2.15766e-17)
(0.022505 -0.0803013 0)
(-0.00239717 -0.00890866 -1.05608e-17)
(0.0440946 -0.000549098 0)
(0.0185905 -0.0780325 0)
(-0.040125 0.0514335 2.00369e-17)
(0.0423484 0.0045428 0)
(0.0496819 0.0404442 1.11389e-17)
(0.036046 0.0262771 -4.98596e-18)
(-0.0388046 0.0428867 1.82451e-17)
(-0.0725299 0.0568765 4.05623e-17)
(-0.0376859 0.00492665 -1.54425e-17)
(0.0107766 -0.0323445 1.2284e-17)
(0.0204392 -0.0728695 0)
(0.0267603 0.0149219 0)
(0.00559116 -0.0678457 5.51012e-17)
(0.0102297 0.0253979 0)
(0.143925 0.175674 2.89141e-17)
(0.0874963 0.155608 -7.99241e-18)
(-0.00652386 0.0308533 0)
(0.0610761 0.112058 1.69007e-17)
(0.00416394 -0.0246309 -1.73477e-18)
(0.00141267 0.0479182 3.78468e-17)
(-0.00201577 0.0161223 -9.52079e-18)
(-0.0240235 -0.0127465 0)
(0.11569 0.177737 1.64566e-17)
(0.0343058 0.0170191 0)
(-0.0124221 0.0183168 0)
(0.00430537 -0.0421516 -3.54789e-17)
(0.013064 -0.069998 2.49578e-17)
(0.0373308 0.0495136 1.73387e-17)
(0.0158661 -0.0733433 -1.80153e-17)
(0.030017 -0.0852483 1.73214e-17)
(0.0311843 -0.0848955 -1.72601e-17)
(-0.0485587 0.00153811 0)
(0.0776233 0.141612 2.09338e-17)
(0.0764864 0.122454 1.67754e-17)
(0.0413354 -0.0724331 0)
(0.00694057 0.00979319 -2.12385e-17)
(0.0164946 -0.0317134 2.11989e-17)
(0.0679624 0.0210294 -3.32855e-17)
(0.0230139 -0.0763666 -1.7791e-17)
(0.0453434 -0.0755762 1.73572e-17)
(0.025566 -0.083323 0)
(0.00983411 0.017683 0)
(0.0275731 -0.0816615 2.15078e-17)
(-0.0260777 -0.143002 1.68332e-17)
(-0.0281171 0.00883456 -1.62108e-17)
(-0.00606438 0.0168183 3.0833e-17)
(-0.0146581 -0.17083 -2.10058e-17)
(-0.00468366 -0.00215046 1.47458e-17)
(0.026783 0.0461037 4.33375e-18)
(-0.00221214 -0.0241231 -2.18724e-17)
(-0.16246 0.0482517 1.28665e-17)
(0.0752417 0.136223 0)
(0.0229113 -0.0789963 -4.31254e-18)
(0.0399456 0.0344464 0)
(-0.0302948 -0.0204976 -1.40281e-17)
(-0.00231742 -0.0207979 3.50411e-18)
(0.0102496 0.0372553 -1.70641e-17)
(0.121393 0.163846 -1.21027e-17)
(0.0277915 -0.0766178 1.7489e-17)
(0.14138 0.191055 -2.06197e-17)
(0.0139965 -0.079229 -1.79605e-17)
(0.0372546 0.0585908 -4.3162e-18)
(0.0262885 -0.0770037 2.29335e-17)
(0.0139573 -0.0647736 1.64707e-17)
(0.0469355 -0.0530019 1.28155e-17)
(0.00974599 -0.0635316 1.77553e-17)
(0.0364803 -0.0867819 1.71899e-17)
(0.0860991 0.165595 1.66063e-17)
(-0.00574961 0.0317391 1.71026e-17)
(0.074727 0.104663 1.71232e-17)
(0.018819 -0.062868 0)
(0.00368222 -0.0380872 -2.42444e-17)
(0.0146823 -0.076567 9.41009e-18)
(0.00645448 -0.0385128 0)
(0.0228937 0.0625369 -1.82567e-17)
(0.0599974 0.0304004 1.30833e-17)
(-0.00726446 0.0104 9.04022e-18)
(0.0126192 -0.0665131 0)
(0.0635538 0.00142972 -1.55915e-21)
(0.0480216 0.0265097 -1.3198e-17)
(-0.168451 0.0417975 0)
(0.0313845 0.0587204 2.15479e-17)
(0.0444368 -0.0101858 -2.18571e-17)
(0.0869031 -0.112933 4.1914e-18)
(0.0445866 -0.0102937 1.77152e-17)
(0.0746443 0.0995716 4.29629e-18)
(0.0418463 0.0192429 1.75035e-17)
(0.0153342 0.0522799 1.53952e-17)
(-0.0071491 0.0157746 -2.90914e-17)
(0.0344832 0.0266406 -1.75619e-17)
(0.0309373 -0.002732 1.74772e-17)
(0.0112623 -0.0802513 1.56357e-17)
(0.0221055 -0.0678446 0)
(0.0585498 0.0380766 0)
(0.0377511 0.0240031 1.71785e-17)
(-0.000881928 -0.0140043 1.68018e-17)
(0.0154537 -0.0497349 3.63299e-17)
(0.0670061 0.050743 0)
(0.00104341 0.014515 -1.7467e-17)
(0.0286751 -0.0839839 4.37893e-18)
(0.0212374 0.0778585 0)
(0.112996 0.175444 -2.90956e-17)
(-0.00229739 0.00293283 -1.71083e-17)
(0.00972495 -0.0726255 -4.32982e-17)
(0.0166319 -0.0815262 -1.82035e-17)
(0.00464057 0.00212678 0)
(-0.00354838 -0.00724033 2.64523e-17)
(0.0343199 -0.0866439 -4.34985e-18)
(0.0383878 -0.0865417 -3.4365e-17)
(0.042873 -0.0101108 -1.85843e-17)
(0.0220089 -0.0831837 -4.41045e-18)
(0.0194528 -0.074707 4.3067e-18)
(-0.0238454 0.0286794 -4.34109e-18)
(0.0449699 -0.0882172 -1.71058e-17)
(0.00509498 0.0207271 0)
(-0.15505 0.0168488 9.1515e-18)
(0.0156812 -0.0717829 -4.3359e-18)
(0.064338 -0.0856329 -4.26758e-18)
(0.0767609 0.107039 0)
(-0.00954909 0.0237426 0)
(-0.00409021 0.00477693 -1.70899e-17)
(0.0455969 -0.00428695 -1.74619e-17)
(0.047678 -0.0882074 2.26025e-22)
(0.0160727 -0.0811886 1.90464e-17)
(0.0384661 -0.00656949 0)
(0.0137854 -0.0408896 -1.82967e-17)
(0.0149638 -0.0805158 2.40633e-18)
(0.0327162 -0.0852034 -4.36685e-18)
(0.0204952 -0.0823098 -1.77153e-17)
(0.115673 -0.0141086 2.44535e-17)
(0.0886291 -0.0135579 8.37509e-18)
(0.0758335 0.100263 -2.16372e-17)
(0.0146851 -0.0777215 0)
(0.046973 0.046519 -1.69953e-17)
(0.0307028 -0.0724258 0)
(0.0171697 0.00576238 1.74645e-17)
(0.00307939 -0.00904204 7.78981e-18)
(0.0195074 -0.0726753 -1.73487e-17)
(-0.0226737 0.027648 1.73801e-17)
(0.028403 -0.0804829 -1.29356e-17)
(0.0436764 0.0536057 1.27728e-17)
(0.0195525 -0.0556186 -1.81787e-17)
(0.0396923 -0.0884279 0)
(-0.00156605 0.0235912 0)
(0.0148026 -0.0816033 1.8776e-17)
(0.0401834 -0.088579 1.72794e-17)
(0.0507314 0.00999586 0)
(0.0413055 0.0824414 -2.09962e-17)
(0.0138078 0.0368704 0)
(0.0381658 -0.0877011 -3.03407e-17)
(0.00816876 -0.0341861 0)
(0.0259946 -0.0843519 4.39162e-18)
(0.0196667 -0.0824485 0)
(0.0119161 -0.0637427 0)
(0.0189906 0.0440412 0)
(-0.023164 0.0136049 1.69422e-17)
(0.0446968 0.0518385 0)
(0.0227944 -0.081258 1.76671e-17)
(0.0682427 0.0686201 0)
(0.0550845 -0.0897614 0)
(0.0375693 -0.088053 0)
(0.0451539 -0.0890104 -3.15809e-22)
(0.00288353 0.0470328 -1.72482e-17)
(0.0448291 -0.0830181 2.14244e-17)
(0.00801678 0.0395654 -1.47555e-17)
(0.0279188 -0.0669976 0)
(0.0717063 0.0942105 -4.63066e-18)
(0.0791334 -0.131232 1.68503e-17)
(-0.00169916 0.0161086 1.78008e-17)
(-0.00995331 0.0183626 -1.49804e-17)
(0.012554 -0.0742168 4.54732e-18)
(0.014456 0.0305546 -1.69715e-17)
(0.0166715 0.0113923 0)
(0.0439847 -0.0866014 0)
(-0.00945322 0.0129884 0)
(0.0209202 -0.0791287 1.76835e-17)
(-0.0116831 0.0229971 0)
(0.0547719 -0.0893098 0)
(0.0115283 0.0200091 0)
(-0.017683 0.040735 4.32437e-18)
(0.0981541 0.0479512 1.26858e-17)
(0.0639231 0.121721 -7.84317e-22)
(0.0423607 -0.0796032 4.29991e-18)
(0.0330177 -0.0868756 -1.73422e-17)
(0.0357404 -0.0545998 -4.41998e-18)
(0.0757415 -0.138868 0)
(0.0701113 0.103454 -1.77683e-17)
(0.0848186 -0.118872 -2.10366e-17)
(0.0273575 -0.0850263 -4.3612e-18)
(0.0724644 0.073459 0)
(0.0584592 -0.0906282 0)
(0.005153 0.0421438 -5.09436e-22)
(0.0178926 0.0195367 0)
(0.0342932 -0.0833026 -4.2993e-18)
(0.00882312 -0.00700746 1.6262e-17)
(-0.00734765 0.0201258 -1.70051e-17)
(0.0917265 0.0573196 -1.69282e-17)
(0.068129 0.0565472 0)
(0.044182 -0.0886659 0)
(0.0647765 -0.0898757 -1.69791e-17)
(0.0571015 -0.0906351 1.70049e-17)
(0.0109261 0.0240797 0)
(0.0756358 0.114221 0)
(0.115174 0.0458385 0)
(0.0483641 -0.0895593 -1.71079e-17)
(0.0394829 -0.0381826 3.60956e-17)
(0.0674798 -0.150888 4.20027e-18)
(0.0752357 0.0972213 -2.14404e-17)
(0.0547403 0.0304196 -4.24214e-18)
(0.0298415 -0.0800457 -1.75363e-17)
(0.0586539 0.0369269 1.7419e-17)
(-0.00238853 0.0132842 -2.13315e-17)
(-0.0062125 0.0169362 0)
(0.0878543 0.0397408 0)
(0.00864963 0.0101714 0)
(0.0501155 -0.165781 4.1924e-18)
(0.0800905 -0.112411 4.22793e-18)
(0.0688497 0.0401994 0)
(0.0342385 -0.0812954 0)
(0.0285604 -0.196162 -1.67189e-17)
(0.0536725 0.0477665 0)
(-0.0160999 -0.0715845 0)
(0.0820899 -0.10245 -1.27055e-17)
(0.0672146 -0.0930185 1.69619e-17)
(0.109942 0.0391394 1.68962e-17)
(0.0591415 -0.151957 -4.2035e-18)
(0.0497351 -0.00700586 4.27714e-18)
(0.0637534 -0.0929244 0)
(0.0760525 -0.0893394 1.6965e-17)
(-0.156332 0.00892232 -1.07128e-17)
(-0.00659263 -0.111214 0)
(0.0473525 -0.0891828 1.28879e-17)
(0.0243101 -0.0760296 1.73031e-17)
(0.160299 -0.00509233 2.10238e-17)
(0.0246258 -0.0837505 0)
(0.11601 -0.00912654 1.80212e-21)
(0.0737506 -0.0931932 0)
(0.0314107 0.030841 -5.56255e-18)
(0.0379157 -0.172739 1.25818e-17)
(0.0368227 -0.195046 -1.25519e-17)
(0.0420154 -0.0837307 1.7203e-17)
(-0.037487 -0.00245884 7.30743e-18)
(0.00440675 0.00484798 0)
(0.0310649 -0.206378 0)
(-0.00189195 0.00317854 1.4908e-17)
(0.0538329 -0.117418 0)
(0.0180869 0.0159053 2.13058e-17)
(0.0630534 -0.095735 0)
(0.0711177 -0.113591 0)
(0.0401815 -0.190776 -2.09202e-17)
(0.164991 -0.0190231 1.68221e-17)
(0.0634321 0.0485351 0)
(0.167682 -0.0162137 3.57572e-22)
(0.0145797 0.0321683 1.69782e-17)
(0.165068 0.00894863 -4.20094e-18)
(0.160843 0.00728612 -1.67529e-17)
(0.164609 0.0464097 -4.19347e-18)
(0.0681869 -0.13236 4.20942e-18)
(0.16103 0.0273862 -3.35919e-17)
(0.0474814 -0.139136 2.10549e-17)
(0.125986 0.0288101 0)
(0.0652363 -0.105653 0)
(0.162876 -0.0154495 0)
(0.0762834 -0.0106967 0)
(0.0653169 -0.128878 -4.20676e-18)
(0.0437204 -0.127144 -4.21227e-18)
(0.0802241 -0.129304 4.20291e-18)
(0.17521 0.0170208 -1.67659e-17)
(0.100425 0.0423881 -1.69106e-17)
(0.0655807 0.103927 3.4171e-17)
(0.064782 -0.121624 -4.21404e-18)
(0.06893 -0.100243 0)
(0.0175193 -0.17158 4.23376e-18)
(0.0574719 -0.143126 0)
(0.0419763 -0.138937 -1.68368e-17)
(0.0349704 -0.0736271 1.28743e-17)
(0.0598294 -0.142455 4.20631e-18)
(0.0364808 0.0281039 4.2473e-18)
(0.184408 0.0906995 1.6678e-17)
(0.0374921 -0.150685 -4.20314e-18)
(0.0234047 -0.143072 -2.94209e-17)
(0.0342846 -0.205869 -1.2537e-17)
(-0.0109111 -0.204598 1.26053e-17)
(0.106569 0.00753745 -8.10188e-18)
(0.0521886 -0.0866617 -2.13693e-17)
(0.0959963 0.029857 0)
(0.00634641 -0.196159 -4.1762e-18)
(0.165377 0.0396105 4.19781e-18)
(0.0296231 -0.176792 -4.18966e-18)
(0.0346668 -0.159668 -1.25895e-17)
(0.128053 -0.00389192 -1.67804e-17)
(0.139116 0.0296904 0)
(0.0608882 0.0211515 0)
(0.0591484 -0.0817614 -4.27241e-18)
(0.18744 0.127351 -3.75324e-17)
(0.15219 -0.0141968 -1.68312e-17)
(0.013806 -0.211754 4.17755e-18)
(0.0693855 0.0466667 -4.22392e-18)
(0.183258 -0.00870239 -1.67776e-17)
(0.0380612 -0.179544 4.19001e-18)
(-0.128785 0.0264612 -2.38511e-19)
(0.115931 0.0208471 0)
(0.035819 -0.207781 1.25347e-17)
(0.0849186 0.051555 2.10995e-17)
(0.189603 0.118312 0)
(0.0214786 -0.155259 1.68017e-17)
(0.0675011 0.0015635 8.55675e-18)
(0.205871 0.125165 2.08164e-17)
(-0.132969 -0.02412 0)
(0.214175 0.0903388 1.24972e-17)
(0.158702 0.0591221 -1.68084e-17)
(0.210644 0.117414 -4.16816e-18)
(0.169049 -0.0210992 -1.16231e-21)
(0.153245 0.0143222 -1.26286e-17)
(0.0929915 0.085665 1.27346e-17)
(0.203897 0.0285216 -2.08747e-17)
(0.095541 -0.0294894 -4.22286e-18)
(0.0300545 -0.187866 -4.18832e-18)
(0.143623 0.0496817 0)
(0.0712209 0.0595478 1.68938e-17)
(0.194699 0.0574997 0)
(0.0997647 -0.143568 1.25649e-17)
(-0.108233 0.0461868 1.51613e-17)
(-0.0718358 0.0821825 0)
(0.105156 0.104048 -1.67834e-17)
(0.047957 -0.0687926 0)
(0.0281091 -0.110676 3.3879e-17)
(0.198218 0.0952045 0)
(-0.110106 0.0636754 -1.62125e-17)
(0.014384 -0.198165 2.08898e-17)
(0.216068 0.0824719 -1.25853e-17)
(0.208704 0.0640295 -1.63663e-21)
(0.113206 -0.128715 4.18873e-18)
(0.158169 0.202993 -2.08174e-17)
(0.176371 0.0931777 1.68287e-17)
(0.158422 -0.00884727 1.68327e-17)
(-0.0374755 0.016868 -9.42918e-18)
(0.0289554 0.00290605 1.60338e-17)
(-0.0188987 -0.0150354 1.06206e-18)
(-0.0181623 0.0294659 2.01486e-18)
(-0.00119958 0.00233911 -6.60704e-23)
(0.0914897 -0.0612285 -3.42287e-17)
(-0.0492015 -0.0075325 0)
(0.0664308 -0.00943286 -1.48816e-17)
(-0.0423069 -0.0205887 -2.49186e-17)
(0.00360405 0.121409 -4.40019e-17)
(-0.0302057 -0.0184675 -1.69387e-17)
(0.0445552 -0.00390946 0)
(-0.0395822 0.0341259 2.47488e-17)
(-0.0111575 -0.00930026 1.70868e-17)
(0.00148336 -0.0156572 1.8526e-17)
(-0.0123908 0.00949236 0)
(0.0477178 -0.194762 1.25525e-17)
(-0.0551448 -0.0146811 -2.62182e-17)
(0.108543 -0.0452308 0)
(0.151515 -0.0771133 -4.19016e-18)
(-0.0789944 0.0141341 0)
(0.218191 0.0366281 -1.25365e-17)
(0.137742 -0.0925514 4.18977e-18)
(-0.121756 -0.00532583 0)
(-0.0109887 -0.003098 0)
(0.0262536 -0.179945 4.18811e-18)
(0.0585732 0.0521551 -1.69043e-17)
(0.165094 0.0204057 -4.19986e-18)
(0.165772 0.0483684 1.25673e-17)
(0.0317739 0.0303354 -2.96802e-17)
(0.00295943 -0.214444 4.20871e-18)
(0.154764 0.163851 -1.24282e-17)
(0.102519 0.0224562 0)
(-0.0371544 0.098214 -6.61696e-21)
(0.139333 -0.0351519 2.10055e-17)
(0.074191 -0.0993801 -4.22648e-18)
(0.1576 0.0837113 -1.64695e-23)
(0.159525 0.196633 -1.24281e-17)
(0.00823395 -0.114331 -4.26085e-18)
(0.160217 0.0703389 3.35434e-17)
(-0.00125044 0.000286574 1.55439e-17)
(0.0737525 -0.027921 3.80913e-17)
(0.16155 0.167668 -2.07661e-17)
(0.131809 -0.0747522 -1.25744e-17)
(0.175955 -0.0414412 2.09531e-17)
(0.0248988 0.00751674 -3.40758e-17)
(-0.0693968 0.0554986 1.69011e-17)
(0.0591104 -0.155396 -2.10096e-17)
(0.217654 0.0567654 1.67327e-17)
(0.189167 0.0797814 -1.92072e-21)
(0.122513 0.0409165 0)
(0.0083027 0.123782 2.85284e-17)
(0.043407 0.0355049 1.27093e-17)
(0.137047 0.0803613 1.71037e-17)
(0.145405 0.103388 3.30846e-17)
(0.0750057 -0.059271 1.68745e-17)
(0.107207 0.117206 4.19736e-18)
(0.0481326 -0.141156 -1.2615e-17)
(0.0375477 -0.180501 -1.67739e-17)
(0.104901 0.030536 4.2151e-18)
(0.132207 0.111169 0)
(0.15864 0.176137 -4.17613e-18)
(0.029975 -0.19932 -4.18048e-18)
(-0.0325233 0.0838808 -1.69045e-17)
(0.0096871 -0.0990191 3.37786e-17)
(0.000798038 0.00386077 -1.57726e-17)
(0.172276 0.203381 -1.24991e-17)
(0.162194 0.0923607 -1.6747e-17)
(0.164229 0.183456 -1.25041e-17)
(-0.12711 0.0251876 4.20615e-18)
(0.122912 0.142107 1.21796e-17)
(0.148082 0.00113137 1.68414e-17)
(-0.137308 0.0353075 8.2639e-18)
(-0.116947 0.0298284 0)
(-0.0337918 -0.00567122 -9.05405e-18)
(0.00161982 0.0135129 -2.89696e-17)
(-0.00399406 0.00987642 3.44002e-17)
(-0.0617958 -0.00198868 3.93437e-18)
(0.102668 -0.149401 -1.67585e-17)
(0.142042 -0.10116 4.19012e-18)
(-0.00192988 -0.00499548 0)
(-0.0975818 0.0103479 -3.48117e-17)
(0.0053995 0.00454372 0)
(0.147673 0.141862 -2.0905e-17)
(-0.0909761 -0.00132069 1.68979e-17)
(0.210975 0.0051803 1.67117e-17)
(0.0142574 -0.218848 -1.66715e-17)
(0.0435908 0.138167 2.0932e-17)
(-0.063726 0.0271695 -1.69235e-17)
(0.0739513 -0.102257 0)
(-0.0989458 -0.0642305 -3.3722e-17)
(0.144204 0.12937 -2.01369e-17)
(0.0503575 -0.170704 2.09828e-17)
(0.0173971 0.0169168 1.69933e-17)
(0.102821 -0.0132224 -1.26469e-17)
(0.129412 0.0751832 0)
(0.155721 0.152318 4.17641e-18)
(0.11391 0.126261 -8.39953e-18)
(0.0304752 -0.218737 -4.17198e-18)
(0.118789 0.130392 1.25883e-17)
(0.172759 0.20015 0)
(0.0811125 0.0533583 1.85992e-17)
(0.192697 -0.0270699 -2.09588e-17)
(0.167535 0.196182 3.75095e-17)
(0.210788 0.0494089 0)
(0.210821 -0.0128271 8.33489e-18)
(0.115582 -0.132409 0)
(0.1076 -0.114526 4.19195e-18)
(0.147286 -0.101025 -2.09462e-17)
(0.0910709 0.0358718 -1.45381e-17)
(0.0476074 -0.172986 1.25804e-17)
(0.221191 0.0134479 0)
(0.157183 -0.0846288 -2.20755e-17)
(0.091213 0.0348047 1.69271e-17)
(0.0676571 -0.180167 -4.1954e-18)
(0.110041 0.0514435 -1.84083e-17)
(0.101809 0.0878274 -1.6832e-17)
(-0.113302 -0.0445511 -4.26514e-18)
(0.150189 0.160878 0)
(0.0107675 -0.14548 0)
(0.0668709 -0.163837 -4.19123e-18)
(0.0683809 -0.191045 0)
(0.0436232 -0.204779 2.09134e-17)
(0.0320678 -0.143093 0)
(0.063778 -0.187426 4.18851e-18)
(0.150288 0.0742553 0)
(0.126451 -0.00371641 1.26291e-17)
(-0.0302872 0.0367712 0)
(0.0782354 -0.177785 1.67554e-17)
(0.154243 0.145119 4.17566e-18)
(0.0619379 0.0629934 2.958e-17)
(0.0760298 -0.177147 -2.09344e-17)
(0.0229668 -0.225978 0)
(0.158732 0.118338 0)
(-0.00558656 0.0454024 1.66173e-17)
(0.183647 -0.0536377 2.58786e-17)
(0.208478 0.0273882 0)
(0.044174 -0.166096 0)
(0.161383 0.186635 2.91091e-17)
(0.183404 0.19645 1.66402e-17)
(0.0139264 0.0418379 -4.31105e-18)
(0.157778 -0.0251465 0)
(0.0315297 0.039214 1.6958e-17)
(0.099673 0.110758 8.40821e-18)
(0.143435 -0.00202241 -4.20904e-18)
(-0.00316212 -0.0184826 0)
(0.157157 0.139922 4.16525e-18)
(-0.0229521 0.0251674 -7.61096e-18)
(0.146432 0.0315717 0)
(0.145858 0.0982298 0)
(0.085871 0.09544 -8.42536e-18)
(0.0339416 -0.214898 4.17391e-18)
(0.0928993 0.0936702 -8.42063e-18)
(-0.0834438 -0.0380644 4.22594e-18)
(0.201611 -0.0389485 8.33255e-18)
(-0.0212331 0.000886858 7.95517e-18)
(0.132614 0.0968912 0)
(0.132097 0.117614 8.38681e-18)
(0.0882227 0.0798746 7.83535e-23)
(0.0483983 0.0548988 4.22937e-18)
(0.10927 -0.00626976 0)
(0.119425 0.110863 4.19515e-17)
(0.0782461 -0.164559 2.09715e-17)
(0.139857 0.0534078 -4.20099e-18)
(-0.00403034 0.0359155 -1.26159e-17)
(0.155875 0.121585 0)
(0.067712 -0.157275 -2.18329e-17)
(0.119548 -0.125602 2.95396e-17)
(0.0442924 -0.212696 -4.17433e-18)
(0.104546 -0.142493 4.19427e-18)
(-0.00222552 -0.116844 1.79527e-17)
(0.080566 0.083535 -2.5277e-17)
(0.160111 -0.018801 0)
(0.152941 -0.00909735 -2.10637e-17)
(0.016663 0.0340326 0)
(0.0954151 -0.0913642 -1.6803e-17)
(0.12161 0.0543467 3.78466e-17)
(0.167001 -0.00644316 2.31523e-22)
(-0.0872316 -0.0979619 1.68646e-17)
(0.171582 0.178899 2.08353e-17)
(-0.121804 -0.056443 0)
(0.0912064 -0.127167 -4.19458e-18)
(0.121239 -0.0480887 1.26008e-17)
(0.0827163 0.0215572 0)
(-0.0111736 0.00251182 4.48005e-18)
(0.0983811 -0.0194252 1.68961e-17)
(0.0336459 -0.221959 -1.25162e-17)
(-0.0756855 -0.0427844 0)
(0.142255 0.151766 0)
(0.100832 0.0709774 0)
(-0.0228273 0.0222537 0)
(0.0433956 -0.216889 1.67035e-17)
(0.0747592 0.0969893 2.13934e-17)
(-0.0766516 -0.142549 -1.68921e-17)
(0.136253 0.0147982 -4.20757e-18)
(0.0398503 -0.0129639 -1.69686e-17)
(0.146469 -0.0604208 1.25854e-17)
(0.00490297 0.0148252 0)
(-0.11842 -0.0665599 4.206e-18)
(0.0662282 -0.0103885 3.81394e-17)
(0.156743 -0.0234006 0)
(0.123481 0.127687 -2.09751e-17)
(0.0858945 -0.0019046 -4.23111e-18)
(0.0648205 -0.0226255 -1.27007e-17)
(0.163332 -0.02293 0)
(0.075357 0.0935269 1.31606e-21)
(0.0877699 0.0350657 -3.37608e-17)
(0.0332066 0.055631 -4.30649e-18)
(-0.0623222 -0.10502 0)
(0.0923348 0.0263677 0)
(0.0155419 -0.141365 -1.39114e-17)
(-0.0731884 -0.150395 -5.73931e-21)
(0.117541 0.0748823 -1.68193e-17)
(0.112147 0.117043 -1.25901e-17)
(0.133367 -0.0133777 -1.68555e-17)
(0.0149362 -0.156343 0)
(-0.0191942 0.0180433 1.98348e-17)
(0.0716846 0.0842486 8.51433e-18)
(0.139653 -0.0226334 -1.59673e-21)
(-0.000508773 0.0225983 -4.32441e-18)
(0.068846 -0.00590184 0)
(-0.0641019 -0.0550767 -2.95372e-17)
(-0.133505 -0.0604195 -3.39364e-17)
(0.000208227 -0.0158745 0)
(0.0403226 -0.0215366 1.69651e-17)
(0.110312 -0.0111061 1.68878e-17)
(0.0430265 -0.166346 0)
(0.0941289 -0.0085724 -1.69291e-17)
(-0.109371 -0.101897 -1.68095e-17)
(-0.12148 -0.0740862 1.73173e-17)
(0.156453 -0.0181033 1.26345e-17)
(0.0223794 -0.0171001 0)
(-0.0105796 -0.0186339 -1.67495e-17)
(0.075569 -0.0177295 -1.69298e-17)
(0.0504884 0.0645401 4.31067e-18)
(-0.0914148 -0.117152 0)
(0.150223 -0.0274679 0)
(0.168683 0.00478052 -1.26055e-17)
(-0.100308 -0.110703 1.68361e-17)
(0.0477308 -0.0206676 -4.2405e-18)
(0.0293208 -0.0192682 0)
(-0.00713244 -0.0182614 0)
(0.148205 0.0408967 -2.93133e-17)
(0.173981 0.19294 -4.16655e-18)
(-0.0057025 -0.101157 4.51704e-18)
(0.114737 0.0171827 2.10753e-17)
(0.139796 0.152086 1.2545e-17)
(0.14845 0.160802 -2.92712e-17)
(0.106741 -0.0270249 -2.11128e-17)
(0.134196 -0.0292126 -1.68616e-17)
(0.150223 -0.0222692 2.107e-17)
(0.129362 -0.0280385 3.79258e-17)
(0.167571 0.186978 1.25004e-17)
(0.148657 0.165868 -1.25398e-17)
(0.0522238 -0.00918521 -4.32223e-18)
(0.049429 -0.211098 0)
(0.101903 0.00324336 -3.37726e-17)
(0.185382 0.18413 -1.66431e-17)
(0.00948128 -0.0137997 -1.70103e-17)
(-0.105784 -0.0881103 1.68391e-17)
(0.107686 0.0359798 -1.68562e-17)
(0.152351 -0.0163434 0)
(0.137154 0.0111007 0)
(0.0270277 -0.0820545 0)
(0.151813 0.0813999 1.6752e-17)
(0.0445191 0.0109886 0)
(0.0718587 -0.00262828 -1.2715e-17)
(0.0287175 -0.0120019 0)
(0.0621197 0.00157651 0)
(0.111474 0.0278297 0)
(0.121415 0.00998981 -4.21981e-18)
(0.0210079 -0.0145202 0)
(0.0521664 -0.166142 1.67775e-17)
(0.174571 0.155857 -4.16938e-18)
(0.147549 -0.0055435 0)
(0.07682 0.0334357 -2.14124e-17)
(-0.0638455 -0.12217 -1.69455e-17)
(0.0894217 0.00802603 0)
(0.171758 0.124043 4.17015e-18)
(0.0751561 -0.0392147 0)
(0.0245095 -0.0597169 1.28781e-17)
(0.101766 0.0111204 0)
(0.0404504 -0.0081069 0)
(-0.0428869 -0.120929 -1.69582e-17)
(0.130541 0.00469291 0)
(0.141682 -0.0205405 -1.68564e-17)
(0.110663 0.00481212 4.22541e-18)
(-0.0776833 -0.085389 0)
(0.137632 0.142967 1.25561e-17)
(0.118955 -0.0116404 4.22444e-18)
(0.0139605 -0.0146648 0)
(0.0602381 0.0229064 -1.15256e-17)
(0.202374 0.150474 -2.08198e-17)
(-0.084182 -0.128664 4.14559e-21)
(0.117562 0.0259978 -1.68897e-17)
(0.0299351 -0.0068601 1.70138e-17)
(0.14096 -0.0110292 -1.68676e-17)
(0.0203665 0.00938154 0)
(0.0508235 0.00285331 -1.2749e-17)
(0.13351 0.0236723 0)
(0.17735 0.13052 -1.67194e-17)
(0.127073 -0.024112 0)
(0.0496285 -0.00600771 4.24312e-18)
(0.115017 0.0442326 4.22217e-18)
(0.102765 -0.0297873 0)
(0.150628 -0.0042779 4.21401e-18)
(0.0400273 -0.00710306 1.48399e-17)
(0.13178 -0.00689969 1.26537e-17)
(0.0461355 0.0288077 0)
(0.0427085 0.0256359 -1.27117e-17)
(-0.0628663 -0.091975 0)
(0.0641478 0.00854113 0)
(0.041021 -0.00287685 -1.52948e-17)
(0.143971 0.00622596 0)
(-0.0269301 -0.0714982 0)
(-0.00734561 -0.0004861 -4.43806e-18)
(0.0304043 -0.00525341 2.13729e-17)
(0.135929 0.0257289 -1.68666e-17)
(0.0798416 0.0042628 -1.69156e-17)
(0.015664 -0.067382 1.77184e-17)
(0.0108384 -0.00798786 1.73019e-17)
(0.12735 0.0140234 0)
(0.116784 -0.0207383 -4.2212e-18)
(0.080151 0.0204402 0)
(-0.0120173 0.0342392 -8.80008e-18)
(0.142415 0.0127205 5.0752e-22)
(0.156569 -0.0160315 0)
(0.124696 0.0918538 -2.13607e-17)
(0.0793019 0.0126463 0)
(0.0876973 -0.0020433 -4.23845e-18)
(0.00289145 -0.0058361 1.35201e-17)
(-0.0111398 -0.093724 1.70348e-17)
(0.122971 0.0325595 1.68815e-17)
(0.0442695 0.00502619 1.27258e-17)
(0.0638625 0.0184107 -7.0949e-18)
(0.0736521 0.0194566 3.38295e-17)
(0.143561 0.00748069 1.68608e-17)
(0.0758963 0.00532833 -4.23825e-18)
(0.092776 0.012142 0)
(0.111976 0.0656817 0)
(0.0714222 0.0933524 1.70989e-17)
(0.0673573 -0.00639443 1.27056e-17)
(0.144275 0.118156 2.13429e-17)
(0.00485699 0.00635381 -4.24447e-18)
(0.123739 -0.0293409 0)
(0.0109574 0.0274291 0)
(0.193374 0.177925 0)
(0.0175686 -0.0133635 -1.70569e-17)
(0.0317494 0.0359476 0)
(0.0681683 0.0925171 -1.73849e-17)
(-0.0281132 -0.0402931 3.00307e-17)
(0.133205 -0.0150024 3.37347e-17)
(0.0732932 -0.0164077 -1.69544e-17)
(0.185644 0.152479 0)
(0.0660397 -0.0218822 -1.69429e-17)
(0.0566109 0.0175142 0)
(0.119523 0.00825493 0)
(0.117698 0.0594213 0)
(0.0871337 0.0705318 1.27927e-17)
(-0.00681546 0.0300997 0)
(0.0181074 -0.0795036 0)
(0.0301185 0.0125456 0)
(0.0670749 0.0508168 0)
(0.0611332 -0.0853737 -4.27047e-18)
(0.0202073 0.0564644 0)
(0.196294 0.157867 2.08011e-17)
(0.117824 0.0502557 -4.22253e-18)
(0.00944431 0.0289635 0)
(0.0492856 -0.0242027 -1.69643e-17)
(0.054891 0.0299753 -4.2341e-18)
(0.0140428 0.019995 4.408e-18)
(0.119976 0.0221015 0)
(0.0580207 0.0398535 -1.65005e-17)
(0.0990966 0.0644524 -1.69486e-17)
(0.00775052 0.00161004 4.33706e-18)
(0.0819233 0.0609005 -1.27565e-17)
(0.0315934 -0.0180594 2.16489e-17)
(0.0357143 9.37057e-05 -1.70429e-17)
(0.111511 0.0607437 0)
(-0.0103529 -0.0663104 0)
(0.0142116 -0.0280187 0)
(0.0710776 0.097217 0)
(0.0846567 0.078659 -1.27691e-17)
(0.0552427 0.0687594 -4.26476e-18)
(0.0941372 0.0726297 1.69615e-17)
(-0.00923146 -0.0237986 1.0213e-17)
(0.0433289 -0.0210969 -4.27923e-18)
(-0.0097944 0.0352523 1.77378e-17)
(0.133595 -0.01354 0)
(0.0687646 0.0666064 -1.35443e-17)
(0.0925626 -0.0276144 4.22643e-18)