/*--------------------------------*- C++ -*----------------------------------*\
  =========                 |
  \\      /  F ield         | OpenFOAM: The Open Source CFD Toolbox
   \\    /   O peration     | Website:  https://openfoam.org
    \\  /    A nd           | Version:  9
     \\/     M anipulation  |
\*---------------------------------------------------------------------------*/
FoamFile
{
    format      ascii;
    class       volScalarField;
    location    "2.25";
    object      p;
}
// * * * * * * * * * * * * * * * * * * * * * * * * * * * * * * * * * * * * * //

dimensions      [0 2 -2 0 0 0 0];

internalField   nonuniform List<scalar> 
942
(
14.5943
14.6971
14.7148
14.5986
14.7142
14.6665
14.6526
14.6664
14.6327
14.6303
14.7187
14.6785
14.6038
14.7221
14.6774
14.6978
14.6795
14.5918
14.6572
14.708
14.6837
14.675
14.5815
14.7029
14.7172
14.703
14.7279
14.5825
14.6915
14.5813
14.7048
14.7284
14.6906
14.6259
14.7292
14.5897
14.6028
14.5744
14.6006
14.6981
14.6172
14.6268
14.6971
14.6504
14.6518
14.6699
14.649
14.6287
14.6136
14.7207
14.6571
14.5811
14.5895
14.7089
14.6231
14.6068
14.6901
14.6211
14.6906
14.6468
14.5776
14.729
14.6271
14.5898
14.5771
14.6929
14.7301
14.6398
14.6045
14.6468
14.7008
14.6358
14.6995
14.5829
14.706
14.7079
14.7067
14.7304
14.7073
14.6951
14.6624
14.7022
14.7152
14.6956
14.693
14.7224
14.6417
14.6848
14.7213
14.7138
14.6279
14.7314
14.6185
14.612
14.6059
14.7071
14.6198
14.6865
14.662
14.5761
14.64
14.6138
14.6521
14.6491
14.612
14.5777
14.6699
14.6761
14.6354
14.6424
14.6006
14.6067
14.6432
14.6344
14.7179
14.7322
14.6529
14.5988
14.5755
14.6392
14.5778
14.5953
14.7006
14.6998
14.6978
14.7076
14.5824
14.6886
14.6811
14.5923
14.6548
14.6607
14.648
14.6275
14.6345
14.6672
14.6001
14.6413
14.6065
14.6136
14.6204
14.6734
14.6487
14.7091
14.67
14.6962
14.6463
14.6354
14.5943
14.7237
14.6697
14.646
14.7298
14.653
14.7304
14.5948
14.693
14.6348
14.6524
14.7067
14.691
14.5907
14.5926
14.6774
14.6417
14.7252
14.6394
14.6485
14.6752
14.6466
14.6334
14.6106
14.5984
14.5795
14.7193
14.6356
14.7093
14.6342
14.6163
14.6372
14.6529
14.6873
14.5982
14.634
14.5871
14.6984
14.664
14.7146
14.7216
14.6344
14.7212
14.6376
14.5839
14.7051
14.7138
14.6103
14.7136
14.5845
14.6208
14.7071
14.5746
14.6125
14.7121
14.68
14.6501
14.6133
14.6012
14.7166
14.7043
14.7037
14.715
14.6192
14.6296
14.7262
14.7108
14.6145
14.7195
14.7204
14.7147
14.7129
14.6127
14.6075
14.635
14.6176
14.6375
14.7313
14.7251
14.6122
14.5764
14.709
14.6985
14.7181
14.733
14.641
14.6174
14.6239
14.722
14.6166
14.708
14.7141
14.7121
14.6517
14.6245
14.639
14.6416
14.7114
14.6127
14.6195
14.6166
14.7103
14.7225
14.6179
14.7225
14.7095
14.6425
14.6215
14.6282
14.6389
14.7158
14.6425
14.6049
14.7174
14.7265
14.6444
14.605
14.6308
14.644
14.6405
14.7021
14.6176
14.6137
14.7209
14.6201
14.7245
14.7171
14.7203
14.6844
14.6556
14.7185
14.5847
14.6456
14.5912
14.5851
14.6519
14.6918
14.6587
14.6487
14.643
14.6477
14.6461
14.6938
14.6249
14.7218
14.615
14.6588
14.6765
14.6536
14.6594
14.6567
14.6645
14.6752
14.6528
14.6544
14.6448
14.6756
14.6291
14.6378
14.6847
14.7098
14.7314
14.6489
14.7172
14.6744
14.7015
14.6283
14.726
14.6587
14.6922
14.7134
14.68
14.7056
14.7289
14.6532
14.6967
14.6274
14.7171
14.7209
14.6225
14.6351
14.667
14.6861
14.6171
14.6555
14.6506
14.6601
14.6842
14.6419
14.6682
14.674
14.5948
14.6697
14.7017
14.6359
14.6768
14.6707
14.6823
14.6756
14.6352
14.6384
14.6666
14.6786
14.6646
14.6292
14.6633
14.6654
14.6596
14.6808
14.6239
14.6862
14.6988
14.6621
14.6665
14.68
14.6192
14.6524
14.6813
14.6727
14.6568
14.6455
14.7017
14.6331
14.6708
14.6509
14.6425
14.682
14.6719
14.681
14.6762
14.6284
14.6689
14.6922
14.5797
14.6311
14.5975
14.6631
14.6676
14.6556
14.6752
14.6809
14.6662
14.6443
14.61
14.6641
14.6835
14.6235
14.6604
14.6696
14.6377
14.6691
14.6035
14.6175
14.6429
14.6826
14.6709
14.6477
14.6888
14.5906
14.686
14.6434
14.587
14.6757
14.6764
14.6629
14.6664
14.658
14.6341
14.6323
14.6559
14.6956
14.6496
14.6655
14.6522
14.6642
14.6503
14.6552
14.6628
14.6875
14.7045
14.6759
14.6873
14.6844
14.6728
14.683
14.7024
14.5877
14.6609
14.6756
14.6554
14.6506
14.6809
14.6493
14.6704
14.6822
14.6819
14.6414
14.6731
14.6914
14.6998
14.6569
14.6373
14.6909
14.7059
14.7048
14.6435
14.6955
14.6941
14.6921
14.6939
14.6385
14.7027
14.6739
14.6785
14.6953
14.6953
14.7007
14.6988
14.6557
14.6765
14.6779
14.7072
14.6801
14.6882
14.6832
14.6664
14.7002
14.7198
14.6588
14.6951
14.6645
14.6987
14.6258
14.7017
14.6864
14.7032
14.6606
14.6978
14.6723
14.6869
14.6643
14.7085
14.7124
14.7003
14.7092
14.691
14.631
14.7157
14.7022
14.7216
14.6969
14.6454
14.7065
14.706
14.6506
14.7107
14.6986
14.7125
14.6915
14.6931
14.6997
14.6909
14.6672
14.7074
14.7159
14.705
14.7141
14.6465
14.7178
14.7127
14.6892
14.6975
14.6755
14.6953
14.6855
14.7111
14.6869
14.6852
14.705
14.7106
14.7042
14.6835
14.692
14.7085
14.6704
14.7169
14.7068
14.7109
14.703
14.716
14.6363
14.7252
14.5933
14.7119
14.6978
14.6495
14.7007
14.7065
14.7129
14.7044
14.7054
14.7079
14.7067
14.7124
14.7165
14.7048
14.721
14.7071
14.7134
14.7095
14.722
14.7108
14.7175
14.6242
14.6016
14.7129
14.721
14.6999
14.6987
14.696
14.7223
14.6321
14.7182
14.7204
14.7015
14.7114
14.6256
14.7172
14.7207
14.7178
14.725
14.7289
14.6012
14.7119
14.6158
14.7161
14.6281
14.6246
14.7264
14.7118
14.6284
14.7185
14.6128
14.6284
14.5936
14.711
14.7099
14.5769
14.7075
14.6808
14.7125
14.627
14.6295
14.5733
14.707
14.7125
14.6308
14.6938
14.7123
14.6294
14.6919
14.7113
14.6887
14.7132
14.7104
14.7094
14.6812
14.6904
14.6374
14.6918
14.6005
14.5748
14.7099
14.7047
14.7132
14.6336
14.7175
14.7171
14.7091
14.573
14.5793
14.6882
14.7032
14.711
14.621
14.6009
14.69
14.6988
14.706
14.6368
14.6828
14.6601
14.6893
14.6473
14.6805
14.6368
14.7052
14.6756
14.6807
14.6803
14.6456
14.6531
14.6331
14.6892
14.6761
14.6212
14.6586
14.6964
14.6984
14.7252
14.6807
14.583
14.6277
14.6047
14.5893
14.5803
14.6045
14.6447
14.6314
14.7188
14.6143
14.7293
14.6588
14.7309
14.6379
14.7321
14.6399
14.6161
14.7285
14.732
14.6387
14.6264
14.6353
14.7246
14.6098
14.725
14.7215
14.7161
14.7105
14.7305
14.7241
14.7181
14.6729
14.7262
14.6574
14.7145
14.7124
14.7294
14.728
14.6548
14.7198
14.7227
14.7154
14.7118
14.7301
14.7272
14.672
14.6558
14.7193
14.6451
14.7174
14.6558
14.624
14.724
14.6851
14.577
14.6677
14.7261
14.7233
14.714
14.6038
14.7285
14.6691
14.6849
14.6928
14.6623
14.668
14.6756
14.6782
14.6572
14.5838
14.6426
14.6607
14.714
14.5876
14.6642
14.6697
14.7079
14.596
14.6066
14.7321
14.6592
14.6092
14.6753
14.7236
14.6953
14.6062
14.6577
14.5965
14.7328
14.6397
14.6473
14.6355
14.7239
14.6874
14.6875
14.677
14.6513
14.653
14.6926
14.6954
14.6934
14.7231
14.6111
14.5729
14.7092
14.6004
14.6566
14.6706
14.573
14.7106
14.5978
14.716
14.6638
14.7247
14.6347
14.7271
14.7094
14.7167
14.7115
14.706
14.721
14.6419
14.6385
14.702
14.7026
14.7158
14.6652
14.7248
14.6868
14.6204
14.6857
14.7144
14.7264
14.6316
14.6831
14.6802
14.6621
14.7292
14.6611
14.7323
14.7015
14.7046
14.7165
14.5976
14.7108
14.6854
14.6324
14.6281
14.7081
14.6332
14.6095
14.694
14.7118
14.6844
14.6329
14.7089
14.622
14.6079
14.6864
14.7202
14.6735
14.6222
14.6326
14.7092
14.6326
14.7203
14.6658
14.7081
14.5736
14.5864
14.644
14.7092
14.7094
14.5822
14.6304
14.6445
14.6723
14.6615
14.7068
14.7253
14.6654
14.7134
14.5847
14.6726
14.7239
14.5874
14.6903
14.6363
14.6682
14.717
14.6766
14.5906
14.6396
14.7237
14.7188
14.6167
14.6231
14.6423
14.5957
14.6429
14.6354
14.5796
14.6642
14.7074
14.6697
14.5942
14.6629
14.7019
14.7116
14.7102
14.6818
14.636
14.6373
14.7122
14.6526
14.6718
14.659
14.724
14.6071
14.7124
14.6553
14.6546
14.6413
14.5938
14.602
14.6555
14.6348
14.6045
14.7255
14.6597
14.6515
14.6885
14.5732
14.7094
14.6245
14.662
14.601
14.5839
14.7135
14.6862
14.7271
14.7283
14.6307
14.6567
14.6501
14.6323
14.7181
14.7277
14.6033
14.6126
14.7025
14.7008
14.7143
14.6396
14.6221
14.6725
14.719
14.6909
14.6027
14.7104
14.7104
14.7004
14.6747
14.7137
14.6425
14.666
14.7175
14.6754
14.727
14.5855
14.5919
14.7114
14.6317
14.5941
14.6645
14.5892
14.624
14.6264
14.5863
14.6329
14.6688
14.5878
14.5935
)
;

boundaryField
{
    back
    {
        type            empty;
    }
    front
    {
        type            empty;
    }
    top
    {
        type            zeroGradient;
    }
    outer_arc
    {
        type            zeroGradient;
    }
    bottom
    {
        type            uniformFixedValue;
        uniformValue    
        {
            type            table;
            format          csv;
            file            "outlet_p.csv";
            nHeaderLine     1;
            refColumn       0;
            componentColumns List<label> 1(1);
            separator       ",";
            mergeSeparators 0;
        }
        value           uniform 14.7107;
    }
    inner_arc
    {
        type            zeroGradient;
    }
}


// ************************************************************************* //
