/*--------------------------------*- C++ -*----------------------------------*\
  =========                 |
  \\      /  F ield         | OpenFOAM: The Open Source CFD Toolbox
   \\    /   O peration     | Website:  https://openfoam.org
    \\  /    A nd           | Version:  9
     \\/     M anipulation  |
\*---------------------------------------------------------------------------*/
FoamFile
{
    format      ascii;
    class       volScalarField;
    location    "0.89";
    object      p;
}
// * * * * * * * * * * * * * * * * * * * * * * * * * * * * * * * * * * * * * //

dimensions      [0 2 -2 0 0 0 0];

internalField   nonuniform List<scalar> 
90
(
7.68319e-23
2.55308e-23
-5.93002e-22
-1.67117e-21
-7.49688e-22
1.18201e-21
-2.44041e-24
1.60609e-22
1.92899e-22
1.63229e-22
-1.15793e-22
3.0355e-22
1.56374e-22
-5.33044e-22
4.26112e-22
2.93483e-21
-3.55223e-21
5.7247e-22
6.16741e-22
1.03385e-22
-3.42036e-23
8.70397e-23
-6.83404e-23
-1.69033e-22
-1.39508e-23
-3.91961e-22
2.78936e-22
-1.34226e-22
-6.6594e-22
2.0303e-22
1.20439e-22
-6.62203e-22
-4.6863e-22
-2.91189e-22
-4.10106e-22
3.02458e-21
1.35637e-22
-5.41313e-21
-5.09399e-22
2.46244e-22
3.19908e-22
4.14488e-22
-5.98646e-22
4.98058e-23
1.34286e-23
-7.15706e-22
2.1885e-22
1.34427e-21
6.78301e-22
-8.18938e-22
1.1676e-22
2.26434e-22
3.27393e-22
-5.51979e-22
3.20621e-22
9.13069e-22
2.65672e-24
-6.65927e-23
6.72895e-23
-7.95074e-22
2.55363e-22
-7.38659e-22
-1.12838e-21
9.41054e-23
5.45881e-22
1.98455e-22
-6.46992e-22
-8.05864e-22
-4.51535e-21
-3.59773e-22
1.64548e-21
1.62286e-22
-3.94216e-22
1.3819e-21
2.78228e-21
2.56647e-22
1.56325e-22
-4.43662e-22
-1.31239e-22
-1.03648e-23
-5.20105e-21
3.64762e-23
-5.38601e-23
2.80107e-21
-9.06981e-23
-1.09403e-21
1.02452e-22
1.44921e-22
1.92387e-21
2.69523e-22
)
;

boundaryField
{
    back
    {
        type            empty;
    }
    front
    {
        type            empty;
    }
    bottom
    {
        type            zeroGradient;
    }
    outer_arc
    {
        type            zeroGradient;
    }
    right
    {
        type            uniformFixedValue;
        uniformValue    
        {
            type            scale;
            scale           
            {
                type            squarePulse;
                start           0.3;
                duration        0.3;
            }
            xScale          
            {
                type            constant;
                value           1;
            }
            value           
            {
                type            constant;
                value           15.1;
            }
        }
        value           uniform 0;
    }
    inner_arc
    {
        type            zeroGradient;
    }
}


// ************************************************************************* //
