/*--------------------------------*- C++ -*----------------------------------*\
  =========                 |
  \\      /  F ield         | OpenFOAM: The Open Source CFD Toolbox
   \\    /   O peration     | Website:  https://openfoam.org
    \\  /    A nd           | Version:  9
     \\/     M anipulation  |
\*---------------------------------------------------------------------------*/
FoamFile
{
    format      ascii;
    class       surfaceScalarField;
    location    "0.89";
    object      phi;
}
// * * * * * * * * * * * * * * * * * * * * * * * * * * * * * * * * * * * * * //

dimensions      [0 3 -1 0 0 0 0];

internalField   nonuniform List<scalar> 
122
(
5.85038e-30
-1.74685e-29
4.75137e-30
-8.82128e-30
4.07638e-29
-1.3399e-29
8.5697e-30
1.15684e-29
5.27295e-29
3.83457e-29
-5.15637e-29
-8.58142e-30
6.50201e-30
1.03746e-29
-8.30824e-30
-1.76006e-29
1.39723e-29
-1.10783e-29
2.10653e-29
-1.58523e-30
-7.64721e-32
1.33102e-30
1.66809e-30
-5.42729e-30
3.30912e-29
-6.67193e-29
2.68778e-29
-4.57982e-29
6.44078e-29
1.30899e-28
-1.17331e-28
-7.27746e-29
7.95889e-29
5.9071e-29
-2.08294e-29
2.17912e-29
-1.31925e-29
-7.10414e-31
-1.69632e-30
-8.18515e-30
2.83513e-30
-1.68265e-29
3.45305e-30
-1.0905e-30
-1.96225e-29
-1.97994e-29
-1.69655e-29
-3.29714e-30
-2.46063e-29
2.06814e-29
1.61653e-29
-1.89258e-29
-9.40583e-30
-1.01389e-28
-6.52337e-29
-3.51167e-30
2.18118e-29
3.67902e-31
-7.17962e-31
-6.82271e-30
-1.18619e-29
9.74366e-30
3.80576e-29
2.15245e-29
1.23822e-31
9.33525e-29
3.01754e-29
-4.73927e-31
-2.13613e-30
-1.07625e-29
-9.19529e-30
-3.13781e-30
7.71036e-29
1.26448e-30
8.22309e-32
-1.83012e-30
6.71631e-30
3.56231e-30
-2.17165e-29
-1.18136e-29
8.53676e-30
-2.38632e-29
8.08673e-30
3.17761e-29
1.67743e-29
-5.9157e-29
-6.73729e-30
-5.06772e-30
-3.60572e-30
1.77094e-29
-3.57417e-29
9.19637e-30
-1.45124e-29
-1.67955e-29
-1.74325e-30
1.12184e-30
4.45389e-30
5.90554e-30
-1.95907e-30
-1.53515e-30
-3.82902e-29
-7.53196e-30
-2.74463e-29
-1.66512e-29
2.70962e-29
4.63247e-30
-2.2052e-29
-6.81265e-30
1.20898e-29
-2.10225e-29
-2.88709e-29
-1.53788e-29
8.47055e-30
-3.2122e-29
-2.0926e-30
1.19075e-29
1.64869e-28
6.40672e-31
-4.9384e-30
2.33388e-30
2.58576e-29
-6.15405e-30
)
;

boundaryField
{
    back
    {
        type            empty;
        value           nonuniform List<scalar> 0();
    }
    front
    {
        type            empty;
        value           nonuniform List<scalar> 0();
    }
    bottom
    {
        type            calculated;
        value           uniform 0;
    }
    outer_arc
    {
        type            calculated;
        value           uniform 0;
    }
    right
    {
        type            calculated;
        value           nonuniform List<scalar> 4(-3.72981e-30 -8.49637e-30 -6.7843e-30 -1.88886e-29);
    }
    inner_arc
    {
        type            calculated;
        value           uniform 0;
    }
}


// ************************************************************************* //
