/*--------------------------------*- C++ -*----------------------------------*\
  =========                 |
  \\      /  F ield         | OpenFOAM: The Open Source CFD Toolbox
   \\    /   O peration     | Website:  https://openfoam.org
    \\  /    A nd           | Version:  9
     \\/     M anipulation  |
\*---------------------------------------------------------------------------*/
FoamFile
{
    format      ascii;
    class       volVectorField;
    location    "0.89";
    object      U;
}
// * * * * * * * * * * * * * * * * * * * * * * * * * * * * * * * * * * * * * //

dimensions      [0 1 -1 0 0 0 0];

internalField   nonuniform List<vector> 
90
(
(1.61457e-22 1.38381e-23 -3.20487e-39)
(6.33305e-22 1.57798e-22 6.43479e-38)
(2.48759e-21 -3.23035e-21 -5.8752e-38)
(-8.94144e-22 -2.02689e-21 5.81857e-38)
(5.9266e-22 -8.95541e-24 1.50215e-37)
(-4.10484e-22 -2.79264e-22 -5.11227e-38)
(-1.39186e-23 4.15762e-23 3.6202e-39)
(4.6878e-22 -1.68255e-22 8.05132e-39)
(-2.04448e-22 -2.64798e-22 0)
(3.17365e-23 2.58596e-23 0)
(-3.0235e-23 7.34312e-23 -1.07364e-38)
(-2.43149e-23 -4.72845e-22 2.27897e-39)
(4.16288e-22 -3.31679e-22 1.95339e-39)
(-2.05938e-21 1.32476e-21 2.55375e-39)
(-1.59146e-21 -1.69141e-21 0)
(-1.75473e-21 -5.93115e-22 0)
(1.14802e-21 -2.90083e-21 -2.0286e-37)
(5.69151e-21 1.86801e-21 -2.8288e-38)
(1.74474e-21 7.54218e-22 0)
(5.8848e-22 -2.28469e-22 -1.26815e-39)
(-4.57721e-24 -2.05107e-22 2.99939e-39)
(-6.00357e-22 4.23713e-24 9.73377e-39)
(-3.47494e-22 -4.18802e-22 -1.40728e-38)
(3.58567e-22 6.13453e-22 2.7459e-39)
(1.93032e-22 4.14647e-22 -3.16234e-39)
(4.38775e-22 -8.52107e-22 1.16001e-38)
(4.1538e-22 1.64293e-22 -7.20344e-39)
(-2.25378e-22 -3.83549e-22 6.81436e-39)
(3.89524e-21 -1.28531e-21 0)
(8.16911e-22 -4.16069e-23 -9.56847e-39)
(4.19084e-22 -4.02117e-22 5.75345e-39)
(3.00476e-22 -4.3027e-22 -4.04152e-38)
(2.1515e-22 1.62739e-22 -1.08842e-38)
(-5.04886e-24 1.85812e-22 2.24756e-38)
(8.20873e-23 2.80612e-22 -7.13561e-39)
(-1.99376e-21 -2.15591e-21 -7.1735e-38)
(1.09797e-21 -6.35069e-22 0)
(1.95729e-21 -2.65237e-21 0)
(-6.4473e-23 -1.77091e-22 1.15137e-38)
(-1.11259e-22 -6.80887e-23 3.34267e-39)
(1.53864e-22 1.07184e-22 -6.66823e-39)
(4.62094e-22 -4.51556e-22 -3.02945e-38)
(-2.15469e-21 6.42602e-22 -3.59932e-39)
(-3.24002e-23 -5.00032e-23 -2.93219e-39)
(-1.74938e-22 -1.74989e-23 -1.14659e-39)
(-8.92196e-22 -9.0796e-22 2.69065e-38)
(1.86264e-22 -6.29919e-22 2.53973e-39)
(-4.40187e-22 3.87191e-22 3.32135e-38)
(7.05872e-22 7.33851e-22 -3.5543e-38)
(-1.02864e-21 2.56002e-21 2.80827e-39)
(2.1516e-22 3.00099e-22 0)
(1.36639e-22 7.53565e-23 -1.00171e-38)
(-2.50079e-21 -9.46734e-22 -8.52938e-41)
(-8.54969e-22 -2.96632e-22 0)
(1.2798e-22 -1.77579e-22 1.95315e-38)
(-4.88502e-22 -8.09172e-22 -3.37703e-40)
(-1.02301e-22 -1.7258e-23 9.82702e-40)
(-6.19106e-22 -6.64254e-22 0)
(-2.29717e-22 -1.76681e-22 0)
(2.37924e-22 -5.75828e-22 4.51774e-38)
(8.46874e-22 -7.05339e-22 1.9502e-38)
(-4.44205e-22 -1.43856e-21 0)
(-1.82113e-22 -5.23807e-22 5.2732e-38)
(-6.25804e-23 6.55528e-22 -5.19803e-39)
(-4.86456e-23 1.14213e-22 3.68569e-38)
(2.63093e-21 -1.82277e-21 6.96621e-39)
(7.24055e-22 -7.27842e-22 0)
(2.70758e-22 5.17772e-22 0)
(3.27952e-21 1.05199e-22 1.9246e-38)
(4.81867e-22 1.65924e-21 4.00929e-38)
(4.85557e-22 5.38678e-22 0)
(-7.07019e-23 2.16778e-23 7.08164e-39)
(-1.14672e-21 8.60278e-22 0)
(-1.35369e-21 -2.41588e-22 1.04617e-37)
(6.13886e-21 -6.68737e-24 -4.04795e-38)
(6.69549e-22 -3.02395e-23 -9.56461e-39)
(5.861e-24 -1.30072e-23 -1.52595e-39)
(-1.23139e-21 3.42359e-22 0)
(2.63154e-22 5.33619e-22 -1.37975e-38)
(-1.93602e-22 -2.13511e-23 3.57518e-39)
(1.85313e-21 -6.8205e-22 2.1665e-37)
(-1.28841e-22 -4.62416e-23 1.69836e-40)
(4.3242e-22 -2.55167e-22 -3.91422e-39)
(1.57376e-21 -1.45661e-22 7.43081e-38)
(-1.66462e-21 -4.50139e-22 3.88142e-39)
(-3.43347e-22 4.25151e-22 -3.15186e-38)
(-5.02924e-24 -7.54104e-23 4.02725e-39)
(2.5133e-22 -2.01004e-22 -6.73134e-40)
(-8.04021e-23 -2.85341e-22 -1.81791e-37)
(2.90109e-22 3.17945e-23 -6.85806e-39)
)
;

boundaryField
{
    back
    {
        type            empty;
    }
    front
    {
        type            empty;
    }
    bottom
    {
        type            uniformFixedValue;
        uniformValue    
        {
            type            scale;
            scale           
            {
                type            squarePulse;
                start           0.3;
                duration        0.3;
            }
            xScale          
            {
                type            constant;
                value           1;
            }
            value           
            {
                type            constant;
                value           (0 0.7 0);
            }
        }
        value           uniform (0 0 0);
    }
    outer_arc
    {
        type            noSlip;
    }
    right
    {
        type            zeroGradient;
    }
    inner_arc
    {
        type            noSlip;
    }
}


// ************************************************************************* //
