/*--------------------------------*- C++ -*----------------------------------*\
  =========                 |
  \\      /  F ield         | OpenFOAM: The Open Source CFD Toolbox
   \\    /   O peration     | Website:  https://openfoam.org
    \\  /    A nd           | Version:  9
     \\/     M anipulation  |
\*---------------------------------------------------------------------------*/
FoamFile
{
    format      ascii;
    class       volScalarField;
    location    "0.64";
    object      p;
}
// * * * * * * * * * * * * * * * * * * * * * * * * * * * * * * * * * * * * * //

dimensions      [0 2 -2 0 0 0 0];

internalField   nonuniform List<scalar> 
90
(
-1.68176e-11
-3.72098e-12
-9.44364e-12
-8.59601e-12
-4.59951e-12
-3.91264e-12
-1.53886e-11
-2.0772e-12
-8.9011e-12
2.54831e-12
-1.65178e-11
-7.12069e-13
-1.42805e-11
-2.39564e-12
-3.35043e-12
-2.75716e-12
-2.00636e-12
-7.33337e-12
-1.14389e-11
-1.42859e-11
1.85677e-11
-4.31946e-12
-7.57635e-12
-9.2607e-12
5.32187e-12
-1.36535e-11
1.42431e-11
1.52508e-12
-9.6542e-12
-7.90387e-12
-3.71774e-12
-1.60566e-11
1.29917e-11
-8.93166e-13
5.19023e-12
-1.60569e-12
-1.72601e-11
-3.70625e-12
8.63725e-12
-1.99167e-11
-1.55719e-11
-1.21983e-11
-3.25685e-12
-1.04925e-11
2.85498e-13
-6.80908e-12
-7.90658e-12
-4.91684e-12
-8.63888e-12
-5.26304e-12
-1.93419e-11
-1.65727e-11
-7.01219e-12
-1.6921e-12
-1.5107e-11
-1.09405e-11
-2.77111e-12
-8.52502e-12
8.74397e-12
-1.83094e-11
-7.54866e-12
-1.95438e-11
-2.06078e-11
-5.08726e-12
-6.56053e-12
-1.71523e-11
-1.25435e-11
-8.10417e-12
-8.7616e-12
-1.23477e-11
-8.23947e-12
7.08084e-12
-3.57475e-12
-1.73649e-11
-1.07501e-11
-9.94317e-12
1.79405e-11
-7.07428e-14
-2.38987e-12
3.81661e-12
-9.10298e-12
-3.65126e-12
-1.02638e-11
-1.09725e-11
-1.30406e-11
-7.40168e-12
-1.18988e-12
-4.29129e-12
-1.14728e-11
1.59787e-11
)
;

boundaryField
{
    back
    {
        type            empty;
    }
    front
    {
        type            empty;
    }
    bottom
    {
        type            zeroGradient;
    }
    outer_arc
    {
        type            zeroGradient;
    }
    right
    {
        type            uniformFixedValue;
        uniformValue    
        {
            type            scale;
            scale           
            {
                type            squarePulse;
                start           0.3;
                duration        0.3;
            }
            xScale          
            {
                type            constant;
                value           1;
            }
            value           
            {
                type            constant;
                value           15.1;
            }
        }
        value           uniform 0;
    }
    inner_arc
    {
        type            zeroGradient;
    }
}


// ************************************************************************* //
