/*--------------------------------*- C++ -*----------------------------------*\
  =========                 |
  \\      /  F ield         | OpenFOAM: The Open Source CFD Toolbox
   \\    /   O peration     | Website:  https://openfoam.org
    \\  /    A nd           | Version:  9
     \\/     M anipulation  |
\*---------------------------------------------------------------------------*/
FoamFile
{
    format      ascii;
    class       surfaceScalarField;
    location    "0.64";
    object      phi;
}
// * * * * * * * * * * * * * * * * * * * * * * * * * * * * * * * * * * * * * //

dimensions      [0 3 -1 0 0 0 0];

internalField   nonuniform List<scalar> 
122
(
-7.45164e-18
3.63594e-18
3.8157e-18
-1.16825e-25
9.16025e-19
-9.16025e-19
-6.07695e-18
9.36342e-18
-3.28647e-18
1.28522e-18
-7.36216e-18
-7.24816e-18
7.24816e-18
2.42563e-18
4.96271e-18
-7.38834e-18
2.89528e-18
2.9252e-19
-3.18779e-18
6.79405e-18
-4.36842e-18
-3.63594e-18
3.41075e-18
2.25193e-19
-9.16026e-19
2.57398e-18
-1.65795e-18
4.67418e-18
-1.77891e-18
-2.57398e-18
8.53338e-18
3.79117e-18
5.57224e-18
-7.06965e-18
6.49792e-18
-3.77531e-18
-2.7226e-18
-2.70199e-18
2.70199e-18
-9.0572e-18
9.0572e-18
-6.01535e-18
2.46326e-18
3.55209e-18
5.3979e-18
1.10002e-18
5.42663e-18
-4.6392e-19
-1.75272e-18
-4.26263e-18
2.72464e-18
-1.20103e-17
2.95308e-18
-5.07745e-18
8.86862e-18
4.92508e-18
-1.51433e-18
2.25193e-19
-4.64336e-18
7.34535e-18
7.29776e-18
-7.76168e-18
2.65439e-18
3.75426e-18
-3.75426e-18
8.53338e-18
7.34535e-18
-4.81808e-18
4.81808e-18
4.23913e-18
-5.55312e-18
9.79225e-18
-6.27967e-18
8.93406e-18
-2.4145e-18
6.23021e-18
7.5273e-20
-5.80303e-18
-9.7609e-19
6.00654e-20
-2.14278e-18
2.14278e-18
1.61738e-18
3.95486e-18
-8.83959e-18
-3.43686e-18
1.04276e-18
1.04276e-18
-5.51012e-18
1.30053e-18
4.20959e-18
-4.66493e-18
1.04276e-18
2.0359e-18
-7.54602e-18
5.45557e-18
-9.76089e-19
-6.33328e-18
6.40855e-18
-1.52753e-18
1.52753e-18
2.22673e-18
5.88651e-18
-4.26913e-18
-4.34378e-18
4.34378e-18
2.2101e-18
-1.16669e-18
3.3768e-18
3.45593e-18
-8.87857e-19
-3.45593e-18
4.97913e-18
-1.02427e-18
4.60769e-19
5.89524e-19
7.98077e-18
3.18541e-18
-3.18541e-18
-3.47461e-19
6.9565e-18
-4.71588e-18
)
;

boundaryField
{
    back
    {
        type            empty;
        value           nonuniform List<scalar> 0();
    }
    front
    {
        type            empty;
        value           nonuniform List<scalar> 0();
    }
    bottom
    {
        type            calculated;
        value           uniform 0;
    }
    outer_arc
    {
        type            calculated;
        value           uniform 0;
    }
    right
    {
        type            calculated;
        value           nonuniform List<scalar> 4(-7.45164e-18 5.72776e-18 -7.87008e-18 9.59396e-18);
    }
    inner_arc
    {
        type            calculated;
        value           uniform 0;
    }
}


// ************************************************************************* //
