/*--------------------------------*- C++ -*----------------------------------*\
  =========                 |
  \\      /  F ield         | OpenFOAM: The Open Source CFD Toolbox
   \\    /   O peration     | Website:  https://openfoam.org
    \\  /    A nd           | Version:  9
     \\/     M anipulation  |
\*---------------------------------------------------------------------------*/
FoamFile
{
    format      ascii;
    class       volVectorField;
    location    "0.64";
    object      U;
}
// * * * * * * * * * * * * * * * * * * * * * * * * * * * * * * * * * * * * * //

dimensions      [0 1 -1 0 0 0 0];

internalField   nonuniform List<vector> 
90
(
(-1.85646e-10 -6.45116e-11 1.55902e-27)
(-1.0351e-11 1.90396e-11 -3.80627e-28)
(2.9816e-11 1.68653e-10 -4.79972e-28)
(3.06649e-11 2.41485e-10 4.75345e-28)
(3.39601e-11 1.41508e-10 1.00773e-28)
(-4.97381e-12 5.69196e-12 3.02398e-28)
(-1.80943e-10 -4.03117e-11 -1.87542e-27)
(8.28823e-11 -2.07583e-10 2.92759e-29)
(-1.085e-10 1.41184e-10 0)
(1.04849e-10 -1.93104e-10 0)
(-5.16359e-11 -7.25637e-11 -4.41948e-28)
(-1.91224e-11 8.17074e-11 6.37771e-29)
(-5.77687e-11 -3.99633e-11 -1.78388e-28)
(-1.23097e-11 2.5445e-11 -4.21427e-29)
(-5.20903e-11 1.68894e-10 0)
(4.01793e-12 1.78983e-10 0)
(1.00959e-10 2.4216e-10 -3.4048e-28)
(1.55781e-10 2.12578e-10 1.64303e-28)
(-1.26534e-10 1.33919e-10 0)
(-1.64321e-10 -9.62947e-11 -7.43221e-28)
(-4.09227e-12 -7.50169e-11 9.19937e-28)
(-1.317e-10 -1.55713e-10 -4.75546e-28)
(9.71646e-11 -1.43265e-10 -5.30973e-28)
(-1.46559e-10 -3.55685e-11 7.12966e-28)
(5.49024e-11 -1.86563e-10 -1.48118e-28)
(1.09657e-10 -6.21391e-11 4.68076e-28)
(6.81136e-11 -1.00957e-10 -8.85455e-28)
(-2.06685e-10 -2.43179e-10 -8.30061e-29)
(2.12042e-10 2.4469e-10 0)
(-3.64155e-11 -1.38638e-10 3.43345e-28)
(5.24299e-11 -1.85623e-10 -3.41381e-28)
(-1.77532e-12 -3.75019e-11 -7.99188e-28)
(-9.33746e-11 -1.8544e-10 9.43818e-29)
(3.72859e-11 -2.13575e-10 5.62708e-29)
(-5.17099e-11 -2.21203e-10 5.79004e-29)
(-5.07884e-13 6.59448e-11 3.80827e-29)
(8.31501e-11 3.59821e-11 0)
(9.20443e-11 1.41191e-10 0)
(-1.04595e-10 -1.32371e-10 -2.56329e-28)
(-8.90247e-11 -9.64953e-11 -2.07506e-28)
(-2.01153e-10 -2.11189e-10 5.10389e-28)
(-2.27039e-10 -1.66553e-10 9.83446e-28)
(-3.05886e-11 -2.16499e-10 7.91397e-30)
(-2.0382e-10 -1.09149e-10 1.99176e-28)
(1.54822e-10 -1.57188e-10 8.18585e-29)
(-2.76177e-11 2.23021e-11 2.06393e-28)
(-4.01446e-11 5.17155e-13 -4.29904e-28)
(1.14053e-10 5.91074e-11 -1.92911e-28)
(-1.74306e-10 -1.05583e-10 4.36047e-28)
(-5.9272e-11 1.03525e-10 2.78846e-29)
(-9.36573e-11 -7.76542e-11 0)
(-2.34221e-11 -1.80998e-11 5.44508e-28)
(1.60669e-10 -9.28239e-11 4.38727e-30)
(-1.88561e-10 -2.44989e-10 0)
(-1.0319e-11 -1.28859e-11 -1.0353e-27)
(2.174e-10 1.31751e-11 2.65346e-30)
(-2.1513e-10 -1.53265e-10 -1.51584e-28)
(-1.39584e-11 5.90468e-12 0)
(2.46787e-10 -1.1789e-10 0)
(4.91097e-11 -3.19145e-11 1.06172e-27)
(-2.17107e-10 -7.18248e-11 -5.30741e-28)
(1.08127e-10 2.88689e-11 0)
(3.53213e-11 5.57371e-13 9.63057e-28)
(-6.2128e-11 -1.32975e-10 9.81176e-29)
(-1.89165e-10 -1.86074e-10 -4.90092e-28)
(8.80106e-11 7.03352e-11 -7.44697e-28)
(-1.48853e-10 4.82915e-11 0)
(-1.0814e-10 4.46888e-11 0)
(1.58125e-10 1.88018e-10 3.51889e-29)
(1.42148e-10 1.30081e-10 -3.89593e-28)
(1.88762e-10 6.19893e-11 0)
(1.83151e-10 -1.17679e-10 3.76551e-28)
(1.32375e-10 -8.016e-11 0)
(1.50834e-10 9.42691e-11 -9.347e-28)
(2.36041e-10 2.01339e-10 3.9335e-28)
(-6.79179e-11 -3.11444e-11 4.10835e-28)
(8.51161e-11 -8.27701e-12 -2.33218e-28)
(-1.06593e-10 -2.34317e-10 0)
(1.0912e-10 -1.6679e-10 -1.16504e-28)
(2.69235e-10 -4.6432e-11 5.46413e-28)
(7.0492e-11 6.97791e-11 3.78126e-28)
(-4.27472e-12 -1.86857e-10 4.87419e-29)
(-6.38136e-11 1.63513e-11 6.62567e-28)
(2.59134e-10 1.55507e-10 -3.51858e-28)
(1.72319e-10 1.58334e-12 2.2528e-28)
(-7.52182e-11 6.51072e-11 -2.41771e-28)
(2.18827e-11 -1.883e-10 -8.80046e-29)
(-8.64745e-11 -1.53928e-10 -1.47456e-28)
(2.40306e-10 1.06507e-10 1.26553e-27)
(1.23767e-10 -6.11013e-11 -3.64663e-28)
)
;

boundaryField
{
    back
    {
        type            empty;
    }
    front
    {
        type            empty;
    }
    bottom
    {
        type            uniformFixedValue;
        uniformValue    
        {
            type            scale;
            scale           
            {
                type            squarePulse;
                start           0.3;
                duration        0.3;
            }
            xScale          
            {
                type            constant;
                value           1;
            }
            value           
            {
                type            constant;
                value           (0 0.7 0);
            }
        }
        value           uniform (0 0 0);
    }
    outer_arc
    {
        type            noSlip;
    }
    right
    {
        type            zeroGradient;
    }
    inner_arc
    {
        type            noSlip;
    }
}


// ************************************************************************* //
