/*--------------------------------*- C++ -*----------------------------------*\
  =========                 |
  \\      /  F ield         | OpenFOAM: The Open Source CFD Toolbox
   \\    /   O peration     | Website:  https://openfoam.org
    \\  /    A nd           | Version:  9
     \\/     M anipulation  |
\*---------------------------------------------------------------------------*/
FoamFile
{
    format      ascii;
    class       volScalarField;
    location    "0.32";
    object      p;
}
// * * * * * * * * * * * * * * * * * * * * * * * * * * * * * * * * * * * * * //

dimensions      [0 2 -2 0 0 0 0];

internalField   nonuniform List<scalar> 
464
(
15.1069
15.0918
15.4394
15.3956
15.095
15.4518
15.1135
15.3952
15.1098
15.1125
15.1085
15.1216
15.1144
15.1167
15.1514
15.1579
15.2012
15.2061
15.4028
15.2632
15.2686
15.3165
15.3108
15.3915
15.4004
15.3871
15.1368
15.382
15.1419
15.3489
15.3563
15.1732
15.1702
15.187
15.1929
15.2234
15.2308
15.3928
15.3665
15.157
15.26
15.2921
15.3017
15.1173
15.1085
15.1557
15.3267
15.3017
15.3534
15.382
15.2543
15.34
15.2396
15.2756
15.2755
15.3354
15.3336
15.2357
15.236
15.239
15.3696
15.1188
15.219
15.2557
15.115
15.2842
15.2064
15.3412
15.112
15.2659
15.2285
15.1146
15.1325
15.3154
15.1559
15.3587
15.2129
15.1002
15.2424
15.142
15.1099
15.4103
15.1144
15.3955
15.1162
15.2239
15.124
15.3872
15.3786
15.1559
15.1189
15.105
15.1914
15.0932
15.1856
15.2126
15.248
15.4108
15.1416
15.1192
15.3774
15.2963
15.3687
15.1675
15.1745
15.1098
15.4127
15.2021
15.123
15.291
15.1755
15.3144
15.1958
15.1415
15.3695
15.3587
15.1231
15.3653
15.137
15.3599
15.2953
15.1231
15.1243
15.1172
15.2243
15.1713
15.1295
15.1757
15.1849
15.1188
15.3818
15.1203
15.3818
15.348
15.322
15.128
15.3498
15.3776
15.1201
15.2899
15.319
15.1814
15.2293
15.3592
15.3394
15.151
15.339
15.3827
15.2616
15.2832
15.3292
15.3467
15.1411
15.1655
15.1324
15.2972
15.2051
15.3191
15.1284
15.1277
15.1467
15.3092
15.161
15.2761
15.2719
15.3266
15.1504
15.2747
15.1707
15.1657
15.1705
15.1279
15.1511
15.313
15.1608
15.1807
15.301
15.2924
15.1355
15.1982
15.2907
15.2015
15.1879
15.1933
15.1707
15.1802
15.201
15.1959
15.156
15.1805
15.2817
15.1906
15.2922
15.2864
15.2405
15.2412
15.268
15.2808
15.1755
15.2666
15.2718
15.2465
15.27
15.2536
15.1857
15.2843
15.2636
15.2513
15.2452
15.1466
15.3093
15.2063
15.3296
15.2363
15.2659
15.1756
15.1667
15.2771
15.1397
15.2396
15.1998
15.2572
15.2587
15.2691
15.2845
15.2764
15.2689
15.2471
15.2616
15.2553
15.2482
15.2379
15.2356
15.2304
15.2359
15.242
15.218
15.2259
15.2353
15.2165
15.2304
15.2127
15.2313
15.2249
15.2185
15.2089
15.2123
15.254
15.2054
15.255
15.1993
15.2084
15.1968
15.1614
15.2074
15.2016
15.319
15.2522
15.1964
15.1803
15.1915
15.1767
15.1871
15.1517
15.1814
15.151
15.1759
15.3681
15.153
15.1588
15.2977
15.1707
15.156
15.1481
15.1219
15.1667
15.1607
15.2345
15.2281
15.1462
15.157
15.3489
15.2335
15.3209
15.1488
15.152
15.2222
15.1337
15.3474
15.1478
15.1429
15.1389
15.328
15.2915
15.2017
15.223
15.2115
15.1859
15.1963
15.1332
15.1492
15.1421
15.125
15.0973
15.2315
15.1915
15.1814
15.2466
15.1323
15.1706
15.2615
15.3386
15.2077
15.1333
15.1715
15.1615
15.217
15.137
15.4024
15.1331
15.3395
15.2068
15.1369
15.1909
15.1383
15.3004
15.3199
15.1282
15.356
15.1424
15.2768
15.097
15.4065
15.1874
15.2528
15.3011
15.3333
15.4057
15.1656
15.2836
15.4169
15.0947
15.1518
15.1463
15.1674
15.3882
15.3093
15.2175
15.4031
15.2482
15.3093
15.4065
15.2122
15.2181
15.308
15.0924
15.5689
15.0971
15.5118
15.1039
15.4225
15.1036
15.4079
15.1123
15.104
15.428
15.3882
15.1922
15.1099
15.3548
15.4223
15.1239
15.1446
15.1937
15.1302
15.387
15.1228
15.2929
15.1434
15.3371
15.1564
15.1799
15.1854
15.1758
15.1968
15.1653
15.1879
15.3932
15.206
15.219
15.2416
15.2217
15.2418
15.2375
15.2546
15.2991
15.2803
15.3364
15.285
15.1304
15.0982
15.4182
15.0969
15.4406
15.1017
15.1021
15.0974
15.5154
15.0939
15.5767
15.1075
15.4022
15.405
15.3686
15.3987
15.1014
15.1032
15.4062
15.4104
15.1003
15.4056
15.4084
15.1202
15.1237
15.0951
15.1385
15.1465
15.1528
15.1526
15.1033
15.4281
15.1729
15.1792
15.3821
15.1939
15.2031
15.21
15.3566
15.2135
15.3411
15.2344
15.2322
15.2634
15.2689
15.3278
15.2759
15.3163
15.2858
15.3094
15.2511
15.1636
15.0998
15.1497
15.3752
15.2369
15.2084
15.2124
15.4268
15.4158
15.4217
15.4604
15.104
15.099
15.3699
)
;

boundaryField
{
    back
    {
        type            empty;
    }
    front
    {
        type            empty;
    }
    left
    {
        type            zeroGradient;
    }
    top
    {
        type            zeroGradient;
    }
    right
    {
        type            zeroGradient;
    }
    bottom
    {
        type            uniformFixedValue;
        uniformValue    
        {
            type            scale;
            scale           
            {
                type            squarePulse;
                start           0.3;
                duration        0.3;
            }
            xScale          
            {
                type            constant;
                value           1;
            }
            value           
            {
                type            constant;
                value           15.1;
            }
        }
        value           uniform 15.1;
    }
}


// ************************************************************************* //
