/*--------------------------------*- C++ -*----------------------------------*\
  =========                 |
  \\      /  F ield         | OpenFOAM: The Open Source CFD Toolbox
   \\    /   O peration     | Website:  https://openfoam.org
    \\  /    A nd           | Version:  9
     \\/     M anipulation  |
\*---------------------------------------------------------------------------*/
FoamFile
{
    format      ascii;
    class       surfaceScalarField;
    location    "0.32";
    object      phi;
}
// * * * * * * * * * * * * * * * * * * * * * * * * * * * * * * * * * * * * * //

dimensions      [0 3 -1 0 0 0 0];

internalField   nonuniform List<scalar> 
663
(
-3.25733e-08
-1.50178e-09
3.40751e-08
-1.55771e-08
-8.78274e-09
1.73687e-08
8.88134e-09
2.46721e-09
-2.22433e-08
1.97761e-08
3.36844e-09
-1.89455e-08
-8.47629e-09
2.5845e-08
-1.04312e-09
-3.15302e-08
-2.2773e-08
2.52402e-08
-2.22022e-09
-3.383e-08
3.60503e-08
-3.41741e-08
3.19539e-08
-2.96357e-08
2.81339e-08
1.4705e-08
-2.19733e-08
7.26828e-09
-3.48732e-08
1.8306e-08
-3.60092e-09
-1.68078e-08
1.89661e-08
-2.15826e-09
-1.77258e-08
9.17918e-10
-1.65959e-08
1.76065e-08
-1.01069e-09
-1.79945e-08
1.39867e-09
2.20893e-08
-2.20893e-08
-2.41949e-08
2.88474e-08
-4.65255e-09
2.94414e-09
-2.7139e-08
2.39981e-08
1.97354e-09
-2.59717e-08
2.77631e-08
-3.76497e-09
1.62539e-08
7.63127e-09
-2.38851e-08
-2.66995e-08
4.45619e-09
-7.78377e-09
2.40376e-08
-1.53612e-08
1.82043e-08
-2.84303e-09
2.70637e-08
-2.99289e-08
2.86513e-09
-2.26069e-08
7.24572e-09
-1.6484e-08
2.66695e-08
-1.01855e-08
9.10985e-09
-2.55939e-08
1.83454e-08
-2.85238e-08
1.01783e-08
-6.2528e-09
2.45982e-08
-2.07475e-08
2.77318e-08
-6.98437e-09
-2.85826e-08
7.83515e-09
-1.44356e-08
-3.55894e-09
-2.2462e-08
8.02646e-09
4.11962e-09
1.79697e-08
-1.97962e-09
2.90434e-08
1.9334e-08
-2.28749e-09
-1.70465e-08
1.71268e-08
1.17206e-08
-1.75044e-08
2.73076e-08
-9.80317e-09
1.02587e-08
1.5135e-08
3.06922e-09
-6.83828e-09
1.60827e-09
-3.05382e-08
2.95235e-08
1.01469e-09
-2.63032e-08
2.73228e-08
-1.01959e-09
-1.59901e-08
1.59901e-08
-2.58093e-08
-7.41843e-09
2.45453e-08
2.8709e-08
-2.30529e-09
-2.64037e-08
2.18062e-08
-3.4127e-09
-1.83935e-08
-1.18017e-09
-3.03864e-08
3.15666e-08
2.95098e-08
-3.06899e-08
3.42477e-09
2.52843e-08
-2.71134e-08
-6.00912e-10
-3.18054e-08
3.24064e-08
2.97217e-08
-3.03226e-08
1.96807e-08
2.12547e-09
-1.79697e-08
2.90729e-08
-2.87024e-08
-3.7058e-10
-3.24633e-08
3.21859e-08
2.77366e-10
3.13356e-08
-3.13866e-08
5.09821e-11
-1.80876e-09
-3.23654e-08
5.76932e-11
-3.04441e-08
-2.98086e-08
3.00921e-08
-2.83547e-10
1.36848e-08
-2.23674e-08
-8.77109e-10
3.03869e-08
3.04297e-08
-7.07974e-10
2.72642e-08
-1.70802e-08
-5.52677e-09
1.84365e-10
-2.64875e-08
2.93311e-10
2.18257e-08
-2.2119e-08
2.63962e-09
4.44838e-10
-3.02534e-08
-6.58516e-10
3.47336e-08
-3.2009e-08
2.03579e-10
1.88592e-09
-2.14238e-08
4.09004e-09
1.73338e-08
2.47916e-08
1.92006e-11
-2.48108e-08
2.53341e-10
8.06806e-09
-8.3214e-09
1.96291e-09
-1.88079e-08
1.6845e-08
-2.11705e-08
-4.35382e-10
-3.20279e-08
9.48329e-10
-2.96507e-08
2.67545e-08
-1.43697e-09
2.48317e-08
-2.33947e-08
-2.96581e-08
2.99514e-08
-2.15411e-08
3.13542e-08
2.9777e-08
-3.03138e-08
5.36776e-10
-1.62925e-08
3.18901e-10
1.59736e-08
3.00366e-08
-2.59611e-10
3.26308e-08
-6.73408e-10
2.62677e-08
-2.62485e-08
1.06261e-10
8.56265e-09
-8.66891e-09
-3.31882e-08
-1.68494e-09
2.59704e-08
-2.74074e-08
2.61743e-09
2.47053e-08
2.52989e-08
6.71532e-10
-2.11464e-08
-7.37738e-09
6.58545e-09
8.06805e-09
-1.88079e-08
3.00721e-08
1.99933e-11
-1.72358e-10
-2.13687e-08
-3.08238e-08
2.96853e-08
1.13846e-09
3.00037e-08
-2.02677e-10
-2.9801e-08
2.97079e-08
-2.41676e-10
-2.16557e-08
2.17619e-08
2.64717e-08
-1.63994e-09
2.57046e-08
-4.05727e-10
8.3214e-09
-8.49375e-09
3.15774e-09
-1.6845e-08
1.36873e-08
8.56265e-09
-2.46382e-08
2.7796e-08
-2.82064e-08
-3.39966e-08
8.08378e-10
-3.3102e-08
3.40503e-08
-3.19227e-08
3.92464e-10
2.99943e-08
2.97584e-08
2.45232e-10
1.80036e-10
-3.3282e-08
-2.24154e-08
2.22128e-08
-1.89767e-08
-9.60596e-09
8.32569e-09
-8.32569e-09
2.59618e-08
-2.57144e-10
6.39185e-11
2.29666e-08
-2.30305e-08
-8.49376e-09
1.36873e-08
2.80434e-08
-2.51783e-08
1.01946e-08
-1.01946e-08
-1.19372e-08
1.20011e-08
2.35658e-10
-2.36317e-08
2.29238e-08
2.60659e-08
1.19372e-08
1.75008e-09
-6.71934e-11
2.18929e-08
2.62885e-08
-3.26741e-10
2.11622e-09
-3.07444e-08
-6.42241e-10
9.47419e-09
7.20451e-10
2.7589e-08
-1.30054e-09
2.85681e-08
-2.88253e-08
3.12395e-08
-3.03157e-08
-9.23815e-10
2.99829e-08
-2.24505e-10
6.88884e-11
-1.20011e-08
1.80647e-09
1.46243e-08
2.98222e-09
2.81088e-08
-5.19742e-10
-3.38166e-08
2.51772e-10
-2.16205e-08
-3.38119e-08
-3.18444e-10
3.41303e-08
2.76108e-08
4.98009e-10
-4.5378e-11
-2.20736e-08
9.47419e-09
-6.81257e-10
1.01554e-08
1.84237e-10
-3.39961e-08
2.10719e-08
-2.17531e-08
-3.09217e-10
-2.29901e-08
2.32993e-08
-8.78148e-09
8.78148e-09
-8.86682e-09
8.53482e-11
-2.93989e-08
-8.7361e-09
8.6689e-09
2.49402e-08
8.7361e-09
-7.26158e-11
-2.23428e-08
2.79704e-08
-3.59605e-10
-5.37584e-10
2.8508e-08
3.14439e-08
-2.04395e-10
-9.35229e-10
2.28892e-08
-2.19539e-08
-3.12872e-08
3.07496e-08
-4.87041e-11
2.27513e-08
-2.27026e-08
-8.39224e-09
8.39224e-09
-9.32747e-09
-7.89237e-09
7.58316e-09
7.89237e-09
4.99871e-10
9.03221e-09
-9.08091e-09
9.03221e-09
-8.93943e-09
8.86682e-09
-2.54802e-08
1.0046e-09
2.44756e-08
8.93944e-09
9.27736e-11
1.14619e-08
-1.14619e-08
-7.74811e-10
-5.67368e-10
-2.97553e-08
-2.39472e-08
2.33799e-08
2.4016e-08
-2.49365e-08
2.40594e-08
-4.60906e-10
-2.36996e-08
-2.4769e-10
1.02262e-08
-1.06871e-08
-2.43836e-08
6.84031e-10
1.06871e-08
1.02262e-08
9.90198e-09
-9.90198e-09
9.65429e-09
-9.08091e-09
1.36848e-08
8.50553e-09
-8.50553e-09
1.01554e-08
7.58315e-09
8.0995e-09
-8.0995e-09
9.65429e-09
-9.32747e-09
3.24234e-10
8.22252e-10
2.85657e-08
2.95974e-08
-1.0317e-09
3.04196e-08
1.70138e-09
3.16325e-08
-3.33339e-08
2.9951e-08
4.68622e-10
3.0002e-08
3.17033e-08
3.00586e-08
1.57389e-09
6.20677e-11
2.99966e-08
3.7845e-10
2.82446e-08
-2.66707e-08
3.19069e-08
-2.98261e-08
-1.92426e-09
3.17503e-08
-2.99552e-08
1.29147e-10
3.1969e-08
2.80482e-08
-2.99724e-08
3.23474e-08
-2.40971e-10
3.19913e-08
4.13417e-11
3.24766e-08
3.2754e-08
2.70375e-08
3.2513e-08
-1.7959e-09
2.58119e-08
3.27225e-08
-7.31222e-10
8.35955e-09
-1.42486e-09
3.41474e-08
2.63063e-08
2.40416e-10
-3.2387e-08
3.21466e-08
3.24834e-10
3.27768e-08
-2.63775e-10
3.13519e-08
-2.86835e-08
2.81638e-08
8.35955e-09
3.15923e-08
1.18886e-10
3.22662e-08
-3.23851e-08
3.15838e-08
8.51898e-12
1.40827e-10
-3.27216e-08
3.25807e-08
3.17812e-08
-1.97438e-10
3.2495e-08
-3.33696e-08
8.74641e-10
3.19001e-08
3.26792e-08
3.20409e-08
2.64034e-08
-2.70812e-08
2.49229e-08
1.45214e-09
-3.48217e-08
2.67466e-08
3.22864e-08
-2.45411e-10
-3.37436e-08
-2.52513e-10
-2.62065e-08
-3.11143e-08
3.22915e-08
-5.11413e-12
-2.51857e-10
-9.40243e-09
9.40243e-09
2.37187e-10
3.28932e-08
-3.31457e-08
-1.92962e-09
2.79956e-08
-1.20329e-09
-2.3635e-09
2.72864e-08
3.33476e-08
-4.54453e-10
2.35504e-10
9.16693e-09
-3.3043e-08
-2.38983e-10
-2.90431e-08
3.30292e-08
3.33358e-08
-3.06591e-10
2.92735e-10
-2.76688e-08
-2.93057e-08
-3.2367e-08
2.31593e-08
-9.16693e-09
8.60169e-11
-2.26024e-08
2.25097e-08
-2.96379e-08
3.32065e-08
-1.22868e-11
2.88132e-08
-2.88009e-08
2.01348e-09
-1.6122e-08
-6.34001e-09
3.26833e-08
-3.24859e-08
3.55868e-09
-2.15516e-08
2.22981e-08
2.97446e-08
-3.17305e-10
-3.34992e-08
3.2826e-08
-3.28209e-08
-2.10357e-10
-2.94275e-08
-2.93029e-08
6.52999e-09
3.11266e-08
2.29995e-08
3.66994e-09
-2.29862e-08
-1.24815e-08
1.24815e-08
-2.97341e-08
-2.32184e-08
-3.92064e-09
-1.61562e-08
-2.10607e-08
1.57039e-08
1.05461e-08
3.04287e-08
-2.96653e-08
-2.97216e-09
1.09956e-08
1.52544e-08
4.08923e-09
1.40485e-08
1.22015e-08
-1.65462e-08
-1.66766e-08
2.9497e-08
-1.84542e-09
-2.33328e-08
-2.59102e-10
-1.50152e-09
-2.29002e-08
-6.45631e-09
1.77737e-08
-6.45631e-09
1.77737e-08
1.99242e-08
-2.87069e-08
-1.44235e-08
2.33049e-08
3.53917e-08
1.0342e-09
-1.61175e-09
2.84528e-08
-1.59116e-08
-6.17771e-09
3.53096e-09
-2.25076e-08
4.72477e-09
1.76105e-08
-1.36884e-08
2.58899e-08
-5.25647e-09
2.17596e-08
1.8423e-08
-3.79866e-09
5.25647e-09
2.1975e-08
1.69435e-08
-6.21358e-09
-1.93606e-08
5.29566e-09
-1.64047e-08
1.59048e-08
2.48888e-08
2.45414e-08
-2.46434e-08
-2.45499e-08
1.84839e-08
-6.34525e-09
4.94658e-09
2.19046e-08
-2.1946e-08
-4.94685e-09
4.94685e-09
-2.16133e-08
-2.10285e-08
2.68289e-08
2.5596e-08
-1.76639e-08
-2.15552e-08
-1.35405e-08
1.18265e-08
1.19066e-08
1.25616e-08
1.92355e-08
1.8057e-08
6.73825e-09
-6.73825e-09
-1.59116e-08
-3.51466e-09
1.03384e-08
-2.64731e-09
3.46012e-08
-2.24625e-09
-2.10866e-08
1.94289e-08
2.94361e-09
-2.23726e-08
1.97154e-08
-1.90439e-08
4.72477e-09
-2.80555e-08
-1.45566e-08
-1.24589e-08
-6.21358e-09
-5.29566e-09
2.06001e-08
-6.34525e-09
-4.94658e-09
-2.11447e-08
-2.57972e-08
2.42954e-08
2.05305e-08
4.99373e-09
1.67222e-08
-2.28999e-08
1.13333e-08
)
;

boundaryField
{
    back
    {
        type            empty;
        value           nonuniform List<scalar> 0();
    }
    front
    {
        type            empty;
        value           nonuniform List<scalar> 0();
    }
    left
    {
        type            calculated;
        value           uniform 0;
    }
    top
    {
        type            calculated;
        value           nonuniform List<scalar> 8(-2.625e-08 -2.625e-08 -2.625e-08 -2.625e-08 -2.625e-08 -2.625e-08 -2.625e-08 -2.625e-08);
    }
    right
    {
        type            calculated;
        value           uniform 0;
    }
    bottom
    {
        type            calculated;
        value           nonuniform List<scalar> 8(2.43598e-08 3.72169e-08 3.32228e-08 9.82475e-09 3.34647e-08 1.02529e-08 2.43655e-08 3.72926e-08);
    }
}


// ************************************************************************* //
