/*--------------------------------*- C++ -*----------------------------------*\
  =========                 |
  \\      /  F ield         | OpenFOAM: The Open Source CFD Toolbox
   \\    /   O peration     | Website:  https://openfoam.org
    \\  /    A nd           | Version:  9
     \\/     M anipulation  |
\*---------------------------------------------------------------------------*/
FoamFile
{
    format      ascii;
    class       volVectorField;
    location    "0.32";
    object      U;
}
// * * * * * * * * * * * * * * * * * * * * * * * * * * * * * * * * * * * * * //

dimensions      [0 1 -1 0 0 0 0];

internalField   nonuniform List<vector> 
464
(
(0.00323162 -0.940417 -1.61007e-17)
(0.0011161 -0.657178 0)
(0.0154014 -0.698758 0)
(-0.00258726 -0.716211 -3.53853e-16)
(-0.00736381 -0.536992 0)
(0.0773976 -0.75524 8.06184e-17)
(0.00090942 -0.970393 2.70598e-16)
(-0.0110088 -0.71868 0)
(-0.00295866 -1.00375 -9.49873e-20)
(-0.00351505 -0.982528 2.56135e-16)
(0.00584223 -0.841003 1.7438e-17)
(0.0047763 -0.644396 -1.05897e-17)
(-0.000523736 -0.998569 5.13387e-16)
(-0.0082267 -0.526114 0)
(0.00417177 -0.613585 2.32709e-16)
(0.0027854 -0.505028 -3.93274e-16)
(0.0024759 -0.623008 0)
(0.00576286 -0.518643 1.46645e-16)
(-0.0288926 -0.475614 3.1778e-16)
(0.021548 -0.863589 -2.80021e-16)
(0.0253492 -0.837484 4.53486e-16)
(0.0428559 -0.831827 -7.77225e-17)
(0.0371563 -0.84309 3.83972e-17)
(0.0174744 -0.726395 0)
(0.00360866 -0.708719 3.177e-16)
(0.0288922 -0.740234 -1.64933e-16)
(-0.00552071 -0.532678 -1.83168e-16)
(-0.0621296 -0.804567 2.91363e-16)
(0.00955776 -0.647796 0)
(0.0521189 -0.811253 0)
(0.0464941 -0.797211 -1.9767e-17)
(0.0108871 -0.863546 -2.2915e-18)
(0.00090708 -0.80782 4.09071e-17)
(0.00406675 -0.803871 2.9479e-16)
(0.0116711 -0.867095 -2.89791e-16)
(0.000411911 -0.554452 -4.29363e-16)
(0.0163239 -0.671987 3.46819e-16)
(-0.0493235 -0.661354 4.3694e-17)
(-0.0578456 -0.759071 -2.52858e-18)
(0.00151477 -0.527762 0)
(0.0210731 -0.869442 -4.5277e-16)
(0.0251426 -0.827962 0)
(0.0317289 -0.855266 1.11106e-16)
(0.00847356 -0.519239 -3.84726e-16)
(0.00167604 -0.640528 3.50781e-16)
(0.00588454 -0.606846 2.40813e-17)
(-0.0350538 -0.831666 -2.83288e-16)
(-0.0288859 -0.704955 1.93502e-19)
(-0.0217976 -0.342659 0)
(-0.0656781 -0.776398 -3.5575e-17)
(0.0109901 -0.833269 3.28446e-16)
(-0.048011 -0.743115 1.85735e-17)
(0.00691482 -0.565616 2.54926e-16)
(-0.0138297 -0.875744 2.68907e-16)
(-0.0216451 -0.870373 8.86492e-18)
(-0.0469701 -0.80098 -2.96921e-16)
(-0.0425027 -0.818616 0)
(-0.00942531 -0.909383 0)
(-0.0131663 -0.883461 2.85134e-16)
(0.00789158 -0.636172 0)
(-0.0417796 -0.577764 -3.94931e-16)
(-0.00498341 -0.827854 -5.85396e-16)
(-0.00546464 -0.93135 -5.43339e-16)
(-0.0080903 -0.899052 2.78388e-16)
(-0.00340973 -0.957703 6.35739e-20)
(-0.0103682 -0.868246 2.84202e-16)
(-0.00929483 -0.842797 2.85262e-16)
(-0.0323632 -0.51755 3.97752e-16)
(0.00354784 -0.787739 -1.446e-16)
(-0.0207385 -0.846306 -2.85145e-16)
(-0.012319 -0.845064 -2.84257e-16)
(-0.00333001 -0.885224 2.94672e-16)
(0.00440006 -0.64427 0)
(-0.0376682 -0.791816 -3.14444e-16)
(-0.0041713 -0.686636 3.48261e-16)
(-0.0566728 -0.809221 -2.95905e-16)
(-0.00999759 -0.886545 2.85323e-16)
(0.0029982 -0.966549 -2.58975e-16)
(-0.00714613 -0.911596 2.74527e-16)
(0.0102176 -0.536523 1.86843e-16)
(-0.0100429 -0.647177 0)
(0.0802241 -0.789476 -8.15592e-17)
(0.00155417 -0.312507 5.73408e-16)
(0.0477606 -0.634569 -3.93217e-16)
(-0.000497448 -0.568532 0)
(-0.00828489 -0.91727 -1.02085e-19)
(-0.004813 -0.886849 2.87779e-16)
(0.0752232 -0.767549 0)
(-0.0129749 -0.742057 0)
(-0.00547677 -0.836533 2.86021e-16)
(-0.0037078 -0.670043 -3.53563e-16)
(-0.00707901 -0.812012 0)
(-0.00791929 -0.888766 -2.89087e-16)
(-0.00597402 -0.60251 -3.29274e-16)
(-0.00736636 -0.840442 2.86158e-16)
(-0.00733118 -0.924426 2.70547e-16)
(-0.0105312 -0.899951 -2.7472e-16)
(0.0454299 -0.736341 7.62042e-17)
(-0.00138751 -0.324016 5.53231e-16)
(-0.00170075 -0.999118 -2.55356e-16)
(0.00235387 -0.74038 0)
(-0.0299261 -0.780384 -1.90586e-17)
(0.0107216 -0.754947 0)
(0.00812314 -0.860362 2.27485e-18)
(0.0111685 -0.800656 0)
(-0.000426748 -0.168082 4.80459e-16)
(0.0241097 -0.446184 0)
(-0.00878507 -0.888019 -2.81015e-16)
(-0.00148773 -0.571106 3.53711e-16)
(-0.0252391 -0.861439 0)
(-0.00653693 -0.839345 0)
(-0.0367614 -0.832028 2.90567e-16)
(-0.0082497 -0.842042 0)
(-0.00235375 -0.579043 -3.5028e-16)
(-0.0215189 -0.760954 -9.92096e-18)
(0.00232998 -0.767714 5.06706e-18)
(-0.00122404 -0.31744 -5.62454e-16)
(0.0439445 -0.554936 -4.42133e-16)
(-0.000443546 -0.172969 -4.84032e-16)
(0.0588301 -0.74991 1.89354e-17)
(-0.0301272 -0.840624 -2.66129e-16)
(-2.25188e-05 -0.994607 -8.17017e-18)
(-0.00447921 -0.959119 -2.61182e-16)
(0.00190407 -0.939068 -2.7031e-16)
(-0.0113273 -0.884801 0)
(-0.0063379 -0.889768 -2.85918e-16)
(-0.00320273 -0.980523 2.66106e-16)
(-0.00478554 -0.694643 0)
(0.0124215 -0.858871 0)
(-0.000513882 -0.168877 -4.85953e-16)
(0.027401 -0.382636 3.70999e-16)
(0.0080187 -0.182387 -4.7691e-16)
(-0.0283891 -0.390901 3.61356e-16)
(0.00895434 -0.783107 0)
(0.0366808 -0.701832 0)
(-0.000503834 -0.17159 4.84285e-16)
(0.0227494 -0.316931 8.18939e-16)
(-0.048237 -0.77208 3.05374e-16)
(-0.00354558 -0.982674 -2.59295e-16)
(0.00838159 -0.222633 -4.5981e-16)
(0.0165682 -0.449617 0)
(-0.00705076 -0.889081 0)
(-0.00952947 -0.723197 -1.27252e-19)
(-0.0138989 -0.770251 -3.20469e-16)
(0.0289152 -0.486552 -4.55319e-16)
(-0.00258623 -0.583291 3.51027e-16)
(0.00135352 -0.794572 0)
(0.0682629 -0.803251 0)
(-0.0122476 -0.888628 -1.32837e-20)
(0.00855397 -0.383845 1.03802e-15)
(0.0082899 -0.809496 -9.54854e-18)
(0.0254989 -0.793524 -2.9441e-16)
(0.00281807 -0.959186 2.97502e-16)
(-0.0058692 -0.83821 2.86453e-16)
(-0.00106193 -0.321082 5.4605e-19)
(0.0164688 -0.415495 5.23372e-16)
(0.0130337 -0.549708 0)
(0.00142117 -0.821419 0)
(-0.000848138 -0.995471 2.62225e-16)
(-0.00317131 -0.675896 -3.56208e-16)
(-0.000915056 -0.986246 0)
(0.00696908 -0.834169 3.17225e-16)
(-0.00276722 -0.587269 -6.96677e-16)
(0.00240114 -0.20296 -1.72939e-19)
(0.00175018 -0.37751 -5.25305e-16)
(0.0125665 -0.268549 0)
(0.000735997 -0.980456 2.62273e-16)
(0.0139422 -0.641601 -3.58059e-16)
(0.0054699 -0.577187 -3.32757e-16)
(-0.000515596 -0.177525 -9.61686e-16)
(-0.00131359 -0.33163 -1.79624e-19)
(-0.00454756 -0.831458 2.90313e-16)
(-0.00113887 -0.326751 -1.71384e-19)
(0.0372877 -0.782058 7.95447e-17)
(-0.000966261 -0.329238 1.77738e-19)
(-0.00344613 -0.59569 3.46836e-16)
(0.000831097 -0.844145 -3.04932e-16)
(0.00574763 -0.856065 1.1744e-18)
(0.00290884 -0.934224 2.7566e-16)
(0.00455379 -0.596157 -4.11115e-17)
(0.019152 -0.865234 -2.7808e-16)
(-0.00446364 -0.606203 -3.43284e-16)
(-0.000984199 -0.178208 0)
(-0.00362377 -0.33549 6.00234e-16)
(0.00446623 -0.309266 9.12188e-18)
(0.00341841 -0.322336 1.74491e-17)
(-0.00134502 -0.3412 0)
(-0.000577915 -0.183194 4.76869e-16)
(-0.000229746 -0.17631 9.62532e-16)
(-0.00130203 -0.334667 -1.07588e-18)
(-0.0231527 -0.764824 3.13809e-19)
(-0.00139989 -0.337854 -5.4928e-16)
(-0.00788003 -0.238531 8.78323e-16)
(-0.0221427 -0.683445 3.27106e-16)
(-0.0145052 -0.84653 -2.78475e-19)
(-0.0114824 -0.732676 3.25756e-19)
(0.0167337 -0.744942 3.26184e-16)
(-0.0249617 -0.843792 -2.76193e-19)
(0.00241376 -0.16987 4.96333e-16)
(-0.0178846 -0.753451 -3.25411e-16)
(-0.0162243 -0.667312 0)
(-0.00964219 -0.641209 0)
(-0.00690348 -0.387927 0)
(-0.0141665 -0.742285 -3.22547e-19)
(-0.000595961 -0.18108 0)
(-0.0105958 -0.406391 -8.04731e-18)
(-0.00320902 -0.209857 0)
(-0.00222979 -0.202067 4.63386e-16)
(-0.00335886 -0.365145 -5.3054e-16)
(-0.000569685 -0.174926 -4.82308e-16)
(0.00878251 -0.257079 -4.30348e-16)
(-0.000648986 -0.184726 0)
(-0.0167144 -0.293446 -4.0948e-16)
(-0.00309408 -0.194306 4.78596e-16)
(0.00240496 -0.212165 0)
(-0.000519974 -0.179394 4.79368e-16)
(0.00660464 -0.170287 -4.98796e-16)
(-0.00502262 -0.22105 -4.51274e-16)
(0.00445662 -0.1783 -2.22376e-19)
(-0.00171036 -0.196628 4.67331e-16)
(0.000407298 -0.191076 -4.70325e-16)
(-0.00466544 -0.374873 -5.23968e-16)
(-0.0123257 -0.653287 3.30252e-16)
(-0.00936206 -0.88499 -5.54731e-16)
(0.000498114 -0.864913 -2.99639e-16)
(0.00502452 -0.875264 2.81498e-16)
(0.000251433 -0.883355 0)
(0.0129613 -0.906242 -1.31914e-16)
(0.00469832 -0.891795 8.80005e-18)
(0.000720002 -0.898742 2.89537e-16)
(0.00429679 -0.90618 -2.77901e-16)
(0.0101994 -0.895803 3.41617e-17)
(0.00722345 -0.912608 0)
(-0.00639431 -0.922054 2.67493e-16)
(0.0103221 -0.837165 -3.25051e-16)
(0.00047599 -0.913154 0)
(0.00954098 -0.903971 1.20386e-19)
(0.00882205 -0.920484 1.24775e-19)
(0.00281383 -0.9182 -2.74446e-16)
(0.0138879 -0.840176 -2.84138e-16)
(-0.00031824 -0.924217 2.76709e-16)
(0.00714245 -0.926771 2.66362e-16)
(0.00989477 -0.9007 -2.84809e-16)
(0.00352 -0.92833 0)
(0.000721041 -0.935487 0)
(0.00400801 -0.783177 7.84516e-20)
(0.00313548 -0.938786 8.43516e-18)
(0.0132967 -0.638008 0)
(0.00938577 -0.90677 0)
(0.0119181 -0.353698 0)
(0.00893016 -0.929529 2.58734e-16)
(0.00940666 -0.829899 6.02037e-16)
(-0.00484255 -0.947301 2.69686e-16)
(-0.00577244 -0.889911 -2.86096e-16)
(0.000483618 -0.945208 0)
(0.00209695 -0.947339 0)
(-0.0130204 -0.825278 0)
(0.0137245 -0.193667 4.87052e-16)
(-0.000796217 -0.953715 2.80305e-16)
(0.00803028 -0.943312 0)
(0.00199628 -0.956117 -2.74954e-16)
(-0.00377669 -0.959445 -5.39228e-16)
(0.00018641 -0.961354 -2.76634e-16)
(0.00190377 -0.923073 2.61079e-16)
(0.00254847 -0.962669 2.75916e-16)
(0.000925416 -0.951196 -5.40872e-16)
(5.16424e-05 -0.968807 5.36872e-19)
(-0.0394504 -0.777185 9.47485e-18)
(0.00422543 -0.771253 -1.89475e-16)
(0.00643219 -0.951357 -2.54419e-16)
(0.0281197 -0.692037 2.89267e-16)
(0.00229886 -0.970711 0)
(-0.00040347 -0.981885 -2.5968e-16)
(0.00240498 -0.83156 -1.49168e-16)
(0.00151052 -0.965423 8.45151e-18)
(0.000520741 -0.975833 0)
(0.00188637 -0.975502 0)
(-0.00771371 -0.630518 3.35956e-16)
(-0.0013842 -0.191737 0)
(-0.0038792 -0.682844 -1.10248e-19)
(-0.00321515 -0.969993 -2.08641e-18)
(-0.0218595 -0.790368 2.03739e-19)
(-0.00273572 -0.357045 0)
(-0.0377159 -0.719639 3.16421e-16)
(0.00551868 -0.836217 -1.89083e-16)
(-0.00468275 -0.952571 2.61325e-16)
(-0.00225108 -0.349514 5.46099e-16)
(-0.004488 -0.957426 0)
(-0.0387229 -0.807803 0)
(-0.00349221 -0.973614 -2.65722e-16)
(-0.00483725 -0.955012 -1.0378e-18)
(-0.00326847 -0.976994 2.07388e-18)
(-0.0201521 -0.817213 2.98678e-16)
(-0.0160462 -0.859699 -5.71986e-16)
(-0.00663208 -0.930994 -2.75778e-16)
(-0.00625196 -0.619521 -6.83919e-16)
(-0.00159846 -0.34437 0)
(-0.00539829 -0.698837 1.16053e-19)
(-0.00612995 -0.703776 3.43575e-16)
(-0.0050149 -0.888288 -2.88229e-16)
(0.00282012 -0.925585 3.01533e-16)
(0.000375798 -0.985301 2.44359e-16)
(0.00863717 -0.838734 -5.79204e-16)
(-0.00220829 -0.500678 3.9183e-16)
(0.0146509 -0.661504 -1.82815e-16)
(-0.00637789 -0.936026 2.74777e-16)
(-0.00539805 -0.94091 5.39748e-16)
(0.0106533 -0.549616 -1.82223e-16)
(-0.00200833 -0.575315 7.05728e-16)
(-0.00298119 -0.591257 3.46851e-16)
(-0.0180314 -0.87631 2.8526e-16)
(-0.0140003 -0.799196 2.0694e-19)
(-0.00484088 -0.939656 0)
(0.000562297 -0.989569 -4.0225e-18)
(-0.00527099 -0.945162 5.38074e-16)
(-0.00455133 -0.949499 0)
(-0.00101494 -0.187043 -4.75221e-16)
(-0.00484129 -0.832834 0)
(-0.0157903 -0.711447 0)
(0.00263134 -0.961953 -2.73319e-16)
(0.0524208 -0.813962 -2.38639e-16)
(-0.00681354 -0.708904 1.33337e-18)
(-0.00353987 -0.679078 -3.51823e-16)
(-0.00398937 -0.600808 -3.44484e-16)
(-0.00131211 -0.990699 -5.32957e-16)
(-0.0158442 -0.432909 2.67825e-19)
(-0.0228636 -0.468136 4.56406e-16)
(0.00259982 -0.933575 2.82877e-16)
(-0.0472527 -0.798607 0)
(-0.00524226 -0.888804 2.88964e-16)
(0.0249368 -0.854508 1.51865e-16)
(-0.00221477 -0.995304 2.58079e-16)
(0.00219082 -0.700626 1.47023e-16)
(-0.00396573 -0.953159 -5.38975e-16)
(-0.0171126 -0.84692 2.78063e-19)
(-0.0119515 -0.848421 2.8994e-16)
(0.0457034 -0.828489 2.35665e-16)
(-0.00165711 -0.700475 2.92433e-16)
(-0.00440376 -0.690391 -1.09595e-19)
(0.0267481 -0.819939 -3.11878e-16)
(-0.0057479 -0.701095 -1.48613e-16)
(-0.00338166 -0.890321 0)
(-0.00554803 -0.889441 4.47179e-18)
(-0.00515036 -0.834586 -2.87466e-16)
(-0.00318543 -0.964825 -2.68699e-16)
(-0.0369691 -0.743122 -1.63254e-16)
(-0.0110504 -0.262736 -8.49421e-16)
(-0.010652 -0.843761 -2.85062e-16)
(-0.000237795 -0.702504 -3.11915e-16)
(-0.0152916 -0.880498 0)
(-0.0182955 -0.840356 9.11038e-18)
(-0.00712946 -0.70478 1.4509e-16)
(-0.00506773 -0.612134 0)
(-0.00784621 -0.714733 3.40003e-16)
(-0.030406 -0.850101 2.82466e-16)
(-0.00469309 -0.273156 -6.32093e-16)
(0.0245537 -0.731075 0)
(0.00102257 -0.141206 5.0289e-16)
(-0.0033443 -0.459185 1.76938e-16)
(-0.00237489 -0.821843 0)
(0.0209727 -0.703635 1.77038e-16)
(-0.00409485 -1.00126 -2.52772e-16)
(0.090306 -0.77307 -8.24699e-17)
(-0.00334182 -0.54815 0)
(-0.00320861 -0.776467 9.21857e-18)
(-0.0535476 -0.710537 -3.61888e-16)
(-0.0197696 -0.733079 0)
(0.0168767 -0.806849 0)
(-0.00148223 -0.27554 0)
(0.059206 -0.793143 -1.56272e-16)
(-0.0177566 -0.702284 0)
(0.00735702 -0.297776 8.59407e-16)
(0.00010291 -0.800088 5.13031e-20)
(0.00352909 -0.638646 0)
(-0.00497846 -0.28219 -1.80101e-19)
(0.00834945 -0.727926 0)
(-3.56839e-05 -0.798192 2.94913e-16)
(0.0280387 -0.748179 -4.70264e-16)
(0.00268854 -0.306473 1.1147e-15)
(0.0463648 -0.768392 -8.99196e-17)
(0.00963459 -0.277376 0)
(0.00589882 -0.666386 3.41327e-16)
(0.00483538 -0.665732 0)
(0.00407192 -0.931652 1.37337e-16)
(0.00460909 -0.922697 -4.61118e-20)
(0.00777707 -0.927418 0)
(0.0077816 -0.92367 1.37365e-16)
(0.0442655 -0.745587 1.63762e-16)
(0.000610249 -0.328205 0)
(-0.000585152 -0.300076 0)
(0.00942131 -0.802699 1.52572e-16)
(0.0141583 -0.797234 0)
(-0.0126055 -0.308939 -2.85564e-16)
(0.0156412 -0.292097 -1.00003e-15)
(0.0161733 -0.892092 1.3508e-16)
(0.0240687 -0.855309 2.82065e-16)
(0.0187184 -0.871697 0)
(0.0304726 -0.811999 6.54354e-16)
(0.0205323 -0.720307 0)
(0.00834417 -0.790758 2.9787e-16)
(-0.00459736 -0.895045 0)
(0.00464386 -0.70107 0)
(-0.00256672 -0.801388 0)
(-0.0171714 -0.701726 1.45921e-16)
(-0.00355222 -1.00964 -1.29157e-16)
(0.00145112 -0.961675 0)
(0.0012195 -0.148125 0)
(0.000693006 -0.440422 -3.75431e-16)
(-0.00426437 -0.282439 0)
(-0.0217685 -0.730784 3.64471e-16)
(-0.0017536 -0.953898 -6.537e-17)
(-0.0437952 -0.73813 -1.68662e-16)
(0.018415 -0.71017 0)
(0.0233964 -0.761591 -1.90608e-16)
(0.0167761 -0.71548 0)
(-0.00601633 -0.859822 0)
(-0.00416517 -0.122833 0)
(-0.0710406 -0.7886 -9.55234e-18)
(0.0263299 -0.70931 -1.57906e-16)
(-0.00212978 -0.967231 6.5236e-17)
(-0.0252626 -0.709284 -1.9144e-16)
(0.00709993 -0.704043 -1.8658e-16)
(-0.00141414 -0.863062 1.78337e-16)
(-0.0051487 -0.130207 -5.47125e-16)
(-0.00374355 -0.654263 -1.90396e-16)
(7.87118e-05 -0.862291 1.8304e-16)
(-0.00596035 -0.145475 -5.29321e-16)
(-0.00935393 -0.269349 3.29272e-16)
(0.00166269 -0.132016 -2.71822e-16)
(0.00609104 -0.290406 -6.12998e-16)
(0.044084 -0.702636 -2.05391e-16)
(0.00164953 -0.957231 -1.67908e-16)
(0.00210626 -0.551245 -1.35754e-17)
(0.056752 -0.777088 -3.68938e-16)
(0.00229829 -0.945088 -5.08923e-16)
(-0.0016387 -0.151364 0)
(0.00529719 -0.281659 -1.702e-16)
(0.032479 -0.785051 1.51876e-16)
(-0.000314352 -0.136975 0)
(0.0462629 -0.707274 1.97954e-16)
(0.00841857 -0.856681 0)
(-0.00194937 -0.128003 2.7743e-16)
(0.009403 -0.894516 -1.1681e-17)
(0.0134354 -0.884282 1.67849e-16)
(0.0229506 -0.819393 -4.78895e-16)
(0.0141094 -0.880697 9.82899e-18)
(0.0239617 -0.83442 1.73548e-16)
(0.0182539 -0.635129 2.09046e-16)
(0.0169253 -0.84056 -2.12743e-16)
(0.00886708 -0.714418 -1.61788e-16)
(0.000888497 -0.661056 0)
(-0.000176373 -0.99535 -1.37683e-16)
(0.00336942 -0.775055 2.61121e-16)
(0.0320301 -0.757424 0)
(0.0093554 -0.797533 3.22811e-16)
(0.0114519 -0.680229 0)
(0.000947436 -0.797917 -3.27634e-16)
(-0.0928056 -0.79041 1.77294e-16)
(-0.0304721 -0.712884 -8.39337e-20)
(-0.0768407 -0.770127 -5.66588e-20)
(-0.0806362 -0.765064 -2.7817e-16)
(0.00101721 -0.272364 0)
(-0.00646293 -0.523225 1.13613e-16)
(0.0515168 -0.781304 3.62234e-16)
)
;

boundaryField
{
    back
    {
        type            empty;
    }
    front
    {
        type            empty;
    }
    left
    {
        type            noSlip;
    }
    top
    {
        type            uniformFixedValue;
        uniformValue    
        {
            type            scale;
            scale           
            {
                type            squarePulse;
                start           0.3;
                duration        0.3;
            }
            xScale          
            {
                type            constant;
                value           1;
            }
            value           
            {
                type            constant;
                value           (0 -0.7 0);
            }
        }
        value           uniform (0 -0.7 0);
    }
    right
    {
        type            noSlip;
    }
    bottom
    {
        type            zeroGradient;
    }
}


// ************************************************************************* //
