/*--------------------------------*- C++ -*----------------------------------*\
  =========                 |
  \\      /  F ield         | OpenFOAM: The Open Source CFD Toolbox
   \\    /   O peration     | Website:  https://openfoam.org
    \\  /    A nd           | Version:  9
     \\/     M anipulation  |
\*---------------------------------------------------------------------------*/
FoamFile
{
    format      ascii;
    class       volScalarField;
    location    "1.31";
    object      p;
}
// * * * * * * * * * * * * * * * * * * * * * * * * * * * * * * * * * * * * * //

dimensions      [0 2 -2 0 0 0 0];

internalField   nonuniform List<scalar> 
942
(
14.0466
14.1603
14.2387
14.0396
14.2395
14.1047
14.0804
14.1056
14.0491
14.047
14.2027
14.1274
14.0402
14.2103
14.1279
14.1594
14.1869
14.0442
14.1626
14.1764
14.1881
14.1237
14.0474
14.2285
14.2004
14.2268
14.2405
14.0472
14.2131
14.0419
14.2246
14.2419
14.2152
14.1126
14.2355
14.0599
14.0614
14.0377
14.0587
14.2243
14.0965
14.085
14.2234
14.0768
14.0802
14.1846
14.1505
14.1165
14.0943
14.2082
14.1603
14.0476
14.0584
14.2363
14.0441
14.0797
14.1413
14.0445
14.1432
14.1297
14.0427
14.2381
14.1109
14.0459
14.04
14.1514
14.2401
14.1328
14.0796
14.0738
14.1643
14.0538
14.1584
14.0414
14.2327
14.1778
14.1734
14.2374
14.2277
14.1559
14.0964
14.2243
14.1944
14.1548
14.1499
14.2433
14.1281
14.1337
14.2112
14.1921
14.088
14.2321
14.0434
14.0847
14.0761
14.1796
14.0796
14.1351
14.0963
14.0405
14.0601
14.0399
14.1519
14.0767
14.0786
14.0439
14.182
14.1956
14.1281
14.1393
14.0753
14.0848
14.1331
14.0521
14.2037
14.2337
14.139
14.0417
14.0415
14.1117
14.0446
14.0656
14.2256
14.1602
14.1561
14.2301
14.0496
14.2145
14.2057
14.0602
14.1615
14.1733
14.1497
14.1164
14.1273
14.1842
14.0742
14.1389
14.0842
14.0941
14.1045
14.1948
14.1385
14.2318
14.109
14.2203
14.0718
14.0547
14.0586
14.243
14.1103
14.1197
14.2316
14.0843
14.2347
14.055
14.148
14.0513
14.1352
14.1776
14.1458
14.0538
14.0365
14.1216
14.1186
14.2178
14.0614
14.0774
14.1907
14.1434
14.121
14.0893
14.0711
14.0439
14.2427
14.0628
14.1821
14.0605
14.0853
14.0669
14.0831
14.208
14.0601
14.0637
14.0424
14.2203
14.1518
14.2362
14.2415
14.0671
14.2315
14.0703
14.0452
14.2222
14.2345
14.0432
14.2312
14.0442
14.102
14.2318
14.0404
14.0463
14.234
14.1912
14.1431
14.0887
14.0716
14.2369
14.2291
14.23
14.2334
14.0497
14.0502
14.237
14.232
14.0541
14.2411
14.2214
14.23
14.2274
14.0562
14.0509
14.0705
14.0524
14.0555
14.244
14.235
14.0586
14.0431
14.2217
14.2176
14.2362
14.2395
14.062
14.057
14.0502
14.2241
14.0595
14.2232
14.2262
14.2233
14.0807
14.0663
14.0647
14.0692
14.2304
14.0615
14.0549
14.0622
14.2263
14.2338
14.0924
14.2307
14.2279
14.0729
14.0525
14.0668
14.074
14.2165
14.0682
14.0525
14.216
14.2343
14.077
14.0576
14.0499
14.0722
14.0778
14.2187
14.0654
14.0646
14.2389
14.0966
14.2376
14.2343
14.2181
14.2104
14.0936
14.2302
14.0529
14.0761
14.059
14.0533
14.0901
14.1858
14.138
14.0853
14.0821
14.0803
14.0809
14.1899
14.1008
14.2176
14.0715
14.0952
14.1773
14.1299
14.1358
14.1296
14.1435
14.159
14.089
14.1201
14.1073
14.1621
14.0702
14.0967
14.132
14.1802
14.2305
14.0746
14.1965
14.115
14.1627
14.0819
14.2162
14.0904
14.1453
14.1878
14.1241
14.171
14.2234
14.0819
14.1536
14.1053
14.2123
14.2047
14.0753
14.0891
14.1034
14.1815
14.0695
14.0984
14.1154
14.1009
14.1773
14.1034
14.1683
14.1723
14.0656
14.1598
14.1756
14.0936
14.1687
14.1469
14.1812
14.1542
14.0873
14.0782
14.14
14.1729
14.1346
14.0806
14.1298
14.1626
14.0988
14.1618
14.0745
14.1695
14.1742
14.1253
14.1125
14.1324
14.069
14.1128
14.1364
14.1192
14.1673
14.1024
14.1738
14.1096
14.1639
14.1555
14.0948
14.1704
14.1455
14.167
14.1523
14.0741
14.1394
14.2187
14.0457
14.1209
14.0689
14.1783
14.1348
14.1172
14.1289
14.1595
14.1301
14.1439
14.0879
14.1045
14.1429
14.1103
14.1042
14.1179
14.1329
14.1897
14.0785
14.0969
14.0915
14.1359
14.1162
14.1059
14.1788
14.0556
14.1669
14.0974
14.0547
14.1998
14.1328
14.1109
14.1268
14.1153
14.0787
14.0792
14.1037
14.187
14.0987
14.1101
14.1058
14.1062
14.094
14.1114
14.1224
14.1752
14.1787
14.1356
14.1457
14.1373
14.1349
14.1393
14.1799
14.0553
14.1063
14.1439
14.1
14.1028
14.1393
14.0967
14.1203
14.1561
14.1433
14.0828
14.1318
14.1744
14.1808
14.1062
14.0851
14.1697
14.1854
14.1807
14.0901
14.1766
14.1833
14.1773
14.1584
14.0842
14.1821
14.1391
14.1497
14.2137
14.1742
14.1975
14.1762
14.0953
14.1394
14.1438
14.1954
14.1489
14.1581
14.1548
14.1234
14.1909
14.2145
14.1109
14.1701
14.1202
14.1937
14.0698
14.1944
14.1628
14.1918
14.114
14.1848
14.128
14.1611
14.1137
14.1984
14.1985
14.1834
14.1956
14.1676
14.0741
14.213
14.1888
14.2206
14.1818
14.0881
14.1877
14.1979
14.0925
14.2074
14.1703
14.2142
14.164
14.1596
14.2014
14.1548
14.1192
14.2011
14.2098
14.2009
14.2016
14.0871
14.2097
14.2073
14.1569
14.202
14.1273
14.1683
14.1527
14.2042
14.152
14.1475
14.1899
14.2109
14.1872
14.1478
14.1624
14.1932
14.1232
14.2277
14.2045
14.2149
14.2167
14.2065
14.0741
14.2321
14.0484
14.2014
14.1972
14.0842
14.2063
14.2183
14.2039
14.2045
14.2134
14.2171
14.2082
14.2105
14.2239
14.2088
14.2345
14.2126
14.2222
14.1906
14.2365
14.1936
14.2194
14.0633
14.0498
14.2182
14.2282
14.2129
14.2073
14.2116
14.2274
14.0531
14.2267
14.2372
14.2114
14.219
14.0578
14.2312
14.2248
14.223
14.2289
14.2326
14.0461
14.2405
14.0352
14.2202
14.0638
14.0606
14.2312
14.24
14.0527
14.2334
14.0766
14.0608
14.0285
14.2394
14.2383
14.0307
14.2374
14.1284
14.241
14.0552
14.0581
14.0345
14.2384
14.2408
14.0451
14.2049
14.2398
14.0548
14.2067
14.239
14.1932
14.2405
14.2388
14.239
14.1264
14.1494
14.1081
14.1535
14.0516
14.0337
14.2399
14.1751
14.2407
14.0505
14.2419
14.2384
14.2376
14.0379
14.0388
14.1386
14.172
14.1903
14.1045
14.0542
14.1436
14.1647
14.2302
14.0604
14.2054
14.1553
14.1503
14.0724
14.1311
14.1223
14.1722
14.123
14.1264
14.1287
14.0697
14.0817
14.057
14.1961
14.1214
14.0396
14.1441
14.1635
14.1682
14.2393
14.1999
14.0357
14.0437
14.0549
14.0307
14.0311
14.0369
14.0693
14.1134
14.2392
14.073
14.2446
14.1473
14.2428
14.0568
14.2407
14.0601
14.0443
14.2451
14.2419
14.0584
14.0481
14.0987
14.2257
14.0658
14.2143
14.2066
14.1945
14.1823
14.2288
14.2121
14.1988
14.113
14.2179
14.0881
14.1904
14.1862
14.2253
14.2217
14.0841
14.2027
14.2085
14.1923
14.1841
14.2269
14.2196
14.1112
14.0859
14.2007
14.1163
14.2061
14.1515
14.0395
14.2222
14.2012
14.0368
14.1051
14.2281
14.2398
14.1982
14.0447
14.2294
14.1068
14.186
14.1934
14.1735
14.1096
14.1172
14.1214
14.0895
14.0282
14.1097
14.1672
14.2384
14.0368
14.1461
14.1538
14.1856
14.0652
14.0487
14.2353
14.0933
14.0467
14.1827
14.2448
14.1646
14.0606
14.0928
14.045
14.2368
14.0622
14.1266
14.0551
14.2157
14.1412
14.144
14.1192
14.12
14.1247
14.1466
14.1514
14.1999
14.2103
14.035
14.0384
14.2371
14.0318
14.0877
14.1091
14.0373
14.2401
14.0637
14.2423
14.0987
14.2188
14.0524
14.2437
14.1838
14.204
14.1861
14.2374
14.2138
14.0636
14.0584
14.1651
14.1673
14.2406
14.1026
14.2214
14.1359
14.0778
14.1339
14.1956
14.2422
14.0489
14.1299
14.125
14.0984
14.2283
14.0943
14.238
14.1639
14.1688
14.2402
14.0655
14.2376
14.1366
14.0946
14.0987
14.2343
14.0495
14.0671
14.1488
14.2377
14.1948
14.0483
14.2376
14.0896
14.07
14.1993
14.2116
14.1782
14.0474
14.0473
14.2369
14.1001
14.2063
14.1693
14.2329
14.0391
14.0469
14.0671
14.2338
14.2374
14.0387
14.1026
14.0675
14.113
14.16
14.2325
14.2447
14.1011
14.196
14.0471
14.1144
14.2193
14.0496
14.1894
14.054
14.1113
14.1985
14.1226
14.0482
14.1053
14.2411
14.2404
14.0827
14.0865
14.1215
14.0541
14.0656
14.1139
14.0367
14.1552
14.1835
14.1511
14.0511
14.0985
14.1682
14.2354
14.1879
14.1272
14.119
14.0565
14.2382
14.0857
14.1146
14.0919
14.214
14.0717
14.2366
14.0885
14.1471
14.0632
14.0411
14.0572
14.0903
14.0566
14.0302
14.2248
14.0921
14.0835
14.2055
14.0372
14.2385
14.1055
14.1
14.069
14.0507
14.237
14.1416
14.2228
14.225
14.097
14.1254
14.0814
14.0475
14.2414
14.2261
14.0643
14.05
14.1658
14.1692
14.2418
14.0638
14.0938
14.1166
14.2433
14.2009
14.0656
14.237
14.2353
14.1673
14.1168
14.1901
14.0653
14.176
14.2425
14.1189
14.2213
14.0393
14.0511
14.1875
14.0482
14.0603
14.1006
14.0388
14.0929
14.0904
14.0503
14.0488
14.1743
14.0411
14.0425
)
;

boundaryField
{
    back
    {
        type            empty;
    }
    front
    {
        type            empty;
    }
    top
    {
        type            zeroGradient;
    }
    outer_arc
    {
        type            zeroGradient;
    }
    bottom
    {
        type            uniformFixedValue;
        uniformValue    
        {
            type            table;
            format          csv;
            file            "outlet_p.csv";
            nHeaderLine     1;
            refColumn       0;
            componentColumns List<label> 1(1);
            separator       ",";
            mergeSeparators 0;
        }
        value           uniform 14.2404;
    }
    inner_arc
    {
        type            zeroGradient;
    }
}


// ************************************************************************* //
