/*--------------------------------*- C++ -*----------------------------------*\
  =========                 |
  \\      /  F ield         | OpenFOAM: The Open Source CFD Toolbox
   \\    /   O peration     | Website:  https://openfoam.org
    \\  /    A nd           | Version:  9
     \\/     M anipulation  |
\*---------------------------------------------------------------------------*/
FoamFile
{
    format      ascii;
    class       surfaceScalarField;
    location    "2.16";
    object      phi;
}
// * * * * * * * * * * * * * * * * * * * * * * * * * * * * * * * * * * * * * //

dimensions      [0 3 -1 0 0 0 0];

internalField   nonuniform List<scalar> 
2420
(
1.44431e-06
-1.42006e-06
-2.42495e-08
-1.16345e-06
1.16345e-06
-2.00834e-06
-7.69878e-07
2.77822e-06
-8.00132e-07
8.00132e-07
-2.14862e-06
1.07182e-06
1.0768e-06
1.64986e-06
-1.61281e-06
-3.70509e-08
-2.36107e-06
3.52736e-07
-1.10829e-06
1.19535e-07
9.88756e-07
1.839e-06
-1.89579e-06
5.67829e-08
-1.32881e-06
-8.19817e-07
-1.47546e-06
5.88476e-07
8.86988e-07
-1.0724e-06
-4.03065e-07
-1.10829e-06
-5.80374e-07
-4.9167e-07
1.07204e-06
-2.19841e-07
-1.21232e-06
1.43217e-06
-9.20547e-07
1.50222e-06
-5.81668e-07
-1.50258e-06
4.34527e-07
1.06805e-06
-2.19598e-06
2.5168e-06
-3.20813e-07
-1.51239e-06
1.58834e-06
-7.59553e-08
-7.76788e-07
1.96415e-07
7.47684e-08
1.24216e-06
-1.31693e-06
9.85659e-08
-1.20648e-06
1.2424e-06
-3.59211e-08
-1.38801e-06
1.81534e-07
4.69314e-07
9.74999e-07
-7.09906e-07
-7.92672e-07
2.43375e-07
-1.16392e-06
-6.52571e-07
-1.25632e-06
1.9089e-06
-1.59e-06
9.37425e-07
1.20442e-06
-4.9011e-07
-7.14313e-07
2.34473e-06
3.00314e-08
-2.37476e-06
-1.8017e-06
2.26665e-06
-4.64942e-07
-2.57412e-06
2.60176e-06
-2.76385e-08
2.83594e-06
-1.80578e-06
-1.03016e-06
5.87296e-07
-2.78328e-06
1.50665e-06
1.32929e-06
5.09349e-07
1.14051e-06
-7.17066e-07
-4.4638e-07
-1.70158e-07
-2.40396e-06
2.83918e-07
8.79528e-07
9.09024e-07
-8.34255e-07
1.12968e-06
5.19204e-07
-1.64888e-06
2.0364e-06
-2.20656e-06
-1.41789e-06
1.38891e-06
2.89735e-08
-7.63052e-07
1.14727e-06
-3.84218e-07
-1.01072e-07
-6.9906e-07
3.82198e-07
4.17933e-07
-9.93814e-07
2.30761e-07
-1.44335e-06
1.84096e-06
-3.97613e-07
-2.32521e-07
2.26892e-06
-1.31322e-06
-2.99595e-07
-2.57158e-06
-9.32372e-07
7.12531e-07
-1.2791e-06
-6.16684e-07
2.1705e-06
-8.22017e-07
-1.34849e-06
-6.55322e-08
-1.42168e-06
1.48721e-06
-5.13944e-08
-4.53849e-07
5.05243e-07
1.0497e-06
-4.61224e-07
-1.02534e-06
1.05218e-06
-2.68331e-08
1.18289e-06
-1.24842e-06
6.53598e-08
2.27937e-06
1.5545e-06
-1.49243e-06
-6.20687e-08
-1.11472e-06
-3.05345e-07
-1.1829e-06
1.30244e-06
-1.40356e-06
1.08007e-06
3.23495e-07
2.25351e-06
-2.22348e-06
1.00749e-06
-1.12295e-06
1.15463e-07
-9.54629e-07
1.03721e-06
-8.25806e-08
-1.79649e-06
2.38379e-06
-2.58334e-07
9.50707e-08
-1.07566e-07
1.3191e-06
-1.45317e-06
1.34072e-07
-6.41539e-08
-1.14817e-06
-1.63684e-06
-3.62084e-07
1.99892e-06
9.52974e-07
-9.37629e-08
-8.59212e-07
-1.52215e-06
-6.7849e-08
8.6016e-07
-2.65665e-06
8.57629e-07
2.80568e-07
9.23854e-07
-6.97255e-07
-7.06307e-07
9.2531e-07
2.76643e-08
1.42459e-06
7.45911e-07
-4.91737e-07
-9.2615e-07
4.68559e-07
1.1726e-06
-1.64116e-06
-9.95391e-07
1.81035e-06
-8.1496e-07
-2.21309e-06
5.76248e-07
1.32493e-06
-5.82828e-09
1.61866e-06
-6.64984e-07
-9.53674e-07
1.4162e-06
6.0818e-07
-2.02438e-06
1.62266e-06
-2.06457e-07
1.48143e-06
1.29679e-06
-4.32605e-07
-1.07978e-06
1.75261e-07
-1.61861e-06
-3.86664e-08
-3.3597e-07
3.74637e-07
4.19271e-07
1.16907e-06
1.00863e-06
-1.14701e-09
-1.05541e-06
3.00624e-08
1.6059e-06
6.60742e-07
-2.763e-06
1.03835e-06
1.72465e-06
-1.8727e-07
1.6687e-06
8.08739e-07
-9.8967e-07
1.80931e-07
1.10314e-06
7.37815e-07
1.00287e-06
-1.94127e-07
-2.3745e-06
1.00487e-06
1.36963e-06
4.51967e-07
1.10253e-06
-1.51548e-06
5.23412e-07
9.92067e-07
1.54444e-07
-6.44553e-07
-1.13726e-06
-1.62575e-06
-2.18749e-06
7.65819e-07
-8.2349e-08
-1.96324e-06
2.04559e-06
1.83632e-07
-1.25603e-06
-1.73562e-06
-4.51879e-07
1.81991e-06
-1.35136e-06
1.62279e-06
-6.15892e-07
-1.0069e-06
6.2727e-07
-1.06071e-06
-4.54766e-07
9.51106e-07
5.25285e-07
1.09337e-06
-9.78106e-07
-1.39639e-06
3.35981e-08
-1.76921e-06
-1.18178e-07
2.52595e-06
-2.40777e-06
2.31748e-07
2.40036e-06
-2.63211e-06
-4.26448e-08
-1.37585e-06
1.41849e-06
8.49565e-07
1.5907e-07
-1.4345e-06
5.0737e-07
9.27129e-07
-1.91295e-06
1.68043e-06
7.21027e-07
-7.59693e-07
9.01498e-07
6.00717e-07
9.76567e-07
-2.21151e-06
1.23495e-06
1.6572e-06
-4.54206e-07
-1.20299e-06
-2.03462e-06
1.95227e-06
-1.55667e-06
3.73762e-07
-7.52205e-07
-6.82294e-07
-3.70078e-07
3.70078e-07
-1.38684e-06
3.14901e-07
1.07194e-06
-7.72688e-07
-8.28571e-07
1.60126e-06
-9.32372e-07
-4.53849e-07
-7.88572e-07
-3.34379e-07
1.18289e-06
7.48618e-07
-5.05243e-07
-7.48618e-07
6.84152e-07
6.44655e-08
-1.75485e-07
-1.3247e-06
1.50019e-06
6.15975e-08
-1.06805e-06
1.00645e-06
1.3247e-06
-1.44288e-06
4.4819e-07
-1.50019e-06
1.05199e-06
-1.21482e-06
1.24842e-06
-1.6283e-07
1.21482e-06
-1.05199e-06
1.50785e-06
-1.36579e-06
-1.42063e-07
-1.50785e-06
1.57321e-06
1.36579e-06
-1.00645e-06
-3.59338e-07
1.44288e-06
-1.80496e-06
1.80496e-06
-1.57321e-06
9.35068e-07
8.75284e-07
-1.37092e-07
-1.77586e-06
-1.78634e-07
1.2587e-06
1.61119e-06
-2.6627e-06
1.05151e-06
5.62075e-07
3.05611e-07
2.05938e-06
-6.43e-07
-9.76709e-07
1.61971e-06
-1.60337e-06
3.24268e-07
-1.691e-06
-9.71696e-07
-1.86649e-06
-4.3328e-08
-1.01208e-06
-1.87301e-06
8.80681e-07
-1.49657e-06
-1.40105e-07
-1.36152e-06
2.22168e-06
-1.27446e-06
1.70898e-06
-1.37515e-06
-8.10646e-07
2.1858e-06
1.45204e-06
-1.61487e-06
-1.59295e-06
4.57885e-07
1.13507e-06
-1.06954e-06
3.17978e-07
1.33922e-06
6.02182e-07
-1.9637e-06
4.39126e-07
1.69426e-06
-2.13339e-06
-6.74331e-07
-1.02457e-07
2.09539e-06
-2.36964e-06
9.94486e-07
6.95477e-08
-1.38276e-06
-1.08662e-06
1.04397e-06
-8.10334e-07
-2.50179e-07
1.06051e-06
-2.42343e-06
3.24449e-07
2.09898e-06
8.86464e-07
3.88463e-08
-1.98431e-06
-1.35315e-06
-1.4752e-06
2.82835e-06
-1.41379e-06
-9.55848e-07
8.49081e-07
2.98189e-07
-3.88344e-07
-1.10409e-06
2.75057e-06
-1.49627e-06
-1.2543e-06
-2.99208e-07
-2.27237e-06
-2.49999e-06
1.93732e-07
2.30625e-06
-2.15634e-07
1.39742e-06
-2.17554e-06
4.22019e-07
-1.087e-06
-2.51659e-06
1.10279e-06
2.34843e-07
-9.14931e-07
6.80087e-07
-5.09232e-07
7.44076e-07
1.71128e-06
4.78553e-07
-2.18983e-06
-2.55818e-07
1.49798e-06
-2.5374e-06
1.92666e-06
6.10743e-07
-2.83935e-06
1.34308e-06
-1.35769e-06
2.33426e-06
-2.21463e-06
4.08845e-07
3.52607e-07
-2.23572e-06
1.88311e-06
1.98823e-06
-2.28744e-06
-1.10292e-06
1.38805e-06
4.41059e-08
-7.18437e-07
1.98752e-07
-9.87324e-07
-6.5946e-07
2.16611e-06
-1.5672e-06
9.24196e-07
2.00148e-06
2.39906e-07
-2.24138e-06
-1.03546e-06
-1.48113e-06
-1.0735e-07
7.99808e-09
1.85109e-06
7.50668e-07
-1.45611e-06
2.40215e-06
-9.46039e-07
-6.86309e-07
2.43628e-06
-2.52854e-06
9.22534e-08
3.07523e-08
2.40553e-06
1.50482e-06
-2.23301e-06
2.09449e-06
1.38512e-07
-2.20157e-06
-3.14347e-08
-2.00212e-06
1.8304e-06
1.71715e-07
-2.13899e-06
2.29118e-06
-1.5219e-07
-2.37626e-06
2.37269e-07
-1.19878e-06
-1.45787e-06
2.53851e-06
-6.11854e-07
-1.74802e-06
-2.541e-07
-2.33481e-06
-1.25812e-06
-1.58123e-06
-2.37396e-06
2.40472e-06
-1.93238e-06
2.43793e-06
-5.05549e-07
1.28043e-06
-1.03901e-06
2.28681e-07
5.60497e-07
-2.49288e-06
1.08988e-08
3.59179e-07
-2.53328e-06
1.07716e-06
-9.34753e-07
9.28925e-07
-2.28305e-06
1.15699e-06
1.12606e-06
-1.18615e-06
-4.17216e-07
-6.77091e-08
1.3667e-06
1.13987e-06
2.49048e-07
1.51425e-06
-1.96535e-06
4.51105e-07
2.34084e-06
4.76764e-07
2.06175e-06
-2.34239e-07
7.57355e-07
2.06501e-06
-2.82236e-06
-1.58861e-06
-9.44663e-07
1.70155e-06
-1.09937e-06
2.28457e-06
-1.5339e-06
7.04242e-07
-1.84645e-06
1.14221e-06
2.03982e-06
-3.45561e-07
2.52186e-06
-1.16326e-07
-2.04753e-06
1.89765e-06
-3.83403e-07
1.68658e-06
-1.10209e-06
-5.84486e-07
1.70156e-06
5.83009e-07
1.09369e-06
-1.23078e-06
1.92821e-06
-2.61452e-06
1.52947e-06
-5.07917e-07
-1.02155e-06
7.12531e-07
-2.63552e-06
1.43673e-06
-1.89933e-07
1.72454e-07
1.86737e-06
-2.30208e-06
8.44209e-07
-1.38141e-06
-1.2541e-06
-1.11278e-06
-1.17027e-06
1.03751e-06
-2.62612e-06
-2.50512e-06
1.36901e-06
1.13612e-06
2.2492e-06
-8.31735e-07
-1.41747e-06
1.1077e-06
1.47675e-06
-2.58446e-06
1.7991e-06
-1.21579e-06
-5.83308e-07
1.04242e-06
-2.42383e-06
-8.48956e-08
-8.47476e-07
-1.30653e-06
1.22163e-06
1.47867e-06
-2.73277e-06
1.48166e-06
-2.73596e-06
2.7367e-06
-1.81163e-06
-9.25069e-07
2.3123e-06
-1.34654e-06
2.82175e-06
9.46694e-08
5.01924e-07
1.40561e-06
-1.90754e-06
1.24359e-06
-2.05424e-06
-2.81745e-06
1.55932e-06
2.58703e-06
-3.77567e-07
-2.20946e-06
9.88756e-07
-1.46889e-07
3.59179e-07
2.50339e-06
-1.61431e-06
-8.89085e-07
-1.95663e-06
2.74281e-06
-7.86176e-07
-9.22434e-07
1.09769e-06
-9.22434e-07
-2.3051e-06
2.50305e-06
-1.97948e-07
2.25957e-06
2.62289e-07
-2.19378e-06
2.68002e-06
-4.86238e-07
-2.27144e-06
2.20373e-06
1.65089e-06
1.138e-06
-2.78889e-06
2.5923e-06
-3.32726e-07
9.97257e-07
1.52415e-06
-2.52141e-06
1.52685e-06
-1.46526e-06
-1.27502e-06
1.97926e-06
6.79684e-07
-1.16655e-06
2.47124e-06
2.11207e-06
4.80227e-07
-1.95507e-06
2.71242e-06
-1.0378e-06
1.53972e-06
7.80072e-07
2.81927e-07
5.49027e-07
-6.68997e-07
6.9906e-07
-6.68997e-07
6.97004e-07
-5.19089e-07
2.58409e-06
2.03172e-06
-1.34981e-06
-6.81911e-07
-1.8315e-06
2.30827e-06
-1.17664e-06
-4.15624e-07
4.15624e-07
2.11649e-06
8.72338e-08
2.78985e-06
-1.65185e-06
2.22412e-06
1.80592e-07
1.54737e-06
4.84349e-07
1.98862e-06
-2.48792e-06
2.37159e-06
1.20862e-06
-2.74124e-06
-2.3899e-06
-8.77208e-09
2.39867e-06
-1.25966e-06
-2.21081e-06
9.24298e-09
-8.47476e-07
1.13152e-07
2.30245e-06
2.22618e-06
1.90591e-06
-3.85381e-08
8.04545e-07
-8.04545e-07
-1.41455e-06
1.89311e-06
8.03697e-08
-2.09643e-06
2.64545e-06
1.23061e-06
-1.84614e-06
6.15532e-07
-5.3107e-07
2.64314e-06
-2.49669e-06
2.55707e-06
-1.85475e-07
1.02748e-06
1.70965e-06
-2.73713e-06
1.92913e-06
-2.56078e-06
6.31644e-07
3.35414e-07
4.80797e-07
-4.51115e-07
1.68173e-06
1.34293e-06
-2.46184e-06
1.11892e-06
4.69421e-07
-4.69421e-07
1.61584e-06
-8.21666e-07
8.21666e-07
-2.65777e-06
2.14153e-06
-4.91168e-08
-2.09241e-06
-6.78318e-07
6.78318e-07
-2.70828e-06
5.54907e-07
-5.54907e-07
2.60056e-06
-2.22434e-06
-3.76224e-07
8.98467e-07
-8.98467e-07
-1.76141e-06
2.11354e-06
-8.16909e-07
-1.29663e-06
9.33284e-07
1.96206e-06
-1.31658e-07
-2.40444e-06
1.64509e-06
-1.47337e-06
2.35027e-06
-1.00734e-06
9.3885e-07
-1.52334e-06
-1.52739e-06
-9.34452e-07
-2.99934e-07
2.60238e-06
-6.0255e-07
2.06949e-06
2.74716e-06
-1.42658e-06
2.48641e-06
-3.06293e-07
-2.02444e-06
6.09891e-07
7.13139e-07
1.4004e-06
-1.29485e-06
-7.59389e-07
2.45538e-06
-5.67086e-08
2.61165e-06
-5.42159e-07
1.95143e-06
6.91711e-07
-1.63727e-06
-1.36011e-06
-7.19915e-07
2.08002e-06
1.37066e-06
-1.63862e-06
2.67964e-07
1.18968e-06
1.16059e-06
-1.90996e-06
6.94166e-07
7.80666e-07
1.32171e-06
-2.10237e-06
2.49774e-06
-4.35991e-07
-2.2507e-06
-1.4111e-06
-6.13346e-07
-7.17066e-07
1.27954e-06
-2.09645e-06
-1.06223e-06
1.06223e-06
-2.41537e-06
1.37261e-06
1.04276e-06
-2.53989e-06
1.0125e-06
2.0602e-06
2.15473e-06
3.4301e-07
-2.44929e-06
9.04276e-07
1.54501e-06
-8.84001e-07
-2.05358e-06
-3.22685e-07
-1.71983e-06
-8.20065e-07
7.13098e-07
1.89856e-06
6.62469e-07
-2.02258e-06
-1.22569e-06
1.2379e-06
-2.37399e-06
1.13609e-06
2.66453e-06
6.96171e-07
-2.49189e-06
1.79572e-06
-5.47339e-08
-1.57181e-06
1.62655e-06
3.84351e-07
2.2699e-06
2.29709e-06
-1.40047e-06
2.12981e-06
-7.29343e-07
-2.63474e-06
1.06812e-06
-2.28499e-06
1.21687e-06
2.59473e-06
9.01866e-07
4.31602e-07
-1.33347e-06
-1.07668e-06
-8.6898e-07
-1.25935e-06
2.12833e-06
9.10436e-09
2.13242e-06
-1.69127e-06
-4.98559e-07
-9.80181e-07
9.80181e-07
-1.40482e-06
2.30909e-06
2.62486e-06
-1.20008e-06
-1.42478e-06
7.15667e-07
-2.12677e-06
1.77667e-06
8.87853e-07
-1.60002e-06
2.61252e-06
-2.2738e-06
-2.1676e-06
1.17346e-06
9.94136e-07
7.1039e-07
-8.56618e-07
-1.31098e-06
-1.35546e-06
-2.15224e-06
7.51768e-07
1.75161e-07
1.83156e-06
-2.00672e-06
1.52253e-06
6.51331e-07
-2.17386e-06
-1.41244e-06
2.53135e-06
-6.29713e-07
-1.25687e-06
-1.30567e-06
2.56253e-06
2.0975e-06
-8.08704e-07
-1.28879e-06
-2.65157e-06
1.05155e-06
1.2732e-06
2.30602e-06
-1.24186e-06
2.11783e-06
-8.75968e-07
1.36799e-06
-1.65864e-06
1.83381e-06
-1.29626e-06
1.95873e-06
-5.57723e-07
-8.74899e-07
2.55681e-06
-1.48585e-06
-1.07096e-06
1.06694e-06
1.05088e-06
1.99316e-06
-9.26212e-07
1.87295e-06
8.91162e-08
2.03737e-06
1.89089e-06
9.81391e-08
-1.98903e-06
9.0131e-07
1.09185e-06
1.87463e-06
-9.73315e-07
-7.095e-07
-1.27172e-06
1.98122e-06
7.2887e-07
1.80132e-06
-2.53019e-06
1.37671e-06
-2.42141e-06
1.0447e-06
2.62084e-06
-8.19746e-07
-1.2767e-06
9.11985e-07
1.64483e-06
-1.56399e-06
2.21532e-06
-8.12932e-07
-1.12283e-06
1.93576e-06
-9.0828e-07
8.03265e-07
1.46704e-06
-2.27031e-06
-1.33428e-06
-7.68089e-07
3.83645e-07
-2.35229e-06
1.96865e-06
-7.264e-08
1.96353e-06
-2.21487e-06
1.01501e-06
1.19987e-06
2.457e-06
3.82226e-07
-1.90601e-06
1.52379e-06
-1.71987e-07
1.62409e-06
-1.4521e-06
-2.07229e-06
2.31564e-06
-1.85936e-06
-4.56279e-07
-1.61815e-06
1.41883e-06
-1.59638e-06
1.97861e-06
-1.67118e-06
-7.51225e-09
1.67869e-06
7.51799e-07
4.04019e-08
-1.83677e-06
1.79637e-06
2.04014e-06
-1.78972e-06
-2.50414e-07
1.63077e-06
1.76616e-08
-1.64844e-06
6.69252e-07
-2.23324e-06
-1.83063e-06
-7.77157e-07
2.2442e-06
1.60845e-07
1.82783e-06
-1.98868e-06
1.55326e-06
7.0826e-08
-8.15924e-07
-1.18059e-06
1.99651e-06
6.64034e-07
-1.60105e-06
-2.77108e-07
-1.6289e-06
1.73863e-06
9.51706e-08
3.66974e-07
1.65337e-06
-2.02035e-06
2.33021e-06
-1.4574e-08
-2.09644e-06
-1.27037e-07
4.9402e-08
2.14694e-06
-2.19634e-06
2.98026e-07
2.04394e-06
-2.34196e-06
9.64e-07
-1.89021e-06
2.33774e-07
-2.43359e-06
5.93032e-07
1.84056e-06
-1.43063e-06
1.44829e-06
1.82846e-06
-1.46149e-06
2.16004e-06
-1.40154e-07
-2.01989e-06
-1.47561e-06
1.4681e-06
-1.33592e-06
-8.78956e-07
7.48937e-07
-7.48937e-07
4.06412e-07
-4.06412e-07
-8.55858e-07
8.55858e-07
8.79528e-07
1.09769e-06
-8.26387e-07
8.26387e-07
6.09871e-07
-6.09871e-07
-8.6129e-07
8.6129e-07
-2.37994e-06
8.50323e-07
-8.50323e-07
3.82198e-07
8.89354e-07
-8.89354e-07
-8.88355e-07
8.88355e-07
7.6589e-07
-7.6589e-07
5.70192e-07
-5.70192e-07
-1.23931e-06
1.80886e-06
-5.69555e-07
7.36848e-07
-7.36848e-07
-5.48796e-07
5.48796e-07
-2.64199e-07
1.60857e-06
-1.34437e-06
1.43056e-06
-1.35973e-06
1.56427e-06
1.80775e-07
1.78117e-06
-1.11714e-06
1.5346e-06
-1.8117e-06
1.43817e-06
-1.5747e-07
2.64765e-07
1.40195e-06
-1.66671e-06
-1.70472e-06
-3.3876e-07
2.22187e-06
6.91538e-07
1.27182e-06
-1.96335e-06
2.13293e-06
-2.25997e-06
-1.75163e-06
-2.55083e-07
-1.68564e-06
-5.47605e-07
1.9258e-06
-1.79246e-06
8.19142e-07
-1.64318e-06
-5.30677e-07
-1.94219e-06
1.12626e-06
1.81944e-06
-2.1582e-06
-2.018e-06
2.66365e-07
1.56465e-07
-1.41991e-06
-7.06854e-07
2.15633e-06
-2.17091e-06
2.21148e-06
-6.95848e-11
-2.73248e-08
1.37758e-06
-2.47007e-07
1.79936e-06
-2.10078e-08
1.48911e-06
-2.34125e-06
6.55609e-07
-1.92802e-06
2.22604e-06
-1.83741e-06
1.28386e-07
1.70903e-06
2.27184e-06
-1.8284e-06
-4.43444e-07
5.41866e-07
-2.00306e-06
2.1683e-06
-1.65236e-07
-2.05251e-06
2.10191e-06
-2.08017e-06
2.0289e-06
5.12759e-08
2.30276e-06
-1.70973e-06
-1.03638e-07
-8.28457e-07
-2.09069e-06
1.95053e-06
-2.19079e-06
-2.09348e-06
1.86108e-06
2.32394e-07
1.8759e-06
3.61275e-07
-1.82276e-06
-1.60254e-06
2.58166e-07
6.84152e-07
-2.0857e-06
3.23158e-07
1.76254e-06
2.2368e-06
-2.05603e-06
-1.41425e-06
5.45181e-08
7.52278e-07
-2.29454e-06
6.58968e-08
3.43822e-07
2.30759e-06
-1.93629e-06
-3.71303e-07
-4.65352e-07
4.74368e-07
-2.58013e-07
1.65996e-06
2.22983e-07
1.15791e-07
2.17333e-08
-6.63772e-08
-1.77103e-06
1.56637e-06
7.42728e-07
1.93706e-06
-1.80868e-06
-6.17893e-08
-1.12504e-06
4.08492e-08
1.08419e-06
-1.25778e-06
-1.42945e-07
-1.21193e-06
1.21186e-06
1.18425e-06
-1.22758e-06
-1.24126e-06
-3.64627e-07
1.09054e-06
-1.42279e-06
3.32251e-07
-2.64831e-06
-1.23104e-06
1.23877e-06
1.3487e-06
-1.90441e-06
6.08144e-07
1.35317e-06
4.55689e-07
-1.14605e-06
-2.93181e-07
-1.7029e-06
1.99608e-06
-1.85671e-06
5.82257e-07
-2.24612e-07
-9.93573e-07
1.74537e-06
-1.6922e-06
2.16657e-06
4.69593e-07
1.53943e-06
-2.00903e-06
1.41167e-06
1.02099e-06
-1.85879e-06
8.37799e-07
4.80912e-07
-2.17311e-06
-2.1248e-06
1.59413e-06
-1.89068e-06
2.11366e-06
2.25042e-06
-2.18453e-06
2.1426e-06
-1.8286e-07
-1.62884e-06
2.31864e-06
-1.75652e-06
-4.34266e-07
1.25311e-06
-1.13765e-06
9.09176e-08
1.56285e-06
1.96091e-06
-2.0227e-06
-1.10543e-07
1.47389e-06
-1.36335e-06
-2.11366e-06
9.78781e-07
1.13488e-06
-1.49372e-06
-1.72991e-07
1.63316e-06
-1.69953e-06
-2.08662e-06
1.35728e-06
1.84749e-06
-1.09169e-06
-7.55808e-07
-1.14257e-06
1.30164e-06
-2.1066e-06
1.47689e-06
-4.16474e-07
-1.70833e-06
1.82582e-06
-1.16797e-07
6.08911e-07
1.92209e-06
-1.96977e-07
-1.72511e-06
2.51568e-07
-1.13666e-06
-2.30462e-06
-2.07219e-06
1.65571e-06
-3.09649e-07
-1.67658e-06
-1.12723e-06
1.99305e-06
-8.65819e-07
-2.01255e-06
-1.14576e-06
1.60145e-06
-5.12474e-07
4.17097e-07
-3.60184e-07
-1.0626e-06
-1.5642e-06
-1.60626e-06
6.12684e-07
-2.15224e-06
1.03241e-06
1.11983e-06
-2.1286e-06
9.23826e-07
1.20477e-06
1.3009e-06
-1.80194e-06
2.14577e-06
-2.05541e-06
1.54293e-06
-2.18993e-06
4.43391e-07
-2.37968e-06
6.9133e-08
1.87648e-06
-1.94561e-06
-2.16103e-06
-2.15403e-06
-1.1569e-06
1.44409e-06
-2.87192e-07
-1.30775e-06
-7.00501e-07
2.00825e-06
2.16156e-06
-1.38129e-06
-4.75424e-07
1.80059e-06
-2.0252e-06
3.99693e-07
-9.27663e-07
-1.59374e-06
5.97359e-07
-5.69153e-07
-1.3408e-06
-2.44491e-06
1.81453e-06
6.30379e-07
-6.09734e-07
1.87369e-06
-5.73831e-07
-1.29986e-06
-1.41491e-06
2.02232e-06
-1.44006e-06
-9.84989e-07
1.8714e-06
-8.86409e-07
-8.40467e-07
-2.11953e-07
-8.26375e-07
-1.09138e-06
1.91776e-06
-1.25052e-06
-6.91666e-07
1.67598e-06
-4.28257e-08
4.94056e-07
1.48455e-06
1.17396e-07
-1.48075e-06
2.40783e-06
-1.96444e-06
-1.21287e-06
-6.28234e-07
-1.23055e-06
-7.61582e-07
-1.68333e-06
2.06966e-06
-7.12384e-07
1.1401e-07
1.18763e-06
1.55919e-06
1.2292e-06
1.30852e-06
9.41025e-07
-2.24955e-06
7.66082e-07
-2.14737e-06
4.43813e-07
1.5785e-06
6.34075e-07
1.21342e-06
-1.18202e-06
-6.8303e-07
1.86505e-06
-2.02013e-06
-9.8044e-07
-1.9536e-06
1.71721e-06
5.65151e-07
-2.28236e-06
-1.09619e-06
-1.09257e-06
1.72664e-06
-2.32639e-06
6.97922e-07
1.62847e-06
-1.95102e-06
-9.62945e-07
2.09783e-06
-6.76713e-07
-1.60565e-06
-1.7756e-06
-1.35282e-06
-9.73566e-07
1.95619e-06
2.03004e-06
-7.87114e-07
1.42726e-06
-2.03699e-06
-1.94679e-06
1.3811e-07
-7.03094e-08
8.2766e-07
-2.05686e-06
1.09391e-06
1.00164e-06
1.88709e-06
7.97538e-07
-1.78253e-06
-5.92877e-07
-2.02108e-06
-1.61622e-09
5.66714e-07
-1.6584e-06
-2.11677e-06
1.05731e-06
1.1367e-06
-2.194e-06
-1.22426e-06
2.08621e-06
-8.6195e-07
2.07199e-06
-2.188e-06
7.80017e-07
1.20888e-06
-1.78271e-06
1.75168e-06
-9.71666e-07
-7.5076e-07
-8.24924e-07
-1.21463e-06
2.03955e-06
-1.99935e-06
-1.17279e-06
2.09661e-06
-1.17468e-06
1.78282e-06
-1.47608e-06
2.36723e-06
-8.91153e-07
1.18493e-06
7.32822e-07
-4.78068e-07
-1.45776e-06
1.93583e-06
1.13396e-06
-2.4615e-06
1.32754e-06
-7.7842e-07
-9.50096e-07
2.25862e-06
-2.45497e-06
9.78893e-07
-2.04919e-06
2.0723e-06
-1.07066e-06
-1.35069e-06
-1.84134e-06
1.14967e-06
-2.01549e-06
-2.30292e-06
-2.06252e-06
8.87836e-07
1.83137e-06
-3.49988e-08
-2.12785e-06
8.5115e-07
8.13997e-07
1.44462e-06
8.99512e-07
3.58564e-07
1.3014e-06
-1.374e-06
1.27751e-06
1.68012e-06
-1.4282e-09
9.68615e-07
-2.03928e-06
-1.88102e-06
5.81167e-07
-2.11369e-06
8.17053e-07
9.45367e-07
1.05115e-06
2.14077e-06
-9.35999e-07
1.95801e-06
-1.16047e-06
1.43134e-06
3.6802e-07
-2.24184e-06
1.13852e-06
6.13162e-07
9.86345e-07
1.23466e-06
-1.25082e-06
-9.9102e-07
3.3156e-07
1.11253e-06
1.14729e-06
-1.70104e-06
5.53748e-07
-2.11017e-06
1.26254e-06
8.47631e-07
-1.96273e-06
1.36986e-06
1.99314e-06
2.14255e-06
-1.26527e-06
-8.62582e-07
-1.04688e-06
-1.87134e-06
6.58473e-07
5.16038e-07
-1.46971e-06
-8.75506e-07
2.17714e-06
4.33429e-09
1.48478e-06
2.2119e-06
-1.27087e-06
1.43569e-06
-1.11088e-06
-1.34409e-06
-1.41363e-06
-4.67397e-07
-1.40404e-06
-4.78179e-07
8.37894e-07
-1.31614e-06
-1.50844e-06
-6.91729e-07
2.20017e-06
1.181e-06
-1.75015e-06
1.68445e-06
1.66333e-06
-1.50007e-06
4.27481e-07
1.07259e-06
-1.92853e-06
1.92691e-06
1.06642e-06
-1.86937e-06
8.02947e-07
1.62893e-06
-4.47936e-07
-1.07159e-06
-1.07578e-06
2.23188e-06
-1.90859e-06
1.02218e-06
1.82994e-06
-1.00287e-06
-9.05724e-07
-1.89181e-06
-2.17872e-06
-2.1573e-06
6.4886e-07
-1.51927e-06
1.85645e-06
-3.3718e-07
1.58061e-06
4.08556e-07
1.78991e-06
-1.42484e-06
-3.60134e-07
1.78498e-06
-2.11834e-06
2.50199e-06
-8.90058e-07
-1.84708e-06
2.16247e-06
-1.34542e-06
1.06129e-06
8.03758e-07
-1.18517e-06
-1.82246e-06
-1.47074e-06
2.18388e-06
1.63296e-06
-1.87941e-06
7.71742e-07
9.54902e-07
-1.27356e-06
-2.3617e-06
2.06261e-06
-9.96191e-07
1.04562e-06
-1.63693e-06
1.79777e-06
1.61037e-07
-2.10035e-06
1.93931e-06
1.68476e-06
4.99121e-07
-1.29385e-06
1.2681e-06
2.57538e-08
1.83303e-06
-3.97127e-07
2.20845e-06
-1.07175e-06
-6.03409e-08
1.54866e-06
-1.48832e-06
1.9783e-06
-9.27156e-07
-1.86966e-08
2.12514e-06
9.31424e-07
-1.73845e-06
-8.87678e-07
-1.75162e-06
2.17955e-06
-4.94793e-07
-4.51001e-07
-1.29915e-06
2.04082e-06
1.39372e-07
-2.18019e-06
1.51882e-06
1.26264e-07
-2.36672e-06
1.89336e-06
4.73363e-07
-1.73743e-06
1.69335e-06
4.40822e-08
2.19526e-07
3.57753e-07
-1.54292e-06
1.32251e-06
-4.60204e-07
-1.95983e-06
-5.32061e-07
-8.68928e-07
-1.93002e-06
-1.22774e-06
-7.79724e-07
-1.08942e-06
-1.16013e-06
1.81125e-06
2.33051e-06
-1.19442e-06
1.88205e-06
-1.79264e-06
3.87836e-08
1.75386e-06
1.20013e-08
-1.83493e-06
1.82293e-06
1.53951e-06
-2.61047e-06
9.37578e-07
3.00974e-08
1.65435e-06
1.24114e-06
1.99848e-06
-3.25902e-07
1.97377e-06
2.05786e-07
-7.45566e-07
-1.1238e-06
-1.86553e-06
-1.05216e-07
1.97074e-06
-4.51812e-08
1.93919e-06
3.6908e-07
-2.08055e-06
9.27311e-07
2.24801e-06
-2.30472e-06
-1.17275e-06
-4.85648e-07
-1.62607e-06
1.17507e-06
-2.4398e-07
1.54441e-06
4.44211e-07
-1.7636e-06
1.3267e-06
4.36904e-07
-8.55216e-07
-1.73213e-06
1.45771e-06
2.74422e-07
3.2765e-07
1.96411e-06
-2.29176e-06
2.43665e-06
-2.22393e-06
1.67259e-06
2.20837e-07
-1.89342e-06
-1.2166e-06
-1.08632e-06
2.1348e-06
2.4653e-06
-5.71946e-07
1.80216e-07
-1.49514e-06
1.31493e-06
2.11079e-06
-1.57279e-06
-1.39387e-06
2.27417e-06
-1.32367e-06
-9.00267e-07
2.03629e-06
2.37888e-07
1.616e-06
-1.69427e-06
1.24633e-06
-1.26169e-06
-3.64374e-07
-3.05888e-07
-1.80137e-06
4.075e-07
2.50965e-06
-4.85409e-07
1.8121e-06
1.26683e-06
-1.94889e-07
-2.6285e-06
-2.24068e-06
2.35383e-06
1.60794e-06
2.03916e-06
9.32641e-08
-1.7471e-06
5.12956e-07
-2.73866e-07
1.64453e-06
-4.77712e-07
1.89335e-06
6.16301e-07
1.8528e-06
2.14738e-06
-1.08219e-07
1.53176e-06
3.21039e-07
-2.18332e-06
7.99721e-07
1.3836e-06
1.22826e-06
-2.65303e-06
-1.23826e-06
-1.99209e-06
6.5129e-07
1.91169e-06
2.35686e-07
-2.0281e-06
-1.95974e-07
2.22407e-06
-1.47914e-06
-7.02411e-08
-1.32939e-06
1.39963e-06
-7.35155e-07
-2.69607e-07
-8.35765e-07
-1.69541e-06
2.53117e-06
-6.88217e-07
-1.44517e-06
-2.06923e-06
2.34127e-06
-2.02189e-06
2.02521e-06
6.28118e-07
-2.0547e-06
1.78827e-06
-1.77627e-06
1.5377e-06
-4.41519e-07
1.54466e-06
-1.5384e-06
1.17095e-07
1.4213e-06
-1.19313e-06
-1.38833e-06
2.58146e-06
1.98476e-06
-1.02986e-06
-6.23382e-07
2.13253e-06
-2.2822e-06
-1.53203e-06
-2.57952e-06
-2.49457e-06
-1.5352e-06
-3.19877e-09
-1.41242e-06
-6.56807e-07
-7.81327e-07
1.99242e-06
-1.21109e-06
-1.77633e-06
1.56932e-06
-2.45699e-06
1.68305e-06
1.66596e-06
-1.3417e-06
-4.97591e-07
-1.46081e-06
1.3378e-06
1.47369e-06
1.12955e-06
9.65964e-07
1.24418e-06
1.88455e-06
-2.49719e-09
-1.30993e-06
1.89917e-06
-7.13357e-08
2.36904e-06
7.99252e-07
-1.95072e-06
1.15147e-06
1.88906e-07
1.75434e-06
-1.94325e-06
1.42437e-06
1.12704e-06
4.12678e-07
1.73015e-06
-1.92621e-06
5.13782e-07
-2.65351e-06
1.05203e-06
1.60148e-06
2.05387e-06
-1.14559e-07
2.04099e-06
-1.41287e-06
4.05864e-07
-1.61097e-06
2.04787e-06
2.24842e-06
-8.24047e-07
1.17938e-06
-1.78193e-06
-1.49824e-06
-4.27971e-07
1.30238e-06
-2.17268e-06
5.78941e-07
-1.59105e-06
-8.96728e-07
1.09886e-06
1.55996e-06
6.27192e-08
1.75405e-06
-1.7617e-07
-1.57788e-06
7.26846e-07
-2.25888e-06
2.27429e-06
-1.94664e-06
1.69014e-06
-2.26209e-06
2.01559e-06
-4.87399e-07
-1.52819e-06
-9.25742e-07
-1.5641e-06
7.38386e-08
1.23656e-06
-1.3104e-06
-4.8963e-07
1.32862e-06
-2.10163e-06
1.21763e-06
-4.0865e-07
2.23158e-06
5.60712e-07
1.39802e-06
-1.93511e-06
1.17572e-06
2.07777e-06
-1.1033e-06
-7.86916e-07
-2.02876e-06
4.17794e-07
-2.11661e-06
1.88933e-06
-1.57125e-06
3.05033e-07
1.26622e-06
2.24663e-07
2.17019e-06
-1.98129e-06
1.47575e-06
4.94988e-07
-7.17479e-07
-1.2927e-06
-2.10676e-06
-1.53834e-06
6.06213e-07
-1.67575e-06
3.09313e-07
-2.14418e-06
-3.60073e-08
2.1155e-06
-2.16678e-06
5.68737e-07
1.0307e-06
1.01748e-06
1.5097e-06
3.66481e-07
1.76605e-06
-1.25372e-06
-2.15603e-06
8.37566e-07
-2.59898e-06
5.01249e-07
1.69892e-06
2.25967e-06
1.81697e-06
1.86564e-06
1.67841e-06
2.58041e-06
6.03483e-07
1.47654e-06
-1.26131e-06
-7.36087e-07
2.28121e-06
-2.11597e-06
1.74195e-06
-2.33513e-06
1.80307e-06
-1.88392e-06
-1.84429e-06
-1.9384e-06
1.10972e-06
-8.04682e-07
7.99637e-07
7.90567e-07
1.10727e-06
9.40913e-07
-2.33672e-06
2.08515e-06
2.26151e-06
2.40105e-06
-1.95761e-06
-6.6046e-07
-1.98785e-06
2.01729e-06
-2.08863e-06
2.5965e-07
-2.19805e-06
-7.33335e-07
-2.46999e-06
1.83116e-06
5.39192e-07
4.9126e-07
-1.638e-06
2.13925e-06
-2.51909e-06
-1.65281e-06
1.98212e-06
3.14962e-07
-1.60987e-06
2.35192e-06
-7.42048e-07
-7.09906e-07
-2.66564e-07
-1.82898e-06
-2.53722e-06
5.5928e-07
-2.01705e-06
-2.42994e-06
1.11368e-06
-2.13194e-06
1.70396e-06
2.38799e-06
-4.40245e-07
-1.1147e-06
-3.72403e-07
2.0015e-06
-2.1254e-06
1.46567e-06
-1.04857e-06
1.19169e-06
2.08709e-06
-1.76566e-06
-6.26726e-07
-4.81566e-07
-1.00555e-06
-1.45595e-06
4.75524e-07
5.54929e-07
6.4313e-07
-2.58077e-06
8.85359e-07
-1.84709e-06
2.47873e-06
2.20567e-06
-1.64639e-06
-2.63081e-06
1.24248e-06
5.40899e-07
2.24486e-06
-3.10269e-07
1.83034e-06
-1.30063e-06
-1.04191e-06
-6.9156e-07
1.38938e-06
1.26944e-06
-4.77544e-07
2.28061e-06
-1.40609e-06
-4.73315e-07
-4.83237e-07
1.36378e-06
1.70547e-06
1.58806e-06
1.60955e-06
-1.04126e-06
1.34346e-06
-1.56021e-06
2.61224e-06
-1.56298e-06
7.4661e-08
1.32976e-06
-7.68156e-07
2.35621e-06
-7.339e-08
1.0245e-06
-1.40256e-06
-1.83961e-06
1.71154e-07
-1.76363e-06
-1.5402e-06
1.36583e-06
6.15446e-07
1.71058e-06
-1.20969e-06
-2.56577e-06
1.46363e-06
-6.3422e-07
1.25804e-06
-1.08689e-06
1.13847e-06
-1.11115e-06
-3.49015e-08
8.55188e-07
9.77444e-07
1.16248e-07
2.72717e-06
-8.74081e-07
3.05874e-07
-1.40879e-06
2.51308e-08
-1.14794e-06
6.13195e-08
1.2868e-06
-3.84935e-07
7.91252e-07
-1.23704e-06
1.8493e-06
-9.11871e-07
1.27627e-07
1.50665e-06
-1.91724e-07
-9.54526e-07
1.05309e-06
5.33446e-07
2.30169e-07
-7.63615e-07
-1.81118e-06
1.49036e-06
-1.02572e-06
8.19687e-07
1.48559e-06
-3.27886e-07
-1.24754e-06
6.21416e-07
1.70364e-06
-1.09047e-06
1.4882e-06
-4.16378e-07
7.15509e-07
-1.67168e-06
8.84562e-07
1.35679e-06
-2.79984e-07
3.40032e-07
6.65173e-07
5.77227e-07
1.84904e-06
-3.97003e-07
8.04624e-07
-5.28218e-07
1.31046e-06
-7.82247e-07
9.7972e-07
9.03645e-09
1.24273e-06
9.54369e-07
-6.37468e-08
1.5359e-06
-9.23214e-07
7.72539e-07
1.07676e-06
-1.42103e-06
-1.48722e-06
1.01493e-06
1.0508e-07
1.37567e-06
9.7972e-07
-1.11949e-06
1.12275e-06
-1.3051e-06
-1.43603e-06
9.50379e-07
1.5175e-06
-2.01509e-06
-1.09929e-06
1.47212e-06
-8.01207e-07
-6.00836e-08
7.72233e-07
-3.53851e-08
-8.48878e-07
2.24909e-08
-7.88254e-07
-6.76037e-08
9.25406e-07
9.15482e-07
1.01002e-06
7.85335e-07
7.88254e-07
-9.25406e-07
-7.85335e-07
-6.49877e-08
8.73128e-07
-1.07237e-07
-9.15482e-07
-1.01002e-06
-8.01207e-07
7.72233e-07
-8.48878e-07
8.73128e-07
-2.29569e-06
1.32213e-06
5.69045e-07
-1.35983e-06
1.47435e-06
-6.40132e-07
6.40132e-07
5.69045e-07
-2.03957e-06
-1.56989e-06
1.17251e-06
2.4798e-06
-1.21035e-06
-1.82223e-06
-2.209e-06
1.75712e-06
7.45051e-07
3.88595e-09
-7.45051e-07
-2.0839e-08
-1.11496e-06
-7.5805e-07
7.35027e-07
-1.29054e-06
-1.19401e-07
6.52848e-07
8.697e-07
-1.97143e-07
1.29052e-06
1.16428e-06
-1.53217e-06
-1.19404e-06
-2.71202e-06
1.09771e-06
1.30711e-06
9.86385e-07
-1.72885e-06
2.41636e-07
-8.80424e-07
1.1221e-06
8.48244e-07
-2.19209e-07
-1.46247e-06
1.11803e-06
-1.00663e-06
-1.11407e-07
1.00501e-06
-3.39833e-07
3.21666e-07
-3.21666e-07
-3.97108e-07
-1.01221e-06
-1.38882e-06
1.01541e-06
-1.27756e-06
1.28145e-06
-1.99101e-07
1.31713e-06
1.21041e-06
-2.68381e-06
8.7218e-07
-1.22196e-06
9.68721e-07
-1.40366e-06
1.60842e-06
-1.58992e-06
1.43831e-06
-7.32701e-07
1.28721e-07
-1.21561e-06
1.39718e-06
2.43726e-07
6.43867e-07
9.17033e-07
-7.88312e-07
-3.3597e-07
-1.70289e-06
-1.77819e-07
1.10495e-06
-1.14118e-06
-4.47557e-07
4.47557e-07
-6.92211e-07
-5.67267e-08
6.92211e-07
-5.78213e-08
5.27243e-07
-5.27243e-07
-1.63838e-06
-6.43913e-07
6.84638e-07
-2.25957e-06
7.98761e-07
-1.21924e-06
1.6207e-07
9.47645e-07
8.83097e-07
-1.35054e-06
-4.89373e-07
-1.03277e-06
-7.81188e-07
-1.42782e-06
9.93499e-07
-2.16469e-08
1.65012e-06
-2.15634e-07
-8.34944e-07
6.01124e-07
-6.01124e-07
1.33748e-06
-4.2894e-07
-1.54882e-06
-1.03159e-06
4.25976e-08
-1.24438e-06
1.20178e-06
3.22711e-07
-2.01224e-08
1.16064e-06
-7.5526e-07
8.68232e-07
-1.37027e-06
1.53293e-07
-2.02434e-07
1.37367e-07
-9.42049e-07
-2.08798e-07
2.08798e-07
6.68694e-07
6.41771e-07
6.26726e-07
6.55359e-07
-1.572e-07
-4.98158e-07
3.2098e-07
1.60129e-07
4.88385e-07
-6.43867e-07
4.2554e-07
-4.88385e-07
-1.25414e-06
3.98808e-07
8.55329e-07
2.49176e-06
-5.16322e-07
8.7293e-07
3.74637e-07
-1.72691e-06
9.9115e-07
7.35758e-07
-2.19209e-07
-4.81834e-07
-7.82247e-07
4.81834e-07
4.66984e-07
5.4202e-08
-1.35483e-06
-5.81373e-07
-5.95246e-07
5.81373e-07
5.95246e-07
2.49212e-07
-2.49212e-07
-1.29847e-06
-4.67335e-07
-9.12034e-07
-7.36849e-07
-3.6246e-07
-9.15101e-07
-1.43616e-07
-2.62797e-07
2.62797e-07
-9.11871e-07
-5.90495e-07
-8.68232e-07
-6.38225e-07
7.96534e-08
4.2894e-07
-1.24288e-06
-4.7814e-07
-2.17303e-07
8.27751e-07
1.97932e-06
3.31247e-07
-1.25446e-06
7.98281e-08
3.03173e-08
6.84638e-07
-1.51366e-06
-1.25857e-06
1.01718e-06