/*--------------------------------*- C++ -*----------------------------------*\
  =========                 |
  \\      /  F ield         | OpenFOAM: The Open Source CFD Toolbox
   \\    /   O peration     | Website:  https://openfoam.org
    \\  /    A nd           | Version:  9
     \\/     M anipulation  |
\*---------------------------------------------------------------------------*/
FoamFile
{
    format      ascii;
    class       volScalarField;
    location    "0.83";
    object      p;
}
// * * * * * * * * * * * * * * * * * * * * * * * * * * * * * * * * * * * * * //

dimensions      [0 2 -2 0 0 0 0];

internalField   nonuniform List<scalar> 
464
(
1.17347e-17
-2.48974e-17
-3.16711e-18
-3.14118e-18
-2.87181e-17
-3.16278e-18
4.84166e-18
-3.13814e-18
-4.4417e-18
-3.49627e-18
1.2097e-17
2.75976e-17
3.62163e-18
2.82766e-17
4.88478e-18
3.16403e-18
-5.20215e-18
-5.09667e-18
-3.04201e-18
-3.07258e-18
-3.04882e-18
-3.06687e-18
-3.07449e-18
-3.14112e-18
-3.14861e-18
-3.14929e-18
1.69228e-17
-3.05979e-18
1.48115e-17
-3.17717e-18
-3.16861e-18
-2.09414e-18
-1.6903e-18
-3.87078e-18
-3.96446e-18
-4.69796e-18
-4.57653e-18
-3.0046e-18
-3.04548e-18
-8.33575e-20
-3.15506e-18
-3.04308e-18
-3.03702e-18
2.38708e-17
2.0446e-17
6.47967e-19
-3.06547e-18
-3.04804e-18
-2.99162e-18
-3.0694e-18
-3.16616e-18
-3.0474e-18
-3.50222e-18
-2.88155e-18
-2.83344e-18
-3.05159e-18
-3.0679e-18
-2.13798e-18
-1.95599e-18
-3.5956e-18
-2.97506e-18
-1.67524e-17
-2.17093e-18
-2.68186e-18
-1.08844e-17
-2.92763e-18
-4.2016e-19
-2.99557e-18
1.64654e-17
-2.73081e-18
-1.5065e-18
-1.4249e-17
1.04046e-17
-3.05627e-18
-4.83565e-18
-3.04692e-18
-1.09208e-18
5.01249e-18
-2.52953e-18
9.5388e-18
-2.49312e-17
-3.19571e-18
-3.98515e-17
-3.2567e-18
-2.49457e-17
-1.76486e-18
-1.18204e-17
-3.19567e-18
-3.12375e-18
-4.28624e-18
-2.23016e-17
-1.81699e-17
-6.57238e-19
2.49133e-17
-1.34255e-19
-1.37843e-18
-2.45656e-18
-3.16273e-18
-1.49482e-17
-3.67927e-18
-3.12286e-18
-3.02697e-18
-3.14338e-18
-2.86788e-18
-4.0669e-18
-3.94792e-17
-3.23081e-18
-7.87769e-19
-2.2024e-17
-2.96174e-18
-7.56463e-19
-3.05932e-18
-1.0203e-19
-1.16722e-17
-3.09717e-18
-3.11156e-18
-3.29971e-17
-3.26178e-18
-1.872e-17
-3.19165e-18
-3.01692e-18
3.0438e-18
-9.48748e-18
1.10701e-17
-1.52597e-18
-1.68805e-18
-3.745e-18
-8.54598e-20
-4.28261e-18
-3.55739e-17
-3.25272e-18
3.15035e-17
-2.99528e-18
-3.11092e-18
-3.10102e-18
-2.73587e-17
-3.24054e-18
-3.08647e-18
-4.14742e-18
-2.94716e-18
-3.10737e-18
-9.43212e-19
-1.15645e-18
-3.11196e-18
-3.22031e-18
-6.95321e-18
-3.10163e-18
-3.20867e-18
-2.70427e-18
-2.87565e-18
-3.10436e-18
-3.11223e-18
1.59216e-18
-2.11813e-18
-2.37947e-17
-2.98612e-18
-6.1396e-18
-3.07752e-18
-2.98666e-18
-1.85969e-17
-2.21059e-18
-3.03359e-18
-3.2671e-18
-2.88562e-18
-2.89166e-18
-3.15421e-18
-5.82233e-19
-3.02416e-18
-2.51868e-18
-5.07698e-19
1.30034e-18
-1.41766e-17
-7.55488e-18
-3.08474e-18
-2.11408e-18
5.5716e-19
-3.0387e-18
-2.99596e-18
5.40287e-18
-4.92048e-18
-3.04306e-18
7.02044e-19
-7.09932e-18
-7.27908e-18
-5.23226e-18
-7.18169e-18
2.44752e-18
2.57923e-18
-4.81298e-18
2.91792e-18
-2.9271e-18
3.12798e-18
-3.09244e-18
-2.99135e-18
-2.01695e-18
-1.82423e-18
-3.06685e-18
-2.91946e-18
-5.89044e-18
-2.7105e-18
-2.83041e-18
-2.07381e-18
-2.9589e-18
-2.3471e-18
2.8056e-18
-3.09578e-18
-2.78593e-18
-2.32565e-18
-2.01141e-18
-1.09025e-17
-3.04611e-18
1.70743e-18
-3.01994e-18
-4.48643e-18
-2.99868e-18
1.91198e-18
-3.72417e-18
-3.0206e-18
1.54144e-17
-1.59906e-18
-6.79375e-18
-2.61792e-18
-2.53405e-18
-2.81842e-18
-2.9794e-18
-2.94259e-18
-2.89573e-18
-3.00601e-18
-2.90133e-18
-2.78004e-18
-2.90589e-18
-3.19545e-18
-3.00899e-18
-2.35296e-18
-3.34679e-18
-2.64391e-18
-3.5493e-18
-3.04161e-18
-2.89993e-18
-3.89825e-18
-2.44705e-18
-3.00474e-18
-3.40577e-18
-2.91702e-18
-2.23961e-18
-4.44392e-18
-2.91784e-18
-3.19948e-18
-3.75079e-18
-3.07274e-18
-2.73093e-18
-4.09297e-18
-1.90547e-18
-3.02922e-18
-2.0203e-18
-2.77483e-18
-3.05593e-18
-3.24288e-18
-1.89029e-18
-1.93421e-18
-2.92591e-18
-1.96484e-18
-1.64958e-18
1.58596e-19
-2.40888e-18
1.01068e-19
-1.66423e-18
-3.09062e-18
3.44966e-18
-6.35163e-19
-3.05158e-18
-2.25078e-18
-1.69019e-18
1.07309e-18
3.78706e-18
-1.59516e-18
-1.3885e-18
-1.45001e-18
-6.18401e-19
-8.88949e-18
-2.5345e-18
-3.08847e-18
-1.11724e-18
-3.05399e-18
3.85692e-18
-3.99781e-18
2.61437e-20
-7.83591e-18
-3.07795e-18
-3.00878e-18
-5.86959e-18
-3.443e-18
-3.07579e-18
-2.98958e-18
-1.06849e-18
-7.02949e-19
1.29326e-18
7.13263e-19
7.47928e-19
-9.76145e-18
2.49161e-18
6.23178e-19
8.73073e-18
2.72921e-17
-3.9183e-18
-8.74453e-19
-1.0539e-18
-3.97766e-18
-1.69514e-17
-7.95158e-19
-2.62407e-18
-3.09098e-18
-1.99325e-18
1.66357e-18
-1.54673e-18
-2.56716e-18
5.44362e-19
-1.06984e-17
-3.13304e-18
2.6166e-18
-3.13016e-18
2.91569e-19
-1.36816e-17
9.46622e-19
-2.65001e-18
-3.10023e-18
-3.04553e-18
7.43616e-18
-3.07223e-18
-7.28695e-18
-3.00672e-18
-8.17777e-18
-3.14857e-18
-1.83944e-18
-2.43264e-18
-3.00398e-18
-3.12813e-18
-3.15318e-18
-1.9076e-18
-3.00699e-18
-3.16123e-18
1.75505e-17
-4.91723e-18
-7.23119e-18
-2.2158e-18
-3.10953e-18
-3.07258e-18
-9.34036e-19
-3.13288e-18
-2.33074e-18
-3.04963e-18
-3.17733e-18
6.27913e-20
-4.03577e-19
-3.03292e-18
-1.6184e-17
-3.18959e-18
-3.65285e-17
-3.1986e-18
-2.37043e-17
-3.1432e-18
1.93386e-18
-3.18775e-18
-2.49937e-17
1.53758e-17
-3.05299e-18
-3.11229e-18
-5.53175e-18
3.70831e-17
-3.17689e-18
-3.16319e-18
3.07898e-17
6.45548e-18
-5.11793e-18
2.13417e-17
-3.15692e-18
1.32857e-17
-3.01391e-18
1.17144e-17
-3.14848e-18
-1.33682e-18
-3.66768e-18
-4.74444e-18
-2.22153e-18
-3.28463e-18
-1.62412e-18
-3.25746e-18
-3.16988e-18
-7.20731e-18
-5.02181e-18
-3.59844e-18
-3.94494e-18
-4.17585e-18
-3.48848e-18
-3.0636e-18
-3.02494e-18
-3.00618e-18
-3.1116e-18
-3.01902e-18
1.06447e-17
-1.35805e-17
-3.12364e-18
2.46281e-17
-3.13066e-18
1.67293e-18
1.09321e-17
3.13791e-17
-3.08016e-18
1.63188e-17
-3.09552e-18
-6.9406e-18
-3.10417e-18
-3.18275e-18
-3.1572e-18
-3.15583e-18
-1.1886e-17
4.35031e-17
-3.08817e-18
-3.14654e-18
-1.69167e-17
-3.12455e-18
-3.12877e-18
1.37607e-17
2.71324e-17
1.4811e-17
7.39751e-18
8.5145e-18
3.70883e-18
9.5363e-19
-4.05848e-17
-3.22213e-18
-1.9424e-18
-5.07022e-18
-3.19116e-18
-2.96894e-18
-6.53203e-18
-6.12231e-18
-3.14115e-18
-5.7189e-18
-3.18219e-18
-3.63683e-18
-3.84857e-18
-2.94975e-18
-3.02093e-18
-3.11847e-18
-3.0001e-18
-3.07848e-18
-2.97083e-18
-3.0455e-18
-3.29281e-18
-1.86228e-18
3.79103e-18
5.02883e-19
-3.15557e-18
-3.36983e-18
-4.94263e-18
-4.08585e-18
-3.0751e-18
-3.12338e-18
-3.10588e-18
-3.11586e-18
4.12539e-17
2.69128e-17
-3.14898e-18
)
;

boundaryField
{
    back
    {
        type            empty;
    }
    front
    {
        type            empty;
    }
    left
    {
        type            zeroGradient;
    }
    top
    {
        type            zeroGradient;
    }
    right
    {
        type            zeroGradient;
    }
    bottom
    {
        type            uniformFixedValue;
        uniformValue    
        {
            type            scale;
            scale           
            {
                type            squarePulse;
                start           0.3;
                duration        0.3;
            }
            xScale          
            {
                type            constant;
                value           1;
            }
            value           
            {
                type            constant;
                value           15.1;
            }
        }
        value           uniform 0;
    }
}


// ************************************************************************* //
