/*--------------------------------*- C++ -*----------------------------------*\
  =========                 |
  \\      /  F ield         | OpenFOAM: The Open Source CFD Toolbox
   \\    /   O peration     | Website:  https://openfoam.org
    \\  /    A nd           | Version:  9
     \\/     M anipulation  |
\*---------------------------------------------------------------------------*/
FoamFile
{
    format      ascii;
    class       surfaceScalarField;
    location    "0.83";
    object      phi;
}
// * * * * * * * * * * * * * * * * * * * * * * * * * * * * * * * * * * * * * //

dimensions      [0 3 -1 0 0 0 0];

internalField   nonuniform List<scalar> 
663
(
-2.66026e-23
3.17849e-23
-5.18232e-24
6.67442e-24
3.34992e-23
-1.17476e-26
1.17475e-26
1.3722e-25
-7.01978e-26
-6.70224e-26
-1.47087e-23
2.13831e-23
-1.996e-28
-1.15579e-26
-3.38788e-23
7.27611e-24
4.94285e-26
8.77956e-26
-3.99823e-23
1.68013e-23
2.31809e-23
-4.82849e-24
-3.51537e-23
-6.30687e-24
3.80918e-23
1.7887e-23
-6.2064e-24
-1.16806e-23
-1.70774e-23
1.5648e-23
2.23905e-24
7.29241e-24
-8.01123e-24
7.18819e-25
7.79076e-24
-4.98307e-25
1.26696e-25
-1.17277e-24
1.04607e-24
3.4364e-25
-2.16977e-25
1.09396e-26
-1.09396e-26
1.49918e-25
9.0654e-26
-2.40572e-25
2.1795e-25
-6.80101e-26
-1.86018e-25
-4.55562e-27
1.90574e-25
-1.59283e-25
-2.67407e-26
-1.60701e-25
1.30724e-25
2.99771e-26
1.66247e-26
-8.68239e-26
-8.88094e-26
-7.18905e-26
1.54539e-25
-2.41095e-24
2.25641e-24
1.37164e-25
-5.61676e-26
-8.0997e-26
6.96471e-24
-6.81023e-24
1.89003e-25
-1.75136e-25
-1.38663e-26
6.59799e-26
1.23038e-25
-8.14307e-24
7.09705e-24
1.04602e-24
3.1766e-25
-8.46069e-24
6.92873e-24
-5.88178e-24
-1.04695e-24
3.82105e-24
3.10768e-24
4.59018e-25
-1.15395e-25
1.04792e-26
4.48538e-25
-2.44606e-26
3.53927e-26
3.04582e-26
1.06665e-25
-7.29501e-24
3.81933e-25
6.91308e-24
2.15684e-25
-1.25009e-25
-4.24978e-26
-9.9511e-26
1.42009e-25
-2.01753e-25
-5.18267e-24
2.77173e-24
-1.1389e-23
4.95763e-25
-1.83931e-25
1.96355e-25
-1.24238e-26
-1.72172e-25
1.95639e-25
-2.34677e-26
-6.57928e-26
6.57927e-26
-8.06784e-26
6.30359e-26
1.52681e-25
1.66194e-25
1.85908e-26
-1.84784e-25
2.00963e-25
-1.45264e-26
-1.86438e-25
-3.02812e-25
1.47312e-25
1.555e-25
-1.4808e-25
-1.54766e-25
-2.89012e-26
1.9507e-25
-2.1284e-25
5.00396e-25
-2.13961e-25
-2.86435e-25
3.31679e-25
1.68711e-25
1.91884e-25
9.05901e-27
-3.53662e-26
4.91235e-25
1.32163e-23
-1.37076e-23
4.44995e-25
1.72047e-24
-2.16547e-24
-9.17275e-26
-6.11949e-26
1.52922e-25
-2.62474e-23
2.1419e-23
3.37661e-25
-1.90377e-25
-2.39316e-24
8.31196e-25
1.56197e-24
8.43542e-26
-1.79875e-23
-1.93289e-25
4.52002e-26
-1.15843e-25
4.47527e-25
-2.57563e-23
7.69851e-24
-7.33858e-25
1.87077e-26
-1.90857e-25
-1.04105e-24
9.44572e-24
-8.40467e-24
-7.81496e-26
-2.20985e-24
-1.83315e-25
-3.20792e-23
2.68967e-23
9.52147e-26
-3.09183e-25
-3.12647e-25
8.00322e-24
1.72105e-23
-2.52137e-23
-6.10123e-26
5.80396e-26
2.97268e-27
5.08151e-24
-6.62318e-24
1.54166e-24
2.18125e-26
8.79243e-27
-3.06049e-26
1.30847e-23
1.25631e-24
-8.11369e-25
1.94379e-23
-6.22159e-24
-3.92024e-26
-1.7739e-25
1.34929e-25
4.24607e-26
-9.94222e-24
8.9012e-24
-6.22888e-25
-8.54587e-24
6.05885e-24
-1.95751e-24
-4.10135e-24
-9.16223e-24
-1.52379e-23
2.44001e-23
3.40529e-24
2.65357e-24
-4.89395e-25
3.45597e-27
-1.58266e-26
7.38605e-26
6.81321e-25
3.76265e-24
-4.44397e-24
1.34172e-23
-3.04947e-23
-1.13703e-25
-6.3708e-26
1.16462e-25
7.91918e-26
6.28451e-26
-1.76549e-25
1.49203e-24
5.60503e-24
-4.38975e-24
-6.62323e-24
8.79794e-27
4.13955e-24
-3.30836e-24
-3.4294e-24
2.80651e-24
-2.1572e-25
-2.1534e-26
2.37254e-25
5.2351e-24
2.79604e-24
-8.03115e-24
2.15052e-25
2.18204e-24
-8.03883e-24
8.72021e-24
-4.0549e-27
1.38971e-25
-9.02078e-26
1.5306e-25
-1.54166e-24
-1.88777e-24
2.21792e-26
3.05906e-26
-5.27697e-26
3.76265e-24
1.28937e-25
-1.06746e-25
-9.92484e-26
-1.05995e-23
2.40168e-23
1.03621e-23
9.07573e-24
-1.54042e-23
2.26804e-23
1.14045e-24
9.5396e-24
-4.30448e-24
1.91302e-23
-8.7681e-24
-4.86919e-24
7.66524e-24
-3.38026e-25
4.15908e-24
1.55896e-24
-1.55894e-24
2.44211e-26
-1.14638e-25
-1.06687e-26
-1.58249e-25
1.68918e-25
-1.88772e-24
-5.27565e-26
5.25002e-26
-1.33532e-25
-5.6643e-26
5.66431e-26
7.22117e-26
-8.28804e-26
-4.62585e-24
1.54546e-25
2.9299e-25
1.48988e-25
-7.22228e-26
1.94664e-26
1.81385e-25
9.26438e-24
-5.0473e-26
7.48971e-26
8.97477e-26
1.85195e-25
-2.4639e-25
-9.69917e-27
-4.69196e-26
-4.31771e-26
-7.30817e-27
-1.88923e-25
7.42778e-26
-1.24872e-24
7.6537e-24
-6.40499e-24
7.21658e-24
2.32301e-24
1.87493e-24
8.28663e-26
-2.61865e-26
-4.26709e-25
-7.46085e-25
1.64079e-26
-5.9594e-26
8.53065e-24
8.84093e-24
-6.03442e-24
1.90164e-24
-3.45314e-24
1.55151e-24
-1.12679e-25
1.29073e-25
6.92902e-25
-9.09756e-24
-9.67212e-27
-6.69325e-26
5.72604e-26
6.24593e-25
1.27706e-24
-4.62146e-26
-2.06964e-26
-6.6664e-25
7.89745e-24
-7.23081e-24
-3.56964e-24
3.56964e-24
-2.679e-24
-8.90632e-25
2.6193e-24
-4.26254e-24
4.44391e-24
-1.62824e-25
4.26262e-24
8.98876e-25
-5.76805e-24
1.02196e-25
-2.14895e-25
2.76546e-25
-1.74364e-25
-8.57069e-24
7.32197e-24
-6.31427e-25
-3.21305e-24
3.84448e-24
2.12439e-25
6.40836e-26
5.70875e-25
1.69521e-24
-2.26608e-24
1.62121e-24
-1.62121e-24
9.89738e-25
2.37353e-24
-3.04017e-24
-2.37351e-24
7.52321e-25
1.01734e-24
-4.46436e-25
1.01734e-24
-1.78013e-24
2.67902e-24
-1.30145e-25
1.76257e-25
-4.6112e-26
1.78008e-24
-7.62737e-25
6.51915e-26
-6.51915e-26
-5.09379e-26
8.82341e-26
8.04831e-26
1.89346e-25
-1.0109e-25
1.71764e-25
-2.34129e-26
-1.69869e-25
-6.9503e-26
2.19595e-25
-3.02759e-26
-5.52361e-26
-1.42669e-26
1.02355e-25
1.17271e-25
1.4259e-26
-5.51853e-26
-1.22614e-25
1.22614e-25
-1.52873e-25
-4.46448e-25
8.43542e-26
8.87156e-26
-8.87164e-26
5.7269e-26
-3.04018e-24
-3.46911e-24
3.46912e-24
-1.52873e-25
9.89736e-25
6.74651e-26
3.40679e-25
1.63276e-25
-1.82613e-25
3.45888e-25
1.58068e-25
3.13466e-26
-1.25024e-27
-3.00962e-26
-1.09673e-25
2.67742e-25
4.32746e-26
7.46695e-26
1.71665e-25
-1.7288e-25
6.24496e-25
-4.52823e-25
-1.09778e-24
-1.11047e-26
-1.61758e-25
-2.34491e-25
1.23436e-24
-1.46484e-24
2.30483e-25
-2.83887e-25
1.51822e-24
3.90028e-25
-1.55946e-24
9.45859e-26
-7.07753e-25
2.67468e-24
-2.44421e-24
-7.36718e-25
8.10486e-25
-1.35502e-24
-5.13446e-25
1.31964e-24
4.83452e-26
1.23419e-25
1.22059e-25
-2.56631e-24
1.05581e-25
3.9571e-24
-3.83504e-24
-3.07975e-24
-4.59987e-24
3.85431e-25
4.21444e-24
-2.72562e-24
-2.0927e-24
3.41234e-24
1.86439e-24
-1.11893e-25
5.2281e-26
1.0558e-25
-2.73549e-24
5.51233e-24
-6.98738e-24
1.47506e-24
2.17128e-24
-4.90677e-24
-5.55963e-24
-9.58155e-25
6.51778e-24
-3.29965e-24
5.47097e-24
-6.48412e-24
8.3114e-24
-1.82727e-24
2.21272e-24
-5.85955e-24
-3.3469e-24
1.91447e-25
9.79218e-24
-9.07337e-24
3.00398e-24
5.30745e-24
-1.88998e-25
1.62416e-24
-4.97106e-24
-2.24952e-25
1.50206e-24
7.96495e-24
8.61252e-24
-2.77907e-24
4.40325e-24
5.35139e-26
9.93664e-26
-9.93661e-26
1.22556e-24
5.39292e-24
-3.89089e-24
9.95557e-26
4.94321e-26
4.22182e-27
-1.79419e-24
-7.2792e-24
5.81565e-24
-4.22744e-25
-1.84633e-25
8.52528e-26
2.8933e-24
-1.16614e-23
-1.13298e-25
2.36258e-24
7.58514e-24
-5.22256e-24
1.04784e-23
-1.24319e-25
4.68476e-26
-2.92293e-24
1.08258e-25
-8.53245e-26
-3.61123e-25
-3.11447e-24
3.87725e-24
-9.04211e-24
-4.85348e-24
-1.41975e-23
6.69622e-24
7.50123e-24
6.4857e-24
-1.94201e-25
2.04671e-25
1.13086e-25
-5.58402e-24
-2.29425e-27
-4.15958e-24
6.77461e-24
-2.01204e-25
1.41556e-23
-5.62495e-24
2.21329e-24
-6.61651e-24
-4.56063e-24
-4.48148e-24
-2.66842e-26
7.61016e-26
5.58502e-24
-1.07339e-25
-6.77818e-26
-7.04155e-25
-8.8576e-26
8.8576e-26
-9.70396e-24
2.14032e-25
-2.82036e-25
3.73633e-23
-2.39515e-23
2.87725e-26
-2.87725e-26
-8.39315e-26
-1.68068e-25
8.32265e-26
-4.54262e-26
4.54263e-26
1.1455e-25
-1.87832e-26
1.87833e-26
7.47299e-24
-4.2204e-23
8.4784e-24
-1.30238e-25
-3.30856e-27
9.57094e-25
-1.15804e-25
-1.06535e-24
1.04539e-23
-2.04004e-28
1.04539e-23
-2.04049e-28
8.33014e-25
3.26661e-23
1.58022e-26
-4.07009e-27
-8.89831e-24
-8.59393e-27
-3.83062e-24
2.28539e-23
7.09629e-29
-1.10334e-26
-1.99119e-24
1.6532e-24
3.79784e-24
-1.20594e-25
5.23479e-27
1.35629e-26
1.21277e-24
-8.01304e-24
-1.85331e-24
1.42657e-24
-1.21277e-24
-4.6929e-24
-4.69763e-26
3.15648e-24
1.0113e-25
-2.65821e-24
3.50769e-24
-4.25999e-24
-1.38234e-24
3.24033e-25
6.35341e-24
4.58273e-24
-1.04633e-25
2.43621e-25
-2.66433e-26
1.93606e-25
5.43111e-25
-9.10105e-26
9.10111e-26
-1.55095e-25
1.06938e-26
-2.17943e-25
-1.05686e-25
9.38603e-26
6.9108e-25
3.4985e-23
1.58001e-26
3.03269e-23
5.24623e-27
2.84649e-23
-1.53072e-23
1.02836e-23
-1.02836e-23
7.184e-29
-1.49738e-23
7.18722e-29
-2.41203e-23
-1.10334e-23
5.31464e-26
-5.64652e-26
5.68357e-26
-6.97965e-26
1.29608e-26
-1.40275e-25
-3.62757e-26
3.79786e-24
-2.75257e-26
1.96464e-26
-9.42639e-24
3.15648e-24
2.65821e-24
-1.48855e-26
2.43619e-25
2.66448e-26
1.12625e-25
-1.27932e-25
-1.1301e-25
-1.39747e-25
-1.08159e-25
-5.71304e-27
-5.31902e-27
3.32289e-26
)
;

boundaryField
{
    back
    {
        type            empty;
        value           nonuniform List<scalar> 0();
    }
    front
    {
        type            empty;
        value           nonuniform List<scalar> 0();
    }
    left
    {
        type            calculated;
        value           uniform 0;
    }
    top
    {
        type            calculated;
        value           uniform 0;
    }
    right
    {
        type            calculated;
        value           uniform 0;
    }
    bottom
    {
        type            calculated;
        value           nonuniform List<scalar> 8(-4.01736e-23 -1.34117e-23 3.4731e-23 -2.51625e-23 -3.41519e-23 2.52575e-23 3.97532e-23 1.31577e-23);
    }
}


// ************************************************************************* //
