/*--------------------------------*- C++ -*----------------------------------*\
  =========                 |
  \\      /  F ield         | OpenFOAM: The Open Source CFD Toolbox
   \\    /   O peration     | Website:  https://openfoam.org
    \\  /    A nd           | Version:  9
     \\/     M anipulation  |
\*---------------------------------------------------------------------------*/
FoamFile
{
    format      ascii;
    class       volVectorField;
    location    "0.83";
    object      U;
}
// * * * * * * * * * * * * * * * * * * * * * * * * * * * * * * * * * * * * * //

dimensions      [0 1 -1 0 0 0 0];

internalField   nonuniform List<vector> 
464
(
(-8.12827e-16 -4.30108e-16 -5.01285e-35)
(-5.25956e-16 1.03663e-15 0)
(1.58119e-19 1.39324e-19 0)
(3.2599e-18 -1.0297e-19 1.8914e-34)
(-3.77428e-16 8.15321e-16 0)
(1.45104e-19 1.72678e-19 -4.78153e-35)
(-7.76324e-16 -2.34373e-16 4.92786e-34)
(3.09401e-18 -6.16111e-19 0)
(-9.5503e-16 3.439e-17 -3.24833e-35)
(-9.04117e-16 2.76949e-16 -4.13907e-34)
(-6.45993e-16 -5.58471e-16 4.06611e-35)
(-2.73602e-16 -2.81643e-16 -4.15866e-35)
(-8.45022e-16 -7.18197e-17 -1.74441e-35)
(-1.94132e-16 -3.24243e-16 0)
(-4.33347e-18 2.6553e-16 4.82518e-35)
(5.74422e-18 2.29301e-16 -2.31049e-34)
(1.78327e-17 2.74457e-17 0)
(8.92327e-18 1.40152e-17 -1.18462e-34)
(1.80835e-19 -2.0836e-19 -1.39756e-34)
(-6.09897e-18 -1.77305e-18 1.76638e-34)
(-5.57028e-18 -1.07478e-18 -2.58625e-34)
(-4.26666e-19 5.89575e-18 4.3043e-35)
(-1.66128e-18 5.34061e-18 -2.34939e-35)
(3.48663e-18 1.1001e-18 0)
(2.48225e-18 9.25377e-20 -1.94257e-34)
(3.32975e-18 1.79464e-18 8.97879e-35)
(-6.49061e-17 1.18665e-16 -5.17779e-34)
(1.70034e-18 -2.69008e-18 -1.8406e-34)
(-9.12633e-17 1.66443e-16 0)
(1.97399e-18 4.7968e-18 0)
(2.66146e-18 4.16372e-18 1.11874e-35)
(8.48652e-17 2.28739e-16 1.11865e-36)
(6.47177e-17 2.55129e-16 -4.16738e-36)
(7.60969e-17 1.50613e-16 -2.17643e-34)
(9.15259e-17 1.27693e-16 2.19348e-34)
(6.23143e-18 5.04367e-18 2.89496e-34)
(8.4157e-18 4.04326e-18 -2.63241e-34)
(4.09467e-19 -8.3255e-19 -2.19256e-35)
(1.18711e-18 -3.14481e-18 1.76517e-36)
(2.12443e-17 2.13481e-16 0)
(-4.56142e-18 -3.13716e-18 2.76175e-34)
(-3.24296e-18 4.13786e-18 0)
(-3.32145e-18 4.59862e-18 -6.2715e-35)
(-1.05791e-16 1.22428e-17 -1.25724e-33)
(-2.07881e-16 -8.54734e-17 1.28302e-33)
(2.19723e-17 2.53152e-16 2.25126e-36)
(2.82076e-19 -5.3923e-18 1.78405e-34)
(-9.18201e-19 -4.75303e-18 -8.70763e-37)
(2.40293e-19 -1.27293e-18 0)
(1.04952e-18 -1.62905e-18 2.12281e-35)
(-3.16978e-18 -4.49816e-18 -1.88414e-34)
(8.88186e-19 -4.58203e-18 -1.11632e-35)
(-8.8197e-19 -5.87973e-18 -1.3897e-34)
(-8.22755e-18 -3.54972e-19 -1.63734e-34)
(-6.86173e-18 -2.76472e-19 -5.331e-36)
(7.86822e-19 -5.55628e-18 1.80446e-34)
(1.20926e-18 -5.61434e-18 0)
(1.39819e-17 -1.20525e-18 0)
(1.02576e-17 -4.50319e-19 -1.03265e-34)
(1.86086e-20 -6.12232e-18 0)
(4.7503e-19 -1.83735e-18 1.75193e-34)
(-4.32303e-16 2.01519e-16 1.80602e-33)
(5.13689e-17 -1.09301e-17 2.23137e-34)
(-3.98925e-18 1.19145e-18 -1.5964e-34)
(-7.44965e-16 2.54156e-16 -1.70994e-35)
(-8.15529e-18 -8.03943e-19 -1.74147e-34)
(4.90265e-17 -4.93434e-17 -3.60415e-35)
(3.5819e-19 -2.79408e-18 -1.67657e-34)
(-4.7151e-16 -3.91393e-16 -4.5665e-34)
(-5.76098e-18 1.4348e-18 1.59398e-34)
(1.44877e-17 -4.38429e-18 1.03051e-34)
(-5.95598e-16 3.4025e-16 -9.59157e-34)
(-5.92637e-17 2.27997e-16 0)
(-5.45379e-19 -5.69109e-18 1.83145e-34)
(2.30484e-17 -2.7639e-16 -2.41395e-34)
(1.58883e-18 -4.35985e-18 1.81244e-34)
(4.77464e-17 -3.2499e-17 -6.04835e-35)
(-9.2356e-16 -4.1689e-16 -4.87608e-34)
(6.96267e-18 4.8076e-19 -1.48048e-34)
(-2.18233e-17 2.25014e-16 2.05405e-34)
(-3.67081e-16 5.08703e-16 0)
(9.73424e-19 9.76892e-19 4.61064e-35)
(-8.46368e-17 1.54156e-16 -2.31502e-33)
(3.48874e-19 7.24314e-19 1.98514e-34)
(-2.20532e-16 2.86746e-16 0)
(3.47897e-17 -9.10772e-18 5.32505e-36)
(-4.25149e-16 7.21224e-17 -8.57475e-34)
(9.03904e-19 1.47944e-18 0)
(4.1461e-18 -1.19889e-18 0)
(3.04979e-17 -2.75166e-16 -2.17781e-34)
(-2.66634e-16 1.77306e-16 1.32513e-33)
(-5.59205e-16 5.41087e-16 0)
(9.12131e-17 -1.07832e-16 2.44363e-35)
(-3.72924e-16 -6.97434e-16 -1.25437e-33)
(8.21486e-17 -1.40779e-16 -2.36483e-35)
(6.11316e-17 -2.38794e-17 -1.05668e-34)
(3.30981e-19 1.57182e-18 1.48391e-34)
(1.66892e-18 1.14385e-18 -4.22856e-35)
(-8.09017e-18 -1.54373e-16 -9.99882e-34)
(-7.34494e-16 4.99966e-18 -4.20187e-37)
(4.33149e-18 1.70153e-19 0)
(-2.14886e-18 -4.35263e-18 9.60011e-36)
(4.21496e-18 1.05841e-18 0)
(9.30639e-17 1.96639e-16 -1.09463e-36)
(7.80808e-17 1.88755e-16 0)
(-5.61807e-17 1.42309e-16 -1.84909e-33)
(1.20436e-19 1.59936e-19 0)
(7.07661e-17 -6.49543e-17 3.48371e-35)
(-1.44009e-16 3.19624e-17 -1.32656e-33)
(-5.29379e-18 -3.06566e-18 0)
(8.55771e-17 -1.96274e-16 0)
(-9.04232e-19 -5.73432e-18 -1.82125e-34)
(6.80501e-17 -9.00292e-17 0)
(-3.1194e-17 -2.29571e-16 6.10352e-34)
(3.94009e-18 -2.22556e-18 5.89212e-36)
(3.92119e-18 2.31462e-19 -2.98515e-36)
(-5.14216e-17 -7.62081e-18 1.81537e-33)
(4.07771e-19 1.63659e-18 2.0877e-34)
(-1.00829e-17 -7.92872e-17 8.04261e-34)
(1.07776e-18 3.03337e-18 -1.17945e-35)
(-3.3718e-18 -4.45347e-18 1.7039e-34)
(-6.03806e-16 -1.93364e-17 -6.38178e-36)
(-5.35763e-16 5.72692e-17 3.92978e-34)
(-6.07751e-16 -1.74134e-16 -4.26033e-34)
(2.66789e-17 -1.14766e-17 0)
(9.59089e-17 -2.0791e-16 1.13476e-34)
(-4.60697e-16 -8.41763e-18 -3.96402e-34)
(5.38352e-17 -1.90686e-16 0)
(7.7519e-17 9.69461e-17 0)
(-3.71105e-17 2.97092e-17 1.79343e-33)
(2.03753e-19 6.07863e-19 -1.54171e-34)
(-4.15514e-17 -2.95319e-17 -1.43724e-33)
(2.44158e-19 -6.65049e-19 -1.43335e-34)
(3.07927e-18 1.34004e-18 0)
(1.42078e-19 4.96081e-18 0)
(-2.19976e-17 -4.18031e-17 -1.43969e-33)
(1.91582e-19 1.10497e-18 -3.09534e-34)
(2.75103e-18 -2.79989e-18 -1.88084e-34)
(-6.93426e-16 1.07534e-16 4.43829e-34)
(-2.92522e-19 1.18367e-18 1.39158e-34)
(4.79723e-20 3.05204e-18 0)
(1.02118e-16 -1.58029e-16 0)
(7.93642e-18 -1.26357e-18 2.23448e-35)
(3.7803e-18 -1.82288e-18 1.8902e-34)
(3.20923e-19 2.50666e-18 1.8836e-34)
(4.14836e-18 -2.55901e-16 -4.7461e-34)
(1.90833e-18 1.85069e-19 0)
(1.55677e-18 2.58841e-18 0)
(-6.57679e-18 1.29314e-18 -3.98236e-36)
(-7.42673e-19 1.39634e-18 -3.38274e-34)
(3.18664e-19 1.56172e-18 5.78351e-36)
(2.76765e-18 3.52973e-18 1.80272e-34)
(-1.49727e-16 1.38994e-16 1.28483e-34)
(7.08754e-17 -2.46055e-16 -1.1398e-34)
(-2.65033e-17 -1.06897e-16 -1.18947e-36)
(-3.25553e-19 2.75649e-18 -1.93533e-34)
(1.63104e-17 4.14161e-17 0)
(-1.48942e-18 3.15167e-19 0)
(-4.88107e-16 -2.52697e-19 -3.94095e-35)
(-1.66083e-16 -6.0809e-17 1.07412e-33)
(-8.61325e-17 -1.10416e-18 0)
(-3.38972e-18 1.4353e-18 -1.86666e-34)
(2.56287e-17 -2.38261e-16 3.95474e-34)
(-4.68864e-19 1.39078e-19 -3.80142e-37)
(-1.09531e-18 -7.61271e-19 1.71911e-34)
(1.17073e-19 1.53625e-18 0)
(-1.70747e-17 5.85537e-17 -6.80469e-35)
(-2.47728e-18 -4.51404e-19 1.86136e-34)
(3.37294e-17 1.93491e-16 1.75809e-34)
(6.81813e-18 -7.28546e-17 4.36309e-35)
(1.4426e-17 -1.17317e-16 -7.22664e-35)
(-2.79956e-16 -3.88537e-17 -7.25258e-34)
(4.46611e-18 -1.63336e-16 -1.81648e-34)
(-4.54032e-19 5.54656e-18 -4.27639e-35)
(1.17083e-17 -1.47007e-16 1.28521e-34)
(3.60573e-17 -1.44511e-16 3.81031e-35)
(-5.415e-18 1.5377e-19 1.85362e-34)
(-7.12356e-18 9.36503e-19 -7.19068e-37)
(-2.13763e-16 1.35233e-16 2.38091e-34)
(3.14626e-17 9.28173e-17 4.12101e-35)
(-6.49016e-18 2.27249e-18 1.75077e-34)
(2.35435e-17 -5.36644e-17 -4.32393e-35)
(6.38468e-18 3.37418e-17 0)
(1.12497e-17 5.10678e-17 -4.5338e-34)
(1.05682e-17 1.09323e-16 6.30393e-35)
(1.25872e-17 7.95833e-17 -1.10433e-35)
(8.53582e-18 -2.75685e-17 0)
(5.5823e-18 -2.01234e-17 1.36271e-34)
(4.04299e-18 -8.7487e-17 -4.60888e-34)
(1.40752e-17 -8.37468e-17 -2.02669e-37)
(-3.4696e-18 -1.50538e-18 -1.70407e-37)
(1.17323e-17 -5.25824e-17 -1.70462e-34)
(-3.04756e-19 -1.27776e-18 -2.95327e-34)
(-1.9539e-18 -2.74148e-18 -1.83301e-34)
(3.20262e-18 2.85277e-18 1.11684e-37)
(1.20298e-18 4.92297e-18 -1.12038e-37)
(-3.84916e-18 -2.20298e-18 -1.71147e-34)
(-5.34204e-18 -1.84776e-18 1.68594e-37)
(6.44602e-18 5.09857e-17 -2.64291e-34)
(-3.91142e-18 2.13837e-18 1.56476e-34)
(-2.64976e-18 4.40149e-19 0)
(-8.24052e-19 5.68791e-18 0)
(-1.17223e-18 6.34666e-19 0)
(-2.60242e-18 5.0615e-18 1.39713e-37)
(7.00094e-18 -3.5747e-17 0)
(-8.27312e-19 -1.59745e-18 4.98279e-36)
(-5.90922e-19 1.26399e-18 0)
(-4.40001e-19 2.7212e-18 -1.18034e-34)
(-6.92749e-19 5.03246e-18 1.07757e-34)
(-1.62114e-18 -9.20322e-17 4.40627e-34)
(-6.43738e-20 1.69173e-18 1.4326e-34)
(3.85279e-18 -8.51031e-18 0)
(1.19648e-19 -1.67403e-18 1.43872e-34)
(9.9113e-19 -2.48062e-18 -2.00456e-34)
(-5.80351e-19 -1.28622e-18 0)
(7.6221e-18 -5.42641e-17 7.67141e-35)
(3.73469e-18 6.78386e-17 2.11303e-34)
(-5.07845e-19 -2.09702e-19 1.46069e-34)
(-1.04628e-17 7.94536e-17 2.35716e-34)
(4.95572e-20 3.44582e-18 -8.62194e-35)
(6.26194e-18 2.10835e-17 3.34505e-34)
(-1.206e-18 3.19444e-18 1.47622e-34)
(-2.45618e-18 3.83224e-18 -1.56665e-34)
(-8.40463e-18 4.29261e-19 3.32197e-34)
(-8.48608e-18 1.42819e-19 1.79851e-34)
(-8.97172e-18 3.19838e-19 -1.70664e-34)
(-8.66132e-18 6.2355e-20 0)
(1.11573e-19 -1.60551e-18 8.67562e-35)
(-6.93856e-18 -2.75433e-19 -5.2537e-36)
(-3.93977e-18 1.3894e-20 -1.73223e-34)
(8.99601e-19 -2.97871e-19 1.71692e-34)
(4.86587e-18 -1.32951e-18 -2.33489e-35)
(1.3942e-17 1.33116e-18 0)
(2.56494e-17 -3.09822e-18 -1.19834e-34)
(2.92914e-18 -3.39762e-18 2.0281e-34)
(7.69421e-18 1.68476e-19 0)
(4.27185e-17 1.98623e-17 -6.48447e-37)
(3.48458e-17 9.92507e-18 4.28484e-36)
(1.62116e-17 9.61225e-19 1.58659e-34)
(3.06632e-17 2.14879e-17 2.41079e-34)
(2.73491e-17 4.35947e-19 -1.61374e-34)
(6.15531e-17 2.53329e-17 -1.91357e-34)
(2.08081e-17 5.42191e-18 1.87261e-34)
(3.93999e-17 4.25404e-18 0)
(5.45192e-17 7.90627e-19 0)
(3.12783e-17 3.30051e-17 5.61835e-36)
(6.90733e-17 9.70337e-18 -5.5212e-36)
(-2.42842e-18 -4.06134e-18 0)
(6.86518e-17 4.43546e-17 0)
(-1.01189e-18 -3.16034e-18 0)
(9.07245e-17 4.82913e-17 -1.73843e-34)
(5.12441e-17 5.13707e-17 -4.68335e-34)
(1.10203e-16 -4.27304e-17 -8.80369e-35)
(6.31634e-17 -2.45623e-16 2.18455e-34)
(8.62599e-17 8.23682e-19 0)
(1.00782e-16 1.63482e-17 0)
(-1.41579e-18 -2.33246e-18 0)
(-2.91738e-19 -2.54116e-18 -1.5902e-34)
(1.16051e-16 -8.95786e-19 -1.47421e-34)
(1.29104e-16 1.08891e-16 0)
(1.26775e-16 2.51054e-17 1.41098e-34)
(1.34136e-16 -9.01882e-17 1.94747e-34)
(1.38193e-16 -7.48967e-20 1.23214e-34)
(3.90676e-17 2.1904e-16 -1.40361e-35)
(1.42122e-16 3.60882e-17 -1.23217e-34)
(-1.18903e-17 1.73599e-16 -1.56379e-34)
(1.40879e-16 -1.80862e-18 -2.14781e-37)
(3.22813e-18 -3.33388e-18 -5.75907e-36)
(-3.07993e-18 2.838e-16 -9.62259e-35)
(7.66269e-17 1.69827e-16 1.42264e-35)
(-8.4839e-19 4.62975e-18 -1.64955e-34)
(1.28954e-16 4.59702e-17 0)
(3.84523e-17 -1.59465e-19 6.65739e-35)
(3.28854e-17 2.76693e-16 2.25219e-35)
(-5.4936e-16 -5.56097e-17 1.10848e-34)
(1.11281e-16 -1.30451e-18 0)
(8.02245e-17 5.63478e-17 0)
(2.68208e-18 3.56608e-18 -7.77162e-35)
(9.48521e-19 2.48266e-18 0)
(-1.92319e-17 -2.71442e-16 -1.40915e-34)
(3.86589e-17 -1.22788e-16 9.89801e-37)
(2.8308e-18 -3.13478e-18 -6.36005e-37)
(5.36691e-19 4.62495e-18 0)
(1.29258e-19 -5.23358e-18 -1.84491e-34)
(-5.03652e-17 2.59383e-16 -1.79048e-34)
(-1.18074e-17 -1.7341e-16 -2.04909e-34)
(2.54418e-18 1.67914e-19 1.69155e-35)
(-3.24638e-16 -7.05844e-17 0)
(2.32853e-18 -4.69434e-18 0)
(-7.99827e-17 -1.15999e-16 2.09736e-34)
(-1.45741e-16 -1.45127e-16 1.53941e-36)
(-2.49104e-16 -8.04978e-17 -1.4214e-36)
(3.27312e-19 -3.57913e-18 -1.85034e-34)
(-6.46036e-18 -2.12329e-18 3.573e-34)
(8.94649e-17 -4.64561e-17 8.94847e-35)
(8.16354e-18 -5.38447e-18 8.89877e-35)
(5.26652e-18 -1.00908e-17 0)
(5.06052e-17 -1.34083e-16 1.16192e-35)
(4.1084e-17 -8.33494e-17 4.33363e-35)
(-2.53666e-16 -1.12028e-16 7.18251e-34)
(-6.50475e-17 2.03241e-16 5.59538e-35)
(-1.66514e-16 4.64662e-17 -6.53632e-35)
(-2.98324e-16 3.42074e-17 -1.19186e-33)
(-2.24994e-16 -4.99732e-16 1.59015e-33)
(4.62418e-18 -2.54464e-18 1.17276e-34)
(1.14034e-16 -7.57481e-17 -8.21713e-35)
(1.26707e-16 -1.10076e-16 -1.77028e-34)
(1.37876e-18 -5.09018e-18 1.13175e-34)
(-8.09968e-17 -1.39415e-16 -1.97737e-33)
(3.5239e-17 -1.96064e-16 -8.06636e-35)
(-5.747e-18 2.43593e-18 -1.59433e-34)
(1.84325e-18 -2.32981e-18 -3.75014e-37)
(8.1357e-17 -2.41839e-17 0)
(-3.69047e-16 2.03319e-17 7.58176e-36)
(1.17114e-16 -1.43521e-16 -2.17719e-34)
(7.42725e-17 -1.68014e-16 0)
(2.23621e-18 -1.18893e-18 -1.36287e-35)
(-1.45864e-16 -1.91257e-16 0)
(2.14608e-18 -4.97298e-19 0)
(-3.33373e-16 6.44533e-17 -2.41758e-34)
(1.28482e-18 5.52416e-18 1.46918e-34)
(2.91102e-17 -4.36455e-17 -1.50172e-38)
(-8.27469e-17 -2.06244e-16 9.16637e-34)
(3.12193e-17 -9.48683e-17 -4.95145e-35)
(-2.65346e-16 -2.97903e-18 9.36412e-35)
(-3.60473e-19 -2.94396e-18 5.92074e-37)
(6.96387e-20 -3.27368e-18 -1.80529e-34)
(-4.01592e-16 1.68541e-17 3.51231e-34)
(2.49753e-18 -4.40137e-18 0)
(-1.10285e-16 -2.16909e-16 -4.3715e-34)
(-5.89442e-18 1.23759e-18 -8.519e-35)
(-9.93418e-16 3.45188e-16 -2.02444e-34)
(6.24036e-19 5.59255e-20 -7.59164e-35)
(1.31396e-16 -6.53989e-17 1.66284e-34)
(-3.30085e-18 3.78807e-18 -1.39022e-37)
(-5.19537e-18 -1.86256e-18 -1.77359e-34)
(9.90571e-19 5.66713e-18 -1.3491e-34)
(8.43581e-19 -6.9192e-20 -1.50062e-34)
(4.62154e-17 -2.42959e-16 -7.37145e-35)
(-4.37167e-18 2.46651e-18 1.88164e-34)
(4.11688e-19 -1.21149e-19 7.87392e-35)
(-8.15106e-16 -8.97377e-16 0)
(-4.14063e-18 -2.55335e-16 -4.16271e-36)
(-4.12172e-17 -2.64083e-16 4.3383e-34)
(1.07043e-16 -1.11205e-16 1.12204e-34)
(2.93141e-18 -1.92708e-18 9.28744e-35)
(-6.65734e-20 -1.76191e-18 2.93258e-34)
(3.02792e-17 -2.09939e-17 6.03075e-35)
(1.43586e-18 1.85247e-20 1.83685e-34)
(-4.42871e-19 3.22127e-18 0)
(-3.11285e-18 -3.26885e-18 -5.70773e-36)
(1.22237e-18 -2.08674e-19 -8.9559e-35)
(1.53678e-17 -2.38655e-17 0)
(1.74885e-17 -1.66095e-17 -3.30358e-35)
(-2.54153e-18 -4.82331e-18 -1.76856e-34)
(-1.75087e-16 6.74946e-16 2.17831e-33)
(-1.57145e-20 1.21419e-20 0)
(-5.08448e-17 2.77631e-16 -1.17624e-33)
(8.44452e-21 -9.65208e-21 -7.22716e-35)
(-6.75942e-16 8.9328e-16 0)
(5.94704e-19 2.94535e-19 -1.02313e-34)
(-9.97956e-16 -9.77806e-17 5.41291e-35)
(4.06714e-19 4.15484e-19 5.11232e-35)
(-2.92276e-16 5.97158e-16 0)
(-5.87703e-16 -7.26325e-16 3.84716e-35)
(1.58141e-19 -1.35142e-19 1.91735e-34)
(3.5874e-18 -1.31127e-18 0)
(6.09978e-17 8.55713e-17 0)
(-7.45704e-17 -1.33006e-16 0)
(1.32191e-18 4.04615e-18 1.02576e-34)
(5.34023e-19 -2.30311e-19 0)
(-4.80148e-17 8.84383e-18 2.78628e-33)
(-8.60054e-17 2.38622e-16 -5.37669e-35)
(3.01075e-17 6.28684e-17 0)
(-2.05576e-17 9.64734e-17 2.04045e-34)
(3.92859e-18 4.29191e-19 0)
(-3.16964e-16 -6.08819e-17 6.77115e-34)
(-1.84121e-18 4.16343e-18 2.75292e-34)
(-7.7049e-18 1.4092e-16 1.35497e-33)
(6.76231e-19 5.15079e-18 5.30357e-35)
(6.27018e-18 1.25693e-16 0)
(5.05205e-17 1.86625e-16 -1.87725e-34)
(4.59778e-17 1.27608e-16 0)
(1.17945e-16 1.46965e-16 -6.38377e-35)
(9.52159e-17 7.15405e-17 -5.03841e-36)
(9.45058e-17 1.8656e-16 0)
(1.15426e-16 1.0965e-16 -9.61311e-35)
(2.47191e-18 1.85046e-18 -1.03706e-34)
(8.22485e-18 2.43308e-17 0)
(1.94477e-18 -7.59374e-19 0)
(6.79779e-18 -1.4082e-18 -1.18808e-34)
(1.85317e-17 1.14758e-17 0)
(5.18765e-19 -4.3545e-18 1.3913e-34)
(-4.97454e-19 -4.51812e-18 3.67341e-34)
(-3.87508e-18 -2.0162e-18 -9.73912e-35)
(-4.66296e-18 3.47832e-18 -1.85027e-34)
(-7.13747e-18 1.57852e-18 0)
(1.51033e-18 4.56096e-18 -3.85051e-34)
(-2.90926e-18 1.33253e-18 0)
(-1.89769e-16 1.20814e-16 6.12354e-34)
(-8.31878e-16 8.96875e-16 0)
(3.42695e-19 7.64416e-20 0)
(-6.90706e-16 -9.18366e-16 0)
(1.07298e-19 -9.28911e-20 -7.35921e-35)
(-1.021e-15 -3.95797e-18 2.64537e-34)
(-9.19053e-16 -5.97756e-16 0)
(-6.21439e-17 -2.89895e-16 0)
(1.90326e-20 1.02377e-20 1.39257e-34)
(-1.87126e-16 -6.69806e-16 0)
(-1.32943e-20 -3.69286e-21 -1.79224e-34)
(-8.8947e-16 4.65606e-16 1.88421e-34)
(2.15365e-18 -1.42529e-18 9.98915e-35)
(1.94039e-18 4.61307e-19 0)
(3.89249e-18 2.38662e-18 9.56336e-35)
(2.64569e-18 6.329e-19 0)
(-7.00326e-16 6.54915e-16 0)
(-3.2354e-17 -1.01868e-16 0)
(1.29788e-18 -1.27369e-18 5.87357e-36)
(1.52883e-18 6.78417e-19 9.20476e-35)
(-9.44298e-16 5.51101e-16 -1.87029e-34)
(1.83576e-18 -8.14333e-19 1.05834e-34)
(1.00112e-18 1.21207e-19 1.10143e-34)
(-4.84188e-16 -2.09157e-16 4.89377e-34)
(-1.41685e-17 3.09066e-17 -1.25061e-33)
(-5.22973e-16 -1.05184e-15 -1.03711e-33)
(-1.64884e-16 1.77052e-16 2.30409e-34)
(-5.05247e-19 7.66513e-17 -4.72382e-34)
(4.04965e-18 1.34524e-16 7.54581e-35)
(2.00367e-18 6.74344e-17 -5.44692e-35)
(-1.16766e-16 3.65216e-16 2.69283e-33)
(1.35629e-19 1.21253e-19 1.07685e-34)
(1.19949e-16 1.27558e-16 6.86446e-35)
(3.08001e-17 1.33742e-16 1.24464e-35)
(2.28683e-18 2.78209e-18 1.88853e-34)
(1.16936e-16 6.82225e-17 3.09097e-34)
(3.2285e-18 6.66697e-18 0)
(2.94175e-18 6.03371e-18 9.66443e-35)
(3.14099e-18 3.67584e-18 -1.00112e-34)
(1.0818e-18 5.41664e-19 0)
(7.04359e-19 4.02161e-18 -1.03519e-34)
(1.54514e-17 4.56053e-18 0)
(7.33354e-21 -2.46985e-18 -8.57364e-35)
(-6.6871e-18 -1.11269e-18 5.61796e-36)
(-7.55577e-18 -7.12671e-19 -1.045e-34)
(1.7996e-19 3.76319e-18 2.84221e-34)
(-8.30659e-18 3.68552e-19 -5.75898e-36)
(-1.40902e-18 4.39253e-18 -1.04824e-34)
(-1.60791e-18 2.34344e-18 -9.82941e-35)
(-3.20866e-18 3.23933e-18 1.13529e-34)
(-2.71592e-18 -5.14518e-18 1.06531e-34)
(4.40453e-17 2.34204e-16 0)
(-1.00825e-15 -3.47303e-16 -1.4372e-34)
(4.25908e-17 2.74252e-16 4.9461e-35)
(3.58261e-18 2.44782e-18 0)
(-4.18925e-19 -4.84613e-18 -2.24758e-34)
(4.16458e-17 8.45826e-17 0)
(4.89991e-17 6.42256e-17 2.79538e-34)
(3.15421e-19 -3.24271e-19 -9.77151e-35)
(1.06599e-18 -5.28807e-19 -3.01771e-37)
(7.89098e-19 -7.21812e-19 -7.84819e-37)
(7.63368e-20 -8.30975e-20 1.66592e-34)
(-8.908e-17 -3.2299e-16 0)
(-3.61095e-16 -8.40483e-16 2.91573e-34)
(2.82031e-18 3.37432e-18 -2.3769e-34)
)
;

boundaryField
{
    back
    {
        type            empty;
    }
    front
    {
        type            empty;
    }
    left
    {
        type            noSlip;
    }
    top
    {
        type            uniformFixedValue;
        uniformValue    
        {
            type            scale;
            scale           
            {
                type            squarePulse;
                start           0.3;
                duration        0.3;
            }
            xScale          
            {
                type            constant;
                value           1;
            }
            value           
            {
                type            constant;
                value           (0 -0.7 0);
            }
        }
        value           uniform (0 -0 0);
    }
    right
    {
        type            noSlip;
    }
    bottom
    {
        type            zeroGradient;
    }
}


// ************************************************************************* //
