/*--------------------------------*- C++ -*----------------------------------*\
  =========                 |
  \\      /  F ield         | OpenFOAM: The Open Source CFD Toolbox
   \\    /   O peration     | Website:  https://openfoam.org
    \\  /    A nd           | Version:  9
     \\/     M anipulation  |
\*---------------------------------------------------------------------------*/
FoamFile
{
    format      ascii;
    class       volScalarField;
    location    "2.06";
    object      p;
}
// * * * * * * * * * * * * * * * * * * * * * * * * * * * * * * * * * * * * * //

dimensions      [0 2 -2 0 0 0 0];

internalField   nonuniform List<scalar> 
1655
(
11.6998
11.7333
11.6071
11.6853
11.595
11.613
11.6132
11.5015
11.4422
11.5966
11.6933
11.694
11.5123
11.7715
11.6003
11.6885
11.6649
11.4457
11.6383
11.7723
11.7045
11.4384
11.5618
11.5673
11.6982
11.6624
11.6895
11.4565
11.4635
11.709
11.6301
11.601
11.7687
11.5989
11.457
11.5987
11.6105
11.7355
11.7717
11.7314
11.7025
11.5751
11.7742
11.6469
11.7465
11.6867
11.6831
11.748
11.6004
11.7731
11.6152
11.6057
11.5634
11.4524
11.4499
11.573
11.6952
11.6939
11.6866
11.5715
11.6258
11.6281
11.7015
11.498
11.6539
11.6253
11.6674
11.6913
11.4619
11.5739
11.6924
11.6185
11.7102
11.5973
11.6071
11.7564
11.4711
11.4734
11.6979
11.709
11.6561
11.7547
11.4451
11.6486
11.7127
11.5685
11.6069
11.7083
11.7213
11.5714
11.5687
11.6039
11.6406
11.6021
11.7667
11.6355
11.6666
11.6884
11.5982
11.7472
11.6049
11.6615
11.5998
11.6594
11.434
11.6253
11.4983
11.7088
11.7487
11.5735
11.7675
11.6951
11.5755
11.7154
11.5186
11.5657
11.5069
11.6856
11.7189
11.4377
11.576
11.6051
11.6136
11.6671
11.6642
11.5302
11.7729
11.7664
11.6837
11.7254
11.6041
11.7652
11.5019
11.5394
11.7089
11.7286
11.5908
11.5792
11.6978
11.6699
11.5701
11.6855
11.6769
11.6044
11.6507
11.6081
11.5958
11.572
11.5821
11.6381
11.6283
11.6466
11.6104
11.617
11.5663
11.7745
11.653
11.5964
11.5089
11.6582
11.5967
11.7144
11.4552
11.5993
11.6037
11.6895
11.4583
11.5263
11.6638
11.4552
11.6632
11.4632
11.5864
11.4818
11.7103
11.4908
11.6025
11.4836
11.7219
11.7744
11.5737
11.4642
11.6179
11.6691
11.7381
11.726
11.752
11.726
11.4592
11.4695
11.7436
11.6307
11.4652
11.6099
11.7298
11.7091
11.4608
11.73
11.7223
11.4691
11.6757
11.6758
11.6082
11.6169
11.5702
11.702
11.7633
11.4731
11.729
11.6013
11.6087
11.6097
11.7308
11.5243
11.7743
11.6703
11.6012
11.7157
11.6181
11.4749
11.7507
11.7073
11.7684
11.4982
11.7655
11.7329
11.7287
11.5679
11.6297
11.6373
11.7531
11.6548
11.6611
11.4833
11.7598
11.7548
11.7334
11.4828
11.7253
11.6722
11.5738
11.7402
11.6763
11.7081
11.4993
11.7068
11.644
11.4637
11.7257
11.489
11.6442
11.7084
11.5722
11.606
11.7584
11.6148
11.7399
11.5111
11.4909
11.7689
11.7178
11.7183
11.728
11.6159
11.5683
11.531
11.7673
11.7751
11.7638
11.7729
11.5548
11.4859
11.7427
11.7185
11.4989
11.4965
11.6485
11.515
11.4492
11.7131
11.4564
11.5436
11.5097
11.5868
11.6012
11.4922
11.4623
11.7582
11.7647
11.4741
11.4816
11.7047
11.77
11.4705
11.4774
11.7484
11.4967
11.6252
11.7055
11.7318
11.7527
11.6027
11.6042
11.743
11.7241
11.4544
11.7466
11.7221
11.5002
11.7234
11.5155
11.654
11.722
11.7154
11.5211
11.4888
11.703
11.4551
11.7196
11.744
11.4601
11.7701
11.7569
11.7472
11.751
11.6892
11.6903
11.5336
11.7349
11.5791
11.76
11.4697
11.7709
11.7184
11.5044
11.7214
11.577
11.768
11.7311
11.4948
11.7494
11.7378
11.5145
11.6426
11.5786
11.7419
11.7719
11.7455
11.7429
11.7152
11.5405
11.5722
11.6498
11.7538
11.461
11.719
11.7351
11.7302
11.5138
11.7128
11.5784
11.7631
11.4593
11.7077
11.7618
11.58
11.7306
11.5641
11.4757
11.7449
11.7458
11.7576
11.754
11.7256
11.5824
11.5132
11.5874
11.5153
11.75
11.736
11.7541
11.7076
11.5372
11.7106
11.7412
11.4698
11.722
11.5043
11.5186
11.7208
11.6947
11.5745
11.5853
11.4798
11.7368
11.7213
11.7154
11.5018
11.4656
11.5976
11.7264
11.7611
11.7049
11.547
11.5838
11.7548
11.4801
11.5774
11.7381
11.5872
11.5976
11.699
11.7107
11.5842
11.7533
11.6931
11.4889
11.6646
11.7138
11.7179
11.6014
11.7018
11.5964
11.7149
11.7201
11.6532
11.6696
11.7329
11.718
11.6119
11.7378
11.5965
11.7174
11.5987
11.6959
11.697
11.7435
11.5745
11.6001
11.6936
11.678
11.7015
11.5804
11.7115
11.7078
11.6967
11.6056
11.5821
11.6062
11.5755
11.6077
11.6736
11.6039
11.7046
11.6083
11.6985
11.6003
11.7079
11.611
11.5961
11.7104
11.6984
11.7105
11.6759
11.602
11.5344
11.7046
11.7112
11.6922
11.7078
11.7077
11.7484
11.7017
11.5808
11.6685
11.7052
11.705
11.695
11.6828
11.5958
11.7123
11.5895
11.6893
11.5995
11.6999
11.6955
11.5963
11.5953
11.5863
11.7298
11.6647
11.5997
11.6897
11.6414
11.6812
11.6999
11.6487
11.5951
11.6946
11.6363
11.6724
11.7025
11.5967
11.6704
11.6578
11.6763
11.5969
11.6732
11.6792
11.597
11.5883
11.6803
11.6279
11.6977
11.5951
11.6447
11.6748
11.6834
11.6426
11.6312
11.6483
11.6677
11.7103
11.6715
11.6363
11.6808
11.6786
11.6772
11.6848
11.6268
11.675
11.5997
11.713
11.6771
11.6209
11.7301
11.602
11.6967
11.6604
11.6882
11.6413
11.6162
11.6314
11.6827
11.7197
11.6112
11.7056
11.6701
11.6933
11.653
11.6937
11.6851
11.6533
11.6823
11.6835
11.6535
11.6064
11.6977
11.6487
11.5995
11.67
11.6527
11.6835
11.6077
11.6084
11.6291
11.6751
11.7141
11.5979
11.6197
11.7075
11.6051
11.5979
11.6318
11.6133
11.6785
11.6841
11.5833
11.6419
11.7049
11.6815
11.6779
11.5973
11.622
11.6497
11.6743
11.5974
11.6692
11.6542
11.6756
11.6959
11.6618
11.6524
11.6423
11.6818
11.6353
11.7098
11.5716
11.6332
11.6019
11.6264
11.6334
11.6015
11.5974
11.6413
11.648
11.6094
11.5653
11.6877
11.6137
11.6877
11.6877
11.6689
11.6235
11.5879
11.6225
11.653
11.6851
11.687
11.6216
11.6475
11.6734
11.6623
11.5999
11.6794
11.653
11.6668
11.659
11.6499
11.6581
11.691
11.6493
11.6408
11.6756
11.6857
11.6331
11.6832
11.6887
11.6888
11.6802
11.6912
11.5963
11.6993
11.6865
11.6889
11.6057
11.6917
11.6764
11.6366
11.6683
11.6279
11.7021
11.6806
11.6882
11.6929
11.6978
11.684
11.6114
11.6692
11.6475
11.6891
11.6148
11.652
11.6852
11.6877
11.6045
11.6658
11.688
11.6857
11.6958
11.6191
11.6472
11.6608
11.6123
11.6555
11.6617
11.6175
11.6462
11.6033
11.6624
11.6144
11.614
11.6547
11.6852
11.6465
11.6582
11.6891
11.5772
11.6217
11.6257
11.6426
11.6553
11.615
11.6336
11.6922
11.616
11.663
11.6106
11.694
11.692
11.6862
11.6912
11.7041
11.6511
11.6061
11.6051
11.6582
11.675
11.6231
11.6029
11.6671
11.6531
11.6618
11.6786
11.6731
11.5894
11.6547
11.6289
11.6916
11.6712
11.636
11.633
11.5204
11.6893
11.5563
11.6743
11.619
11.6407
11.6804
11.655
11.6693
11.6255
11.614
11.6382
11.6189
11.6347
11.6078
11.6615
11.6334
11.661
11.6672
11.6088
11.6993
11.6777
11.6259
11.6449
11.6211
11.6999
11.6598
11.6582
11.6192
11.6578
11.5936
11.6749
11.6651
11.6439
11.6388
11.6266
11.7024
11.6189
11.6696
11.6654
11.6078
11.6414
11.5862
11.6334
11.6583
11.6702
11.6145
11.603
11.6731
11.6381
11.6415
11.5903
11.6672
11.647
11.7068
11.6252
11.6483
11.6531
11.6263
11.619
11.6117
11.6216
11.6406
11.6416
11.6286
11.6901
11.6288
11.6536
11.6461
11.6729
11.6274
11.6009
11.6031
11.7525
11.6627
11.586
11.6222
11.6436
11.6219
11.6046
11.6076
11.6441
11.7023
11.655
11.6059
11.6062
11.6807
11.6155
11.6606
11.7229
11.6949
11.6119
11.5917
11.6843
11.6074
11.6134
11.6116
11.6766
11.6582
11.6148
11.5921
11.6093
11.667
11.677
11.5929
11.5889
11.6102
11.6505
11.589
11.6001
11.6693
11.6174
11.6397
11.5904
11.6247
11.6014
11.6277
11.6106
11.4666
11.6468
11.6803
11.6185
11.6245
11.6031
11.684
11.6526
11.7218
11.5964
11.6338
11.7151
11.5866
11.5952
11.6182
11.6124
11.7222
11.5989
11.6024
11.6713
11.6156
11.5939
11.583
11.6878
11.5928
11.6422
11.6122
11.6364
11.5989
11.5915
11.5918
11.5885
11.5613
11.6359
11.6686
11.7211
11.6207
11.7253
11.6588
11.6881
11.5786
11.5581
11.6794
11.5975
11.6257
11.6661
11.6292
11.6406
11.5948
11.5914
11.5928
11.4902
11.7343
11.6478
11.597
11.7274
11.5311
11.6633
11.5905
11.4852
11.6358
11.6434
11.7277
11.6042
11.5992
11.5855
11.6507
11.5952
11.6383
11.724
11.5882
11.6876
11.6878
11.5494
11.5907
11.5757
11.5837
11.6737
11.6358
11.7245
11.598
11.5937
11.6256
11.658
11.5964
11.622
11.53
11.7248
11.5809
11.5691
11.5752
11.7524
11.5678
11.5886
11.5929
11.7285
11.6453
11.6459
11.7233
11.5805
11.6291
11.6913
11.5938
11.5953
11.6624
11.5936
11.5972
11.6223
11.7452
11.5915
11.5912
11.6325
11.6018
11.5526
11.6919
11.7594
11.5964
11.6655
11.6004
11.5742
11.5734
11.6619
11.5795
11.5973
11.6922
11.7403
11.551
11.665
11.6838
11.7584
11.7165
11.6324
11.7392
11.6484
11.5735
11.5941
11.7666
11.5796
11.6483
11.6321
11.5853
11.5613
11.7495
11.6915
11.736
11.5888
11.5948
11.5761
11.5954
11.5643
11.736
11.5825
11.5965
11.597
11.727
11.5746
11.6953
11.5688
11.5808
11.563
11.5803
11.5845
11.728
11.5701
11.5655
11.5775
11.7274
11.5375
11.7442
11.7497
11.74
11.5813
11.5716
11.7586
11.5778
11.5463
11.5567
11.7346
11.7387
11.7318
11.5452
11.7015
11.5591
11.5598
11.7354
11.7499
11.5673
11.7488
11.5505
11.7305
11.6817
11.7229
11.6957
11.738
11.7577
11.7639
11.5344
11.5506
11.7479
11.5985
11.7405
11.6915
11.6378
11.5124
11.7342
11.7534
11.7384
11.5546
11.5182
11.7481
11.7283
11.755
11.7433
11.7429
11.6996
11.547
11.739
11.5415
11.5424
11.4483
11.4336
11.7573
11.6347
11.7484
11.6803
11.5961
11.7436
11.5416
11.5857
11.5367
11.5159
11.7405
11.745
11.5826
11.525
11.7689
11.5565
11.7004
11.705
11.5717
11.5435
11.7171
11.576
11.5222
11.4758
11.7042
11.5108
11.532
11.4333
11.7768
11.5636
11.7086
11.5587
11.5515
11.5613
11.569
11.4743
11.5916
11.4382
11.7399
11.538
11.6036
11.4978
11.5479
11.5364
11.5094
11.5994
11.7053
11.4863
11.7388
11.5414
11.7127
11.5779
11.7333
11.6005
11.7651
11.7344
11.5797
11.5487
11.4972
11.72
11.7319
11.7158
11.4362
11.4925
11.5882
11.5788
11.6405
11.6291
11.5703
11.5658
11.7263
11.724
11.7668
11.4853
11.5668
11.731
11.5276
11.6283
11.5267
11.5868
11.6412
11.7118
11.5498
11.5303
11.5909
11.5551
11.5952
11.4137
11.6625
11.6523
11.5819
11.5378
11.7257
11.5641
11.5742
11.58
11.7653
11.5259
11.718
11.7798
11.6539
11.6642
11.5387
11.5703
11.5964
11.6771
11.6703
11.5961
11.5858
11.5835
11.5829
11.5388
11.6719
11.5142
11.7289
11.712
11.5876
11.6812
11.5761
11.5806
11.7595
11.5715
11.4382
11.5416
11.7144
11.7162
11.6644
11.5598
11.584
11.6914
11.7236
11.7165
11.5036
11.7075
11.7138
11.4417
11.502
11.7629
11.5961
11.5903
11.713
11.6941
11.698
11.7299
11.7084
11.5222
11.6985
11.711
11.7771
11.7205
11.6853
11.7096
11.7214
11.6949
11.7101
11.7067
11.7134
11.637
11.5841
11.5883
11.5919
11.7623
11.6344
11.7197
11.6033
11.718
11.6591
11.6792
11.7471
11.5867
11.7249
11.5959
11.6002
11.6587
11.5989
11.4567
11.6968
11.703
11.7271
11.6884
11.5954
11.6746
11.5944
11.597
11.7017
11.5955
11.713
11.562
11.7025
11.6834
11.6982
11.6747
11.7567
11.715
11.4489
11.6857
11.6846
11.496
11.7111
11.7059
11.695
11.6949
11.7048
11.7019
11.7187
11.7262
11.7195
11.7574
11.722
11.6938
11.6988
11.6825
11.6789
11.7088
11.7749
11.7183
11.7495
11.6767
11.7316
11.6908
11.6926
11.7055
11.6719
11.5951
11.599
11.7119
11.6785
11.6983
11.6882
11.7309
11.4525
11.4399
11.7345
11.4418
11.681
11.4454
11.7129
11.4437
11.4505
11.678
11.6479
11.7189
11.6181
11.5935
11.5907
11.7086
11.5954
11.4509
11.5556
11.5841
11.7167
11.5917
11.6798
11.6717
11.4896
11.6684
11.4503
11.6728
11.7036
11.4584
11.6677
11.4358
11.7173
11.6388
11.6662
11.6643
11.4836
11.5046
11.4518
11.7764
11.6501
11.4374
11.7777
11.6532
11.4242
11.643
11.6509
11.6977
11.6232
11.6182
11.6584
11.6957
11.6385
11.6285
11.6134
11.6335
11.7037
11.6538
11.694
11.6458
11.6497
11.6991
11.626
11.616
11.6561
11.7021
11.695
11.6366
11.5923
11.6674
11.6378
11.715
11.5698
11.5777
11.6667
11.732
11.7193
11.7094
11.773
11.7393
11.6566
11.5752
11.7111
11.7073
11.4676
11.7708
11.7513
11.6805
11.7253
11.5755
11.7179
11.7557
11.4707
11.7291
11.7376
11.6976
11.6149
11.7383
11.4385
11.7094
11.7111
11.7348
11.7727
11.6502
11.7724
11.6399
11.5618
11.5538
11.775
11.4797
11.7424
11.4463
11.747
11.7108
11.6471
11.7005
11.5144
11.5604
11.7619
11.7031
11.487
11.6805
11.7123
11.739
11.6237
11.5496
11.7598
11.609
11.6589
11.6929
11.7604
11.7686
11.7509
11.528
11.5973
11.748
11.7517
11.5937
11.7797
11.7012
11.7147
11.718
11.7593
11.7555
11.602
11.6707
11.6791
11.7281
11.436
11.4351
11.6907
11.7588
11.7636
11.764
11.6638
11.4318
11.4781
11.7202
11.5781
11.6594
11.5836
11.6525
11.7092
11.778
11.4123
11.5911
11.6624
11.6303
11.5857
11.5797
11.548
11.6089
11.7766
11.6091
11.5599
11.71
11.371
11.7673
11.6031
11.7756
11.5952
11.5322
11.7448
11.6742
11.6723
11.7761
11.7436
11.6913
11.567
11.7401
11.6002
11.7277
11.4456
11.6004
11.5297
11.7648
11.439
11.7124
11.5959
11.5816
11.7738
11.6339
11.5489
11.5976
11.5572
11.5991
11.6053
11.6006
11.5992
11.6012
11.6
11.6749
11.6726
11.5002
11.7217
11.5812
11.7127
11.6787
11.6813
11.4688
11.4433
11.6919
11.6056
11.6612
11.7655
11.7699
11.6649
11.7125
11.6778
11.7532
11.5992
11.7364
11.7244
11.7166
11.7504
11.7663
11.4557
11.7052
11.5789
11.601
11.727
11.4395
11.7578
11.573
11.4511
11.5157
11.6823
11.7715
11.4489
11.6069
11.6431
11.7355
11.5733
11.5983
11.6065
11.6961
11.7727
11.7681
11.5831
11.6641
11.6433
11.588
11.7443
11.7624
11.6378
11.4853
11.6074
11.7702
11.5295
11.7416
11.6335
11.6956
11.4481
11.5213
11.7616
11.4356
11.6822
11.6972
11.5526
11.7744
11.6848
11.5841
11.7054
11.6205
11.4764
11.5858
11.4439
11.7421
11.5993
11.4331
11.734
11.649
11.6746
11.7631
11.779
11.4485
11.6501
11.5913
11.7251
11.6038
11.5983
11.7558
11.6736
11.4217
11.6918
11.6727
11.7099
11.4908
11.4207
11.4868
11.6205
11.4315
11.597
11.759
11.7675
11.5846
11.6509
11.623
11.7653
11.5663
11.7354
11.7081
11.4416
11.5556
11.7752
11.6088
11.7692
11.6003
11.6689
11.6565
11.7239
11.591
11.7732
11.5801
11.555
11.5972
11.776
11.5878
11.6805
11.6803
11.6741
11.6012
11.5994
11.7089
11.6514
11.7146
11.7746
11.7071
11.4738
11.774
11.7151
11.5268
11.77
11.5858
11.716
11.5807
11.7688
11.5914
11.4409
11.7541
11.5854
11.758
11.5902
11.4381
)
;

boundaryField
{
    back
    {
        type            empty;
    }
    front
    {
        type            empty;
    }
    top
    {
        type            zeroGradient;
    }
    outer_arc
    {
        type            zeroGradient;
    }
    bottom
    {
        type            uniformFixedValue;
        uniformValue    
        {
            type            table;
            format          csv;
            file            "outlet_p.csv";
            nHeaderLine     1;
            refColumn       0;
            componentColumns List<label> 1(1);
            separator       ",";
            mergeSeparators 0;
        }
        value           uniform 11.4316;
    }
    inner_arc
    {
        type            zeroGradient;
    }
}


// ************************************************************************* //
