/*--------------------------------*- C++ -*----------------------------------*\
  =========                 |
  \\      /  F ield         | OpenFOAM: The Open Source CFD Toolbox
   \\    /   O peration     | Website:  https://openfoam.org
    \\  /    A nd           | Version:  9
     \\/     M anipulation  |
\*---------------------------------------------------------------------------*/
FoamFile
{
    format      ascii;
    class       surfaceScalarField;
    location    "1.26";
    object      phi;
}
// * * * * * * * * * * * * * * * * * * * * * * * * * * * * * * * * * * * * * //

dimensions      [0 3 -1 0 0 0 0];

internalField   nonuniform List<scalar> 
1363
(
-2.5024e-06
1.58544e-06
9.16961e-07
-1.53374e-06
1.71086e-06
-1.77122e-07
2.13272e-06
-1.53002e-06
-6.027e-07
-7.33578e-07
2.25775e-06
-1.52418e-06
1.97461e-06
1.58112e-07
1.34678e-06
-3.36737e-08
-1.31311e-06
-5.33763e-07
5.33763e-07
1.16e-06
1.86786e-07
-1.39775e-06
1.48432e-06
-8.65747e-08
1.0535e-07
-1.5031e-06
-1.39999e-06
1.38699e-06
1.29936e-08
1.50319e-06
-1.8865e-06
3.83314e-07
1.66535e-06
-2.39893e-06
-1.39667e-06
1.43918e-06
-4.2504e-08
3.7396e-07
1.12923e-06
-1.45357e-06
-8.01693e-08
-7.35338e-08
1.67117e-06
-1.59764e-06
-1.29107e-06
-1.21133e-06
-1.29e-06
2.89067e-08
1.2611e-06
8.36725e-07
-8.36725e-07
1.34938e-06
-1.42292e-06
-6.64069e-07
-1.22243e-06
-6.61238e-07
-1.0971e-07
7.70948e-07
3.04414e-07
-1.27146e-06
9.67042e-07
-4.31758e-07
-9.68229e-07
-1.35306e-06
1.65748e-06
1.60839e-06
-1.53715e-06
-7.12454e-08
-1.02533e-06
3.64094e-07
1.17725e-06
-1.70176e-06
5.24512e-07
-1.73375e-07
-1.68592e-06
1.8593e-06
1.90432e-06
-3.6745e-07
-1.53687e-06
7.22679e-09
1.60117e-06
-2.3121e-07
1.40846e-06
9.45626e-07
-3.34015e-07
-6.11612e-07
1.53308e-06
-1.40891e-06
-1.24167e-07
-8.37411e-09
6.70154e-07
-6.6178e-07
-2.55021e-06
1.16524e-06
1.38497e-06
1.4407e-06
-6.7167e-07
-7.69034e-07
-1.26528e-06
-1.28493e-06
-1.99149e-07
-1.07231e-06
-7.09287e-07
1.08118e-06
-3.71891e-07
2.61822e-06
-1.97791e-06
-6.4032e-07
3.30805e-07
-5.29953e-07
-1.71557e-07
-3.62205e-07
2.43626e-07
2.90137e-07
-1.2839e-06
1.45894e-08
1.26931e-06
9.47643e-07
9.42061e-08
-1.04185e-06
1.05003e-07
8.40624e-07
1.02019e-07
-8.11305e-07
-3.44169e-07
-1.05251e-06
-1.14799e-06
-1.42017e-07
5.88298e-09
-1.15593e-07
-1.58114e-08
7.43724e-09
-1.24888e-06
1.65932e-07
1.08295e-06
2.0173e-06
-1.91195e-06
2.30313e-08
1.16636e-06
-1.18939e-06
7.30821e-07
-7.30821e-07
1.23398e-08
2.00496e-06
5.84882e-07
1.45939e-07
6.69665e-08
1.5555e-06
-1.62247e-06
-9.97257e-07
8.23882e-07
1.65757e-06
-1.50946e-06
-1.48112e-07
7.78178e-07
-1.11219e-06
-4.67722e-07
2.05316e-06
8.68402e-07
5.72303e-07
1.36582e-06
-9.41093e-07
-4.24723e-07
1.20427e-07
-8.81055e-07
1.01981e-06
-1.38757e-07
-7.04553e-07
7.27584e-07
1.2971e-06
-9.18605e-07
-3.78491e-07
1.11254e-06
5.98318e-07
-1.0702e-06
1.0156e-06
5.45987e-08
7.20623e-07
-7.20623e-07
-5.65614e-08
-1.62936e-06
-1.21926e-06
-2.96176e-08
1.48531e-07
6.88195e-07
-4.92661e-07
-3.44064e-07
2.36181e-08
1.62539e-06
2.78929e-07
-1.26075e-06
-1.92822e-07
-2.6879e-08
3.0051e-07
-2.73631e-07
-1.72051e-06
-1.3263e-06
3.9194e-08
1.28711e-06
1.05067e-07
-1.15436e-06
2.13267e-07
-1.86788e-06
1.82377e-06
4.4111e-08
1.29554e-06
-1.22857e-06
1.01162e-06
1.76305e-07
-1.18792e-06
4.25156e-07
1.01402e-06
-4.58092e-07
-8.68211e-07
1.39597e-06
1.22225e-06
7.98104e-07
-5.5131e-08
-7.42973e-07
-2.01783e-06
2.03017e-06
-2.47663e-07
1.41402e-06
4.50207e-08
-1.23441e-06
-1.43325e-06
1.18134e-06
2.51907e-07
2.40172e-07
-2.21808e-06
-1.33713e-07
1.14533e-06
-7.80082e-07
7.53203e-07
-1.28855e-07
9.997e-07
-1.38261e-08
-9.85874e-07
1.90721e-07
-2.20856e-06
-2.00344e-07
1.12554e-06
-1.87887e-06
1.92389e-06
-4.86061e-08
8.72489e-07
-4.29525e-09
-1.2796e-06
-3.51946e-08
-1.43173e-06
1.46693e-06
6.52295e-08
-9.46285e-07
9.98614e-08
9.19951e-07
7.90767e-09
-7.1246e-07
4.02229e-08
6.87361e-07
1.15678e-06
-4.26413e-07
-6.43784e-07
3.6535e-07
1.02164e-06
7.98104e-07
2.39599e-07
-1.68458e-06
1.44498e-06
1.91756e-06
3.40199e-07
-2.93054e-07
1.64199e-07
6.51107e-07
-2.26588e-06
1.61477e-06
-1.64199e-07
1.15593e-07
6.94812e-07
-1.21698e-08
-6.82642e-07
3.30805e-07
6.40454e-07
-6.15556e-07
1.71442e-06
-8.90304e-08
5.88298e-09
-7.61163e-07
5.29953e-07
7.61163e-07
-6.00687e-07
-1.60476e-07
-1.58114e-08
4.93328e-07
-4.64421e-07
-4.93328e-07
6.21292e-07
-1.27965e-07
4.64421e-07
-3.70215e-07
2.05124e-07
-1.00121e-07
-2.05124e-07
2.70353e-07
-6.21292e-07
6.35882e-07
2.79811e-08
-2.00734e-08
3.70215e-07
-2.70353e-07
2.01495e-08
2.00734e-08
-2.01495e-08
1.22168e-07
1.00121e-07
-1.22168e-07
2.20472e-08
-6.35882e-07
6.00687e-07
1.39638e-06
1.31419e-07
1.583e-06
1.12054e-06
3.94546e-08
3.36149e-07
1.27153e-07
-1.04576e-06
3.28486e-07
6.87112e-07
2.64109e-07
-1.3747e-06
1.11059e-06
-5.3554e-07
-1.33234e-06
1.92184e-07
9.28358e-07
6.83883e-07
-1.71299e-06
1.02911e-06
1.31973e-06
-1.37486e-06
-8.24208e-07
9.09876e-07
-8.56677e-08
-1.49921e-06
9.02987e-08
1.48372e-07
-1.41365e-06
-9.71767e-07
-1.82593e-07
-1.14546e-10
2.06819e-07
-2.06704e-07
-1.29081e-07
-1.28472e-06
-1.03027e-06
5.85069e-08
1.34579e-06
-1.19741e-06
-2.35631e-06
8.32138e-07
1.05115e-06
8.26853e-08
-1.13383e-06
1.71089e-06
-1.027e-06
-3.56296e-08
-1.25068e-06
1.28631e-06
3.90686e-07
6.09015e-07
1.52373e-06
-3.98192e-07
-1.62424e-07
-1.21899e-07
-1.05661e-07
-1.23944e-07
-1.76487e-08
-1.52843e-07
3.36917e-07
1.48686e-06
-1.85967e-06
1.38368e-06
4.75983e-07
-9.30265e-08
1.27437e-06
-7.43549e-07
-1.11612e-06
1.14924e-06
-1.3969e-06
-2.11038e-06
1.55286e-06
5.57517e-07
-8.58051e-07
3.38431e-08
-9.32425e-07
-7.69333e-07
1.42935e-06
-7.26696e-07
-1.34763e-06
-1.38437e-06
-1.56456e-06
-2.66185e-07
1.83075e-06
-1.78532e-06
1.25529e-07
1.65979e-06
1.24425e-06
-1.77979e-06
2.17837e-06
-6.25504e-07
1.72795e-06
-1.45794e-06
-2.70004e-07
1.70091e-06
4.77454e-07
-1.39158e-06
1.23873e-06
3.98893e-07
-1.93576e-06
-1.69889e-07
-1.61543e-06
2.53901e-06
-8.73658e-07
1.81085e-06
-1.55602e-06
-2.54825e-07
5.89565e-07
4.91614e-07
-7.85858e-08
7.85858e-08
-2.93054e-07
1.01175e-06
1.52726e-06
-1.74398e-06
1.57409e-06
1.50875e-06
1.27448e-06
1.29008e-06
-1.25206e-06
-1.67216e-06
1.79769e-06
2.52219e-07
1.95415e-07
-1.19351e-06
2.20526e-06
-1.05791e-06
2.03668e-06
-9.78766e-07
-1.74404e-06
1.59593e-06
-1.61257e-06
-1.06385e-06
2.44889e-06
-1.38504e-06
-5.2421e-07
1.76846e-06
1.63266e-06
-1.12254e-06
-5.10117e-07
-1.82417e-06
2.68144e-07
-1.50236e-06
-3.21804e-07
-1.66746e-06
2.42055e-06
-7.53089e-07
1.49847e-06
-2.56232e-06
-4.86682e-07
2.18759e-06
2.30724e-06
-1.22505e-06
-1.08219e-06
2.61418e-07
-2.61418e-07
1.03967e-06
-1.03967e-06
-1.74562e-07
-1.56948e-06
-1.79305e-06
2.37736e-06
-5.84302e-07
1.51137e-06
4.09659e-07
-1.92103e-06
4.59496e-07
-1.84386e-06
-1.77792e-06
1.05758e-07
9.12021e-07
-9.12021e-07
-2.04317e-07
2.04317e-07
7.81431e-07
9.89193e-07
-2.18271e-06
1.27894e-06
3.53726e-07
6.27493e-07
1.91027e-06
-1.84842e-06
3.46058e-07
-1.43876e-06
5.67914e-07
9.55816e-07
-4.60852e-07
-1.90359e-06
2.36444e-06
1.50543e-06
-1.02944e-06
-1.20726e-06
1.76477e-06
-1.86739e-06
-1.9165e-06
-3.89872e-07
2.30638e-06
9.22199e-07
1.58846e-06
1.55338e-06
1.40155e-06
-1.11478e-07
2.56533e-07
-1.71448e-06
-1.38628e-06
1.86374e-06
9.8021e-07
-2.39027e-06
3.18938e-07
1.86866e-06
-1.1647e-06
-5.95041e-07
1.75974e-06
2.98171e-07
-2.41543e-06
1.66234e-06
5.9079e-07
-1.75549e-06
-1.69365e-06
-1.46554e-06
1.78448e-06
-2.1008e-06
1.71093e-06
1.92489e-07
1.99637e-06
-2.18886e-06
-1.47627e-06
1.99868e-06
3.077e-07
2.54041e-06
-5.41735e-07
-1.71403e-06
1.78801e-06
-7.39729e-08
1.02966e-06
-1.41999e-07
1.73793e-06
-1.58251e-06
-1.00078e-06
1.59157e-06
-1.63934e-06
-1.65863e-07
1.80521e-06
-1.78126e-06
1.51125e-06
1.33202e-08
-7.43724e-09
7.3776e-07
-6.76063e-08
6.90695e-07
-6.77375e-07
-1.74987e-06
1.10529e-07
2.12583e-06
-1.151e-06
-9.74834e-07
-1.8545e-06
1.72542e-06
-3.55871e-08
1.80723e-06
-1.77165e-06
-2.12891e-06
2.09332e-06
1.63227e-06
1.52211e-07
1.82476e-06
9.85901e-07
1.13993e-06
1.63247e-06
-6.0281e-07
-1.74052e-06
7.39737e-07
-2.76281e-07
1.96182e-06
-1.68554e-06
-1.26647e-06
1.1006e-06
-1.85518e-06
1.08025e-06
7.74924e-07
1.96112e-06
-1.79276e-06
-1.68365e-07
1.06621e-07
4.44508e-07
-2.23727e-06
-1.52605e-07
1.87803e-06
1.95976e-06
-3.75763e-07
-1.584e-06
5.73616e-08
-2.50597e-06
6.36066e-07
1.86991e-06
-2.19508e-06
1.05685e-06
1.13823e-06
4.51903e-07
1.50786e-06
2.04423e-06
3.20207e-07
-2.36711e-06
1.40355e-06
9.63558e-07
5.4553e-07
-5.4553e-07
6.88195e-07
-7.42973e-07
-3.62205e-07
-5.81846e-07
5.81846e-07
-4.06204e-07
4.06204e-07
6.40454e-07
1.88468e-06
-2.33235e-06
4.47669e-07
-5.97892e-07
5.97892e-07
-3.05336e-07
3.05336e-07
5.84882e-07
5.08837e-07
-5.08837e-07
-5.25553e-07
5.25553e-07
-4.92661e-07
5.81132e-07
-5.81132e-07
2.43626e-07
-6.15556e-07
1.01189e-06
6.20579e-07
6.10602e-07
1.07233e-06
-1.68293e-06
6.27374e-07
-6.27374e-07
1.97516e-06
-2.25145e-06
-2.43894e-06
1.79862e-06
4.18018e-07
-4.18018e-07
-2.13256e-06
9.81564e-07
2.09112e-06
-2.56358e-06
4.72459e-07
-3.66636e-07
-1.79395e-06
2.16058e-06
-1.48129e-06
-1.02468e-06
-1.92852e-06
1.56188e-06
-1.26035e-06
-8.72212e-07
-1.19966e-06
-9.95413e-07
1.02714e-06
-2.00062e-06
9.73482e-07
-8.28037e-07
-2.79811e-08
2.03434e-06
-1.58243e-06
2.92454e-07
-1.6193e-06
1.32684e-06
-9.71135e-07
2.08839e-06
-1.37895e-06
-7.09431e-07
-1.9991e-06
1.8465e-06
2.06182e-06
-1.98106e-06
1.72451e-06
2.56544e-07
-5.54261e-07
-1.32532e-07
2.03148e-06
-1.92486e-06
2.15737e-06
-1.71286e-06
-3.57186e-07
2.15962e-06
-1.5961e-06
-5.63527e-07
-6.55382e-07
-1.34524e-06
-1.50533e-06
-4.23191e-07
-2.0203e-06
1.64454e-06
-1.60323e-07
6.04284e-07
-2.10095e-06
1.49667e-06
1.78497e-06
-1.49252e-06
2.2159e-06
-1.57983e-06
1.13878e-06
7.67815e-07
-1.90659e-06
-5.52691e-07
1.85822e-06
-1.30553e-06
-2.31717e-08
2.41415e-06
-1.3573e-06
-1.0749e-06
-7.19391e-07
1.79429e-06
8.45218e-07
-1.84109e-06
9.9587e-07
2.4703e-06
-1.06675e-06
-1.28624e-06
-3.3306e-07
1.663e-06
2.54538e-06
-7.4676e-07
-2.11214e-06
1.40271e-06
3.23794e-08
-1.34557e-07
2.19623e-06
-2.2194e-06
2.32503e-07
4.46766e-07
9.32861e-07
1.2649e-06
-1.81759e-06
-2.95789e-07
6.19801e-07
1.74867e-06
4.16598e-07
-1.86442e-06
1.44782e-06
-4.62527e-07
2.05518e-06
-1.59265e-06
2.07576e-06
-1.23054e-06
1.83424e-06
-2.3885e-06
7.83325e-07
-7.02312e-07
1.27064e-06
-2.13594e-06
1.26373e-06
-2.89155e-08
-4.56411e-07
1.57425e-06
1.41486e-06
-2.13425e-06
-1.45782e-06
2.22564e-06
-2.34514e-06
7.65311e-07
-2.45103e-06
1.09373e-06
2.25701e-06
-6.07805e-08
2.09669e-06
-1.65541e-06
-7.00059e-07
2.35547e-06
-2.09334e-06
1.11851e-06
-2.40217e-06
-1.35512e-06
-5.51469e-07
-2.4719e-06
1.40514e-06
1.28614e-06
4.09145e-07
-2.20309e-06
-1.18039e-06
-1.41228e-06
-7.33231e-07
1.57875e-06
1.5533e-06
6.26869e-07
-2.18017e-06
1.75716e-06
-1.34056e-06
1.60965e-06
-8.26325e-07
2.17311e-06
1.23755e-06
5.56741e-07
-3.68076e-07
1.72244e-06
-1.35436e-06
-1.81723e-06
2.04973e-06
5.67931e-07
-8.97647e-07
1.41169e-06
-1.94242e-06
1.80787e-06
-4.8341e-07
1.93123e-06
2.03254e-06
-5.80563e-07
2.07723e-06
-1.37641e-06
-5.3028e-07
1.90669e-06
1.97935e-06
-2.33654e-06
1.52637e-06
-1.98278e-06
-1.19216e-06
1.61055e-06
-4.18393e-07
1.21067e-06
-1.95698e-06
-8.2961e-07
1.344e-06
1.529e-06
-1.70612e-06
-2.39854e-07
-1.68969e-06
2.13646e-06
-1.89935e-06
1.93173e-06
-1.31935e-06
-4.30609e-07
-2.00774e-06
9.0528e-07
1.10246e-06
2.9988e-07
3.19236e-07
-1.04957e-06
1.85102e-06
-8.01451e-07
1.50381e-07
1.06961e-08
-1.72526e-06
1.71456e-06
-2.28164e-06
8.69356e-07
2.01139e-06
-8.92886e-07
-1.12991e-06
2.40024e-06
-9.95092e-07
3.04083e-07
-1.7966e-06
-1.18791e-06
-1.02184e-06
2.35193e-06
9.89549e-07
-1.97448e-06
1.67869e-06
-1.94246e-06
1.21984e-06
1.19281e-06
-2.02242e-06
-1.66618e-07
9.30547e-07
9.20473e-07
-9.30938e-07
1.93518e-06
-1.00424e-06
6.78418e-07
1.22827e-06
-1.73239e-06
-6.83162e-07
-7.49649e-07
4.69025e-07
1.90321e-06
-2.14307e-06
5.84266e-07
1.02629e-06
1.9201e-06
-1.07e-06
-7.86224e-07
1.85622e-06
1.90184e-07
-1.47642e-06
-1.86844e-06
1.2734e-06
1.60642e-06
-1.77304e-06
-1.09085e-07
1.63808e-06
1.51639e-06
-2.31337e-06
7.96982e-07
-2.27623e-07
-1.4785e-06
2.63154e-06
1.05869e-06
8.61405e-07
-9.3759e-07
-7.45345e-07
1.96397e-06
8.4117e-07
1.09401e-06
-1.92289e-06
9.85305e-07
-1.81534e-06
-1.83434e-06
2.01284e-06
-4.96451e-07
-1.44363e-06
-1.68396e-06
-9.53936e-07
-1.91158e-06
1.59235e-06
3.38882e-07
-1.81254e-06
1.06289e-06
-6.95385e-07
-1.17306e-06
-5.84762e-08
-6.69497e-07
-1.4352e-06
1.17775e-06
-6.02788e-07
1.87619e-06
4.77308e-07
-1.95357e-06
-8.07707e-07
-1.11519e-06
-1.43711e-06
5.62107e-07
1.49105e-06
1.76164e-06
-1.2109e-06
5.31141e-08
6.90922e-07
1.32191e-06
-1.44372e-06
1.97473e-06
1.95077e-06
-1.36748e-06
-5.8329e-07
5.07045e-07
1.27935e-06
-4.28188e-07
1.78298e-06
-1.35479e-06
1.97027e-06
1.75027e-06
-1.96888e-07
-1.86695e-06
1.81915e-06
-7.92861e-07
1.60827e-06
1.14965e-06
1.24963e-06
-1.76278e-06
1.3599e-06
5.16286e-07
-1.36669e-06
-3.47784e-07
-5.48649e-07
-1.40493e-06
1.98822e-06
-6.66301e-07
-1.868e-06
-1.69006e-06
3.23365e-07
9.73776e-07
1.0629e-06
2.33354e-06
-1.41134e-06
1.77939e-06
-4.1112e-07
-1.76591e-06
1.61659e-06
-1.29323e-06
-1.7948e-07
-1.64564e-06
1.84533e-06
-1.99691e-07
-1.86688e-06
-2.01654e-07
9.97219e-07
1.10833e-06
-2.38828e-06
-1.60685e-06
-1.07735e-07
-1.85734e-06
1.96297e-06
-1.63869e-06
1.27289e-06
1.01777e-06
-3.73686e-07
-1.49957e-06
-2.8602e-07
-1.48164e-06
8.04788e-07
9.30559e-07
-1.07636e-07
-1.26341e-06
-1.00136e-06
8.04606e-07
1.96753e-07
-1.57422e-06
-5.68024e-07
2.15489e-06
-1.17468e-06
6.54932e-07
5.25104e-07
3.33446e-08
-5.45344e-07
-1.45106e-06
-7.50262e-07
6.8248e-07
4.97556e-07
1.27271e-06
-1.93901e-06
7.88285e-07
-5.95291e-07
-2.23103e-06
1.91731e-06
-5.67924e-07
-1.77587e-06
-1.78559e-06
-1.58928e-06
-8.24584e-07
-1.76775e-07
1.33244e-06
-1.12362e-06
-1.14226e-06
-1.67132e-06
2.22445e-06
1.45972e-06
-1.23007e-06
-1.61778e-06
-2.01908e-06
-6.43898e-07
-1.68217e-06
2.67671e-07
-2.16764e-07
3.82696e-07
6.54102e-08
-7.37081e-07
-1.05706e-06
-4.11817e-07
-3.19004e-07
-6.77238e-07
-9.40538e-07
-1.25095e-06
-1.64015e-06
-4.60653e-07
-8.84335e-07
-2.24546e-07
1.33709e-06
1.56845e-06
-1.92418e-06
8.08066e-07
-1.0929e-06
-1.23894e-06
1.48726e-06
-2.48315e-07
-2.35052e-07
-1.33423e-06
-1.0213e-06
-9.70545e-08
-1.12538e-06
-9.21639e-07
-2.35052e-07
-1.1359e-06
1.69976e-06
2.17545e-07
1.29507e-07
-9.14728e-07
1.72937e-06
-2.84387e-07
1.41354e-06
-1.35506e-06
-1.21359e-07
1.66668e-06
3.74026e-07
-1.95269e-06
1.07937e-06
8.73322e-07
-8.20619e-07
-1.08342e-06
-1.02213e-06
-2.20821e-06
-7.47587e-07
-6.35998e-07
1.41418e-06
2.05568e-06
1.77041e-06
1.91411e-07
1.12142e-06
-8.17421e-08
1.64805e-07
-1.03245e-06
2.18143e-07
4.32746e-08
1.03245e-06
-2.18143e-07
1.15652e-06
1.12142e-06
1.02619e-06
-1.96496e-06
9.69547e-07
1.52074e-06
-1.16702e-06
1.85743e-06
-5.54007e-07
-4.38846e-08
5.96511e-07
3.08624e-08
-5.42652e-07
5.95168e-07
-6.34242e-07
-1.08731e-07
-5.54007e-07
6.1438e-07
-3.25339e-08
-4.23798e-07
1.75941e-08
5.62262e-07
-2.77469e-07
-2.78675e-08
5.42652e-07
-3.38151e-08
-5.95168e-07
8.63311e-08
6.34242e-07
-5.31105e-08
-5.62262e-07
-1.88694e-08
2.77469e-07
-6.1438e-07
5.96511e-07
-4.23798e-07
-9.82227e-08
-1.45936e-06
-1.43928e-06
-9.28708e-07
1.39773e-06
-9.90598e-07
1.36462e-06
6.90686e-07
3.84344e-07
2.27514e-07
1.59271e-06
-1.436e-06
2.71913e-07
-1.14735e-06
3.84344e-07
6.38899e-07
-1.77883e-06
-9.12291e-07
7.84327e-07
1.47832e-06
4.42867e-07
-3.6663e-08
-4.42867e-07
-8.82008e-07
9.32703e-07
-5.06943e-08
-2.1483e-06
3.48806e-07
8.73222e-07
-1.47592e-06
1.91151e-06
1.59364e-06
-1.85018e-06
-1.41819e-06
9.99795e-07
5.51181e-08
-7.16983e-07
8.88403e-07
1.84326e-07
-9.64408e-07
1.79917e-06
-1.60194e-06
-1.16553e-06
1.16553e-06
-1.82666e-06
-1.08214e-06
-1.41102e-06
8.88403e-07
1.19875e-06
-1.79083e-06
1.39139e-06
-2.80547e-07
-9.70137e-07
7.25315e-07
-1.28206e-06
1.77168e-06
-1.20816e-06
4.02289e-07
-4.02289e-07
1.20331e-06
-1.10022e-06
-2.27644e-07
2.27644e-07
-1.38178e-07
1.38178e-07
-1.19044e-06
2.11977e-07
1.62648e-07
1.13183e-06
-8.88402e-08
-1.04299e-06
1.03264e-06
-1.03264e-06
3.0051e-07
4.5619e-07
8.30125e-07
2.06819e-07
-1.41409e-06
1.06685e-06
2.07514e-07
1.15318e-06
-8.69477e-07
-1.41046e-06
1.87553e-07
1.67641e-08
-7.30387e-07
-2.55488e-07
9.39424e-07
-3.41106e-07
1.93314e-07
7.4611e-07
-1.68958e-06
-8.62918e-08
-6.46794e-07
-6.66315e-07
-1.19593e-06
2.67219e-07
-4.11817e-07
2.86346e-07
1.00076e-06
1.87079e-07
-7.30473e-07
-3.48777e-07
3.48777e-07
3.06199e-08
1.06998e-06
-1.25608e-06
-2.73631e-07
2.99348e-07
-2.99348e-07
-1.53147e-06
1.18694e-06
-3.23626e-07
-1.46196e-06
-1.0014e-06
-6.90014e-07
1.74507e-06
-1.05506e-06
1.57144e-06
-3.26143e-08
-1.53883e-06
-2.06704e-07
1.71888e-07
1.35781e-06
-1.68143e-06
1.7263e-06
-2.11154e-07
2.11154e-07
-1.47123e-07
1.89707e-06
-7.47832e-07
1.70381e-06
-1.5124e-06
7.35698e-07
-8.27011e-07
2.28467e-07
1.42432e-06
1.01007e-06
-1.70009e-06
1.32229e-06
9.70727e-07
2.68006e-07
4.74991e-08
-7.95086e-07
1.55039e-06
-1.64956e-07
-1.56401e-06
5.06949e-07
-1.87553e-07
9.45952e-07
-1.17508e-07
1.33482e-06
1.7356e-07
7.72392e-07
2.3098e-07
1.10384e-06
9.26854e-07
1.75906e-06
5.26982e-07
1.74923e-06
-7.99453e-08
1.15736e-07
-1.52939e-06
1.29841e-06
7.83823e-07
-2.75192e-07
1.49756e-06
7.65312e-08
-2.51157e-07
1.07547e-06
-1.02236e-06
1.10041e-06
-3.17054e-08
6.51144e-08
-1.83871e-07
1.02478e-06
6.25779e-07
-1.06197e-06
1.40217e-06
2.30716e-07
-1.10803e-06
9.35729e-08
1.07847e-06
-8.11255e-07
1.02536e-06
-7.3054e-07
7.26023e-07
1.60124e-06
-1.0619e-06
-1.61974e-06
1.69307e-07
-1.16653e-06
3.98102e-07
1.32884e-07
-1.62692e-06
7.35729e-07
-9.02026e-07
-4.95277e-07
-8.49533e-07
1.35648e-06
-4.44972e-09
8.84815e-09
)
;

boundaryField
{
    back
    {
        type            empty;
        value           nonuniform List<scalar> 0();
    }
    front
    {
        type            empty;
        value           nonuniform List<scalar> 0();
    }
    top
    {
        type            calculated;
        value           nonuniform List<scalar> 10(-2.10555e-06 -2.29066e-06 -1.73535e-06 -1.18004e-06 -1.18004e-06 -1.73535e-06 -2.10555e-06 -4.39621e-07 -4.39621e-07 -2.29066e-06);
    }
    outer_arc
    {
        type            calculated;
        value           uniform 0;
    }
    bottom
    {
        type            calculated;
        value           nonuniform List<scalar> 10(2.06853e-06 1.96508e-06 1.87325e-06 1.76766e-06 1.37105e-06 2.14224e-06 5.11999e-07 2.20132e-06 -3.00826e-07 1.90212e-06);
    }
    inner_arc
    {
        type            calculated;
        value           uniform 0;
    }
}


// ************************************************************************* //
