/*--------------------------------*- C++ -*----------------------------------*\
  =========                 |
  \\      /  F ield         | OpenFOAM: The Open Source CFD Toolbox
   \\    /   O peration     | Website:  https://openfoam.org
    \\  /    A nd           | Version:  9
     \\/     M anipulation  |
\*---------------------------------------------------------------------------*/
FoamFile
{
    format      ascii;
    class       volScalarField;
    location    "0.98";
    object      p;
}
// * * * * * * * * * * * * * * * * * * * * * * * * * * * * * * * * * * * * * //

dimensions      [0 2 -2 0 0 0 0];

internalField   nonuniform List<scalar> 
90
(
9.69314e-23
3.64028e-23
-7.06208e-22
-1.93864e-21
-1.02031e-21
1.29893e-21
-1.13881e-24
2.29664e-22
1.75146e-22
2.42778e-22
-1.42387e-22
4.64287e-22
1.54828e-22
-4.23752e-22
4.77758e-22
3.0419e-21
-4.20336e-21
5.77049e-22
6.48558e-22
1.50487e-22
-4.02472e-23
1.39563e-22
-7.08507e-23
-1.67323e-22
6.86844e-24
-4.5696e-22
3.17227e-22
-1.03511e-22
-9.82542e-22
2.33674e-22
1.46556e-22
-7.93877e-22
-5.71188e-22
-3.35044e-22
-5.04457e-22
3.41652e-21
2.46141e-22
-6.58187e-21
-6.33835e-22
3.1504e-22
4.47671e-22
5.61599e-22
-6.45824e-22
8.28708e-23
2.84562e-23
-8.00682e-22
2.09923e-22
1.65424e-21
8.13653e-22
-8.19965e-22
1.76904e-22
2.64878e-22
4.26179e-22
-6.29721e-22
3.60649e-22
1.09373e-21
1.269e-23
-1.08578e-22
1.00171e-22
-9.30144e-22
3.54581e-22
-7.63485e-22
-1.30542e-21
2.7305e-22
6.9572e-22
2.6613e-22
-7.43426e-22
-9.44189e-22
-5.47105e-21
-5.51777e-22
2.07737e-21
2.20518e-22
-2.47841e-22
1.66919e-21
2.89326e-21
2.83254e-22
2.06258e-22
-4.43893e-22
-1.39561e-22
4.97908e-24
-6.11512e-21
6.83438e-23
-1.18132e-22
3.28662e-21
-6.57677e-23
-1.22518e-21
1.7131e-22
2.02411e-22
2.3411e-21
3.30639e-22
)
;

boundaryField
{
    back
    {
        type            empty;
    }
    front
    {
        type            empty;
    }
    bottom
    {
        type            zeroGradient;
    }
    outer_arc
    {
        type            zeroGradient;
    }
    right
    {
        type            uniformFixedValue;
        uniformValue    
        {
            type            scale;
            scale           
            {
                type            squarePulse;
                start           0.3;
                duration        0.3;
            }
            xScale          
            {
                type            constant;
                value           1;
            }
            value           
            {
                type            constant;
                value           15.1;
            }
        }
        value           uniform 0;
    }
    inner_arc
    {
        type            zeroGradient;
    }
}


// ************************************************************************* //
