/*--------------------------------*- C++ -*----------------------------------*\
  =========                 |
  \\      /  F ield         | OpenFOAM: The Open Source CFD Toolbox
   \\    /   O peration     | Website:  https://openfoam.org
    \\  /    A nd           | Version:  9
     \\/     M anipulation  |
\*---------------------------------------------------------------------------*/
FoamFile
{
    format      ascii;
    class       surfaceScalarField;
    location    "0.98";
    object      phi;
}
// * * * * * * * * * * * * * * * * * * * * * * * * * * * * * * * * * * * * * //

dimensions      [0 3 -1 0 0 0 0];

internalField   nonuniform List<scalar> 
122
(
5.74924e-30
-8.75352e-31
-1.05305e-30
-8.00714e-29
2.68266e-29
4.49429e-29
5.35657e-29
-9.22269e-29
-2.05525e-29
2.22382e-29
-6.56096e-29
-2.4517e-28
2.29421e-28
6.63951e-30
1.44964e-30
-1.10921e-30
4.75488e-29
-4.64206e-29
2.13456e-29
3.06466e-30
3.87488e-30
-1.4015e-29
-1.2919e-29
2.81475e-29
6.13266e-29
-9.34042e-29
1.27964e-29
-7.24415e-29
4.50705e-29
4.12762e-29
6.28234e-29
-2.6866e-29
2.65689e-29
3.27887e-29
1.58873e-29
-2.06814e-31
-4.88002e-30
-2.01978e-29
2.11894e-29
1.8898e-29
-9.85787e-30
1.33804e-29
1.25259e-31
7.48462e-30
2.63664e-29
-9.52831e-30
-9.97047e-30
2.41529e-30
4.16494e-30
2.76581e-30
7.13624e-30
2.09631e-29
-2.25724e-29
8.06363e-29
-8.61045e-29
1.5321e-30
9.57148e-30
1.37252e-29
8.99679e-30
-1.79238e-30
-1.13111e-29
3.49091e-30
2.45145e-29
3.48358e-29
-5.07138e-29
-1.42928e-29
8.07884e-30
-6.14366e-30
5.71769e-30
-7.88481e-30
-3.1388e-29
-5.84703e-31
3.73394e-29
-2.19957e-29
-3.49915e-30
-5.44733e-30
1.0917e-30
1.26139e-30
-3.46783e-29
2.61457e-29
-2.86572e-30
1.17791e-29
5.48678e-29
1.43306e-29
2.09674e-29
-1.83553e-29
-1.52747e-30
-7.0074e-30
-9.49705e-30
4.50166e-29
4.91067e-30
1.68521e-29
-3.14108e-30
2.45926e-29
5.54828e-31
7.87852e-31
-9.78773e-30
-2.97588e-30
4.85797e-30
6.12882e-30
4.16379e-30
-2.19547e-29
-4.03244e-29
6.61157e-30
1.10014e-29
-5.96051e-29
4.24622e-30
-2.69779e-29
2.29884e-29
8.73293e-30
-1.19628e-28
1.32049e-28
6.47703e-29
-6.17103e-29
-7.17819e-30
-4.19789e-29
4.26111e-29
6.94031e-30
-6.33989e-30
8.08615e-31
5.02385e-29
-1.59623e-30
)
;

boundaryField
{
    back
    {
        type            empty;
        value           nonuniform List<scalar> 0();
    }
    front
    {
        type            empty;
        value           nonuniform List<scalar> 0();
    }
    bottom
    {
        type            calculated;
        value           uniform 0;
    }
    outer_arc
    {
        type            calculated;
        value           uniform 0;
    }
    right
    {
        type            calculated;
        value           nonuniform List<scalar> 4(-4.72204e-30 -6.95227e-30 -1.13783e-29 -6.79561e-30);
    }
    inner_arc
    {
        type            calculated;
        value           uniform 0;
    }
}


// ************************************************************************* //
