/*--------------------------------*- C++ -*----------------------------------*\
  =========                 |
  \\      /  F ield         | OpenFOAM: The Open Source CFD Toolbox
   \\    /   O peration     | Website:  https://openfoam.org
    \\  /    A nd           | Version:  9
     \\/     M anipulation  |
\*---------------------------------------------------------------------------*/
FoamFile
{
    format      ascii;
    class       volVectorField;
    location    "0.98";
    object      U;
}
// * * * * * * * * * * * * * * * * * * * * * * * * * * * * * * * * * * * * * //

dimensions      [0 1 -1 0 0 0 0];

internalField   nonuniform List<vector> 
90
(
(1.8257e-23 5.43913e-23 -4.14775e-39)
(1.06819e-21 1.09183e-21 7.10982e-38)
(-3.45628e-22 -1.70825e-21 -6.86639e-38)
(-1.78512e-21 -2.92938e-22 6.80021e-38)
(3.35044e-21 4.34789e-21 1.78258e-37)
(8.25235e-22 6.27008e-22 -5.64856e-38)
(-2.24455e-23 1.06217e-22 4.69921e-39)
(1.15544e-22 -1.65863e-23 1.2003e-38)
(-9.63022e-23 -5.18445e-22 0)
(1.24558e-22 2.67434e-23 0)
(-5.34397e-22 9.91044e-23 -1.29186e-38)
(-7.0091e-22 -1.79973e-21 -5.36027e-39)
(-1.17943e-22 -1.88174e-22 1.93407e-39)
(-1.00313e-21 -4.44501e-23 7.78841e-39)
(-7.09343e-22 -1.53641e-21 0)
(1.18856e-21 1.35537e-21 0)
(2.02924e-21 2.36973e-21 -2.4725e-37)
(1.22233e-21 -6.29891e-22 -3.33313e-38)
(2.07877e-23 1.15531e-21 0)
(-1.79169e-22 -1.65659e-22 5.50659e-40)
(-4.31809e-22 -2.8832e-22 3.14216e-39)
(5.94469e-23 3.57028e-22 1.3996e-38)
(-2.06399e-22 -9.17078e-24 -1.62863e-38)
(-4.38118e-22 3.07531e-23 1.36053e-39)
(-9.25249e-23 2.37477e-22 -5.93625e-39)
(-1.75354e-22 2.78069e-22 1.36087e-38)
(-9.39163e-23 -3.03501e-23 -8.15794e-39)
(3.67845e-22 3.58623e-22 9.53572e-39)
(-7.69106e-22 -8.1287e-22 0)
(1.8005e-22 1.86052e-22 -1.1251e-38)
(3.40805e-23 -1.50738e-22 6.17865e-39)
(-5.07964e-22 -1.5386e-22 -4.78042e-38)
(-2.5689e-22 2.34453e-24 -1.34694e-38)
(4.97804e-23 2.32142e-22 2.60778e-38)
(-4.39942e-22 3.52176e-22 -8.75131e-39)
(-1.82738e-22 -2.23505e-21 -8.10309e-38)
(8.69333e-22 5.46167e-22 0)
(5.47476e-22 1.87142e-23 0)
(-6.23901e-23 -3.29895e-23 1.41819e-38)
(-7.25122e-23 -8.09047e-23 4.51074e-39)
(1.70058e-22 -4.36903e-23 -9.91396e-39)
(2.48203e-22 -3.77623e-22 -4.14815e-38)
(-7.50935e-22 6.7162e-22 -4.11279e-39)
(-5.63429e-23 2.99275e-23 -4.26117e-39)
(-1.26052e-22 -6.41157e-23 -2.21489e-39)
(3.25163e-22 4.61237e-22 3.01217e-38)
(-1.52636e-22 3.42234e-25 5.95251e-40)
(1.27442e-21 -4.03595e-22 3.91349e-38)
(-3.74229e-23 -2.21271e-22 -4.4003e-38)
(-5.72987e-23 -6.95675e-22 2.21944e-39)
(-7.32527e-23 -6.42e-23 0)
(9.10463e-23 9.00708e-23 -1.13927e-38)
(-1.57119e-22 -7.47793e-22 -1.26429e-40)
(1.02002e-22 2.73706e-22 0)
(1.09327e-22 4.41844e-23 2.21456e-38)
(-3.86565e-23 7.91366e-23 -4.0892e-40)
(-2.01827e-22 7.83836e-24 2.00507e-39)
(-6.06463e-22 8.46991e-23 0)
(2.77581e-23 -4.99207e-23 0)
(-9.53965e-23 -1.59543e-22 5.33596e-38)
(5.12323e-22 -2.5395e-22 2.66323e-38)
(5.00703e-22 3.80549e-22 0)
(-3.79188e-23 -2.63321e-23 6.10056e-38)
(9.45586e-22 3.04739e-22 -8.00441e-39)
(7.57636e-22 5.44188e-22 4.58785e-38)
(-9.68682e-22 -9.00258e-22 9.5988e-39)
(-5.43607e-22 -2.14038e-22 0)
(-4.32795e-22 5.79385e-22 0)
(-2.10657e-21 -7.83162e-22 2.29124e-38)
(-4.16307e-21 6.98093e-22 3.86572e-38)
(1.96259e-21 -6.09212e-22 0)
(1.8817e-22 5.51437e-23 9.05266e-39)
(1.00889e-22 -1.42924e-22 0)
(-1.01031e-21 1.05999e-21 1.26973e-37)
(-1.61167e-21 1.90176e-22 -3.90299e-38)
(-3.87899e-24 2.20692e-22 -1.0658e-38)
(1.88384e-22 5.38551e-23 -2.22984e-39)
(-4.6499e-22 8.46691e-22 0)
(-3.61485e-23 -1.18646e-22 -1.54467e-38)
(1.53679e-22 -3.2037e-24 5.22435e-39)
(-2.16416e-21 -1.38195e-22 2.54525e-37)
(-1.26128e-22 -7.27523e-24 2.48258e-40)
(-4.5064e-22 5.3453e-22 -9.17399e-40)
(2.15275e-21 1.3534e-23 8.84817e-38)
(-2.44218e-22 8.79358e-22 4.1607e-39)
(-4.66241e-22 1.2755e-21 -3.5285e-38)
(7.57517e-23 3.16405e-23 6.10301e-39)
(2.48299e-22 4.99483e-23 -1.23897e-39)
(-1.80009e-22 1.42384e-21 -2.18867e-37)
(2.81291e-22 8.92867e-23 -8.76685e-39)
)
;

boundaryField
{
    back
    {
        type            empty;
    }
    front
    {
        type            empty;
    }
    bottom
    {
        type            uniformFixedValue;
        uniformValue    
        {
            type            scale;
            scale           
            {
                type            squarePulse;
                start           0.3;
                duration        0.3;
            }
            xScale          
            {
                type            constant;
                value           1;
            }
            value           
            {
                type            constant;
                value           (0 0.7 0);
            }
        }
        value           uniform (0 0 0);
    }
    outer_arc
    {
        type            noSlip;
    }
    right
    {
        type            zeroGradient;
    }
    inner_arc
    {
        type            noSlip;
    }
}


// ************************************************************************* //
