/*--------------------------------*- C++ -*----------------------------------*\
  =========                 |
  \\      /  F ield         | OpenFOAM: The Open Source CFD Toolbox
   \\    /   O peration     | Website:  https://openfoam.org
    \\  /    A nd           | Version:  9
     \\/     M anipulation  |
\*---------------------------------------------------------------------------*/
FoamFile
{
    format      ascii;
    class       volVectorField;
    location    "0.22";
    object      U;
}
// * * * * * * * * * * * * * * * * * * * * * * * * * * * * * * * * * * * * * //

dimensions      [0 1 -1 0 0 0 0];

internalField   nonuniform List<vector> 
578
(
(-0.155 -0.202 0)
(-0.0891 -0.363 2.29e-16)
(-0.238 -0.31 -8.81e-17)
(0.0299 -0.439 -1.72e-17)
(0.0549 -0.115 -4.58e-17)
(0.0213 -0.497 -6.49e-17)
(-0.0582 -0.121 4.51e-17)
(0.0715 -0.132 -4.81e-20)
(0.356 -0.474 -1.42e-16)
(-0.0584 -0.232 4.07e-16)
(0.0235 -0.52 -8.86e-17)
(0.214 -0.414 0)
(0.0151 -0.436 7.48e-17)
(0.248 -0.447 -5.33e-16)
(-0.252 -0.455 2.66e-16)
(0.31 -0.361 -6.69e-17)
(-0.233 -0.265 3.5e-16)
(-0.397 -0.37 0)
(0.195 -0.377 0)
(0.355 -0.438 9.35e-17)
(0.0305 -0.481 0)
(0.238 -0.331 0)
(0.175 -0.18 -4.09e-16)
(-0.00642 -0.424 0)
(-0.00985 -0.352 0)
(0.19 -0.382 2.84e-16)
(-0.0291 -0.425 -3.45e-17)
(-0.0077 -0.229 2.66e-17)
(-0.0772 -0.431 -3.42e-16)
(0.329 -0.378 2.7e-16)
(-0.0162 -0.38 -3.73e-16)
(0.021 -0.431 7.42e-17)
(0.393 -0.428 -2.33e-16)
(-0.0173 -0.463 1.31e-16)
(-0.212 -0.404 -2.64e-16)
(0.273 -0.304 -4.42e-16)
(0.207 -0.393 5.27e-16)
(0.178 -0.352 0)
(-0.312 -0.359 -2.64e-16)
(0.0863 -0.176 0)
(0.0952 -0.208 -3.61e-16)
(0.121 -0.218 4.04e-16)
(0.0999 -0.202 0)
(-0.234 -0.406 0)
(0.366 -0.336 3.34e-17)
(-0.091 -0.183 0)
(-0.099 -0.217 3.55e-16)
(0.352 -0.471 -3.32e-17)
(-0.31 -0.363 3.94e-16)
(-0.0366 -0.484 -7.51e-17)
(0.0078 -0.216 1.42e-17)
(0.0251 -0.441 -3.18e-16)
(0.292 -0.238 -1.63e-16)
(-0.0185 -0.464 0)
(0.00194 -0.425 2.73e-16)
(-0.0172 -0.518 5.82e-16)
(0.0794 -0.0581 9.39e-16)
(0.288 -0.221 -3.13e-16)
(-0.28 -0.337 -5.2e-16)
(0.156 -0.185 1.97e-16)
(-0.338 -0.374 2.72e-16)
(-0.258 -0.199 0)
(-0.413 -0.31 4.12e-17)
(0.231 -0.4 2.44e-16)
(-0.00792 -0.438 6.97e-17)
(-0.295 -0.469 1.4e-16)
(0.399 -0.456 -2.86e-17)
(0.043 -0.511 2.08e-16)
(0.392 -0.391 -1.24e-16)
(0.22 -0.464 2.91e-16)
(-0.00558 -0.381 0)
(0.00666 -0.365 -1.06e-17)
(-3.82e-05 -0.433 -7.6e-17)
(0.223 -0.469 0)
(0.00386 -0.552 1.32e-16)
(0.0712 -0.128 0)
(0.273 -0.359 1.92e-16)
(0.206 -0.275 -1.78e-16)
(0.00972 -0.44 0)
(-0.138 -0.163 -1.09e-16)
(0.156 -0.402 -2.63e-16)
(-0.0781 -0.127 -3.87e-16)
(0.0483 -0.141 -1.73e-16)
(0.079 -0.121 1.8e-16)
(-0.404 -0.475 -3.51e-17)
(-0.0708 -0.16 0)
(0.00315 -0.126 0)
(-0.0152 -0.543 -2.11e-16)
(0.141 -0.317 4.08e-20)
(-0.158 -0.354 2.81e-18)
(-0.0277 -0.457 0)
(-0.39 -0.46 6.92e-17)
(-0.146 -0.326 0)
(0.0373 -0.474 1.35e-16)
(0.335 -0.392 4.21e-16)
(0.232 -0.365 -3.86e-16)
(0.000136 -0.427 7.54e-17)
(0.0075 -0.428 -5.39e-16)
(-0.0174 -0.147 -7.5e-16)
(-0.234 -0.446 0)
(-0.283 -0.427 0)
(0.197 -0.433 -4.93e-16)
(-0.0333 -0.459 0)
(-0.237 -0.261 0)
(-0.00579 -0.425 0)
(0.23 -0.439 -4e-16)
(0.00538 -0.517 -1.38e-16)
(0.111 -0.21 0)
(-0.0397 -0.0955 0)
(0.143 -0.248 -4.21e-16)
(0.284 -0.331 -1.15e-16)
(0.213 -0.444 0)
(0.36 -0.422 2.8e-16)
(0.263 -0.391 -2.48e-16)
(0.282 -0.39 2.78e-16)
(-0.0259 -0.444 3.06e-16)
(0.0382 -0.479 1.46e-16)
(-0.213 -0.413 -2.4e-16)
(-0.132 -0.301 4.45e-17)
(-0.00758 -0.428 2.63e-16)
(0.158 -0.312 -2.83e-16)
(0.129 -0.211 7.47e-20)
(0.213 -0.428 -2.84e-16)
(0.0217 -0.412 -3.96e-17)
(0.105 -0.21 0)
(-0.19 -0.428 3.06e-16)
(0.103 -0.406 -2.79e-16)
(0.407 -0.427 -1.32e-16)
(-0.23 -0.475 1.54e-16)
(-0.189 -0.436 0)
(-0.226 -0.455 0)
(-0.199 -0.445 0)
(0.0436 -0.489 0)
(0.042 -0.0829 4.24e-16)
(-0.224 -0.469 -2.79e-16)
(-0.214 -0.324 0)
(0.187 -0.343 0)
(-0.0136 -0.435 -2.6e-16)
(0.208 -0.395 2.86e-16)
(-0.193 -0.379 0)
(-0.0941 -0.179 4.83e-16)
(-0.185 -0.428 0)
(-0.166 -0.32 0)
(0.00246 -0.372 0)
(0.0828 -0.162 0)
(-0.355 -0.407 -5.63e-22)
(-0.159 -0.327 3.55e-16)
(-0.0347 -0.356 0)
(0.225 -0.464 2.93e-16)
(-0.193 -0.431 0)
(0.294 -0.47 0)
(-0.15 -0.19 0)
(0.0701 -0.0756 0)
(0.0758 -0.149 4.88e-16)
(-0.252 -0.474 -2.69e-16)
(-0.0375 -0.439 -1.59e-16)
(-0.0844 -0.47 2.97e-16)
(0.051 -0.463 -7.1e-17)
(-0.0576 -0.0608 -1.07e-16)
(0.315 -0.478 -2.34e-16)
(0.293 -0.464 3.32e-16)
(0.281 -0.418 3.38e-16)
(-0.0505 -0.0965 -6.32e-18)
(0.25 -0.396 0)
(-0.00026 -0.118 1.34e-19)
(-0.193 -0.414 -1.03e-20)
(-0.000588 -0.214 -4.63e-16)
(-0.215 -0.403 0)
(0.0382 -0.363 -8.48e-17)
(-0.0319 -0.509 -1.17e-16)
(0.228 -0.334 0)
(0.109 -0.197 0)
(-0.121 -0.19 0)
(-0.0751 -0.148 -4.92e-16)
(-0.185 -0.346 0)
(-0.0106 -0.449 -7.07e-17)
(-0.000624 -0.455 -7.2e-17)
(-0.201 -0.401 2.81e-16)
(0.131 -0.202 5.21e-17)
(-0.00893 -0.371 1.73e-16)
(-0.109 -0.198 0)
(-0.163 -0.338 0)
(-0.128 -0.309 0)
(0.0103 -0.451 5.37e-16)
(-0.256 -0.368 2.02e-16)
(-0.0211 -0.26 -3.09e-16)
(0.104 -0.139 -1.75e-16)
(-0.237 -0.472 7.25e-17)
(-0.272 -0.48 2.81e-16)
(-0.00705 -0.218 -4.68e-16)
(0.269 -0.474 -2.81e-16)
(0.211 -0.351 0)
(0.165 -0.23 4.16e-16)
(-0.197 -0.355 0)
(-0.116 -0.216 0)
(-0.00628 -0.496 1.35e-16)
(0.0232 -0.301 7.96e-16)
(-0.0226 -0.295 -6.26e-16)
(-0.208 -0.351 0)
(0.197 -0.353 0)
(0.0242 -0.269 -2.99e-16)
(0.0235 -0.467 -6.88e-16)
(0.0706 -0.243 -2.08e-16)
(-0.0169 -0.491 0)
(-0.00275 -0.468 -2.17e-16)
(0.218 -0.404 0)
(-0.244 -0.393 0)
(-0.334 -0.355 0)
(0.283 -0.484 2.86e-16)
(-0.0908 -0.114 0)
(-0.131 -0.265 3.63e-16)
(-0.286 -0.491 -2.72e-16)
(-0.214 -0.444 -9.19e-18)
(0.00816 -0.479 6.97e-17)
(-0.184 -0.368 -1.75e-16)
(0.0204 -0.445 0)
(-0.232 -0.411 -3.21e-16)
(0.233 -0.409 3.21e-16)
(-0.264 -0.489 2.83e-16)
(-0.0671 -0.131 -5.18e-16)
(0.26 -0.483 1.44e-16)
(-0.205 -0.395 0)
(0.142 -0.284 -3.51e-16)
(0.121 -0.21 0)
(-0.116 -0.215 0)
(-0.142 -0.281 7.12e-16)
(0.0017 -0.517 -6.61e-17)
(0.0186 -0.196 2.18e-19)
(-0.0155 -0.192 1.75e-16)
(-0.00168 -0.117 3.9e-16)
(-0.0426 -0.128 -3.94e-16)
(0.0214 -0.135 -1.96e-16)
(-0.0414 -0.0827 -4.23e-16)
(0.142 -0.339 0)
(-0.146 -0.346 0)
(0.0712 -0.107 1.38e-16)
(0.0659 -0.119 0)
(-0.0668 -0.12 0)
(0.041 -0.465 1.08e-16)
(0.13 -0.265 0)
(-0.0582 -0.107 0)
(0.0587 -0.101 0)
(-0.00786 -0.509 -2.73e-16)
(-0.0986 -0.188 0)
(-0.0126 -0.168 7.08e-16)
(0.0458 -0.0951 0)
(-0.0493 -0.0932 -4.01e-16)
(-0.0224 -0.241 8.43e-16)
(-0.0608 -0.0891 0)
(-0.0226 -0.521 -6.63e-17)
(0.00598 -0.492 6.89e-17)
(-0.204 -0.447 0)
(0.0307 -0.38 0)
(0.0532 -0.122 -4.07e-18)
(0.00413 -0.111 0)
(0.18 -0.419 2.99e-16)
(-0.00214 -0.217 4.61e-16)
(-0.315 -0.483 -4.21e-16)
(0.0678 -0.11 0)
(0.0223 -0.24 4.59e-16)
(0.0674 -0.131 5.14e-16)
(-0.0626 -0.112 3.95e-16)
(0.00918 -0.167 -7.18e-16)
(0.0141 -0.274 4.51e-16)
(-0.147 -0.388 2.48e-16)
(0.173 -0.354 6.07e-16)
(0.112 -0.26 0)
(0.0319 -0.0644 -4.32e-16)
(-0.00454 -0.121 -3.97e-16)
(0.0191 -0.064 0)
(-0.0193 -0.0642 0)
(-0.206 -0.444 -2.86e-16)
(0.142 -0.309 0)
(-0.000202 -0.527 -1.96e-16)
(0.0202 -0.481 -1.45e-16)
(-0.0104 -0.535 -3.88e-16)
(-0.0257 -0.498 1.52e-16)
(-0.0318 -0.0643 0)
(-0.12 -0.208 0)
(-0.0144 -0.539 -3.32e-16)
(0.115 -0.214 0)
(-0.0179 -0.53 5.88e-16)
(0.00707 -0.535 0)
(0.0156 -0.507 -6.67e-17)
(-0.0101 -0.543 1.3e-16)
(-0.0837 -0.162 -4.7e-16)
(0.037 -0.071 -8.51e-16)
(-0.037 -0.071 4.3e-16)
(-0.00298 -0.0969 0)
(-0.00409 -0.216 -4.25e-16)
(0.175 -0.399 0)
(-0.215 -0.456 9.12e-18)
(-0.0286 -0.519 1.17e-16)
(-0.0665 -0.107 0)
(0.00493 -0.125 0)
(0.0126 -0.245 5.29e-17)
(0.062 -0.112 -3.96e-16)
(0.184 -0.428 -6.56e-16)
(0.0037 -0.229 1.02e-16)
(0.00462 -0.242 -4.01e-16)
(-0.0184 -0.522 3.4e-16)
(-0.179 -0.406 0)
(0.0022 -0.14 3.68e-16)
(0.00133 -0.114 0)
(0.008 -0.154 0)
(-0.00276 -0.148 6.93e-16)
(0.189 -0.424 2.94e-16)
(-0.00657 -0.434 -7.29e-16)
(-0.00411 -0.555 -2.53e-16)
(-0.0037 -0.548 0)
(0.158 -0.327 1.77e-16)
(0.000406 -0.563 1.87e-16)
(-0.000425 -0.565 -3.95e-16)
(-0.143 -0.31 0)
(-0.00981 -0.555 2.59e-16)
(0.0152 -0.534 2.74e-16)
(-0.204 -0.428 0)
(-0.0534 -0.122 0)
(-0.113 -0.26 0)
(-0.0134 -0.542 -3.25e-16)
(-0.172 -0.348 -3.5e-16)
(0.00469 -0.544 5.2e-16)
(-0.0194 -0.521 6.68e-17)
(-0.00648 -0.536 -2.1e-16)
(-0.0161 -0.477 2.8e-16)
(0.00987 -0.546 -1.22e-16)
(-0.296 -0.473 2.56e-16)
(-0.174 -0.332 0)
(0.249 -0.47 0)
(0.00756 -0.554 4.82e-16)
(-0.0238 -0.459 7.25e-17)
(-0.322 -0.458 -1.01e-16)
(0.000641 -0.559 1.29e-16)
(0.0144 -0.535 -2.71e-16)
(-0.155 -0.305 5.22e-16)
(-0.0076 -0.558 1.3e-16)
(0.0291 -0.512 -1.2e-16)
(0.0164 -0.528 -2.77e-16)
(0.00221 -0.44 0)
(-0.026 -0.501 0)
(0.0182 -0.525 -1.36e-16)
(0.0125 -0.517 2.01e-16)
(-0.00103 -0.566 1.86e-16)
(-0.000761 -0.384 2.95e-16)
(-0.00451 -0.565 1.88e-16)
(0.224 -0.334 -8.78e-17)
(0.111 -0.418 1.65e-16)
(-0.0326 -0.0787 -4.29e-16)
(0.0315 -0.0743 1.1e-16)
(-0.0346 -0.0841 4.19e-16)
(0.0349 -0.0836 0)
(0.0378 -0.0755 4.29e-16)
(-0.0396 -0.0775 2.14e-16)
(-0.00145 -0.538 -1.33e-16)
(0.048 -0.0988 0)
(-0.0499 -0.105 0)
(-0.00296 -0.567 -1.88e-16)
(-0.0707 -0.127 -3.71e-16)
(0.107 -0.164 0)
(-0.106 -0.165 0)
(-0.00515 -0.558 -2.07e-16)
(-0.0837 -0.0726 0)
(-0.00102 -0.569 6.43e-17)
(0.0332 -0.082 4.79e-16)
(-0.00248 -0.569 -6.54e-17)
(0.00191 -0.491 -2.85e-16)
(-0.00534 -0.565 6.75e-17)
(0.167 -0.418 3.03e-16)
(0.0337 -0.498 1.18e-16)
(-0.271 -0.223 0)
(0.189 -0.418 0)
(-0.236 -0.153 -4.03e-17)
(-0.363 -0.343 2.7e-16)
(0.125 -0.442 -1.45e-16)
(-0.408 -0.451 -1.4e-16)
(0.23 -0.144 3.03e-16)
(-0.0268 -0.475 -7.2e-17)
(-0.0667 -0.16 -5.15e-16)
(0.0663 -0.153 3.73e-16)
(-0.119 -0.3 -3.6e-16)
(-0.00176 -0.424 -2.78e-16)
(0.0641 -0.159 -2.59e-16)
(-0.0665 -0.161 0)
(0.0143 -0.537 -3.23e-16)
(0.00461 -0.552 1.92e-16)
(-0.0052 -0.521 4.13e-16)
(-0.0163 -0.137 -4.76e-16)
(-0.113 -0.218 4.27e-16)
(-0.143 -0.248 0)
(0.0615 -0.152 -3.21e-16)
(0.00557 -0.425 1.38e-16)
(0.0631 -0.433 0)
(0.0381 -0.474 2.93e-16)
(0.189 -0.408 -1.42e-16)
(-0.408 -0.412 2.3e-16)
(0.0467 -0.317 1.67e-16)
(0.418 -0.303 2.53e-18)
(0.0101 -0.525 3.78e-16)
(0.0216 -0.391 3.42e-16)
(-0.00724 -0.196 4.92e-16)
(-0.412 -0.441 -4.57e-16)
(0.0064 -0.205 -4.52e-16)
(-0.0314 -0.227 2.26e-16)
(-0.0464 -0.431 2.19e-16)
(-0.0202 -0.431 0)
(-0.0339 -0.464 0)
(0.38 -0.354 0)
(-0.0992 -0.376 5.23e-16)
(0.0339 -0.517 -3.39e-16)
(0.0907 -0.469 -2.86e-16)
(-0.0333 -0.418 -6.07e-16)
(-0.158 -0.428 7.84e-17)
(-0.00884 -0.506 -2.32e-20)
(-0.153 -0.358 -6.95e-16)
(-0.141 -0.413 -7.71e-17)
(0.0585 -0.494 6.8e-17)
(0.168 -0.365 -3.51e-16)
(-0.175 -0.375 -1.69e-16)
(0.229 -0.471 0)
(-0.0411 -0.505 7.03e-17)
(-0.206 -0.447 3.91e-17)
(-0.0011 -0.109 -9.22e-20)
(0.235 -0.475 0)
(-0.226 -0.445 4.37e-16)
(-0.195 -0.429 0)
(0.184 -0.417 -1.55e-16)
(0.0686 -0.158 5.75e-16)
(-0.026 -0.483 -3.41e-16)
(0.037 -0.0927 -3.89e-16)
(0.193 -0.435 0)
(-0.348 -0.433 0)
(0.00253 -0.561 -1.29e-16)
(0.342 -0.351 -7.03e-17)
(0.0164 -0.427 0)
(-0.0373 -0.0888 -2.05e-16)
(0.211 -0.452 -1.45e-16)
(0.156 -0.348 0)
(-0.12 -0.459 -2.9e-16)
(0.123 -0.302 0)
(-0.0623 -0.481 2.92e-16)
(-0.106 -0.455 -2.34e-16)
(0.0288 -0.509 0)
(0.0491 -0.484 1.52e-16)
(0.0138 -0.456 0)
(-0.351 -0.473 0)
(-0.0184 -0.545 2.82e-16)
(0.00436 -0.379 -2.7e-16)
(-0.266 -0.331 -3.11e-16)
(-0.22 -0.292 4.47e-16)
(0.00315 -0.116 0)
(-0.235 -0.473 7.46e-17)
(-0.0181 -0.428 0)
(-0.216 -0.435 -4.91e-20)
(0.015 -0.425 1.36e-16)
(-0.249 -0.488 -2.69e-16)
(-0.0163 -0.4 0)
(-0.0299 -0.367 -5.75e-18)
(0.156 -0.369 1.58e-16)
(-0.00375 -0.554 4.1e-16)
(-0.251 -0.399 0)
(0.0808 -0.362 3.53e-16)
(-0.101 -0.11 2.44e-16)
(-0.0609 -0.505 -1.08e-16)
(0.0682 -0.17 -2.84e-16)
(-0.00705 -0.561 6.74e-17)
(0.274 -0.384 -6.22e-20)
(-0.0737 -0.178 0)
(0.1 -0.104 -2.43e-16)
(-0.0481 -0.506 1.45e-16)
(0.201 -0.425 -4.46e-16)
(0.0127 -0.502 -3.23e-16)
(-0.0117 -0.133 0)
(-0.0472 -0.0572 0)
(-0.0484 -0.454 1.64e-16)
(0.00424 -0.532 -2.8e-16)
(0.21 -0.424 1.38e-16)
(0.196 -0.436 3.11e-16)
(0.0398 -0.0438 2.16e-16)
(0.158 -0.193 8.76e-17)
(0.222 -0.254 1.48e-16)
(-0.00845 -0.509 0)
(0.0123 -0.553 1.32e-16)
(-0.348 -0.403 -2.23e-16)
(0.00571 -0.549 -6.89e-16)
(-0.0457 -0.481 1.25e-16)
(0.146 -0.347 1.8e-16)
(0.00722 -0.508 2.37e-16)
(-0.00101 -0.253 0)
(-0.0321 -0.444 0)
(-0.349 -0.481 -1.35e-16)
(0.00179 -0.255 -1.63e-16)
(-0.368 -0.439 3.19e-17)
(0.201 -0.437 1.78e-17)
(0.0598 -0.489 3.75e-17)
(-0.0419 -0.497 -1.44e-16)
(-0.0658 -0.163 4.97e-16)
(-0.0182 -0.437 1.6e-16)
(-0.211 -0.456 1.54e-16)
(-0.0178 -0.436 1.35e-16)
(0.0172 -0.438 0)
(0.23 -0.462 -1.53e-16)
(-0.0235 -0.529 -2.84e-16)
(0.123 -0.291 0)
(0.0248 -0.52 4.15e-16)
(-0.311 -0.393 9.05e-17)
(-0.0589 -0.492 0)
(-0.131 -0.3 1.97e-16)
(0.0429 -0.497 0)
(-0.132 -0.304 3.63e-16)
(-0.0633 -0.476 0)
(0.017 -0.451 2.85e-16)
(0.171 -0.354 0)
(0.0165 -0.391 -3.59e-16)
(-0.146 -0.331 -2.04e-16)
(-0.167 -0.371 -4.26e-17)
(-0.000212 -0.238 -4.09e-16)
(0.219 -0.444 1.55e-16)
(0.144 -0.322 0)
(0.00388 -0.409 0)
(0.0638 -0.473 2.99e-16)
(-0.00361 -0.533 -2.07e-16)
(0.13 -0.311 -2.98e-16)
(-0.00267 -0.557 6.76e-17)
(0.119 -0.278 0)
(0.181 -0.399 1.77e-16)
(0.0205 -0.498 -4.08e-16)
(0.00602 -0.427 2.19e-16)
(0.0383 -0.436 -1.74e-16)
(0.348 -0.433 6.9e-17)
(-0.0219 -0.416 1.77e-16)
(0.219 -0.299 0)
(0.246 -0.48 0)
(-0.0211 -0.253 -3.85e-16)
(0.0133 -0.511 0)
(0.094 -0.462 3.44e-16)
(-0.113 -0.155 -2.47e-16)
(0.00355 -0.347 0)
(-0.156 -0.351 -2.3e-16)
(-0.219 -0.253 -2.31e-17)
(-0.0399 -0.407 3.71e-16)
(0.0423 -0.412 3.69e-19)
(0.0617 -0.473 -1.95e-17)
(0.115 -0.162 0)
(0.14 -0.321 2.07e-16)
(0.0547 -0.417 0)
(-0.0161 -0.513 -1.5e-16)
(-0.00324 -0.418 0)
(-0.221 -0.361 0)
(0.396 -0.444 -6.97e-17)
(0.145 -0.335 1.9e-16)
(0.322 -0.345 2.05e-17)
(-0.234 -0.461 -8.9e-17)
(0.184 -0.412 -1.51e-16)
(-0.34 -0.443 6.98e-17)
(0.209 -0.363 -9.23e-17)
(-0.0251 -0.54 -7.05e-17)
(0.325 -0.46 -1.8e-16)
(0.00238 -0.554 8.1e-17)
(0.018 -0.507 8.12e-17)
(-0.0495 -0.495 4.45e-17)
(-0.0491 -0.486 0)
(-0.212 -0.302 0)
(0.119 -0.275 -4.62e-16)
(-0.073 -0.478 0)
(0.0717 -0.476 -1.66e-16)
(0.0013 -0.478 0)
(0.03 -0.439 1.62e-16)
(-0.0418 -0.514 1.06e-16)
(-0.0653 -0.468 -1.78e-16)
(0.0621 -0.464 -1.75e-16)
(-0.199 -0.434 1.61e-16)
(-0.252 -0.36 0)
(0.284 -0.304 -1.32e-16)
(-0.0464 -0.49 -3.47e-16)
(-0.314 -0.39 8.06e-17)
(-0.00161 -0.486 0)
(-0.325 -0.386 1.77e-16)
(-0.263 -0.301 0)
)
;

boundaryField
{
    front
    {
        type            empty;
    }
    back
    {
        type            empty;
    }
    bottom
    {
        type            zeroGradient;
    }
    left
    {
        type            noSlip;
    }
    top
    {
        type            uniformFixedValue;
        uniformValue    
        {
            type            table;
            format          csv;
            file            "inlet_v.csv";
            nHeaderLine     1;
            refColumn       0;
            componentColumns List<label> 3(1 2 3);
            separator       ",";
            mergeSeparators 0;
        }
        value           uniform (0 -0.424 0);
    }
    right
    {
        type            noSlip;
    }
    inner_arc
    {
        type            noSlip;
    }
}


// ************************************************************************* //
