/*--------------------------------*- C++ -*----------------------------------*\
  =========                 |
  \\      /  F ield         | OpenFOAM: The Open Source CFD Toolbox
   \\    /   O peration     | Website:  https://openfoam.org
    \\  /    A nd           | Version:  9
     \\/     M anipulation  |
\*---------------------------------------------------------------------------*/
FoamFile
{
    format      ascii;
    class       volVectorField;
    location    "0.16";
    object      U;
}
// * * * * * * * * * * * * * * * * * * * * * * * * * * * * * * * * * * * * * //

dimensions      [0 1 -1 0 0 0 0];

internalField   nonuniform List<vector> 
578
(
(-0.204 -0.275 0)
(-0.121 -0.502 1.94e-16)
(-0.312 -0.421 -7.63e-17)
(0.0392 -0.596 -1.44e-17)
(0.0771 -0.158 -4.12e-17)
(0.0296 -0.664 -5.49e-17)
(-0.081 -0.165 4.04e-17)
(0.096 -0.176 -4.98e-20)
(0.469 -0.628 -1.21e-16)
(-0.081 -0.329 3.57e-16)
(0.0317 -0.684 -7.44e-17)
(0.286 -0.544 0)
(0.0162 -0.577 6.4e-17)
(0.347 -0.606 -4.4e-16)
(-0.352 -0.617 2.2e-16)
(0.398 -0.485 -5.65e-17)
(-0.296 -0.35 3.12e-16)
(-0.509 -0.495 0)
(0.261 -0.496 0)
(0.457 -0.573 7.85e-17)
(0.0398 -0.649 0)
(0.312 -0.448 0)
(0.224 -0.237 -3.63e-16)
(-0.00957 -0.579 0)
(-0.0142 -0.491 0)
(0.255 -0.508 2.41e-16)
(-0.0385 -0.58 -2.89e-17)
(-0.0134 -0.331 2.36e-17)
(-0.103 -0.587 -2.86e-16)
(0.424 -0.505 2.27e-16)
(-0.0247 -0.529 -3.19e-16)
(0.0295 -0.589 6.24e-17)
(0.502 -0.571 -1.94e-16)
(-0.0243 -0.63 1.09e-16)
(-0.298 -0.552 -2.19e-16)
(0.351 -0.404 -3.79e-16)
(0.292 -0.538 4.36e-16)
(0.238 -0.467 0)
(-0.403 -0.479 -2.22e-16)
(0.119 -0.233 0)
(0.135 -0.284 -3.21e-16)
(0.161 -0.287 3.58e-16)
(0.133 -0.268 0)
(-0.329 -0.557 0)
(0.495 -0.462 2.74e-17)
(-0.126 -0.241 0)
(-0.139 -0.294 3.15e-16)
(0.476 -0.64 -2.75e-17)
(-0.4 -0.487 3.32e-16)
(-0.0458 -0.65 -6.33e-17)
(0.0123 -0.306 1.26e-17)
(0.0259 -0.58 -2.73e-16)
(0.381 -0.322 -1.42e-16)
(-0.0261 -0.629 0)
(0.00207 -0.566 2.36e-16)
(-0.0229 -0.688 4.9e-16)
(0.104 -0.0732 9.13e-16)
(0.399 -0.308 -2.66e-16)
(-0.356 -0.446 -4.49e-16)
(0.199 -0.245 1.75e-16)
(-0.429 -0.495 2.31e-16)
(-0.34 -0.269 0)
(-0.553 -0.423 3.49e-17)
(0.326 -0.549 2e-16)
(-0.00858 -0.58 5.93e-17)
(-0.406 -0.637 1.15e-16)
(0.514 -0.607 -2.38e-17)
(0.0571 -0.673 1.74e-16)
(0.499 -0.521 -1.05e-16)
(0.3 -0.621 2.44e-16)
(-0.00932 -0.527 0)
(0.00942 -0.507 -8.96e-18)
(-2.48e-05 -0.574 -6.47e-17)
(0.307 -0.629 0)
(0.00519 -0.722 1.12e-16)
(0.105 -0.185 0)
(0.351 -0.465 1.66e-16)
(0.264 -0.356 -1.57e-16)
(0.0104 -0.582 0)
(-0.174 -0.214 -9.81e-17)
(0.205 -0.547 -2.21e-16)
(-0.106 -0.178 -3.47e-16)
(0.0675 -0.203 -1.53e-16)
(0.106 -0.168 1.62e-16)
(-0.522 -0.631 -2.96e-17)
(-0.0916 -0.201 0)
(0.00455 -0.18 0)
(-0.0199 -0.709 -1.8e-16)
(0.195 -0.428 5.78e-20)
(-0.212 -0.471 2.44e-18)
(-0.0376 -0.622 0)
(-0.522 -0.623 5.7e-17)
(-0.202 -0.44 0)
(0.0405 -0.619 1.16e-16)
(0.428 -0.526 3.58e-16)
(0.303 -0.5 -3.29e-16)
(0.000246 -0.568 6.42e-17)
(0.00821 -0.57 -4.59e-16)
(-0.0241 -0.212 -6.64e-16)
(-0.326 -0.602 0)
(-0.39 -0.584 0)
(0.269 -0.58 -4.17e-16)
(-0.0355 -0.601 0)
(-0.305 -0.346 0)
(-0.00617 -0.566 0)
(0.321 -0.592 -3.31e-16)
(0.00687 -0.687 -1.16e-16)
(0.16 -0.293 0)
(-0.051 -0.121 0)
(0.206 -0.352 -3.61e-16)
(0.364 -0.435 -9.82e-17)
(0.289 -0.593 0)
(0.461 -0.556 2.35e-16)
(0.336 -0.522 -2.12e-16)
(0.363 -0.525 2.39e-16)
(-0.027 -0.584 2.62e-16)
(0.0478 -0.642 1.22e-16)
(-0.275 -0.551 -2.04e-16)
(-0.177 -0.401 3.83e-17)
(-0.0083 -0.569 2.23e-16)
(0.212 -0.416 -2.41e-16)
(0.173 -0.293 1.29e-19)
(0.287 -0.566 -2.4e-16)
(0.0305 -0.567 -3.32e-17)
(0.139 -0.293 0)
(-0.259 -0.571 2.58e-16)
(0.138 -0.553 -2.32e-16)
(0.523 -0.574 -1.1e-16)
(-0.316 -0.637 1.29e-16)
(-0.261 -0.581 0)
(-0.306 -0.604 0)
(-0.272 -0.594 0)
(0.0496 -0.641 0)
(0.0563 -0.111 3.93e-16)
(-0.304 -0.625 -2.36e-16)
(-0.276 -0.415 0)
(0.246 -0.447 0)
(-0.0147 -0.576 -2.21e-16)
(0.266 -0.526 2.44e-16)
(-0.258 -0.499 0)
(-0.124 -0.236 4.4e-16)
(-0.254 -0.57 0)
(-0.221 -0.423 0)
(0.00472 -0.516 0)
(0.11 -0.216 0)
(-0.456 -0.542 -1.57e-21)
(-0.216 -0.438 3.06e-16)
(-0.0423 -0.498 0)
(0.307 -0.619 2.45e-16)
(-0.266 -0.578 0)
(0.391 -0.616 0)
(-0.219 -0.275 0)
(0.0891 -0.101 0)
(0.101 -0.199 4.47e-16)
(-0.338 -0.624 -2.26e-16)
(-0.0475 -0.596 -1.34e-16)
(-0.111 -0.626 2.5e-16)
(0.06 -0.621 -6.05e-17)
(-0.0716 -0.0788 -1.01e-16)
(0.42 -0.632 -1.98e-16)
(0.406 -0.631 2.75e-16)
(0.389 -0.575 2.78e-16)
(-0.0667 -0.127 -5.83e-18)
(0.325 -0.51 0)
(7.88e-05 -0.17 2.06e-19)
(-0.264 -0.556 -1.79e-20)
(-0.000152 -0.305 -4.08e-16)
(-0.285 -0.523 0)
(0.0461 -0.507 -7.23e-17)
(-0.0378 -0.662 -9.89e-17)
(0.293 -0.429 0)
(0.144 -0.257 0)
(-0.154 -0.239 0)
(-0.0999 -0.197 -4.52e-16)
(-0.244 -0.451 0)
(-0.0115 -0.592 -6e-17)
(-0.000817 -0.599 -6.14e-17)
(-0.254 -0.528 2.42e-16)
(0.166 -0.256 4.76e-17)
(-0.0121 -0.515 1.46e-16)
(-0.144 -0.259 0)
(-0.219 -0.465 0)
(-0.173 -0.406 0)
(0.0108 -0.593 4.57e-16)
(-0.331 -0.475 1.75e-16)
(-0.0245 -0.362 -2.7e-16)
(0.138 -0.189 -1.57e-16)
(-0.325 -0.632 6.15e-17)
(-0.364 -0.63 2.36e-16)
(-0.0102 -0.309 -4.13e-16)
(0.361 -0.623 -2.37e-16)
(0.275 -0.451 0)
(0.218 -0.311 3.67e-16)
(-0.258 -0.459 0)
(-0.158 -0.302 0)
(-0.00696 -0.642 1.15e-16)
(0.0307 -0.43 6.86e-16)
(-0.0302 -0.421 -5.37e-16)
(-0.271 -0.45 0)
(0.258 -0.456 0)
(0.0281 -0.372 -2.6e-16)
(0.025 -0.61 -5.91e-16)
(0.099 -0.345 -1.8e-16)
(-0.0188 -0.637 0)
(-0.00308 -0.612 -1.84e-16)
(0.289 -0.525 0)
(-0.319 -0.507 0)
(-0.465 -0.496 0)
(0.381 -0.64 2.4e-16)
(-0.119 -0.154 0)
(-0.178 -0.357 3.13e-16)
(-0.386 -0.649 -2.28e-16)
(-0.289 -0.592 -7.72e-18)
(0.00854 -0.625 5.95e-17)
(-0.247 -0.488 -1.5e-16)
(0.0289 -0.608 0)
(-0.305 -0.531 -2.77e-16)
(0.307 -0.529 2.78e-16)
(-0.357 -0.647 2.38e-16)
(-0.0902 -0.174 -4.8e-16)
(0.352 -0.639 1.21e-16)
(-0.272 -0.517 0)
(0.193 -0.382 -3.02e-16)
(0.156 -0.268 0)
(-0.151 -0.278 0)
(-0.191 -0.376 6.13e-16)
(0.00197 -0.666 -5.65e-17)
(0.024 -0.284 2.67e-19)
(-0.02 -0.278 1.54e-16)
(-0.00211 -0.168 3.51e-16)
(-0.0579 -0.183 -3.54e-16)
(0.0293 -0.195 -1.75e-16)
(-0.0551 -0.11 -3.92e-16)
(0.193 -0.444 0)
(-0.198 -0.453 0)
(0.0884 -0.134 1.27e-16)
(0.0849 -0.153 0)
(-0.0867 -0.154 0)
(0.0443 -0.609 9.19e-17)
(0.179 -0.359 0)
(-0.0768 -0.14 0)
(0.077 -0.132 0)
(-0.009 -0.656 -2.33e-16)
(-0.13 -0.246 0)
(-0.0173 -0.246 6.24e-16)
(0.0614 -0.128 0)
(-0.0656 -0.124 -3.7e-16)
(-0.0332 -0.342 7.37e-16)
(-0.0761 -0.11 0)
(-0.0294 -0.685 -5.6e-17)
(0.00637 -0.638 5.89e-17)
(-0.277 -0.598 0)
(0.0432 -0.526 0)
(0.074 -0.164 -3.77e-18)
(0.00558 -0.16 0)
(0.246 -0.558 2.52e-16)
(-0.00264 -0.307 4.07e-16)
(-0.419 -0.637 -3.51e-16)
(0.0863 -0.139 0)
(0.0322 -0.341 4.02e-16)
(0.091 -0.175 4.75e-16)
(-0.0821 -0.146 3.64e-16)
(0.0131 -0.245 -6.31e-16)
(0.0205 -0.393 3.88e-16)
(-0.196 -0.531 2.08e-16)
(0.234 -0.473 5.17e-16)
(0.159 -0.356 0)
(0.0436 -0.0867 -4.04e-16)
(-0.00601 -0.173 -3.57e-16)
(0.0279 -0.0889 0)
(-0.0281 -0.0889 0)
(-0.281 -0.594 -2.4e-16)
(0.197 -0.418 0)
(-0.000184 -0.677 -1.68e-16)
(0.0218 -0.625 -1.24e-16)
(-0.0127 -0.689 -3.31e-16)
(-0.0339 -0.663 1.28e-16)
(-0.0433 -0.0861 0)
(-0.156 -0.266 0)
(-0.0187 -0.703 -2.81e-16)
(0.15 -0.275 0)
(-0.0219 -0.687 5.01e-16)
(0.00884 -0.689 0)
(0.0175 -0.656 -5.69e-17)
(-0.0126 -0.7 1.11e-16)
(-0.111 -0.215 -4.29e-16)
(0.0499 -0.0953 -7.96e-16)
(-0.0495 -0.0946 4.02e-16)
(-0.00425 -0.141 0)
(-0.00739 -0.307 -3.67e-16)
(0.245 -0.54 0)
(-0.292 -0.61 7.67e-18)
(-0.0346 -0.677 9.89e-17)
(-0.0849 -0.134 0)
(0.00829 -0.184 0)
(0.0191 -0.353 4.56e-17)
(0.081 -0.145 -3.65e-16)
(0.255 -0.57 -5.41e-16)
(0.00662 -0.326 8.89e-17)
(0.0077 -0.346 -3.51e-16)
(-0.0244 -0.69 2.86e-16)
(-0.25 -0.548 0)
(0.00382 -0.203 3.25e-16)
(0.00281 -0.166 0)
(0.012 -0.227 0)
(-0.00413 -0.214 6.13e-16)
(0.261 -0.57 2.46e-16)
(-0.00871 -0.595 -6.11e-16)
(-0.00493 -0.713 -2.16e-16)
(-0.00438 -0.704 0)
(0.215 -0.44 1.52e-16)
(0.00104 -0.725 1.59e-16)
(-0.000142 -0.725 -3.36e-16)
(-0.197 -0.417 0)
(-0.0125 -0.718 2.2e-16)
(0.0187 -0.693 2.33e-16)
(-0.277 -0.573 0)
(-0.074 -0.164 0)
(-0.159 -0.355 0)
(-0.0174 -0.709 -2.76e-16)
(-0.232 -0.464 -3.01e-16)
(0.00604 -0.699 4.43e-16)
(-0.023 -0.675 5.68e-17)
(-0.00918 -0.707 -1.77e-16)
(-0.0173 -0.621 2.39e-16)
(0.0128 -0.706 -1.04e-16)
(-0.392 -0.62 2.14e-16)
(-0.23 -0.436 0)
(0.336 -0.62 0)
(0.00985 -0.716 4.1e-16)
(-0.0253 -0.601 6.19e-17)
(-0.421 -0.6 -8.47e-17)
(0.0012 -0.718 1.1e-16)
(0.0187 -0.701 -2.3e-16)
(-0.207 -0.406 4.49e-16)
(-0.00986 -0.724 1.11e-16)
(0.034 -0.665 -1.02e-16)
(0.0213 -0.692 -2.35e-16)
(0.00345 -0.602 0)
(-0.0339 -0.665 0)
(0.022 -0.681 -1.16e-16)
(0.0142 -0.668 1.71e-16)
(-0.000899 -0.729 1.59e-16)
(-0.000451 -0.531 2.47e-16)
(-0.00555 -0.728 1.6e-16)
(0.296 -0.458 -7.45e-17)
(0.142 -0.546 1.43e-16)
(-0.0402 -0.0987 -4.03e-16)
(0.0395 -0.0927 1.04e-16)
(-0.0438 -0.107 3.92e-16)
(0.0445 -0.107 0)
(0.0513 -0.0978 4.01e-16)
(-0.0536 -0.0998 1.99e-16)
(-0.00131 -0.71 -1.13e-16)
(0.0701 -0.139 0)
(-0.0717 -0.147 0)
(-0.00356 -0.731 -1.6e-16)
(-0.104 -0.182 -3.28e-16)
(0.157 -0.24 0)
(-0.156 -0.241 0)
(-0.00621 -0.716 -1.77e-16)
(-0.112 -0.0946 0)
(-0.000976 -0.731 5.49e-17)
(0.0412 -0.103 4.5e-16)
(-0.00292 -0.731 -5.57e-17)
(0.0028 -0.63 -2.45e-16)
(-0.00661 -0.725 5.79e-17)
(0.217 -0.558 2.58e-16)
(0.0388 -0.649 1e-16)
(-0.379 -0.312 0)
(0.259 -0.562 0)
(-0.316 -0.206 -3.54e-17)
(-0.493 -0.471 2.22e-16)
(0.161 -0.584 -1.23e-16)
(-0.521 -0.6 -1.19e-16)
(0.308 -0.196 2.66e-16)
(-0.0292 -0.619 -6.15e-17)
(-0.0864 -0.206 -4.76e-16)
(0.086 -0.197 3.46e-16)
(-0.151 -0.391 -3.17e-16)
(-0.00189 -0.566 -2.4e-16)
(0.0843 -0.206 -2.39e-16)
(-0.087 -0.209 0)
(0.019 -0.691 -2.75e-16)
(0.00627 -0.711 1.64e-16)
(-0.00614 -0.669 3.56e-16)
(-0.0238 -0.182 -4.34e-16)
(-0.161 -0.303 3.71e-16)
(-0.206 -0.35 0)
(0.0782 -0.195 -2.99e-16)
(0.00612 -0.566 1.2e-16)
(0.0806 -0.56 0)
(0.049 -0.612 2.53e-16)
(0.26 -0.55 -1.2e-16)
(-0.521 -0.548 1.91e-16)
(0.0583 -0.411 1.47e-16)
(0.555 -0.413 2.12e-18)
(0.0147 -0.696 3.21e-16)
(0.0275 -0.505 3e-16)
(-0.00973 -0.279 4.37e-16)
(-0.531 -0.591 -3.8e-16)
(0.00807 -0.292 -4.04e-16)
(-0.0404 -0.296 2.07e-16)
(-0.0627 -0.587 1.81e-16)
(-0.0207 -0.57 0)
(-0.0427 -0.597 0)
(0.484 -0.475 0)
(-0.125 -0.487 4.62e-16)
(0.0446 -0.673 -2.88e-16)
(0.118 -0.618 -2.43e-16)
(-0.0419 -0.538 -5.27e-16)
(-0.207 -0.575 6.69e-17)
(-0.0113 -0.675 -4.37e-20)
(-0.207 -0.473 -6.02e-16)
(-0.18 -0.539 -6.66e-17)
(0.0757 -0.642 5.78e-17)
(0.234 -0.494 -2.98e-16)
(-0.243 -0.508 -1.42e-16)
(0.315 -0.63 0)
(-0.049 -0.663 6.01e-17)
(-0.283 -0.601 3.29e-17)
(-0.00228 -0.158 -1.46e-19)
(0.318 -0.631 0)
(-0.314 -0.604 3.7e-16)
(-0.266 -0.575 0)
(0.25 -0.556 -1.31e-16)
(0.0887 -0.199 5.2e-16)
(-0.0346 -0.649 -2.89e-16)
(0.0473 -0.117 -3.63e-16)
(0.264 -0.581 0)
(-0.448 -0.568 0)
(0.00342 -0.727 -1.1e-16)
(0.475 -0.491 -5.72e-17)
(0.0164 -0.566 0)
(-0.0463 -0.112 -1.91e-16)
(0.288 -0.605 -1.21e-16)
(0.215 -0.468 0)
(-0.155 -0.609 -2.45e-16)
(0.166 -0.395 0)
(-0.079 -0.622 2.5e-16)
(-0.135 -0.594 -2.02e-16)
(0.0358 -0.67 0)
(0.0584 -0.646 1.29e-16)
(0.0206 -0.623 0)
(-0.459 -0.625 0)
(-0.0235 -0.702 2.42e-16)
(0.00835 -0.526 -2.29e-16)
(-0.341 -0.432 -2.69e-16)
(-0.282 -0.376 3.88e-16)
(0.0032 -0.17 0)
(-0.319 -0.629 6.23e-17)
(-0.0183 -0.568 0)
(-0.302 -0.591 -9.01e-20)
(0.015 -0.566 1.18e-16)
(-0.337 -0.645 -2.26e-16)
(-0.0239 -0.555 0)
(-0.0421 -0.51 -4.9e-18)
(0.199 -0.483 1.37e-16)
(-0.0051 -0.723 3.46e-16)
(-0.323 -0.537 0)
(0.111 -0.503 3e-16)
(-0.127 -0.139 2.29e-16)
(-0.0791 -0.663 -9.17e-17)
(0.088 -0.218 -2.62e-16)
(-0.00894 -0.725 5.74e-17)
(0.353 -0.497 -7.11e-20)
(-0.0956 -0.229 0)
(0.125 -0.132 -2.24e-16)
(-0.0616 -0.656 1.25e-16)
(0.275 -0.57 -3.73e-16)
(0.0179 -0.671 -2.73e-16)
(-0.0176 -0.198 0)
(-0.0574 -0.0688 0)
(-0.0583 -0.613 1.41e-16)
(0.00613 -0.703 -2.35e-16)
(0.296 -0.578 1.14e-16)
(0.267 -0.583 2.62e-16)
(0.0486 -0.0517 2.06e-16)
(0.228 -0.28 7.67e-17)
(0.285 -0.332 1.29e-16)
(-0.0121 -0.681 0)
(0.0162 -0.717 1.12e-16)
(-0.445 -0.54 -1.89e-16)
(0.00827 -0.714 -5.92e-16)
(-0.0548 -0.643 1.05e-16)
(0.197 -0.457 1.56e-16)
(0.0102 -0.68 2.01e-16)
(0.000594 -0.347 0)
(-0.0335 -0.584 0)
(-0.471 -0.651 -1.12e-16)
(0.000616 -0.351 -1.46e-16)
(-0.474 -0.58 2.67e-17)
(0.276 -0.586 1.49e-17)
(0.0682 -0.645 3.19e-17)
(-0.0481 -0.649 -1.22e-16)
(-0.0839 -0.21 4.59e-16)
(-0.0262 -0.598 1.33e-16)
(-0.288 -0.611 1.31e-16)
(-0.0207 -0.586 1.18e-16)
(0.02 -0.588 0)
(0.32 -0.621 -1.28e-16)
(-0.0298 -0.68 -2.44e-16)
(0.164 -0.383 0)
(0.031 -0.682 3.51e-16)
(-0.397 -0.527 7.72e-17)
(-0.0682 -0.649 0)
(-0.177 -0.403 1.69e-16)
(0.0501 -0.652 0)
(-0.176 -0.401 3.14e-16)
(-0.0723 -0.629 0)
(0.0244 -0.614 2.37e-16)
(0.227 -0.487 0)
(0.0244 -0.544 -3.06e-16)
(-0.203 -0.446 -1.76e-16)
(-0.229 -0.499 -3.57e-17)
(-0.000987 -0.341 -3.54e-16)
(0.305 -0.599 1.29e-16)
(0.203 -0.437 0)
(0.00565 -0.562 0)
(0.0726 -0.625 2.55e-16)
(-0.00497 -0.705 -1.75e-16)
(0.164 -0.408 -2.64e-16)
(-0.00324 -0.723 5.75e-17)
(0.158 -0.368 0)
(0.247 -0.535 1.5e-16)
(0.0271 -0.663 -3.46e-16)
(0.00936 -0.587 1.84e-16)
(0.0487 -0.593 -1.49e-16)
(0.47 -0.594 5.68e-17)
(-0.0292 -0.571 1.49e-16)
(0.31 -0.427 0)
(0.334 -0.635 0)
(-0.0299 -0.366 -3.3e-16)
(0.0188 -0.681 0)
(0.124 -0.618 2.89e-16)
(-0.142 -0.195 -2.28e-16)
(0.00374 -0.484 0)
(-0.212 -0.471 -1.97e-16)
(-0.281 -0.33 -2.02e-17)
(-0.0457 -0.556 3.15e-16)
(0.0486 -0.561 4.53e-19)
(0.0817 -0.633 -1.65e-17)
(0.146 -0.206 0)
(0.19 -0.429 1.8e-16)
(0.0734 -0.571 0)
(-0.0222 -0.684 -1.26e-16)
(-0.00521 -0.574 0)
(-0.288 -0.491 0)
(0.529 -0.604 -5.73e-17)
(0.195 -0.444 1.65e-16)
(0.408 -0.458 1.74e-17)
(-0.315 -0.608 -7.62e-17)
(0.25 -0.55 -1.28e-16)
(-0.461 -0.606 5.73e-17)
(0.264 -0.48 -8.09e-17)
(-0.0323 -0.703 -6.01e-17)
(0.427 -0.604 -1.51e-16)
(0.00364 -0.72 6.9e-17)
(0.024 -0.674 6.89e-17)
(-0.0573 -0.65 3.82e-17)
(-0.0549 -0.636 0)
(-0.301 -0.428 0)
(0.161 -0.367 -4.07e-16)
(-0.086 -0.638 0)
(0.0839 -0.633 -1.42e-16)
(0.00207 -0.644 0)
(0.031 -0.579 1.38e-16)
(-0.0548 -0.677 9e-17)
(-0.0752 -0.621 -1.52e-16)
(0.0713 -0.616 -1.48e-16)
(-0.273 -0.584 1.35e-16)
(-0.329 -0.49 0)
(0.361 -0.405 -1.15e-16)
(-0.0623 -0.656 -2.93e-16)
(-0.403 -0.524 6.74e-17)
(-0.00262 -0.653 0)
(-0.417 -0.511 1.51e-16)
(-0.338 -0.398 0)
)
;

boundaryField
{
    front
    {
        type            empty;
    }
    back
    {
        type            empty;
    }
    bottom
    {
        type            zeroGradient;
    }
    left
    {
        type            noSlip;
    }
    top
    {
        type            uniformFixedValue;
        uniformValue    
        {
            type            table;
            format          csv;
            file            "inlet_v.csv";
            nHeaderLine     1;
            refColumn       0;
            componentColumns List<label> 3(1 2 3);
            separator       ",";
            mergeSeparators 0;
        }
        value           uniform (0 -0.565 0);
    }
    right
    {
        type            noSlip;
    }
    inner_arc
    {
        type            noSlip;
    }
}


// ************************************************************************* //
