/*--------------------------------*- C++ -*----------------------------------*\
  =========                 |
  \\      /  F ield         | OpenFOAM: The Open Source CFD Toolbox
   \\    /   O peration     | Website:  https://openfoam.org
    \\  /    A nd           | Version:  9
     \\/     M anipulation  |
\*---------------------------------------------------------------------------*/
FoamFile
{
    format      ascii;
    class       volScalarField;
    location    "0.8";
    object      p;
}
// * * * * * * * * * * * * * * * * * * * * * * * * * * * * * * * * * * * * * //

dimensions      [0 2 -2 0 0 0 0];

internalField   nonuniform List<scalar> 
90
(
-7.55109e-23
1.22341e-23
7.13661e-22
1.89906e-21
9.8164e-22
-1.16669e-21
1.19241e-23
-2.01918e-22
-1.27813e-22
-2.02894e-22
1.52507e-22
-3.90185e-22
-1.29339e-22
4.87561e-22
-4.05145e-22
-2.90807e-21
4.04692e-21
-5.24051e-22
-5.70137e-22
-1.15146e-22
3.1987e-23
-1.33234e-22
7.60149e-23
1.92115e-22
5.123e-25
4.49514e-22
-3.01707e-22
1.08876e-22
9.40521e-22
-1.97302e-22
-1.18455e-22
7.6224e-22
5.50113e-22
3.30345e-22
4.96307e-22
-3.25312e-21
-2.07637e-22
6.29298e-21
6.08612e-22
-2.87844e-22
-4.07331e-22
-5.00888e-22
6.32219e-22
-5.97254e-23
-2.07357e-23
7.61435e-22
-2.11796e-22
-1.53402e-21
-7.37087e-22
8.58979e-22
-1.31677e-22
-2.1309e-22
-3.94037e-22
6.0934e-22
-3.04444e-22
-1.04074e-21
-5.51358e-24
6.20794e-23
-8.61333e-23
9.00097e-22
-2.96312e-22
7.49915e-22
1.2567e-21
-2.1576e-22
-6.26937e-22
-2.24926e-22
7.32323e-22
9.16414e-22
5.2326e-21
5.54869e-22
-1.94395e-21
-2.01629e-22
2.6575e-22
-1.55383e-21
-2.77771e-21
-2.31585e-22
-2.01621e-22
4.39116e-22
1.48279e-22
-3.34759e-24
5.87875e-21
-4.66991e-23
9.59396e-23
-3.12488e-21
7.61477e-23
1.22751e-21
-1.33626e-22
-1.64247e-22
-2.21067e-21
-3.08727e-22
)
;

boundaryField
{
    back
    {
        type            empty;
    }
    front
    {
        type            empty;
    }
    bottom
    {
        type            zeroGradient;
    }
    outer_arc
    {
        type            zeroGradient;
    }
    right
    {
        type            uniformFixedValue;
        uniformValue    
        {
            type            scale;
            scale           
            {
                type            squarePulse;
                start           0.3;
                duration        0.3;
            }
            xScale          
            {
                type            constant;
                value           1;
            }
            value           
            {
                type            constant;
                value           15.1;
            }
        }
        value           uniform 0;
    }
    inner_arc
    {
        type            zeroGradient;
    }
}


// ************************************************************************* //
