/*--------------------------------*- C++ -*----------------------------------*\
  =========                 |
  \\      /  F ield         | OpenFOAM: The Open Source CFD Toolbox
   \\    /   O peration     | Website:  https://openfoam.org
    \\  /    A nd           | Version:  9
     \\/     M anipulation  |
\*---------------------------------------------------------------------------*/
FoamFile
{
    format      ascii;
    class       surfaceScalarField;
    location    "0.8";
    object      phi;
}
// * * * * * * * * * * * * * * * * * * * * * * * * * * * * * * * * * * * * * //

dimensions      [0 3 -1 0 0 0 0];

internalField   nonuniform List<scalar> 
122
(
3.85169e-30
4.53337e-30
-1.07305e-30
9.51546e-30
-3.89571e-29
9.95639e-30
-1.62944e-29
2.77108e-30
-5.73808e-29
-3.27455e-29
3.77381e-29
2.60366e-29
-2.11033e-29
9.52329e-30
-3.17028e-30
8.82981e-30
-3.25754e-29
2.45584e-29
-1.32683e-29
9.37531e-30
1.436e-29
6.25203e-30
1.87636e-30
-5.07224e-30
-3.02635e-29
5.60104e-29
-1.99137e-29
2.12794e-29
-5.80407e-29
-1.19492e-28
1.07667e-28
8.80679e-29
-7.53377e-29
-4.61886e-29
7.788e-30
-1.51279e-29
1.71963e-29
9.40334e-30
-6.38628e-30
9.26733e-30
-4.42168e-30
9.2175e-30
1.01188e-29
-4.91e-30
7.4781e-30
1.63883e-29
1.88787e-29
-8.47596e-30
2.90707e-29
-2.95177e-29
-2.7489e-30
1.79836e-29
8.27287e-30
1.11556e-28
6.8999e-29
-7.54372e-30
-2.14826e-30
-7.82676e-30
-5.61534e-30
6.1257e-30
8.65235e-30
-1.77271e-29
-4.39418e-29
-1.72802e-29
-3.72122e-30
-9.44093e-29
-2.95501e-29
3.98637e-30
-3.36091e-30
7.84159e-30
1.742e-29
-9.07275e-30
-8.59346e-29
7.05918e-31
1.91373e-29
-1.2456e-29
-1.85917e-29
-1.65721e-29
2.0903e-29
3.50822e-30
-3.59332e-30
1.83867e-29
-4.01522e-30
-2.93021e-29
-9.81262e-30
6.9287e-29
5.21514e-30
2.42897e-30
-1.29962e-29
-1.35674e-29
4.78695e-29
-1.10033e-29
1.01533e-29
1.79574e-29
-1.99575e-29
-8.79953e-30
-2.4559e-30
-2.24402e-29
6.52569e-30
5.25002e-32
3.80008e-29
1.0987e-29
2.15339e-29
2.1015e-29
-4.48096e-29
1.3162e-29
1.55936e-29
9.3727e-30
-1.96392e-29
3.11404e-29
2.52713e-29
4.28325e-30
6.88645e-30
1.66824e-29
-6.92092e-30
1.15782e-29
-1.44986e-28
3.60189e-30
4.83422e-31
-2.32264e-29
-2.69083e-29
-5.7855e-31
)
;

boundaryField
{
    back
    {
        type            empty;
        value           nonuniform List<scalar> 0();
    }
    front
    {
        type            empty;
        value           nonuniform List<scalar> 0();
    }
    bottom
    {
        type            calculated;
        value           uniform 0;
    }
    outer_arc
    {
        type            calculated;
        value           uniform 0;
    }
    right
    {
        type            calculated;
        value           nonuniform List<scalar> 4(1.48944e-29 3.33485e-29 3.39647e-29 2.79255e-29);
    }
    inner_arc
    {
        type            calculated;
        value           uniform 0;
    }
}


// ************************************************************************* //
