/*--------------------------------*- C++ -*----------------------------------*\
  =========                 |
  \\      /  F ield         | OpenFOAM: The Open Source CFD Toolbox
   \\    /   O peration     | Website:  https://openfoam.org
    \\  /    A nd           | Version:  9
     \\/     M anipulation  |
\*---------------------------------------------------------------------------*/
FoamFile
{
    format      ascii;
    class       volVectorField;
    location    "0.8";
    object      U;
}
// * * * * * * * * * * * * * * * * * * * * * * * * * * * * * * * * * * * * * //

dimensions      [0 1 -1 0 0 0 0];

internalField   nonuniform List<vector> 
90
(
(2.94222e-22 -5.91815e-23 2.63677e-39)
(-6.18094e-22 2.16067e-23 -6.17887e-38)
(-2.71722e-21 3.6906e-21 6.78702e-38)
(1.18646e-21 2.67555e-21 -6.7216e-38)
(-7.50057e-22 -2.80275e-22 -1.71621e-37)
(3.17416e-22 3.46861e-22 4.90895e-38)
(2.91281e-22 -6.56022e-23 -2.91007e-39)
(6.71637e-24 2.42213e-22 -1.0195e-38)
(5.72529e-22 -5.57303e-23 0)
(5.35892e-22 7.08997e-23 0)
(3.12478e-22 -2.83596e-23 1.2613e-38)
(2.67092e-22 -1.02784e-23 1.63871e-39)
(-2.11957e-22 3.45258e-22 -1.61567e-39)
(2.14991e-21 -1.41059e-21 -5.24205e-39)
(2.22487e-21 1.05924e-21 0)
(2.01101e-21 -5.61351e-23 0)
(-1.29798e-21 2.87332e-21 2.38011e-37)
(-6.07462e-21 -1.83676e-21 3.07806e-38)
(-1.36706e-21 -7.46955e-22 0)
(-2.98932e-22 3.16527e-22 1.48978e-39)
(2.04552e-22 2.60545e-22 -3.11432e-39)
(6.6286e-22 -2.9515e-23 -1.28666e-38)
(6.60515e-22 5.04093e-22 1.59581e-38)
(-4.39925e-23 -5.0655e-22 -3.18734e-39)
(2.05134e-22 -3.40355e-22 4.80911e-39)
(-1.98812e-22 9.50984e-22 -1.34695e-38)
(-1.07175e-22 -5.214e-23 7.91911e-39)
(3.03848e-22 4.07636e-22 -8.39649e-39)
(-4.38764e-21 1.36234e-21 0)
(-3.88929e-22 5.656e-23 9.34098e-39)
(-2.14656e-23 4.67084e-22 -4.85298e-39)
(-1.47815e-22 5.23059e-22 4.59054e-38)
(-8.21678e-23 -1.82466e-22 1.29934e-38)
(2.6403e-22 -1.79302e-22 -2.60097e-38)
(9.50522e-23 -3.50803e-22 8.63366e-39)
(1.9584e-21 1.87748e-21 7.71553e-38)
(-9.61436e-22 6.63828e-22 0)
(-2.16671e-21 2.72847e-21 0)
(2.94387e-23 1.94318e-22 -1.36376e-38)
(1.97971e-22 1.26212e-22 -4.111e-39)
(-7.10743e-23 -1.51502e-23 9.3716e-39)
(-2.77747e-22 5.47365e-22 3.65222e-38)
(2.33772e-21 -7.29169e-22 4.03533e-39)
(6.75235e-22 2.20032e-23 3.36405e-39)
(8.38068e-22 1.33719e-22 1.53951e-39)
(7.88792e-22 9.76744e-22 -2.96743e-38)
(-6.43787e-23 6.51491e-22 -1.24437e-39)
(7.57549e-22 -4.11452e-22 -3.614e-38)
(-6.21164e-22 -4.66344e-22 3.97527e-38)
(1.11949e-21 -3.0343e-21 -2.68037e-39)
(-6.66137e-23 -2.1258e-22 0)
(-7.85409e-23 -4.25294e-23 9.48811e-39)
(2.95803e-21 6.92696e-22 1.0742e-40)
(7.95727e-22 2.93062e-22 0)
(-4.99792e-23 1.94696e-22 -1.8342e-38)
(1.05218e-21 6.84143e-22 3.87062e-40)
(8.19216e-22 2.73034e-23 -1.30299e-39)
(6.41451e-22 7.00517e-22 0)
(7.30418e-22 2.96508e-22 0)
(-1.63673e-22 7.26261e-22 -5.14774e-38)
(-4.83319e-22 8.42925e-22 -2.32485e-38)
(5.06608e-22 1.46756e-21 0)
(1.85464e-22 5.29602e-22 -5.8729e-38)
(2.79994e-22 -5.96595e-22 6.94009e-39)
(2.12061e-22 9.05308e-23 -4.14173e-38)
(-2.34395e-21 2.2854e-21 -7.91274e-39)
(-3.84738e-22 6.08823e-22 0)
(-8.40275e-23 -5.57596e-22 0)
(-3.44451e-21 4.07394e-22 -2.19796e-38)
(-1.55474e-22 -1.09136e-21 -3.66839e-38)
(1.81648e-22 -7.12872e-22 0)
(5.64424e-22 1.15226e-22 -8.37989e-39)
(1.59192e-21 -1.09547e-21 0)
(2.0056e-21 2.23834e-22 -1.19163e-37)
(-5.76016e-21 1.93493e-22 3.70377e-38)
(-4.92904e-22 8.74465e-23 8.85758e-39)
(1.00678e-22 2.46933e-23 2.16207e-39)
(1.40184e-21 -4.29498e-22 0)
(7.76412e-23 -5.61247e-22 1.562e-38)
(4.2336e-22 7.78841e-23 -5.06558e-39)
(-1.80675e-21 9.92715e-22 -2.44721e-37)
(8.33229e-22 1.12359e-22 -2.40349e-40)
(-2.78876e-22 2.44381e-22 1.91782e-39)
(-8.67775e-22 -2.41278e-24 -8.38924e-38)
(1.99719e-21 4.16738e-22 -4.1973e-39)
(4.19476e-22 -7.71968e-22 3.47608e-38)
(6.4764e-22 1.23356e-22 -4.86107e-39)
(3.46532e-22 1.97397e-22 1.02284e-39)
(9.84991e-22 -8.83524e-26 2.06345e-37)
(4.04339e-23 6.30779e-23 8.11533e-39)
)
;

boundaryField
{
    back
    {
        type            empty;
    }
    front
    {
        type            empty;
    }
    bottom
    {
        type            uniformFixedValue;
        uniformValue    
        {
            type            scale;
            scale           
            {
                type            squarePulse;
                start           0.3;
                duration        0.3;
            }
            xScale          
            {
                type            constant;
                value           1;
            }
            value           
            {
                type            constant;
                value           (0 0.7 0);
            }
        }
        value           uniform (0 0 0);
    }
    outer_arc
    {
        type            noSlip;
    }
    right
    {
        type            zeroGradient;
    }
    inner_arc
    {
        type            noSlip;
    }
}


// ************************************************************************* //
