/*--------------------------------*- C++ -*----------------------------------*\
  =========                 |
  \\      /  F ield         | OpenFOAM: The Open Source CFD Toolbox
   \\    /   O peration     | Website:  https://openfoam.org
    \\  /    A nd           | Version:  9
     \\/     M anipulation  |
\*---------------------------------------------------------------------------*/
FoamFile
{
    format      ascii;
    class       volScalarField;
    location    "0.92";
    object      p;
}
// * * * * * * * * * * * * * * * * * * * * * * * * * * * * * * * * * * * * * //

dimensions      [0 2 -2 0 0 0 0];

internalField   nonuniform List<scalar> 
464
(
2.83608e-21
-6.77996e-21
-5.64972e-22
-5.93017e-22
-7.84227e-21
-5.30504e-22
1.15846e-21
-5.85833e-22
-1.19677e-21
-7.18137e-22
2.72311e-21
6.55029e-21
9.72591e-22
6.92585e-21
1.24114e-21
5.15758e-22
-1.15229e-21
-1.44727e-21
-5.80173e-22
-5.81326e-22
-5.60707e-22
-5.27473e-22
-5.30341e-22
-5.7779e-22
-5.67809e-22
-5.75058e-22
4.31438e-21
-5.94873e-22
2.978e-21
-5.51163e-22
-5.58794e-22
-2.96991e-22
3.32405e-23
-7.91106e-22
-8.71793e-22
-1.0033e-21
-8.33305e-22
-5.63738e-22
-6.32197e-22
-3.08425e-23
-5.80029e-22
-5.30792e-22
-4.90995e-22
6.07852e-21
4.37713e-21
1.03133e-21
-5.98178e-22
-6.25885e-22
-6.30544e-22
-5.15312e-22
-6.05511e-22
-6.19006e-22
-6.7022e-22
-5.4249e-22
-5.23904e-22
-6.13985e-22
-6.1141e-22
-3.15132e-22
-2.75715e-22
-6.78779e-22
-6.29119e-22
-4.04591e-21
-3.21429e-22
-4.74729e-22
-2.70101e-21
-5.36723e-22
1.19889e-22
-6.0084e-22
4.00795e-21
-5.09432e-22
-1.78147e-22
-3.51684e-21
2.24939e-21
-6.18297e-22
-1.00833e-21
-6.22242e-22
-3.49404e-23
1.24585e-21
-4.11796e-22
1.61283e-21
-6.15093e-21
-5.65426e-22
-1.00293e-20
-5.4951e-22
-6.34263e-21
-2.2262e-22
-2.89393e-21
-5.55015e-22
-5.97161e-22
-8.57013e-22
-5.42445e-21
-4.64029e-21
5.87101e-23
6.24997e-21
1.95777e-22
-1.36735e-23
-4.2179e-22
-5.55187e-22
-3.5481e-21
-9.1184e-22
-5.76156e-22
-5.96326e-22
-5.71344e-22
-6.39793e-22
-8.39373e-22
-1.00392e-20
-5.29965e-22
9.90015e-23
-5.29944e-21
-5.68939e-22
1.29889e-23
-6.08633e-22
2.29692e-22
-2.74684e-21
-5.92485e-22
-5.73519e-22
-8.20089e-21
-5.37773e-22
-4.60728e-21
-5.42569e-22
-5.93115e-22
9.71468e-22
-2.38436e-21
2.70718e-21
-2.04221e-22
-2.14456e-22
-8.97181e-22
2.10461e-22
-8.82877e-22
-9.00431e-21
-5.19492e-22
8.41098e-21
-6.3427e-22
-5.69033e-22
-5.1095e-22
-6.81616e-21
-5.2349e-22
-5.9844e-22
-1.05888e-21
-4.449e-22
-4.62054e-22
-2.16158e-23
-4.50645e-23
-5.62959e-22
-5.06907e-22
-1.51102e-21
-5.76847e-22
-5.77805e-22
-4.68558e-22
-4.25887e-22
-5.73457e-22
-5.81878e-22
3.76886e-22
-3.36527e-22
-5.87404e-21
-4.42909e-22
-1.51176e-21
-5.84555e-22
-7.50128e-22
-4.56496e-21
-5.79584e-22
-5.55416e-22
-6.64832e-22
-4.21044e-22
-4.40712e-22
-5.15754e-22
-1.34081e-22
-5.42388e-22
-6.07082e-22
8.56808e-23
6.32513e-22
-3.38747e-21
-1.73511e-21
-5.02151e-22
-3.70762e-22
3.59843e-22
-5.80507e-22
-5.4561e-22
1.46092e-21
-1.22206e-21
-5.60265e-22
4.15637e-22
-1.73527e-21
-2.22206e-21
-1.50925e-21
-1.4747e-21
9.65926e-22
9.50997e-22
-1.11079e-21
1.01972e-21
-5.51842e-22
1.08047e-21
-6.46487e-22
-5.59794e-22
-2.73498e-22
-1.68054e-22
-5.51724e-22
-5.31609e-22
-8.95426e-22
-5.14952e-22
-5.21805e-22
-2.86567e-22
-6.00861e-22
-4.19376e-22
9.66855e-22
-6.08142e-22
-6.00049e-22
-3.77575e-22
-1.73151e-22
-2.50359e-21
-4.32641e-22
7.70346e-22
-6.29574e-22
-1.00933e-21
-4.4515e-22
7.89528e-22
-2.10398e-21
-5.56715e-22
3.95651e-21
-4.16042e-23
-2.24849e-21
-5.32712e-22
-4.74813e-22
-4.85088e-22
-5.50226e-22
-5.2911e-22
-5.22962e-22
-5.31366e-22
-5.19723e-22
-4.60872e-22
-4.91062e-22
-6.21757e-22
-5.47241e-22
-3.40908e-22
-6.77819e-22
-4.10105e-22
-6.4659e-22
-5.89932e-22
-4.90028e-22
-6.36976e-22
-3.75287e-22
-5.02622e-22
-7.00553e-22
-5.38472e-22
-3.40606e-22
-5.7151e-22
-5.7678e-22
-6.0458e-22
-6.16276e-22
-4.84382e-22
-5.61647e-22
-4.24502e-22
-2.56016e-22
-6.10496e-22
-2.90899e-22
-5.65304e-22
-5.70856e-22
-4.98832e-22
-2.94057e-22
-3.0884e-22
-5.96346e-22
-2.86173e-22
-1.55995e-22
1.30415e-22
-3.82518e-22
-4.39271e-23
-2.03798e-22
-6.1649e-22
1.30759e-21
-2.72477e-22
-5.34349e-22
-4.58488e-22
-2.93603e-22
7.46452e-22
1.23705e-21
-2.37482e-22
-3.32078e-22
-2.28922e-23
1.76448e-22
-1.9533e-21
-4.33898e-22
-5.98861e-22
9.49744e-23
-6.1407e-22
1.09059e-21
-7.82582e-22
3.17305e-22
-1.90544e-21
-6.16799e-22
-6.36105e-22
-1.3814e-21
-1.00858e-21
-5.69247e-22
-5.68665e-22
5.10126e-23
-1.88882e-23
6.45485e-22
4.43981e-22
4.89309e-22
-2.20824e-21
6.7761e-22
8.34886e-23
1.87115e-21
7.07711e-21
-7.30199e-22
3.4121e-23
-4.21849e-23
-6.41979e-22
-4.1624e-21
5.15531e-23
-4.62271e-22
-5.53226e-22
-2.09171e-22
5.03095e-22
-1.64934e-22
-4.66092e-22
6.06478e-22
-2.42582e-21
-5.83143e-22
9.71803e-22
-5.26659e-22
2.88279e-22
-3.34033e-21
5.1433e-22
-8.53086e-22
-6.74574e-22
-6.63618e-22
2.33331e-21
-6.35565e-22
-1.54389e-21
-5.37504e-22
-2.32289e-21
-5.94362e-22
-2.49032e-22
-4.21282e-22
-5.73888e-22
-5.48364e-22
-5.99061e-22
-2.46528e-22
-5.26917e-22
-6.3908e-22
4.70504e-21
-9.62561e-22
-1.49608e-21
-3.49544e-22
-5.63204e-22
-6.75333e-22
-9.76721e-23
-5.57377e-22
-3.97187e-22
-6.08918e-22
-6.02043e-22
1.6082e-22
1.76699e-23
-6.08566e-22
-4.36713e-21
-5.37046e-22
-9.63974e-21
-5.46656e-22
-6.50002e-21
-5.70923e-22
3.34333e-22
-5.32622e-22
-6.29321e-21
3.72135e-21
-5.89175e-22
-5.93075e-22
-1.03309e-21
9.01605e-21
-4.92245e-22
-6.06783e-22
9.21579e-21
1.71462e-21
-7.95179e-22
6.78522e-21
-5.56173e-22
2.6122e-21
-5.28011e-22
1.77427e-21
-4.86946e-22
-1.43506e-21
-6.6715e-22
-1.06253e-21
-4.90941e-22
-7.09399e-22
-4.71777e-22
-6.88645e-22
-5.70929e-22
-2.35904e-21
-1.41356e-21
-7.25254e-22
-8.16497e-22
-6.68202e-22
-6.29257e-22
-5.26901e-22
-5.31521e-22
-5.30595e-22
-5.63343e-22
-5.32937e-22
2.26777e-21
-3.75235e-21
-5.92071e-22
6.44072e-21
-7.17618e-22
1.54035e-22
2.8914e-21
8.41946e-21
-6.83651e-22
4.56673e-21
-7.26285e-22
-1.65013e-21
-5.19322e-22
-5.71201e-22
-5.71577e-22
-5.46327e-22
-3.17323e-21
1.06332e-20
-4.94961e-22
-5.35378e-22
-4.54856e-21
-5.25737e-22
-5.78055e-22
3.04303e-21
8.70812e-21
4.0708e-21
1.70313e-21
5.25452e-22
-3.31568e-22
-1.31163e-21
-1.02921e-20
-5.43653e-22
-4.66339e-22
-1.19041e-21
-5.90154e-22
-6.31496e-22
-2.31341e-21
-1.9591e-21
-5.5418e-22
-1.85379e-21
-4.86312e-22
-7.76645e-22
-6.37992e-22
-5.24254e-22
-5.43453e-22
-5.78297e-22
-5.36274e-22
-5.59396e-22
-5.07212e-22
-5.49145e-22
-6.54674e-22
-4.01182e-22
9.49299e-22
7.79724e-22
-5.67231e-22
-6.71495e-22
-9.72289e-22
-4.19425e-22
-5.66891e-22
-5.02061e-22
-4.80228e-22
-7.0095e-22
1.05285e-20
7.40969e-21
-5.85107e-22
)
;

boundaryField
{
    back
    {
        type            empty;
    }
    front
    {
        type            empty;
    }
    left
    {
        type            zeroGradient;
    }
    top
    {
        type            zeroGradient;
    }
    right
    {
        type            zeroGradient;
    }
    bottom
    {
        type            uniformFixedValue;
        uniformValue    
        {
            type            scale;
            scale           
            {
                type            squarePulse;
                start           0.3;
                duration        0.3;
            }
            xScale          
            {
                type            constant;
                value           1;
            }
            value           
            {
                type            constant;
                value           15.1;
            }
        }
        value           uniform 0;
    }
}


// ************************************************************************* //
