/*--------------------------------*- C++ -*----------------------------------*\
  =========                 |
  \\      /  F ield         | OpenFOAM: The Open Source CFD Toolbox
   \\    /   O peration     | Website:  https://openfoam.org
    \\  /    A nd           | Version:  9
     \\/     M anipulation  |
\*---------------------------------------------------------------------------*/
FoamFile
{
    format      ascii;
    class       surfaceScalarField;
    location    "0.92";
    object      phi;
}
// * * * * * * * * * * * * * * * * * * * * * * * * * * * * * * * * * * * * * //

dimensions      [0 3 -1 0 0 0 0];

internalField   nonuniform List<scalar> 
663
(
-6.71858e-27
7.9968e-27
-1.26804e-27
1.62008e-27
8.33215e-27
-4.98121e-30
5.14476e-30
1.09062e-29
-2.37957e-29
1.32486e-29
-3.68678e-27
5.27005e-27
-7.87115e-31
1.35938e-30
-8.41278e-27
1.70218e-27
-8.67391e-30
2.46202e-29
-1.00119e-26
4.0262e-27
5.97815e-27
-1.39671e-27
-8.60388e-27
-1.70957e-27
9.70547e-27
4.52622e-27
-1.60806e-27
-2.91055e-27
-4.37016e-27
4.06477e-27
5.40725e-28
1.86435e-27
-2.07719e-27
1.9411e-28
1.99554e-27
-1.23319e-28
-1.13013e-28
-1.87138e-28
2.96258e-28
-6.75121e-29
-5.9113e-29
5.44333e-30
-6.22663e-30
-1.70519e-28
2.99517e-28
-1.29213e-28
1.12886e-28
-2.78831e-28
4.2308e-29
6.21264e-29
-1.04379e-28
1.47127e-28
-9.82521e-29
9.97345e-30
1.1677e-29
-2.20143e-29
-9.50534e-30
-8.90047e-30
-1.46039e-29
2.99844e-29
9.51674e-29
-6.18977e-28
5.21646e-28
1.53933e-29
-2.2329e-29
7.35701e-30
1.78306e-27
-1.69933e-27
-4.40157e-29
5.26047e-29
-8.91745e-30
-2.95275e-30
-3.67209e-29
-2.11715e-27
1.75357e-27
3.64739e-28
5.74361e-29
-2.17134e-27
1.76885e-27
-1.44298e-27
-3.28035e-28
8.5094e-28
9.09175e-28
9.74954e-30
-6.20752e-29
-2.12186e-28
2.32893e-28
-1.36076e-31
9.62986e-30
-6.93503e-30
2.45594e-29
-1.91856e-27
1.03359e-28
1.81089e-27
2.34912e-28
6.81275e-29
-2.06947e-28
2.00721e-28
6.30663e-30
-5.1015e-29
-1.25348e-27
6.44458e-28
-2.83384e-27
1.83822e-28
-4.4041e-29
-3.89878e-29
8.2894e-29
5.28407e-29
-2.7909e-29
-2.48412e-29
-7.82777e-30
8.07631e-30
-1.14098e-29
-5.28666e-29
2.90418e-28
2.13026e-29
-1.36875e-29
-7.49991e-30
2.80462e-28
-4.01165e-29
-2.4112e-28
-1.28782e-28
7.31318e-29
5.55259e-29
-1.6101e-28
3.68561e-29
4.23421e-29
-1.64386e-29
5.47941e-30
1.72138e-28
-1.05865e-28
-6.55388e-29
4.72677e-29
1.28394e-28
2.47976e-28
3.12386e-29
-9.33442e-30
3.29765e-28
2.99468e-27
-3.32549e-27
8.33782e-29
5.67391e-28
-6.51412e-28
-1.1178e-29
-2.31875e-29
3.42783e-29
-6.47948e-27
5.07218e-27
1.61325e-28
-8.30901e-29
-6.83388e-28
2.44953e-28
4.38703e-28
5.16474e-30
-4.52149e-27
-7.4248e-29
-8.41241e-29
-8.91426e-29
1.4121e-28
-6.17789e-27
1.96981e-27
-1.68951e-28
6.32228e-29
-4.47353e-30
-2.79051e-28
2.57883e-27
-2.29906e-27
2.55191e-29
-6.4721e-28
-2.63826e-29
-8.10185e-27
6.84053e-27
2.17325e-29
-1.22387e-28
-1.00842e-28
1.87536e-27
4.32054e-27
-6.19976e-27
2.41888e-30
9.75397e-30
-1.18563e-29
1.24068e-27
-1.5926e-27
3.42782e-28
6.24012e-30
-4.45279e-30
-1.87266e-30
3.01849e-27
3.88493e-28
-3.01308e-28
4.73408e-27
-1.76923e-27
1.95505e-29
3.59261e-30
2.61338e-29
-2.93956e-29
-2.77252e-27
2.4882e-27
-3.32409e-28
-1.90782e-27
1.71898e-27
-5.98236e-28
-1.12221e-27
-2.46892e-27
-3.8962e-27
6.35899e-27
1.02104e-27
7.04654e-28
-6.23801e-29
1.63652e-29
2.37845e-29
-7.1371e-30
1.50295e-28
1.03534e-27
-1.18665e-27
3.12228e-27
-7.49728e-27
4.71182e-29
-3.74093e-29
7.66688e-29
-9.87642e-29
3.22985e-29
1.78909e-29
2.83206e-28
1.46699e-27
-1.15779e-27
-1.64357e-27
1.59037e-30
1.18548e-27
-9.29787e-28
-7.8765e-28
4.59159e-28
7.35298e-31
-1.34751e-28
1.33914e-28
1.53226e-27
7.26813e-28
-2.25891e-27
3.12043e-29
5.94218e-28
-2.23226e-27
2.36303e-27
5.18475e-29
-2.0126e-29
7.42446e-29
-3.91595e-29
-2.68265e-28
-5.45733e-28
4.9927e-30
-9.7117e-30
4.45454e-30
1.01767e-27
-1.34241e-29
2.43644e-29
8.49687e-29
-2.77965e-27
5.8998e-27
2.26989e-27
2.43991e-27
-3.92913e-27
5.63266e-27
3.08426e-28
2.66282e-27
-1.12573e-27
4.68334e-27
-2.40367e-27
-1.36847e-27
2.09905e-27
-2.52781e-28
1.10715e-27
4.51878e-28
-4.65188e-28
2.80725e-29
4.82661e-29
8.95619e-30
5.20249e-29
-6.09707e-29
-5.7957e-28
9.99626e-30
3.29972e-29
-2.28108e-29
5.08871e-29
-5.14716e-29
-1.65782e-29
3.01596e-29
-1.22995e-27
1.3097e-28
1.92636e-29
1.95997e-29
1.31449e-29
-3.12807e-30
6.52091e-29
2.51177e-27
1.10238e-28
-7.92167e-29
8.3862e-30
6.50007e-29
-8.23504e-29
7.43969e-29
-1.99239e-29
2.43415e-29
8.75714e-29
1.01725e-28
-5.12472e-29
-2.1686e-28
1.78015e-27
-1.56301e-27
2.06707e-27
5.96807e-28
4.36201e-28
-3.80327e-29
-9.89159e-30
-1.78174e-30
-1.87065e-28
1.48111e-28
-1.2058e-28
1.87812e-27
2.11269e-27
-1.6895e-27
2.20543e-28
-8.20946e-28
6.02622e-28
1.94094e-29
1.31677e-28
1.76876e-28
-2.48478e-27
7.7823e-29
-3.12359e-29
1.09398e-28
1.39114e-28
9.31714e-29
1.74547e-28
-2.07667e-28
-1.78774e-28
2.04314e-27
-1.85323e-27
-9.78309e-28
9.78709e-28
-7.44082e-28
-2.25976e-28
3.22711e-28
-1.15096e-27
1.20275e-27
1.24251e-28
1.16043e-27
2.28282e-28
-1.59635e-27
1.74256e-28
-1.52614e-28
1.51081e-28
2.67612e-29
-2.01363e-27
1.80588e-27
-1.74565e-28
-7.49889e-28
9.27569e-28
-1.16735e-28
2.7e-28
1.51004e-28
4.64924e-28
-6.17344e-28
4.24049e-28
-4.26357e-28
2.11065e-28
5.94193e-28
-7.78688e-28
-6.34228e-28
2.17969e-28
2.79903e-28
-1.13651e-28
2.84845e-28
-4.99958e-28
7.3427e-28
6.26238e-29
8.31483e-29
-1.46807e-28
4.90836e-28
-2.04025e-28
-2.97563e-29
2.94471e-29
-2.73823e-29
3.57868e-29
1.00093e-28
1.65556e-28
-1.25637e-28
2.93773e-28
1.08826e-28
-1.77634e-28
-2.73734e-29
1.78322e-28
-1.23297e-29
-7.50885e-29
4.77083e-29
1.46422e-28
3.29053e-29
-5.38566e-29
-7.42888e-29
-9.56217e-29
9.60452e-29
-9.22279e-29
-1.08037e-28
4.59455e-30
1.11456e-28
-1.10323e-28
1.11739e-28
-7.81922e-28
-9.81615e-28
9.75576e-28
-9.44615e-29
2.19652e-28
2.26397e-29
1.30213e-28
1.93473e-28
5.72862e-29
1.36012e-28
1.89621e-28
4.18572e-29
2.47062e-28
-2.89711e-28
1.00857e-28
8.82653e-29
1.43844e-28
1.89544e-28
3.10353e-28
-6.03108e-29
2.20874e-28
9.34763e-29
-3.53259e-28
2.67203e-28
-3.23813e-28
7.15992e-29
1.37096e-28
-4.67324e-28
3.28096e-28
-3.41029e-28
4.76253e-28
2.95642e-28
-2.14934e-28
-2.47278e-28
-5.76454e-29
7.91173e-28
-4.6384e-28
-2.43627e-28
4.23216e-28
-2.23867e-28
8.99677e-29
5.64784e-28
-2.13364e-30
2.95618e-28
3.04154e-28
-7.65979e-28
1.14028e-28
1.11732e-27
-8.27738e-28
-6.70183e-28
-1.28764e-27
-3.83911e-30
1.28954e-27
-7.13587e-28
-4.13653e-28
9.78953e-28
7.11588e-28
-8.97249e-29
-2.80901e-29
1.13027e-28
-5.70654e-28
1.49199e-27
-1.66939e-27
1.79474e-28
7.97976e-28
-1.36774e-27
-1.48171e-27
-4.45397e-28
1.92515e-27
-6.87675e-28
1.49183e-27
-1.48725e-27
1.97854e-27
-4.9075e-28
8.1353e-28
-1.36044e-27
-6.65764e-28
1.77254e-29
2.48588e-27
-2.25411e-27
7.85737e-28
1.17414e-27
1.16188e-28
6.63788e-28
-1.32814e-27
-3.10057e-28
4.09491e-28
2.00335e-27
1.99397e-27
-4.83194e-28
1.15583e-27
1.99845e-29
6.53636e-29
-6.71773e-29
2.63681e-28
1.65926e-27
-1.24484e-27
-5.10617e-29
7.04641e-29
-1.4712e-29
-4.2943e-28
-1.85458e-27
1.72534e-27
-7.0064e-29
-5.13164e-29
-1.4345e-29
4.11654e-28
-2.82196e-27
-4.36652e-29
9.09837e-28
2.15572e-27
-1.24757e-27
2.54613e-27
2.46467e-30
5.93843e-29
-9.21147e-28
-3.02355e-29
-9.32055e-30
-9.75598e-29
-8.79953e-28
1.07519e-27
-2.48935e-27
-9.51379e-28
-3.51947e-27
1.70276e-27
1.81002e-27
1.67395e-27
-2.26629e-28
1.5359e-29
1.81765e-28
-1.67261e-27
2.51436e-29
-1.2682e-27
1.88106e-27
-1.58453e-28
3.45791e-27
-1.57999e-27
8.05531e-28
-1.96525e-27
-1.06403e-27
-1.42681e-27
-1.25758e-29
7.8849e-30
1.4591e-27
3.05777e-29
2.57924e-29
-1.60597e-28
1.00539e-29
-1.03248e-29
-2.67689e-27
-1.1173e-28
-1.65061e-28
9.30473e-27
-6.09238e-27
5.60189e-30
-5.54685e-30
-1.18673e-28
-9.04566e-29
-6.73848e-29
-8.32584e-30
8.8884e-30
9.60799e-29
-1.81007e-30
3.05854e-30
1.88496e-27
-1.06815e-26
2.41586e-27
-1.67266e-30
-1.66607e-29
2.84213e-28
-1.16418e-28
-2.56674e-28
2.63392e-27
9.11061e-31
2.61946e-27
6.60968e-31
2.98414e-28
7.99038e-27
2.55814e-30
6.49556e-30
-2.11036e-27
-2.22944e-30
-9.70349e-28
5.86091e-27
-1.10718e-30
-3.83823e-30
-5.43309e-28
2.92632e-28
9.81496e-28
2.5203e-29
1.84639e-30
5.20242e-30
3.32755e-28
-1.96686e-27
-3.73285e-28
3.94074e-28
-3.01065e-28
-1.09888e-27
1.27323e-28
8.30726e-28
-2.67009e-29
-7.19521e-28
8.8937e-28
-1.07754e-27
-2.04872e-28
2.71912e-28
1.52819e-27
1.09249e-27
1.49182e-29
1.00294e-29
3.10301e-29
2.78095e-28
-3.62302e-29
-7.31754e-29
7.45018e-29
-2.13323e-28
-1.65834e-28
1.11135e-28
3.82412e-29
-1.0863e-28
1.7949e-28
8.65642e-27
5.15668e-30
7.77012e-27
1.75315e-30
7.18296e-27
-3.81522e-27
2.70625e-27
-2.69693e-27
5.3736e-31
-3.8799e-27
1.94426e-30
-6.06149e-27
-2.54376e-27
3.06649e-31
-1.49926e-29
1.85438e-29
-1.25197e-29
-6.12566e-30
4.47773e-29
-2.46368e-29
9.91235e-28
-1.36989e-29
-6.40145e-30
-2.51368e-27
8.51044e-28
6.99964e-28
2.36397e-29
2.05228e-29
-3.78303e-29
-1.2395e-28
-2.49038e-28
1.28755e-28
3.14565e-29
1.06535e-29
2.80496e-30
-1.18489e-30
6.44904e-30
)
;

boundaryField
{
    back
    {
        type            empty;
        value           nonuniform List<scalar> 0();
    }
    front
    {
        type            empty;
        value           nonuniform List<scalar> 0();
    }
    left
    {
        type            calculated;
        value           uniform 0;
    }
    top
    {
        type            calculated;
        value           uniform 0;
    }
    right
    {
        type            calculated;
        value           uniform 0;
    }
    bottom
    {
        type            calculated;
        value           nonuniform List<scalar> 8(-9.98588e-27 -3.22459e-27 8.82363e-27 -6.34833e-27 -8.38651e-27 6.65512e-27 1.03036e-26 3.37425e-27);
    }
}


// ************************************************************************* //
