/*--------------------------------*- C++ -*----------------------------------*\
  =========                 |
  \\      /  F ield         | OpenFOAM: The Open Source CFD Toolbox
   \\    /   O peration     | Website:  https://openfoam.org
    \\  /    A nd           | Version:  9
     \\/     M anipulation  |
\*---------------------------------------------------------------------------*/
FoamFile
{
    format      ascii;
    class       volScalarField;
    location    "2.24";
    object      p;
}
// * * * * * * * * * * * * * * * * * * * * * * * * * * * * * * * * * * * * * //

dimensions      [0 2 -2 0 0 0 0];

internalField   nonuniform List<scalar> 
1655
(
14.7307
14.7109
14.6747
14.7463
14.7758
14.7683
14.6702
14.7692
14.7453
14.7749
14.7363
14.7345
14.7729
14.6868
14.7289
14.617
14.6343
14.74
14.758
14.6868
14.6113
14.745
14.7741
14.776
14.731
14.6299
14.6153
14.7516
14.7557
14.6054
14.6601
14.6846
14.6682
14.688
14.7388
14.6914
14.7686
14.7096
14.6695
14.7113
14.6102
14.7767
14.6766
14.7539
14.7011
14.7449
14.745
14.7009
14.772
14.6795
14.7671
14.6788
14.7307
14.7497
14.7461
14.7194
14.6114
14.7373
14.7417
14.7186
14.6619
14.7626
14.7293
14.767
14.7505
14.6635
14.7492
14.7384
14.7376
14.7778
14.7385
14.6681
14.6099
14.7329
14.6758
14.6964
14.7586
14.736
14.6113
14.6071
14.7498
14.6978
14.7444
14.7528
14.6096
14.7272
14.6762
14.6092
14.7171
14.7234
14.7255
14.6778
14.7565
14.773
14.6911
14.7586
14.7498
14.7421
14.6863
14.6385
14.677
14.7496
14.7738
14.749
14.741
14.7632
14.764
14.6048
14.6362
14.7191
14.6501
14.7353
14.7149
14.6122
14.7664
14.7283
14.7658
14.7435
14.7187
14.7419
14.7101
14.6817
14.6691
14.7429
14.7494
14.7732
14.6795
14.691
14.6198
14.6149
14.7683
14.6464
14.7674
14.7732
14.6061
14.7124
14.7763
14.7317
14.6105
14.7482
14.7226
14.6157
14.6199
14.6858
14.6389
14.6795
14.6922
14.709
14.7006
14.6534
14.6608
14.6463
14.674
14.6676
14.7289
14.6803
14.751
14.6951
14.7648
14.7504
14.6945
14.7182
14.7506
14.6914
14.6872
14.7405
14.7519
14.7695
14.7503
14.735
14.6336
14.7497
14.7015
14.7589
14.6083
14.761
14.7699
14.733
14.6205
14.6874
14.723
14.7491
14.7669
14.7446
14.7059
14.6287
14.6988
14.6255
14.7419
14.7506
14.704
14.7611
14.7444
14.6773
14.6388
14.6054
14.7435
14.6348
14.7173
14.7497
14.7463
14.7467
14.6729
14.6665
14.7273
14.6141
14.6732
14.7432
14.6189
14.6838
14.6946
14.683
14.7113
14.7706
14.6873
14.7476
14.69
14.7191
14.689
14.7509
14.7003
14.6111
14.6725
14.7548
14.6705
14.6498
14.6474
14.7279
14.684
14.6852
14.6896
14.6764
14.679
14.7361
14.6707
14.6869
14.6455
14.7441
14.6406
14.6733
14.7281
14.7054
14.6774
14.6067
14.7535
14.608
14.6525
14.7533
14.6362
14.7534
14.7542
14.6068
14.738
14.6888
14.6738
14.6947
14.6375
14.7547
14.7333
14.6763
14.7113
14.6182
14.6522
14.6828
14.7372
14.7666
14.6791
14.6842
14.6653
14.6845
14.7313
14.7377
14.7051
14.621
14.7344
14.738
14.6496
14.7533
14.7436
14.7007
14.7463
14.7665
14.736
14.7304
14.7294
14.74
14.7464
14.6534
14.6777
14.7393
14.7415
14.6087
14.6837
14.752
14.7462
14.6638
14.7684
14.6896
14.6077
14.6256
14.6533
14.7743
14.7737
14.6654
14.6503
14.7445
14.6538
14.6299
14.7457
14.6556
14.7389
14.6396
14.6262
14.7087
14.7652
14.7472
14.6087
14.7469
14.6542
14.6438
14.7475
14.6858
14.6563
14.6676
14.6567
14.7433
14.7425
14.7653
14.6342
14.74
14.6785
14.7475
14.6889
14.6279
14.7434
14.6385
14.7425
14.6826
14.6591
14.7426
14.6473
14.6677
14.7342
14.6797
14.7283
14.6696
14.6861
14.6575
14.6472
14.6192
14.7774
14.7309
14.6816
14.6628
14.7506
14.6599
14.6611
14.6641
14.7492
14.6463
14.7255
14.6801
14.7505
14.6914
14.6944
14.7257
14.6284
14.7791
14.7498
14.6843
14.7032
14.6653
14.6988
14.6679
14.7789
14.7467
14.7442
14.7689
14.6891
14.6566
14.6924
14.6973
14.769
14.6905
14.6549
14.7527
14.6668
14.7507
14.7365
14.6434
14.6136
14.7314
14.7464
14.7539
14.6722
14.6725
14.6591
14.7405
14.7534
14.7583
14.6625
14.6903
14.6986
14.7652
14.7348
14.6718
14.7529
14.7282
14.7079
14.7405
14.7783
14.6955
14.6844
14.7389
14.6752
14.6928
14.7545
14.6743
14.684
14.672
14.7595
14.6938
14.6996
14.6652
14.684
14.6455
14.6776
14.6707
14.6321
14.7252
14.6482
14.7085
14.6779
14.7759
14.6906
14.7093
14.6879
14.7236
14.7772
14.6995
14.6184
14.6731
14.7292
14.665
14.6784
14.7037
14.7257
14.7414
14.7236
14.7352
14.7202
14.7202
14.7137
14.686
14.7189
14.6817
14.7537
14.6718
14.7268
14.7055
14.7066
14.6745
14.7018
14.725
14.762
14.7704
14.6793
14.6714
14.678
14.7079
14.7123
14.6921
14.6873
14.7334
14.7217
14.7137
14.7176
14.7163
14.6783
14.6998
14.6522
14.738
14.6804
14.7092
14.7169
14.6835
14.7056
14.7014
14.7319
14.6851
14.72
14.7173
14.6879
14.7359
14.7302
14.7125
14.6514
14.6972
14.7114
14.7329
14.7355
14.719
14.6966
14.7294
14.6473
14.7339
14.7036
14.733
14.7266
14.7069
14.7646
14.7325
14.7437
14.7187
14.6992
14.7361
14.7279
14.7184
14.6564
14.662
14.694
14.6897
14.7148
14.7265
14.6574
14.6893
14.7366
14.7315
14.7231
14.7017
14.7381
14.7148
14.7242
14.7492
14.7669
14.7131
14.7751
14.7352
14.7506
14.7444
14.7575
14.672
14.7623
14.7467
14.7196
14.7707
14.7287
14.7502
14.7224
14.7521
14.7388
14.7292
14.6363
14.7353
14.7255
14.6516
14.6815
14.7225
14.7389
14.7109
14.7182
14.7433
14.686
14.7003
14.7592
14.6664
14.7168
14.6779
14.7021
14.701
14.7196
14.7125
14.6883
14.7454
14.7061
14.7191
14.7313
14.7258
14.6611
14.7042
14.7372
14.7386
14.7554
14.6717
14.7412
14.7401
14.6965
14.6972
14.7345
14.6965
14.7242
14.6988
14.7013
14.7044
14.6967
14.6662
14.7182
14.7042
14.7081
14.7071
14.7122
14.6571
14.6895
14.7093
14.6497
14.6423
14.6754
14.7134
14.6135
14.6702
14.7249
14.7303
14.6234
14.6635
14.6946
14.7166
14.6567
14.7359
14.6906
14.6771
14.6615
14.7003
14.6533
14.6953
14.7001
14.745
14.7015
14.7034
14.7061
14.7351
14.7019
14.7309
14.7093
14.7438
14.734
14.713
14.7394
14.7387
14.7283
14.716
14.7337
14.6913
14.7017
14.7382
14.7329
14.7631
14.7243
14.7423
14.7295
14.633
14.717
14.7223
14.7068
14.7182
14.7183
14.7285
14.71
14.7171
14.7083
14.6676
14.7226
14.7114
14.7392
14.7157
14.6977
14.7063
14.7475
14.7345
14.7398
14.7271
14.7064
14.7154
14.7456
14.7332
14.7436
14.7382
14.7284
14.7512
14.7007
14.748
14.7227
14.7166
14.7372
14.7006
14.7334
14.6579
14.7367
14.724
14.7212
14.7212
14.733
14.7416
14.7531
14.7257
14.7276
14.7219
14.7472
14.7115
14.7283
14.7322
14.7071
14.7295
14.7231
14.7367
14.7326
14.7392
14.7455
14.7072
14.7258
14.7184
14.6556
14.7247
14.6479
14.7101
14.7109
14.7336
14.7476
14.739
14.708
14.6296
14.7221
14.7293
14.7394
14.7105
14.7664
14.6547
14.7273
14.7448
14.7239
14.7464
14.6357
14.7565
14.7314
14.7261
14.7571
14.7442
14.7305
14.7404
14.7331
14.7441
14.6624
14.7617
14.7269
14.6511
14.7256
14.7302
14.7327
14.7239
14.7482
14.74
14.7341
14.7467
14.7176
14.63
14.6397
14.7525
14.7483
14.7354
14.7108
14.7545
14.6457
14.644
14.7371
14.7515
14.713
14.7411
14.7421
14.6514
14.7375
14.7164
14.6418
14.7458
14.7496
14.7088
14.7123
14.7197
14.7223
14.7306
14.7274
14.7283
14.7403
14.7397
14.7393
14.7381
14.7186
14.7228
14.757
14.7158
14.7345
14.7168
14.7496
14.6367
14.73
14.7251
14.7487
14.6662
14.7101
14.7272
14.7581
14.7464
14.7604
14.7579
14.7534
14.7485
14.7057
14.7125
14.7432
14.7653
14.6417
14.7586
14.7143
14.7062
14.6406
14.7576
14.7154
14.6458
14.7503
14.7432
14.7548
14.6336
14.7323
14.7501
14.7102
14.7663
14.7282
14.6448
14.7398
14.719
14.745
14.7452
14.724
14.7505
14.7346
14.745
14.7423
14.7458
14.7452
14.7371
14.7591
14.7485
14.7408
14.7411
14.6362
14.7615
14.7611
14.7451
14.6335
14.7483
14.7122
14.7454
14.737
14.6224
14.7175
14.7374
14.7484
14.7625
14.7154
14.7433
14.7302
14.7396
14.761
14.7228
14.7212
14.6434
14.7437
14.7417
14.7648
14.7365
14.7393
14.7259
14.7308
14.7543
14.7691
14.7402
14.737
14.7148
14.7434
14.7125
14.7223
14.623
14.7363
14.7702
14.6266
14.714
14.754
14.7312
14.7524
14.739
14.7329
14.7557
14.7665
14.7496
14.6377
14.7433
14.7696
14.6795
14.7503
14.7237
14.7493
14.751
14.7496
14.7388
14.7117
14.7551
14.7704
14.7498
14.7468
14.7674
14.7526
14.7114
14.7512
14.6374
14.6269
14.769
14.767
14.748
14.7517
14.6253
14.7519
14.7144
14.7224
14.7705
14.7483
14.7259
14.7489
14.7499
14.7545
14.7087
14.7504
14.7703
14.7558
14.6947
14.7563
14.7674
14.7679
14.7096
14.7436
14.7457
14.6842
14.7203
14.7497
14.6356
14.754
14.7142
14.7302
14.7508
14.6977
14.7528
14.6917
14.7711
14.7684
14.7483
14.7227
14.739
14.6705
14.6622
14.7252
14.7364
14.7325
14.7414
14.7575
14.7331
14.7523
14.7302
14.6213
14.659
14.733
14.7387
14.6291
14.6813
14.6472
14.7535
14.6781
14.7487
14.7727
14.7718
14.6844
14.7683
14.7471
14.7557
14.7678
14.7477
14.6734
14.6305
14.6979
14.7688
14.7066
14.751
14.7087
14.758
14.7033
14.745
14.7741
14.717
14.7079
14.7529
14.6291
14.7517
14.7472
14.7724
14.7735
14.7691
14.705
14.7737
14.7535
14.7696
14.7139
14.7529
14.6754
14.6948
14.6872
14.7719
14.7689
14.6902
14.7458
14.7701
14.7524
14.701
14.6909
14.7014
14.7613
14.6661
14.7307
14.7651
14.6905
14.6819
14.7662
14.6987
14.7541
14.7044
14.6627
14.618
14.6246
14.6823
14.6875
14.6836
14.7351
14.7363
14.6971
14.7727
14.7003
14.6554
14.7546
14.769
14.6943
14.6831
14.6442
14.7625
14.7417
14.677
14.6744
14.68
14.6998
14.6794
14.6239
14.7276
14.6978
14.7572
14.736
14.7472
14.741
14.6319
14.7566
14.6853
14.6201
14.7017
14.6947
14.7728
14.7635
14.7586
14.7612
14.6947
14.6973
14.7639
14.7574
14.6871
14.7568
14.62
14.6585
14.7468
14.7325
14.6419
14.7659
14.7587
14.7553
14.6199
14.7573
14.7378
14.7401
14.6611
14.7397
14.617
14.761
14.7584
14.7449
14.7606
14.7557
14.7627
14.7387
14.7038
14.738
14.7664
14.7571
14.7412
14.7322
14.7586
14.7634
14.6165
14.7564
14.7027
14.7626
14.7135
14.7644
14.6857
14.7657
14.6884
14.6813
14.7613
14.7333
14.7582
14.7104
14.6755
14.7046
14.7431
14.7602
14.7285
14.757
14.6922
14.6963
14.7648
14.7622
14.6091
14.6789
14.6867
14.7572
14.7339
14.6942
14.7626
14.6774
14.7449
14.7561
14.6729
14.6211
14.7439
14.7613
14.7642
14.7496
14.7598
14.7352
14.6866
14.6889
14.7654
14.7405
14.6895
14.7427
14.7618
14.7552
14.6898
14.7424
14.6059
14.6765
14.6693
14.6669
14.7353
14.7488
14.6918
14.6851
14.6853
14.689
14.765
14.7609
14.7565
14.7459
14.6658
14.7624
14.6897
14.6046
14.7589
14.6554
14.7602
14.7597
14.685
14.7437
14.7392
14.7485
14.6306
14.6949
14.6289
14.7337
14.7593
14.6485
14.7026
14.6895
14.7609
14.6243
14.6353
14.736
14.762
14.6884
14.7624
14.7601
14.7098
14.7306
14.6145
14.6981
14.6582
14.7748
14.6396
14.625
14.6845
14.707
14.6676
14.6397
14.6989
14.6613
14.6344
14.6287
14.6955
14.6975
14.7547
14.7631
14.7586
14.6858
14.672
14.6076
14.7717
14.7183
14.6914
14.6737
14.6225
14.7605
14.6942
14.7661
14.7693
14.6643
14.7672
14.7479
14.6171
14.6285
14.6983
14.665
14.6937
14.689
14.7638
14.7711
14.652
14.7712
14.6053
14.7308
14.6335
14.7426
14.6598
14.6618
14.6922
14.7155
14.7379
14.6753
14.6525
14.7647
14.6065
14.6393
14.6685
14.6469
14.6652
14.6455
14.6993
14.7021
14.6893
14.6939
14.6943
14.7327
14.6339
14.7412
14.7425
14.6518
14.6858
14.7038
14.6279
14.7452
14.7098
14.7405
14.6183
14.6452
14.7448
14.7701
14.7763
14.7192
14.666
14.6529
14.6576
14.7089
14.75
14.744
14.7056
14.7459
14.7471
14.7407
14.608
14.7378
14.7374
14.6233
14.7514
14.7159
14.7635
14.7739
14.7746
14.7233
14.777
14.748
14.7768
14.7046
14.6095
14.778
14.7408
14.6278
14.7664
14.7462
14.7493
14.7434
14.7255
14.7556
14.7411
14.7423
14.7145
14.6539
14.7464
14.7427
14.7646
14.7326
14.7457
14.6668
14.7496
14.742
14.6738
14.643
14.7365
14.7564
14.7528
14.7341
14.7659
14.7678
14.751
14.7363
14.7585
14.7633
14.7696
14.7612
14.7298
14.7513
14.7371
14.7553
14.7535
14.7331
14.7646
14.769
14.7514
14.7309
14.7374
14.7598
14.7036
14.7496
14.6562
14.6142
14.7787
14.7784
14.7503
14.7065
14.6142
14.6142
14.6832
14.6192
14.6441
14.7179
14.7251
14.7276
14.7555
14.6779
14.698
14.7482
14.7146
14.7787
14.7201
14.6957
14.7563
14.6124
14.6292
14.7308
14.7653
14.7058
14.743
14.7264
14.7215
14.6219
14.6516
14.6461
14.688
14.7548
14.7315
14.7772
14.6864
14.7592
14.7027
14.7458
14.7008
14.7246
14.7543
14.7317
14.7336
14.7736
14.6565
14.7291
14.7622
14.6232
14.6128
14.6272
14.7631
14.7738
14.6933
14.7683
14.6376
14.74
14.694
14.6901
14.6445
14.7739
14.774
14.702
14.6994
14.7775
14.6692
14.7273
14.7231
14.7203
14.6954
14.6977
14.6815
14.7414
14.7451
14.7139
14.7416
14.7416
14.7369
14.6954
14.6913
14.6922
14.7444
14.7406
14.7615
14.6125
14.716
14.7492
14.7134
14.7495
14.6049
14.6798
14.7357
14.7723
14.7504
14.7594
14.7725
14.7303
14.7766
14.7706
14.6831
14.7716
14.7311
14.6048
14.7386
14.689
14.6853
14.6856
14.7821
14.7755
14.6308
14.7494
14.7493
14.6855
14.7042
14.7416
14.7288
14.7066
14.7755
14.6207
14.744
14.7745
14.7294
14.692
14.7438
14.6153
14.7
14.7276
14.687
14.7586
14.7781
14.7791
14.7777
14.7768
14.7721
14.7768
14.7781
14.7745
14.7764
14.7488
14.7501
14.731
14.7184
14.7762
14.7234
14.7487
14.7476
14.758
14.7444
14.7406
14.773
14.6403
14.6557
14.6894
14.7497
14.7217
14.7474
14.6963
14.7743
14.6148
14.7161
14.7218
14.7006
14.642
14.7483
14.7257
14.7095
14.6811
14.715
14.743
14.6965
14.7212
14.7412
14.7303
14.7446
14.6821
14.7486
14.7708
14.7558
14.7087
14.721
14.7735
14.7688
14.7335
14.6581
14.69
14.7105
14.7501
14.7543
14.7773
14.7011
14.6933
14.6556
14.7626
14.7724
14.6885
14.7752
14.6347
14.7605
14.7312
14.746
14.7731
14.6918
14.7419
14.7441
14.7332
14.7726
14.6865
14.6216
14.7757
14.7276
14.7638
14.7597
14.7787
14.7488
14.7052
14.6934
14.7407
14.7082
14.6488
14.749
14.6934
14.681
14.7424
14.7508
14.7808
14.7158
14.6804
14.6838
14.6484
14.7463
14.7335
14.7357
14.7475
14.6049
14.7651
14.7375
14.7647
14.7656
14.7403
14.7776
14.6372
14.6658
14.7306
14.7524
14.7652
14.6631
14.7278
14.7066
14.7253
14.7429
14.7317
14.6859
14.728
14.6883
14.7768
14.6246
14.7487
14.7167
14.7031
14.6836
14.7171
14.7775
14.7731
14.6854
14.7713
14.748
14.744
14.7491
14.7753
14.6827
14.725
14.7512
14.7227
14.6851
14.7269
14.7604
14.6845
14.7211
14.7291
14.6892
14.7774
14.721
14.712
14.6615
14.6992
14.7416
14.6393
14.7063
14.645
14.7781
14.7409
)
;

boundaryField
{
    back
    {
        type            empty;
    }
    front
    {
        type            empty;
    }
    top
    {
        type            zeroGradient;
    }
    outer_arc
    {
        type            zeroGradient;
    }
    bottom
    {
        type            uniformFixedValue;
        uniformValue    
        {
            type            table;
            format          csv;
            file            "outlet_p.csv";
            nHeaderLine     1;
            refColumn       0;
            componentColumns List<label> 1(1);
            separator       ",";
            mergeSeparators 0;
        }
        value           uniform 14.7402;
    }
    inner_arc
    {
        type            zeroGradient;
    }
}


// ************************************************************************* //
