/*--------------------------------*- C++ -*----------------------------------*\
  =========                 |
  \\      /  F ield         | OpenFOAM: The Open Source CFD Toolbox
   \\    /   O peration     | Website:  https://openfoam.org
    \\  /    A nd           | Version:  9
     \\/     M anipulation  |
\*---------------------------------------------------------------------------*/
FoamFile
{
    format      ascii;
    class       surfaceScalarField;
    location    "0.07";
    object      phi;
}
// * * * * * * * * * * * * * * * * * * * * * * * * * * * * * * * * * * * * * //

dimensions      [0 3 -1 0 0 0 0];

internalField   nonuniform List<scalar> 
816
(
6.14e-11
-5.79e-09
5.73e-09
-9.11e-10
-1.07e-08
1.16e-08
9.2e-09
-9.14e-09
1.49e-08
-1.47e-08
-1.24e-10
6.12e-09
-6.12e-09
1.34e-08
2.51e-09
-1.59e-08
6.45e-09
-6.45e-09
-7.01e-09
7.01e-09
-1.19e-08
-2.26e-09
1.42e-08
-5.9e-09
4.99e-09
1.94e-08
-6.02e-09
1.65e-08
-1.17e-08
-4.82e-09
3.89e-09
9.46e-09
-1.33e-08
1.56e-08
-1.47e-08
-8.61e-10
1.57e-08
-1.41e-08
-1.65e-09
-1.01e-08
1.61e-08
-6.05e-09
3.39e-09
6.09e-09
-9.47e-09
-1.55e-08
1.32e-09
1.42e-08
1.94e-09
1.46e-08
6.66e-09
-1.86e-08
1.11e-08
3.79e-09
1.04e-09
-1.11e-08
1.02e-08
-1.94e-09
-8.23e-09
-1.03e-08
-4.37e-09
1.47e-08
-1.12e-08
8.59e-10
-1.39e-08
3.11e-09
1.08e-08
-1.32e-08
1.48e-08
-1.6e-09
2.02e-10
4.47e-09
-4.68e-09
4.24e-09
-1.49e-08
5.45e-09
1.07e-08
-9.06e-09
9.26e-09
-1.02e-08
1.28e-08
2.01e-08
-1.47e-08
-1.63e-08
8.17e-09
8.16e-09
1.1e-09
1.46e-08
-2.87e-09
1.36e-08
1.11e-09
1.45e-08
-2.5e-09
-1.14e-08
-1.71e-08
5.96e-09
1.11e-08
3.79e-09
2.34e-09
-5.02e-09
-5.08e-09
4.51e-09
-1.36e-08
-5.09e-10
-1.2e-08
-2.89e-09
1.49e-08
3.89e-09
2.56e-09
-5.35e-09
1.32e-08
-1.55e-08
-7.86e-09
-1.25e-08
-6.95e-10
-4.34e-10
4.97e-09
-4.54e-09
1.26e-08
-8.68e-09
1.05e-08
-2.95e-10
-5.62e-09
-1.07e-08
6.95e-09
6.44e-09
4.34e-09
-1.46e-08
1.02e-08
-1.94e-09
-1.2e-08
1.54e-08
-1.2e-08
4.4e-09
-7.27e-09
-8.12e-11
-3.35e-09
9.44e-09
1.08e-08
-9.44e-09
-9.44e-10
-1.38e-08
-7.2e-09
-8.09e-09
1.53e-08
-1.5e-08
1.47e-09
1.34e-08
6.77e-09
8.78e-09
1.07e-08
-5.76e-09
1.76e-08
-1.18e-08
3.08e-09
1.12e-08
-1.43e-08
-3.01e-09
-1.07e-08
6.42e-09
-1.36e-08
1.11e-08
5.95e-09
-1.7e-08
5.97e-09
1.08e-08
-1.68e-08
5.96e-09
-5.96e-09
-6.39e-09
1.3e-08
-9.6e-09
3.21e-09
1.59e-08
2.24e-09
3.48e-09
-5.73e-09
-1.52e-08
2.49e-09
1.27e-08
-5.79e-09
6.49e-09
-6.49e-09
-6.24e-09
6.24e-09
6.93e-09
-1.53e-08
8.36e-09
-4.51e-09
-7.64e-10
4.97e-09
-1.12e-08
1.56e-08
2.58e-11
-1.06e-08
1.06e-08
-9.31e-09
-2.54e-10
9.56e-09
5.76e-09
-8.29e-09
1.52e-08
5.78e-11
-1.15e-08
1.15e-08
1.02e-08
5.62e-09
-1.58e-08
-1.18e-08
1.84e-09
9.77e-09
-1.16e-08
-6.67e-09
-6.91e-09
-5.9e-09
-6.16e-10
1.53e-08
-5.17e-10
-1.45e-08
-9.03e-09
1.21e-08
-1.37e-08
8.97e-09
4.73e-09
8.2e-09
7.35e-09
6.03e-09
-1.03e-09
1.55e-08
-9.96e-09
5.02e-09
-4.51e-09
2.2e-10
-6.18e-09
5.2e-09
8.35e-09
1.43e-08
9.96e-09
-1.5e-08
5.01e-09
-5.91e-09
-7.8e-09
-3.94e-09
-1.08e-08
-2.02e-10
-1.23e-08
1.25e-08
5.05e-10
-9.81e-09
1.4e-08
-6.64e-09
-6.65e-10
1.14e-08
-7.6e-09
1.36e-09
3.19e-09
1.23e-08
-1.22e-09
-1.11e-09
1.19e-08
-1.3e-08
1.1e-09
-8.66e-09
-6.54e-09
-1.27e-08
9.2e-09
3.45e-09
-1.23e-08
-1.41e-09
1.44e-08
-3.46e-10
-1.41e-08
1.39e-08
-1.98e-09
-4.08e-09
1.43e-08
-3.84e-09
3.84e-09
1.33e-08
1.09e-09
5.82e-10
-1.24e-08
1.18e-08
6.64e-11
-1.18e-08
-1.32e-08
-1.79e-09
1.02e-08
-1.06e-08
1.13e-10
-4.56e-09
4.45e-09
1.63e-09
1.03e-08
2.25e-10
1.07e-08
-1.09e-08
-4.51e-09
-8.59e-10
1.2e-08
7.78e-10
8.77e-09
-9.54e-09
-9.32e-09
6.83e-09
2.49e-09
-1.3e-08
1.16e-08
-1.55e-08
3.63e-10
1.52e-08
-6.58e-09
6.58e-09
4.4e-09
5.74e-10
3.27e-09
-1.19e-09
-1.48e-08
1.59e-08
-5.57e-10
-1.2e-08
1.44e-08
-1.02e-08
-3.08e-09
1.42e-08
-1.11e-08
3.48e-09
3.3e-10
-1.59e-08
-1.35e-08
-4.56e-09
-1.2e-08
1.23e-08
-4.94e-09
4.94e-09
-1.23e-08
-4.72e-09
1.11e-08
-1.23e-08
-1e-08
6.95e-09
-5.34e-09
1.99e-08
-1.46e-08
-6.42e-10
-1.13e-08
5.08e-09
-5.01e-09
-4.71e-09
5.29e-09
5.61e-10
-3.87e-09
3.31e-09
1.02e-10
1.1e-08
9.17e-09
6.11e-09
-6.02e-09
1.52e-08
-1.22e-08
-6.37e-09
5.73e-09
3.77e-11
-1.06e-08
1.05e-08
5.16e-09
-5.06e-09
8.01e-10
-1.15e-08
1.07e-08
9.54e-09
-1.03e-08
9.86e-09
-1.04e-09
-1.14e-08
-9.32e-09
-7.27e-09
-6.28e-09
-6.38e-09
-1.45e-08
-8.24e-10
1.54e-08
-4.83e-09
4.86e-09
-1.43e-08
-8.35e-10
1.51e-08
1.24e-08
-8.51e-11
-1.17e-08
-6.19e-10
-4.99e-09
-1.07e-08
1.69e-08
-6.12e-09
-6.95e-09
6.32e-09
6.35e-10
-6.83e-09
6.28e-09
-1.29e-08
1.25e-08
3.9e-10
1.22e-08
-1.16e-08
-6.35e-10
-1e-08
1.55e-08
-5.2e-09
-1.29e-09
-1.61e-08
9.81e-09
5.38e-09
4.71e-10
-1.06e-09
-1.49e-08
-2.5e-10
9.02e-09
-1.62e-08
-6.19e-10
1.39e-08
1.62e-08
-6.39e-09
9.71e-09
9.48e-09
2.8e-09
3.06e-09
-3.31e-09
1.41e-08
9.96e-09
1.03e-09
-9.11e-09
9.68e-09
5.64e-09
-5.73e-09
-5.68e-09
5.06e-09
-8.98e-09
-1.09e-08
1.77e-08
-6.77e-09
-4.83e-09
-5.2e-09
-3.87e-09
-1.83e-09
-9.17e-09
-6.37e-09
5.64e-09
-5.68e-09
-3.25e-09
-2.57e-10
8.95e-09
-8.69e-09
5.16e-09
5.93e-09
6.02e-10
6.28e-09
4.45e-09
-4.86e-09
-1.04e-09
-4.71e-09
-1.07e-08
-6e-09
1.67e-08
1.01e-08
-1e-09
-1.2e-08
2.26e-10
1.25e-08
8.4e-10
-3.01e-09
2.17e-09
-4.54e-09
1.18e-08
-1.37e-08
1.16e-10
1.73e-08
-1.58e-08
3.01e-09
-3.27e-09
6.32e-09
6.19e-09
1.11e-10
2.34e-09
-7.3e-09
-2.21e-09
-1.42e-08
1.65e-09
6.49e-09
1.12e-08
9.09e-09
-1.15e-08
1.8e-08
-1.41e-08
3.43e-09
3.06e-09
-5.29e-09
-6.29e-09
-1.1e-08
1.73e-08
5.01e-09
-1.75e-08
-7.03e-09
1.82e-08
-7.17e-09
1.72e-08
1.17e-08
5.82e-10
-3.44e-09
3.44e-09
-6.45e-09
-1.07e-08
1.29e-08
1.16e-08
8.32e-09
-4.97e-09
4.97e-09
-6.19e-09
-2.32e-09
-5.98e-09
4.72e-09
1.26e-09
5.98e-09
-1.01e-09
-1.63e-09
-6.45e-09
-1.3e-08
-1.31e-08
2.57e-09
-1.86e-08
6.65e-09
1.19e-08
-6.85e-09
9.86e-10
-1.12e-08
1.89e-08
-7.71e-09
-1.81e-08
6.88e-09
7.38e-09
-1.12e-08
1.78e-08
9.56e-09
-1.66e-08
-1.31e-09
8.41e-10
6.15e-09
-1.03e-08
1.14e-08
-5.93e-09
-9.94e-09
1.59e-08
-1.07e-08
1.92e-08
-7.83e-09
1.46e-08
6.18e-09
1.3e-08
1.51e-08
-1.68e-08
-1.61e-08
8.23e-09
1.19e-08
-1.94e-08
1.23e-08
-6.5e-09
1.3e-08
-2.34e-09
-1.05e-08
-6.11e-09
6.35e-09
1.26e-08
1.88e-08
-4.23e-09
-7.98e-09
1.22e-08
-3.65e-09
3.65e-09
-3.27e-09
3.27e-09
3.95e-09
-3.95e-09
3.82e-09
-3.82e-09
3.79e-09
3.89e-09
1.2e-08
-1.63e-08
4.26e-09
-5.35e-09
1.17e-08
7.08e-09
5.86e-09
-5.86e-09
-6.18e-09
6.38e-09
-6.38e-09
-1.68e-08
6.36e-09
1.04e-08
-3.35e-09
-1.81e-08
1.12e-08
6.86e-09
-3.68e-09
3.68e-09
-1.59e-08
6.3e-09
9.57e-09
-5.6e-09
-1.07e-08
-1.03e-08
1.08e-08
-4.84e-09
1.08e-08
-4.11e-09
-1.49e-08
-1.61e-08
1.05e-08
4.4e-09
3.07e-10
5.49e-10
6.36e-10
-1.01e-08
-1.8e-08
1.02e-08
7.79e-09
-1.17e-08
-5.66e-09
-5.29e-09
-4.15e-10
6.41e-09
-1.46e-08
6.63e-09
-8.31e-09
-1.2e-08
2.03e-08
-6.1e-09
-1.11e-08
4.66e-09
6.44e-09
-1.56e-09
-1.33e-08
6.27e-10
1.27e-08
-4.46e-09
4.3e-09
-4.3e-09
-2.34e-10
-8.17e-09
-6.72e-09
-7.39e-09
1.34e-08
1.38e-08
-4.22e-09
-1.34e-08
-9.33e-09
-7.8e-10
1.66e-08
-8.26e-09
-6.68e-09
-1.22e-08
-9.2e-09
-1.3e-08
-2.32e-09
-8.28e-09
-3.54e-09
-7.99e-09
-6.1e-09
-1.09e-08
-1.53e-08
-3.25e-09
1.25e-08
-1.09e-08
-9.82e-09
-1.23e-08
1.13e-08
-1.29e-08
1.6e-09
-4.3e-09
-9.01e-10
-1.32e-09
1.16e-08
-4.3e-09
-2.33e-09
1.59e-08
2.76e-09
-1.87e-08
1.77e-08
6.47e-09
8.45e-09
-6.8e-09
1.32e-08
4.15e-09
-4.15e-09
1.2e-08
2.28e-09
5.73e-09
2.23e-09
-1.01e-08
1.08e-08
-1.5e-08
1.6e-08
1.01e-08
8.39e-09
-1.47e-08
6.32e-09
-8.9e-10
1.56e-08
-5.21e-09
9.64e-09
1.22e-08
-9.42e-09
8.06e-10
4.47e-09
-1.06e-08
5.93e-09
5.43e-09
6.59e-09
9.57e-09
-1.27e-08
1.98e-09
-9.21e-09
1.8e-09
1.04e-08
-9.69e-09
1.05e-08
2.07e-09
-9.95e-09
3.9e-09
-4.2e-10
5e-09
-1.52e-08
-6.18e-10
-1.68e-08
1.71e-09
-3.58e-10
3.16e-09
1.24e-09
-9.99e-09
1.44e-08
1.26e-09
-1.45e-08
-4.68e-09
3.9e-09
1.15e-08
-8.98e-09
-1.03e-08
-5.95e-09
9.57e-09
5.94e-09
-1.07e-08
3.16e-09
6.47e-09
-1.43e-08
-1.4e-08
1.37e-08
-5.08e-10
-8.46e-09
-7.8e-09
7.8e-09
5.62e-09
-1.54e-08
-7.89e-09
7.89e-09
-1.03e-08
-1.44e-08
-1.09e-08
-1.12e-08
5.59e-09
5.43e-09
1.32e-08
-3.66e-09
-9.08e-09
9.94e-09
1.04e-08
-1.56e-08
6.64e-09
-8.22e-09
8.53e-09
-9.99e-09
-8.47e-09
-6.24e-09
-8.03e-09
-2.64e-09
-9.87e-09
-4.52e-09
6.18e-09
-8.04e-09
7.62e-09
1.76e-09
1.27e-08
-2.85e-10
-1.52e-08
-1.32e-08
-8.27e-09
-1.28e-09
-9.84e-09
-1.52e-09
-2.14e-09
-2.57e-09
-6.28e-09
6.42e-09
1.27e-08
-1.46e-09
-8.34e-09
-1.98e-10
8.63e-09
1.04e-08
-1.14e-08
-1.15e-08
-1.2e-08
-1.26e-08
-4.84e-09
3.59e-09
1.63e-09
)
;

boundaryField
{
    front
    {
        type            empty;
        value           nonuniform List<scalar> 0();
    }
    back
    {
        type            empty;
        value           nonuniform List<scalar> 0();
    }
    bottom
    {
        type            calculated;
        value           nonuniform List<scalar> 
12
(
5.27e-09
1.37e-08
1.1e-08
1.12e-08
8.14e-09
2.17e-09
2.21e-09
1.23e-08
1.41e-08
1.33e-08
8.22e-09
5.2e-09
)
;
    }
    left
    {
        type            calculated;
        value           uniform 0;
    }
    top
    {
        type            calculated;
        value           nonuniform List<scalar> 8(-1.34e-08 -1.34e-08 -1.33e-08 -1.33e-08 -1.33e-08 -1.34e-08 -1.34e-08 -1.33e-08);
    }
    right
    {
        type            calculated;
        value           uniform 0;
    }
    inner_arc
    {
        type            calculated;
        value           uniform 0;
    }
}


// ************************************************************************* //
