/*--------------------------------*- C++ -*----------------------------------*\
  =========                 |
  \\      /  F ield         | OpenFOAM: The Open Source CFD Toolbox
   \\    /   O peration     | Website:  https://openfoam.org
    \\  /    A nd           | Version:  9
     \\/     M anipulation  |
\*---------------------------------------------------------------------------*/
FoamFile
{
    format      ascii;
    class       volScalarField::Internal;
    location    "100";
    object      tmp<kEpsilon:G>;
}
// * * * * * * * * * * * * * * * * * * * * * * * * * * * * * * * * * * * * * //

dimensions      [0 2 -3 0 0 0 0];

value           nonuniform List<scalar> 
12225
(
0
0
0
0
0
0
0
0
0
0
0
0
0
0
0
0
0
0
947.141
499.212
262.494
277.652
380.029
495.5
605.259
716.49
803.084
890.981
951.718
1013.3
1052.81
1093.95
1124.93
1151.55
1217.79
1190.49
86.0752
123.047
55.4803
17.201
5.16931
4.38195
8.7832
16.6729
26.6009
38.3998
50.9312
64.1695
77.7617
90.7368
105.12
116.578
134.802
139.141
5.16787
1.72386
0.642622
0.703818
0.467339
0.186598
0.0283451
0.191865
0.796914
1.89641
3.4785
5.48966
7.97841
10.6846
14.0633
17.3608
21.963
25.5121
0.229221
0.132241
0.146864
0.311074
0.421427
0.399934
0.281908
0.145727
0.0500645
0.020935
0.0768734
0.228659
0.493616
0.863828
1.40112
2.04235
2.92339
3.74505
0.178498
0.187238
0.262599
0.315947
0.316796
0.309715
0.280209
0.227401
0.168869
0.112025
0.0640785
0.0306023
0.0185838
0.0348068
0.0905573
0.192204
0.348572
0.537105
0.127574
0.209355
0.228145
0.208872
0.206696
0.222945
0.228533
0.214717
0.192157
0.164693
0.134916
0.104099
0.0762571
0.0553799
0.047415
0.0621216
0.105987
0.184226
0.0980581
0.14736
0.157354
0.153659
0.162597
0.181025
0.19098
0.187915
0.179067
0.167064
0.152537
0.135607
0.118727
0.104712
0.0984733
0.107748
0.140418
0.199106
0.0746214
0.103825
0.120333
0.127482
0.137655
0.151666
0.160649
0.161546
0.158513
0.153723
0.14739
0.139812
0.132533
0.128121
0.13043
0.14494
0.177632
0.22707
0.0566466
0.077211
0.0960214
0.106497
0.115919
0.12732
0.135903
0.139034
0.13903
0.137861
0.136012
0.133853
0.132769
0.134758
0.142804
0.160066
0.190435
0.229754
0.0428845
0.0583441
0.0762843
0.0880398
0.0975054
0.107688
0.115975
0.120335
0.122108
0.122998
0.123716
0.124736
0.127188
0.132591
0.142966
0.159908
0.185426
0.214965
0.0329322
0.0452606
0.0616873
0.0740555
0.0836978
0.0931167
0.101036
0.106011
0.108849
0.110955
0.113118
0.115839
0.120002
0.126706
0.137224
0.152225
0.172642
0.194371
0.0250175
0.0349885
0.0498037
0.0623985
0.0722402
0.0812057
0.0888731
0.0942824
0.0979033
0.100846
0.103886
0.107517
0.112392
0.119237
0.128784
0.141198
0.156841
0.172374
0.018005
0.0260044
0.0390123
0.0512771
0.0612136
0.0699069
0.0773952
0.0831463
0.0874183
0.091017
0.0946213
0.0986933
0.103668
0.109961
0.117902
0.127375
0.138493
0.148709
0.0120281
0.018523
0.0298162
0.0413836
0.0512014
0.0596678
0.0669909
0.0729369
0.0776537
0.0816755
0.0855366
0.0896153
0.0941973
0.0994741
0.105522
0.112135
0.119362
0.125417
0.00718574
0.0125492
0.0223066
0.0329757
0.0424721
0.0506935
0.0578174
0.0637748
0.0686598
0.072813
0.0766019
0.0803048
0.0841206
0.0881326
0.0923109
0.0964579
0.100633
0.103741
0.00356635
0.00811907
0.0166209
0.0263752
0.0354129
0.0433281
0.0501862
0.0559672
0.0607377
0.0647217
0.0681531
0.0712227
0.0740823
0.0768007
0.0793429
0.0815721
0.0835362
0.0847166
0.00128979
0.00532691
0.0129401
0.0219331
0.0304576
0.0379624
0.0444254
0.0498258
0.0542064
0.0577324
0.0605721
0.0628602
0.0647264
0.0662653
0.0674816
0.0683197
0.0687718
0.0687903
0.000662356
0.00451807
0.0117826
0.0204301
0.028594
0.0356813
0.04167
0.046537
0.0503112
0.0531421
0.0552026
0.056624
0.0575371
0.0580555
0.0582253
0.0580655
0.0574923
0.0568695
0.00196903
0.0060914
0.0138165
0.0227661
0.0308339
0.0375882
0.0431613
0.0475215
0.0506646
0.0527643
0.0540524
0.0546966
0.0548436
0.0546114
0.0540602
0.0532475
0.0520427
0.0510464
0.00461901
0.00941743
0.0182777
0.0278881
0.0358324
0.042172
0.0473339
0.0512276
0.0537797
0.0552361
0.0558911
0.0559487
0.0555408
0.0547909
0.053753
0.0525282
0.0509486
0.0497509
0.00859158
0.0148529
0.0254161
0.0356195
0.0434177
0.0494557
0.0541924
0.0573878
0.0590903
0.0597815
0.0598354
0.0594059
0.0585696
0.0574285
0.0560426
0.0545307
0.0527081
0.0513796
0.0138544
0.0238961
0.0363646
0.0448588
0.0515722
0.0581711
0.0635296
0.0663157
0.0669576
0.0666142
0.0658608
0.0647663
0.0633493
0.0616963
0.0598647
0.0579788
0.0558367
0.0542146
0.0213177
0.0421871
0.0595611
0.0610569
0.0605513
0.0648309
0.0709811
0.0749496
0.0762491
0.0762061
0.0753566
0.0737242
0.0713821
0.0685785
0.065446
0.0622145
0.0586748
0.0557153
0.0430416
0.0753877
0.0940761
0.105678
0.0983675
0.0915159
0.0890563
0.0878345
0.0863251
0.0844305
0.0813823
0.0767625
0.0707352
0.0639419
0.0567977
0.049868
0.0431798
0.0376255
0.0799175
0.213213
0.0681926
0.0796617
0.168965
0.216699
0.216031
0.191066
0.159765
0.128965
0.0996499
0.0731297
0.0510878
0.0352712
0.0267733
0.0264199
0.0342413
0.0502236
0.667754
0.127119
0.31531
0.504771
0.372424
0.294926
0.228955
0.141158
0.0602002
0.0115419
0.010856
0.0689483
0.190622
0.377276
0.62395
0.928702
1.27765
1.66817
32.2321
70.906
43.2341
18.2653
7.06986
2.67377
1.11649
1.01117
1.82082
3.29071
5.26521
7.64398
10.2863
13.1703
16.1447
19.2426
22.2629
25.3093
455.616
257.632
100.992
70.5527
91.62
128.042
167.923
205.947
241.077
273.802
302.917
329.575
352.886
374.286
392.829
410.307
425.707
440.791
0
0
0
0
0
0
0
0
0
0
0
0
0
0
0
0
0
0
0
0
0
0
0
0
0
0
0
0
0
0
0
0
0
0
0
0
0
0
0
5.02774
6.50352
8.10524
9.96763
12.073
14.4548
17.1133
20.0533
23.2616
26.7309
30.4376
34.3677
38.4918
42.7935
47.2418
51.8222
56.5056
61.2818
66.1252
71.0307
75.977
80.9635
85.9731
91.0082
96.0543
101.116
106.181
111.256
116.329
121.407
126.482
131.558
136.629
141.7
146.762
151.822
156.872
161.917
166.952
171.979
176.995
182.002
186.999
191.985
196.964
201.932
206.894
211.846
216.799
221.746
226.704
231.664
236.649
241.648
246.688
251.755
256.882
262.053
267.306
272.62
278.036
283.53
289.149
294.858
300.707
306.659
312.757
318.967
325.321
331.813
338.419
345.117
351.862
358.6
365.213
371.497
377.007
380.365
386.479
396.067
399.674
408.504
411.417
420.052
423.316
426.934
428.699
428.511
432.976
432.999
432.036
434.177
430.539
426.857
423.31
420.495
414.154
406.8
400.468
390.806
380.746
369.317
356.819
343.293
328.82
313.462
297.312
280.447
262.989
245.052
226.766
208.261
189.668
171.075
152.63
134.464
116.692
99.4182
82.7384
66.7284
51.4972
37.1453
23.8956
12.5248
9.14117
17.8686
28.5828
39.0696
48.973
58.2076
66.7563
74.6341
81.833
88.3814
94.356
99.7869
104.676
109.063
112.993
116.516
119.675
122.498
125.009
127.244
129.229
130.988
132.542
133.912
135.112
136.153
137.034
137.765
138.28
138.663
138.529
138.409
136.39
134.675
121.694
0
0.151332
0.0890273
0.0127605
0.019464
0.160446
0.440537
0.860844
1.40688
2.05761
2.81914
3.62886
4.35693
4.84983
5.29952
5.96618
7.63902
8.99497
10.1104
11.2966
12.7766
14.3657
15.5851
16.5868
17.4019
17.9023
18.131
18.1126
17.8685
17.4187
16.7915
16.0221
15.1486
14.2074
13.2327
12.2539
11.296
10.3781
9.51432
8.71342
7.98068
7.31733
6.72285
6.19454
5.72957
5.32352
4.97238
4.67137
4.4166
4.20382
4.02975
3.89071
3.78389
3.70625
3.65569
3.62971
3.6266
3.64428
3.68163
3.73703
3.80951
3.89775
4.00107
4.11849
4.24955
4.3935
4.55
4.7186
4.89921
5.09164
5.29582
5.51181
5.73965
5.98008
6.23375
6.50148
6.78344
7.08029
7.393
7.72373
8.07324
8.44327
8.83499
9.2515
9.6954
10.1707
10.6797
11.2256
11.8119
12.4456
13.1411
13.9031
14.738
15.6515
16.6514
17.7456
18.9444
20.261
21.6867
23.1483
24.5848
26.1327
27.8464
29.4342
31.1096
32.7003
34.2323
35.9294
37.3983
39.323
40.9859
43.0635
45.5235
47.8661
50.5886
53.4854
56.7208
59.9552
63.1761
67.078
70.8747
74.9467
79.2403
83.5443
87.8883
92.2051
96.4535
100.585
104.536
108.246
111.671
114.758
117.47
119.779
121.671
123.12
124.125
124.689
124.837
124.623
124.16
123.414
122.113
120.284
117.248
112.462
106.909
101.268
95.7117
90.3961
85.3903
80.7182
76.3871
72.3784
68.6839
65.2916
62.2037
59.3778
56.7737
54.3889
52.211
50.2258
48.407
46.7398
45.2162
43.825
42.5535
41.3941
40.3383
39.3779
38.5068
37.7216
37.017
36.4195
35.9276
35.7392
35.9766
37.9743
42.7812
63.3808
0
0.0735401
0.155418
0.213643
0.421356
0.789576
1.32464
2.0404
2.93925
4.01095
5.24988
6.63428
8.05603
9.38144
10.6671
12.0184
13.601
14.9241
15.9313
16.6982
17.4212
18.1464
18.7948
19.2015
19.3945
19.403
19.2205
18.894
18.4626
17.9706
17.4541
16.9417
16.457
16.0162
15.6307
15.3078
15.0516
14.8625
14.74
14.6813
14.684
14.7443
14.8597
15.0266
15.2424
15.5043
15.8103
16.1581
16.5462
16.9727
17.437
17.9379
18.4751
19.0477
19.6561
20.2999
20.9797
21.6953
22.4475
23.2368
24.0644
24.9308
25.8372
26.7847
27.7746
28.8083
29.887
31.0121
32.1845
33.4057
34.6769
35.9994
37.3735
38.8001
40.2805
41.8155
43.4041
45.0441
46.7343
48.4742
50.2615
52.0926
53.964
55.8716
57.8107
59.7755
61.7617
63.7558
65.742
67.7061
69.6462
71.5592
73.4353
75.2586
77.0134
78.6799
80.2395
81.6733
83.0553
84.4453
85.6097
86.5991
87.7154
88.8675
90.3062
91.8549
93.7744
95.9094
98.1367
100.821
103.324
106.186
109.478
112.817
116.629
120.825
125.374
130.024
134.878
140.247
145.697
151.425
157.355
163.292
169.16
174.82
180.169
185.082
189.451
193.157
196.116
198.237
199.471
199.776
199.147
197.587
195.138
191.853
187.882
183.287
177.944
171.568
163.875
155.154
146.318
138.244
130.834
123.616
116.486
109.525
102.815
96.4076
90.3402
84.6334
79.2955
74.3192
69.7282
65.4835
61.5415
57.9089
54.5682
51.502
48.6823
46.0935
43.7216
41.5488
39.5558
37.7318
36.0655
34.5439
33.1576
31.9029
30.7796
29.8136
29.0426
28.6391
28.8359
30.4263
33.4012
41.6092
0
0.378642
0.789211
1.09167
1.50551
2.04933
2.73784
3.58471
4.59437
5.76285
7.09053
8.55698
10.0804
11.5546
12.9487
14.3308
15.725
16.9195
17.8373
18.5056
18.9948
19.3906
19.6843
19.8716
19.9606
19.9711
19.9106
19.7927
19.6479
19.5008
19.3706
19.2739
19.2224
19.2253
19.288
19.4137
19.6045
19.8611
20.1839
20.5723
21.0261
21.544
22.1254
22.7689
23.4735
24.2377
25.0605
25.9408
26.8777
27.8704
28.9189
30.0231
31.1834
32.4002
33.6748
35.0082
36.4019
37.8574
39.3765
40.9611
42.6132
44.3347
46.1276
47.9937
49.9348
51.9526
54.0484
56.2232
58.4775
60.8114
63.2246
65.7166
68.2855
70.9292
73.6458
76.433
79.2853
82.1962
85.1592
88.1685
91.2155
94.2911
97.3858
100.491
103.594
106.684
109.752
112.777
115.733
118.604
121.381
124.065
126.648
129.118
131.462
133.67
135.74
137.686
139.56
141.377
143.034
144.572
146.205
147.926
149.823
151.786
153.882
156.153
158.569
161.313
164.103
167.222
170.702
174.414
178.564
183.149
188.205
193.434
198.944
204.881
211.038
217.468
224.072
230.678
237.149
243.33
249.06
254.187
258.561
262.044
264.518
265.886
266.081
265.067
262.847
259.445
254.947
249.462
242.963
235.272
226.242
216.176
205.591
194.767
183.931
173.397
163.256
153.403
143.824
134.576
125.726
117.319
109.385
101.938
94.9857
88.5171
82.5303
77.0047
71.9099
67.2346
62.9387
59.0011
55.3813
52.061
49.0226
46.2421
43.6945
41.3677
39.2446
37.3094
35.553
33.9715
32.5704
31.3844
30.4729
30.0181
30.2768
32.0597
35.9394
42.9947
0
1.01801
1.94198
2.6274
3.27032
3.94818
4.70083
5.54752
6.49652
7.54912
8.70624
9.95568
11.2505
12.5249
13.734
14.8749
15.9412
16.8662
17.6019
18.1433
18.5165
18.7572
18.8981
18.9784
19.0324
19.0815
19.1392
19.2163
19.3227
19.4683
19.6644
19.9197
20.2426
20.6401
21.1175
21.6796
22.3292
23.068
23.8967
24.8151
25.8225
26.9175
28.0985
29.3637
30.7113
32.1394
33.6465
35.2313
36.8932
38.6317
40.4472
42.3405
44.3131
46.3669
48.5044
50.7284
53.0421
55.4488
57.9522
60.5558
63.2635
66.0785
69.0041
72.043
75.1978
78.4702
81.8613
85.3715
89.0001
92.7456
96.6054
100.576
104.652
108.827
113.095
117.448
121.875
126.364
130.903
135.476
140.069
144.666
149.249
153.801
158.305
162.742
167.095
171.337
175.444
179.386
183.153
186.746
190.155
193.373
196.389
199.201
201.811
204.238
206.507
208.637
210.595
212.407
214.173
215.935
217.719
219.491
221.289
223.185
225.196
227.414
229.775
232.391
235.329
238.617
242.305
246.43
250.945
255.795
261.023
266.642
272.547
278.774
285.193
291.669
298.025
304.099
309.692
314.639
318.752
321.881
323.869
324.609
324.007
322.028
318.665
313.978
307.946
300.472
291.41
280.898
269.321
257.012
244.244
231.29
218.396
205.788
193.526
181.602
170.043
158.915
148.279
138.185
128.661
119.724
111.381
103.621
96.4348
89.7962
83.6692
78.0334
72.8548
68.1187
63.7804
59.8116
56.1821
52.8643
49.8212
47.0442
44.5136
42.2131
40.1338
38.2733
36.6444
35.2903
34.2877
33.8253
34.1589
35.9774
39.8529
45.9401
0
1.82195
3.34058
4.50445
5.38919
6.16935
6.92497
7.68944
8.48158
9.31115
10.1808
11.0834
11.996
12.8851
13.7211
14.4882
15.1764
15.7651
16.2363
16.5857
16.8256
16.9817
17.0853
17.17
17.2665
17.3977
17.5791
17.8218
18.1353
18.5286
19.0108
19.5903
20.2748
21.0706
21.9825
23.0137
24.1665
25.4416
26.8389
28.357
29.994
31.7471
33.6135
35.59
37.6738
39.8622
42.1533
44.5455
47.0383
49.6317
52.327
55.126
58.0317
61.0476
64.1782
67.4283
70.8036
74.3098
77.9528
81.7387
85.6731
89.7616
94.009
98.4194
102.996
107.741
112.656
117.74
122.991
128.405
133.976
139.699
145.562
151.556
157.667
163.88
170.179
176.543
182.952
189.383
195.811
202.213
208.56
214.828
220.991
227.02
232.889
238.569
244.027
249.227
254.158
258.805
263.164
267.225
270.979
274.424
277.562
280.409
282.974
285.283
287.32
289.117
290.716
292.174
293.501
294.712
295.845
296.974
298.129
299.376
300.776
302.425
304.303
306.467
309.005
311.979
315.372
319.16
323.361
327.972
332.96
338.315
343.93
349.662
355.343
360.785
365.788
370.152
373.68
376.188
377.502
377.489
376.039
373.115
368.637
362.482
354.508
344.717
333.36
320.76
307.212
293.014
278.438
263.734
249.126
234.789
220.793
207.175
193.988
181.301
169.179
157.673
146.813
136.616
127.089
118.224
110.002
102.396
95.3744
88.911
82.9682
77.5172
72.522
67.9613
63.7951
59.992
56.5175
53.3483
50.4632
47.8413
45.4788
43.3776
41.5573
40.0669
38.9939
38.5228
38.8902
40.6393
44.1724
49.2619
0
2.59858
4.66199
6.29439
7.40121
8.25818
8.98476
9.62968
10.2236
10.7867
11.3297
11.8556
12.3595
12.8313
13.26
13.6387
13.9638
14.2322
14.4427
14.5997
14.7152
14.8081
14.9014
15.0194
15.1851
15.4183
15.7348
16.1471
16.6665
17.3031
18.0663
18.9647
20.006
21.1965
22.5409
24.0426
25.703
27.5224
29.4993
31.6312
33.9147
36.3457
38.92
41.6331
44.4812
47.4608
50.5695
53.8058
57.1693
60.6608
64.2827
68.0383
71.9323
75.9703
80.1592
84.5066
89.021
93.7109
98.5854
103.653
108.923
114.402
120.098
126.017
132.164
138.54
145.147
151.985
159.048
166.332
173.828
181.525
189.407
197.458
205.658
213.985
222.413
230.913
239.456
248.007
256.533
264.997
273.363
281.594
289.654
297.505
305.11
312.436
319.435
326.071
332.316
338.155
343.581
348.578
353.137
357.25
360.921
364.15
366.95
369.334
371.315
372.915
374.169
375.122
375.798
376.217
376.446
376.561
376.604
376.62
376.706
376.91
377.302
377.955
378.957
380.346
382.138
384.348
387.019
390.146
393.739
397.761
402.13
406.693
411.299
415.741
419.826
423.315
426.015
427.703
428.189
427.307
424.886
420.737
414.673
406.551
396.487
384.718
371.506
357.126
341.871
326.015
309.83
293.547
277.384
261.494
245.97
230.865
216.252
202.199
188.777
176.034
164.002
152.698
142.129
132.285
123.146
114.681
106.862
99.6544
93.0221
86.9314
81.3459
76.236
71.5752
67.3266
63.4515
59.9203
56.7099
53.8016
51.1898
48.8758
46.8856
45.2729
44.1283
43.6226
43.9595
45.5505
48.5882
52.6931
0
3.22761
5.67673
7.65505
8.92377
9.82423
10.504
11.0236
11.4249
11.739
11.9863
12.1805
12.3305
12.4425
12.5211
12.5715
12.5997
12.6123
12.6169
12.6231
12.6434
12.6933
12.7899
12.9512
13.1947
13.5367
13.9918
14.5733
15.2935
16.1638
17.1948
18.3962
19.7763
21.342
23.0984
25.0484
27.1935
29.5329
32.0643
34.7843
37.6883
40.7711
44.0272
47.4514
51.039
54.7862
58.6905
62.7506
66.9669
71.3416
75.8783
80.5823
85.4606
90.5215
95.7747
101.231
106.903
112.801
118.94
125.33
131.983
138.911
146.124
153.628
161.432
169.537
177.946
186.657
195.665
204.962
214.535
224.369
234.444
244.736
255.218
265.858
276.621
287.469
298.359
309.248
320.088
330.832
341.431
351.836
361.997
371.867
381.4
390.548
399.253
407.475
415.172
422.332
428.935
434.963
440.401
445.239
449.474
453.096
456.123
458.557
460.433
461.784
462.622
462.99
462.939
462.513
461.738
460.696
459.45
458.072
456.637
455.218
453.895
452.771
451.929
451.43
451.309
451.613
452.399
453.696
455.529
457.874
460.643
463.705
466.9
470.044
472.919
475.278
476.898
477.538
476.916
474.795
470.902
464.982
456.972
446.97
435.13
421.66
406.81
390.847
374.051
356.696
339.04
321.313
303.719
286.416
269.505
253.064
237.169
221.894
207.307
193.457
180.377
168.081
156.576
145.852
135.885
126.647
118.104
110.221
102.96
96.2835
90.1551
84.5439
79.4164
74.7479
70.4986
66.6307
63.1172
59.9392
57.0916
54.5808
52.4331
50.6991
49.468
48.8902
49.1283
50.4846
52.9585
56.1491
0
3.62614
6.24257
8.39258
9.73257
10.6309
11.248
11.6518
11.8922
12.0093
12.0319
11.9818
11.8775
11.7352
11.5701
11.3962
11.2269
11.0752
10.9531
10.873
10.8474
10.8897
11.0138
11.2339
11.5645
12.0197
12.6137
13.36
14.2716
15.3614
16.6409
18.1209
19.8107
21.7178
23.8476
26.2032
28.7857
31.594
34.6255
37.876
41.3402
45.0123
48.8863
52.9566
57.2185
61.6681
66.3034
71.1242
76.132
81.3307
86.7263
92.3264
98.1407
104.181
110.46
116.992
123.794
130.881
138.27
145.977
154.018
162.406
171.154
180.274
189.774
199.657
209.928
220.582
231.614
243.013
254.764
266.846
279.233
291.895
304.795
317.892
331.141
344.492
357.89
371.279
384.597
397.785
410.779
423.516
435.934
447.973
459.574
470.672
481.212
491.13
500.39
508.967
516.834
523.969
530.353
535.976
540.819
544.878
548.153
550.678
552.454
553.559
554.029
553.874
553.127
551.827
550.044
547.849
545.314
542.511
539.511
536.399
533.281
530.282
527.485
524.961
522.766
520.981
519.675
518.926
518.76
519.182
520.09
521.379
522.877
524.409
525.758
526.642
526.795
525.944
523.714
519.799
513.979
506.18
496.388
484.689
471.22
456.188
439.825
422.398
404.171
385.42
366.393
347.322
328.401
309.796
291.615
273.954
256.891
240.506
224.862
210.011
195.982
182.789
170.436
158.913
148.195
138.252
129.048
120.547
112.709
105.495
98.8673
92.7911
87.2327
82.1657
77.5607
73.3719
69.5698
66.1355
63.0637
60.3612
58.0546
56.1942
54.8578
54.1694
54.2489
55.3125
57.2056
59.5843
0
3.76716
6.32613
8.46483
9.77433
10.6172
11.1534
11.4539
11.5739
11.5594
11.4439
11.2541
11.013
10.7415
10.4591
10.1841
9.93329
9.72227
9.56511
9.47491
9.46414
9.54497
9.72975
10.0312
10.4624
11.0369
11.7688
12.6723
13.7614
15.0499
16.5507
18.2756
20.2347
22.4364
24.8866
27.5889
30.5444
33.7523
37.2098
40.9126
44.8554
49.0325
53.438
58.0666
62.9139
67.9771
73.2553
78.7496
84.4637
90.4037
96.5783
102.998
109.676
116.628
123.869
131.42
139.301
147.532
156.133
165.124
174.526
184.356
194.63
205.362
216.563
228.238
240.391
253.019
266.113
279.661
293.644
308.035
322.804
337.911
353.311
368.953
384.78
400.729
416.733
432.721
448.617
464.346
479.831
494.993
509.758
524.049
537.792
550.917
563.356
575.032
585.911
595.949
605.121
613.405
620.777
627.221
632.708
637.243
640.811
643.458
645.228
646.194
646.36
645.731
644.359
642.296
639.602
636.351
632.614
628.468
623.986
619.263
614.43
609.603
604.878
600.331
596.045
592.128
588.672
585.772
583.427
581.672
580.468
579.695
579.186
578.778
578.253
577.284
575.543
572.661
568.371
562.446
554.726
545.123
533.619
520.284
505.253
488.718
470.906
452.071
432.478
412.393
392.066
371.724
351.561
331.746
312.391
293.604
275.469
258.066
241.459
225.695
210.802
196.794
183.671
171.421
160.018
149.431
139.623
130.555
122.187
114.479
107.39
100.884
94.9262
89.4876
84.5437
80.0466
75.9667
72.2846
68.9946
66.1031
63.635
61.6348
60.1695
59.3373
59.2117
59.9456
61.2718
62.9482
0
3.67433
5.98317
7.94775
9.13199
9.86572
10.3013
10.5086
10.5463
10.4623
10.2925
10.0643
9.80098
9.52303
9.24923
8.99691
8.78207
8.61939
8.52228
8.50311
8.5736
8.74531
9.03002
9.44006
9.98858
10.6896
11.5579
12.6089
13.8578
15.3198
17.009
18.9386
21.1201
23.5629
26.2737
29.2569
32.5143
36.0457
39.8489
43.9202
48.2549
52.8479
57.6941
62.7894
68.1306
73.7165
79.5478
85.6279
91.9628
98.5617
105.436
112.601
120.071
127.867
136.01
144.523
153.43
162.757
172.528
182.767
193.498
204.743
216.52
228.848
241.738
255.199
269.233
283.838
299.003
314.713
330.945
347.668
364.842
382.422
400.351
418.569
437.006
455.585
474.225
492.839
511.339
529.631
547.624
565.225
582.344
598.888
614.774
629.923
644.244
657.669
670.138
681.614
692.074
701.488
709.837
717.09
723.23
728.243
732.136
734.976
736.812
737.692
737.626
736.628
734.756
732.058
728.599
724.443
719.662
714.316
708.49
702.293
695.859
689.297
682.702
676.166
669.806
663.747
658.124
652.993
648.422
644.446
641.039
638.066
635.398
632.819
630.073
626.843
622.841
617.763
611.375
603.444
593.825
582.397
569.163
554.177
537.576
519.533
500.274
480.039
459.097
437.705
416.118
394.555
373.213
352.262
331.807
311.978
292.858
274.523
257.036
240.442
224.763
210.015
196.196
183.287
171.262
160.089
149.73
140.145
131.294
123.132
115.62
108.719
102.392
96.6096
91.3448
86.5531
82.2055
78.2835
74.7798
71.6998
69.0646
66.9122
65.2959
64.2895
63.9274
64.3137
65.1055
66.1832
0
3.39942
5.32283
6.99395
7.9786
8.55878
8.87339
8.99266
8.9766
8.8733
8.71808
8.53675
8.34913
8.17131
8.01706
7.89864
7.82732
7.81366
7.86774
7.99948
8.21894
8.53673
8.96433
9.51444
10.2009
11.0389
12.0448
13.2354
14.6282
16.2399
18.0865
20.1831
22.5428
25.1766
28.0927
31.2967
34.7919
38.5793
42.658
47.0256
51.6789
56.6139
61.8274
67.3169
73.0813
79.1215
85.4406
92.0446
98.9422
106.146
113.67
121.533
129.755
138.359
147.37
156.815
166.724
177.125
188.047
199.517
211.563
224.21
237.48
251.393
265.964
281.201
297.11
313.687
330.92
348.789
367.267
386.316
405.89
425.934
446.382
467.159
488.185
509.367
530.61
551.812
572.867
593.666
614.103
634.07
653.459
672.169
690.102
707.165
723.259
738.308
752.244
765.04
776.666
787.094
796.305
804.263
810.961
816.383
820.564
823.557
825.429
826.207
825.915
824.574
822.248
818.98
814.836
809.876
804.167
797.779
790.797
783.346
775.534
767.46
759.216
750.904
742.672
734.659
727.01
719.794
713.113
706.954
701.27
695.98
690.911
685.868
680.597
674.84
668.356
660.895
652.239
642.185
630.571
617.31
602.371
585.78
567.653
548.156
527.501
505.93
483.705
461.084
438.314
415.62
393.192
371.207
349.751
328.965
308.942
289.758
271.471
254.124
237.733
222.326
207.885
194.386
181.803
170.103
159.247
149.197
139.909
131.338
123.441
116.178
109.514
103.416
97.8524
92.7829
88.1809
84.0282
80.3165
77.0492
74.2424
71.9266
70.1413
68.9379
68.3196
68.3567
68.6566
69.2302
0
3.00801
4.4752
5.78455
6.52249
6.91863
7.09741
7.1308
7.08014
6.99316
6.9035
6.83328
6.79661
6.80241
6.85652
6.96314
7.12593
7.3487
7.63599
7.99343
8.4281
8.94891
9.56671
10.2945
11.147
12.141
13.2946
14.6272
16.1582
17.9072
19.8928
22.133
24.6426
27.4351
30.5208
33.9076
37.6012
41.6047
45.9193
50.5447
55.4798
60.7232
66.2741
72.1324
78.2996
84.7791
91.5767
98.7009
106.163
113.979
122.165
130.742
139.737
149.174
159.082
169.493
180.437
191.948
204.056
216.792
230.187
244.268
259.06
274.583
290.855
307.884
325.676
344.224
363.514
383.52
404.212
425.548
447.472
469.922
492.819
516.078
539.604
563.291
587.027
610.695
634.173
657.338
680.069
702.241
723.735
744.436
764.231
783.017
800.696
817.172
832.391
846.314
858.915
870.176
880.071
888.584
895.697
901.426
905.779
908.851
910.678
911.313
910.775
909.11
906.36
902.582
897.83
892.164
885.649
878.367
870.409
861.885
852.887
843.495
833.794
823.908
813.982
804.178
794.608
785.36
776.477
767.98
759.839
751.895
744.101
736.306
728.337
720.099
711.292
701.71
691.043
679.078
665.646
650.568
633.861
615.593
595.867
574.85
552.747
529.807
506.285
482.44
458.512
434.724
411.262
388.322
365.936
344.305
323.491
303.569
284.587
266.584
249.572
233.574
218.586
204.567
191.491
179.325
168.031
157.572
147.901
138.965
130.725
123.138
116.17
109.787
103.95
98.6254
93.7866
89.4164
85.5053
82.0543
79.0745
76.588
74.6213
73.2066
72.3234
72.0214
71.8771
72.0296
0
2.56787
3.56883
4.49919
4.97261
5.17104
5.20758
5.15814
5.08665
5.04094
5.05241
5.13846
5.30623
5.55606
5.88434
6.28562
6.75431
7.2859
7.87778
8.52988
9.24501
10.0293
10.8921
11.8462
12.907
14.093
15.425
16.9242
18.6138
20.5165
22.6542
25.0492
27.7187
30.6798
33.9456
37.5274
41.4335
45.6702
50.2418
55.1515
60.4011
65.992
71.926
78.2051
84.8342
91.8192
99.1685
106.893
115.007
123.528
132.476
141.874
151.751
162.133
173.05
184.536
196.622
209.342
222.731
236.821
251.643
267.226
283.595
300.772
318.772
337.607
357.277
377.774
399.082
421.174
444.012
467.549
491.724
516.461
541.675
567.267
593.127
619.138
645.173
671.099
696.781
722.083
746.865
770.994
794.337
816.762
838.156
858.402
877.398
895.044
911.282
926.08
939.41
951.265
961.626
970.494
977.854
983.737
988.115
991.154
992.841
993.262
992.444
990.435
987.265
982.998
977.676
971.354
964.089
955.948
947.027
937.42
927.206
916.458
905.261
893.765
882.14
870.524
859.007
847.612
836.348
825.32
814.52
804.057
793.755
783.588
773.465
762.95
751.868
739.928
727.01
712.896
697.433
680.421
661.997
642.109
620.86
598.405
574.954
550.749
526.05
501.106
476.155
451.41
427.053
403.286
380.111
357.737
336.235
315.672
296.094
277.533
259.988
243.526
228.098
213.652
200.167
187.612
175.945
165.129
155.125
145.873
137.332
129.464
122.233
115.599
109.523
103.971
98.9186
94.3488
90.251
86.6243
83.4743
80.8152
78.6615
77.0303
75.8836
75.261
74.7209
74.5242
0
2.13396
2.70597
3.28077
3.49917
3.50551
3.40722
3.28678
3.21185
3.23078
3.37232
3.64885
4.06018
4.59785
5.24867
5.99746
6.82921
7.73073
8.69173
9.70566
10.7704
11.8881
13.0667
14.3176
15.6572
17.1055
18.6862
20.4231
22.3424
24.4698
26.8309
29.4503
32.3512
35.5552
39.0803
42.9422
47.1535
51.7249
56.6648
61.9803
67.6771
73.7604
80.2354
87.1076
94.383
102.07
110.179
118.721
127.712
137.169
147.112
157.565
168.552
180.102
192.245
205.012
218.438
232.554
247.396
262.995
279.377
296.572
314.603
333.494
353.26
373.91
395.447
417.861
441.13
465.224
490.101
515.705
541.968
568.806
596.124
623.807
651.739
679.784
707.805
735.657
763.19
790.255
816.703
842.389
867.173
890.913
913.474
934.756
954.634
973.028
989.878
1005.14
1018.81
1030.88
1041.35
1050.23
1057.54
1063.27
1067.41
1070.17
1071.5
1071.51
1070.26
1067.75
1064.02
1059.14
1053.13
1046.04
1037.93
1028.86
1018.93
1008.23
996.805
984.723
972.081
959.008
945.598
932.013
918.355
904.71
891.246
877.948
865.059
852.317
839.768
827.177
814.44
801.443
787.891
773.804
758.828
742.744
725.4
706.665
686.535
665.045
642.299
618.454
593.721
568.339
542.565
516.643
490.801
465.241
440.133
415.64
391.856
368.906
346.872
325.818
305.785
286.799
268.853
251.991
236.203
221.418
207.611
194.747
182.784
171.7
161.442
151.936
143.155
135.056
127.598
120.747
114.466
108.718
103.48
98.7329
94.4661
90.677
87.3645
84.5366
82.198
80.3523
78.9527
78.0331
77.1442
76.6614
0
1.74582
1.94383
2.21012
2.1995
2.03404
1.82324
1.65842
1.61156
1.73097
2.04198
2.55139
3.25176
4.1266
5.15428
6.31119
7.57419
8.92244
10.3386
11.8102
13.3301
14.8975
16.518
18.201
19.9626
21.8236
23.809
25.9461
28.266
30.7989
33.5765
36.6284
39.9831
43.6668
47.7031
52.1128
56.9143
62.1232
67.753
73.8152
80.3196
87.2751
94.6898
102.572
110.929
119.769
129.101
138.935
149.285
160.164
171.591
183.585
196.168
209.364
223.201
237.702
252.896
268.812
285.474
302.912
321.152
340.216
360.13
380.911
402.576
425.13
448.576
472.899
498.076
524.071
550.839
578.32
606.435
635.096
664.191
693.603
723.189
752.816
782.333
811.583
840.408
868.647
896.146
922.756
948.317
972.685
995.731
1017.33
1037.39
1055.83
1072.58
1087.62
1100.93
1112.51
1122.42
1130.66
1137.27
1142.24
1145.54
1147.43
1147.86
1146.95
1144.77
1141.27
1136.53
1130.57
1123.44
1115.17
1105.82
1095.47
1084.19
1072
1058.95
1045.13
1030.64
1015.67
1000.42
984.94
969.354
953.95
938.57
923.382
908.267
893.295
878.5
863.683
849.013
834.134
818.818
802.864
786.058
768.211
749.185
728.875
707.274
684.413
660.388
635.36
609.536
583.16
556.482
529.745
503.163
476.929
451.199
426.127
401.814
378.377
355.893
334.425
314.009
294.67
276.408
259.238
243.142
228.079
214.008
200.889
188.676
177.345
166.858
157.142
148.159
139.867
132.226
125.203
118.756
112.842
107.441
102.536
98.1133
94.1702
90.7025
87.7108
85.1901
83.1375
81.4988
80.307
79.1108
78.4007
0
1.43519
1.36886
1.40655
1.2274
0.946506
0.68142
0.532216
0.572958
0.849269
1.38157
2.1707
3.20364
4.45846
5.90863
7.52582
9.28226
11.1526
13.1153
15.154
17.2586
19.4256
21.6582
23.9659
26.3651
28.8788
31.5343
34.3635
37.4006
40.6803
44.2379
48.1086
52.3248
56.9214
61.9268
67.3677
73.2675
79.6465
86.5219
93.9069
101.815
110.255
119.236
128.767
138.852
149.499
160.711
172.49
184.843
197.773
211.292
225.408
240.137
255.493
271.493
288.15
305.486
323.518
342.267
361.753
381.994
403.012
424.816
447.43
470.861
495.121
520.211
546.116
572.81
600.261
628.421
657.228
686.603
716.448
746.646
777.065
807.564
837.996
868.212
898.047
927.335
955.913
983.623
1010.31
1035.82
1059.99
1082.7
1103.84
1123.32
1141.04
1156.97
1171.05
1183.29
1193.71
1202.37
1209.34
1214.64
1218.23
1220.13
1220.66
1219.68
1217.42
1213.82
1208.88
1202.66
1195.16
1186.43
1176.51
1165.43
1153.3
1140.15
1126.08
1111.11
1095.31
1078.82
1061.91
1044.64
1027.21
1009.69
992.073
974.477
957.058
939.756
922.872
906.222
889.686
873.153
856.461
839.391
821.775
803.388
784.069
763.689
742.162
719.461
695.614
670.715
644.917
618.423
591.474
564.315
537.177
510.257
483.727
457.735
432.421
407.898
384.271
361.616
339.989
319.428
299.954
281.566
264.266
248.038
232.846
218.648
205.402
193.079
181.632
171.018
161.183
152.081
143.672
135.911
128.765
122.196
116.163
110.643
105.617
101.073
97.0065
93.4039
90.2635
87.5777
85.3354
83.4785
82.0442
80.5782
79.7011
0
1.21182
1.00663
0.918487
0.654714
0.341253
0.106732
0.0554887
0.258482
0.755412
1.56156
2.6746
4.0798
5.75461
7.67278
9.80754
12.133
14.6254
17.263
20.0299
22.9173
25.9231
29.0517
32.3149
35.7271
39.315
43.1094
47.1456
51.4608
56.0926
61.0788
66.4569
72.2619
78.5315
85.2958
92.5849
100.425
108.834
117.829
127.424
137.626
148.441
159.87
171.916
184.576
197.846
211.718
226.184
241.231
256.855
273.042
289.798
307.119
325.01
343.468
362.497
382.102
402.293
423.079
444.472
466.481
489.118
512.398
536.332
560.933
586.219
612.191
638.846
666.164
694.12
722.675