/*--------------------------------*- C++ -*----------------------------------*\
  =========                 |
  \\      /  F ield         | OpenFOAM: The Open Source CFD Toolbox
   \\    /   O peration     | Website:  https://openfoam.org
    \\  /    A nd           | Version:  9
     \\/     M anipulation  |
\*---------------------------------------------------------------------------*/
FoamFile
{
    format      ascii;
    class       volScalarField;
    location    "0.93";
    object      p;
}
// * * * * * * * * * * * * * * * * * * * * * * * * * * * * * * * * * * * * * //

dimensions      [0 2 -2 0 0 0 0];

internalField   nonuniform List<scalar> 
578
(
-2.1558e-21
-1.3157e-20
-1.80736e-23
5.3575e-21
-1.73624e-20
1.35292e-20
1.86612e-20
-1.20373e-20
-1.18311e-20
-2.23921e-20
8.57066e-21
-1.1771e-20
4.85624e-21
-1.55307e-20
1.67955e-20
2.2832e-21
-3.7062e-21
-1.89985e-21
-8.93022e-21
-8.57872e-21
5.36348e-21
3.11515e-21
5.28864e-21
7.74453e-21
7.49859e-21
-8.56434e-21
3.35245e-21
1.77308e-21
-8.6857e-21
1.93116e-21
2.68054e-21
1.4742e-20
-3.89529e-21
4.76888e-21
1.63022e-20
-5.25228e-21
-1.49186e-20
-1.13999e-20
4.96491e-21
-1.99343e-20
-1.57454e-20
-1.07564e-20
-1.33113e-20
1.69963e-20
-3.08755e-21
2.19759e-20
1.73252e-20
-1.21156e-20
5.27673e-21
3.14193e-21
1.89512e-20
4.85726e-21
1.82845e-20
4.80346e-21
4.5959e-21
-2.77063e-21
5.34103e-21
3.9699e-21
9.53846e-22
-8.47691e-21
-2.21411e-21
-6.38471e-21
-5.73583e-21
-1.67621e-20
4.3926e-21
1.5447e-20
-3.0589e-21
1.02251e-20
7.902e-21
-7.92036e-21
5.13208e-21
1.42796e-20
4.49437e-21
-8.82122e-21
8.71649e-21
-1.7898e-20
-1.51646e-20
-1.26329e-20
4.56815e-21
1.56797e-20
1.53647e-20
-8.54495e-21
2.27804e-20
2.19805e-20
6.51618e-21
9.49976e-21
2.16002e-20
-6.31424e-22
-1.01652e-20
7.65469e-21
3.27174e-21
1.01835e-20
1.22687e-20
5.05467e-21
9.20261e-21
1.39688e-20
4.51307e-21
4.62345e-21
-2.08726e-20
1.87011e-20
1.4936e-20
-9.13052e-21
3.86574e-21
1.37677e-20
4.19003e-21
-1.75398e-20
9.1752e-21
-1.83517e-20
1.08401e-20
-1.57722e-20
-5.67696e-21
-8.82122e-21
-9.52617e-21
1.1426e-20
1.27707e-20
4.10422e-21
5.227e-21
-2.54766e-21
7.42117e-21
4.34413e-21
-7.36214e-21
2.88526e-20
-1.08252e-20
5.08938e-21
1.82347e-20
4.58242e-21
1.3607e-20
1.59999e-21
1.1184e-20
8.67499e-22
1.00711e-20
3.83745e-21
5.0907e-21
-7.89242e-21
8.84697e-21
1.2818e-20
-1.54166e-20
4.17878e-21
7.64423e-21
1.08548e-20
1.15515e-20
2.20019e-21
1.02252e-20
6.77354e-22
-9.29008e-21
9.0648e-21
2.83232e-21
3.04485e-21
-1.04085e-20
-1.33197e-21
-1.25441e-20
9.29049e-21
-1.70001e-20
-7.21362e-21
1.71727e-20
3.19082e-21
-5.61852e-21
5.34069e-21
1.89381e-20
-1.23937e-20
-1.3394e-20
-1.32597e-20
1.29444e-20
-1.22674e-20
-1.86361e-21
2.08703e-21
4.56219e-22
1.65533e-20
5.74912e-21
4.00087e-21
-1.09794e-20
-1.6364e-20
1.34549e-20
6.84517e-21
1.54736e-20
4.22219e-21
4.47194e-21
-3.17983e-21
-1.26384e-20
-6.64736e-21
1.68113e-20
-8.10141e-21
6.86036e-21
4.54249e-21
1.31983e-20
3.37671e-21
7.49816e-22
1.70632e-20
1.66513e-20
-1.12183e-20
-1.51164e-20
-1.39163e-20
7.86654e-21
1.63217e-20
-1.59187e-20
4.23232e-21
6.29399e-21
2.4845e-21
1.56393e-20
-1.47062e-20
5.53177e-21
4.70237e-21
3.00243e-20
3.80994e-21
4.25216e-21
-1.49181e-20
1.4952e-20
3.02723e-21
-1.39317e-20
7.03813e-21
9.85661e-22
1.52089e-20
8.28453e-21
4.52963e-21
8.88604e-21
4.8749e-21
1.63011e-20
-1.47536e-20
1.73413e-20
3.83448e-21
-1.53535e-20
1.43406e-20
-4.86114e-21
-1.4719e-20
1.78221e-20
4.66249e-21
4.22576e-21
5.96534e-21
2.86912e-21
-7.64661e-21
-1.91494e-20
2.86184e-20
7.96004e-21
-5.31314e-21
5.23642e-21
-1.05029e-20
-1.53486e-20
1.71977e-20
5.00605e-21
-8.31529e-22
1.5373e-20
-1.58771e-20
3.92903e-21
1.44378e-20
2.43669e-21
-9.43623e-21
1.04088e-20
-1.93395e-20
1.12831e-20
4.12841e-21
4.33573e-21
6.54137e-21
1.6384e-20
2.83134e-21
1.51116e-20
-2.18313e-21
-4.67599e-21
1.4647e-20
-1.20275e-20
2.54946e-20
-3.76833e-21
1.73417e-20
6.27846e-21
6.4609e-21
-8.79239e-21
-6.31327e-21
4.82352e-21
-1.34145e-21
-1.49859e-20
5.52182e-21
-5.46701e-21
3.25677e-21
3.46517e-21
4.01067e-21
4.73487e-21
4.25932e-21
3.37921e-21
1.53797e-21
1.67417e-20
4.59038e-21
-1.60288e-20
3.88347e-21
4.03846e-21
4.46126e-21
4.16196e-21
9.4868e-21
-5.03567e-21
5.00575e-21
5.27139e-21
4.74332e-21
2.86969e-21
6.38048e-21
3.54914e-21
1.51367e-20
6.03492e-21
6.28657e-21
-1.54391e-20
-8.10141e-22
3.81108e-21
6.00383e-21
4.13444e-21
-2.77745e-21
4.64066e-21
2.2674e-21
6.28073e-21
3.68518e-21
1.44804e-21
-4.36797e-21
4.32486e-21
4.25956e-21
-2.70468e-21
3.02111e-21
3.96153e-21
-3.41214e-21
4.88899e-21
4.16292e-21
5.48133e-21
-2.73751e-21
-4.76675e-21
4.82475e-21
6.0622e-21
3.91367e-21
4.1308e-21
6.39903e-21
4.18704e-21
3.42413e-21
1.47196e-20
1.31401e-20
-1.53654e-20
3.04188e-21
4.15476e-21
1.27504e-20
3.6303e-21
3.6925e-21
7.70819e-21
5.5161e-21
4.7484e-21
3.87281e-21
-5.0239e-22
3.47069e-21
4.26089e-21
4.30017e-21
2.75918e-21
-2.53891e-21
4.63418e-21
1.56218e-20
8.88857e-21
9.55493e-21
-9.67527e-21
1.26891e-20
-1.16627e-20
-1.40862e-20
1.57406e-20
-4.88627e-22
-1.80578e-20
2.0139e-20
5.52547e-21
1.81874e-20
-1.80078e-20
1.96552e-20
3.49096e-21
-2.21623e-21
4.98467e-21
-7.36574e-21
3.77022e-21
3.74975e-21
2.54494e-21
1.30604e-20
4.75979e-21
3.5519e-21
-1.16639e-20
-6.7993e-21
9.26857e-21
9.56518e-21
9.92279e-21
2.15306e-20
3.77858e-21
1.17008e-20
-1.21681e-20
4.14417e-22
4.3885e-21
-1.29085e-20
1.45827e-20
6.03113e-21
5.04156e-21
3.06191e-21
3.28444e-21
1.89475e-20
1.68403e-20
-8.63556e-21
4.79156e-21
5.10755e-21
5.88547e-21
-1.97279e-21
3.14848e-21
3.94768e-21
1.4529e-20
1.87108e-21
5.02151e-21
7.4521e-21
4.50607e-21
1.24474e-20
3.12269e-21
-5.12552e-21
4.10891e-21
1.48671e-21
1.13495e-20
-3.52825e-23
7.25432e-21
1.07989e-20
2.11058e-21
-6.53033e-21
-2.04372e-21
5.4884e-21
-2.41441e-22
7.90378e-21
-1.16857e-20
1.24938e-20
-1.34644e-20
3.29549e-21
1.13109e-20
1.00201e-20
-1.10177e-20
1.71871e-20
7.48066e-21
-4.18707e-21
-9.35245e-21
-5.18409e-21
-1.10731e-20
-3.84262e-21
9.91566e-21
6.06064e-21
3.80739e-21
4.83849e-21
6.78819e-21
-6.0691e-21
-1.24966e-20
-3.52607e-21
-6.86627e-21
-3.07201e-23
-2.71055e-21
4.88998e-21
5.42023e-21
3.36636e-21
1.22697e-20
9.0326e-22
3.16084e-21
1.10692e-20
1.06241e-20
2.81245e-21
1.16511e-20
3.92496e-21
1.39828e-20
5.05709e-21
1.51736e-20
3.55234e-21
-1.2917e-20
5.15543e-21
6.45521e-21
-2.98527e-21
2.32118e-20
1.3832e-20
-4.01972e-21
-6.78846e-21
1.1708e-21
-9.6136e-21
7.04332e-21
-1.65306e-20
-1.30458e-21
-5.79368e-21
2.15e-21
1.73784e-21
1.00891e-20
3.40454e-21
1.1219e-21
-1.3722e-20
-6.72368e-21
-1.03162e-20
-4.69767e-21
-9.33704e-21
6.44985e-21
8.02851e-21
1.05353e-21
2.10114e-21
3.38634e-21
-5.54029e-21
4.59002e-23
3.65816e-21
3.89997e-21
1.39363e-20
5.32855e-21
1.10886e-20
-3.09325e-21
5.26977e-21
3.80656e-21
8.28297e-21
3.49486e-21
9.21819e-21
3.73112e-21
5.2706e-21
-1.57772e-20
1.31312e-21
-5.94364e-21
4.69196e-21
-1.64765e-21
3.63647e-21
1.01364e-20
5.4933e-21
5.86162e-21
3.84265e-21
3.2925e-21
1.64051e-20
5.06626e-21
2.17491e-20
1.20677e-20
2.60752e-21
-1.26462e-20
-1.96424e-20
1.16944e-20
5.15351e-21
7.74373e-21
8.1321e-21
3.20207e-22
-8.26062e-21
-9.5383e-21
4.51475e-21
1.93671e-21
5.67973e-21
-1.2167e-20
-8.05187e-21
-1.26657e-20
-1.33247e-20
2.19246e-21
2.97131e-21
1.44699e-20
1.05179e-20
1.0812e-20
8.90828e-21
1.14719e-20
3.50715e-21
5.43809e-21
1.36686e-20
-7.05705e-21
-8.01536e-21
1.66091e-20
5.27267e-21
8.6343e-21
-1.94098e-21
-6.48353e-21
-7.228e-21
1.02944e-20
1.43625e-20
-6.85208e-21
1.51155e-20
1.00877e-20
-1.04616e-21
-1.30935e-20
2.37189e-21
4.44851e-21
3.49809e-21
3.79168e-21
1.67328e-20
-1.07646e-20
3.66504e-21
5.31126e-21
1.06935e-20
5.00495e-21
-3.60815e-21
3.82564e-21
5.16617e-21
9.80661e-21
-2.89596e-21
1.06265e-20
-7.81752e-21
6.99388e-22
8.34006e-21
9.88126e-21
7.96567e-21
)
;

boundaryField
{
    front
    {
        type            empty;
    }
    back
    {
        type            empty;
    }
    bottom
    {
        type            uniformFixedValue;
        uniformValue    
        {
            type            scale;
            scale           
            {
                type            squarePulse;
                start           0.3;
                duration        0.3;
            }
            xScale          
            {
                type            constant;
                value           1;
            }
            value           
            {
                type            constant;
                value           15.1;
            }
        }
        value           uniform 0;
    }
    left
    {
        type            zeroGradient;
    }
    top
    {
        type            zeroGradient;
    }
    right
    {
        type            zeroGradient;
    }
    inner_arc
    {
        type            zeroGradient;
    }
}


// ************************************************************************* //
