/*--------------------------------*- C++ -*----------------------------------*\
  =========                 |
  \\      /  F ield         | OpenFOAM: The Open Source CFD Toolbox
   \\    /   O peration     | Website:  https://openfoam.org
    \\  /    A nd           | Version:  9
     \\/     M anipulation  |
\*---------------------------------------------------------------------------*/
FoamFile
{
    format      ascii;
    class       volVectorField;
    location    "0.93";
    object      U;
}
// * * * * * * * * * * * * * * * * * * * * * * * * * * * * * * * * * * * * * //

dimensions      [0 1 -1 0 0 0 0];

internalField   nonuniform List<vector> 
578
(
(3.10626e-19 3.79503e-19 0)
(2.41636e-19 2.8574e-19 -8.13761e-37)
(4.83939e-19 5.73642e-19 0)
(-1.49161e-20 -3.21865e-20 2.98944e-37)
(8.91439e-20 -1.90484e-19 0)
(1.86676e-19 -5.80661e-21 -5.89569e-37)
(9.2545e-20 1.95022e-19 -1.05804e-37)
(8.67174e-20 -1.57055e-19 -6.7601e-37)
(4.74816e-19 -7.64577e-19 0)
(1.22498e-19 1.73446e-19 9.81969e-37)
(3.02909e-19 -6.08663e-20 3.74171e-37)
(3.06772e-19 -5.98291e-19 -4.41672e-38)
(-8.41668e-21 -2.54115e-21 0)
(3.28314e-19 -6.82153e-19 9.49704e-37)
(3.29954e-19 6.80833e-19 0)
(6.03454e-19 -6.81652e-19 8.60584e-38)
(4.61401e-19 2.07169e-19 1.47646e-37)
(5.15242e-19 4.60238e-19 -2.78452e-37)
(2.75349e-19 -5.28704e-19 2.00494e-37)
(5.15082e-19 -7.52187e-19 5.32548e-37)
(-2.44692e-20 -4.65757e-20 -3.07802e-37)
(5.05911e-19 -6.20944e-19 3.09642e-37)
(2.91295e-19 -1.23019e-19 -4.13857e-37)
(-6.37817e-21 1.34829e-19 -5.20943e-38)
(-7.83527e-21 1.17986e-19 0)
(2.76379e-19 -5.43674e-19 4.36985e-38)
(-1.32503e-20 3.26804e-20 0)
(-6.48246e-21 3.00474e-20 7.38688e-39)
(2.89093e-19 2.22175e-19 3.90234e-37)
(5.97474e-19 -6.92869e-19 0)
(-1.35199e-20 5.01882e-20 -1.74949e-37)
(1.26529e-19 -3.63106e-21 -6.061e-38)
(6.007e-19 -7.15357e-19 1.39361e-38)
(-2.88019e-20 1.19578e-19 -6.8217e-38)
(2.89767e-19 6.0514e-19 -9.77784e-37)
(5.13726e-19 -5.82047e-19 -1.55512e-37)
(2.86651e-19 -6.01082e-19 -8.98549e-37)
(2.59036e-19 -4.90527e-19 0)
(5.79315e-19 6.69146e-19 -2.95575e-37)
(1.47019e-19 -3.0675e-19 0)
(1.53498e-19 -3.37588e-19 8.65335e-37)
(1.55769e-19 -2.70192e-19 3.77155e-37)
(1.40335e-19 -2.67884e-19 8.3006e-37)
(2.83366e-19 5.89209e-19 -3.08828e-38)
(3.59062e-19 -3.92709e-19 0)
(1.50773e-19 3.12195e-19 4.42941e-38)
(1.55593e-19 3.438e-19 1.07848e-36)
(4.16483e-19 -6.79677e-19 3.53013e-37)
(5.88807e-19 6.78387e-19 3.01591e-37)
(-1.75258e-20 2.8562e-20 0)
(1.64172e-20 5.28359e-20 3.04068e-38)
(-7.66871e-21 -3.7296e-21 -1.94237e-40)
(3.231e-19 -1.72879e-19 7.07417e-37)
(-3.28724e-20 1.06498e-19 6.74666e-38)
(-2.02953e-21 -2.44669e-22 0)
(1.76195e-19 -2.81953e-20 -5.33131e-38)
(1.33457e-19 -3.80939e-20 -1.02672e-37)
(2.06218e-19 -1.94534e-19 0)
(5.75536e-19 3.82015e-19 8.79593e-38)
(3.322e-19 -3.70675e-19 -1.83263e-37)
(5.8736e-19 4.91357e-19 5.83694e-38)
(2.60544e-19 1.22157e-19 2.35428e-37)
(3.15738e-19 2.73854e-19 2.28452e-37)
(2.85649e-19 -5.97441e-19 -4.45927e-37)
(-1.30773e-20 1.79568e-21 2.54142e-37)
(3.51577e-19 6.86917e-19 4.83778e-37)
(5.65325e-19 -7.21127e-19 -3.20143e-37)
(3.86077e-19 -1.29311e-19 0)
(6.11829e-19 -6.16698e-19 6.65363e-38)
(3.42173e-19 -7.02391e-19 -2.60464e-37)
(-1.69091e-20 1.12244e-19 0)
(5.19829e-20 5.93861e-20 -9.03434e-37)
(-1.06613e-20 -2.86515e-22 -5.41476e-37)
(3.492e-19 -7.20828e-19 -7.02999e-37)
(1.46391e-19 5.06874e-20 0)
(8.68117e-20 -1.82751e-19 -4.39083e-37)
(4.20739e-19 -6.45498e-19 -1.19464e-36)
(3.36321e-19 -5.16178e-19 6.76025e-37)
(-1.3753e-20 -2.87664e-21 2.66001e-37)
(2.86978e-19 3.20342e-19 3.3744e-37)
(4.65603e-19 -4.35117e-19 -1.09496e-36)
(1.59161e-19 2.10117e-19 -1.00901e-36)
(1.11658e-19 -1.53402e-19 -1.7362e-36)
(1.56552e-19 -2.11652e-19 0)
(5.28081e-19 7.12143e-19 3.18714e-37)
(1.06759e-19 2.65879e-19 -8.13738e-37)
(1.69735e-20 1.78472e-20 0)
(2.49944e-19 -3.12372e-21 6.82239e-38)
(2.3624e-19 -5.12061e-19 6.35271e-37)
(2.43834e-19 5.51645e-19 3.17515e-39)
(-2.04347e-20 4.54473e-20 1.80142e-37)
(4.3826e-19 6.23624e-19 3.29977e-39)
(2.36511e-19 5.13058e-19 6.55257e-37)
(-1.68492e-20 -1.04469e-20 1.38346e-37)
(6.3411e-19 -6.58936e-19 -1.0025e-37)
(5.21983e-19 -5.7779e-19 0)
(-4.59514e-21 -7.18106e-24 2.65248e-37)
(-3.45767e-21 -7.99751e-22 0)
(5.16269e-20 5.51037e-20 2.50867e-37)
(3.34342e-19 6.94035e-19 -1.01206e-36)
(3.16197e-19 5.96623e-19 -5.54976e-38)
(3.18923e-19 -6.81152e-19 -2.91021e-37)
(-1.33106e-20 7.34965e-21 0)
(4.52975e-19 5.01396e-19 0)
(-8.38517e-22 4.66716e-22 1.01493e-37)
(3.32055e-19 -6.97843e-19 -9.15771e-37)
(1.31554e-19 5.64843e-20 0)
(1.53283e-19 -3.28965e-19 -5.30066e-37)
(5.09584e-20 1.38458e-19 5.0502e-37)
(1.70191e-19 -3.40965e-19 1.0206e-36)
(4.99823e-19 -6.26872e-19 -2.34063e-37)
(3.24099e-19 -6.61839e-19 -2.20949e-37)
(5.56345e-19 -7.39328e-19 -4.15913e-38)
(6.22163e-19 -5.35255e-19 8.95593e-38)
(6.09172e-19 -6.11687e-19 -8.90387e-38)
(-8.10063e-21 3.84933e-21 2.56951e-37)
(-1.65108e-20 -2.6719e-20 0)
(6.05712e-19 5.09419e-19 6.79426e-38)
(2.07897e-19 4.64465e-19 0)
(-3.28046e-21 8.05056e-22 2.79314e-37)
(2.20436e-19 -4.32821e-19 5.36144e-37)
(2.58183e-19 -3.46449e-19 0)
(3.16169e-19 -6.15293e-19 7.396e-38)
(-1.77047e-20 -5.35752e-20 3.43843e-37)
(2.33678e-19 -2.96886e-19 0)
(2.74174e-19 6.63132e-19 1.48752e-37)
(3.77675e-19 -3.51219e-19 1.10897e-36)
(5.56925e-19 -6.19695e-19 -1.52498e-38)
(3.52988e-19 7.19738e-19 -6.88252e-37)
(2.43432e-19 6.72639e-19 0)
(3.40797e-19 6.67091e-19 7.63355e-37)
(2.74065e-19 6.82163e-19 0)
(-1.69301e-20 -1.53068e-20 1.72182e-37)
(5.49775e-20 -1.08122e-19 -4.10945e-37)
(3.41998e-19 6.91957e-19 -6.53462e-37)
(3.14659e-19 5.57762e-19 0)
(2.57837e-19 -4.87262e-19 9.94139e-37)
(-7.89307e-21 2.1189e-21 -2.63747e-37)
(6.26914e-19 -4.76302e-19 -2.38428e-39)
(2.84005e-19 5.33875e-19 -6.42418e-37)
(1.26344e-19 2.28728e-19 0)
(2.44083e-19 6.64516e-19 0)
(2.36713e-19 4.41277e-19 0)
(-7.40588e-21 -1.25175e-19 0)
(1.17616e-19 -2.26746e-19 5.16235e-37)
(5.9002e-19 7.28335e-19 0)
(2.06478e-19 4.56417e-19 2.62086e-37)
(-1.38318e-21 1.93772e-21 1.91362e-37)
(3.50613e-19 -6.99449e-19 0)
(2.35579e-19 6.26961e-19 0)
(3.99622e-19 -7.59147e-19 0)
(1.15606e-19 1.70083e-19 -1.42397e-37)
(1.3726e-19 -1.47821e-19 9.5707e-37)
(1.0222e-19 -2.01397e-19 3.55378e-37)
(3.55489e-19 7.21687e-19 -2.95953e-38)
(-8.9559e-21 1.65194e-20 2.02588e-37)
(4.42997e-19 2.67071e-19 -4.39553e-37)
(-4.43039e-21 -5.98921e-21 2.98861e-37)
(1.11325e-19 1.195e-19 3.93084e-37)
(4.16918e-19 -7.69474e-19 0)
(3.54412e-19 -6.89345e-19 0)
(3.20827e-19 -5.95549e-19 0)
(6.46286e-20 1.17825e-19 0)
(3.55656e-19 -6.50266e-19 1.11958e-38)
(-3.82503e-22 -5.04964e-20 0)
(2.49702e-19 5.93041e-19 -1.49791e-37)
(-5.12441e-21 -8.36881e-20 0)
(3.01179e-19 5.97896e-19 -7.95359e-39)
(-1.32301e-21 -2.0355e-21 0)
(-4.04773e-20 3.41886e-20 0)
(3.334e-19 -5.69941e-19 7.09183e-37)
(1.40387e-19 -2.60086e-19 0)
(1.75904e-19 3.06323e-19 0)
(1.01973e-19 1.98442e-19 -7.02946e-39)
(2.53437e-19 4.87234e-19 0)
(-2.08858e-20 3.69312e-21 0)
(-2.74456e-20 3.2274e-22 -2.75608e-37)
(6.25001e-19 4.14286e-19 -9.74411e-39)
(1.93066e-19 -3.30237e-19 -6.68815e-37)
(5.11774e-20 -6.28527e-20 0)
(1.38578e-19 2.6048e-19 8.07066e-39)
(3.76162e-19 4.88488e-19 5.72287e-37)
(1.77121e-19 4.8467e-19 0)
(-2.20123e-20 -4.37783e-21 5.04283e-37)
(3.81305e-19 6.46981e-19 0)
(-4.19572e-22 -2.18521e-22 -1.59264e-37)
(2.05673e-19 -2.51813e-19 -3.49708e-38)
(3.53205e-19 7.30354e-19 8.83368e-37)
(3.72069e-19 7.44312e-19 0)
(1.73028e-20 -5.58081e-20 0)
(3.71992e-19 -7.46526e-19 0)
(2.96922e-19 -5.53812e-19 8.76853e-37)
(3.30306e-19 -4.32896e-19 -3.3332e-37)
(2.71618e-19 5.24547e-19 7.80183e-39)
(2.17927e-19 3.15062e-19 6.92763e-37)
(-5.66299e-20 9.76388e-21 -4.21731e-37)
(-3.0406e-21 -7.90446e-21 -3.45394e-37)
(-3.13124e-21 7.73834e-21 1.52957e-37)
(2.92033e-19 5.48314e-19 0)
(2.72539e-19 -5.25515e-19 0)
(-4.91556e-22 -5.87795e-23 0)
(-2.41931e-20 -9.90032e-21 -2.55686e-37)
(1.38736e-19 -1.76638e-19 1.55603e-36)
(-4.68511e-20 1.91769e-20 4.30225e-37)
(-3.70872e-20 1.73657e-21 1.27873e-37)
(3.08031e-19 -6.04337e-19 -1.84254e-36)
(3.48804e-19 6.49944e-19 0)
(2.89073e-19 3.77399e-19 1.24035e-38)
(3.81104e-19 -7.6407e-19 0)
(1.81367e-19 2.09848e-19 -6.18673e-37)
(1.5964e-19 3.51293e-19 -1.16465e-37)
(3.81269e-19 7.60901e-19 0)
(3.19689e-19 6.46383e-19 0)
(-4.28129e-20 -7.26776e-21 -1.3937e-37)
(2.67388e-19 5.18947e-19 0)
(-2.54502e-20 -7.13541e-20 -3.11245e-37)
(3.23554e-19 6.30977e-19 0)
(3.25024e-19 -6.33694e-19 -3.42482e-39)
(3.65854e-19 7.51037e-19 1.1233e-36)
(8.40365e-20 1.73519e-19 0)
(3.64427e-19 -7.5311e-19 1.05259e-36)
(2.91283e-19 5.61762e-19 8.53465e-37)
(1.92068e-19 -3.92555e-19 -7.06718e-37)
(1.65391e-19 -3.0825e-19 -8.63986e-37)
(1.49774e-19 2.82314e-19 0)
(1.91573e-19 3.90859e-19 3.57371e-39)
(-7.10709e-20 -3.53385e-21 2.55138e-37)
(-1.18124e-21 -1.81624e-21 0)
(-1.20271e-21 1.72376e-21 -1.4074e-37)
(5.74714e-21 -4.42771e-20 2.93301e-37)
(9.37037e-20 1.38068e-19 0)
(4.73819e-20 -4.69242e-20 1.29841e-36)
(5.44777e-20 1.04671e-19 5.61335e-39)
(2.13136e-19 -5.73903e-19 0)
(2.0906e-19 5.71198e-19 0)
(1.12081e-19 -1.83771e-19 -3.9577e-37)
(8.15582e-20 -1.53311e-19 -7.51105e-37)
(8.15107e-20 1.52364e-19 -8.32448e-37)
(-1.0395e-20 -6.44317e-21 -3.14653e-37)
(1.60167e-19 -3.50787e-19 0)
(6.85529e-20 1.2792e-19 -7.33517e-37)
(7.14784e-20 -1.21843e-19 -7.79783e-37)
(-6.52601e-20 1.64957e-20 -6.1193e-38)
(1.32074e-19 2.41205e-19 -1.40559e-38)
(-2.04437e-21 6.12768e-21 -2.20924e-37)
(5.9489e-20 -1.19928e-19 -5.50985e-37)
(6.15818e-20 1.13692e-19 0)
(5.39764e-20 2.70276e-20 0)
(9.34023e-20 1.54064e-19 0)
(-5.20477e-20 7.9253e-20 1.18829e-37)
(-5.34736e-20 -7.61284e-21 0)
(3.06724e-19 6.86326e-19 5.34403e-39)
(1.2918e-19 -6.7597e-20 8.54213e-37)
(5.69302e-20 -1.49304e-19 0)
(4.74006e-21 4.23252e-20 0)
(2.47134e-19 -6.66945e-19 -8.70464e-38)
(2.86105e-21 -8.34559e-20 -3.80467e-37)
(4.10729e-19 7.68689e-19 -4.61787e-37)
(8.96045e-20 -1.64473e-19 -5.88653e-37)
(4.89123e-20 -2.19772e-20 -1.69043e-36)
(8.3884e-20 -1.72714e-19 1.53107e-37)
(7.39216e-20 1.3925e-19 -6.46493e-39)
(-2.30221e-21 -6.50945e-21 6.00385e-37)
(-5.36808e-21 -1.82205e-20 -7.9106e-37)
(3.92681e-19 4.34582e-19 -9.37425e-37)
(2.4206e-19 -5.00407e-19 2.89792e-37)
(1.18298e-19 -3.20222e-19 0)
(3.36032e-20 -7.56494e-20 -1.23838e-37)
(1.89e-20 -1.72338e-20 -1.13044e-38)
(1.5492e-20 -6.99348e-20 0)
(1.54545e-20 6.99657e-20 0)
(2.78722e-19 6.52109e-19 0)
(1.64853e-19 -4.18659e-19 0)
(-7.56965e-20 1.05493e-21 -1.23759e-37)
(-3.50689e-20 -1.48947e-20 -1.53689e-37)
(-7.22726e-20 3.73061e-20 2.50537e-37)
(-3.89193e-20 7.39716e-20 1.11966e-37)
(3.38577e-20 7.61109e-20 1.4215e-41)
(1.63112e-19 3.01306e-19 0)
(-5.73111e-20 8.67439e-20 2.63991e-37)
(1.49702e-19 -2.83888e-19 7.48347e-39)
(-6.40591e-20 5.51952e-20 -1.19735e-37)
(-7.34299e-20 -3.08363e-20 0)
(-5.58402e-20 -2.41992e-20 1.40294e-37)
(-6.85564e-20 4.94188e-20 1.25696e-37)
(1.16134e-19 2.16794e-19 0)
(4.53896e-20 -9.29584e-20 1.6691e-39)
(4.60071e-20 9.34505e-20 -2.42887e-37)
(-1.43345e-21 3.45623e-20 1.19609e-37)
(-7.83289e-21 6.83719e-20 1.07629e-37)
(2.06667e-19 -5.63712e-19 1.74703e-37)
(3.15186e-19 6.72736e-19 0)
(-4.54984e-20 4.61607e-20 -2.07467e-37)
(8.98977e-20 1.60669e-19 -7.30164e-37)
(-3.95863e-21 -2.13565e-20 1.49096e-37)
(-6.70448e-21 -3.22382e-20 -2.24296e-37)
(7.39417e-20 -1.41211e-19 0)
(2.4606e-19 -6.74462e-19 9.73511e-38)
(-8.94691e-21 -7.25075e-20 3.98371e-37)
(-8.88174e-21 -5.25642e-20 -7.47219e-38)
(-5.03287e-20 9.54504e-20 -2.68985e-37)
(2.05239e-19 5.63157e-19 0)
(-5.29102e-21 -3.779e-20 -2.00947e-37)
(-3.46952e-21 -4.30931e-20 -1.44313e-37)
(-3.34581e-21 -1.39234e-20 2.98616e-37)
(-5.73613e-21 3.92839e-20 -1.93085e-37)
(2.37082e-19 -6.27801e-19 -1.1236e-37)
(4.96009e-20 -9.96141e-20 0)
(-4.96216e-20 2.55575e-20 -6.39329e-38)
(-6.58534e-20 1.65835e-20 -1.88166e-37)
(2.06908e-19 -4.56256e-19 0)
(3.54424e-20 -4.89694e-20 0)
(5.30366e-21 -7.25455e-21 -1.32446e-37)
(1.63935e-19 4.18907e-19 2.88612e-40)
(-3.7619e-20 7.38699e-20 -3.75127e-37)
(-6.69258e-20 -5.91286e-20 -2.47949e-37)
(2.88745e-19 6.23947e-19 0)
(5.68872e-20 1.49574e-19 -1.78382e-41)
(1.1813e-19 3.20838e-19 0)
(-4.54686e-20 1.0041e-19 4.36502e-37)
(2.40295e-19 4.91925e-19 0)
(-6.96081e-20 -2.92676e-20 -2.23398e-37)
(-6.06763e-20 4.09999e-20 2.3637e-37)
(6.60694e-22 1.15891e-19 1.08875e-37)
(-3.80947e-20 1.20144e-20 -3.06398e-37)
(-5.61758e-20 -7.0544e-20 2.05843e-37)
(3.96236e-19 7.5706e-19 0)
(2.44986e-19 4.55968e-19 0)
(3.5611e-19 -7.22554e-19 9.19232e-37)
(-3.93449e-20 -6.77928e-20 -2.37907e-37)
(-2.09273e-20 8.39478e-21 -6.06415e-38)
(4.36928e-19 7.59552e-19 0)
(-3.21423e-20 -1.57362e-20 1.0073e-37)
(-5.32658e-20 -9.83562e-20 -5.37663e-38)
(2.17273e-19 4.20054e-19 0)
(-9.55996e-21 8.1688e-20 7.85501e-38)
(-4.33557e-20 -3.49865e-20 4.48529e-39)
(-5.68798e-20 -8.70736e-20 1.74549e-37)
(3.66444e-21 -1.3555e-19 0)
(-3.58732e-20 5.6083e-20 0)
(-6.20177e-20 -5.15137e-20 0)
(-6.53759e-20 -2.79699e-20 -2.54506e-37)
(9.17423e-20 -3.76725e-20 1.85213e-37)
(1.56178e-20 -1.19102e-19 6.50174e-39)
(1.98353e-20 4.20225e-20 -2.35148e-38)
(4.6114e-19 -5.7753e-19 0)
(6.44741e-19 -2.81874e-19 -2.92074e-37)
(5.27049e-20 1.20568e-19 -2.01398e-37)
(5.31499e-20 -1.18122e-19 2.37801e-37)
(5.75244e-20 1.26685e-19 -3.08348e-37)
(6.0557e-20 -1.31851e-19 -4.36364e-37)
(6.4411e-20 -1.30343e-19 0)
(6.51364e-20 1.29103e-19 2.31407e-37)
(7.99224e-20 -9.20224e-20 0)
(7.33108e-20 -1.62295e-19 0)
(7.3285e-20 1.67607e-19 0)
(7.20553e-20 4.28314e-20 -1.23035e-37)
(8.25501e-20 1.74532e-19 -3.37763e-37)
(1.01432e-19 -1.87711e-19 -7.26927e-37)
(9.58446e-20 1.81206e-19 -2.11386e-37)
(3.69032e-19 1.13667e-21 -4.78157e-38)
(1.20619e-19 2.58611e-20 0)
(2.02825e-19 4.81973e-21 3.30649e-37)
(4.96709e-20 -1.2364e-19 0)
(1.21493e-19 4.86804e-21 1.84645e-37)
(6.3918e-19 -1.76521e-20 0)
(2.64861e-19 -5.44674e-21 4.60471e-38)
(5.81763e-19 -4.53397e-19 1.51636e-36)
(-3.37217e-20 -2.67353e-20 1.28205e-37)
(1.74276e-19 1.78915e-19 0)
(3.08546e-19 -6.6129e-19 6.13678e-37)
(1.70488e-19 1.16167e-19 -1.58539e-37)
(3.26425e-19 3.79016e-19 5.68237e-37)
(6.08568e-19 -3.53945e-19 -4.12464e-37)
(5.78475e-19 7.11109e-19 -2.61736e-37)
(1.79318e-19 -1.09526e-19 5.23755e-37)
(-2.8317e-20 1.39985e-20 2.97355e-37)
(1.0875e-19 2.45605e-19 0)
(1.11777e-19 -2.47272e-19 -3.36705e-37)
(5.18186e-19 1.366e-19 -1.47563e-37)
(-1.77144e-21 2.64703e-22 -4.34433e-37)
(1.18382e-19 -2.64387e-19 1.9488e-37)
(1.18108e-19 2.59161e-19 0)
(5.03879e-19 -5.51814e-20 7.43986e-38)
(4.04422e-19 -2.66114e-20 -3.82177e-37)
(5.68496e-19 -3.75308e-21 -3.39349e-37)
(2.38759e-19 -2.68647e-21 8.44189e-38)
(1.50585e-19 3.28473e-19 0)
(1.62947e-19 3.29811e-19 -1.40288e-37)
(1.01357e-19 -2.35888e-19 0)
(-8.66062e-22 -4.69798e-22 0)
(6.59643e-19 -1.61558e-19 0)
(6.43115e-19 -1.2862e-19 -4.17966e-37)
(2.50173e-19 -5.93309e-19 0)
(5.91899e-19 6.35086e-19 -2.12764e-37)
(5.41273e-19 -6.92667e-20 2.5174e-37)
(3.65801e-19 -2.92097e-19 0)
(-1.71169e-20 -1.26437e-19 -2.95483e-38)
(6.38149e-19 -5.55611e-20 -6.96061e-38)
(-3.35794e-21 7.54523e-20 0)
(5.36655e-19 6.27342e-19 -1.7371e-37)
(6.94365e-22 7.91366e-20 0)
(4.41616e-19 2.37908e-20 1.02098e-37)
(2.2418e-19 1.40374e-19 0)
(-1.05526e-21 7.81824e-22 -1.29874e-37)
(6.57533e-19 8.04881e-20 -2.75142e-38)
(5.46576e-19 -4.58796e-19 -4.12282e-37)
(6.23031e-19 1.75613e-19 -4.16265e-39)
(5.03701e-19 -1.27553e-19 8.82848e-38)
(5.52521e-19 -2.93351e-19 0)
(6.55711e-19 6.95393e-20 2.76575e-38)
(5.2399e-19 4.53281e-19 1.60226e-37)
(9.62045e-20 -8.08465e-20 0)
(2.19701e-19 5.61862e-19 -1.51436e-37)
(6.3998e-19 3.05169e-19 4.21566e-39)
(5.79818e-19 -1.88032e-19 5.35371e-37)
(2.74447e-19 -5.87586e-19 -3.91893e-37)
(2.77063e-19 5.84971e-19 -4.88337e-37)
(3.57347e-19 -7.34686e-19 5.77277e-37)
(-2.72605e-20 2.94539e-20 0)
(3.30394e-19 6.87748e-19 7.95832e-37)
(-9.52198e-22 4.754e-20 0)
(3.44654e-19 -7.0397e-19 -2.79101e-39)
(3.37151e-19 6.92696e-19 4.57333e-37)
(3.03169e-19 6.63469e-19 0)
(2.72868e-19 -6.62372e-19 1.03944e-37)
(1.07571e-19 -2.65824e-19 0)
(1.83101e-19 8.13244e-21 0)
(4.98709e-20 -1.38703e-19 -2.71573e-38)
(2.75463e-19 -6.83546e-19 -1.29724e-37)
(5.02077e-19 7.44764e-19 3.02816e-37)
(2.24424e-19 1.31796e-20 -3.3115e-37)
(3.12977e-19 -3.8359e-19 -2.76836e-38)
(-1.00281e-21 -7.67834e-22 0)
(5.32681e-20 1.30273e-19 0)
(3.15343e-19 -6.7736e-19 3.35654e-37)
(2.60795e-19 -5.61168e-19 -7.39881e-37)
(5.40747e-19 3.51195e-19 -9.2621e-38)
(1.80542e-19 -4.88415e-19 -1.5071e-39)
(6.23209e-19 1.79765e-19 8.29481e-38)
(6.1843e-19 2.90539e-19 1.25666e-38)
(-3.88713e-20 -4.89828e-20 0)
(-8.97931e-21 -1.19094e-20 -8.61369e-38)
(-2.94226e-20 -1.13971e-19 7.78393e-38)
(4.64947e-19 7.66974e-19 7.62467e-37)
(4.23118e-19 3.57542e-20 -1.48822e-38)
(-1.73332e-20 -1.09401e-19 -2.01301e-37)
(4.22702e-19 6.0401e-19 3.52082e-37)
(3.41877e-19 5.34325e-19 -6.63623e-37)
(-5.08731e-21 2.0992e-20 0)
(3.5608e-19 7.0327e-19 0)
(1.57441e-22 2.55549e-22 0)
(3.07122e-19 6.65476e-19 -5.60064e-37)
(1.65293e-22 -2.1882e-22 1.21215e-37)
(3.58602e-19 7.32684e-19 -9.33525e-37)
(-1.97261e-20 8.33956e-20 0)
(1.05615e-19 5.81576e-20 3.20664e-37)
(6.09432e-19 -2.85131e-19 1.95425e-37)
(8.14857e-20 7.46389e-20 0)
(6.04754e-19 5.80436e-19 0)
(2.25744e-19 -2.47437e-19 -1.12565e-36)
(1.84908e-19 2.23372e-19 -1.2146e-36)
(4.61389e-19 1.79209e-19 -2.95695e-38)
(9.60793e-20 -2.58572e-19 2.36558e-37)
(2.15891e-19 -2.12338e-20 -3.41659e-39)
(4.01228e-19 -6.68079e-19 4.03972e-37)
(1.00807e-19 2.64827e-19 1.95818e-37)
(1.899e-19 -2.24614e-19 0)
(5.48666e-19 1.46274e-19 8.94909e-40)
(2.89843e-19 -6.28156e-19 1.70618e-38)
(-2.59286e-20 -1.31936e-19 -1.5488e-38)
(-2.3631e-21 1.12667e-20 -4.74208e-38)
(8.59534e-20 1.20112e-19 -4.83104e-37)
(-4.36441e-21 6.32245e-21 -2.45061e-38)
(3.4137e-20 -1.09607e-19 9.87181e-38)
(3.06523e-19 -6.67389e-19 -6.16612e-38)
(3.02972e-19 -6.8304e-19 -3.77542e-37)
(7.1279e-20 -1.00623e-19 -4.94736e-37)
(1.23797e-19 -1.73223e-19 1.68054e-38)
(3.81374e-19 -4.83879e-19 -6.67801e-38)
(-1.76254e-20 1.31647e-19 0)
(3.17464e-19 -2.3216e-20 6.64094e-37)
(6.26721e-19 6.87098e-19 0)
(-1.83474e-20 -9.62138e-20 1.92765e-37)
(-9.8752e-21 1.33677e-20 -1.87182e-37)
(2.1813e-19 -5.60349e-19 1.79661e-37)
(5.98555e-21 -1.29508e-19 -8.14301e-39)
(8.00963e-23 -2.81362e-22 2.47564e-37)
(-3.65328e-21 2.29119e-21 1.22021e-37)
(3.97689e-19 6.84542e-19 -7.20199e-37)
(3.6794e-23 2.03409e-22 0)
(5.48807e-19 7.49845e-19 -1.14674e-37)
(2.7923e-19 -6.53467e-19 -1.69929e-38)
(-4.96512e-21 -4.6325e-21 -3.32919e-37)
(-2.38073e-20 1.97703e-20 0)
(1.0486e-19 2.44056e-19 5.62139e-37)
(-2.40875e-20 7.42375e-20 -1.10343e-37)
(3.31976e-19 6.94771e-19 5.2135e-37)
(2.45628e-22 -9.46759e-23 -1.72313e-37)
(2.07986e-22 7.12051e-23 6.06581e-38)
(3.49741e-19 -7.29487e-19 -4.47498e-37)
(5.25315e-19 6.0247e-20 8.42246e-38)
(1.85355e-19 -4.64164e-19 -3.9728e-37)
(-4.88128e-20 -6.21566e-20 0)
(6.29796e-19 6.00626e-19 -6.27307e-39)
(-5.36551e-21 5.33307e-21 9.92489e-38)
(2.09861e-19 4.60146e-19 -2.65148e-37)
(-2.36322e-20 -2.44009e-20 -8.12549e-38)
(1.9199e-19 4.73243e-19 -2.02143e-37)
(-2.72201e-21 2.68043e-21 -9.90001e-38)
(-3.03548e-20 -1.03518e-19 2.5414e-38)
(4.22264e-19 -4.54018e-19 0)
(-1.75577e-20 -7.9592e-20 8.46542e-38)
(2.2816e-19 5.20197e-19 2.37093e-37)
(2.71269e-19 5.78843e-19 -9.34338e-37)
(-1.02688e-20 5.24983e-20 0)
(3.4146e-19 -7.01566e-19 3.72837e-37)
(2.30266e-19 -5.21007e-19 5.67509e-37)
(4.28725e-20 9.60774e-20 5.5097e-37)
(-2.30727e-21 -2.21639e-21 -1.69345e-37)
(3.61707e-20 1.102e-19 -1.07129e-37)
(5.07922e-19 -1.64614e-19 -3.03996e-37)
(1.28824e-19 -5.31268e-20 -1.03783e-37)
(1.92923e-19 -4.42818e-19 -3.24587e-38)
(2.98511e-19 -6.35431e-19 3.12604e-37)
(-4.16993e-20 -7.73381e-20 0)
(-1.73445e-20 -1.30593e-19 1.71357e-38)
(-7.64514e-21 -1.55867e-20 -2.37795e-38)
(3.93438e-19 -5.93516e-19 -2.37733e-37)
(1.06325e-19 -1.23433e-20 -3.41507e-37)
(2.22496e-19 -3.46031e-19 -1.3371e-37)
(3.57057e-19 -7.38196e-19 -3.99277e-37)
(-3.89647e-21 1.61404e-20 2.15823e-37)
(-3.97664e-20 -1.20608e-19 1.01182e-37)
(4.50582e-19 -2.88632e-19 4.77271e-37)
(1.82257e-19 2.80077e-19 0)
(1.03605e-20 1.09304e-19 -3.55117e-37)
(2.53443e-19 5.45884e-19 3.11867e-37)
(3.86794e-19 4.88812e-19 4.91179e-37)
(3.8661e-23 -3.42799e-22 1.0477e-37)
(-1.20766e-22 1.70327e-22 -1.74296e-37)
(3.54804e-19 -1.87365e-19 0)
(1.81591e-19 -2.87582e-19 6.99732e-37)
(2.32073e-19 -5.11115e-19 3.57987e-37)
(2.33558e-19 -1.57911e-19 0)
(-3.33534e-20 1.2409e-19 -1.6435e-37)
(7.95699e-21 1.31034e-19 6.43955e-38)
(5.14167e-19 5.8919e-19 -1.34913e-37)
(4.63626e-19 -6.12903e-19 1.70774e-37)
(2.27908e-19 -5.31095e-19 1.29686e-38)
(5.78902e-19 -4.48121e-19 3.73685e-37)
(3.42014e-19 6.73871e-19 -9.8086e-37)
(2.92565e-19 -6.50277e-19 0)
(3.67886e-19 5.95658e-19 0)
(6.07617e-19 -3.63294e-19 0)
(3.51385e-19 4.62815e-20 -2.19599e-39)
(4.44488e-19 -7.67608e-19 0)
(1.58319e-20 -8.56603e-20 -1.00206e-37)
(-4.60882e-20 -9.32784e-20 1.39478e-37)
(-1.55858e-20 1.49595e-20 -2.98575e-38)
(-1.1637e-20 9.17332e-21 -1.28298e-37)
(2.08512e-19 3.43511e-19 3.20669e-37)
(1.97994e-19 -4.38034e-19 6.60835e-38)
(-4.22307e-22 7.88309e-22 -3.02108e-38)
(-4.88522e-22 -6.84242e-22 5.2083e-37)
(6.89003e-20 9.65227e-20 -1.8103e-37)
(-3.22759e-21 -1.94521e-21 -4.69576e-39)
(3.61387e-19 1.08966e-19 2.87079e-38)
(3.24479e-22 4.38752e-23 3.30357e-38)
(2.78372e-22 7.16956e-24 -2.95052e-37)
(3.20105e-19 6.6992e-19 0)
(5.44218e-19 6.23782e-19 0)
(5.25685e-19 -3.26486e-19 -4.86474e-37)
(2.71554e-19 9.09442e-20 0)
(6.25194e-19 6.64237e-19 6.7662e-39)
(3.54502e-20 1.21188e-19 0)
(5.44819e-19 7.03837e-19 4.79173e-38)
(4.7081e-19 5.72636e-19 3.26199e-37)
)
;

boundaryField
{
    front
    {
        type            empty;
    }
    back
    {
        type            empty;
    }
    bottom
    {
        type            zeroGradient;
    }
    left
    {
        type            noSlip;
    }
    top
    {
        type            uniformFixedValue;
        uniformValue    
        {
            type            scale;
            scale           
            {
                type            squarePulse;
                start           0.3;
                duration        0.3;
            }
            xScale          
            {
                type            constant;
                value           1;
            }
            value           
            {
                type            constant;
                value           (0 -0.7 0);
            }
        }
        value           uniform (0 -0 0);
    }
    right
    {
        type            noSlip;
    }
    inner_arc
    {
        type            noSlip;
    }
}


// ************************************************************************* //
