/*--------------------------------*- C++ -*----------------------------------*\
  =========                 |
  \\      /  F ield         | OpenFOAM: The Open Source CFD Toolbox
   \\    /   O peration     | Website:  https://openfoam.org
    \\  /    A nd           | Version:  9
     \\/     M anipulation  |
\*---------------------------------------------------------------------------*/
FoamFile
{
    format      ascii;
    class       surfaceScalarField;
    location    "2.27";
    object      phi;
}
// * * * * * * * * * * * * * * * * * * * * * * * * * * * * * * * * * * * * * //

dimensions      [0 3 -1 0 0 0 0];

internalField   nonuniform List<scalar> 
2420
(
1.0143e-06
-1.01866e-06
4.35218e-09
-3.52203e-07
3.52203e-07
-8.60053e-07
-6.20593e-07
1.48065e-06
-8.13019e-07
8.13019e-07
-1.76141e-06
7.81033e-07
9.80377e-07
9.73074e-07
-9.74052e-07
9.77608e-10
-1.12484e-06
2.64789e-07
-1.37734e-06
1.79008e-07
1.19833e-06
2.23222e-06
-2.66171e-06
4.29488e-07
-1.19421e-06
-5.67204e-07
-1.27769e-06
5.58096e-07
7.19596e-07
-8.13026e-07
-4.64666e-07
-1.37734e-06
-4.84871e-07
-2.91892e-07
7.76763e-07
-1.14518e-07
1.24882e-07
-1.03638e-08
-4.02594e-07
5.17934e-07
-1.1534e-07
2.45386e-07
1.48873e-08
-2.60273e-07
-2.16474e-06
1.59904e-06
5.65697e-07
-7.41758e-07
7.69017e-07
-2.72588e-08
-5.44502e-07
5.96318e-08
-2.05541e-07
9.09411e-07
-7.0387e-07
-1.31923e-07
-1.24429e-06
1.47241e-06
-2.28117e-07
-1.49401e-06
2.4972e-07
2.98777e-07
7.15526e-07
2.4644e-07
-1.05378e-09
-6.58043e-08
-3.3679e-07
-9.46033e-07
-1.54035e-06
2.48639e-06
-2.0695e-06
1.12347e-06
8.71602e-07
-4.64226e-07
-4.07376e-07
6.60227e-07
-7.81423e-08
-5.82085e-07
-1.08281e-06
1.6567e-06
-5.73892e-07
-1.9961e-06
1.99646e-06
-3.55539e-10
1.64483e-06
-7.63204e-07
-8.81624e-07
-4.88446e-07
-1.67629e-06
9.75666e-07
6.69161e-07
2.67707e-07
7.05367e-07
-1.37565e-07
-2.14638e-07
-1.67983e-07
-1.82812e-06
1.19026e-07
2.33177e-07
2.75585e-07
-4.81125e-07
1.30939e-06
3.48279e-07
-1.65767e-06
1.51731e-06
-1.68529e-06
-7.26729e-07
7.34103e-07
-7.37334e-09
-4.32218e-07
6.72105e-07
-2.39887e-07
-2.16704e-07
-5.96315e-07
3.91518e-07
4.21501e-07
-4.8504e-07
5.28222e-08
-9.77376e-07
1.32013e-06
-3.42752e-07
-2.35974e-07
1.75328e-06
-7.0788e-07
-2.66172e-07
-1.7034e-06
5.39653e-07
-6.54171e-07
-1.57005e-06
-1.09166e-06
1.98879e-06
-4.76139e-07
-1.51265e-06
-1.78575e-07
-6.29057e-07
8.07632e-07
1.00239e-07
9.05478e-08
-1.90787e-07
8.40219e-07
-2.82123e-07
-9.71429e-07
1.1987e-06
-2.2727e-07
7.1654e-09
-1.85741e-07
1.09288e-07
5.50939e-07
7.69541e-07
-7.67619e-07
-1.92221e-09
-7.00137e-07
-3.18519e-07
-1.6217e-06
1.80071e-06
-1.05422e-06
6.42075e-07
4.12141e-07
9.6326e-07
-1.0414e-06
9.22535e-07
-1.24915e-06
3.26616e-07
-7.37675e-07
9.50903e-07
-2.13228e-07
-1.86267e-06
1.37422e-06
-1.84618e-07
1.02545e-07
-1.61582e-07
7.59959e-07
-1.11647e-06
3.56516e-07
3.37214e-07
-2.12333e-07
-6.2826e-07
1.25051e-08
6.15755e-07
5.35936e-07
-1.75083e-08
-5.18428e-07
-1.95872e-06
-1.10785e-07
-2.54369e-07
-1.6083e-06
3.75823e-07
4.07076e-07
4.64526e-07
-5.95854e-07
-4.58362e-07
5.30804e-07
5.13272e-09
1.59421e-06
3.94585e-07
-2.09323e-07
-5.17406e-07
5.57882e-07
7.09398e-07
-1.26728e-06
-6.5763e-07
1.33574e-06
-6.78114e-07
-7.53243e-07
1.24983e-07
9.64362e-07
-2.04403e-07
9.25905e-07
-3.09327e-07
-6.16577e-07
1.04908e-06
2.70636e-07
-1.31972e-06
1.24496e-06
-1.95877e-07
8.55742e-07
6.24904e-07
-2.16948e-07
-5.2481e-07
1.19244e-07
-1.09662e-06
1.18715e-08
-3.81124e-08
2.62409e-08
2.04028e-07
5.64989e-07
1.01521e-06
-9.26753e-08
-1.08975e-06
1.18324e-07
1.01527e-06
6.41429e-07
-2.12592e-06
8.54894e-07
1.27103e-06
7.53997e-08
7.80342e-07
7.25531e-07
-7.98884e-07
7.33528e-08
7.89404e-07
5.30724e-07
7.20546e-07
4.98505e-09
-1.80143e-06
3.55941e-07
1.44549e-06
1.86385e-07
5.83156e-07
-2.04567e-06
6.4439e-07
1.40128e-06
2.00211e-09
-4.66228e-07
-9.11819e-07
-1.2141e-06
-1.13063e-06
5.01571e-07
-7.50049e-08
-1.48985e-06
1.56485e-06
1.65244e-07
-9.78271e-07
-8.95673e-07
-2.34955e-07
1.44143e-06
-8.83546e-07
1.99599e-06
-5.7069e-07
-1.4253e-06
5.87328e-07
-1.50993e-06
-5.35746e-07
9.81995e-07
3.05194e-07
6.2071e-07
-3.71303e-07
-1.43013e-06
-6.97326e-08
-8.2594e-07
4.32132e-08
8.59605e-07
-9.02819e-07
1.37885e-07
6.77843e-07
-8.15729e-07
-2.09646e-07
-1.16889e-06
1.37854e-06
6.5093e-07
3.64281e-07
-1.85634e-06
5.81889e-07
1.27445e-06
-1.50278e-06
1.26681e-06
4.6143e-07
-4.49558e-07
1.74063e-07
3.43871e-07
8.44185e-07
-1.69106e-06
8.4688e-07
1.17044e-06
-4.06071e-07
-7.64365e-07
-1.55254e-06
1.47754e-06
-2.16031e-06
5.38612e-07
-1.0761e-06
-7.80243e-07
-1.30454e-07
1.30454e-07
-7.68649e-07
2.10003e-07
5.58647e-07
-8.80877e-07
-6.62401e-07
1.54328e-06
5.39653e-07
9.05478e-08
-7.98056e-07
-4.51095e-07
7.1654e-09
-2.56591e-07
1.90787e-07
2.56591e-07
-2.85499e-07
2.8908e-08
-1.11345e-07
-2.20199e-07
3.31544e-07
-4.59994e-08
2.60273e-07
-2.14274e-07
2.20199e-07
-1.76986e-07
1.24468e-07
-3.31544e-07
2.07077e-07
-2.55473e-07
1.85741e-07
-4.83966e-08
2.55473e-07
-2.07077e-07
-8.26923e-08
1.4843e-07
-6.57378e-08
8.26923e-08
2.65956e-08
-1.4843e-07
2.14274e-07
-6.5844e-08
1.76986e-07
-1.64481e-07
1.64481e-07
-2.65956e-08
4.45871e-07
8.89873e-07
-1.57881e-07
-1.3449e-06
-1.48457e-07
7.90531e-07
7.50928e-07
-1.18525e-06
4.34327e-07
4.86066e-07
1.24693e-07
8.75395e-07
-4.57684e-07
-9.13337e-07
1.37102e-06
-2.22403e-06
6.53982e-07
-6.01162e-07
-5.84092e-07
-7.12508e-07
-2.28702e-07
-8.61052e-07
-2.63201e-06
1.29208e-06
-1.86277e-06
-1.47954e-07
-1.14285e-06
8.88483e-07
-3.19526e-07
3.34414e-07
-1.58629e-06
-4.68458e-07
2.05475e-06
6.55321e-07
-7.03718e-07
-2.11168e-06
5.81161e-07
1.53052e-06
-1.46729e-06
2.67744e-07
9.02692e-07
-3.08041e-07
-8.34812e-07
5.27349e-07
1.16713e-06
-1.69448e-06
-4.42015e-07
-1.02487e-07
1.07827e-06
-1.95988e-06
3.73585e-07
6.58713e-08
-7.73751e-07
-1.17217e-06
9.62522e-07
-4.05445e-07
-1.59072e-07
5.64517e-07
-1.95755e-06
4.38936e-07
1.51862e-06
4.56837e-07
7.39663e-08
-1.43021e-06
-2.63333e-07
-1.76321e-06
2.02654e-06
-1.60582e-06
-3.5406e-07
4.49673e-07
2.22432e-07
-2.52504e-07
-5.15115e-07
1.82412e-06
-1.65092e-06
-1.73203e-07
-3.69107e-07
-1.33429e-06
-2.05231e-06
3.1942e-07
1.73289e-06
-1.28452e-07
1.56079e-06
-1.61337e-06
1.6494e-07
-4.74267e-07
-1.85016e-06
2.44345e-07
2.38004e-07
-1.08515e-06
8.47148e-07
-6.47044e-07
8.85049e-07
1.51133e-06
2.58425e-07
-1.76975e-06
9.62016e-08
8.13209e-07
-1.9761e-06
1.53743e-06
4.38673e-07
-1.75851e-06
1.07592e-07
-9.61164e-07
1.80535e-06
-1.05027e-06
2.87064e-07
5.19531e-07
-2.02706e-06
1.50753e-06
1.41539e-06
-1.78449e-06
-6.49624e-07
1.87397e-06
9.83443e-08
-5.40359e-07
3.81664e-07
-1.17972e-06
-1.47098e-07
1.12276e-06
-1.13962e-06
6.81941e-07
1.60412e-06
3.33352e-07
-1.93748e-06
-2.30411e-07
-1.61975e-06
-2.82033e-08
2.60492e-07
1.46172e-06
5.34738e-07
-1.59773e-06
1.81693e-06
-2.19201e-07
-5.14386e-07
1.8992e-06
-2.10912e-06
2.09925e-07
-1.64697e-07
2.0639e-06
1.31545e-06
-1.84619e-06
1.68771e-06
1.58483e-07
-1.79302e-06
-5.31696e-08
-1.63986e-06
1.55399e-06
8.587e-08
-1.67464e-06
1.8978e-06
-2.23161e-07
-2.01518e-06
3.40546e-07
1.72037e-08
-1.6255e-06
2.01348e-06
-4.76046e-07
-1.47057e-06
-1.69286e-07
-1.7897e-06
-9.00643e-08
-1.66844e-06
-2.00269e-06
1.83799e-06
-1.49287e-06
2.12381e-06
-6.30947e-07
4.00154e-07
-4.89329e-07
8.38846e-08
7.36388e-07
-2.22926e-06
1.46305e-07
-1.58505e-08
-1.73256e-06
1.34832e-07
-6.10831e-07
4.06428e-07
-5.0351e-07
2.44494e-07
2.59015e-07
-1.5028e-06
-7.21236e-07
-2.69797e-07
1.58652e-06
5.45584e-07
1.88519e-07
1.57217e-06
-1.86767e-06
2.95503e-07
1.93492e-06
3.50638e-07
1.66284e-06
-4.22937e-07
6.81008e-07
1.52597e-06
-2.20697e-06
-1.62186e-06
-1.10705e-07
6.44514e-08
-3.72492e-07
1.77629e-06
-1.24155e-06
6.4068e-07
-1.73378e-06
1.0931e-06
1.66295e-06
-4.9582e-07
2.00557e-06
5.83239e-08
-1.45114e-06
1.80643e-06
-2.34262e-07
1.84462e-06
-1.46797e-06
-3.76645e-07
1.38525e-06
3.91038e-07
7.89293e-07
-9.47174e-07
1.50252e-06
-2.0169e-06
1.1621e-06
-3.11825e-07
-8.50279e-07
-6.54171e-07
-1.66492e-06
1.68212e-06
-3.9656e-08
3.63754e-07
1.29919e-06
-1.40726e-06
-2.1824e-07
-1.61488e-06
-5.00377e-08
-1.52043e-07
-3.51466e-07
3.97467e-08
-1.6616e-06
-1.7926e-06
1.46805e-06
3.24547e-07
2.21993e-06
-7.41432e-07
-1.4785e-06
2.31811e-07
1.63608e-06
-1.86789e-06
1.74968e-06
-1.49822e-06
-2.51461e-07
-3.61876e-08
-1.5787e-06
2.86621e-07
2.53032e-07
-2.15604e-07
5.02225e-07
1.64978e-06
-1.69982e-06
1.62355e-06
-1.79675e-06
2.12024e-06
-1.3821e-06
-7.38142e-07
1.82393e-06
5.83206e-09
1.75738e-06
-7.46973e-08
3.07857e-07
1.15885e-06
-1.46671e-06
1.52003e-06
-1.98849e-06
-1.73532e-06
1.64525e-06
2.11724e-06
-3.6086e-07
-1.75638e-06
1.19833e-06
-2.49768e-07
-1.58505e-08
1.97213e-06
-1.15893e-06
-8.13202e-07
-1.49935e-06
2.16355e-06
-6.64203e-07
-4.6647e-07
5.85714e-07
-4.6647e-07
-1.85889e-06
2.10026e-06
-2.41368e-07
1.998e-06
7.57663e-09
-1.69485e-06
2.16043e-06
-4.65574e-07
-1.88237e-06
1.61258e-06
1.66817e-06
2.40502e-08
-1.69222e-06
2.11011e-06
-1.12114e-07
-1.12438e-08
1.65562e-06
-1.64437e-06
2.0162e-07
-2.4762e-07
-1.30673e-06
1.94741e-06
4.19314e-07
-6.71458e-08
2.00966e-06
1.92835e-06
1.81761e-07
-1.47037e-06
2.15138e-06
-8.70212e-07
1.17807e-06
6.20892e-07
2.58346e-07
4.687e-07
-4.77991e-07
5.96315e-07
-4.77991e-07
2.81704e-07
-5.41922e-07
2.06789e-06
1.91634e-06
-1.51389e-06
-4.02456e-07
-1.50308e-06
1.85372e-06
-1.51495e-07
-1.25754e-07
1.25754e-07
1.80108e-06
-1.88502e-07
1.71265e-06
-1.6886e-06
1.93138e-06
-9.33938e-08
1.55509e-06
3.61255e-07
1.54989e-06
-2.01267e-06
2.07099e-06
4.42035e-08
-2.13458e-06
-1.96086e-06
-1.0607e-07
2.06693e-06
-1.44345e-06
-1.76764e-06
-2.5376e-08
2.53032e-07
1.394e-07
1.79957e-06
1.68581e-06
1.58805e-06
-2.88854e-07
9.24979e-07
-9.24979e-07
-1.48276e-06
1.74119e-06
1.30155e-07
-1.64736e-06
2.11606e-06
1.49786e-06
-2.03949e-06
5.41631e-07
-2.80428e-07
2.20878e-06
-2.11874e-06
2.11475e-06
-4.37543e-08
-1.1746e-08
1.66381e-06
-1.65207e-06
1.78513e-06
-2.04421e-06
2.59079e-07
2.60197e-07
3.20842e-07
-6.00429e-07
2.09828e-06
1.45793e-06
-2.36267e-06
9.0474e-07
5.395e-08
-5.395e-08
6.60351e-07
-8.21848e-07
8.21848e-07
-1.77125e-06
1.83118e-06
-5.27731e-08
-1.77841e-06
-9.33366e-08
9.33366e-08
-2.12341e-06
6.87177e-08
-6.87177e-08
2.20494e-06
-2.00263e-06
-2.0231e-07
7.56746e-07
-7.56746e-07
-1.70397e-06
1.95595e-06
-5.72591e-07
-1.38336e-06
1.33822e-06
1.63592e-06
-8.19253e-08
-1.90881e-06
1.31403e-06
-1.22816e-06
2.33578e-06
-8.77854e-07
1.33207e-06
-1.70871e-06
-1.58962e-06
-7.73043e-07
-3.50615e-07
2.15018e-06
-5.19456e-07
1.92451e-06
1.70356e-06
-1.58994e-06
1.93896e-06
3.90335e-08
-1.81204e-06
3.29276e-07
5.16242e-07
1.43971e-06
-1.55957e-06
-4.28919e-07
2.05515e-06
1.17786e-08
2.27589e-06
-3.51374e-07
1.84458e-06
3.64198e-07
-2.10323e-06
-1.02049e-06
-6.39561e-07
1.66005e-06
1.14175e-06
-1.27866e-06
1.36913e-07
1.0186e-06
1.31718e-06
-1.67303e-06
1.74817e-07
5.16009e-07
1.4906e-06
-2.00661e-06
2.02252e-06
-3.59682e-07
-1.91363e-06
-1.44001e-06
-3.72027e-07
-1.37565e-07
1.46134e-06
-2.03393e-06
-6.87161e-07
6.87161e-07
-2.40089e-06
1.16066e-06
1.24023e-06
-2.35567e-06
7.66047e-07
1.97735e-06
1.75996e-06
2.6256e-07
-2.42145e-06
1.12538e-06
1.29607e-06
-3.27109e-07
-1.59139e-06
-4.23798e-07
-1.71901e-06
-6.36664e-07
4.47887e-07
1.828e-06
6.16922e-07
-1.63741e-06
-1.3823e-06
7.30771e-07
-1.66252e-06
9.31745e-07
2.29247e-06
5.02105e-07
-2.24759e-06
1.74548e-06
1.6267e-08
-5.4738e-07
5.31113e-07
5.32428e-07
2.0114e-06
1.70768e-06
-1.15458e-06
2.22416e-06
-1.06958e-06
-2.14032e-06
1.1095e-06
-1.98287e-06
8.73377e-07
2.33011e-06
7.06407e-07
2.67853e-07
-9.7426e-07
-1.26078e-06
-1.09199e-06
-1.13925e-06
2.23124e-06
-1.03677e-08
1.84155e-06
-1.43045e-06
-3.39303e-07
-5.47958e-07
5.47958e-07
-1.24581e-06
2.37119e-06
2.38472e-06
-8.89752e-07
-1.49497e-06
4.50249e-07
-1.89026e-06
1.74491e-06
5.47556e-07
-1.63932e-06
2.40536e-06
-2.3378e-06
-2.21851e-06
9.87899e-07
1.23061e-06
4.63459e-07
-1.15738e-06
-1.06113e-06
-1.53839e-06
-2.23383e-06
1.07924e-06
3.17302e-07
1.75594e-06
-2.07324e-06
1.24269e-06
9.69362e-07
-2.21206e-06
-1.51561e-06
2.42035e-06
-9.91131e-07
-1.38977e-06
-1.03806e-06
2.42783e-06
1.79256e-06
-7.09846e-07
-1.08272e-06
-2.35601e-06
7.16694e-07
1.06677e-06
1.84027e-06
-1.34207e-06
2.13713e-06
-7.95051e-07
9.94952e-07
-1.57609e-06
1.89339e-06
-8.84697e-07
1.50162e-06
-5.30703e-07
-6.11102e-07
2.38604e-06
-1.16704e-06
-1.219e-06
1.1921e-06
9.45024e-07
2.01626e-06
-8.24157e-07
1.60774e-06
2.8174e-08
1.94085e-06
1.83337e-06
1.68394e-07
-2.00176e-06
1.03399e-06
9.82264e-07
1.85323e-06
-8.19235e-07
-9.41128e-07
-1.13723e-06
2.07836e-06
9.21472e-07
1.39392e-06
-2.31539e-06
9.06278e-07
-1.89963e-06
9.93354e-07
2.14933e-06
-6.2732e-07
-1.40661e-06
1.1083e-06
1.27775e-06
-1.19555e-06
2.16491e-06
-1.00765e-06
-9.80015e-07
1.98766e-06
-1.07659e-06
9.24877e-07
1.0516e-06
-1.97648e-06
-1.4439e-06
-5.62705e-07
2.62728e-07
-2.06974e-06
1.80701e-06
-7.68408e-08
1.91021e-06
-2.15804e-06
1.2041e-06
9.53936e-07
2.40436e-06
7.27896e-07
-1.88794e-06
1.16004e-06
-3.6151e-07
1.71082e-06
-1.34931e-06
-2.1469e-06
1.06885e-06
-8.89206e-07
-1.79647e-07
-9.74756e-07
1.29011e-06
-1.29427e-06
2.02216e-06
-1.60373e-06
6.56994e-08
1.53803e-06
8.73213e-07
1.09393e-07
-1.82418e-06
1.71479e-06
1.05172e-06
-8.94672e-07
-1.57052e-07
1.49434e-06
1.75678e-07
-1.67001e-06
8.92137e-07
-2.08769e-06
-1.9376e-06
-1.0339e-06
2.08551e-06
3.25572e-07
1.24587e-06
-1.57145e-06
1.43241e-06
2.78417e-07
-9.66194e-07
-9.62815e-07
1.92901e-06
8.50436e-07
-1.08434e-06
-6.01607e-07
-1.28633e-06
1.65578e-06
2.37606e-07
5.90949e-07
1.55013e-06
-2.14107e-06
1.06995e-06
-1.10152e-09
-9.25642e-07
-1.15761e-07
4.79086e-08
1.92561e-06
-1.97351e-06
4.36247e-07
1.74368e-06
-2.17993e-06
1.00906e-06
-1.83321e-06
1.44313e-07
-2.34682e-06
8.07625e-07
1.53919e-06
-1.26722e-06
1.44289e-06
1.95296e-06
-1.36201e-06
2.08077e-06
-3.17971e-07
-1.7628e-06
-1.323e-06
1.3887e-06
-1.00891e-06
-1.14913e-06
2.5143e-07
-2.5143e-07
3.91881e-07
-3.91881e-07
-3.51511e-07
3.51511e-07
2.33177e-07
5.85714e-07
-4.02474e-07
4.02474e-07
2.82549e-07
-2.82549e-07
-2.64538e-07
2.64538e-07
-1.49588e-06
2.87153e-07
-2.87153e-07
3.91518e-07
2.61126e-07
-2.61126e-07
-4.1836e-07
4.1836e-07
3.01247e-07
-3.01247e-07
4.49825e-07
-4.49825e-07
-1.08947e-06
1.88172e-06
-7.92247e-07
2.58785e-07
-2.58785e-07
-2.85595e-07
2.85595e-07
-4.75237e-07
1.72341e-06
-1.24817e-06
1.48267e-06
-1.20425e-06
1.47773e-06
1.62518e-07
1.78649e-06
-9.36052e-07
1.13492e-06
-1.73653e-06
1.13101e-06
-2.45826e-07
5.74035e-07
9.97855e-07
-1.57189e-06
-1.42535e-06
-6.00084e-07
2.10761e-06
6.43787e-07
9.43162e-07
-1.58695e-06
1.25323e-06
-1.36899e-06
-1.66123e-06
-4.12005e-07
-1.25375e-06
-8.33942e-07
1.65783e-06
-1.66294e-06
8.43706e-07
-1.32888e-06
-8.83179e-07
-1.84214e-06
8.75942e-07
1.54742e-06
-2.14751e-06
-2.12111e-06
4.59874e-07
3.74094e-07
-1.41016e-06
-4.80102e-07
1.29753e-06
-1.29863e-06
2.26221e-06
2.15453e-07
1.19895e-07
1.153e-06
-2.42647e-07
1.70896e-06
2.14493e-08
1.36725e-06
-2.05781e-06
8.04061e-07
-1.74722e-06
2.18347e-06
-1.76828e-06
3.88069e-07
1.38021e-06
2.26494e-06
-1.63686e-06
-6.28082e-07
6.9702e-07
-1.8466e-06
2.08747e-06
-2.40867e-07
-1.93434e-06
1.98224e-06
-2.01108e-06
1.87095e-06
1.40132e-07
2.32689e-06
-1.51926e-06
-7.1463e-08
-6.53883e-07
-2.07529e-06
1.75732e-06
-2.16282e-06
-2.1282e-06
1.63853e-06
4.89674e-07
1.36102e-06
5.73346e-07
-1.93536e-06
-1.70352e-06
4.55351e-07
-2.85499e-07
-2.16093e-06
6.43407e-07
1.51753e-06
1.40303e-06
-1.24051e-06
-1.49343e-06
2.89178e-07
9.79013e-07
-1.69379e-06
1.04398e-07
5.17723e-07
1.53635e-06
-1.19366e-06
-3.42699e-07
-6.96781e-07
6.90027e-07
-5.41297e-07
1.53915e-06
3.36863e-07
1.53136e-07
-2.88327e-08
-2.62243e-07
-1.50604e-06
1.38746e-06
9.83735e-07
1.94182e-06
-1.55375e-06
-2.04347e-07
-1.17041e-06
3.37723e-08
1.13663e-06
-1.11934e-06
-3.70879e-07
-1.1089e-06
1.32435e-06
1.04699e-06
-1.27569e-06
-1.13018e-06
-5.70981e-07
9.59994e-07
-1.43331e-06
4.73316e-07
-1.85638e-06
-1.09757e-06
1.33617e-06
1.41535e-06
-1.43804e-06
5.53348e-07
1.23162e-06
6.50097e-07
-1.14896e-06
-6.34064e-07
-1.42498e-06
2.05905e-06
-6.32116e-07
3.1259e-07
-5.22405e-07
-7.81814e-07
1.65503e-06
-1.56235e-06
2.25238e-06
7.03741e-07
1.42439e-06
-2.12813e-06
1.28611e-06
8.30048e-07
-1.65657e-06
8.2652e-07
7.16686e-07
-2.27904e-06
-2.2158e-06
1.33262e-06
-1.78711e-06
2.12398e-06
1.63214e-06
-1.52774e-06
2.19083e-06
-4.81333e-07
-1.25519e-06
2.36647e-06
-1.41083e-06
-7.51989e-07
1.33412e-06
-1.00751e-06
2.96009e-07
1.52707e-06
1.81035e-06
-2.0147e-06
-3.74127e-07
1.44573e-06
-1.0716e-06
-2.18342e-06
1.20056e-06
9.82855e-07
-1.10427e-06
-4.67623e-07
1.31802e-06
-1.58026e-06
-2.19438e-06
1.1248e-06
1.30135e-06
-6.7698e-07
-6.24371e-07
-9.59997e-07
1.32428e-06
-2.21821e-06
1.22708e-06
-7.76957e-07
-1.43884e-06
1.75625e-06
-3.76034e-07
8.47207e-07
1.9204e-06
-5.01053e-07
-1.41935e-06
2.95845e-07
-9.79685e-07
-1.80248e-06
-2.17223e-06
1.39528e-06
-6.54708e-07
-1.5856e-06
-9.3954e-07
1.73945e-06
-7.99906e-07
-2.07969e-06
-1.00018e-06
1.65028e-06
-8.85586e-07
5.26887e-07
-5.201e-07
-9.13211e-07
-1.43183e-06
-1.40314e-06
6.21327e-07
-2.18846e-06
9.14648e-07
1.27381e-06
-2.12579e-06
8.43631e-07
1.28215e-06
9.78102e-07
-1.68139e-06
2.19912e-06
-2.16006e-06
1.27447e-06
-2.21026e-06
5.00864e-07
-1.69452e-06
2.4714e-07
1.68326e-06
-1.9304e-06
-1.23737e-06
-2.07122e-06
-8.20548e-07
1.30771e-06
-4.87158e-07
-1.05428e-06
-9.56871e-07
2.01115e-06
2.27385e-06
-4.70053e-07
-1.62063e-07
1.55722e-06
-2.07962e-06
7.6478e-07
1.92768e-08
-1.66365e-06
8.42019e-07
-1.58524e-07
-1.51451e-06
-1.85467e-06
1.14641e-06
7.08263e-07
-9.67299e-07
1.73337e-06
-7.93139e-07
-9.40229e-07
-1.36185e-06
9.4351e-07
-6.3092e-07
-6.91213e-07
1.41605e-06
-7.24837e-07
-1.11664e-06
-5.22472e-07
-7.38665e-07
-7.76444e-07
1.51511e-06
-9.59286e-07
-8.82849e-07
1.5788e-06
-2.60778e-07
8.51975e-07
1.17019e-06
3.82838e-07
-1.45444e-06
1.87886e-06
-1.37799e-06
-7.94258e-07
-7.18975e-07
-9.37592e-07
-7.69875e-07
-1.08479e-06
2.14643e-06
-1.02163e-06
3.83743e-07
9.40535e-07
1.20276e-06
1.02979e-06
1.26e-06
7.15193e-07
-1.9752e-06
5.42602e-07
-1.01266e-06
3.25872e-07
6.17638e-07
5.89571e-07
7.1178e-07
-8.50519e-07
-7.79818e-07
1.63034e-06
-2.07591e-06
-1.16464e-06
-1.67821e-06
9.11499e-07
5.48114e-07
-1.45961e-06
-1.21114e-06
-7.22182e-07
1.31175e-06
-1.59435e-06
4.22922e-07
1.17143e-06
-1.91616e-06
-1.13314e-06
2.11599e-06
-5.61724e-07
-8.97889e-07
-1.502e-06
-1.08901e-06
-5.05341e-07
1.87815e-06
2.05749e-06
-5.59435e-07
1.15915e-06
-2.12644e-06
-1.94676e-06
3.93014e-07
-2.63503e-07
1.04833e-06
-2.07812e-06
9.44985e-07
9.04852e-07
1.68661e-06
5.81332e-07
-1.27254e-06
-9.16762e-07
-1.92561e-06
-8.90839e-08
6.85477e-07
-1.36246e-06
-1.19264e-06
8.94331e-07
1.29022e-06
-2.18455e-06
-1.14582e-06
1.92171e-06
-7.75885e-07
2.03129e-06
-1.97286e-06
6.39606e-07
8.16523e-07
-1.60966e-06
1.20742e-06
-5.67819e-07
-6.9425e-07
-7.64568e-07
-1.0124e-06
1.77697e-06
-1.95444e-06
-1.19152e-06
2.03515e-06
-7.31292e-07
1.28464e-06
-8.55685e-07
1.66776e-06
-8.12079e-07
8.59901e-07
6.55207e-07
-4.44098e-07
-1.38427e-06
1.82837e-06
5.9591e-07
-1.8896e-06
1.29369e-06
-7.27048e-07
-6.14965e-07
1.87497e-06
-1.86034e-06
1.00465e-06
-1.91039e-06
2.02473e-06
-1.11988e-06
-6.50042e-07
-1.76954e-06
1.07718e-06
-1.87709e-06
-1.70398e-06
-1.39957e-06
6.68277e-07
1.73294e-06
-1.81515e-08
-2.08006e-06
6.73454e-07
5.96327e-07
1.27864e-06
8.33208e-07
6.4844e-07
8.90711e-07
-1.37654e-06
1.21186e-06
1.51796e-06
2.00739e-08
8.6997e-07
-1.98985e-06
-1.79892e-06
8.5869e-07
-1.99681e-06
6.13451e-07
1.04486e-06
8.84146e-07
2.11216e-06
-8.30004e-07
1.23568e-06
-6.54344e-07
1.02109e-06
6.87862e-07
-1.46212e-06
7.08001e-07
4.99424e-07
6.67857e-07
1.25927e-06
-6.38688e-07
-8.23433e-07
5.66552e-07
7.41154e-07
9.73793e-07
-1.46615e-06
4.92359e-07
-2.0242e-06
1.32336e-06
7.00842e-07
-1.97423e-06
1.05747e-06
1.39954e-06
1.70157e-06
-1.34723e-06
-7.32834e-07
-1.00712e-06
-1.36321e-06
5.6895e-07
3.61728e-07
-9.78305e-07
-7.64929e-07
2.16814e-06
3.37324e-08
1.33352e-06
2.0532e-06
-1.33801e-06
1.22146e-06
-1.06383e-06
-7.96512e-07
-1.04387e-06
-7.55052e-07
-8.30619e-07
-8.0404e-07
6.76669e-07
-1.39455e-06
-1.21928e-06
-5.54011e-07
1.77329e-06
1.4531e-06
-1.61163e-06
1.55169e-06
1.33552e-06
-1.10696e-06
3.50026e-07
7.56934e-07
-1.89206e-06
1.80297e-06
8.18167e-07
-1.06309e-06
2.44927e-07
1.64191e-06
-1.88801e-07
-4.23062e-07
-5.89593e-07
2.07748e-06
-1.59041e-06
8.65571e-07
1.75301e-06
-8.01554e-07
-7.88854e-07
-1.84791e-06
-2.12739e-06
-1.78935e-06
5.70066e-07
-1.05991e-06
1.46035e-06
-4.00438e-07
1.63642e-06
4.54513e-07
1.66953e-06
-1.00124e-06
-3.7328e-07
1.37452e-06
-1.93322e-06
2.19595e-06
4.76018e-08
-1.69967e-06
1.88981e-06
-1.27636e-06
7.69115e-07
8.61222e-07
-8.96958e-07
-1.34399e-06
-1.3358e-06
1.85204e-06
1.45726e-06
-1.43319e-06
6.96029e-07
6.15724e-07
-1.11613e-06
-1.70251e-06
1.24649e-06
-4.28328e-07
1.39045e-06
-1.15569e-06
1.48126e-06
3.17619e-07
-1.84811e-06
1.53049e-06
1.3915e-06
4.60543e-07
-2.02176e-07
1.63117e-07
3.9059e-08
1.46514e-06
-2.21371e-07
2.12726e-06
-8.37044e-07
-2.38065e-07
1.34385e-06
-1.10579e-06
1.81976e-06
-9.35609e-07
-1.27427e-07
1.91271e-06
8.12634e-07
-1.6479e-06
-1.37022e-08
-1.56022e-06
1.80781e-06
-4.16309e-07
-1.42535e-07
-1.46909e-06
1.68164e-06
-2.67467e-07
-1.41418e-06
1.27068e-06
4.3351e-08
-1.47651e-06
1.64981e-06
-1.73292e-07
-1.24319e-06
1.49017e-06
-2.46978e-07
3.04659e-07
3.2545e-07
-1.22241e-06
9.14481e-07
-6.95181e-07
-1.84457e-06
-4.03013e-07
-5.81014e-07
-1.73716e-06
-1.1066e-06
-6.36348e-07
-7.34762e-07
-1.24043e-06
1.62558e-06
1.47042e-06
-5.38672e-07
1.59737e-06
-1.37452e-06
-2.28677e-07
1.60319e-06
-1.54713e-07
-1.60227e-06
1.75698e-06
1.10904e-06
-2.32804e-06
7.89249e-07
1.43958e-07
1.40773e-06
1.33814e-06
1.85059e-06
2.05131e-07
1.44613e-06
3.61671e-07
-2.42619e-07
-8.20476e-07
-1.70752e-06
1.29577e-07
1.57794e-06
-1.72531e-07
1.60665e-06
2.47077e-07
-1.86245e-06
6.7629e-07
1.9563e-06
-1.94452e-06
-7.62083e-07
-6.00374e-07
-1.54721e-06
1.40467e-06
-3.06628e-08
1.28221e-06
2.67682e-07
-1.36093e-06
1.39239e-06
-3.14612e-08
-5.96255e-07
-1.26149e-06
1.39999e-06
-1.38492e-07
-1.7308e-07
1.73959e-06
-1.56651e-06
2.01831e-06
-1.53493e-06
1.4628e-06
2.02321e-07
-1.66512e-06
-1.1055e-06
-5.98472e-07
1.76375e-06
1.54129e-06
1.08511e-07
1.84424e-07
-1.25331e-06
1.06888e-06
1.90317e-06
-1.22487e-06
-1.23477e-06
1.49629e-06
-1.13877e-06
-3.96164e-07
1.72096e-06
-2.24675e-07
1.48686e-06
-1.75295e-06
1.56415e-06
-1.41321e-06
-1.33997e-07
3.90553e-08
-1.61351e-06
3.78736e-07
1.54767e-06
-1.29195e-07
1.52159e-06
6.31818e-07
-7.31713e-08
-1.6003e-06
-1.85789e-06
1.99729e-06
1.29885e-06
1.78284e-06
5.87112e-08
-1.5424e-06
5.24937e-08
-1.56745e-07
1.29849e-06
-3.18268e-07
1.67972e-06
-1.32046e-07
1.64722e-06
1.88795e-06
-1.05109e-07
1.35316e-06
2.94066e-07
-1.63603e-06
8.96057e-08
1.54643e-06
8.25613e-07
-2.32058e-06
-1.12019e-06
-1.58364e-06
6.91322e-08
1.70909e-06
1.78863e-07
-1.69992e-06
-1.60416e-07
1.86034e-06
-1.53115e-06
-8.3604e-09
-1.01746e-06
1.02582e-06
7.94172e-08
-2.60354e-07
-9.26582e-07
-1.20943e-06
2.13601e-06
-7.02328e-07
-9.92148e-07
-1.38139e-06
2.01501e-06
-1.62732e-06
1.60305e-06
-1.51382e-07
-1.43856e-06
1.54748e-06
-1.70219e-06
1.29049e-06
-4.08594e-07
1.198e-06
-1.29478e-06
1.33211e-07
1.16156e-06
-1.22501e-06
-9.19751e-07
2.14476e-06
1.29907e-06
-6.83351e-07
-8.22086e-07
1.91141e-06
-1.86921e-06
-1.5669e-06
-1.66932e-06
-2.13553e-06
-1.25085e-06
-4.39234e-08
-1.17765e-06
-2.03736e-07
1.41608e-07
8.78096e-07
-1.0197e-06
-1.53191e-06
1.59681e-06
-1.61051e-06
1.67705e-06
2.27189e-06
-1.61791e-06
-3.96865e-07
-1.57334e-06
9.99912e-07
1.1342e-06
7.0282e-07
2.02971e-07
8.71944e-07
1.63702e-06
-3.96405e-08
-1.6068e-06
1.56529e-06
-3.1942e-07
1.68642e-06
3.0482e-07
-1.80735e-06
1.50253e-06
-2.24039e-07
1.54235e-06
-1.31832e-06
1.57571e-06
9.44521e-07
2.33547e-07
1.62071e-06
-1.26122e-06
8.35731e-08
-2.2438e-06
6.39906e-07
1.60389e-06
1.79118e-06
-2.60691e-07
1.30184e-06
-1.45322e-06
7.65136e-08
-1.53156e-06
1.50009e-06
1.77131e-06
-1.95595e-07
1.52206e-06
-2.04152e-06
-1.22634e-06
-3.48851e-08
1.5521e-06
-1.5896e-06
-7.40513e-08
-1.67992e-06
-5.08601e-08
8.27984e-07
1.19024e-06
2.04159e-07
1.13014e-06
1.43625e-07
-1.27376e-06
-1.01986e-08
-1.5567e-06
1.62098e-06
-1.79406e-06
1.58775e-06
-1.47924e-06
1.56063e-06
-4.91128e-07
-1.06951e-06
8.08828e-08
-1.60449e-06
9.1744e-08
8.72695e-07
-9.64439e-07
8.74526e-08
8.78569e-07
-1.85692e-06
1.52982e-06
1.24172e-07
1.63281e-06
5.25128e-07
9.76491e-07
-1.94428e-06
1.51536e-06
1.72124e-06
-1.15236e-06
-6.80854e-07
-1.40386e-06
-1.27693e-07
-1.89088e-06
1.4037e-06
-1.2122e-06
1.56352e-07
1.05585e-06
1.24132e-07
1.4018e-06
-1.62584e-06
1.51261e-06
6.53298e-08
-4.14464e-07
-1.24142e-06
-2.04816e-06
-1.82448e-06
5.26161e-07
-1.99345e-06
4.44747e-07
-1.71084e-06
2.9666e-07
1.87244e-06
-2.01257e-06
-3.10527e-08
7.39031e-07
8.15682e-07
1.50692e-06
2.97587e-07
1.61382e-06
-1.52565e-06
-1.5353e-06
-5.09422e-08
-1.65303e-06
4.89994e-07
1.2833e-06
1.60677e-06
1.54317e-06
1.74515e-06
1.1602e-06
1.60754e-06
5.63808e-07
1.09624e-06
-3.57268e-07
2.66254e-07
2.08423e-06
-1.84336e-06
1.72026e-06
-2.1046e-06
1.70159e-06
-1.5899e-06
-1.60693e-06
-1.34917e-06
8.04745e-07
-6.48393e-07
6.58874e-07
5.48201e-07
8.60328e-07
6.94384e-07
-1.75091e-06
1.45506e-06
1.81933e-06
2.27558e-06
-1.6475e-06
-7.34989e-07
-1.12139e-06
1.32918e-06
-1.6486e-06
3.94676e-07
-1.74384e-06
9.21267e-08
-2.00894e-06
1.92185e-06
4.67545e-07
3.14639e-07
-1.17518e-06
1.66518e-06
-2.01138e-06
-1.38024e-06
1.73403e-06
-2.63457e-08
-1.61953e-06
2.25154e-06
-6.32007e-07
2.4644e-07
-1.95265e-07
-1.25393e-06
-2.02152e-06
4.95466e-07
-1.87974e-06
-2.2562e-06
1.50738e-06
-1.51682e-06
1.48194e-06
1.81054e-06
2.92816e-07
2.7135e-07
-2.22809e-07
1.5403e-06
-1.66631e-06
1.37788e-06
-8.50989e-07
8.52243e-07
1.90789e-06
-1.69624e-06
-7.36031e-07
-6.41312e-07
-5.34652e-07
-1.35495e-06
3.90616e-07
3.91569e-07
5.86948e-07
-2.24708e-06
1.03765e-06
-1.66591e-06
1.92499e-06
2.09322e-06
-1.59776e-06
-2.25284e-06
1.33309e-06
1.44633e-07
1.62657e-06
-4.11249e-07
1.3979e-06
-8.28875e-07
-8.3443e-07
-8.35334e-07
1.07753e-06
9.40703e-07
-4.06884e-07
2.10847e-06
-9.62396e-07
-4.70792e-07
-4.41302e-07
1.57861e-06
9.35816e-07
1.42284e-06
1.501e-06
-1.13804e-06
9.65928e-07
-1.51515e-06
2.15506e-06
-1.27059e-06
1.64798e-07
1.01575e-06
-3.28275e-07
1.75111e-06
-2.49744e-07
1.23174e-06
-1.42722e-06
-1.30068e-06
7.03317e-08
-1.59419e-06
-1.00672e-06
1.9399e-06
6.0837e-07
1.59672e-06
-7.27833e-07
-2.0498e-06
1.46121e-06
-5.10715e-07
9.17647e-07
-8.47316e-07
1.07461e-06
-1.1945e-06
4.55483e-08
4.53087e-07
7.51935e-07
3.73583e-08
2.07744e-06
-1.05138e-06
2.38174e-07
-8.87797e-07
8.98509e-08
-1.12873e-06
-4.34371e-08
9.28201e-07
-2.21794e-07
7.17138e-07
-9.84235e-07
2.17017e-06
-1.0467e-06
4.47405e-07
1.24459e-06
-1.75704e-07
-1.34933e-06
1.21741e-06
6.47407e-07
2.56798e-07
-9.04205e-07
-8.57541e-07
1.42324e-06
-6.58911e-07
-2.30262e-07
1.15474e-06
7.95378e-10
-8.33694e-07
5.01091e-07
1.09679e-06
-5.97367e-07
1.33911e-06
-5.58073e-07
4.58228e-07
-1.28592e-06
7.26488e-07
1.15111e-06
-1.70737e-07
4.80378e-07
8.83374e-07
5.89035e-07
8.71954e-07
-2.16633e-07
7.38994e-07
-4.88713e-07
1.00514e-06
-5.16424e-07
1.15748e-06
4.08503e-08
1.34419e-06
1.13706e-06
7.90348e-09
1.25611e-06
-6.34784e-07
9.53004e-07
1.21716e-06
-1.34142e-06
-1.71857e-06
1.78756e-07
3.36678e-07
1.11776e-06
1.15748e-06
-1.05305e-06
4.9701e-07
-1.00013e-06
-1.15329e-06
5.52921e-07
1.70415e-06
-2.10102e-06
-8.24963e-07
2.17887e-07
-2.43764e-07
-2.07739e-08
2.51137e-07
7.64793e-09
-3.90912e-07
-1.15626e-08
-2.8523e-07
-6.62802e-08
4.17382e-07
4.07241e-07
5.67719e-07
2.37279e-07
2.8523e-07
-4.17382e-07
-2.37279e-07
-4.98739e-08
3.86559e-07
-8.53126e-08
-4.07241e-07
-5.67719e-07
-2.43764e-07
2.51137e-07
-3.90912e-07
3.86559e-07
-1.30627e-06
8.0093e-07
3.5715e-07
-4.03328e-07
9.45609e-07
-5.72128e-07
5.72128e-07
3.5715e-07
-1.58587e-06
-1.01327e-06
9.54983e-07
1.89042e-06
-9.49714e-07
-7.04432e-07
-1.3924e-06
1.15745e-06
2.66803e-07
-1.5373e-08
-2.66803e-07
-3.44437e-08
-1.44163e-06
-1.19038e-06
5.11728e-07
-9.4349e-07
-1.35805e-07
7.83213e-07
4.10447e-07
-6.21459e-08
6.82856e-07
9.00139e-07
-2.16287e-06
-8.75383e-07
-2.09487e-06
9.35947e-07
1.1253e-06
7.13622e-07
-2.09381e-06
3.7524e-07
-5.68785e-07
9.29253e-07
6.4426e-07
-6.61217e-08
-9.00299e-07
-2.98504e-07
2.73396e-07
2.51082e-08
1.21233e-06
-3.28952e-07
1.68609e-07
-1.68609e-07
-6.32354e-07
-7.42007e-07
-1.61344e-06
7.8593e-07
-7.43562e-07
7.28189e-07
2.84416e-07
-5.8292e-07
1.33603e-06
-2.05107e-06
6.68973e-07
-7.85449e-07
1.30754e-06
-5.88798e-07
1.30212e-06
-1.16562e-06
8.54242e-07
-1.01776e-06
4.01814e-08
-8.87497e-07
9.35984e-07
8.67938e-08
3.8814e-07
5.28063e-07
-4.87882e-07
-3.81124e-08
-1.27968e-06
-1.88949e-07
1.4634e-06
-9.57015e-07
-4.05144e-08
4.05144e-08
-1.9898e-07
-5.245e-08
1.9898e-07
-9.63501e-09
6.3585e-08
-6.3585e-08
-9.25284e-07
-7.94583e-07
1.60006e-07
-1.98834e-06
4.15005e-07
-1.19291e-06
5.41611e-08
7.50584e-07
5.15591e-07
-1.4358e-06
-5.70382e-07
-1.38834e-06
-5.41709e-07
-8.50696e-07
9.4552e-07
4.87079e-08
1.12272e-06
-1.28452e-07
-6.50516e-07
-6.29063e-07
6.29063e-07
1.04512e-06
-2.09196e-07
-9.06847e-07
-1.08418e-06
4.98022e-07
-8.90618e-07
3.92596e-07
4.32084e-07
5.5225e-09
6.99845e-07
-5.56559e-07
4.23882e-07
-9.55203e-07
1.51589e-07
3.1157e-07
3.15831e-08
-6.79976e-07
-1.37922e-07
1.37922e-07
5.16273e-07
4.88865e-07
7.36031e-07
7.04101e-07
-1.95061e-07
-5.09039e-07
2.53005e-07
1.4212e-07
5.36806e-08
-3.8814e-07
2.63032e-07
-5.36806e-08
-8.33367e-07
2.64887e-07
5.6848e-07
1.96506e-06
-3.02643e-07
-1.74956e-07
2.62409e-08
-2.09006e-06
1.27325e-06
8.16815e-07
-6.61217e-08
-4.92896e-07
-5.16424e-07
4.92896e-07
3.60997e-07
4.2588e-08
-8.71463e-07
-2.83071e-07
-3.26165e-07
2.83071e-07
3.26165e-07
1.9682e-07
-1.9682e-07
-8.80755e-08
-9.61861e-08
-1.02675e-06
-6.30926e-07
-2.71028e-07
-4.72534e-07
-1.36169e-07
-2.55713e-07
2.55713e-07
-1.0467e-06
-5.06808e-07
-4.23882e-07
-4.86219e-07
8.76411e-08
2.09196e-07
-8.39813e-07
-4.0578e-07
-6.382e-08
6.20194e-07
2.12024e-06
2.77565e-07
-9.12348e-07
4.60139e-08
-1.44942e-07
1.60006e-07
-1.59376e-06