/*--------------------------------*- C++ -*----------------------------------*\
  =========                 |
  \\      /  F ield         | OpenFOAM: The Open Source CFD Toolbox
   \\    /   O peration     | Website:  https://openfoam.org
    \\  /    A nd           | Version:  9
     \\/     M anipulation  |
\*---------------------------------------------------------------------------*/
FoamFile
{
    format      ascii;
    class       surfaceScalarField;
    location    "1.95";
    object      phi;
}
// * * * * * * * * * * * * * * * * * * * * * * * * * * * * * * * * * * * * * //

dimensions      [0 3 -1 0 0 0 0];

internalField   nonuniform List<scalar> 
1363
(
-5.03821e-07
3.21272e-07
1.82549e-07
-2.91363e-07
6.2002e-08
2.29361e-07
7.47663e-07
-5.78031e-07
-1.69632e-07
-1.54395e-07
4.63194e-07
-3.08799e-07
6.85897e-07
6.17658e-08
3.5274e-07
-9.44407e-09
-3.43296e-07
-1.24967e-07
1.24967e-07
3.17926e-07
3.48141e-08
-2.94756e-07
3.0345e-07
-8.694e-09
1.43662e-08
-3.09122e-07
-5.33563e-07
4.31633e-07
1.0193e-07
5.1578e-07
-6.88157e-07
1.72378e-07
3.41253e-07
-4.95647e-07
-7.21837e-07
7.34732e-07
-1.28952e-08
6.70792e-08
4.48701e-07
-2.15281e-07
-7.60819e-08
2.91704e-07
-8.27909e-09
-2.83425e-07
-2.55725e-07
-2.48095e-07
-4.55184e-07
-7.96996e-08
5.34883e-07
-3.01793e-07
3.01793e-07
2.20463e-07
7.12411e-08
-2.99234e-07
-3.88924e-07
-1.45027e-07
-2.00294e-08
1.65057e-07
5.66628e-08
7.8073e-08
-1.34736e-07
-3.78141e-07
-1.55422e-07
1.95285e-07
-1.38622e-07
6.32461e-07
-5.80128e-07
-5.23332e-08
-2.18961e-07
7.39335e-08
-1.31027e-07
9.23823e-08
3.86447e-08
-2.33222e-08
-3.52877e-07
3.76199e-07
-1.4681e-07
-2.1519e-08
1.68329e-07
1.71294e-08
6.15331e-07
-5.39741e-08
-7.70529e-08
-3.40881e-07
-1.39542e-07
4.80422e-07
5.74612e-07
-5.42148e-07
-3.24638e-08
2.44103e-08
1.10822e-07
-1.35232e-07
-4.78088e-07
1.90873e-07
2.87214e-07
2.98306e-07
-1.28269e-07
-1.70037e-07
-2.5449e-07
-2.23598e-07
-3.82668e-08
1.1634e-07
1.98589e-07
-5.34894e-07
3.36304e-07
4.76686e-07
-5.03598e-07
2.69122e-08
2.23374e-08
-6.06042e-08
-3.04423e-08
-9.45243e-08
5.87046e-08
6.6262e-08
-2.04679e-07
-6.32305e-08
2.6791e-07
3.63704e-07
1.54556e-07
-5.1826e-07
1.92371e-07
-5.33252e-07
-3.37288e-07
5.35878e-07
-2.72973e-07
-4.48864e-07
-5.17532e-07
6.23479e-08
4.68086e-08
-6.6838e-08
7.44993e-08
-5.0089e-08
1.89415e-07
-1.17834e-07
-7.15807e-08
4.10788e-07
-3.96422e-07
-4.28883e-07
3.30557e-07
9.83264e-08
2.29308e-07
-2.29308e-07
-1.01337e-09
4.11802e-07
1.41865e-07
8.74431e-08
8.03498e-07
-2.84253e-08
-7.75073e-07
-2.08382e-07
1.8506e-07
6.34147e-07
-5.65161e-07
-6.89864e-08
-3.69316e-07
2.29774e-07
-8.92852e-08
4.10557e-07
1.94754e-07
1.03552e-07
3.39338e-07
-3.10107e-07
-2.92304e-08
5.40198e-08
2.28931e-07
4.59213e-07
-6.88144e-07
-1.33579e-07
-2.95304e-07
2.80248e-07
-2.06115e-07
-7.41334e-08
2.08949e-07
-1.46947e-07
-2.26629e-07
2.11022e-07
1.56077e-08
1.40731e-07
-1.40731e-07
-2.24971e-08
-3.3038e-07
8.76547e-08
1.0176e-07
2.59397e-08
-3.27733e-07
1.13268e-07
1.88525e-07
9.45131e-09
-1.55664e-07
8.85378e-09
-3.30012e-07
1.14731e-07
-1.26637e-08
9.05479e-08
-7.78842e-08
1.73766e-07
-1.75319e-07
1.43504e-07
3.18146e-08
9.32544e-09
-3.6634e-07
5.62325e-08
-7.6356e-07
7.33654e-07
2.99065e-08
5.98471e-07
2.05027e-07
3.79549e-07
3.08139e-08
-4.10363e-07
1.97624e-07
5.37109e-07
-2.90684e-07
1.15365e-07
5.54688e-07
-7.80021e-08
2.21853e-07
7.94647e-09
-2.298e-07
-4.17385e-07
4.16371e-07
5.7576e-07
-2.45203e-07
3.10567e-07
-2.12241e-07
2.33038e-07
-2.0377e-07
-2.92679e-08
-1.49364e-07
-3.54234e-07
-4.17301e-08
4.21279e-07
-1.90233e-07
1.77569e-07
-1.36279e-08
2.15539e-07
-1.44709e-09
-2.14092e-07
3.8821e-08
-4.56206e-07
-1.53828e-07
2.49806e-07
-1.53196e-07
4.63763e-07
2.38886e-09
1.82671e-07
9.87683e-08
-3.03447e-07
-8.04619e-08
-7.36668e-08
1.54129e-07
2.65943e-07
-3.70125e-08
3.27578e-07
1.31634e-07
-1.2118e-07
-1.23991e-08
-2.57447e-07
-3.78568e-08
-8.96728e-08
-9.62899e-08
-1.30339e-07
-5.39274e-08
4.8556e-07
2.21853e-07
7.30344e-07
-8.17229e-07
8.68856e-08
3.87267e-07
7.59267e-08
-7.8077e-08
6.44491e-08
1.62111e-07
-3.70182e-07
2.0807e-07
-6.44491e-08
6.6838e-08
1.31048e-07
-1.59849e-08
-1.15063e-07
2.23374e-08
6.46492e-08
-1.31406e-07
-8.86322e-08
-6.70319e-08
4.68086e-08
-1.14578e-07
6.06042e-08
1.14578e-07
-1.69987e-07
5.54087e-08
7.44993e-08
3.1283e-07
-3.92529e-07
-3.1283e-07
3.13679e-07
-8.49674e-10
3.92529e-07
-2.37974e-07
-3.55548e-07
5.47919e-07
3.55548e-07
-8.96046e-08
-3.13679e-07
2.50449e-07
-5.85144e-08
-6.26659e-08
2.37974e-07
8.96046e-08
-3.20113e-07
6.26659e-08
3.20113e-07
-6.57401e-07
-5.47919e-07
6.57401e-07
-1.09482e-07
-2.50449e-07
1.69987e-07
6.40671e-07
3.76688e-08
-1.26301e-07
3.12826e-07
5.0997e-09
3.92869e-08
2.16396e-08
-2.27755e-07
6.03912e-08
1.5063e-07
6.70825e-08
-2.53986e-07
1.86904e-07
-2.48584e-07
-5.14976e-07
5.26356e-08
2.6019e-07
5.76963e-07
-4.52605e-07
-1.24358e-07
5.36688e-07
-5.28741e-07
-1.79207e-07
2.0244e-07
-2.32339e-08
-5.61032e-07
1.8884e-08
1.15402e-08
-2.6603e-07
-2.99648e-07
-6.66917e-08
-7.652e-09
6.0272e-08
-5.262e-08
-8.45655e-07
2.58978e-07
-4.02601e-07
1.02953e-07
2.4787e-07
-2.3633e-07
-4.87078e-07
1.78279e-07
3.08563e-07
3.03292e-08
-3.38892e-07
4.45938e-07
1.31025e-07
-5.95141e-08
-6.4808e-07
7.07594e-07
7.93135e-08
1.36225e-07
3.31962e-07
-8.21556e-08
1.94243e-07
-3.86625e-07
-5.70265e-07
4.98021e-07
1.18649e-07
-3.62894e-08
1.27245e-07
6.06408e-07
-3.74369e-07
2.76882e-07
9.74875e-08
4.79591e-08
-2.51729e-07
-1.53214e-07
-2.21155e-07
5.60402e-07
1.5358e-08
-4.25929e-07
3.12411e-07
1.13517e-07
-1.87773e-07
8.56677e-09
-4.16211e-08
1.34003e-07
2.57956e-07
-1.49047e-07
-2.78222e-07
2.13053e-07
-3.57114e-07
-3.3914e-07
6.96254e-07
-4.24037e-07
2.99009e-08
3.94136e-07
5.48079e-07
-7.96663e-07
4.42867e-07
-1.30455e-07
8.35028e-07
-7.92578e-07
-4.24504e-08
3.43167e-07
9.96995e-08
-2.86914e-07
2.50625e-07
2.677e-08
1.41559e-07
-2.77099e-08
-3.96327e-07
5.1841e-07
-1.77158e-07
4.33591e-07
-4.03046e-07
-3.05449e-08
-3.7094e-07
-1.63954e-07
2.47436e-08
-2.47436e-08
-7.8077e-08
2.07676e-07
3.10734e-07
-1.07478e-07
7.9768e-08
1.85964e-07
2.54046e-07
2.52818e-07
-9.35917e-08
-6.59089e-07
6.8899e-07
4.7081e-08
3.72641e-08
-2.38988e-07
4.46664e-07
-2.0716e-07
4.13679e-07
-2.06519e-07
-8.14892e-07
7.45906e-07
-6.9809e-08
-2.14564e-07
4.90206e-07
-2.75642e-07
-2.53732e-07
8.01811e-07
8.41269e-07
-7.16037e-07
-1.25232e-07
-4.38967e-07
3.59208e-08
-4.07217e-07
-3.17493e-08
-3.29811e-07
4.84241e-07
-1.5443e-07
3.00661e-07
-5.15225e-07
-1.07741e-07
4.50908e-07
4.63698e-07
-2.45205e-07
-2.18493e-07
7.58797e-08
-7.58797e-08
3.21338e-07
-3.21338e-07
-4.98361e-08
-7.65056e-07
-3.50746e-07
4.76737e-07
-1.25991e-07
9.64794e-08
5.21875e-08
-1.48667e-07
2.94267e-08
1.83626e-07
-6.93574e-07
3.4485e-08
2.50189e-07
-2.50189e-07
-6.99899e-08
6.99899e-08
1.60394e-07
2.05509e-07
-4.44497e-07
7.88828e-07
5.24405e-08
1.33495e-07
1.23249e-07
-4.43652e-07
3.64344e-08
-3.91464e-07
1.21511e-07
2.1045e-07
-1.07447e-07
-3.74719e-07
4.82166e-07
3.08949e-07
-2.11462e-07
-2.5001e-07
3.63527e-07
-1.00354e-07
-3.6929e-07
-9.63035e-08
4.65594e-07
1.88056e-07
9.15001e-08
7.85192e-07
-2.55013e-07
5.07832e-07
4.93865e-08
-8.41964e-07
-2.89394e-07
3.89094e-07
2.01459e-07
-4.8246e-07
7.37048e-08
3.77204e-07
-5.19233e-07
-2.09281e-07
7.28514e-07
5.89392e-08
-4.8321e-07
3.2878e-07
2.19877e-07
-7.3911e-07
-7.9752e-07
-3.06938e-07
3.80643e-07
-4.18558e-07
3.22254e-07
5.69244e-08
4.02921e-07
-4.59845e-07
1.70986e-07
3.78332e-07
8.72616e-08
5.14403e-07
-1.3607e-07
-8.02395e-07
8.21211e-07
-1.88154e-08
8.1291e-08
-6.48227e-08
8.10729e-07
-6.5631e-07
-6.20945e-07
8.40821e-07
-3.8704e-07
-9.83796e-09
3.96878e-07
-7.10381e-07
6.6793e-07
-3.28038e-09
5.0089e-08
1.28167e-07
-1.73447e-08
1.41348e-07
-1.44629e-07
-3.7472e-07
-1.232e-08
2.59324e-07
-5.70108e-07
3.10785e-07
-9.66255e-07
1.206e-07
-3.45786e-08
4.10277e-07
-3.75699e-07
-4.58684e-07
4.24105e-07
3.43746e-07
3.68972e-08
4.0067e-07
5.08895e-07
-2.49571e-07
-1.005e-07
1.81791e-07
-9.31041e-07
3.10096e-07
1.31254e-08
3.27137e-07
-3.40262e-07
-2.86237e-07
2.76399e-07
-3.92558e-07
4.80826e-07
-8.82675e-08
2.26592e-07
-1.03182e-06
8.0523e-07
-7.39663e-07
-4.99747e-07
-5.32075e-07
-7.27312e-07
8.47912e-07
6.44386e-07
-2.44737e-07
-3.99649e-07
3.55571e-08
-8.75828e-07
1.58516e-07
7.17312e-07
-6.85433e-07
6.8669e-07
-1.25739e-09
7.26804e-08
5.71706e-07
3.99524e-07
8.26418e-08
-5.54833e-07
6.96925e-07
-1.42093e-07
1.79843e-07
-1.79843e-07
-3.27733e-07
-2.298e-07
-9.45243e-08
-7.96299e-08
7.96299e-08
-1.06538e-07
1.06538e-07
6.46492e-08
4.34419e-07
-4.27153e-07
-7.26593e-09
-3.4807e-07
3.4807e-07
-7.91493e-08
7.91493e-08
1.41865e-07
-1.79764e-07
1.79764e-07
-1.44423e-07
1.44423e-07
1.13268e-07
2.51345e-07
-2.51345e-07
5.87046e-08
-1.31406e-07
-3.46795e-08
-6.58206e-08
3.05694e-07
4.06745e-07
-7.12439e-07
3.20407e-07
-3.20407e-07
4.27191e-07
-4.14065e-07
-4.55414e-07
4.82326e-07
1.23241e-07
-1.23241e-07
-3.76821e-07
-1.93287e-07
4.36668e-07
-4.79613e-07
4.29447e-08
-4.58314e-08
-4.41215e-07
4.87047e-07
-4.16428e-07
-4.594e-07
-4.50129e-07
4.04298e-07
-6.90504e-07
3.13683e-07
-7.22087e-09
-6.78212e-07
5.73679e-07
-6.16017e-07
4.23377e-08
1.81121e-07
5.85144e-08
6.46789e-07
-5.74108e-07
8.00163e-08
-4.72395e-08
-3.27768e-08
-1.45021e-10
5.09383e-07
-6.79637e-07
1.70254e-07
-9.70392e-07
2.43081e-07
2.87538e-07
-8.16393e-07
2.91134e-07
5.25259e-07
-2.09945e-08
-5.57629e-08
3.14937e-07
-1.0546e-06
4.67788e-07
-9.67535e-07
3.74093e-11
6.44097e-07
-8.27753e-07
1.83656e-07
3.28484e-08
-6.48865e-07
-3.7215e-07
-7.7979e-08
-6.68838e-07
4.24101e-07
2.26024e-08
-2.77087e-08
-5.40123e-07
5.67832e-07
2.02848e-07
-1.22832e-07
8.43797e-07
-6.85281e-07
3.71185e-07
1.60561e-07
-5.31746e-07
-2.7691e-07
7.56424e-07
-4.79515e-07
3.479e-08
9.48717e-07
-2.62026e-07
-4.33924e-07
-3.26761e-07
7.60685e-07
2.16445e-07
-5.70212e-07
3.53766e-07
7.40664e-07
-4.37389e-08
7.74855e-08
-1.24725e-07
1.27432e-07
5.36701e-07
-5.43747e-08
-5.43997e-07
7.14251e-07
-6.55455e-07
-5.73313e-07
4.65813e-07
-4.31023e-07
-5.86813e-07
-3.23438e-07
5.32288e-07
4.51896e-07
-7.28806e-07
-3.77704e-07
1.60443e-08
4.39112e-07
-5.55202e-10
-7.39275e-07
7.3983e-07
-8.55232e-08
5.10197e-07
-4.24674e-07
6.86178e-07
-4.69732e-07
4.62756e-07
-4.83751e-07
3.225e-07
-1.99027e-07
7.33444e-07
-4.18739e-07
7.32423e-07
-6.11602e-09
-1.16022e-07
5.36556e-07
6.07412e-07
-9.34173e-07
-4.81823e-07
6.42384e-07
-1.0128e-06
3.27515e-07
-9.14106e-07
6.5208e-07
4.375e-07
2.83133e-08
4.60102e-07
-4.70754e-07
-1.11751e-07
5.82505e-07
-3.21911e-07
6.32696e-07
-5.25129e-07
-3.98446e-07
-1.333e-07
-6.37238e-07
5.93499e-07
3.53589e-07
2.62176e-08
-4.67433e-07
-1.80663e-07
-4.80508e-07
2.95511e-07
-6.20447e-08
7.81012e-07
1.53915e-07
-9.34927e-07
6.1515e-07
-6.15705e-07
6.52584e-07
-3.30084e-07
7.97056e-07
5.8536e-07
1.75326e-07
1.26329e-07
9.94769e-08
-2.25806e-07
-9.69179e-07
3.82367e-07
6.23726e-08
-1.00682e-07
3.86944e-07
-7.64423e-07
1.9111e-07
1.20762e-07
6.19068e-07
4.52419e-07
1.64543e-07
4.03289e-07
-4.93088e-07
2.68297e-07
2.24791e-07
4.57533e-07
-4.57496e-07
3.51503e-07
-4.67525e-07
-3.67774e-07
8.07485e-08
2.87025e-07
6.42847e-08
-3.28545e-07
4.10512e-07
6.988e-07
4.57673e-07
-2.28312e-07
2.60649e-09
-9.17818e-07
5.9438e-07
-8.89466e-07
2.34011e-07
2.22271e-07
2.29578e-08
-2.01607e-07
5.01493e-07
-2.99886e-07
2.47277e-08
-3.74799e-07
-6.43499e-07
3.31258e-07
3.12241e-07
-5.07099e-07
5.30412e-07
-6.18878e-07
8.84658e-08
-9.62785e-07
4.82277e-07
2.71189e-07
3.61507e-07
-6.25347e-07
7.6615e-07
-1.72651e-07
2.24126e-07
-3.46958e-07
-3.10705e-07
3.07288e-07
4.86786e-07
5.78477e-07
-6.21103e-07
2.43399e-07
-2.81993e-07
5.85487e-07
7.17199e-07
-3.06688e-07
-4.29993e-07
-2.56204e-07
5.87463e-07
-5.91202e-07
5.12867e-07
7.83351e-08
-3.92113e-07
6.16904e-07
-2.78961e-07
-3.32365e-07
4.35206e-07
1.24785e-07
4.42705e-07
-4.40099e-07
-4.09331e-07
4.9008e-07
3.22272e-07
-4.96717e-08
-4.38683e-07
4.88355e-07
2.75837e-07
-1.98351e-07
-4.73433e-07
2.64152e-07
7.11213e-08
-5.01114e-07
4.0937e-07
4.83029e-08
-2.65024e-07
-1.33518e-07
3.98541e-07
2.99259e-07
-5.27572e-07
9.72431e-07
-2.08965e-07
5.31237e-07
-2.71997e-07
-4.40441e-07
2.92528e-07
-1.09199e-07
6.22066e-07
-8.14553e-07
5.42556e-07
-4.90113e-07
-2.09508e-07
7.55916e-08
-3.40615e-07
-6.61726e-07
-7.16607e-07
4.11241e-08
-4.17347e-07
7.92147e-07
-1.73079e-07
-2.07573e-07
6.42779e-07
-3.17443e-07
-1.5599e-07
-4.12649e-07
3.63818e-07
-6.73946e-07
-1.46155e-07
-1.96543e-07
4.60695e-07
7.87182e-08
9.22678e-08
-5.19388e-07
-2.95166e-07
-7.48133e-07
1.15036e-07
2.95521e-07
4.78264e-07
-4.33404e-07
2.49713e-08
2.77368e-07
-2.01776e-07
-6.99488e-08
2.52387e-07
1.72067e-07
-1.57684e-08
-1.56298e-07
1.02118e-07
-6.50565e-08
-5.68231e-08
7.16286e-07
-6.59463e-07
2.12311e-07
8.32733e-07
-4.75412e-08
-4.48287e-07
1.98442e-07
2.91637e-07
7.6791e-07
5.62261e-07
6.03282e-07
-3.48965e-07
3.4617e-07
1.14525e-07
-7.99624e-07
-4.23402e-08
-8.25313e-08
1.74799e-07
-1.85009e-08
-1.83275e-07
1.3974e-07
-8.47172e-07
4.75479e-08
1.90816e-07
2.22863e-07
4.68073e-07
-2.80017e-07
7.03851e-07
-5.83433e-08
-7.17807e-07
7.72478e-07
-7.2493e-07
-2.43449e-08
-3.34759e-07
3.70475e-07
-3.57166e-08
-6.37661e-07
-9.36155e-08
2.0885e-07
2.2795e-07
-4.7942e-07
-3.19026e-07
-4.82357e-08
-3.27195e-07
3.96325e-07
-3.0256e-07
2.65318e-07
2.09882e-07
-2.80672e-08
-5.27098e-08
4.87919e-08
5.7543e-08
1.71816e-07
1.88184e-07
1.05546e-07
7.82364e-08
-3.13167e-07
2.37985e-07
7.51822e-08
-6.78441e-07
-2.50726e-07
4.33231e-07
-2.31772e-07
1.29654e-07
1.15146e-07
1.15359e-07
5.73245e-08
-6.46478e-07
-3.0694e-07
1.36695e-07
1.08105e-07
-2.51808e-07
6.85333e-08
1.64553e-07
-1.12069e-07
-3.55262e-07
-1.03732e-07
3.24195e-07
-7.72056e-07
-3.91786e-09
1.63089e-07
-2.73405e-07
-3.9762e-08
5.85919e-07
-8.77888e-08
-2.82393e-07
-4.1284e-07
4.43817e-07
3.0147e-07
1.93595e-07
1.34253e-07
-8.97204e-07
-1.37991e-07
-7.69958e-07
1.10959e-07
-9.13538e-09
-1.08699e-07
2.57517e-08
-1.54021e-07
-2.26828e-07
-1.38113e-07
-9.11949e-08
-3.78133e-08
1.72066e-07
9.5306e-10
-3.17825e-07
-1.00732e-07
-3.15158e-07
3.02932e-07
-9.39828e-08
-2.05654e-07
-3.88788e-07
1.67633e-07
1.37875e-08
-4.64372e-07
5.86517e-07
-1.22146e-07
-7.28848e-08
-3.65237e-07
1.50712e-07
-1.43842e-08
-3.7454e-07
-2.87789e-07
-7.28848e-08
-2.24236e-07
1.3702e-07
-2.40753e-07
2.07733e-08
-1.87572e-07
7.21268e-07
-6.34382e-07
3.51235e-07
6.14134e-08
-2.59765e-07
7.58395e-07
1.67916e-07
-4.03224e-07
2.14457e-07
1.88767e-07
-1.72428e-07
-2.2176e-07
-2.1504e-07
-4.56827e-07
-1.68815e-07
-2.58457e-07
-1.10858e-07
9.3217e-07
3.615e-07
-3.43633e-08
3.6461e-07
-4.32719e-08
3.64154e-07
-3.04209e-07
7.1437e-08
4.4427e-09
3.04209e-07
-7.1437e-08
2.39214e-07
3.6461e-07
2.05283e-07
-4.93954e-07
-1.84258e-07
7.4616e-07
-6.9372e-07
3.30159e-07
-3.44208e-07
-3.86148e-09
3.57104e-07
-3.66961e-08
6.38745e-08
-2.79773e-07
-2.28823e-07
-9.77383e-10
-3.44208e-07
2.18478e-07
-1.38848e-07
-1.18897e-07
1.23585e-08
2.88556e-07
-6.72714e-08
-1.1878e-08
-6.38745e-08
-1.15889e-07
2.79773e-07
-1.0001e-07
2.28823e-07
2.25225e-08
-2.88556e-07
3.72107e-08
6.72714e-08
-2.18478e-07
3.57104e-07
-1.18897e-07
-2.44535e-07
-5.68139e-07
-6.182e-07
-5.79156e-07
7.03941e-07
1.89851e-07
-2.19346e-08
1.31433e-07
1.13797e-07
2.123e-08
7.3958e-07
-2.99806e-07
5.25086e-08
-5.07511e-07
1.13797e-07
3.58779e-07
-1.09208e-07
-2.65951e-07
2.65102e-07
4.06225e-07
1.14094e-07
-7.55549e-09
-1.14094e-07
-1.90563e-07
2.14638e-07
-2.40755e-08
-5.47189e-07
2.68932e-07
1.8619e-07
-3.55821e-07
3.92736e-07
2.1353e-07
-7.38789e-07
7.55065e-08
2.11519e-07
1.31037e-08
-1.4475e-07
2.40737e-07
2.56702e-08
-2.15903e-07
3.63242e-07
-1.84657e-07
-3.94516e-07
3.94516e-07
-3.59668e-07
-2.60567e-07
-2.83812e-07
2.40737e-07
2.46947e-07
3.01579e-08
2.83254e-07
-1.14833e-07
-5.33247e-07
3.37426e-07
-5.12752e-07
4.72777e-07
-6.56433e-07
7.51731e-08
-7.51731e-08
-2.03595e-07
-2.28255e-07
-5.23253e-08
5.23253e-08
-3.3879e-08
3.3879e-08
-2.46945e-07
3.88747e-08
5.13741e-08
1.60123e-07
9.43546e-09
-1.69559e-07
3.52973e-07
-3.52973e-07
9.05479e-08
3.21659e-07
3.85935e-07
6.0272e-08
-5.58248e-07
-1.11938e-07
-1.39791e-07
-2.11948e-07
-3.41012e-07
-7.4018e-07
6.6491e-08
3.49895e-09
-1.55073e-07
-5.90188e-08
-6.56798e-08
-8.12676e-08
-9.66493e-08
3.09695e-08
-7.40204e-07
-3.18526e-08
-1.76133e-07
-1.67163e-07
-6.31756e-07
5.25993e-08
-1.38113e-07
-2.62455e-07
2.9427e-07
5.70835e-08
-1.46685e-07
-1.04661e-07
1.04661e-07
2.2287e-08
2.54112e-07
-5.08488e-07
-7.78842e-08
-1.66184e-08
1.66184e-08
-6.78438e-07
1.73227e-07
-8.22723e-10
-3.09514e-09
-6.36047e-07
2.48839e-07
1.00602e-07
-3.49441e-07
-1.93201e-07
8.93071e-08
1.03894e-07
-5.262e-08
-1.01031e-08
1.69073e-07
-1.69895e-07
-5.47892e-08
-4.67642e-08
4.67642e-08
1.22014e-07
3.25474e-07
2.34927e-07
2.22925e-07
-2.57288e-07
1.35062e-07
-2.72924e-07
4.44358e-08
-7.11869e-08
5.48446e-07
-2.99607e-07
3.1127e-07
1.95858e-07
5.47665e-08
6.39377e-09
-1.75209e-07
-3.69939e-08
9.1902e-08
-3.202e-07
9.33715e-08
-6.6491e-08
2.72549e-07
-3.26932e-08
2.69792e-07
5.11096e-08
2.21439e-07
5.38894e-08
2.15902e-07
2.72925e-07
3.50287e-07
4.79121e-07
4.01119e-07
4.76096e-07
3.7414e-08
-3.03444e-07
2.49555e-07
1.99856e-07
1.81681e-07
1.31581e-07
-5.1813e-08
2.12472e-07
2.49085e-07
-2.24114e-07
3.24035e-07
-1.26512e-09
-7.96354e-08
-3.83143e-08
2.25009e-07
1.39724e-07
-2.12258e-07
2.88185e-07
1.02211e-08
-2.47348e-07
2.04277e-08
4.75745e-07
-4.23145e-07
4.98267e-07
-4.83865e-07
1.52541e-07
2.47853e-07
-8.76986e-08
-6.47952e-07
3.54847e-08
1.58391e-07
1.25008e-07
4.15433e-08
8.88069e-08
2.13884e-07
-5.24132e-10
-3.83458e-08
-1.80478e-07
2.7385e-07
5.85584e-09
-4.3727e-09
)
;

boundaryField
{
    back
    {
        type            empty;
        value           nonuniform List<scalar> 0();
    }
    front
    {
        type            empty;
        value           nonuniform List<scalar> 0();
    }
    top
    {
        type            calculated;
        value           nonuniform List<scalar> 10(-4.368e-07 -4.752e-07 -3.6e-07 -2.448e-07 -2.448e-07 -3.6e-07 -4.368e-07 -9.12e-08 -9.12e-08 -4.752e-07);
    }
    outer_arc
    {
        type            calculated;
        value           uniform 0;
    }
    bottom
    {
        type            calculated;
        value           nonuniform List<scalar> 10(7.31277e-07 3.75431e-07 8.0777e-08 -1.06335e-07 -1.83782e-07 9.29167e-07 -1.72683e-07 9.53418e-07 -8.52531e-08 6.93985e-07);
    }
    inner_arc
    {
        type            calculated;
        value           uniform 0;
    }
}


// ************************************************************************* //
