/*--------------------------------*- C++ -*----------------------------------*\
  =========                 |
  \\      /  F ield         | OpenFOAM: The Open Source CFD Toolbox
   \\    /   O peration     | Website:  https://openfoam.org
    \\  /    A nd           | Version:  9
     \\/     M anipulation  |
\*---------------------------------------------------------------------------*/
FoamFile
{
    format      ascii;
    class       volVectorField;
    location    "1.95";
    object      U;
}
// * * * * * * * * * * * * * * * * * * * * * * * * * * * * * * * * * * * * * //

dimensions      [0 1 -1 0 0 0 0];

internalField   nonuniform List<vector> 
942
(
(0.021792 -0.0695711 0)
(0.0200785 0.0332366 2.46975e-17)
(0.0422456 0.108243 0)
(0.00956607 -0.0787887 -1.30597e-17)
(0.0432137 0.118631 7.83569e-18)
(0.0378733 -0.0329136 1.38113e-17)
(0.00805083 -0.0114687 3.63174e-17)
(0.0461858 -0.0371161 0)
(0.0041215 -0.0484443 -2.86036e-17)
(0.00496404 -0.0530922 2.91558e-17)
(0.0756464 0.0238517 0)
(0.0887612 -0.0425851 0)
(0.00907967 -0.0801686 1.21796e-17)
(0.085581 0.0702136 0)
(0.101006 -0.0463664 0)
(0.0308994 0.0184212 -2.68376e-17)
(0.0412705 -0.0116554 -1.05907e-17)
(0.0188971 -0.0695163 0)
(0.0834868 0.0255038 -3.15903e-18)
(-0.0384419 -0.00573622 4.84266e-18)
(0.0476255 -0.0205252 1.80095e-17)
(0.090436 -0.0455228 1.44847e-17)
(0.013773 -0.0258994 0)
(-0.000862029 -0.0238926 -2.87108e-17)
(0.0762428 0.00750212 0)
(-0.00401951 -0.0328053 2.15695e-17)
(0.0422592 0.10838 0)
(0.015824 -0.0347381 1.83098e-17)
(-8.04134e-05 -0.0227174 0)
(0.0147808 -0.0509846 1.15636e-17)
(-0.0101583 -0.032659 1.45354e-17)
(0.0356932 0.0998453 0)
(0.00100474 -0.0146606 1.3696e-17)
(-0.0780127 0.038072 1.60261e-17)
(0.0437287 0.0976341 -1.57523e-17)
(0.0177222 -0.0167189 3.02147e-17)
(0.0362434 -0.0535125 1.01989e-18)
(0.00557242 -0.0411758 0)
(0.0355296 -0.0553095 -5.20859e-19)
(-0.000130084 -0.0155443 2.0495e-17)
(-0.0817944 -0.0140783 -2.86489e-17)
(0.045537 -0.0648312 0)
(0.00638618 0.00378002 -1.41585e-17)
(0.0110748 -0.0190236 -1.21078e-17)
(0.0109583 -0.0159017 -3.06289e-17)
(0.0462405 0.0235131 6.91571e-18)
(0.0707001 0.0518914 -1.39824e-17)
(-0.0743055 0.0534171 -1.31938e-17)
(-0.0948133 -0.0154915 1.47436e-17)
(0.092884 0.0622949 1.71793e-17)
(0.0918245 0.024488 0)
(0.00631899 -0.0120453 0)
(0.0124979 -0.0088209 -2.03737e-17)
(0.00276674 -0.0269086 1.62601e-17)
(0.00508488 -0.0656382 0)
(-0.0247843 -0.0614028 -1.07846e-17)
(0.0287938 -0.000793622 -2.72228e-17)
(0.00639235 -0.0687491 -1.95341e-18)
(0.0396885 -0.000634563 3.48745e-17)
(0.0604356 0.126675 1.50435e-17)
(0.0113345 -0.0378745 -1.43746e-17)
(0.0431806 0.100677 -3.70661e-17)
(-0.0411304 0.0441579 1.72512e-17)
(0.022096 -0.0634661 -1.40884e-17)
(0.00763224 -0.0418315 1.33597e-17)
(0.0678649 0.00586369 1.02661e-17)
(0.0369067 0.0909606 2.89814e-17)
(0.0229053 0.086592 -1.32102e-17)
(-0.0349436 -0.0374811 1.36669e-17)
(0.0218154 -0.0418698 3.75521e-18)
(0.00710198 0.0344537 0)
(0.00592727 -0.0334396 0)
(0.019901 0.00571198 -1.78199e-18)
(0.0142393 -0.0572165 3.46716e-18)
(0.00230823 -0.0280497 -1.54073e-17)
(-0.0614264 -0.00863102 4.03872e-22)
(-0.0477534 0.000193123 1.78475e-18)
(0.0372575 0.0845659 1.60099e-17)
(-0.00607223 -0.020981 -1.73986e-17)
(0.0479613 0.0188347 -3.5151e-18)
(0.0161095 -0.0172148 2.08396e-17)
(-0.00745691 -0.0339355 -7.50991e-18)
(0.0295533 -0.0200632 -1.89767e-18)
(0.0509331 0.00546431 7.73364e-18)
(0.0615378 -0.00156821 0)
(0.0316482 0.120608 0)
(0.0365596 0.115875 -1.5726e-17)
(0.075513 -0.0260678 4.35221e-18)
(0.0897876 0.0850481 0)
(0.0256401 -0.0348233 2.16725e-17)
(0.0418426 -0.0821071 -1.10368e-17)
(0.0226749 0.047528 4.99489e-19)
(0.00638863 -0.0748857 2.19819e-18)
(-0.027104 -0.0776689 0)
(-0.00181808 -0.0521309 -4.26433e-18)
(-0.0354674 -0.0107013 7.85824e-18)
(0.0366791 -0.0594368 1.35434e-17)
(0.0680857 -0.0217662 -1.26411e-17)
(0.0259008 -0.0289338 -1.87929e-17)
(0.00722839 -0.0329243 -2.68344e-17)
(0.00955607 -0.0330918 -8.06534e-18)
(0.00549761 -0.0769513 9.10122e-18)
(0.0852574 0.0446101 0)
(0.0208873 -0.0364897 1.03313e-17)
(0.0108974 -0.0663322 -1.63162e-17)
(0.010054 -0.0309304 -2.63392e-17)
(0.0467247 0.0206923 -9.28904e-18)
(0.0277799 0.00580078 0)
(-0.0285468 0.0493194 1.43294e-17)
(0.0332353 0.0663321 0)
(-0.00264341 -0.0284967 0)
(-0.0510385 -0.0326024 -1.44446e-17)
(0.0395196 0.105193 2.86855e-17)
(0.00564387 -0.0376793 0)
(0.0876314 0.03578 0)
(0.012423 0.0246551 1.9484e-18)
(0.0763974 0.123072 -1.54484e-17)
(0.0125438 -0.0775127 1.65037e-17)
(0.00409795 -0.0164057 4.92471e-23)
(0.0567367 0.00295905 -1.89363e-18)
(0.00541608 -0.0152858 6.28517e-18)
(0.0167325 -0.0164398 -1.62418e-17)
(0.00271067 0.00541778 0)
(0.0191612 0.00667621 1.43002e-17)
(0.0286411 6.57245e-05 1.15816e-17)
(-0.00377668 -0.0296301 -3.08635e-17)
(0.00293483 -0.00520322 1.62983e-17)
(0.0127846 0.00835501 -1.55714e-17)
(0.0228779 0.0163955 2.84603e-17)
(0.00728289 -0.00672897 1.48787e-17)
(0.0775447 0.0320894 -7.63718e-18)
(0.0613512 0.0362336 -1.76922e-17)
(0.0723774 0.0345771 0)
(-0.10739 0.0268455 0)
(-0.0486764 0.0278485 -1.58885e-17)
(0.0530274 0.0365931 -1.10571e-17)
(-0.003698 -0.00914218 9.68575e-19)
(0.0198089 0.0443814 0)
(-0.0496495 -0.00307556 1.97656e-17)
(-0.11394 0.0084605 -6.73108e-18)
(-0.135754 0.0182669 1.58362e-17)
(0.0379969 0.0281073 0)
(0.0642994 0.111882 -1.57698e-17)
(0.00100746 -0.0181163 1.71442e-17)
(0.0410184 -0.0293577 -3.99666e-18)
(-0.00268263 -0.0214609 -7.25776e-18)
(0.0162562 -0.0330457 0)
(0.00742113 -0.038843 -9.59044e-18)
(0.0274948 -0.0353242 2.42071e-17)
(0.0371061 0.124913 0)
(0.0498047 -0.0327895 4.32077e-18)
(0.0828572 0.0660574 4.76401e-18)
(0.0387321 0.0815167 0)
(0.0249606 -0.036433 8.98342e-18)
(0.0375964 0.0817512 -1.56623e-17)
(0.0308723 -0.0502061 0)
(0.0665278 0.000326664 1.76134e-17)
(0.00184955 -0.0159275 0)
(0.0744233 0.137242 0)
(-0.0450836 -0.0057596 6.52272e-18)
(0.0872651 0.0027246 -2.27627e-17)
(0.0259921 -0.0417807 0)
(0.00654784 -0.0768071 0)
(0.0515527 -0.026426 8.04987e-18)
(0.0554314 0.0717497 0)
(0.0695021 0.0927247 -2.38097e-17)
(0.0116905 -0.0372732 0)
(0.0263243 -0.0447547 0)
(0.0377379 0.0035341 1.41279e-17)
(0.0622697 0.0706077 1.67524e-17)
(-0.0325064 0.0659384 -1.39699e-17)
(-0.0760155 -0.0339798 -1.85269e-18)
(0.00559749 -0.0255942 4.12584e-23)
(0.0144397 -0.036355 9.03148e-18)
(0.034362 0.135605 0)
(0.0218138 -0.0609811 -1.75318e-17)
(-0.0416098 -0.0244691 -1.66146e-17)
(0.0200763 -0.0624648 0)
(-0.0131918 -0.0900948 5.75117e-19)
(0.0269147 -0.0636397 0)
(0.0197142 -0.0299823 -1.05467e-17)
(0.00428263 -0.0188681 0)
(0.0331107 -0.0436887 -2.06962e-17)
(0.0249388 -0.0655832 2.34476e-22)
(0.0163233 -0.0655095 -1.04411e-17)
(-0.00784674 -0.0351769 0)
(0.0988195 0.077383 -8.21731e-18)
(0.0347077 0.0777153 1.65073e-17)
(0.0460857 0.139157 2.34501e-17)
(0.0304644 -0.0674904 7.8958e-18)
(0.0587101 0.137914 3.16374e-17)
(0.0324002 -0.0656593 -7.91331e-18)
(0.0183873 -0.0484729 -1.0027e-17)
(-0.00621434 -0.0238007 -1.51931e-17)
(0.029852 0.0628414 8.35926e-18)
(0.0112102 -0.0786381 -7.51579e-18)
(0.0300083 0.0621986 0)
(0.0180554 -0.0537972 2.68638e-17)
(-0.0843026 0.00817385 -1.93372e-17)
(0.00175457 -0.00291468 1.46464e-17)
(0.000848263 -0.0100706 0)
(0.0140728 -0.0784049 7.62984e-18)
(0.0143089 0.025568 0)
(0.0350465 -0.0167216 -1.7758e-17)
(0.0718181 0.0921693 1.6722e-17)
(-0.0515966 -0.0704282 0)
(0.0087414 -0.0336241 1.67421e-17)
(0.0464689 0.11059 -3.63716e-17)
(0.00438121 -0.00262888 -1.41455e-17)
(0.00196283 -0.0197725 1.3998e-17)
(0.0358886 0.0794117 -8.10866e-18)
(0.015172 -0.075355 3.50134e-22)
(0.00793348 -0.0587117 1.29523e-17)
(0.0537424 0.124096 7.70709e-18)
(0.00708065 0.00470328 0)
(0.0249491 -0.0764388 -8.14526e-23)
(0.0481683 0.145241 -1.92542e-17)
(0.068886 0.134586 1.61696e-17)
(0.0358644 0.0809858 1.60758e-17)
(0.0298376 0.0630996 -2.12026e-22)
(0.0296942 -0.0747967 0)
(0.023503 -0.0764801 -1.552e-17)
(0.0357065 -0.0684454 0)
(0.0201125 -0.0766633 0)
(0.00171712 -0.0095023 -1.62043e-17)
(0.0120978 0.0404882 1.61146e-17)
(0.0570593 0.130119 -1.13536e-17)
(0.034128 -0.0722672 -1.59456e-17)
(0.00229589 -0.00814975 2.37513e-17)
(0.0186601 0.0254067 0)
(-0.00770998 -0.0352126 -1.48311e-17)
(0.0514863 0.122568 -2.84478e-17)
(0.0119005 0.0285357 1.56114e-17)
(0.00286654 -0.00899527 -8.53862e-18)
(0.0279866 -0.0759135 -8.02036e-18)
(0.0130331 -0.0722248 2.80138e-22)
(0.0656933 0.139582 -1.67765e-17)
(0.0328075 -0.0743494 1.60193e-17)
(0.00997341 0.0100127 -1.54159e-17)
(0.0361147 0.0808448 1.59143e-17)
(0.0315709 0.0618947 0)
(0.0268247 -0.0420333 -3.90773e-18)
(0.0383896 -0.0721337 7.90024e-18)
(0.0200809 -0.0530249 -8.9296e-18)
(0.0250364 -0.0557827 -1.58016e-17)
(0.0115475 0.0214869 -1.60103e-17)
(0.0380239 -0.0693291 7.9499e-18)
(0.0230819 -0.0763408 -8.61512e-18)
(0.0372375 -0.0720331 -1.59517e-17)
(0.013369 0.023498 3.94242e-18)
(0.0596485 0.138888 -3.99693e-18)
(-0.0329123 -0.0664224 -1.46886e-17)
(0.0599473 0.140483 0)
(0.00463376 0.00890568 1.19038e-17)
(0.0305403 -0.0586156 1.56992e-17)
(0.0179854 -0.0748862 1.7447e-17)
(0.0362551 -0.0721891 0)
(0.0375603 -0.0664913 0)
(0.0682799 0.0938604 -7.92317e-18)
(0.02089 -0.0495333 8.89513e-18)
(0.027821 -0.0734206 -7.84824e-18)
(0.0781054 0.101587 7.79062e-18)
(0.0541496 0.122379 -1.95262e-17)
(0.0355593 -0.0605945 -4.14964e-18)
(0.0353763 -0.0658202 8.25851e-18)
(0.00679128 -0.0496547 0)
(0.0260997 -0.0531252 0)
(0.0421761 -0.0664998 0)
(-0.00640969 -0.0314287 1.50626e-17)
(0.0413819 -0.0694428 8.03973e-18)
(0.0413215 -0.0660795 1.52155e-17)
(0.0560273 0.141661 -1.45625e-17)
(-0.045873 -0.0370904 1.71674e-17)
(0.0560129 0.132256 -7.6806e-18)
(0.0477712 0.11062 1.61514e-17)
(0.0788148 0.123455 -1.60912e-17)
(0.0137125 0.0138135 0)
(0.046841 -0.055734 0)
(0.0523208 0.124055 -7.96548e-18)
(0.0081052 -0.00937745 -1.65542e-17)
(0.0311441 -0.0561359 0)
(0.0203305 -0.017011 -1.36126e-18)
(0.0150399 -0.0216539 1.68028e-17)
(0.0479245 -0.0599284 0)
(0.0855649 -0.0299375 3.13394e-17)
(0.091564 0.138597 -1.54726e-17)
(0.0439315 -0.0610327 2.36033e-17)
(0.0462581 -0.0656671 1.56918e-17)
(0.0359426 -0.0576361 4.06512e-18)
(0.040177 -0.061458 4.04081e-18)
(0.0743743 -0.0336188 -1.59073e-17)
(-0.0148912 -0.0284862 1.87343e-17)
(0.0837283 0.120574 -7.19609e-18)
(0.0432968 -0.0554124 1.76886e-17)
(0.0403228 -0.0475026 4.4745e-18)
(0.0761863 -1.27536e-05 -1.43624e-17)
(0.0955399 0.123935 0)
(0.0955547 0.140098 8.02097e-18)
(0.107375 0.106918 7.46849e-18)
(0.0912378 0.132752 0)
(0.100009 0.0597286 0)
(0.0435109 -0.0575626 -8.07537e-18)
(0.134923 -0.0125853 -3.62419e-18)
(0.103704 -0.0972394 -2.52164e-17)
(0.107511 0.0377997 -2.50798e-17)
(0.0409345 -0.0711967 7.87859e-18)
(0.0657365 -0.101209 -2.50381e-17)
(0.0231942 -0.00702835 0)
(-0.0432979 -0.0171029 -7.25519e-18)
(0.0144189 0.0263549 1.52312e-17)
(0.00413214 -0.00942128 1.23456e-17)
(0.00835214 -0.00463868 -5.99617e-22)
(0.0120567 -0.00758051 -2.18594e-18)
(0.00934959 0.0063312 -1.52367e-17)
(0.0507056 -0.0612163 2.30382e-22)
(0.0332061 0.0388704 2.4445e-17)
(0.00595935 -0.00831487 -1.66835e-17)
(0.0213499 0.0022481 -7.95529e-23)
(-0.0240314 -0.0226652 -4.30901e-18)
(0.0167868 -0.00830943 0)
(-0.0214915 0.00306412 -4.46318e-18)
(0.0205561 0.0316156 0)
(0.00364704 -0.00531398 1.75029e-17)
(0.017713 0.0010902 -3.12853e-17)
(-0.0150282 0.00556561 -1.97467e-17)
(0.0914002 0.0848846 -1.60351e-17)
(0.036135 0.0227444 0)
(0.0476701 -0.0616894 -8.14493e-18)
(0.0555972 -0.0646942 0)
(0.0120312 -0.0110805 0)
(0.0887249 -0.0248278 -3.14117e-17)
(0.0446461 -0.0634954 -1.38841e-17)
(0.0593337 -0.0590178 7.91151e-18)
(0.125149 -0.0441322 -1.42178e-17)
(0.0557765 -0.0533431 0)
(0.109236 -0.0267216 1.56853e-17)
(0.0877517 -0.113701 9.00145e-18)
(0.102737 0.00367998 -4.62808e-19)
(0.103136 -0.00687786 0)
(0.0121523 -0.0107412 -1.56409e-17)
(0.110519 0.0354436 2.30535e-17)
(0.00101224 0.0111526 -1.58513e-17)
(0.0583629 -0.086781 -4.11142e-18)
(0.118703 -0.0062399 -3.91536e-17)
(0.0949469 0.127078 -1.59062e-17)
(0.068632 -0.0100142 0)
(0.0887252 0.0999005 1.62141e-17)
(0.0551584 -0.0622588 1.57781e-17)
(0.0449487 -0.0676255 1.56886e-17)
(0.110553 0.133384 -7.81788e-18)
(0.111767 -0.0156867 1.56893e-17)
(0.128238 0.107062 1.5191e-21)
(0.0519149 -0.0627687 -4.01029e-17)
(0.14484 0.0546739 -8.24726e-18)
(0.112012 0.0118242 -1.40095e-17)
(0.0503295 -0.0517717 0)
(0.0913154 0.0589162 1.59852e-17)
(0.0484539 -0.0643813 0)
(0.0980729 0.0128253 7.85575e-18)
(0.0258126 0.019245 1.5871e-17)
(0.155537 -0.00466877 2.00923e-17)
(0.0798518 -0.0535371 0)
(0.109437 -0.0371835 -2.21645e-18)
(0.0444654 -0.0663816 1.33953e-17)
(0.126227 -0.0908558 -1.58789e-17)
(0.129084 -0.0259748 8.30161e-18)
(0.0823885 -0.0463428 -8.02728e-18)
(0.0486874 0.0212882 3.62908e-17)
(0.0821267 -0.100731 2.37325e-17)
(-0.0086818 0.0222496 -4.12945e-18)
(0.0230773 0.0153867 0)
(0.113794 0.0155902 1.551e-17)
(0.0576309 0.0220976 -7.88095e-18)
(0.0622133 -0.0657852 -1.52861e-17)
(0.114999 -0.00730203 7.92057e-18)
(0.0961252 0.129321 7.83378e-18)
(0.109401 0.0135212 7.95084e-18)
(0.0839716 0.112274 1.62573e-17)
(0.0467328 -0.0684432 7.74101e-18)
(0.116709 0.121174 7.80155e-18)
(0.00648688 0.0118306 1.78119e-17)
(0.0028513 -0.00808889 0)
(-0.0575545 0.018002 1.58671e-17)
(0.00420411 -0.011895 0)
(0.0423179 0.0272194 3.94446e-18)
(0.138465 0.0793485 2.46708e-17)
(0.143442 -0.0686706 3.12891e-17)
(0.127051 -0.0502349 2.42461e-18)
(0.0820452 0.0779429 -3.2484e-17)
(0.155253 0.0229025 -3.31138e-17)
(0.0264149 0.0205444 -8.07833e-18)
(-0.0582471 -0.00189497 -4.03067e-18)
(0.0547309 -0.0476742 0)
(0.131956 0.016723 1.62115e-17)
(-0.0901998 0.0222025 4.22108e-18)
(0.0657384 -0.0559054 0)
(0.091561 -0.0576658 1.55549e-17)
(-0.0237066 0.0141575 4.14913e-18)
(0.035271 0.0246732 8.16792e-18)
(-0.0165722 -0.0111221 -1.03427e-18)
(-0.0932675 0.015453 -7.06939e-18)
(0.0594927 -0.064543 -2.34735e-17)
(0.109669 -0.0298697 0)
(0.0764889 -0.0465818 7.4561e-18)
(0.0989875 -0.104026 0)
(0.111614 -0.0370797 0)
(0.0250607 -0.0344207 0)
(0.0877954 0.0343947 0)
(0.0667626 -0.0743397 7.84689e-18)
(0.00395562 -0.00481935 2.38842e-17)
(0.0248664 0.0203866 -1.70467e-17)
(0.146171 -0.0375235 7.85511e-18)
(0.0829831 -0.0616524 0)
(0.161414 -0.0339476 2.35352e-17)
(0.131674 -0.0907637 0)
(0.0492677 -0.067651 -7.90003e-18)
(0.0505784 -0.0664747 7.91082e-18)
(0.0725385 -0.0624551 7.82666e-18)
(0.0947796 -0.0407775 1.57407e-17)
(0.0677438 -0.0651878 7.83141e-18)
(0.0723111 -0.0519721 1.64312e-17)
(0.0870068 -0.0827533 -3.1526e-17)
(0.0616299 -0.0492745 0)
(0.0579055 -0.0624287 -7.80366e-18)
(0.112302 -0.0975767 1.56816e-17)
(0.153231 -0.0566863 -1.56667e-17)
(0.116145 -0.0274062 0)
(-0.0113277 -0.00838227 1.65667e-17)
(0.155488 -0.00355678 1.57944e-17)
(0.113174 0.0165037 -2.92785e-17)
(0.0950619 -0.0194191 0)
(0.155451 0.0253104 1.58096e-17)
(0.128948 -0.014011 0)
(0.0315156 -0.0164034 0)
(0.0188262 -0.0233634 0)
(0.0722132 -0.0574103 0)
(0.117144 0.108263 2.34615e-17)
(0.0641689 -0.0601404 0)
(0.0760093 -0.0743236 7.90475e-18)
(0.140251 0.00331677 -1.65525e-17)
(0.0639536 -0.0633461 7.81302e-18)
(0.101076 -0.0559943 -1.43994e-17)
(0.0746778 0.101448 -1.57602e-17)
(0.133018 0.0418408 0)
(0.0489847 -0.0662825 -1.57109e-17)
(0.156386 -0.0224244 -2.35457e-17)
(0.0966367 -0.0104114 0)
(0.0738492 -0.0322205 0)
(0.0796696 -0.0656637 0)
(0.0545785 -0.0649289 1.57137e-17)
(0.0704359 0.0302717 -2.95407e-23)
(0.0439707 -0.044709 -2.63953e-21)
(0.00734803 -0.0189507 -1.63475e-17)
(0.058006 -0.0639986 0)
(0.0780099 -0.0131574 0)
(0.108973 -0.0444451 0)
(0.105792 -0.0307634 0)
(0.0416356 0.052725 0)
(0.0533063 -0.0657022 -7.87256e-18)
(0.0511262 -0.033844 -1.60558e-17)
(0.140511 0.0744905 2.35647e-17)
(0.09108 0.114403 -7.84561e-18)
(-0.00580231 -0.0366645 1.58683e-17)
(0.0636566 0.00733891 -7.87373e-18)
(0.0705818 -0.0356611 7.99982e-18)
(0.0406168 0.00285545 -7.90741e-18)
(0.0514939 -0.0575555 0)
(0.145569 0.044676 -1.57675e-17)
(0.12317 0.0875026 -3.12547e-17)
(0.0951698 -0.0350237 0)
(0.0943813 0.1072 -1.56622e-17)
(0.0568902 0.0896531 -1.59546e-17)
(0.0720165 0.105506 0)
(0.14981 -0.0650418 0)
(0.0927442 -0.0392502 -9.01272e-23)
(0.0895368 0.107057 7.14015e-18)
(0.0950064 -0.0779271 0)
(0.0381283 0.0406637 -2.36683e-17)
(0.135603 -0.0778505 0)
(0.0770058 -0.0346324 0)
(0.042769 -0.0704584 -1.56161e-17)
(0.0843095 -0.0374912 -1.57491e-17)
(0.0687431 0.0713175 0)
(0.0954746 -0.0456539 -1.57191e-17)
(0.110452 -0.0807288 -7.86081e-18)
(0.104546 -0.0523817 1.56897e-17)
(0.142028 -0.0519732 -1.60697e-17)
(0.0606345 0.0845907 1.57822e-17)
(0.092913 -0.0639915 0)
(0.0926556 -0.0253517 -7.86288e-18)
(0.0918534 -0.0155548 -2.78249e-17)
(0.0877252 -0.0491642 0)
(0.0922585 -0.0344133 0)
(0.0586236 0.048678 2.36039e-17)
(0.0451625 -0.0695988 -1.53484e-17)
(0.0823286 0.0772072 0)
(0.102222 -0.0522696 1.57002e-17)
(0.0739478 0.133233 3.29812e-17)
(0.104658 -0.0456158 -1.56884e-17)
(0.0531644 -0.0645363 0)
(0.0640902 -0.0545789 3.34567e-17)
(0.0882462 -0.0275877 7.85683e-18)
(0.0545164 -0.0617969 0)
(0.0795149 0.0173246 1.57449e-17)
(0.00630048 0.0418008 -8.65099e-18)
(0.0597967 0.0577865 0)
(0.0436801 0.0731449 0)
(0.0375318 0.0664685 0)
(0.0535119 -0.0338945 1.38887e-17)
(0.063935 0.0508268 -7.60427e-18)
(0.111044 -0.0700908 -1.91357e-17)
(0.0845282 -0.0182205 0)
(0.093736 0.0587023 8.06348e-18)
(0.0775799 -0.0229783 -1.57422e-17)
(0.095627 0.00271901 2.65399e-17)
(0.0502947 -0.0640144 0)
(0.100309 0.0679677 -6.81066e-18)
(0.0880676 0.0268074 0)
(0.0568987 0.0845544 0)
(0.0426225 -0.0376021 0)
(0.11776 -0.0564653 0)
(0.0281817 0.0534042 7.92854e-18)
(0.0795785 0.0869839 0)
(0.090825 0.00442664 0)
(0.0855704 0.0731536 -7.9347e-18)
(0.115255 0.0511049 -7.79158e-18)
(0.0916205 -0.0556985 0)
(0.0642067 0.0319236 0)
(0.0848367 -0.0550262 0)
(0.110113 0.0734237 3.13028e-17)
(0.0383061 0.0794452 2.38973e-17)
(0.0896352 -0.0466012 0)
(0.123158 -0.0659251 1.35384e-17)
(0.0481797 0.113121 -1.5853e-17)
(0.072172 -0.00953732 1.57612e-17)
(0.0493277 0.0463033 -1.57837e-17)
(0.00213148 -0.0243807 -6.46258e-22)
(0.100873 0.0441585 0)
(0.0406294 -0.0683679 0)
(0.0572931 0.130623 1.52031e-17)
(0.0256621 -0.0644669 0)
(0.0960998 -0.00540932 0)
(0.0603736 -0.0373663 -1.40339e-17)
(0.0399537 -0.0582225 -1.99237e-17)
(0.0364228 -0.0282961 0)
(0.0175246 0.00677091 -1.57962e-17)
(0.0967519 0.0137593 0)
(0.0621283 -0.0159873 -1.57767e-17)
(0.0275825 0.00164896 -7.91729e-18)
(0.0256059 0.022529 3.16751e-17)
(0.0558723 0.00198929 0)
(0.0748359 0.0424725 -1.57324e-17)
(0.0503801 0.111681 7.89993e-18)
(0.0443206 -0.0067001 0)
(0.0586004 0.136182 1.97664e-17)
(0.0392119 0.0144164 -7.92006e-18)
(0.0391829 0.0774765 -1.58358e-17)
(0.0584559 -0.0501559 -1.47521e-17)
(0.0586884 0.138762 -7.95567e-18)
(0.072261 -0.0435439 0)
(0.0655112 0.114575 -1.58576e-17)
(0.0336324 -0.0732664 0)
(0.0245041 -0.0734429 2.34061e-17)
(0.04717 0.0701695 2.37028e-17)
(0.059257 0.139878 1.57796e-17)
(0.00509328 -0.0298217 3.18565e-17)
(0.0227504 -0.0328681 -8.42565e-18)
(-0.000613591 -0.0372956 -1.60396e-17)
(0.0613873 0.141549 0)
(0.0104728 -0.0581532 0)
(0.0530521 0.124589 -1.58314e-17)
(0.0574368 0.136416 3.29086e-17)
(0.0163439 -0.0242433 0)
(0.0378029 0.0566088 -2.3712e-17)
(0.0232639 -0.0726417 -3.23859e-22)
(0.048064 0.112027 7.98485e-18)
(0.0621555 0.139536 0)
(0.0568349 0.121949 8.01507e-18)
(0.0578924 0.131614 -2.37512e-17)
(0.044026 0.0962929 0)
(0.0186698 -0.0762433 1.81111e-17)
(0.0402249 0.121251 -3.41163e-17)
(0.00160411 -0.072937 0)
(0.0568899 0.105582 0)
(0.0311469 -0.072382 -1.58063e-17)
(0.0285042 -0.0735385 0)
(0.0543041 0.12246 1.58156e-17)
(0.0241357 0.0622091 4.6093e-19)
(0.01338 -0.0659114 -1.73124e-17)
(0.0524164 0.12277 -1.60431e-17)
(0.0272069 -0.0521943 -1.29874e-17)
(0.0258406 -0.0715336 1.58733e-17)
(0.00193956 -0.0794171 0)
(0.00849327 0.0133413 0)
(-0.000143892 -0.0177265 5.47863e-17)
(0.0014754 -0.0600566 -3.52455e-17)
(0.00301735 -0.0307036 -3.47483e-17)
(0.0564875 -0.0231184 0)
(0.0450963 0.154111 1.69173e-17)
(0.0178585 -0.070152 -2.47741e-17)
(0.0203614 -0.0691072 2.49214e-17)
(0.000939255 -0.0406069 0)
(0.00474883 -0.0288745 -1.74329e-17)
(0.0382276 0.15826 -5.23314e-17)
(0.00111575 -0.0408238 -1.6514e-17)
(0.0157865 -0.0413515 -5.45761e-22)
(0.0376355 0.108357 1.47502e-17)
(0.0154123 -0.0655847 -1.70036e-17)
(0.00531919 -0.0386593 8.20028e-18)
(0.0211234 0.0468084 0)
(0.0437562 -0.0340952 -1.87501e-17)
(0.0464156 0.145945 3.82304e-17)
(0.00641738 -0.0025226 -1.84866e-17)
(0.00233436 -0.0271935 2.756e-22)
(0.0520439 -0.0256144 2.5781e-17)
(0.0978647 0.0184235 -6.02301e-22)
(0.0582854 -0.0306601 3.1143e-17)
(0.0715688 0.0343844 1.13031e-17)
(0.0286126 -0.0695901 0)
(0.00258475 -0.0511312 1.77022e-17)
(0.00288039 -0.0319854 0)
(-0.0341025 0.0122709 -1.04378e-17)
(0.0432023 0.155249 -5.47503e-19)
(0.00251643 -0.0285295 0)
(0.0426211 0.148353 5.03805e-19)
(0.0489437 0.124487 1.76477e-17)
(0.00377611 -0.0218418 -2.06036e-17)
(0.00267864 -0.0303262 -4.9934e-18)
(0.0104154 -0.0533677 4.21457e-18)
(0.0452845 -0.00437133 2.44679e-17)
(-0.0304879 0.0179584 1.84362e-17)
(0.0367 -0.0436868 -1.95243e-17)
(-0.105041 0.0242637 1.51406e-17)
(0.0320882 -0.0654725 0)
(0.0778761 -0.00690688 9.16576e-18)
(-0.00126896 0.045952 0)
(-0.00238894 -0.0331245 1.46993e-17)
(0.0165808 -0.0558783 0)
(0.0115245 -0.00368878 -3.50413e-17)
(0.103912 0.048495 -1.88266e-17)
(0.0942697 0.036936 -1.53815e-17)
(0.00875205 -0.0176235 -1.32505e-17)
(0.0948637 -0.0352898 0)
(-0.0059321 0.0837211 8.64209e-19)
(-0.0405192 0.014118 0)
(0.0787803 -0.0383718 -2.73874e-17)
(0.060097 -0.0261447 -1.29497e-17)
(0.0693578 -0.0318544 -4.54381e-18)
(0.0031591 -0.00835687 3.36922e-17)
(0.0206168 -0.0330785 0)
(0.0146341 -0.057649 1.45218e-17)
(0.0397203 -0.036805 0)
(0.0572018 -0.0314948 -2.47642e-17)
(0.00212505 -0.0678254 -1.87804e-17)
(0.0876656 0.114749 1.7388e-17)
(0.0182498 0.0637248 0)
(0.0023462 0.0496754 -4.56199e-18)
(0.0521534 0.128205 0)
(0.0241496 -0.00704336 1.73458e-17)
(0.0060702 -0.0675512 5.5522e-19)
(0.00135328 -0.0507418 3.71034e-17)
(0.0319313 -0.0696997 0)
(0.00346509 -0.077014 1.61143e-17)
(0.00307024 -0.0674314 1.72156e-17)
(0.00561233 -0.0796919 9.08877e-18)
(0.017252 -0.0384443 -7.73331e-23)
(-0.0136292 0.061775 -2.39682e-17)
(0.0530487 0.138672 0)
(0.039203 -0.0514473 0)
(0.0202774 0.0785398 -8.75228e-18)
(0.0919848 0.095072 1.78569e-17)
(0.0217858 0.0687449 0)
(0.00453818 -0.0177142 8.63512e-18)
(0.0225978 0.0602997 -1.45897e-17)
(0.005054 -0.0172161 0)
(0.00963696 -0.0765536 0)
(0.0117771 0.0487393 -1.44687e-22)
(0.0134858 0.0354584 1.51653e-17)
(0.00251232 -0.00933644 8.436e-18)
(0.00856712 -0.0669222 -8.84957e-18)
(0.0617109 -0.11208 0)
(0.0608153 0.130999 1.71625e-17)
(0.0412171 -0.0573018 -8.85772e-18)
(0.0533372 0.0615603 -8.6146e-18)
(0.0610323 0.0467784 0)
(0.0155257 -0.009391 0)
(-0.058772 -0.021845 7.71955e-18)
(0.0253874 0.0486559 -1.65889e-17)
(0.0355754 0.0369769 0)
(0.0386768 0.00868763 1.44765e-17)
(0.0249381 -0.0144221 0)
(0.0449226 0.0615841 8.519e-18)
(0.0111481 -0.0156857 -1.65558e-17)
(-0.0142669 -0.0255259 2.2084e-18)
(-0.0443559 -0.0284018 1.32438e-17)
(0.0297366 0.0511446 -1.75455e-17)
(0.0357752 0.0557955 -1.77133e-17)
(0.0103655 -0.01313 0)
(0.054572 0.0306419 1.61645e-17)
(0.0392522 0.0313785 0)
(-0.0102929 -0.0175758 -2.08893e-18)
(-0.0376848 -0.0214448 0)
(0.0166633 0.0277773 0)
(0.0254856 0.0355343 -8.56544e-18)
(0.0135922 -0.00907808 8.53138e-23)
(0.00476693 -0.00699406 0)
(0.0265489 0.00838369 -1.36488e-17)
(0.0848794 0.0282128 -9.21981e-18)
(0.0994668 0.0504673 -1.69117e-17)
(0.0921757 0.0617935 0)
(0.000642425 -0.0601178 -1.7582e-22)
(0.067143 0.127709 -2.75032e-17)
(0.0196306 -0.0263891 -2.00904e-17)
(0.00537644 -0.0520887 0)
(0.0235651 -0.0173149 -3.36524e-17)
(0.0558335 0.122534 -8.38124e-18)
(0.0528121 0.136831 0)
(0.0822206 -0.00821872 1.71395e-17)
(0.0152323 -0.0781136 -9.63345e-18)
(0.0456586 0.0973807 1.91253e-17)
(0.01284 -0.00929723 1.70522e-17)
(0.059388 -0.0175437 9.19658e-18)
(0.0558005 -0.0390106 2.68007e-17)
(0.0604858 0.0300796 9.5813e-18)
(0.0598204 -0.0432795 0)
(0.0258039 -0.0137946 -3.35442e-17)
(0.0294225 -0.0150841 -4.09952e-18)
(0.0269841 -0.0364243 2.56988e-17)
(0.00156588 -0.072955 -1.78973e-17)
(0.0899633 -0.0509548 -2.898e-17)
(0.0775298 0.0211697 1.42357e-17)
(0.033227 0.077993 -2.34767e-17)
(0.00818729 -0.0721146 4.54686e-18)
(0.092603 0.11995 1.73554e-17)
(0.0985286 0.0826828 -2.61262e-17)
(0.022963 -0.0427785 3.64944e-17)
(0.0186892 -0.0167282 0)
(0.0204907 -0.0765964 -1.87351e-17)
(0.0220805 0.0486525 2.92999e-17)
(0.0289297 -0.0350883 -1.70875e-17)
(0.0161414 -0.0786928 1.01437e-17)
(0.0455644 0.00692065 -4.53858e-18)
(0.0101362 0.0582234 0)
(0.0193326 0.0655471 -8.80548e-18)
(0.0382505 -0.062097 -1.86903e-17)
(0.0359427 -0.0454045 1.73307e-17)
(0.0187198 -0.0739354 1.12611e-17)
(0.0125048 0.0263798 -1.89263e-17)
(0.0150811 -0.0487331 1.00485e-17)
(0.0676462 0.122066 -1.4003e-17)
(0.00959836 -0.0511873 0)
(0.0795939 0.0984849 3.22102e-17)
(0.0979094 -0.0128084 -1.77092e-17)
(0.108822 0.000981598 2.2495e-17)
(0.0122618 -0.00779767 2.14092e-17)
(0.123975 0.0187775 4.48529e-18)
(0.106801 0.0809899 -9.61667e-18)
(0.0272587 -0.00280436 -1.99368e-17)
(0.0290411 -0.00184966 1.89801e-17)
(0.0360819 -0.0433402 0)
(0.0585184 0.0589695 0)
(0.00246375 -0.0765711 -1.97045e-17)
(0.00100314 -0.00693269 -9.62261e-18)
(0.000413228 -0.00503169 -1.92474e-17)
(0.00315733 -0.079935 1.10302e-22)
(0.0211895 -0.0299914 8.79435e-18)
(0.0240146 -0.0160705 -1.77368e-17)
(0.000771162 -0.0159047 0)
(0.00235682 -0.0142513 0)
(0.0266138 -0.0284605 3.23494e-17)
(0.00338489 0.0667993 -3.18434e-17)
(0.00838705 -0.00958895 -8.98726e-18)
(0.0694017 0.102377 1.03538e-17)
(0.000321053 -0.00827802 1.81716e-17)
(0.0316264 0.106312 2.07502e-17)
(-0.0245243 -0.0289212 0)
(0.0949662 0.0227554 0)
(-0.027893 -0.0344693 -9.3085e-18)
(0.0170783 0.115509 1.08742e-17)
(0.0908609 0.103327 -8.42853e-18)
(0.00633814 -0.0164997 -1.39145e-17)
(0.0100237 -0.0381231 9.27272e-18)
(-0.00900534 0.0167704 -2.30154e-18)
(-0.019949 0.0181945 -3.17871e-17)
(0.0487322 0.146843 -2.22285e-17)
(0.0398202 -0.0380346 5.38699e-18)
(0.0668786 0.116618 2.27658e-17)
(0.0171819 -0.00659952 -1.4302e-22)
(0.0451781 -0.0540007 1.60504e-17)
(0.0393779 -0.0119689 1.87331e-17)
(0.0544658 -0.0205908 -9.01458e-18)
(0.0391056 0.114056 -3.02674e-17)
(0.00218049 -0.0357864 1.96568e-17)
(0.0376044 -0.0121766 -9.23377e-18)
(0.0307119 -0.0145609 -1.84773e-17)
(0.038771 -0.0433049 1.6044e-17)
(0.041478 0.0826348 -2.1893e-18)
(0.00718114 -0.00814201 4.52801e-18)
(0.0217238 0.0522754 4.03953e-18)
(0.00381683 0.0114039 0)
(-0.0208354 0.00513147 6.16503e-18)
(0.0500148 0.139792 9.90572e-18)
(0.0223466 -0.0224571 2.18148e-17)
(0.00703432 0.0033209 0)
(0.0748091 -0.0150724 -3.83625e-18)
(0.0535963 -0.113745 2.18969e-17)
(0.02038 -0.073293 1.22446e-17)
(0.00141431 -0.0319955 0)
(0.000613951 -0.00768867 -1.90425e-17)
(0.0391948 -0.0531398 1.00378e-17)
(0.00831265 -0.00134871 -2.55129e-18)
(0.0121251 0.0239093 -1.33022e-18)
(0.0302195 -0.0306823 4.85811e-18)
(-3.94874e-05 -0.00666225 2.0883e-17)
(0.00262402 -0.0333507 0)
(0.00809616 -0.106284 0)
(0.0343868 -0.0413663 0)
(0.0228795 -0.0319509 -1.0767e-17)
(0.0962857 0.0858916 0)
(0.051954 0.00777688 1.77819e-17)
(0.0105895 -0.0721691 -1.03876e-17)
(0.00013101 -0.0153649 -1.06603e-17)
(0.00342532 -0.0323192 0)
(0.0466926 -0.0881777 -5.39519e-18)
(0.0815825 0.0502198 0)
(0.0770561 0.0104269 6.06128e-19)
(0.00274755 -0.00879705 1.02678e-17)
(0.00168218 -0.016982 1.50382e-17)
(0.0222173 -0.0516052 0)
(0.0127628 -0.0301045 1.94377e-17)
(0.00314136 -0.0242762 0)
(0.00402313 -0.0292985 0)
(0.0102385 -0.0616162 1.29978e-18)
(0.0207833 -0.0423066 -1.90096e-17)
(0.0073014 -0.0163201 -1.10976e-18)
(0.0432872 -0.026267 0)
(0.103931 0.0297416 3.70381e-17)
(0.00116541 -0.0328786 1.06027e-18)
(0.0191436 0.0903657 -9.40751e-18)
(0.0197002 -0.0187222 0)
(0.0682682 -0.0296172 -8.30716e-18)
(0.0205438 -0.0448659 -2.26423e-17)
(0.050635 -0.0297051 2.07881e-17)
(0.074493 0.117242 9.89623e-18)
(0.0237465 -0.046493 9.1665e-18)
(0.0657072 -0.0289993 -9.91442e-18)
(0.00257333 -0.0172946 -2.002e-17)
(0.0662773 -0.0440185 -1.88918e-17)
(0.0557128 0.00183917 0)
(0.0769642 -0.0435824 1.3315e-17)
(0.0254872 -0.0593029 4.59705e-18)
(0.0812966 -0.0858514 1.78393e-17)
(0.0488178 0.132909 4.79875e-18)
(0.0525215 0.144196 0)
(0.0115191 -0.0822801 1.75678e-17)
(0.0331383 -0.0926049 2.83683e-17)
(0.0472992 0.0949923 0)
(0.0313249 -0.0558665 2.9241e-18)
(0.00314674 -0.00839203 -1.31134e-17)
(0.0162877 0.0485472 0)
(0.00714222 -0.0601707 -1.23942e-18)
(0.103868 0.0567458 -1.77764e-17)
(-0.0041335 -0.0307273 -2.12598e-21)
(0.0923163 0.10227 2.62741e-22)
(0.0287103 -0.0601956 -4.73631e-18)
(0.032262 -0.0347125 -2.13654e-17)
(-0.0286831 0.0216827 2.36717e-17)
(0.0121493 0.00738392 4.23335e-17)
(0.0120742 -0.0432982 -2.17391e-17)
(0.0132137 -0.0074737 3.1417e-17)
(-0.000357483 0.0815763 4.47552e-18)
(0.00644006 -0.0305984 1.05001e-17)
(0.0223689 0.0523617 2.09299e-17)
(0.034863 -0.0498423 0)
(0.0626884 -0.0390715 -2.9253e-17)
(0.0236248 -0.030796 -1.83256e-17)
(0.0765652 0.0823367 5.05541e-18)
(0.0249837 -0.0393095 0)
(0.0167808 0.036578 -2.24425e-17)
(0.0334569 -0.0458963 -2.1473e-17)
(0.087922 0.0826231 0)
(0.00990169 -0.0288751 1.17007e-17)
(0.0133327 -0.0742576 1.31506e-17)
(0.0351898 -0.0620402 -1.08211e-17)
(0.0382857 -0.0499026 1.31097e-18)
(0.012153 -0.0506308 0)
(0.000957195 -0.0793672 2.21274e-22)
(0.0601655 0.12142 0)
(0.0134126 -0.0160324 1.88473e-17)
(0.0310524 -0.0459778 -2.67424e-18)
(0.00970489 -0.0312733 1.09668e-17)
(0.00194381 -0.0323766 0)
(0.00341365 -0.0244885 2.32951e-17)
(-0.0514721 0.0103134 2.16532e-17)
(0.0443984 -0.0439896 -5.40874e-18)
(0.0180137 -0.0313512 -1.77292e-17)
(0.017118 -0.0283312 -3.69281e-17)
(0.029558 0.0687772 0)
(0.116273 -0.00521975 0)
(0.056066 0.098354 -2.2515e-17)
(0.0477422 0.0846426 2.91891e-17)
(0.0441692 -0.103574 9.29401e-18)
(0.129217 0.054791 1.05661e-17)
(0.0324515 -0.0487491 7.66012e-18)
(0.000865338 -0.0316272 -1.16082e-17)
(0.0471766 0.148363 0)
(0.0496615 0.0984169 0)
(0.0349442 -0.0448318 0)