/*--------------------------------*- C++ -*----------------------------------*\
  =========                 |
  \\      /  F ield         | OpenFOAM: The Open Source CFD Toolbox
   \\    /   O peration     | Website:  https://openfoam.org
    \\  /    A nd           | Version:  9
     \\/     M anipulation  |
\*---------------------------------------------------------------------------*/
FoamFile
{
    format      ascii;
    class       volScalarField;
    location    "0.63";
    object      p;
}
// * * * * * * * * * * * * * * * * * * * * * * * * * * * * * * * * * * * * * //

dimensions      [0 2 -2 0 0 0 0];

internalField   nonuniform List<scalar> 
578
(
-6.49383e-06
-1.9085e-05
-5.19122e-06
1.09567e-07
-1.75002e-05
1.33853e-05
1.50415e-05
-1.48283e-05
-1.21333e-05
-2.6924e-05
6.96922e-06
-1.43854e-05
-5.76324e-07
-1.63419e-05
1.37949e-05
-8.52121e-07
-1.20465e-05
-1.21739e-05
-1.11484e-05
-7.88525e-06
1.93121e-07
-1.09456e-07
7.34338e-06
7.50468e-06
8.50651e-06
-1.0853e-05
-2.1828e-06
-3.67644e-06
-1.44023e-05
4.20139e-07
-2.23768e-06
1.57607e-05
-5.06222e-06
2.86467e-06
1.22114e-05
-6.13556e-06
-1.46626e-05
-1.41314e-05
-1.99602e-06
-2.04742e-05
-1.59625e-05
-1.27835e-05
-1.66257e-05
1.45141e-05
-2.47107e-06
1.88382e-05
1.38246e-05
-1.30371e-05
-1.79446e-06
-3.00263e-06
2.39676e-05
-6.68517e-07
1.96865e-05
2.08791e-06
-1.28771e-06
-9.70668e-06
6.58383e-06
5.25456e-06
-6.89802e-06
-9.64557e-06
-1.04058e-05
-1.76311e-05
-1.73369e-05
-1.82129e-05
-1.42894e-06
1.31702e-05
-2.49943e-06
8.90968e-06
6.62643e-06
-1.01734e-05
4.35399e-06
1.56497e-05
-1.30793e-06
-1.19516e-05
7.21682e-06
-1.95237e-05
-1.53772e-05
-1.25083e-05
-1.23839e-06
1.04443e-05
1.45413e-05
-1.24574e-05
1.80855e-05
1.73181e-05
1.1795e-06
1.05212e-05
2.55645e-05
-6.6866e-06
-1.14477e-05
9.45408e-06
-1.83314e-06
5.12831e-06
1.18723e-05
-3.9369e-08
7.96849e-06
1.22737e-05
-1.41706e-06
-1.37848e-06
-2.76303e-05
1.38646e-05
1.25807e-05
-1.1646e-05
-2.48127e-06
8.08315e-06
-1.80838e-06
-1.65572e-05
8.45203e-06
-1.98166e-05
1.18601e-05
-1.73659e-05
-5.21409e-06
-1.12957e-05
-8.9227e-06
1.02999e-05
1.03067e-05
-1.97867e-06
1.48622e-07
-1.061e-05
9.06252e-06
-1.55872e-06
-9.79932e-06
2.57212e-05
-1.3099e-05
-6.59832e-07
1.23961e-05
6.23071e-06
1.19413e-05
1.05474e-06
1.14971e-05
1.62947e-06
1.19441e-05
5.73348e-06
-1.02693e-07
-1.137e-05
1.05878e-05
1.03549e-05
-1.69476e-05
-1.96672e-06
7.92204e-06
1.20584e-05
1.34357e-05
3.37127e-06
1.17646e-05
-8.56588e-06
-1.28188e-05
2.7664e-06
4.76651e-06
-4.36724e-06
-1.31073e-05
-6.28317e-08
-1.38974e-05
3.15282e-06
-1.7293e-05
-1.08115e-05
1.36312e-05
-3.15544e-06
-1.12655e-05
2.95337e-07
1.51061e-05
-1.42328e-05
-1.4947e-05
-1.46011e-05
1.40481e-05
-1.34599e-05
-1.41678e-05
3.98212e-06
-1.17496e-05
1.38035e-05
1.30149e-06
-1.22945e-06
-1.21409e-05
-1.73663e-05
1.07052e-05
9.56766e-06
1.34974e-05
-1.71503e-06
-1.14283e-06
-1.01042e-05
-1.32899e-05
-1.54536e-05
1.49948e-05
-1.43143e-05
7.98796e-06
-1.12019e-06
1.09433e-05
-3.60047e-06
-1.74946e-06
1.54858e-05
1.32927e-05
-2.31584e-05
-1.51626e-05
-1.4539e-05
4.06207e-06
1.34342e-05
-1.93386e-05
-1.06814e-06
2.41258e-06
-4.9958e-06
1.26972e-05
-1.51381e-05
7.13698e-07
-7.48095e-07
2.76307e-05
-1.72001e-06
-1.38524e-06
-1.55698e-05
1.2229e-05
-3.80864e-06
-1.47028e-05
2.16556e-06
2.66477e-06
1.22657e-05
1.02633e-05
-8.89022e-07
1.06709e-05
-1.28501e-06
1.32406e-05
-1.49993e-05
1.33586e-05
6.16039e-06
-1.50305e-05
1.35058e-05
-7.36515e-06
-1.49608e-05
1.4836e-05
6.70176e-06
-9.70467e-07
1.69013e-06
-4.43543e-06
-1.96651e-05
-2.30447e-05
2.81065e-05
1.05482e-05
-5.95121e-06
6.07728e-06
-1.08769e-05
-1.5417e-05
1.40803e-05
-3.90249e-07
-3.00492e-06
1.4611e-05
-1.77047e-05
-1.22793e-06
1.48663e-05
-4.56621e-06
-1.25757e-05
1.26128e-05
-2.822e-05
8.9232e-06
-4.12527e-08
-9.86969e-07
8.58952e-06
1.68133e-05
7.40785e-07
1.95813e-05
-3.34806e-06
-1.77103e-05
1.23808e-05
-1.23501e-05
2.76503e-05
-6.96054e-06
1.49035e-05
2.10265e-06
2.3453e-06
-1.48288e-05
-8.64017e-06
3.83451e-06
-3.79771e-06
-2.50815e-05
4.41808e-06
-4.88311e-06
5.06962e-06
1.66793e-06
-9.05966e-07
-5.56981e-07
-4.59123e-07
-1.00757e-06
3.23761e-06
1.35498e-05
8.1066e-07
-1.59973e-05
-5.9811e-07
-1.19401e-06
-8.96038e-07
7.94159e-08
1.21221e-05
-8.25888e-06
7.39168e-06
6.98282e-06
5.15346e-06
1.80022e-06
8.13133e-06
-1.72999e-06
1.20514e-05
-2.02461e-07
1.13689e-06
-1.60221e-05
-1.70402e-06
-6.34172e-06
-1.11096e-06
8.5425e-07
-2.13695e-06
-3.84946e-06
-8.60121e-06
1.54372e-06
2.05067e-06
-1.42374e-07
-1.34218e-05
4.68535e-07
-4.67245e-07
-5.0033e-06
-2.69886e-06
-3.8721e-07
-2.1812e-06
1.34957e-06
-1.30244e-06
7.6286e-06
-1.3887e-06
-4.25134e-06
2.10395e-06
8.14271e-06
-1.07686e-06
-8.65919e-07
4.46508e-06
-1.35636e-06
-2.54117e-06
1.21031e-05
1.35225e-05
-1.5136e-05
-2.10592e-06
-1.69307e-06
1.02397e-05
-1.18335e-06
-3.0728e-06
9.83594e-06
2.92888e-06
-5.62157e-07
-2.25755e-06
-9.67737e-06
-1.71554e-06
-1.16047e-06
-9.34678e-07
-1.94531e-06
-1.15162e-05
7.18494e-07
1.24842e-05
7.73662e-06
1.05822e-05
-1.14114e-05
1.24283e-05
-1.32244e-05
-1.49384e-05
1.32389e-05
-6.90478e-06
-1.90755e-05
1.73554e-05
2.77111e-06
1.62894e-05
-1.98742e-05
1.72046e-05
-6.78552e-07
-9.62874e-06
1.30561e-06
-8.37262e-06
-3.64953e-07
2.62865e-07
-2.00663e-06
1.2224e-05
-6.41108e-07
-5.93201e-06
-1.40235e-05
-1.86804e-05
2.15729e-06
8.48286e-06
3.49458e-06
2.40367e-05
-2.29703e-06
1.21918e-05
-1.38205e-05
-5.19927e-06
-1.62463e-06
-1.43884e-05
1.34055e-05
2.75345e-06
1.70875e-06
-5.42426e-07
-1.19726e-06
1.63937e-05
1.50831e-05
-1.01464e-05
-9.6571e-07
2.87464e-06
3.5614e-06
-4.18014e-06
-3.90397e-06
1.01759e-06
1.67879e-05
-5.44427e-06
2.03084e-06
1.07069e-05
-2.88371e-06
1.79488e-05
-9.60545e-07
-1.07431e-05
-1.83996e-06
-2.73113e-06
1.09057e-05
-5.20948e-06
5.28671e-06
9.39756e-06
-2.17335e-06
-1.3214e-05
-9.81802e-06
7.0245e-06
-5.69248e-06
5.7889e-06
-1.22228e-05
1.06423e-05
-1.64568e-05
-2.83624e-06
1.21719e-05
1.40054e-05
-1.32078e-05
1.45879e-05
9.35342e-06
-5.94876e-06
-9.77719e-06
-1.24944e-05
-1.11979e-05
-5.98729e-06
7.67919e-06
3.14561e-06
5.02231e-06
-9.4789e-07
7.76982e-06
-8.15352e-06
-1.42538e-05
-9.213e-06
-7.70573e-06
-4.74113e-06
-7.93607e-06
-3.89561e-07
5.01983e-07
-3.87526e-06
9.99591e-06
-3.85714e-06
-5.4805e-06
8.61628e-06
8.42198e-06
-4.54563e-07
1.25262e-05
-2.31765e-06
9.04452e-06
-3.94318e-07
1.22497e-05
6.89255e-07
-2.03534e-05
4.89754e-06
4.30711e-06
-1.09256e-05
2.14057e-05
1.06205e-05
-9.3645e-06
-7.14532e-06
-4.11365e-06
-1.03304e-05
7.88932e-06
-1.64968e-05
-6.38994e-06
-8.22193e-06
-5.55996e-06
-4.8445e-06
7.44296e-06
-3.3049e-06
-5.24071e-06
-1.2601e-05
-9.20159e-06
-9.91385e-06
-4.41103e-06
-8.60667e-06
5.23506e-06
5.64844e-06
-6.36134e-06
-3.95105e-06
-2.9641e-06
-7.22282e-06
-8.78268e-06
-2.99873e-06
-2.45517e-06
1.10471e-05
2.60702e-07
7.62884e-06
-5.01054e-06
2.02332e-07
-1.98403e-06
9.40214e-06
-4.96083e-07
1.13276e-05
-2.80663e-06
9.44827e-08
-1.58584e-05
-2.90517e-06
-7.39335e-06
-7.43222e-07
-1.03212e-05
-2.81245e-06
1.0847e-05
7.504e-07
7.26262e-06
-2.39448e-06
-3.39194e-06
1.44383e-05
-1.78816e-06
1.83841e-05
1.23117e-05
9.45868e-08
-1.4198e-05
-1.95721e-05
1.3185e-05
-1.22709e-07
7.02895e-06
7.00823e-06
-5.27721e-06
-1.06335e-05
-1.19569e-05
-1.30105e-06
-6.36165e-06
1.03653e-06
-1.29676e-05
-1.55781e-05
-1.37476e-05
-1.36699e-05
-4.68537e-06
-3.55774e-06
1.28041e-05
8.17409e-06
1.358e-05
1.02963e-05
8.35446e-06
-3.42711e-06
5.3691e-07
1.32668e-05
-6.78545e-06
-1.02038e-05
1.59243e-05
3.03147e-06
8.52925e-06
-9.22036e-06
-6.1081e-06
-9.37509e-06
9.56658e-06
1.34822e-05
-9.14811e-06
1.14939e-05
8.60347e-06
-6.36563e-06
-1.42993e-05
-4.38971e-06
-2.17351e-06
-2.90194e-06
-2.48115e-06
1.2576e-05
-1.25311e-05
-3.00486e-06
2.47543e-07
1.11595e-05
-4.53016e-07
-9.59072e-06
-2.4782e-06
-1.67755e-07
1.15709e-05
-1.01927e-05
1.15295e-05
-1.38862e-05
-6.24217e-06
8.58299e-06
5.27904e-06
3.39045e-06
)
;

boundaryField
{
    front
    {
        type            empty;
    }
    back
    {
        type            empty;
    }
    bottom
    {
        type            uniformFixedValue;
        uniformValue    
        {
            type            scale;
            scale           
            {
                type            squarePulse;
                start           0.3;
                duration        0.3;
            }
            xScale          
            {
                type            constant;
                value           1;
            }
            value           
            {
                type            constant;
                value           15.1;
            }
        }
        value           uniform 0;
    }
    left
    {
        type            zeroGradient;
    }
    top
    {
        type            zeroGradient;
    }
    right
    {
        type            zeroGradient;
    }
    inner_arc
    {
        type            zeroGradient;
    }
}


// ************************************************************************* //
