/*--------------------------------*- C++ -*----------------------------------*\
  =========                 |
  \\      /  F ield         | OpenFOAM: The Open Source CFD Toolbox
   \\    /   O peration     | Website:  https://openfoam.org
    \\  /    A nd           | Version:  9
     \\/     M anipulation  |
\*---------------------------------------------------------------------------*/
FoamFile
{
    format      ascii;
    class       volVectorField;
    location    "0.63";
    object      U;
}
// * * * * * * * * * * * * * * * * * * * * * * * * * * * * * * * * * * * * * //

dimensions      [0 1 -1 0 0 0 0];

internalField   nonuniform List<vector> 
578
(
(-0.0362 -0.043 0)
(-0.0193 -0.0652 3.04e-16)
(-0.0542 -0.0639 -1.08e-16)
(0.00364 -0.0708 -2.57e-17)
(0.0118 -0.0263 -4.83e-17)
(0.00455 -0.0929 -9.53e-17)
(-0.0123 -0.0269 4.81e-17)
(0.0133 -0.0245 -2.14e-20)
(0.0597 -0.0899 -2.1e-16)
(-0.0114 -0.0407 4.5e-16)
(0.00577 -0.101 -1.41e-16)
(0.0385 -0.075 0)
(0.00934 -0.0872 1.05e-16)
(0.0394 -0.0822 -8.14e-16)
(-0.0401 -0.0831 4.1e-16)
(0.07 -0.0751 -9.84e-17)
(-0.0455 -0.0415 4.39e-16)
(-0.0732 -0.0622 0)
(0.0353 -0.0685 0)
(0.0652 -0.0878 1.51e-16)
(0.00328 -0.0799 0)
(0.0557 -0.0688 0)
(0.0308 -0.0274 -5.21e-16)
(0.000207 -0.0738 0)
(-0.00106 -0.0585 0)
(0.0337 -0.0683 4.14e-16)
(-0.00331 -0.0677 -5.23e-17)
(-0.000242 -0.0336 2.81e-17)
(-0.0169 -0.0781 -5.01e-16)
(0.0722 -0.0781 4.02e-16)
(-0.00101 -0.0581 -4.82e-16)
(0.00429 -0.0764 1.03e-16)
(0.0771 -0.083 -3.87e-16)
(-0.00119 -0.0795 2.04e-16)
(-0.0352 -0.0748 -4.05e-16)
(0.0617 -0.0652 -6.09e-16)
(0.0345 -0.0734 7.96e-16)
(0.0325 -0.0631 0)
(-0.0695 -0.0756 -4e-16)
(0.019 -0.0403 0)
(0.0193 -0.0438 -3.95e-16)
(0.0222 -0.04 4.74e-16)
(0.0195 -0.0378 0)
(-0.0356 -0.0732 0)
(0.0543 -0.0528 5.18e-17)
(-0.0195 -0.0414 0)
(-0.0198 -0.045 3.95e-16)
(0.054 -0.0826 -5.2e-17)
(-0.0693 -0.0755 5.95e-16)
(-0.00567 -0.0806 -1.1e-16)
(0.000756 -0.0351 1.54e-17)
(0.0139 -0.0902 -4.42e-16)
(0.046 -0.033 -2.15e-16)
(-0.00143 -0.0805 0)
(0.0015 -0.0811 3.61e-16)
(-0.00427 -0.0975 8.74e-16)
(0.012 -0.0104 8.35e-16)
(0.0364 -0.0301 -4.24e-16)
(-0.0598 -0.0594 -7.63e-16)
(0.0396 -0.0425 2.23e-16)
(-0.0706 -0.0674 4.03e-16)
(-0.0381 -0.0267 0)
(-0.0577 -0.0443 5.78e-17)
(0.0354 -0.0732 3.79e-16)
(-0.0046 -0.0892 1.01e-16)
(-0.0444 -0.0837 2.23e-16)
(0.0733 -0.0857 -4.65e-17)
(0.0103 -0.0979 3.33e-16)
(0.0787 -0.0737 -1.91e-16)
(0.0393 -0.0839 4.46e-16)
(0.00045 -0.0623 0)
(0.00131 -0.0629 -1.45e-17)
(0.000147 -0.0862 -1.09e-16)
(0.0402 -0.0854 0)
(0.00158 -0.108 2.02e-16)
(0.0117 -0.0247 0)
(0.0526 -0.0763 2.68e-16)
(0.0433 -0.062 -2.2e-16)
(0.00573 -0.0901 0)
(-0.0358 -0.0385 -1.17e-16)
(0.0362 -0.0741 -3.78e-16)
(-0.0178 -0.0256 -4.08e-16)
(0.0108 -0.025 -1.86e-16)
(0.0177 -0.0251 1.88e-16)
(-0.0702 -0.0865 -5.41e-17)
(-0.0142 -0.0411 0)
(0.00064 -0.0204 0)
(-0.00414 -0.107 -3.21e-16)
(0.0286 -0.0634 9.8e-21)
(-0.0306 -0.0702 3.6e-18)
(-0.00243 -0.0739 0)
(-0.0608 -0.0785 1.1e-16)
(-0.029 -0.0648 0)
(0.013 -0.0971 1.96e-16)
(0.0736 -0.0758 5.95e-16)
(0.0528 -0.0699 -5.1e-16)
(0.000126 -0.0822 1.08e-16)
(0.00525 -0.0827 -7.71e-16)
(-0.00391 -0.0244 -8.05e-16)
(-0.0399 -0.0834 0)
(-0.0418 -0.0748 0)
(0.0369 -0.0813 -7.03e-16)
(-0.0138 -0.0946 0)
(-0.0545 -0.0575 0)
(-0.00448 -0.0815 0)
(0.0392 -0.0825 -6.06e-16)
(0.00223 -0.0978 -2.13e-16)
(0.0197 -0.0426 0)
(-0.00838 -0.023 0)
(0.0221 -0.0444 -4.92e-16)
(0.0615 -0.0712 -1.64e-16)
(0.0376 -0.08 0)
(0.0698 -0.0847 4.51e-16)
(0.0607 -0.0722 -3.63e-16)
(0.0634 -0.0745 3.78e-16)
(-0.0138 -0.0905 4.37e-16)
(0.00603 -0.0801 2.28e-16)
(-0.05 -0.0771 -3.33e-16)
(-0.0269 -0.0607 5.79e-17)
(-0.00517 -0.0827 3.81e-16)
(0.0278 -0.056 -3.94e-16)
(0.0279 -0.042 -1.13e-21)
(0.0382 -0.0767 -4.3e-16)
(0.00169 -0.065 -5.77e-17)
(0.0234 -0.0404 0)
(-0.0324 -0.0819 4.45e-16)
(0.0244 -0.0752 -4.22e-16)
(0.0752 -0.0765 -2.16e-16)
(-0.0408 -0.0863 2.23e-16)
(-0.0266 -0.0819 0)
(-0.0403 -0.0819 0)
(-0.0317 -0.0833 0)
(0.0111 -0.0937 0)
(0.00811 -0.0163 4.18e-16)
(-0.0397 -0.0843 -4.15e-16)
(-0.0406 -0.0695 0)
(0.0338 -0.0634 0)
(-0.00836 -0.0866 -3.74e-16)
(0.0497 -0.0733 4.23e-16)
(-0.035 -0.0686 0)
(-0.0182 -0.0342 5.1e-16)
(-0.0276 -0.0823 0)
(-0.0302 -0.0585 0)
(-0.000228 -0.0623 0)
(0.0159 -0.0311 0)
(-0.0732 -0.0828 1.07e-20)
(-0.0247 -0.0573 4.67e-16)
(-0.00656 -0.0514 0)
(0.0405 -0.0838 4.5e-16)
(-0.0264 -0.0762 0)
(0.0487 -0.0902 0)
(-0.0186 -0.0262 0)
(0.018 -0.0177 0)
(0.014 -0.0283 5e-16)
(-0.0438 -0.0878 -4.18e-16)
(-0.00579 -0.0704 -2.31e-16)
(-0.0197 -0.0885 4.5e-16)
(0.0116 -0.0792 -1.03e-16)
(-0.0155 -0.0153 -1.01e-16)
(0.0512 -0.091 -3.56e-16)
(0.044 -0.0831 5e-16)
(0.0413 -0.0734 5.2e-16)
(-0.0099 -0.0188 -6.38e-18)
(0.0445 -0.08 0)
(-0.000104 -0.0189 2.17e-20)
(-0.0287 -0.0726 5.12e-21)
(-0.000229 -0.0347 -5.03e-16)
(-0.0391 -0.0756 0)
(0.00766 -0.0527 -1.13e-16)
(-0.00559 -0.103 -1.85e-16)
(0.0429 -0.0708 0)
(0.0203 -0.0366 0)
(-0.0243 -0.0416 0)
(-0.014 -0.0283 -5.03e-16)
(-0.0341 -0.0644 0)
(-0.00521 -0.095 -1.03e-16)
(-0.00027 -0.0985 -1.05e-16)
(-0.048 -0.0729 3.85e-16)
(0.0266 -0.0451 5.66e-17)
(-0.00217 -0.0637 2.37e-16)
(-0.0209 -0.0375 0)
(-0.0367 -0.0642 0)
(-0.0215 -0.0661 0)
(0.00528 -0.0958 7.75e-16)
(-0.0486 -0.0782 2.82e-16)
(-0.00498 -0.0379 -3.74e-16)
(0.0249 -0.0299 -1.9e-16)
(-0.0417 -0.0866 1.01e-16)
(-0.0459 -0.0903 4.36e-16)
(-0.00106 -0.036 -5.06e-16)
(0.0449 -0.089 -4.32e-16)
(0.0379 -0.0706 0)
(0.0381 -0.049 4.81e-16)
(-0.0361 -0.0682 0)
(-0.0241 -0.0416 0)
(-0.00144 -0.111 2e-16)
(0.00287 -0.0419 9.58e-16)
(-0.0028 -0.0413 -7.66e-16)
(-0.0381 -0.0709 0)
(0.0355 -0.0674 0)
(0.0059 -0.0395 -3.69e-16)
(0.00904 -0.0993 -9.8e-16)
(0.0136 -0.042 -2.38e-16)
(-0.0041 -0.108 0)
(-0.000982 -0.104 -3.16e-16)
(0.039 -0.075 0)
(-0.0442 -0.0803 0)
(-0.0451 -0.0536 0)
(0.046 -0.0907 4.45e-16)
(-0.0224 -0.0255 0)
(-0.0196 -0.0456 4.74e-16)
(-0.0469 -0.0922 -4.28e-16)
(-0.0375 -0.0796 -1.39e-17)
(0.00246 -0.107 1.03e-16)
(-0.0328 -0.0664 -2.37e-16)
(0.00137 -0.0726 0)
(-0.0416 -0.08 -4.51e-16)
(0.0409 -0.079 4.52e-16)
(-0.0446 -0.0906 4.42e-16)
(-0.0111 -0.0239 -5.16e-16)
(0.0437 -0.0893 2.26e-16)
(-0.0372 -0.0722 0)
(0.0238 -0.0502 -4.66e-16)
(0.0227 -0.0427 0)
(-0.0221 -0.0412 0)
(-0.024 -0.0503 9.38e-16)
(2.79e-05 -0.115 -1.01e-16)
(0.00264 -0.0253 3.89e-20)
(-0.00209 -0.0249 1.98e-16)
(-0.000308 -0.019 3.99e-16)
(-0.00939 -0.023 -4.05e-16)
(0.0046 -0.0224 -2.04e-16)
(-0.00807 -0.0162 -4.15e-16)
(0.023 -0.0726 0)
(-0.0234 -0.0738 0)
(0.0164 -0.0263 1.44e-16)
(0.0124 -0.0237 0)
(-0.0127 -0.0238 0)
(0.0158 -0.0938 1.64e-16)
(0.0194 -0.0453 0)
(-0.0112 -0.0204 0)
(0.0112 -0.0194 0)
(-0.00141 -0.113 -4.09e-16)
(-0.019 -0.0356 0)
(-0.00137 -0.0217 7.77e-16)
(0.00902 -0.018 0)
(-0.00961 -0.0181 -4.02e-16)
(-0.00358 -0.0401 9.41e-16)
(-0.0135 -0.0218 0)
(-0.00186 -0.0998 -1.02e-16)
(0.00141 -0.11 1.01e-16)
(-0.0359 -0.0835 0)
(0.00675 -0.0666 0)
(0.00702 -0.0203 -4.03e-18)
(0.000569 -0.0181 0)
(0.0269 -0.0809 4.43e-16)
(-0.000415 -0.0356 5.01e-16)
(-0.0516 -0.0923 -6.84e-16)
(0.0133 -0.024 0)
(0.00404 -0.0394 5.05e-16)
(0.0111 -0.0238 5.12e-16)
(-0.0118 -0.0211 4.08e-16)
(0.000783 -0.0217 -7.95e-16)
(0.0011 -0.0389 5.36e-16)
(-0.0329 -0.0718 3.42e-16)
(0.0292 -0.0629 8.47e-16)
(0.0138 -0.0404 0)
(0.00491 -0.0116 -4.13e-16)
(-0.000918 -0.02 -4.08e-16)
(0.00213 -0.00918 0)
(-0.00215 -0.00925 0)
(-0.0323 -0.0796 -4.31e-16)
(0.0188 -0.052 0)
(-0.000238 -0.117 -2.96e-16)
(0.00636 -0.104 -2.17e-16)
(-0.00106 -0.115 -5.97e-16)
(-0.00241 -0.089 2.31e-16)
(-0.00493 -0.0116 0)
(-0.0229 -0.042 0)
(-0.000958 -0.107 -5.23e-16)
(0.0216 -0.0408 0)
(-0.0019 -0.11 9.01e-16)
(0.000311 -0.116 0)
(0.00289 -0.11 -1.01e-16)
(-0.000818 -0.115 2.03e-16)
(-0.016 -0.0312 -4.9e-16)
(0.00677 -0.0137 -8.18e-16)
(-0.00678 -0.0137 4.12e-16)
(-0.000486 -0.0148 0)
(0.000182 -0.0344 -5.01e-16)
(0.0225 -0.0676 0)
(-0.0368 -0.0822 1.37e-17)
(-0.00395 -0.102 1.85e-16)
(-0.0132 -0.023 0)
(0.000397 -0.0179 0)
(0.000972 -0.0362 6.19e-17)
(0.0115 -0.0209 -4.08e-16)
(0.0261 -0.0807 -1.09e-15)
(-0.000168 -0.0363 1.14e-16)
(0.000327 -0.0367 -4.46e-16)
(-0.00126 -0.098 5.37e-16)
(-0.023 -0.069 0)
(1.01e-05 -0.0211 3.97e-16)
(-2.96e-05 -0.0179 0)
(0.000645 -0.0209 0)
(6.24e-06 -0.0221 7.52e-16)
(0.0259 -0.0751 4.36e-16)
(-0.00187 -0.0763 -1.03e-15)
(-0.000443 -0.118 -3.92e-16)
(-0.00044 -0.118 0)
(0.0243 -0.0569 2.36e-16)
(-0.000851 -0.116 2.96e-16)
(-0.000407 -0.119 -6.25e-16)
(-0.0191 -0.0525 0)
(-0.000587 -0.114 4.06e-16)
(0.00119 -0.11 4.19e-16)
(-0.0341 -0.0766 0)
(-0.00709 -0.0205 0)
(-0.014 -0.0408 0)
(-0.000878 -0.106 -5.02e-16)
(-0.0294 -0.0623 -4.72e-16)
(4.68e-05 -0.117 8.15e-16)
(-0.00266 -0.11 1.04e-16)
(0.000554 -0.103 -3.25e-16)
(-0.00502 -0.105 4.14e-16)
(0.000407 -0.113 -1.92e-16)
(-0.0493 -0.0915 4.1e-16)
(-0.032 -0.0609 0)
(0.043 -0.0865 0)
(9.72e-05 -0.114 7.52e-16)
(-0.00988 -0.0975 1.06e-16)
(-0.0557 -0.0906 -1.63e-16)
(-0.000253 -0.118 1.99e-16)
(0.000747 -0.104 -4.08e-16)
(-0.0277 -0.0554 7.03e-16)
(-7.23e-05 -0.113 2.06e-16)
(0.00517 -0.104 -1.9e-16)
(0.000889 -0.103 -4.25e-16)
(-0.00045 -0.0763 0)
(-0.00234 -0.0903 0)
(0.00196 -0.108 -2.07e-16)
(0.00181 -0.113 3.06e-16)
(-0.000848 -0.116 2.95e-16)
(-0.000754 -0.0658 4.22e-16)
(-0.000161 -0.117 2.99e-16)
(0.0497 -0.0663 -1.2e-16)
(0.0275 -0.0774 2.37e-16)
(-0.00807 -0.0185 -4.11e-16)
(0.00769 -0.0176 1.04e-16)
(-0.00892 -0.0201 4.06e-16)
(0.00901 -0.02 0)
(0.00918 -0.0191 4.14e-16)
(-0.00934 -0.0194 2.07e-16)
(-0.0017 -0.103 -2.03e-16)
(0.00987 -0.0224 0)
(-0.0101 -0.0234 0)
(2.67e-05 -0.116 -2.99e-16)
(-0.0116 -0.0243 -4e-16)
(0.0141 -0.026 0)
(-0.0143 -0.0266 0)
(-0.00134 -0.113 -3.23e-16)
(-0.0119 -0.0111 0)
(-0.000105 -0.117 1.01e-16)
(0.00785 -0.0192 4.59e-16)
(-0.000342 -0.117 -1.04e-16)
(0.000561 -0.0962 -4.38e-16)
(-0.00136 -0.115 1.04e-16)
(0.0396 -0.0782 4.35e-16)
(0.00729 -0.101 1.83e-16)
(-0.0326 -0.0298 0)
(0.036 -0.0786 0)
(-0.0332 -0.0217 -5.06e-17)
(-0.0524 -0.054 4.22e-16)
(0.0304 -0.0828 -2.2e-16)
(-0.0765 -0.0851 -2.26e-16)
(0.0329 -0.0202 3.87e-16)
(-0.00874 -0.101 -1.05e-16)
(-0.0156 -0.0356 -5.21e-16)
(0.0154 -0.0345 3.72e-16)
(-0.0258 -0.05 -4.81e-16)
(-0.00128 -0.081 -3.72e-16)
(0.0161 -0.0362 -2.59e-16)
(-0.0163 -0.0366 0)
(0.00346 -0.107 -5.09e-16)
(0.00145 -0.111 3e-16)
(-0.000986 -0.104 6.18e-16)
(-0.00162 -0.0194 -5.31e-16)
(-0.0199 -0.0434 4.84e-16)
(-0.0224 -0.0443 0)
(0.0142 -0.0333 -3.2e-16)
(0.00421 -0.0812 1.84e-16)
(0.0152 -0.0813 0)
(0.00978 -0.0917 4.36e-16)
(0.0282 -0.0718 -2.12e-16)
(-0.0797 -0.0775 3.82e-16)
(0.0102 -0.0535 2.24e-16)
(0.0619 -0.0447 3.79e-18)
(-0.000302 -0.0987 5.48e-16)
(0.00545 -0.0716 4.67e-16)
(-0.00104 -0.0313 5.21e-16)
(-0.0748 -0.0793 -7.55e-16)
(0.00111 -0.0334 -4.74e-16)
(-0.00616 -0.0368 2.49e-16)
(-0.0106 -0.0785 3.39e-16)
(-0.0126 -0.0847 0)
(-0.00814 -0.0896 0)
(0.073 -0.0603 0)
(-0.0236 -0.0679 6.84e-16)
(0.00871 -0.101 -5.26e-16)
(0.0221 -0.089 -4.3e-16)
(-0.00833 -0.0778 -8.79e-16)
(-0.0373 -0.0799 1.08e-16)
(-0.00284 -0.094 5.39e-21)
(-0.0274 -0.073 -9.02e-16)
(-0.0338 -0.0765 -1.09e-16)
(0.0144 -0.0953 1.05e-16)
(0.0322 -0.0705 -4.79e-16)
(-0.0326 -0.0719 -2.41e-16)
(0.041 -0.0862 0)
(-0.00777 -0.0955 1.04e-16)
(-0.0378 -0.0828 5.63e-17)
(0.000111 -0.0176 -1.81e-20)
(0.0413 -0.0841 0)
(-0.0399 -0.0821 5.85e-16)
(-0.0358 -0.0811 0)
(0.0313 -0.0804 -2.27e-16)
(0.0138 -0.0405 6.39e-16)
(-0.00623 -0.089 -4.86e-16)
(0.00788 -0.0224 -3.82e-16)
(0.0307 -0.082 0)
(-0.065 -0.0875 0)
(0.00127 -0.113 -2.02e-16)
(0.047 -0.0525 -1.15e-16)
(0.0114 -0.0837 0)
(-0.00875 -0.0205 -2e-16)
(0.0362 -0.0816 -2.21e-16)
(0.0316 -0.0688 0)
(-0.0282 -0.0863 -4.3e-16)
(0.0209 -0.0648 0)
(-0.0155 -0.093 4.39e-16)
(-0.0258 -0.0864 -3.37e-16)
(0.0036 -0.0958 0)
(0.00994 -0.0829 2.35e-16)
(0.000259 -0.0774 0)
(-0.0602 -0.0913 0)
(-0.00448 -0.109 4.24e-16)
(-0.000516 -0.0619 -3.61e-16)
(-0.0542 -0.0718 -4.31e-16)
(-0.0445 -0.0655 6.11e-16)
(0.000711 -0.0172 0)
(-0.042 -0.0852 1.15e-16)
(-0.0109 -0.082 0)
(-0.0369 -0.0807 1.35e-21)
(0.00968 -0.0814 1.79e-16)
(-0.0432 -0.0889 -4.18e-16)
(-0.00145 -0.0642 0)
(-0.00554 -0.0639 -7.48e-18)
(0.0363 -0.0649 2.17e-16)
(0.000515 -0.109 6.47e-16)
(-0.0585 -0.0756 0)
(0.0172 -0.0641 4.66e-16)
(-0.025 -0.0281 2.39e-16)
(-0.0141 -0.0968 -1.65e-16)
(0.0143 -0.0383 -2.91e-16)
(-0.00222 -0.113 1.04e-16)
(0.0508 -0.0798 -1.42e-20)
(-0.0154 -0.0399 0)
(0.0248 -0.0269 -2.45e-16)
(-0.0117 -0.0992 2.19e-16)
(0.0335 -0.0761 -6.78e-16)
(0.000542 -0.0912 -4.82e-16)
(-0.00113 -0.0178 0)
(-0.0125 -0.0166 0)
(-0.0099 -0.0756 2.28e-16)
(-0.000586 -0.102 -4.46e-16)
(0.0361 -0.0794 2.15e-16)
(0.0348 -0.0819 4.53e-16)
(0.0104 -0.0135 2e-16)
(0.0194 -0.0257 9.84e-17)
(0.0484 -0.0565 1.93e-16)
(0.000482 -0.0932 0)
(0.00307 -0.11 2.11e-16)
(-0.0757 -0.0791 -3.24e-16)
(-0.000796 -0.11 -9.98e-16)
(-0.00912 -0.0815 1.82e-16)
(0.0262 -0.0712 2.34e-16)
(-3.09e-05 -0.0929 3.39e-16)
(-0.00213 -0.0407 0)
(-0.0164 -0.0885 0)
(-0.0532 -0.0841 -2.15e-16)
(0.00223 -0.041 -1.84e-16)
(-0.0699 -0.0871 5.33e-17)
(0.0315 -0.0786 2.7e-17)
(0.0174 -0.0906 5.63e-17)
(-0.00994 -0.0982 -2.17e-16)
(-0.015 -0.0352 5.07e-16)
(-0.00153 -0.0713 2.39e-16)
(-0.0387 -0.084 2.16e-16)
(-0.00672 -0.0782 1.77e-16)
(0.00638 -0.0788 0)
(0.0405 -0.0853 -2.28e-16)
(-0.00565 -0.105 -4.3e-16)
(0.0239 -0.0608 0)
(0.00259 -0.0992 6.4e-16)
(-0.0692 -0.0739 1.23e-16)
(-0.0157 -0.0897 0)
(-0.0266 -0.0598 2.5e-16)
(0.00919 -0.0937 0)
(-0.0254 -0.063 4.69e-16)
(-0.02 -0.0895 0)
(0.00107 -0.0769 4.36e-16)
(0.0392 -0.0647 0)
(0.00136 -0.0615 -4.74e-16)
(-0.0278 -0.0646 -2.6e-16)
(-0.0328 -0.072 -6.05e-17)
(0.000265 -0.0361 -4.73e-16)
(0.0395 -0.0824 2.33e-16)
(0.0276 -0.0635 0)
(0.000847 -0.0709 0)
(0.0213 -0.0895 4.47e-16)
(0.000539 -0.101 -3.18e-16)
(0.0271 -0.0494 -3.78e-16)
(-0.00145 -0.112 1.05e-16)
(0.0247 -0.0571 0)
(0.0349 -0.0763 2.48e-16)
(0.00132 -0.0896 -6.05e-16)
(-1.13e-05 -0.0723 3.11e-16)
(0.00563 -0.0687 -2.44e-16)
(0.0531 -0.0742 1.12e-16)
(-0.00469 -0.0735 2.47e-16)
(0.0312 -0.0471 0)
(0.0427 -0.0874 0)
(-0.00217 -0.0359 -4.64e-16)
(0.000307 -0.0939 0)
(0.0214 -0.0864 5.19e-16)
(-0.0248 -0.0373 -2.57e-16)
(0.000914 -0.0578 0)
(-0.031 -0.0688 -3.06e-16)
(-0.0489 -0.0576 -2.95e-17)
(-0.0119 -0.066 4.97e-16)
(0.013 -0.0672 8.72e-20)
(0.0147 -0.0884 -2.87e-17)
(0.0257 -0.0382 0)
(0.0284 -0.064 2.59e-16)
(0.0125 -0.0749 0)
(-0.000895 -0.0952 -2.29e-16)
(0.000399 -0.0721 0)
(-0.0515 -0.0713 0)
(0.063 -0.0761 -1.11e-16)
(0.0284 -0.0672 2.41e-16)
(0.0674 -0.0612 3.13e-17)
(-0.0414 -0.0829 -1.25e-16)
(0.0342 -0.0787 -2.17e-16)
(-0.0514 -0.0754 1.14e-16)
(0.0481 -0.0633 -1.24e-16)
(-0.00623 -0.106 -1.07e-16)
(0.055 -0.0899 -2.92e-16)
(-0.00083 -0.111 1.23e-16)
(0.00105 -0.0918 1.2e-16)
(-0.0121 -0.0929 6.31e-17)
(-0.0148 -0.0942 0)
(-0.0305 -0.0483 0)
(0.0249 -0.0558 -5.44e-16)
(-0.0209 -0.0857 0)
(0.0217 -0.0863 -2.34e-16)
(0.000822 -0.0872 0)
(0.016 -0.0873 2.39e-16)
(-0.00995 -0.0987 1.6e-16)
(-0.023 -0.0871 -2.56e-16)
(0.0225 -0.087 -2.56e-16)
(-0.0374 -0.0813 2.36e-16)
(-0.0584 -0.0718 0)
(0.0572 -0.0504 -1.75e-16)
(-0.00979 -0.0909 -5e-16)
(-0.0707 -0.0768 1.25e-16)
(0.000681 -0.0891 0)
(-0.0676 -0.0803 2.58e-16)
(-0.058 -0.0656 0)
)
;

boundaryField
{
    front
    {
        type            empty;
    }
    back
    {
        type            empty;
    }
    bottom
    {
        type            zeroGradient;
    }
    left
    {
        type            noSlip;
    }
    top
    {
        type            uniformFixedValue;
        uniformValue    
        {
            type            table;
            format          csv;
            file            "inlet_v.csv";
            nHeaderLine     1;
            refColumn       0;
            componentColumns List<label> 3(1 2 3);
            separator       ",";
            mergeSeparators 0;
        }
        value           uniform (0 -0.08 0);
    }
    right
    {
        type            noSlip;
    }
    inner_arc
    {
        type            noSlip;
    }
}


// ************************************************************************* //
