/*--------------------------------*- C++ -*----------------------------------*\
  =========                 |
  \\      /  F ield         | OpenFOAM: The Open Source CFD Toolbox
   \\    /   O peration     | Website:  https://openfoam.org
    \\  /    A nd           | Version:  9
     \\/     M anipulation  |
\*---------------------------------------------------------------------------*/
FoamFile
{
    format      ascii;
    class       surfaceScalarField;
    location    "1.62";
    object      phi;
}
// * * * * * * * * * * * * * * * * * * * * * * * * * * * * * * * * * * * * * //

dimensions      [0 3 -1 0 0 0 0];

internalField   nonuniform List<scalar> 
2420
(
5.14042e-07
-4.26236e-07
-8.78069e-08
-3.43358e-07
3.43358e-07
3.83984e-07
-4.6051e-08
-3.37933e-07
2.00259e-07
-2.00259e-07
-6.80455e-07
2.63089e-07
4.17366e-07
2.17108e-07
-2.44081e-07
2.69734e-08
3.5147e-07
3.25147e-08
-9.84966e-07
9.15732e-08
8.93393e-07
1.70015e-06
-2.02329e-06
3.23137e-07
-5.21118e-07
-1.59337e-07
-3.02456e-07
1.20707e-08
2.90385e-07
-3.00783e-07
-1.67278e-09
-9.84966e-07
-1.36119e-07
9.73835e-08
3.87353e-08
-1.45829e-07
5.25571e-07
-3.79742e-07
-3.48471e-07
-2.24136e-07
5.72608e-07
1.18323e-06
-2.53399e-07
-9.29828e-07
5.1808e-07
-9.70016e-07
4.51936e-07
-1.20509e-07
1.01706e-07
1.88024e-08
-7.82276e-08
-5.78912e-08
8.36226e-08
3.75106e-07
-4.58729e-07
-8.40396e-08
-5.94463e-07
8.14192e-07
-2.19728e-07
-7.65599e-07
1.71135e-07
3.31283e-07
1.82759e-07
4.30168e-07
7.53059e-07
-1.04496e-07
-2.43976e-07
-6.53354e-07
-1.15775e-06
1.8111e-06
-1.46858e-06
8.15225e-07
2.37496e-07
-7.89593e-08
-1.58537e-07
-7.89639e-07
-2.17668e-07
1.00731e-06
-2.52918e-08
1.357e-07
-1.10409e-07
-4.83559e-07
4.15829e-07
6.77299e-08
-4.26334e-07
4.00932e-07
2.54016e-08
-5.4206e-07
1.06014e-06
-1.9004e-07
-2.36293e-07
5.99301e-08
1.57178e-07
-1.14565e-07
-2.28793e-07
-8.63243e-08
-3.97235e-07
-1.6391e-09
3.44997e-07
3.43879e-07
-2.60256e-07
7.10062e-07
8.10499e-08
-7.91112e-07
2.87402e-07
-3.73727e-07
-6.48919e-08
4.71872e-08
1.77047e-08
5.39619e-10
2.06328e-07
-2.06867e-07
5.54628e-08
1.44797e-07
-1.53403e-07
-4.68562e-08
-2.16432e-08
2.21828e-08
-2.49961e-07
4.22699e-07
-1.72738e-07
-9.54932e-08
3.82896e-07
-1.36388e-07
-1.07693e-07
-7.13428e-08
-4.78868e-07
3.33038e-07
-1.21748e-06
-8.05806e-07
4.82249e-07
2.05829e-09
-4.84308e-07
1.22814e-07
5.02939e-08
-1.73108e-07
5.64659e-08
-2.95638e-07
2.39172e-07
5.52954e-08
-4.32247e-08
-4.76601e-08
2.73378e-08
2.03223e-08
5.75863e-07
-4.53048e-07
8.27954e-08
-8.72434e-07
1.29968e-07
-1.43078e-07
1.31098e-08
-4.95982e-07
6.97461e-08
-1.13916e-06
1.23073e-06
-9.50218e-08
6.10902e-08
3.39316e-08
-4.94276e-07
2.76608e-07
-1.37404e-08
1.14919e-08
2.24858e-09
-8.43659e-08
3.36519e-08
5.0714e-08
5.30842e-07
-1.0729e-06
-5.5537e-08
-2.90705e-08
-1.42807e-07
4.87415e-07
-2.80569e-07
-2.06846e-07
1.6483e-07
3.60741e-07
5.01107e-07
1.60414e-07
-6.61521e-07
3.57751e-08
-1.15377e-07
7.96017e-08
-1.396e-06
-7.2574e-08
-4.55492e-07
9.86334e-07
4.00345e-07
-7.59998e-08
3.13496e-07
-9.02168e-09
-8.60001e-08
-2.62436e-08
6.20187e-08
5.50265e-07
-6.80156e-08
-7.38143e-08
8.92231e-09
-5.6834e-08
3.56569e-07
-2.99735e-07
5.00344e-07
-5.98703e-07
9.83593e-08
6.88026e-07
-1.86919e-07
2.997e-07
1.87716e-07
1.01665e-06
-3.5677e-07
-6.59885e-07
-3.03541e-07
-1.6687e-07
4.70411e-07
-5.26355e-07
2.22814e-07
-1.95607e-07
-1.42326e-07
-8.24683e-08
-3.80405e-08
6.14484e-08
-3.11409e-07
7.75262e-08
1.39396e-07
-2.16922e-07
2.53953e-08
7.63111e-08
-5.20221e-08
3.82817e-08
-2.49793e-08
-2.26808e-08
8.7154e-08
4.85464e-08
-4.55347e-07
6.56394e-08
3.89708e-07
1.18326e-07
-3.13933e-07
-7.26484e-08
9.86114e-08
-2.5963e-08
2.34259e-07
1.88441e-07
-5.02104e-08
-2.2438e-08
2.14073e-07
-3.13623e-07
9.95493e-08
4.2163e-08
8.78049e-08
-1.45642e-06
3.705e-07
1.08592e-06
2.72717e-08
-1.06231e-07
-1.38238e-07
-3.17109e-07
1.99303e-07
-1.4901e-07
2.56735e-08
-3.43219e-07
3.17546e-07
-8.91149e-08
-2.11669e-07
2.22793e-07
-2.34895e-08
3.18377e-07
-3.75211e-07
1.37888e-06
-2.53145e-07
-1.12573e-06
-2.60115e-08
-1.17817e-06
-2.78255e-07
8.28006e-08
3.64868e-07
6.51786e-07
2.05313e-07
8.76058e-09
2.25771e-07
-2.97851e-09
8.72846e-08
-8.16994e-07
7.29709e-07
-3.35675e-08
-8.06352e-07
8.3992e-07
-5.29977e-08
-4.77782e-07
5.3078e-07
-5.05113e-08
-1.51087e-09
-1.13056e-06
2.91315e-07
8.39244e-07
-3.38067e-07
2.42573e-07
-7.17575e-08
1.49284e-07
-5.47669e-07
3.23533e-07
1.1153e-07
-3.74e-07
2.62471e-07
4.6537e-07
-1.99808e-07
-2.65562e-07
-3.28205e-07
3.53878e-07
-1.44618e-06
3.07027e-07
-7.15517e-07
-4.15042e-07
-5.46824e-08
5.46824e-08
-6.18459e-07
-8.3919e-09
6.26851e-07
-4.67043e-07
-2.31548e-07
6.9859e-07
-4.78868e-07
-2.95638e-07
-4.50644e-08
5.65563e-08
5.75863e-07
1.34676e-07
-2.39172e-07
-1.34676e-07
-1.9317e-07
3.27846e-07
-1.14683e-07
4.95359e-07
-3.80675e-07
-1.20706e-07
9.29828e-07
-8.09122e-07
-4.95359e-07
5.82643e-07
-3.94396e-07
3.80675e-07
1.37207e-08
-2.27277e-07
4.53048e-07
-2.13556e-07
2.27277e-07
-1.37207e-08
-7.92286e-07
8.91815e-07
-9.95292e-08
7.92286e-07
-7.0949e-07
-8.91815e-07
8.09122e-07
8.26928e-08
-5.82643e-07
7.43058e-07
-7.43058e-07
7.0949e-07
-4.4102e-07
-1.57684e-07
-5.05561e-08
-2.87511e-07
4.6537e-08
1.45532e-08
-1.39082e-07
7.0755e-07
-5.68468e-07
2.0071e-07
-5.92321e-08
-5.33478e-07
-5.62023e-07
-7.51378e-07
1.3134e-06
-1.67069e-06
4.53206e-07
6.3314e-07
7.44102e-08
5.18456e-07
3.3956e-08
-5.89353e-08
-1.96355e-06
9.47456e-07
-1.2006e-06
4.81001e-08
3.63286e-07
-8.18778e-07
8.8792e-07
-1.14132e-06
-7.55922e-07
-4.71203e-08
8.03042e-07
-3.49286e-07
1.3573e-07
-1.55709e-06
3.36764e-07
1.22032e-06
-1.18659e-06
1.2726e-07
3.3811e-07
-2.56372e-07
6.19657e-07
-1.46562e-07
4.98754e-07
-3.52192e-07
-3.69861e-08
-4.12414e-08
-3.39979e-07
-5.78363e-07
-1.77559e-07
2.34767e-08
-1.59865e-07
-2.98392e-07
2.45394e-07
-8.81041e-08
-2.37347e-07
3.25451e-07
-3.79468e-07
-1.9833e-07
5.77797e-07
8.28315e-08
-1.09075e-07
-5.2603e-07
6.267e-07
-2.87479e-08
-5.97952e-07
-7.06063e-07
1.277e-07
2.76328e-07
-7.00001e-08
-8.19972e-08
-6.10805e-08
-3.76887e-07
-2.03557e-07
5.80444e-07
-1.12138e-07
4.07949e-08
-3.63438e-07
-2.12595e-07
5.76033e-07
-2.74107e-08
2.49813e-07
-5.61767e-07
2.39355e-07
-5.96125e-07
-3.42745e-07
-3.63317e-07
-1.79653e-08
-6.49278e-08
8.28932e-08
6.99306e-08
-8.7896e-08
-5.9614e-07
2.20026e-08
5.74138e-07
9.45007e-08
2.80606e-07
-3.96572e-07
4.177e-07
-2.11282e-08
5.25077e-07
-7.28634e-07
-2.87784e-07
3.99313e-07
4.6912e-07
-6.81876e-08
1.31461e-07
-6.99002e-07
5.67541e-07
3.32924e-07
-4.45061e-07
-6.20098e-07
1.23877e-06
6.54207e-08
-1.02407e-07
5.41641e-08
-9.92285e-08
2.98537e-07
-4.88578e-07
-1.15243e-06
5.90402e-07
5.53568e-07
1.59452e-07
-7.13021e-07
2.6742e-07
-6.10165e-07
6.11883e-08
-1.59029e-07
3.93524e-07
2.23052e-08
-8.79469e-07
6.86322e-07
1.93146e-07
-3.04791e-09
5.09395e-07
-3.27177e-07
-1.82218e-07
1.07771e-07
4.01624e-07
-3.73326e-07
-7.5032e-07
5.05552e-07
2.44768e-07
-4.36471e-07
-3.13849e-07
-3.66045e-07
2.5285e-07
1.13195e-07
-8.64707e-07
3.56085e-07
5.08623e-07
-3.04198e-07
-5.6051e-07
6.29353e-07
3.56981e-07
3.79152e-07
3.85483e-08
-3.32073e-07
-3.39717e-08
-5.39772e-07
5.98332e-07
-7.32549e-08
-3.66262e-07
4.74033e-07
-7.95278e-07
2.9967e-07
4.95608e-07
-2.41619e-07
-1.86698e-07
9.85939e-08
-4.32494e-07
-3.62784e-07
-1.07357e-07
1.62039e-07
-5.49452e-07
-3.30017e-07
-2.06139e-07
3.93855e-07
1.06711e-06
-4.62389e-07
-6.04716e-07
-1.17401e-06
-4.96679e-07
2.0977e-07
9.53742e-07
5.56629e-08
-8.47564e-09
-1.57742e-07
-1.36827e-08
1.71425e-07
4.64385e-07
-3.49079e-08
4.1406e-07
-1.45433e-07
-5.27535e-08
5.08405e-07
-4.55651e-07
-8.27162e-07
2.7771e-07
-5.88506e-07
3.32134e-07
3.68805e-07
-3.46499e-07
3.35598e-07
-1.33815e-06
1.00256e-06
3.30465e-07
1.68289e-07
2.80408e-07
1.21216e-07
-2.85609e-07
-1.78887e-08
-1.39853e-07
1.2258e-06
-1.13683e-06
-8.89668e-08
3.95409e-07
-2.66049e-08
1.52939e-07
-2.03495e-07
4.10108e-07
-4.13156e-07
2.01113e-07
2.31031e-08
-2.24216e-07
3.33038e-07
8.62063e-07
-2.3271e-07
8.96297e-08
-2.24887e-07
5.55352e-07
7.38076e-07
-3.81095e-07
2.36018e-07
6.26044e-07
7.33605e-07
3.335e-07
-3.47608e-07
-4.79554e-07
1.49316e-07
1.67352e-07
-3.16668e-07
1.10666e-06
-4.84056e-08
-1.05826e-06
-3.99129e-07
5.04865e-07
-1.05736e-07
1.10855e-06
-1.12714e-06
1.8591e-08
-4.69384e-07
7.05402e-07
6.28901e-08
-5.41758e-07
2.76958e-07
-2.14068e-07
-7.00485e-08
6.96093e-07
4.69053e-07
1.11391e-07
4.39864e-07
-3.80602e-07
-5.9262e-08
3.74281e-07
8.2743e-07
-7.98683e-07
1.33599e-07
-7.59982e-08
3.78071e-07
-3.02073e-07
1.02498e-06
-1.0721e-06
2.54797e-07
3.43535e-07
3.16914e-07
1.26838e-07
-4.43752e-07
8.93393e-07
-2.07469e-07
1.62039e-07
4.07518e-07
-3.84895e-07
-2.26228e-08
-4.34434e-07
4.07107e-07
2.73268e-08
-3.80717e-08
9.95201e-08
-3.80717e-08
-4.08782e-07
2.51045e-07
1.57737e-07
6.70495e-07
-3.90086e-07
-4.91712e-07
3.60339e-07
1.31374e-07
-3.5291e-07
5.6268e-07
1.61192e-07
-4.09454e-07
2.48262e-07
-8.09896e-08
7.51484e-07
-4.25353e-07
-1.50682e-07
5.76035e-07
-1.02671e-06
9.06001e-07
-1.09292e-06
1.42851e-06
1.00065e-07
4.15989e-07
3.27306e-07
1.00664e-06
-1.08763e-06
-4.56586e-07
4.03833e-07
-2.98496e-07
2.22498e-07
5.42982e-09
-9.18677e-08
-8.46051e-08
1.22116e-07
-1.44797e-07
1.22116e-07
-2.8284e-08
1.18512e-07
3.89893e-07
2.88522e-07
-2.33656e-07
-5.4866e-08
-4.03311e-07
3.68403e-07
4.54926e-07
5.57312e-08
-5.57312e-08
4.12032e-07
1.50648e-07
-4.72156e-07
6.27015e-08
5.26003e-07
-5.19695e-08
8.78757e-08
2.00646e-07
3.51466e-07
-3.40605e-07
4.61821e-07
-5.45411e-07
-4.29259e-07
-3.28961e-07
5.43493e-08
2.74611e-07
2.68692e-07
-8.12496e-07
3.76024e-07
-5.41758e-07
-7.79161e-08
4.87176e-07
5.35207e-07
3.31142e-07
2.24211e-07
6.3139e-07
-6.3139e-07
3.05833e-07
-2.8383e-07
-4.56411e-07
-4.54086e-07
3.69481e-07
1.04217e-06
-1.23882e-06
1.96646e-07
1.30332e-06
-2.96674e-07
-2.86256e-07
6.28342e-08
3.98987e-07
-3.16449e-07
4.16875e-07
-1.00426e-07
1.05733e-06
2.74286e-07
-1.33162e-06
3.41047e-08
-2.90298e-08
-3.5154e-07
1.39371e-06
8.6767e-07
-7.0046e-07
-1.6721e-07
-2.47738e-07
2.47738e-07
-2.07515e-07
-5.01072e-07
5.01072e-07
-1.55239e-07
2.56116e-07
-4.80582e-08
-2.08057e-07
7.36584e-08
-7.36584e-08
-4.15538e-07
-1.57029e-07
1.57029e-07
-1.58403e-07
-8.14318e-07
9.72722e-07
3.85474e-07
-3.85474e-07
-6.81863e-08
6.9793e-07
-2.24897e-07
-4.73033e-07
9.60516e-07
3.15685e-07
-6.28352e-08
-4.68473e-07
3.68502e-07
-2.55306e-07
1.05658e-06
-1.88913e-07
9.7544e-07
-1.06441e-06
-9.96446e-07
2.95986e-07
1.7644e-07
3.10736e-07
-2.13841e-07
1.14492e-06
6.92672e-08
2.80049e-07
1.35916e-07
1.56369e-07
3.06624e-07
-7.90734e-10
2.84313e-07
4.13617e-07
-1.00573e-06
-6.63648e-08
1.4262e-07
1.31992e-07
-1.48013e-07
1.29293e-06
1.18522e-06
-1.48189e-06
-1.52555e-06
-5.32203e-07
-3.65421e-07
8.97623e-07
3.03442e-07
-3.4856e-07
4.51178e-08
3.40359e-07
7.16224e-07
-1.01048e-06
-1.16659e-07
9.92307e-08
1.56146e-07
-2.55377e-07
3.39789e-07
7.42705e-08
-8.78034e-07
1.73423e-07
1.33201e-07
-1.14565e-07
3.30304e-07
-5.55201e-07
-2.52193e-07
2.52193e-07
-1.04153e-06
5.37811e-07
5.03721e-07
-3.87249e-07
-6.09197e-07
4.29535e-07
3.71349e-07
-3.15593e-08
-1.0235e-06
2.44505e-07
7.78993e-07
7.57085e-08
-8.78825e-07
5.74628e-07
-1.15796e-06
7.70708e-07
-1.41001e-06
1.26199e-06
3.38325e-07
-8.70527e-07
-7.01174e-07
-1.76365e-07
1.63676e-07
1.26884e-08
-2.24789e-07
-1.18515e-06
-1.2318e-07
1.30833e-06
2.1041e-07
5.45148e-07
-7.55558e-07
-5.79155e-07
5.41607e-07
3.60062e-07
-5.24398e-07
8.85136e-07
-3.60737e-07
-3.63332e-07
1.71074e-07
-2.34858e-07
6.37835e-08
7.68486e-08
2.60035e-07
5.33099e-08
-3.13345e-07
-4.85687e-07
-2.85671e-07
-1.32554e-06
1.61121e-06
1.44015e-07
1.12101e-07
4.46863e-07
1.27274e-07
-1.51495e-07
1.51495e-07
-1.12324e-06
1.36775e-06
2.76621e-07
4.93319e-07
-7.69941e-07
-8.68065e-08
2.60229e-07
1.11462e-06
-1.33941e-06
-9.50563e-07
3.41366e-07
-1.40891e-06
-7.67753e-07
3.96113e-07
3.7164e-07
1.95879e-07
-3.76114e-07
-3.91639e-07
-1.44734e-08
-8.33465e-07
3.09067e-07
-1.60548e-07
1.22125e-06
-1.0607e-06
5.39419e-07
2.41378e-07
-7.80797e-07
-8.34686e-07
6.67476e-07
-2.94046e-07
-6.75045e-07
3.36975e-08
6.41348e-07
9.42943e-07
-3.9077e-07
-5.52173e-07
-3.35129e-08
-9.1705e-07
5.09022e-07
-5.29037e-09
-9.17748e-07
1.44617e-06
-5.28425e-07
-3.98424e-07
-1.1064e-06
9.45854e-07
-4.3916e-07
7.77484e-07
-2.25161e-07
1.08111e-06
5.71047e-07
-1.55661e-07
-4.15387e-07
7.36035e-07
7.10139e-07
1.64741e-06
-9.11379e-07
1.78652e-07
1.37033e-07
6.93394e-08
1.11186e-06
-1.3168e-07
-9.80181e-07
5.20206e-07
1.12721e-06
1.59087e-06
-1.07067e-06
-1.17292e-07
-1.42172e-06
1.53901e-06
-1.55153e-07
6.22429e-07
-4.67276e-07
2.14687e-08
-9.40858e-08
7.26171e-08
-4.24562e-07
-1.44454e-07
-4.10746e-07
1.79301e-07
3.91747e-07
-3.75459e-07
6.16837e-07
-3.22836e-07
-1.26953e-06
1.59237e-06
-2.13389e-07
1.28654e-07
2.07465e-07
-3.36119e-07
-2.73147e-07
1.777e-08
-9.93821e-07
-1.97591e-08
1.01358e-06
1.83626e-07
9.28235e-07
-5.2834e-07
2.80066e-07
2.48274e-07
9.58294e-07
2.42985e-07
-9.72045e-07
7.2906e-07
8.88311e-08
8.09761e-07
-8.98592e-07
-1.64838e-06
-6.14153e-07
1.92095e-07
4.22058e-07
3.45682e-08
1.49392e-06
-7.70571e-07
1.01356e-06
-7.44201e-07
-4.35428e-08
7.87743e-07
3.21341e-07
-7.07911e-08
-8.95618e-07
9.66409e-07
-5.63228e-07
2.37719e-07
3.25509e-07
8.14992e-07
-4.27478e-08
-7.72244e-07
1.65807e-07
-5.41265e-07
-1.01757e-06
-2.29671e-07
4.37136e-07
2.55898e-07
6.39189e-07
-8.95086e-07
8.53688e-07
-4.39262e-08
-4.07379e-07
-5.84918e-07
9.92297e-07
1.70649e-07
-1.70313e-07
-1.91662e-07
-7.80382e-07
1.0273e-06
-8.14437e-08
-1.53523e-07
1.45934e-06
-1.30581e-06
-3.32607e-07
-2.81546e-07
4.91934e-07
-2.15325e-07
-3.41891e-07
9.92256e-07
-6.50365e-07
-5.315e-07
1.20778e-06
-6.76285e-07
6.82495e-07
-1.59387e-06
1.59327e-07
-8.58878e-07
-3.31177e-07
1.19005e-06
-6.01258e-07
5.5851e-07
1.10849e-06
-1.26202e-06
8.62624e-07
-1.59476e-07
-7.03148e-07
-5.86224e-07
5.42681e-07
-2.23747e-07
-3.04593e-07
3.62115e-07
-3.62115e-07
-1.66655e-07
1.66655e-07
6.20582e-08
-6.20582e-08
3.44997e-07
9.95201e-08
-6.45777e-08
6.45777e-08
-1.68732e-07
1.68732e-07
1.21256e-07
-1.21256e-07
-1.02012e-07
-8.72229e-08
8.72229e-08
-1.53403e-07
4.72885e-07
-4.72885e-07
1.1608e-08
-1.1608e-08
2.68318e-07
-2.68318e-07
-2.29151e-07
2.29151e-07
-1.26217e-06
1.29035e-06
-2.81753e-08
-1.81428e-07
1.81428e-07
6.77618e-08
-6.77618e-08
8.35181e-08
8.57816e-07
-9.41334e-07
5.74902e-07
-6.18828e-07
1.19201e-06
-3.71133e-07
1.33723e-06
-1.16658e-06
6.84128e-07
-8.7579e-07
3.87166e-07
2.41069e-07
1.61889e-07
5.1977e-07
-6.81659e-07
-1.01403e-06
-1.43785e-07
7.11326e-07
3.38429e-07
4.85694e-07
-8.24123e-07
-7.62458e-08
-1.3908e-07
-1.34702e-06
2.86319e-07
-3.56461e-07
-1.84805e-07
7.1719e-07
-1.52112e-06
4.50451e-07
-5.51687e-07
-2.2911e-07
-9.4544e-07
5.38061e-07
7.10754e-07
-8.5454e-07
-1.17258e-06
-1.74441e-07
-4.07763e-08
-7.52381e-10
2.60981e-07
-1.33455e-07
-1.48091e-07
1.42636e-06
-2.6356e-08
-2.77138e-08
5.77522e-07
-1.78258e-07
8.46016e-07
-3.13269e-08
5.74008e-07
-5.05162e-07
1.48701e-07
-1.44625e-06
9.14752e-07
-8.98103e-07
1.18796e-07
7.79307e-07
1.01863e-06
-1.51651e-06
4.97879e-07
7.50557e-08
-1.30926e-06
8.49755e-07
4.59501e-07
-1.16095e-06
8.19059e-07
-1.0419e-06
8.09692e-07
2.32209e-07
1.14884e-06
-1.48002e-06
-2.72535e-07
-8.38622e-07
-9.6769e-07
8.08214e-07
-7.36491e-07
-9.38209e-07
8.0086e-07
1.37349e-07
3.53976e-07
-5.60326e-08
-1.20598e-06
-9.11601e-07
-2.9733e-08
-1.9317e-07
-9.39754e-07
1.56696e-07
7.83057e-07
-2.42037e-07
-1.29095e-07
-5.95366e-07
-2.34626e-08
-5.57364e-08
-4.63867e-07
-3.90128e-07
-4.27623e-07
-3.58798e-07
-4.7707e-08
4.06505e-07
-1.51186e-07
-3.67664e-07
-1.07569e-07
6.2734e-07
-3.94503e-07
-3.11195e-07
-2.22842e-07
-8.77999e-08
-8.10303e-07
1.3329e-06
3.48484e-08
9.69451e-07
-8.50655e-07
-1.57998e-07
-2.78559e-07
-1.97124e-08
2.98272e-07
-6.36142e-07
-1.29995e-07
-3.29469e-07
3.03113e-07
3.32609e-07
-2.98653e-07
-9.67634e-07
2.86756e-07
6.18892e-07
-6.23429e-07
4.53648e-09
5.99698e-08
-9.05192e-07
3.09147e-07
5.89159e-07
-7.18579e-07
2.7942e-07
1.29149e-06
-1.14124e-09
-3.09886e-07
-1.93298e-07
-8.08039e-07
1.00134e-06
1.11844e-06
-2.30521e-07
-1.38894e-07
-1.01808e-06
1.33942e-06
-1.61644e-06
1.24877e-06
-8.55017e-08
1.5225e-06
-1.437e-06
1.51084e-06
8.9835e-07
-1.14574e-06
2.47385e-07
-2.16689e-07
-1.39975e-06
-8.95144e-07
6.66034e-07
-1.39422e-06
9.99721e-07
1.15609e-07
-5.05737e-07
8.67451e-07
-1.3799e-07
-7.378e-07
1.27716e-06
-5.6014e-07
-1.76351e-07
2.4129e-07
-2.39041e-07
-4.69828e-08
9.73406e-07
8.69826e-07
-1.02782e-06
-4.6276e-08
4.77853e-07
-4.31577e-07
-9.30193e-07
4.3663e-07
4.93563e-07
-5.8242e-07
-9.92388e-08
6.72217e-07
-7.60017e-07
-9.67479e-07
6.06742e-07
4.13009e-07
-3.02896e-07
-1.10113e-07
-1.95014e-07
1.93503e-07
-9.31561e-07
6.37515e-07
-2.04045e-07
-6.911e-07
8.90834e-07
-1.11527e-07
-2.02858e-07
9.7368e-07
-1.53034e-07
-8.20646e-07
-4.87893e-07
-3.45636e-07
5.80065e-07
-9.59653e-07
7.55608e-07
-1.76595e-07
-7.2041e-07
-4.59805e-07
9.10915e-07
-4.5111e-07
-9.84635e-07
-9.60966e-07
9.59825e-07
-2.65527e-07
1.244e-08
7.80907e-09
-6.31238e-07
-1.6026e-06
-1.22221e-06
2.04125e-07
-8.32743e-07
4.0211e-07
4.30633e-07
-8.89646e-07
4.05765e-07
4.83881e-07
3.78614e-07
-1.53553e-06
1.1079e-06
-9.86374e-07
7.20846e-07
-6.96233e-07
-4.83278e-07
4.35571e-07
1.14979e-07
8.73628e-07
-9.88607e-07
6.44224e-07
-4.17601e-07
-3.01744e-07
3.5611e-07
-5.43652e-08
-6.35182e-07
-3.84249e-07
1.01943e-06
1.52877e-06
1.13301e-06
-1.45648e-08
8.3583e-07
-9.74723e-07
2.30765e-07
3.38173e-07
2.37861e-07
-7.38346e-08
8.46908e-08
-1.09517e-06
4.3288e-07
-1.15217e-07
-3.17663e-07
-3.29964e-07
8.57437e-07
-2.60774e-07
-5.96664e-07
-4.09314e-07
-9.25883e-07
6.95362e-07
-2.82342e-07
6.69108e-07
-3.86766e-07
-4.21171e-07
-1.48805e-07
-4.00049e-07
-3.58654e-07
7.58703e-07
-6.07122e-07
-3.38317e-07
7.41006e-07
-6.87886e-08
2.89501e-07
7.24056e-07
9.09312e-08
-5.22508e-07
-8.96201e-08
-3.93658e-07
-3.8015e-07
-1.72848e-07
-9.72887e-07
1.1173e-07
3.2115e-07
9.95174e-07
-3.88432e-07
3.06994e-08
1.62803e-07
6.29479e-07
5.74002e-07
1.50475e-07
-2.90175e-08
-1.21458e-07
-2.36049e-08
1.15661e-06
-2.90545e-07
-6.35339e-07
1.43504e-07
2.69505e-07
-5.1912e-07
-2.54263e-07
7.73383e-07
-1.02361e-06
-5.21171e-07
-8.59854e-07
-3.53679e-07
-3.20355e-07
6.74034e-07
-4.87536e-07
-3.82017e-07
5.2552e-07
5.82978e-07
-4.45479e-07
-1.37499e-07
-9.91371e-07
-4.7009e-07
9.63653e-07
1.62971e-07
5.11063e-07
-6.3628e-07
-4.20534e-08
6.25031e-07
1.24079e-06
9.84804e-07
-7.71757e-07
6.80383e-07
-1.01035e-06
-9.7057e-07
1.19914e-07
-9.69417e-08
4.34513e-07
-1.00852e-06
5.38426e-07
4.76117e-07
8.54809e-07
2.67804e-07
-5.50146e-07
-3.43232e-07
-8.90378e-07
-1.37446e-07
1.70341e-07
-4.73237e-07
8.58333e-07
2.7848e-07
3.41434e-07
-6.19915e-07
-5.49375e-07
9.52582e-07
-4.03207e-07
9.29594e-07
1.70176e-08
3.10454e-07
4.65939e-07
-7.26712e-07
5.40187e-07
-2.29733e-07
-3.84833e-07
-4.23562e-07
-5.13444e-07
9.37006e-07
-1.11322e-06
-5.26471e-07
9.32236e-07
-3.16711e-07
5.96131e-07
6.93524e-07
-6.22793e-07
-7.07311e-08
4.26652e-07
3.32051e-07
1.93286e-07
-1.27218e-06
1.0789e-06
-1.18175e-06
5.76866e-07
6.04882e-07
-3.97471e-07
3.35684e-07
-1.85209e-07
5.17556e-07
1.75969e-07
-9.72937e-07
9.80101e-07
-5.03984e-07
8.34728e-07
-9.07245e-07
5.19307e-07
-9.70417e-07
2.93631e-07
-5.98994e-07
2.82283e-07
8.61009e-07
1.054e-07
-6.83787e-07
2.73041e-07
-1.95083e-07
9.87361e-09
4.5363e-07
1.77245e-07
4.50095e-07
-1.78065e-07
5.61812e-07
7.21118e-07
6.66255e-08
4.98014e-07
-1.002e-06
-9.1866e-07
3.21996e-07
-7.83615e-07
3.10582e-07
4.63572e-07
5.28725e-07
7.93946e-07
-3.10065e-07
4.86284e-07
-2.1848e-07
6.19139e-07
2.26877e-07
7.63997e-07
3.18979e-07
2.21208e-07
2.56551e-07
5.29029e-07
1.00574e-06
-2.41738e-07
1.02074e-07
2.54035e-07
9.59685e-07
-1.12186e-06
1.62176e-07
-8.63919e-07
5.10573e-07
3.53345e-07
-1.01261e-06
6.69376e-07
4.8179e-07
-4.35605e-07
-4.59056e-07
-2.24731e-07
-4.72403e-07
-6.5103e-07
2.7088e-07
2.7048e-07
-9.30365e-07
-3.3489e-07
7.09113e-07
4.39906e-08
5.30018e-07
2.55562e-07
-2.84579e-07
-1.74624e-07
-3.44121e-07
8.61677e-07
-6.67385e-07
-2.51274e-07
-3.28114e-07
-2.88551e-07
7.7497e-08
-3.40104e-07
-5.89144e-07
-3.32644e-07
9.21787e-07
1.00707e-06
-9.22383e-07
7.65108e-07
1.23016e-06
-8.30614e-07
4.24429e-08
7.88171e-07
-1.03364e-06
8.9619e-07
4.03409e-07
7.03306e-07
-1.10672e-06
9.7761e-07
2.94634e-08
1.1291e-06
2.75128e-08
3.4385e-07
-7.80003e-07
3.93237e-07
9.27634e-07
-4.64051e-07
-3.15952e-07
-9.55937e-07
-5.64835e-07
-9.35166e-07
3.46022e-07
-5.03355e-07
7.69572e-07
-2.66217e-07
4.85256e-07
-1.71875e-07
7.96384e-07
-3.98722e-07
-2.21092e-07
6.19814e-07
-9.32246e-07
-6.15755e-08
3.65162e-07
-4.65589e-07
8.68095e-07
-5.57514e-07
4.37098e-07
3.36286e-07
-8.39006e-07
-5.71461e-07
-5.35452e-07
8.19765e-07
5.52169e-07
-7.24447e-07
2.28165e-07
2.97356e-07
-1.07942e-06
6.61614e-07
-8.8736e-07
1.29077e-06
9.96201e-07
-5.60154e-07
8.16051e-07
2.89435e-07
-5.33194e-07
2.43759e-07
5.0239e-07
3.17374e-07
9.75493e-07
-7.38494e-07
-2.36999e-07
6.65263e-07
-1.42194e-07
4.50367e-07
-1.08932e-07
-1.99332e-07
6.83803e-07
-4.84471e-07
9.3902e-07
-4.10295e-07
-9.2417e-08
9.15157e-07
4.66617e-07
-8.07518e-07
3.27964e-07
-8.86132e-07
7.79338e-07
-2.76948e-07
5.83061e-08
-9.80689e-07
9.18489e-07
-3.24928e-07
-5.93562e-07
2.13311e-07
1.5519e-07
-6.06662e-07
9.42145e-07
-3.35483e-07
-6.16719e-07
8.61324e-07
-2.44605e-07
2.09418e-07
-1.93416e-07
-6.4559e-07
5.4511e-07
-1.81603e-07
-1.23135e-06
1.10817e-06
4.05441e-07
-8.74346e-07
-5.20134e-07
-3.57644e-07
1.13459e-07
-2.34917e-07
8.35217e-07
-4.01479e-07
4.14168e-07
3.22667e-07
-6.18136e-07
-2.19933e-07
8.3807e-07
-1.58458e-07
2.83072e-07
-1.24613e-07
-2.36894e-07
-1.78493e-07
1.65787e-07
7.20274e-08
6.93081e-07
3.99048e-07
2.593e-07
3.11827e-07
4.62244e-07
3.17094e-07
1.15609e-06
-4.52787e-07
5.04952e-07
1.70298e-07
-6.7525e-07
-6.69363e-08
3.61605e-07
6.79822e-09
-8.13349e-07
3.49311e-07
3.10679e-07
-1.78688e-07
-3.70566e-07
-1.02671e-07
-7.90962e-07
8.49268e-07
6.56671e-08
4.26155e-07
-7.4689e-08
-7.17326e-07
8.94526e-07
-1.772e-07
-2.00835e-07
-6.41391e-07
8.56176e-07
-2.14785e-07
-3.39355e-07
5.26834e-07
-1.87479e-07
2.79481e-07
7.70636e-07
6.82455e-07
-5.10765e-07
-1.7169e-07
-1.08169e-07
4.018e-07
7.51679e-07
6.42546e-07
2.99599e-07
-3.565e-07
-2.37061e-07
5.93561e-07
6.09496e-07
-4.55451e-07
-1.07955e-06
4.26751e-07
-6.42479e-07
1.41311e-06
7.53465e-07
-3.26714e-07
3.32548e-07
-9.30318e-07
9.59781e-07
-8.30946e-07
3.99841e-08
1.3885e-07
-5.87893e-07
-4.91654e-07
4.17982e-07
5.79796e-08
8.36547e-07
6.56674e-07
-2.98229e-08
-4.42356e-07
-3.04662e-07
2.26746e-07
3.50344e-07
3.76923e-07
-2.64822e-07
-7.72966e-07
-1.44142e-07
-7.34005e-08
3.76843e-07
-6.82059e-08
7.89269e-07
-3.71287e-07
3.25955e-07
7.71073e-08
2.99816e-07
9.36755e-07
-6.108e-07
-9.11739e-07
-2.29061e-07
1.1408e-06
-7.8969e-07
1.97493e-08
4.78941e-07
-9.11731e-07
-1.83437e-07
6.85288e-07
-6.0818e-07
-2.96074e-07
2.51812e-08
2.70893e-07
-1.05587e-06
-1.68359e-07
-1.76745e-07
3.45104e-07
3.46913e-07
3.48862e-07
2.99489e-08
1.3983e-08
-4.39318e-08
2.4499e-08
-3.76691e-07
5.13614e-07
4.5857e-08
-4.05474e-07
3.97125e-07
-3.15028e-07
5.95077e-07
-4.76527e-07
3.18069e-07
1.81985e-07
-2.15145e-07
4.49403e-07
-1.85241e-07
-2.61139e-07
4.4638e-07
-4.53468e-07
6.82094e-07
-2.28626e-07
4.75917e-07
-1.78561e-07
-4.85668e-07
1.74523e-07
-3.30046e-07
-1.09518e-06
4.00875e-07
4.04759e-08
-3.71639e-07
1.86398e-07
-5.91891e-07
1.1055e-06
3.66849e-07
-5.99905e-07
2.33056e-07
-4.3283e-07
1.04144e-06
-7.1348e-07
-3.06229e-07
1.60496e-06
-1.15176e-06
6.40963e-09
-2.96963e-07
2.37149e-07
2.34318e-07
2.75082e-07
-2.19823e-07
3.2075e-10
1.33014e-07
1.89653e-07
-9.40678e-07
9.28721e-07
-2.89532e-07
8.12382e-07
-4.74742e-08
-1.14746e-06
1.19493e-06
-2.76637e-07
9.60753e-07
-6.84116e-07
1.09009e-06
3.53032e-07
-1.30534e-07
9.89459e-07
-3.50954e-08
-5.56796e-07
2.75993e-07
-1.17329e-06
8.97301e-07
5.14192e-07
-2.70433e-07
-6.35541e-07
3.20513e-07
-6.77433e-07
-1.00448e-06
8.27284e-07
9.38493e-07
1.51599e-07
1.18879e-06
-1.40263e-06
-4.68523e-07
4.33428e-07
1.13164e-06
4.93501e-07
-2.5564e-07
2.54615e-07
4.06277e-07
1.65632e-07
2.80235e-07
2.65183e-07
3.74022e-07
-2.90211e-08
-3.45001e-07
-2.75979e-07
-8.19196e-07
-8.53051e-08
-2.5405e-07
1.04778e-06
-7.48185e-07
8.58913e-07
-3.14324e-07
-5.44589e-07
7.15401e-07
4.70188e-07
-2.09319e-07
4.63954e-07
-2.54635e-07
1.87272e-07
3.96322e-07
-1.08417e-06
1.15987e-06
2.23216e-07
-3.4783e-07
2.83968e-07
4.93516e-07
-1.24105e-06
1.17469e-06
1.02414e-06
-9.00089e-07
-6.93785e-07
-7.45967e-07
-2.58517e-07
-6.2794e-07
6.8029e-07
-2.78343e-07
-7.17678e-08
3.5011e-07
-5.82083e-07
6.94876e-07
-9.71513e-07
-3.39437e-07
-3.35812e-07
-8.11773e-08
-1.17598e-06
-1.14132e-06
-1.32361e-06
2.27941e-07
-1.41453e-06
6.94434e-08
-9.06949e-07
3.13387e-07
6.78407e-07
-9.10617e-07
-2.28589e-07
1.78822e-07
1.64645e-07
-4.23684e-07
-8.50973e-07
1.0255e-06
-1.17574e-06
-2.19098e-07
-2.40317e-07
1.7213e-07
3.30995e-07
5.90792e-07
4.91633e-07
4.52769e-07
1.37911e-07
5.92696e-07
1.55547e-07
3.28581e-07
5.69043e-07
3.77139e-07
3.55712e-07
6.47275e-07
-1.10678e-06
-1.60558e-07
-1.62607e-07
1.27078e-06
1.11329e-08
-1.0067e-06
-5.89855e-07
6.93828e-08
-1.41151e-07
1.35429e-07
1.31237e-07
2.0213e-07
1.41337e-07
2.88574e-09
4.85007e-07
2.35855e-07
7.57561e-07
-1.25544e-06
-6.55425e-08
1.25512e-07
6.58125e-07
-9.47657e-07
3.18312e-07
-9.08167e-07
3.10042e-07
1.0195e-07
1.29499e-06
1.01025e-07
7.1775e-08
-6.00741e-07
9.31736e-07
3.51099e-07
-3.98676e-07
6.09859e-07
-2.49797e-07
-1.20108e-06
7.6227e-07
4.38806e-07
4.30168e-07
-1.05615e-07
-6.29346e-07
4.08209e-07
-5.28354e-07
-7.43828e-07
-4.30369e-07
1.21382e-06
-2.02972e-07
6.36399e-07
-6.75733e-08
2.11367e-07
6.7771e-07
1.55036e-09
8.22097e-07
-9.15065e-07
6.3291e-07
-6.20471e-07
4.36975e-07
4.14696e-07
-1.06342e-06
-5.37138e-07
-4.47828e-07
1.35619e-06
-7.79326e-07
8.30019e-08
8.97981e-08
-9.70805e-08
-6.15469e-08
7.55299e-08
-8.67319e-07
-4.64297e-07
7.99596e-07
-1.32795e-06
1.05177e-07
5.76917e-07
-9.34892e-07
-2.98493e-07
-3.0239e-07
3.14251e-07
-1.84149e-07
-7.87558e-07
2.59645e-07
2.20704e-07
2.25162e-07
8.20787e-07
4.49994e-07
-4.4694e-07
-2.77507e-07
-2.33351e-07
8.051e-07
-1.19821e-07
8.07012e-07
1.23548e-06
-2.98441e-07
4.0467e-07
-8.44717e-07
-3.28578e-07
-6.14088e-07
1.29617e-07
2.32263e-07
1.4408e-06
-6.33788e-07
6.81514e-09
7.59855e-08
-6.84513e-07
-2.15713e-07
1.21536e-07
-1.44516e-06
5.27067e-07
1.39295e-06
7.37253e-08
9.76503e-07
1.01309e-06
5.11476e-07
1.2384e-06
8.77957e-07
2.46007e-07
-1.2447e-07
3.09928e-07
-2.82214e-07
-2.7672e-08
-1.48798e-06
1.58795e-07
-5.85642e-09
4.57853e-07
-8.46403e-08
-1.08824e-07
-5.11275e-07
-2.52834e-08
-2.83571e-07
-1.48208e-08
3.02795e-07
-4.27602e-08
4.74779e-07
-7.54414e-07
1.62381e-06
-8.08584e-07
2.81355e-07
4.05552e-07
1.88009e-07
-9.73955e-07
8.89915e-07
-8.3183e-08
3.11345e-08
5.20485e-08
6.31947e-07
-1.80011e-07
-2.2601e-07
-6.02714e-07
-4.63066e-07
7.5567e-07
-1.83927e-07
4.42607e-07
4.35807e-07
-2.14599e-07
6.09075e-07
-3.45986e-07
1.42032e-07
-1.18447e-06
4.1271e-07
4.54353e-07
-3.69874e-08
2.41957e-07
5.45361e-07
2.68831e-07
-1.9036e-07
-1.58926e-07
8.82411e-08
-2.22805e-07
4.38011e-07
-2.15205e-07
8.81158e-07
1.22352e-08
2.99558e-07
8.37146e-07
1.47007e-08
9.03141e-07
-6.99017e-07
7.05028e-07
9.18781e-07
-5.44718e-07
-1.01151e-06
-5.61919e-07
6.0517e-08
4.61991e-07
8.81158e-07
2.38563e-07
-1.57002e-07
-2.31603e-07
-2.87967e-07
1.85296e-07
6.67325e-07
-6.60915e-07
-1.71597e-07
-8.16298e-07
1.38878e-07
-1.76223e-08
-1.56583e-07
-2.48445e-08
-1.35289e-07
7.07117e-08
7.41131e-08
-1.20549e-08
-3.85814e-08
-2.27965e-07
-2.45372e-08
-1.02454e-07
-7.41131e-08
3.85814e-08
1.02454e-07
-1.52307e-08
2.23096e-07
4.52222e-08
2.27965e-07
2.45372e-08
1.38878e-07
-1.56583e-07
-1.35289e-07
2.23096e-07
5.68147e-07
5.68845e-08
-1.9087e-07
4.45389e-07
4.86666e-07
-3.29937e-07
3.29937e-07
-1.9087e-07
-3.50712e-07
-5.04031e-07
2.65677e-07
4.19007e-07
-1.93845e-07
8.70657e-07
4.25187e-07
-4.48676e-07
3.14064e-07
4.8051e-08
-3.14064e-07
4.57456e-08
-1.12836e-06
-8.35189e-07
3.63962e-08
-2.8582e-07
3.49174e-08
-1.181e-07
5.1448e-07
-1.17173e-07
7.68959e-07
1.3063e-07
-1.62504e-06
-2.09355e-07
-4.50838e-07
6.59435e-08
5.78668e-07
2.26607e-07
-1.13305e-06
1.21541e-07
-7.09689e-07
1.31223e-07
1.28248e-07
-2.16006e-09
-2.6103e-07
-4.60012e-07
3.44659e-07
1.15353e-07
7.08391e-07
-1.63031e-07
4.34015e-08
-4.34015e-08
-4.04721e-07
-3.24635e-07
-8.91096e-07
1.38237e-07
-6.4327e-07
6.91321e-07
6.42914e-08
-5.24303e-07
7.40053e-07
-4.629e-07
8.2298e-08
-4.50759e-07
9.88228e-07
7.83182e-07
2.7982e-07
-3.19615e-07
2.98714e-07
-6.71847e-07
4.56308e-08
-1.70101e-07
3.42213e-07
-2.35318e-07
-9.68323e-08
-5.09116e-08
9.65424e-08
1.39396e-07
-3.6362e-07
-9.42523e-08
9.33497e-07
-4.02141e-07
9.58412e-08
-9.58412e-08
-3.55712e-07
-6.40284e-09
3.55712e-07
-2.86901e-08
-2.19048e-07
2.19048e-07
2.82201e-07
-5.35058e-08
3.15174e-07
-1.47647e-07
-1.49315e-07
-2.94922e-07
-5.56007e-08
1.24983e-07
-1.27358e-07
4.76472e-08
-4.34655e-07
-9.6135e-07
6.90494e-08
3.56137e-07
1.40365e-07
3.36991e-07
-4.7449e-07
-2.74107e-08
-1.46174e-07
4.48391e-07
-4.48391e-07
4.92084e-07
1.42769e-07
-3.00477e-07
-6.30934e-07
1.72983e-07
3.71576e-07
-5.44559e-07
2.93349e-07
2.0184e-08
1.36994e-07
-1.20493e-07
8.57603e-09
4.93496e-07
3.4456e-08
-1.53407e-07
-1.30659e-07
-1.04913e-08
-3.6149e-08
3.6149e-08
2.40448e-07
1.97563e-07
5.37138e-07
-1.53854e-07
3.48019e-08
1.19052e-07
-9.72977e-08
2.57177e-08
1.59714e-08
9.68323e-08
-3.50825e-08
-1.59714e-08
-2.32104e-07
9.56381e-08
1.36466e-07
1.03504e-08
-4.36636e-08
-3.61343e-07
-2.16922e-07
-1.54217e-06
9.27413e-07
6.14761e-07
-2.16006e-09
-3.38041e-07
-2.15205e-07
3.38041e-07
1.43458e-07
2.94957e-08
-2.13645e-07
-5.58564e-08
-1.08734e-07
5.58564e-08
1.08734e-07
-1.31854e-07
1.31854e-07
3.96425e-07
-2.33529e-07
-5.27567e-07
-2.63545e-07
-1.24254e-07
-5.19015e-07
4.81698e-08
1.18486e-07
-1.18486e-07
-8.08584e-07
-1.1065e-07
-8.57603e-09
-1.45354e-07
8.36651e-08
-1.42769e-07
-8.33943e-07
-1.76878e-07
-8.16445e-08
1.51795e-07
1.00175e-06
3.37955e-08
-7.32812e-07
-1.93338e-07
-3.17326e-08
3.15174e-07
-2.15663e-07
3.21402e-07