/*--------------------------------*- C++ -*----------------------------------*\
  =========                 |
  \\      /  F ield         | OpenFOAM: The Open Source CFD Toolbox
   \\    /   O peration     | Website:  https://openfoam.org
    \\  /    A nd           | Version:  9
     \\/     M anipulation  |
\*---------------------------------------------------------------------------*/
FoamFile
{
    format      ascii;
    class       volScalarField;
    location    "1";
    object      p;
}
// * * * * * * * * * * * * * * * * * * * * * * * * * * * * * * * * * * * * * //

dimensions      [0 2 -2 0 0 0 0];

internalField   nonuniform List<scalar> 
464
(
8.89363e-24
-4.26129e-23
-1.77626e-22
-1.7196e-22
-5.2995e-23
-1.86448e-22
-1.65344e-23
-1.78018e-22
-2.17842e-23
-1.74157e-23
-1.90636e-24
4.61974e-23
-2.06637e-23
2.97579e-23
-9.74802e-23
-5.64568e-23
-1.84428e-22
1.50614e-21
-1.79798e-22
-1.55878e-22
-6.30908e-23
-1.68946e-22
-1.89989e-22
-1.75486e-22
-1.79623e-22
-1.80808e-22
-3.94938e-23
-1.77102e-22
6.53242e-23
-1.76762e-22
-1.82127e-22
-1.00545e-22
-1.20559e-22
-3.47267e-22
1.53055e-22
-2.53167e-22
-1.02457e-21
-1.87555e-22
-1.82282e-22
-1.18491e-23
-1.08616e-22
-1.49786e-22
-2.07415e-22
3.18119e-24
1.11067e-22
-2.99006e-22
-1.72007e-22
-1.68785e-22
-1.79543e-22
-1.8852e-22
1.08921e-22
-1.76506e-22
-2.73674e-22
-1.47971e-22
-1.63889e-22
-1.81117e-22
-1.79864e-22
-1.24103e-22
-1.85451e-22
-2.00453e-22
-1.89046e-22
-5.42484e-23
-5.16189e-23
-1.40157e-22
-3.45392e-23
-1.60741e-22
-1.4921e-22
-1.9041e-22
2.24801e-23
-1.56522e-22
-1.50626e-22
-4.66912e-23
1.45884e-23
-1.75895e-22
-7.0245e-23
-1.83996e-22
-2.16242e-22
4.24943e-24
-1.44207e-22
7.89833e-23
-6.34385e-23
-1.81179e-22
-9.67028e-23
-1.85295e-22
-7.19023e-23
-1.36471e-22
-5.02074e-23
-1.91897e-22
-1.72869e-22
-6.97107e-23
-6.87454e-23
-4.66953e-23
-1.22834e-22
3.26885e-23
-8.13758e-23
-3.00788e-22
-1.91615e-22
-1.82365e-22
-7.21851e-23
-3.64587e-23
-1.78459e-22
-1.73378e-22
-1.74485e-22
-1.21431e-22
-2.83478e-22
-9.11309e-23
-1.86339e-22
-1.74801e-22
-6.82332e-23
-1.58188e-22
-7.68534e-23
-1.72131e-22
-9.44417e-24
-7.22733e-23
-1.79366e-22
-1.75984e-22
-9.06223e-23
-1.80101e-22
-7.09424e-23
-1.84077e-22
-1.68167e-22
-4.84717e-23
-4.14137e-23
-6.0118e-24
-1.92721e-22
-4.65732e-23
-3.60121e-23
-5.77413e-23
-2.35997e-22
-9.75949e-23
-1.95794e-22
-3.17706e-23
-1.8666e-22
-1.74771e-22
-1.7395e-22
-7.85872e-23
-1.79878e-22
-1.79009e-22
-2.45956e-23
-1.76104e-22
-1.90386e-22
-1.56018e-22
-1.12036e-22
-1.80591e-22
-1.76426e-22
-7.49701e-23
-1.74232e-22
-1.8034e-22
-1.49589e-22
-1.69852e-22
-1.69687e-22
-1.75492e-22
-3.86203e-23
-5.83217e-23
-7.40812e-23
-1.69184e-22
1.14265e-22
-1.65054e-22
-4.22503e-23
-6.93721e-23
-4.33093e-23
-1.6903e-22
-7.18357e-23
-2.84348e-22
-2.56382e-22
-1.811e-22
-3.75015e-23
-2.80356e-23
-1.2913e-22
-6.73736e-23
-6.89791e-23
-6.64874e-23
-7.02205e-23
-1.68659e-22
-7.52671e-23
-6.41562e-23
-1.61221e-22
-1.89028e-22
-5.64661e-23
9.95455e-23
-2.01074e-22
-5.90224e-23
4.70657e-22
1.47736e-21
-5.05632e-23
-7.6907e-22
-1.16254e-22
-1.03695e-22
-7.1211e-23
-1.06911e-22
-1.66771e-22
-7.98714e-23
-1.721e-22
-1.76663e-22
-1.61558e-22
-1.37321e-22
-5.78357e-23
-1.78096e-22
-4.01309e-22
-1.52023e-22
-1.63213e-22
-1.44053e-22
-1.59095e-22
-1.57082e-22
-1.36778e-22
-1.76195e-22
-1.53515e-22
-1.39605e-22
-1.41055e-22
-7.57926e-23
-1.9996e-22
-1.09769e-22
-1.78031e-22
2.307e-22
-5.23072e-22
-8.14211e-23
3.21864e-22
-1.70692e-22
-1.20746e-23
-1.26237e-22
2.50331e-21
-1.5135e-22
-1.48422e-22
-1.43356e-22
-1.7746e-22
-2.00766e-22
-1.50257e-22
-1.51152e-22
-1.94131e-22
-1.14169e-22
-1.23824e-22
-4.71895e-23
-5.34236e-23
-3.01234e-23
-4.57367e-23
-8.00197e-23
-3.30956e-22
1.96237e-22
-3.27703e-23
-8.51104e-22
6.55029e-23
-5.72698e-23
-1.01064e-22
1.94992e-22
2.20923e-22
-1.84859e-21
3.46996e-22
-1.25005e-22
-5.71016e-22
-5.14356e-22
6.9251e-22
-1.77381e-21
-1.17054e-22
-5.57446e-23
1.0917e-22
3.36818e-22
-1.65903e-22
-6.52678e-22
2.5524e-22
5.37953e-23
2.5588e-22
-1.35549e-22
-2.79585e-22
-8.25361e-23
-1.96924e-22
-2.59956e-23
-1.53187e-22
-1.79502e-22
-1.68639e-22
-3.35949e-23
-1.49335e-22
-8.13457e-23
-6.21957e-23
-1.94735e-22
-6.37121e-23
-6.30495e-23
-5.51706e-23
-1.28265e-22
-1.20166e-22
-8.04716e-23
-7.05292e-23
-1.71983e-22
-1.23003e-22
-1.79461e-22
-6.42339e-23
-8.1885e-23
-1.25341e-22
-4.66701e-23
-1.73238e-22
-6.88916e-23
-6.05602e-23
-3.44845e-23
-1.85194e-22
-1.54447e-22
-3.06305e-22
-1.03594e-22
-1.00721e-22
-2.19332e-23
-2.6152e-23
-6.11793e-23
-4.05024e-23
-3.63424e-23
-5.08166e-24
3.92396e-23
-5.60819e-22
-2.40093e-22
-1.95714e-22
-7.52533e-22
-6.20647e-23
-7.09198e-23
-1.67661e-22
-1.81324e-22
-2.98454e-22
-4.45098e-23
-3.58824e-23
-4.82188e-23
-1.49665e-22
-6.51172e-23
-1.7694e-22
-7.50714e-23
-1.78456e-22
-5.86238e-23
-6.26697e-23
-2.24084e-23
-2.88572e-23
-1.82678e-22
-1.74809e-22
-7.62564e-23
-1.71638e-22
-7.71896e-23
-1.7664e-22
-1.60276e-23
-1.70193e-22
-2.45431e-22
-1.67948e-22
-1.45645e-22
-1.80669e-22
-1.75058e-22
-7.39371e-23
-9.41779e-23
-1.69296e-22
3.72918e-23
-8.25077e-23
-7.9441e-23
-5.02653e-23
-1.79887e-22
-1.73628e-22
-1.16305e-22
-1.83403e-22
-1.77652e-22
-1.51978e-22
-1.82901e-22
-7.55701e-23
-9.33479e-23
-1.57263e-22
-2.25569e-23
-1.8411e-22
-6.99334e-23
-1.77938e-22
-5.43175e-23
-1.82124e-22
-4.08518e-24
-1.88442e-22
-6.84063e-23
6.73372e-25
-1.88572e-22
-1.85395e-22
-1.25035e-21
1.12148e-22
-1.90478e-22
-1.76807e-22
-1.29651e-22
-7.57512e-23
-2.24575e-21
-1.87973e-22
-1.87165e-22
5.86677e-23
-1.3025e-22
1.61602e-22
-1.89215e-22
2.43193e-22
-4.34423e-22
-6.41881e-22
-7.24656e-23
6.22835e-22
-5.93725e-23
3.51e-22
-1.81514e-22
2.64479e-21
1.4039e-21
-1.00742e-22
-1.91158e-22
-1.12421e-21
-5.86017e-22
-3.29849e-22
-1.71673e-22
-2.42755e-22
-1.77496e-22
-7.65555e-23
1.37844e-23
-2.71628e-23
-1.80119e-22
4.14524e-23
-1.79956e-22
-7.63572e-25
1.83094e-23
7.25734e-23
-1.83537e-22
4.05609e-23
-1.76144e-22
-2.42249e-23
-1.80232e-22
-1.77551e-22
-1.77544e-22
-1.90503e-22
-3.13621e-23
1.11989e-22
-1.83827e-22
-1.89245e-22
-3.79973e-23
-1.84983e-22
-1.84968e-22
3.50807e-23
-2.21722e-22
3.15199e-23
-3.23295e-23
2.43452e-22
1.86936e-22
2.99687e-22
-8.59142e-23
-1.82013e-22
-7.96571e-23
-5.31501e-22
-1.72772e-22
5.74244e-22
3.50318e-21
2.55094e-21
-1.8134e-22
2.84696e-21
-1.83799e-22
-9.35226e-23
-9.77589e-22
-3.03148e-22
-3.03548e-22
-1.75342e-22
-2.53598e-22
-1.75564e-22
-8.90664e-23
-1.76421e-22
1.3418e-22
3.05125e-23
8.82042e-24
-2.53315e-22
-1.79312e-22
8.94789e-24
-8.21192e-22
-1.87693e-21
-1.82608e-22
-1.81509e-22
-1.81441e-22
-1.81063e-22
8.39073e-23
5.19527e-23
-1.74827e-22
)
;

boundaryField
{
    back
    {
        type            empty;
    }
    front
    {
        type            empty;
    }
    left
    {
        type            zeroGradient;
    }
    top
    {
        type            zeroGradient;
    }
    right
    {
        type            zeroGradient;
    }
    bottom
    {
        type            uniformFixedValue;
        uniformValue    
        {
            type            scale;
            scale           
            {
                type            squarePulse;
                start           0.3;
                duration        0.3;
            }
            xScale          
            {
                type            constant;
                value           1;
            }
            value           
            {
                type            constant;
                value           15.1;
            }
        }
        value           uniform 0;
    }
}


// ************************************************************************* //
