/*--------------------------------*- C++ -*----------------------------------*\
  =========                 |
  \\      /  F ield         | OpenFOAM: The Open Source CFD Toolbox
   \\    /   O peration     | Website:  https://openfoam.org
    \\  /    A nd           | Version:  9
     \\/     M anipulation  |
\*---------------------------------------------------------------------------*/
FoamFile
{
    format      ascii;
    class       surfaceScalarField;
    location    "1";
    object      phi;
}
// * * * * * * * * * * * * * * * * * * * * * * * * * * * * * * * * * * * * * //

dimensions      [0 3 -1 0 0 0 0];

internalField   nonuniform List<scalar> 
663
(
6.14621e-29
5.963e-29
-1.19725e-28
5.70768e-29
8.65251e-29
9.56111e-31
-9.00337e-31
-1.03832e-30
9.51547e-30
-8.33221e-30
-3.66326e-29
9.29786e-29
3.87227e-31
-1.65817e-30
-5.37741e-29
1.1345e-28
7.36167e-30
-1.14281e-29
-6.18318e-29
1.41384e-28
-7.9297e-29
1.0217e-28
-1.63532e-28
7.68567e-29
-2.05281e-29
-8.56979e-30
4.88521e-29
-3.98456e-29
8.50018e-29
-2.34289e-29
7.26304e-30
3.76044e-29
-8.63303e-29
2.25748e-29
7.55376e-29
-4.37204e-29
-4.14657e-28
-7.13872e-29
3.62397e-28
2.01397e-28
-2.60984e-28
-2.15121e-30
2.10935e-30
1.36394e-29
-4.99428e-29
2.64427e-29
-6.59134e-31
4.8444e-29
-2.45031e-29
7.00777e-31
2.47064e-29
-3.1477e-29
1.1239e-30
-6.77378e-30
-4.79017e-30
1.16744e-29
5.88435e-30
7.30277e-31
6.00991e-30
-1.58795e-29
1.60574e-29
-5.55666e-29
4.08177e-29
-9.70183e-30
1.18467e-29
-2.0093e-30
8.25744e-29
-2.956e-29
9.79414e-30
-1.95155e-29
9.60603e-30
-1.00858e-29
1.71385e-29
-5.82545e-29
9.18354e-29
-3.46828e-29
2.2199e-30
-6.95082e-29
-7.21549e-29
-8.27242e-29
4.70589e-29
1.15306e-28
-7.29611e-29
2.50402e-28
-2.73133e-28
1.00417e-29
-9.43219e-29
-1.69605e-30
-2.82248e-30
2.56007e-30
-1.50843e-29
-1.0435e-29
-4.53149e-29
5.84757e-29
-6.29352e-29
1.09602e-29
3.08102e-29
-3.93474e-29
8.07238e-30
-1.79559e-29
-8.15258e-29
2.35817e-29
1.52042e-30
2.82933e-30
3.11256e-29
-3.15035e-29
4.22826e-31
2.39296e-29
-2.63981e-29
2.65886e-30
5.45837e-30
-5.36459e-30
5.0321e-30
1.86748e-29
-2.43205e-29
-1.85762e-29
3.31489e-30
1.52744e-29
-5.26941e-29
6.85819e-29
-2.13191e-29
3.21236e-30
5.44341e-29
-5.67356e-29
-4.82273e-29
4.83908e-29
-3.1525e-30
-1.83517e-29
2.30055e-29
1.3303e-29
7.18668e-29
-9.42093e-29
-6.58959e-29
5.90205e-29
2.15585e-29
-3.31526e-29
4.27924e-30
-8.88183e-29
1.09846e-28
-2.09467e-29
9.46599e-29
-3.08218e-29
-5.37342e-29
-5.83652e-29
6.22291e-29
1.29735e-30
-3.80256e-29
1.40482e-28
6.06152e-30
4.75861e-29
7.36932e-29
-6.55013e-29
-1.29545e-29
-7.47483e-30
3.68897e-29
7.28478e-31
-4.99833e-29
-6.04694e-29
-2.71333e-30
-1.28287e-28
4.56332e-29
2.47857e-29
-9.28683e-31
2.21023e-29
-3.50701e-30
-3.95247e-29
4.26038e-29
-4.30997e-30
-5.15948e-30
5.17981e-29
-5.30159e-29
-6.69778e-29
7.72135e-29
-9.62903e-30
-2.54394e-29
7.75714e-29
1.70239e-29
-9.47188e-29
-3.9563e-30
-1.72048e-30
5.75743e-30
7.23657e-30
-3.40195e-29
2.62544e-29
-1.83149e-30
3.03064e-30
-1.19278e-30
8.34444e-29
1.96141e-29
5.46345e-29
2.92254e-29
8.04702e-29
-1.14636e-29
2.80317e-30
-1.85821e-29
1.58955e-29
6.12502e-29
-6.68672e-29
6.07727e-29
-1.12286e-28
-6.8764e-29
5.34055e-29
4.01414e-30
2.83421e-29
-2.54623e-29
-4.92064e-30
-5.81745e-29
-4.76711e-30
-9.06485e-29
2.15804e-31
-1.1968e-29
7.19153e-30
1.17779e-30
-1.61594e-29
1.55511e-29
1.34664e-28
-4.89444e-29
-2.02429e-29
1.99918e-29
-4.68007e-30
-2.53676e-29
-2.41941e-29
2.26843e-30
1.08116e-28
1.41817e-29
1.31421e-29
-3.46619e-29
4.86053e-31
-9.06278e-29
1.17983e-30
-4.53894e-30
6.55496e-29
4.18482e-29
-3.88878e-29
-1.95176e-30
-7.4312e-29
3.52977e-30
7.52115e-29
-3.66984e-29
2.09759e-30
4.6297e-29
-4.68366e-29
-2.27791e-29
1.34429e-30
-2.582e-29
-2.09492e-31
-2.42045e-29
1.88431e-29
-2.92322e-30
6.54229e-30
-3.63465e-30
-1.62902e-29
8.17144e-30
-1.40152e-29
3.28545e-29
8.87284e-29
4.05503e-29
1.22788e-28
-9.39489e-29
8.17948e-29
3.04962e-29
-7.19275e-29
-6.22981e-29
-8.25324e-30
3.45452e-29
8.97962e-29
4.61009e-29
-3.77749e-29
2.52875e-28
-1.11276e-28
-3.53613e-29
2.83527e-29
-3.00298e-29
2.57569e-30
4.15994e-30
-2.01795e-29
1.63788e-29
1.87034e-29
-5.8676e-30
-1.77881e-29
1.30165e-29
-1.09273e-29
5.80313e-30
6.46454e-30
-5.58364e-30
1.34642e-30
4.54622e-29
-4.39387e-29
-2.62593e-29
-4.2292e-30
-1.39093e-30
4.60977e-31
-4.22505e-29
-3.16e-29
3.7031e-32
-4.82681e-30
5.73222e-29
3.19946e-30
8.8356e-30
-1.48885e-29
-3.80826e-29
4.89274e-30
-2.78166e-29
2.91113e-29
-9.45221e-29
1.07734e-28
-9.98079e-30
-6.92971e-29
8.74311e-30
2.81689e-30
1.32791e-29
-5.76721e-30
4.31549e-28
-5.39476e-28
-3.76947e-29
-6.54652e-31
1.24444e-28
1.4317e-29
5.00465e-29
1.0725e-28
-9.43229e-31
-1.03711e-28
-4.2879e-29
3.67654e-30
3.02577e-30
3.85195e-29
-1.29403e-29
-3.90782e-29
3.03325e-29
2.1937e-30
1.08334e-28
-3.05125e-29
2.3016e-29
-1.2556e-29
1.23301e-28
-1.0398e-28
1.38058e-29
-1.38609e-29
1.7315e-29
-3.38285e-30
9.21574e-29
1.43036e-29
-1.33745e-29
-2.41013e-29
-1.36752e-29
1.0428e-29
3.39464e-29
-3.73328e-29
-3.73679e-30
5.71784e-30
-4.99148e-29
-1.11144e-28
1.06525e-29
-2.54873e-28
6.34622e-29
2.26241e-28
4.07979e-29
-3.87721e-29
1.1216e-29
-5.16176e-29
4.4791e-29
-8.24742e-29
1.37107e-28
-1.98632e-28
6.23779e-29
-7.62791e-29
-4.4907e-29
-1.7349e-29
-1.50244e-29
1.82426e-29
-2.03433e-29
2.03819e-29
-1.55864e-29
3.09014e-29
-4.35006e-31
-3.1416e-29
-7.07952e-30
-1.33334e-29
-9.96079e-30
9.87383e-30
7.88259e-31
-2.78389e-30
5.94638e-29
4.13199e-29
-4.32249e-29
-1.24609e-29
3.54456e-29
-3.55794e-29
4.58274e-32
4.04531e-29
-6.30171e-31
-1.3094e-29
1.33513e-29
3.6377e-29
1.3088e-30
-1.12609e-29
-1.37085e-29
-1.47463e-29
1.5008e-29
-1.67989e-29
1.42754e-29
-7.64981e-30
-1.32302e-28
1.73945e-28
-2.02413e-29
-7.79352e-30
-6.2275e-30
6.24639e-30
-1.62055e-29
3.28349e-29
-5.13177e-31
5.69165e-30
-4.26203e-29
-6.31468e-29
1.19382e-29
-4.81637e-29
-7.77257e-30
-7.71036e-29
8.75419e-29
-7.28823e-29
1.68307e-29
-6.26488e-29
-8.13937e-29
-6.98163e-29
1.12573e-29
-3.87185e-30
-5.46369e-29
-2.4079e-29
-1.94296e-29
3.88877e-29
-8.43315e-29
-2.74001e-29
9.34499e-29
-1.23616e-28
1.06834e-28
-1.21953e-29
-8.95888e-29
9.11244e-29
-4.21352e-29
-1.01573e-28
-8.16619e-29
9.12873e-30
3.04175e-29
-7.82431e-29
-1.01348e-28
-3.92971e-29
-4.63817e-29
6.73006e-29
-7.85289e-29
-2.93574e-28
2.10888e-28
1.72087e-29
3.16886e-29
-8.30572e-29
-5.44221e-29
-8.83738e-29
1.16527e-28
-5.26363e-29
-7.02743e-30
-1.37496e-28
8.28899e-29
-5.49659e-29
3.87922e-29
-4.05505e-29
-2.46245e-29
-9.84508e-29
4.74191e-29
-7.72267e-29
4.22777e-29
7.43092e-30
-5.82404e-29
-1.08158e-29
9.8757e-29
-9.75378e-29
-1.00982e-28
2.45566e-29
-1.18081e-28
1.02332e-28
1.78651e-29
-7.89352e-29
-1.04543e-28
-1.1104e-28
-1.94128e-29
9.75211e-29
-1.04998e-28
-2.01425e-31
1.14954e-28
-3.06078e-29
-9.58709e-29
-6.46648e-30
9.99981e-29
5.15996e-30
9.47927e-29
1.15269e-28
-1.01711e-28
5.27777e-30
-4.36003e-31
1.5564e-29
-1.65212e-29
1.33101e-30
-8.63791e-29
8.71082e-29
2.09407e-30
-2.86116e-29
-4.11301e-32
-2.08391e-30
-9.47524e-29
-9.22476e-29
1.11018e-30
-4.91807e-30
-1.23978e-29
1.07062e-28
-1.7334e-29
2.35257e-29
-9.80095e-29
-9.31764e-29
-5.48102e-30
1.7076e-29
3.25237e-29
4.39491e-29
6.29217e-29
-4.64463e-29
2.30995e-29
-5.80823e-30
4.51363e-29
-4.14176e-29
7.30738e-29
-1.14018e-28
-1.36214e-29
-8.5753e-29
9.7835e-29
2.24213e-30
8.84081e-29
-7.44701e-29
-8.51374e-29
7.97881e-29
6.03766e-29
5.35993e-29
-4.35965e-29
-5.2662e-29
3.03073e-29
9.23637e-29
-9.01649e-29
8.41059e-29
-7.66815e-30
8.06287e-29
6.08868e-30
-2.79512e-31
-8.76899e-29
-2.15349e-29
4.3775e-31
4.95677e-29
7.75713e-30
-7.80176e-30
7.0156e-29
1.43883e-29
1.8594e-29
1.16949e-28
2.74206e-29
-8.56228e-31
9.18066e-31
-5.42492e-29
4.30884e-29
-7.96971e-31
5.0953e-31
-3.75136e-31
-6.72508e-30
-1.44469e-31
3.33006e-31
6.46223e-29
-1.81929e-29
-6.95859e-29
1.31877e-30
9.92471e-30
-3.17506e-30
2.92941e-30
4.68858e-29
3.753e-29
-6.87464e-31
3.70565e-29
-6.56991e-31
-6.02254e-29
1.45769e-28
2.54843e-31
-3.35842e-30
-1.3194e-28
1.56407e-31
-2.17335e-30
-4.91458e-29
4.44901e-31
-6.8522e-31
-6.10048e-29
1.34466e-28
-7.06013e-30
-8.88908e-30
1.31278e-30
-2.60068e-30
2.72749e-29
-8.21585e-29
-1.20311e-28
5.77096e-29
-6.1116e-30
-7.21899e-29
-1.9192e-29
6.97153e-30
1.24607e-29
-2.89403e-29
5.10604e-29
-5.47972e-29
-6.97362e-29
-7.59303e-29
8.07598e-29
3.42088e-29
-8.95137e-30
-1.7898e-28
-1.73796e-28
-5.18054e-29
4.59438e-30
1.47836e-29
2.77997e-29
4.03981e-29
2.6788e-29
-4.0365e-29
-3.12744e-29
2.19929e-29
6.98484e-29
1.04002e-28
-9.24396e-31
1.50103e-29
2.21391e-31
-1.44954e-29
-8.44547e-29
1.71627e-30
-1.03632e-30
-4.90792e-31
-1.47126e-29
-3.07928e-31
-3.36675e-29
-1.30329e-28
1.71986e-30
6.54497e-30
-5.73368e-30
1.72441e-30
4.10972e-30
-1.53605e-29
1.61215e-29
-3.56262e-30
5.42719e-30
3.446e-30
1.89543e-29
3.00861e-29
1.18793e-30
-1.38131e-29
1.36728e-28
-5.85232e-29
3.73465e-29
3.73885e-29
-2.79993e-29
-2.78697e-29
-2.08074e-30
-2.926e-30
1.13859e-30
-8.87374e-31
)
;

boundaryField
{
    back
    {
        type            empty;
        value           nonuniform List<scalar> 0();
    }
    front
    {
        type            empty;
        value           nonuniform List<scalar> 0();
    }
    left
    {
        type            calculated;
        value           uniform 0;
    }
    top
    {
        type            calculated;
        value           uniform 0;
    }
    right
    {
        type            calculated;
        value           uniform 0;
    }
    bottom
    {
        type            calculated;
        value           nonuniform List<scalar> 8(-1.44706e-28 -1.4492e-28 -4.53413e-29 -7.43882e-29 -1.6524e-28 1.55087e-29 -3.83413e-30 -9.84587e-29);
    }
}


// ************************************************************************* //
