/*--------------------------------*- C++ -*----------------------------------*\
  =========                 |
  \\      /  F ield         | OpenFOAM: The Open Source CFD Toolbox
   \\    /   O peration     | Website:  https://openfoam.org
    \\  /    A nd           | Version:  9
     \\/     M anipulation  |
\*---------------------------------------------------------------------------*/
FoamFile
{
    format      ascii;
    class       surfaceScalarField;
    location    "1";
    object      phi;
}
// * * * * * * * * * * * * * * * * * * * * * * * * * * * * * * * * * * * * * //

dimensions      [0 3 -1 0 0 0 0];

internalField   nonuniform List<scalar> 
3673
(
-3.1587e-07
3.28938e-08
2.82976e-07
3.66682e-07
-2.14192e-07
-1.5249e-07
-2.79071e-08
-2.87962e-07
-1.11056e-07
-4.27957e-08
1.53852e-07
7.41601e-08
-1.85216e-07
-1.56601e-07
-1.13042e-07
2.69643e-07
-9.57814e-08
1.74426e-07
-7.86445e-08
-1.48706e-07
-1.25836e-07
2.74541e-07
-1.42221e-07
4.64392e-08
1.03382e-07
-2.59982e-07
-1.14207e-07
1.01122e-07
1.30847e-08
1.27779e-07
-1.02533e-07
-2.52456e-08
1.24156e-07
2.42526e-07
1.16501e-07
-1.81172e-07
6.46714e-08
9.11145e-08
1.68655e-07
-3.05787e-07
1.37132e-07
1.51853e-07
2.25726e-08
3.52802e-08
-3.52802e-08
1.59035e-07
-7.18209e-09
-8.46237e-08
2.01124e-07
1.76172e-07
-1.72824e-07
-3.34817e-09
6.2138e-08
-6.2138e-08
1.17127e-07
-2.65833e-07
-1.574e-07
1.46377e-07
1.10227e-08
-8.8513e-08
-2.56935e-08
1.07513e-07
2.0266e-08
-1.9186e-07
1.87572e-07
4.28799e-09
-1.12432e-07
1.07321e-07
-1.05033e-07
-2.28848e-09
2.25922e-07
-1.74262e-07
-5.166e-08
1.82203e-07
4.37188e-08
2.39456e-07
-5.72528e-08
2.37271e-07
-2.51428e-07
1.41569e-08
2.01085e-08
-1.15857e-07
9.57488e-08
-1.34331e-07
1.72952e-07
-3.86216e-08
-5.14807e-08
8.1277e-08
-2.97963e-08
-7.80058e-08
2.65251e-08
-4.33484e-08
-3.46574e-08
-8.6895e-08
8.6895e-08
-3.94884e-08
4.96327e-08
-1.01443e-08
-5.17257e-08
5.17257e-08
-5.29766e-08
6.74203e-08
-1.44437e-08
9.55566e-09
-9.55566e-09
-9.3225e-08
9.8093e-08
-4.86798e-09
2.81181e-08
-2.81181e-08
2.92372e-08
-1.11914e-09
2.92372e-08
-1.07189e-07
1.00288e-07
6.90033e-09
-4.01831e-08
4.01831e-08
1.17045e-07
-7.89649e-09
-1.09148e-07
-1.64443e-07
9.30923e-09
1.55134e-07
-1.08597e-07
1.65971e-08
9.19999e-08
8.59952e-08
-7.39598e-09
-7.85992e-08
-6.36274e-08
-7.56037e-10
6.43835e-08
-1.43934e-08
-4.35755e-09
1.8751e-08
-1.23347e-07
1.69731e-08
1.06374e-07
1.78939e-07
1.14643e-09
-1.80086e-07
-2.5867e-08
-4.03659e-09
2.99036e-08
1.2368e-07
-1.31334e-07
7.65407e-09
1.18216e-07
-1.12473e-07
-5.74237e-09
-1.1922e-07
1.3475e-07
-1.55302e-08
-1.36294e-07
1.65082e-07
-2.87885e-08
2.46466e-07
-9.19499e-09
-2.49487e-07
2.21566e-07
2.79206e-08
-1.89599e-07
1.14558e-07
7.50407e-08
-7.52711e-08
-3.8198e-08
1.13469e-07
-7.83512e-08
7.51948e-08
3.15647e-09
-6.64603e-08
6.36708e-08
2.78949e-09
-1.96356e-08
1.5167e-08
4.46866e-09
-4.281e-09
-5.55014e-10
4.83602e-09
1.23416e-08
-1.73815e-08
5.03986e-09
7.63777e-08
-7.95848e-08
3.20706e-09
8.60753e-08
-8.80121e-08
1.93676e-09
-9.7669e-08
4.44393e-09
1.43266e-07
-2.69102e-07
-9.52419e-08
-1.19467e-08
-4.42696e-08
2.36231e-07
-1.91961e-07
-1.36356e-07
6.35566e-08
7.27997e-08
7.20214e-09
2.04643e-08
-2.76664e-08
-1.43143e-08
4.81846e-08
-3.38703e-08
-3.65981e-08
3.65981e-08
5.03286e-08
-5.03286e-08
6.93431e-08
-6.93431e-08
1.01338e-07
-1.01338e-07
-1.54949e-07
1.54949e-07
-1.54618e-07
1.54618e-07
1.20332e-07
-1.20332e-07
3.2175e-08
-3.2175e-08
6.88126e-08
-1.13424e-07
4.46111e-08
-1.44586e-07
1.44586e-07
2.21406e-08
-8.17137e-09
-1.39692e-08
3.01026e-08
-1.69502e-08
-1.31524e-08
-2.67033e-08
4.13338e-08
-1.46305e-08
-5.02659e-08
6.70921e-08
-1.68262e-08
7.79508e-08
-6.02142e-08
-1.77367e-08
8.96092e-08
-7.12698e-08
-1.83394e-08
1.03479e-07
-8.51093e-08
-1.837e-08
-9.22431e-10
9.22431e-10
-1.32367e-07
1.48187e-07
-1.58199e-08
-1.45444e-07
1.58572e-07
-1.31278e-08
-1.58258e-07
1.68738e-07
-1.04803e-08
1.62787e-07
1.33851e-08
2.14927e-07
4.51124e-09
-2.19439e-07
-2.20268e-07
1.47436e-08
2.05524e-07
1.94359e-07
-1.54197e-08
-3.02819e-08
4.41489e-09
-1.54871e-08
-1.41913e-07
-2.87953e-07
1.36756e-07
1.51197e-07
-4.02915e-08
1.0844e-10
2.55281e-08
9.75202e-09
-1.52316e-07
-1.32824e-08
1.65598e-07
-3.2795e-09
-1.88581e-07
-4.02915e-08
8.01145e-09
1.85327e-07
-1.93339e-07
-1.83855e-08
1.52352e-09
1.05798e-07
-1.0686e-07
6.58853e-09
1.00272e-07
1.44687e-07
-2.57729e-07
2.30494e-07
-2.29155e-07
-1.33911e-09
-1.86392e-09
-8.95222e-08
9.13862e-08
6.36274e-08
-1.48948e-09
2.32461e-07
-2.24449e-07
1.02268e-07
-1.0657e-07
-1.40348e-07
1.38484e-07
-1.59027e-07
6.71127e-09
-1.0226e-07
5.9464e-08
-5.408e-09
1.17045e-07
-1.08597e-07
-2.51782e-09
-1.43934e-08
-1.58345e-08
-5.28655e-09
1.79548e-07
-1.74261e-07
2.81502e-07
-2.48608e-07
-3.8768e-08
-1.07202e-07
2.16991e-09
4.42208e-09
-1.23642e-07
9.91417e-09
-1.46208e-07
1.7865e-07
7.13396e-09
-1.85784e-07
-5.70526e-09
-2.43782e-07
-1.55639e-08
-1.74035e-07
-4.12075e-08
-3.40635e-08
-5.71118e-08
-4.50739e-08
1.02186e-07
-1.75738e-07
4.14076e-08
-1.94227e-07
1.92606e-07
1.62068e-09
9.71162e-08
-1.5099e-08
-8.20173e-08
-9.96761e-09
-6.83836e-08
-5.67535e-08
-9.70684e-09
3.449e-08
-9.37944e-09
-2.51105e-08
-1.12866e-08
-8.34902e-09
-1.14862e-08
7.20516e-09
2.0528e-08
-8.18634e-09
-5.80867e-08
5.11004e-09
1.39101e-07
-1.54209e-08
-7.10495e-08
3.25325e-10
7.07242e-08
-4.7177e-09
8.10954e-08
-2.46115e-09
8.85365e-08
-1.91862e-08
1.19474e-07
-1.21636e-08
-7.47315e-08
8.49527e-08
-2.31933e-08
2.01843e-07
-1.97455e-07
8.25392e-08
-1.39651e-07
1.02648e-07
-2.13126e-08
-1.72914e-07
5.99644e-08
-6.70291e-09
-4.50228e-08
2.7787e-08
-9.61874e-10
1.05175e-08
-7.20114e-08
2.62088e-09
2.66163e-08
-1.04239e-07
4.23866e-08
1.97069e-07
-2.09041e-07
-7.37808e-08
-4.20765e-08
9.91715e-08
-5.66308e-08
-1.01896e-09
-3.84694e-08
5.07067e-08
5.36804e-09
6.20523e-08
-4.18761e-09
6.1687e-10
9.74762e-08
-2.75012e-08
2.07144e-09
8.48236e-08
-1.96634e-07
9.32573e-09
1.87308e-07
-9.06126e-09
1.31205e-07
-9.78933e-08
-1.59141e-07
1.8521e-07
-5.75095e-08
1.61704e-08
-4.11136e-08
-2.16302e-08
-1.09704e-07
9.35277e-09
1.08863e-07
1.45925e-08
1.20158e-07
2.20805e-08
1.43002e-07
-4.20097e-09
2.50667e-07
5.37489e-09
2.16192e-07
-1.87228e-08
1.33281e-07
-4.6949e-08
8.75102e-09
-8.9321e-09
8.41269e-08
-7.00518e-09
7.0676e-08
-1.29286e-08
2.80955e-08
-1.32667e-08
1.27117e-08
-1.47558e-08
-2.62563e-09
-1.25644e-08
-6.70204e-08
-9.38465e-09
-7.86274e-08
-1.03566e-08
-8.73123e-08
-1.1984e-08
-1.16591e-09
-2.97353e-08
2.78225e-08
2.03621e-08
-2.35552e-09
-3.42425e-08
3.8768e-08
5.47506e-08
-4.09758e-08
7.92573e-08
-5.47506e-08
1.08472e-07
-7.92573e-08
-1.5915e-07
1.49243e-07
-1.49243e-07
1.39054e-07
7.91241e-08
-1.39054e-07
-1.28989e-08
-7.91241e-08
1.1022e-07
-3.52179e-08
-7.82058e-08
-1.42965e-07
1.1617e-08
1.32969e-07
1.32085e-08
-2.32703e-08
2.30974e-08
-2.69178e-08
-3.64101e-08
1.0289e-08
3.10448e-08
-5.96453e-08
5.41635e-08
6.46841e-08
-7.15008e-08
7.48533e-08
-8.27559e-08
1.41115e-08
8.93677e-08
-9.32956e-08
4.18761e-09
-5.71593e-09
6.63836e-09
-1.32041e-07
1.35622e-07
-1.50162e-07
1.49188e-07
-1.60719e-07
1.58381e-07
-7.21804e-09
2.22145e-07
1.72045e-07
-1.67534e-07
-1.78634e-07
5.81011e-09
-9.31704e-08
-2.48175e-07
7.9274e-10
-1.13266e-07
9.27779e-08
-9.22966e-08
-4.81286e-10
3.11345e-09
8.96645e-08
4.09758e-08
-1.8866e-07
1.91082e-07
-1.96368e-07
2.27214e-07
1.82287e-07
-2.26556e-07
-5.88867e-09
-2.23266e-07
2.4888e-07
-1.26494e-08
-1.14312e-08
-5.07067e-08
-1.57441e-07
1.72185e-07
1.4827e-07
-1.38944e-07
-9.67036e-08
9.44706e-08
2.23293e-09
3.82014e-08
1.95165e-07
-9.83733e-09
-3.79682e-09
-9.29067e-08
2.53708e-07
-1.46089e-07
-8.08591e-09
1.54174e-07
7.84233e-10
9.94876e-08
-3.10492e-09
1.08902e-07
-7.16849e-08
7.26219e-08
-7.26219e-08
-6.7173e-08
6.7173e-08
4.20378e-08
-4.20378e-08
-3.32064e-08
3.32064e-08
2.37908e-08
-2.37908e-08
-1.42213e-08
1.42213e-08
-1.98964e-08
1.98964e-08
-2.30573e-08
2.30573e-08
-8.93977e-08
-6.20109e-08
1.51409e-07
8.05861e-09
-1.53051e-07
1.44992e-07
-2.19146e-07
1.4708e-07
7.2066e-08
-2.24001e-07
2.21922e-07
2.07907e-09
-1.5394e-07
1.94291e-07
-4.03505e-08
1.77791e-07
-1.54703e-07
-2.3088e-08
-1.57174e-07
1.68451e-07
-1.12774e-08
-1.01494e-07
1.01494e-07
1.44473e-07
-1.54576e-07
1.60113e-07
-5.53699e-09
3.82784e-09
-1.42772e-07
8.48236e-08
9.17239e-08
1.89276e-07
-1.00249e-07
1.96827e-07
-4.72205e-08
-4.68295e-08
-2.74006e-08
2.74006e-08
-2.66163e-08
-1.47793e-08
-2.60501e-08
-4.27821e-08
6.88487e-09
1.10937e-07
9.92177e-08
4.21564e-08
9.77045e-09
2.1096e-09
2.2924e-09
2.98503e-09
4.36271e-09
4.57953e-09
3.70381e-09
2.46796e-09
1.22413e-09
7.47315e-08
-6.94654e-08
-6.43835e-08
6.94654e-08
4.50228e-08
-3.75691e-08
-2.83704e-08
3.75691e-08
2.83704e-08
-1.8751e-08
-1.05175e-08
1.74284e-08
-1.74284e-08
2.18331e-08
-2.18331e-08
2.75012e-08
2.1539e-08
5.14582e-08
1.07276e-07
-7.80103e-08
-1.91225e-07
1.89236e-07
-2.33196e-07
2.28807e-07
-1.82729e-07
1.51509e-07
1.51741e-07
-1.70233e-07
-1.62916e-07
1.53672e-07
-9.17239e-08
1.09148e-07
-1.49842e-08
7.85408e-08
-1.57681e-07
1.55858e-07
4.25524e-09
9.61394e-08
4.51426e-09
-1.50603e-07
6.95036e-10
-1.07431e-07
-1.39653e-07
-2.7064e-08
2.7064e-08
4.10936e-10
8.69227e-08
-8.73336e-08
-2.45882e-08
2.49991e-08
2.41205e-08
-2.41205e-08
-8.89414e-08
1.0313e-07
-1.41885e-08
8.83413e-08
-1.41862e-09
-2.45882e-08
-8.37709e-08
8.56408e-08
-1.86989e-09
-8.45954e-08
8.24472e-10
-8.70348e-10
-2.61936e-08
8.21031e-08
-8.32023e-08
1.09918e-09
-2.49226e-09
-7.99086e-08
-3.29369e-09
-8.13233e-08
1.41466e-09
-7.71051e-08
-4.2182e-09
-8.9664e-08
7.22546e-10
-7.88581e-08
1.75307e-09
1.17771e-08
7.81072e-08
-8.98844e-08
-1.88894e-08
3.06665e-08
-7.36509e-08
-5.20721e-09
8.78693e-08
4.71966e-10
-7.57494e-08
2.09851e-09
6.95428e-08
-7.19812e-08
2.43832e-09
-6.2066e-09
3.37068e-08
-3.77748e-08
4.06802e-09
6.48074e-08
-6.75708e-08
2.76342e-09
-7.17377e-09
-4.67665e-10
-5.94927e-08
-8.0781e-09
-6.25601e-08
3.0674e-09
-5.36593e-08
-8.9008e-09
-5.70071e-08
3.34774e-09
1.13647e-08
3.43624e-08
-4.57271e-08
-4.73752e-08
-9.6319e-09
3.43027e-08
-2.2938e-08
-5.09825e-08
3.6073e-09
-4.07102e-08
-1.02723e-08
-4.45576e-08
3.84739e-09
-1.96699e-08
1.53111e-08
4.35882e-09
2.54711e-08
-2.54711e-08
-1.82822e-08
9.63894e-08
-1.79463e-09
-2.29692e-09
6.09149e-08
-5.8618e-08
-3.46699e-09
1.57406e-08
-1.22736e-08
-8.03294e-09
4.56595e-09
-6.52764e-08
6.29795e-08
4.34761e-09
-1.23805e-08
-1.93206e-10
4.54081e-09
-2.32988e-08
4.40939e-09
1.20812e-08
-1.22744e-08
7.58037e-09
4.50078e-09
1.1226e-08
4.51463e-09
-1.08508e-08
-1.74137e-08
5.17761e-08
-1.20728e-08
3.03856e-08
3.91713e-09
-4.1219e-08
3.75862e-08
3.6328e-09
-1.08334e-08
-6.29153e-08
6.29153e-08
4.78028e-08
-1.02167e-08
4.44849e-08
3.3179e-09
2.61936e-08
-2.49991e-08
-5.4021e-08
5.1039e-08
2.98201e-09
-9.53604e-09
5.98501e-08
-8.81112e-09
-2.35116e-08
-6.08934e-10
-1.20895e-08
5.72139e-08
2.63614e-09
6.09149e-08
-8.06244e-09
2.64984e-08
2.07762e-07
-2.34261e-07
-1.28955e-08
-5.89412e-08
7.18367e-08
9.63524e-08
-1.02016e-07
5.66341e-09
1.1112e-07
-1.47675e-08
3.62965e-07
-3.51655e-07
-1.13102e-08
3.55213e-07
7.75235e-09
1.0356e-07
7.55939e-09
1.54889e-08
-1.54889e-08
1.22309e-07
-1.87482e-08
-2.03848e-08
-2.10136e-07
2.30521e-07
3.69299e-07
-3.6217e-07
-7.12982e-09
1.70141e-08
-3.1633e-09
-1.38508e-08
1.12822e-07
9.48706e-09
-2.7001e-08
2.30535e-07
-2.03534e-07
-4.53767e-07
4.57784e-07
-4.01693e-09
-3.47233e-07
3.558e-07
-8.56636e-09
3.57338e-07
1.19618e-08
-4.20824e-07
4.26032e-07
-5.20817e-09
3.47014e-07
-3.3733e-07
-9.68463e-09
-3.60482e-07
1.32492e-08
-2.64049e-08
-1.13699e-08
3.42408e-07
1.33911e-08
3.37503e-07
-1.08824e-08
-3.26621e-07
-2.2613e-08
1.35435e-07
-1.46974e-08
4.36157e-07
-4.2146e-07
-5.55523e-08
-2.26205e-07
2.81757e-07
-4.17264e-07
4.19511e-07
-2.24676e-09
3.27717e-07
-1.19503e-08
-3.15766e-07
2.00035e-08
-1.30213e-08
-2.52028e-07
2.6505e-07
3.32021e-07
1.49934e-08
-1.99771e-08
-2.06681e-07
2.26658e-07
4.3878e-08
6.18802e-07
-6.6268e-07
-5.71988e-09
3.60933e-07
-3.64676e-07
-1.13279e-08
-9.06879e-08
-1.29054e-08
3.17828e-07
-3.04923e-07
-2.6793e-07
1.59014e-08
-5.4502e-08
2.90435e-08
2.54586e-08
3.48269e-08
6.70087e-07
-7.04914e-07
4.79996e-07
2.65767e-08
-5.06573e-07
-1.35519e-08
-2.30092e-07
2.43643e-07
1.13435e-08
-3.73513e-07
-1.96438e-08
-3.48582e-08
-1.10795e-08
-4.22984e-07
3.21214e-07
1.62889e-08
-1.69071e-08
-2.22678e-07
2.39585e-07
9.66717e-09
6.95405e-07
-7.05072e-07
4.29906e-07
-4.03407e-07
-2.35474e-08
6.87639e-07
-6.64092e-07
-2.00034e-09
3.65127e-07
-7.78915e-09
-3.52374e-07
-8.10808e-09
-1.91698e-08
-2.16469e-07
2.35639e-07
-6.06775e-08
6.43969e-07
-5.83291e-07
3.10351e-07
1.73662e-08
6.80291e-08
-3.89856e-08
-2.0016e-08
-2.1301e-07
2.33026e-07
3.02674e-07
-1.41081e-08
-2.88566e-07
8.33933e-09
3.97176e-07
-4.05516e-07
-9.54035e-08
5.53629e-07
-4.58225e-07
7.75634e-08
1.85534e-09
-7.94188e-08
-4.22776e-07
4.15646e-07
-9.64936e-08
4.09922e-07
-3.13429e-07
2.92602e-07
-1.43216e-08
-2.7828e-07
-5.03008e-07
5.46886e-07
-4.1096e-07
4.02394e-07
-2.94092e-07
3.07905e-07
-1.38138e-08
3.5168e-07
-9.27171e-09
-4.22568e-08
-4.77898e-08
2.61587e-07
-2.13797e-07
-3.64971e-07
3.52066e-07
-2.97798e-07
2.77413e-07
1.43503e-08
2.99554e-07
1.82748e-08
-4.01299e-07
3.91614e-07
4.98671e-07
-4.60986e-07
-3.76853e-08
-4.68464e-07
-3.90184e-07
3.79302e-07
-3.13366e-07
1.92746e-08
5.23862e-07
-4.22101e-08
-4.81652e-07
-5.39467e-07
5.74293e-07
3.42759e-07
-1.07384e-08
-1.41094e-08
2.83381e-07
-2.69271e-07
-3.77978e-07
3.66028e-07
4.17281e-08
2.6301e-08
-4.74581e-07
4.47543e-08
4.29826e-07
5.68622e-09
1.61388e-08
4.43117e-07
5.55545e-08
6.28761e-08
-5.56307e-07
5.65975e-07
2.83419e-07
1.92547e-08
3.36928e-09
1.87328e-07
-1.90697e-07
3.33078e-07
-1.18635e-08
-4.47709e-07
4.51015e-07
-3.30595e-09
-5.49094e-07
5.25546e-07
-5.64542e-07
6.15341e-08
1.73112e-08
-5.19369e-07
4.58692e-07
1.87549e-08
1.91373e-07
-2.10128e-07
2.71002e-08
-1.17891e-08
-3.41104e-07
3.27552e-07
8.15815e-08
-3.98534e-08
2.70345e-07
-2.57096e-07
-3.44359e-07
3.30251e-07
1.63568e-08
2.19263e-07
-2.35619e-07
3.2321e-07
-1.28594e-08
2.73737e-07
1.88645e-08
-5.49155e-07
-7.15213e-09
-4.2171e-08
4.91819e-08
-7.01091e-09
-4.55257e-07
3.59853e-07
-5.74758e-07
3.5291e-08
-1.3518e-08
2.74416e-07
-2.60898e-07
1.8287e-08
1.65877e-07
-4.95609e-07
-5.34845e-08
-1.4431e-07
2.63653e-08
-5.1175e-08
2.48097e-08
-3.60714e-08
2.17513e-07
-1.81442e-07
-3.40812e-07
2.44318e-07
-7.17038e-08
7.17038e-08
-3.30283e-07
3.15962e-07
1.0075e-08
3.11949e-07
-3.28856e-07
2.91507e-09
-8.89149e-08
8.59998e-08
-3.16268e-07
3.02159e-07
-4.2171e-08
-1.24397e-07
1.49855e-07
1.27524e-08
1.10377e-08
1.93396e-08
-2.1533e-07
2.31687e-07
-1.38127e-08
-1.849e-07
2.03655e-07
2.97766e-07
-1.43468e-08
-4.13513e-07
-1.05857e-07
-2.20298e-07
1.72508e-07
-6.87888e-08
-1.67325e-07
1.70694e-07
2.64948e-07
1.84333e-08
1.94858e-08
-5.29998e-08
5.59818e-08
2.88137e-07
-1.43997e-08
8.49677e-09
2.52685e-07
-2.61182e-07
-8.39531e-08
2.19345e-09
8.17597e-08
3.48852e-08
-3.48852e-08
-6.38968e-09
-3.32765e-07
-1.42105e-07
1.42105e-07
-3.02366e-07
2.88848e-07
2.96774e-07
-3.15944e-07
7.57763e-08
-4.07252e-09
3.37102e-07
-9.55004e-09
-3.33016e-07
1.58924e-08
3.17123e-07
-1.25133e-08
2.66531e-07
-2.54017e-07
-1.26895e-07
-1.52095e-08
-2.79511e-07
2.59534e-07
4.60491e-08
-4.60491e-08
-7.57763e-08
8.14398e-08
1.88658e-08
-2.15879e-08
2.26871e-08
-3.74268e-08
-4.74415e-09
6.65953e-08
-6.474e-08
1.11199e-08
-1.11199e-08
-2.35116e-08
-3.00922e-07
-1.54335e-07
1.26901e-07
-1.26901e-07
-2.46714e-07
2.55211e-07
1.38834e-08
2.86455e-09
2.51056e-07
-2.53921e-07
-2.19091e-07
3.41908e-08
-2.22245e-09
2.76236e-07
-2.74013e-07
1.81727e-07
-7.1605e-08
-1.10122e-07
1.0718e-07
-1.0718e-07
-3.74268e-08
-2.89061e-07
2.76548e-07
2.79168e-07
-1.42204e-08
2.78349e-07
-2.80572e-07
8.08952e-08
1.00832e-07
-6.87888e-08
1.66614e-07
-2.06531e-07
3.99174e-08
-2.30525e-08
2.26864e-07
-2.03811e-07
-3.22333e-07
-1.06832e-08
5.33784e-08
-9.19999e-08
1.06824e-08
-5.7383e-08
4.67007e-08
-3.20322e-07
1.8552e-08
3.0177e-07
-1.86181e-07
1.88558e-08
-4.18284e-07
3.91282e-07
4.96819e-08
3.10997e-08
-2.03343e-07
1.72244e-07
2.86964e-07
-3.0698e-07
3.36111e-08
-2.91103e-08
-1.46283e-07
7.46777e-08
-4.2132e-08
-1.63217e-08
1.63217e-08
2.57261e-07
1.71551e-08
-1.98051e-07
8.79285e-08
-1.1034e-08
2.60025e-07
-2.48991e-07
3.24625e-07
-1.26765e-08
2.65805e-07
-2.76839e-07
-2.49364e-07
8.87249e-09
2.40491e-07
-1.64002e-07
-5.62961e-08
3.20177e-09
2.68685e-07
-2.71886e-07
-2.49243e-07
2.52108e-07
1.82703e-08
1.59793e-07
-1.45793e-07
-1.39999e-08
-1.80913e-08
1.44993e-07
-2.27132e-07
3.36111e-08
-7.88029e-08
-1.19248e-07
-1.9951e-07
-1.41302e-07
1.76585e-07
-1.45485e-07
-2.58488e-07
6.57658e-09
2.51911e-07
1.45824e-07
2.01733e-08
-1.84202e-08
4.9729e-09
-2.36507e-07
2.31534e-07
2.414e-08
5.74415e-08
5.55203e-09
-2.78816e-07
2.73264e-07
-1.26812e-07
1.12681e-08
1.15544e-07
-1.38834e-08
-2.61002e-07
2.64203e-07
1.30726e-07
-1.30726e-07
-7.2652e-10
-2.66866e-07
2.67592e-07
-5.8618e-08
-2.48918e-07
-4.46277e-10
1.49025e-07
1.29306e-08
-1.61956e-07
3.38537e-09
4.16126e-07
-1.19239e-08
-1.14888e-07
-1.50763e-08
2.24881e-08
-7.41177e-09
-8.45365e-08
-6.17461e-08
-2.15879e-08
5.33784e-08
-2.16789e-07
1.57802e-07
5.89869e-08
-2.45695e-08
2.45695e-08
5.45727e-08
6.78763e-08
-7.48718e-08
1.01237e-07
1.12593e-07
-1.27037e-07
-2.29216e-07
1.93145e-07
-6.05881e-09
-3.58913e-07
-1.0975e-09
1.0975e-09
3.78212e-08
7.53966e-08
-1.13218e-07
2.7499e-09
-9.16174e-08
9.16174e-08
-3.56837e-07
3.49724e-07
7.11364e-09
-1.21253e-07
1.21253e-07
-4.7048e-09
8.05254e-09
-3.06828e-07
-1.34935e-08
-6.65953e-08
1.08472e-07
-5.29998e-08
-3.40801e-07
3.33451e-07
7.3495e-09
4.26159e-09
9.84862e-08
-9.84862e-08
-1.77024e-07
-2.63196e-08
-8.14398e-08
8.89991e-08
-2.91342e-08
-1.31226e-08
3.81209e-07
-3.87268e-07
-6.64872e-09
3.51268e-07
-3.44619e-07
-1.28842e-07
9.9708e-08
1.96366e-07
-9.93757e-08
-9.69902e-08
2.10062e-07
-4.34481e-08
-1.4103e-07
1.4103e-07
-1.52513e-07
2.09747e-07
-5.72338e-08
-7.14062e-09
-2.95226e-07
-2.00035e-08
2.71357e-07
-1.68495e-09
1.68495e-09
-1.27818e-08
2.29622e-07
-2.1684e-07
8.21776e-09
-1.87166e-08
1.04988e-08
-1.09697e-08
2.49405e-07
-2.38435e-07
-6.5582e-10
1.19239e-08
-6.64584e-09
-2.82416e-07
-1.84297e-08
3.17309e-07
-3.24596e-07
7.28738e-09
-5.4262e-09
-3.72552e-07
2.43634e-07
-2.51477e-07
7.84358e-09
4.7048e-09
1.4767e-07
-5.56507e-09
4.24514e-07
-4.28474e-07
3.95994e-09
-3.16533e-07
3.09393e-07
1.4767e-07
1.26895e-07
-1.97147e-08
2.74119e-07
-2.74846e-07
-6.16692e-08
2.54619e-07
-1.93437e-09
2.13841e-09
2.70618e-07
-1.33572e-08
-3.67139e-09
4.15307e-07
-4.11636e-07
1.18976e-07
-2.70215e-07
1.5124e-07
3.6577e-07
-3.72419e-07
-4.26971e-08
-1.46859e-08
2.26871e-08
3.95625e-07
-4.01051e-07
-2.43017e-07
2.19964e-07
-3.00739e-07
2.94094e-07
2.69525e-07
-8.40378e-10
1.29583e-09
-2.68162e-07
4.14393e-07
-4.18897e-07
4.50426e-09
2.49883e-07
-6.2497e-09
-2.15697e-07
1.73656e-07
4.20413e-08
-4.16212e-09
4.2132e-08
-3.79699e-08
-5.94592e-09
-2.45531e-07
4.02312e-07
-4.07425e-07
5.11358e-09
-2.55189e-07
-4.96819e-08
4.2585e-08
1.22172e-08
-5.48021e-08
1.10795e-08
-6.81792e-09
-7.2226e-09
1.04699e-07
1.08411e-07
1.31589e-07
1.09479e-09
-2.45412e-07
2.44317e-07
-1.23001e-07
3.13841e-08
-2.7499e-09
6.81792e-09
2.35739e-07
-2.42957e-07
-9.21723e-08
5.23188e-08
-1.55417e-07
-6.13719e-08
-2.46254e-07
2.54065e-07
-7.81145e-09
-2.40492e-07
2.41587e-07
1.27715e-08
-1.58565e-07
-8.80684e-08
-1.91119e-08
1.10119e-09
-2.59589e-07
-2.55607e-07
9.35372e-09
1.38457e-07
-1.38457e-07
-2.54164e-09
-2.21606e-07
2.28182e-07
9.39117e-09
-8.70269e-09
-1.32328e-07
-1.00422e-08
1.25586e-07
-1.74993e-08
4.8544e-08
-7.30542e-09
2.02063e-07
-1.94757e-07
-2.04821e-07
2.09794e-07
1.17288e-08
1.38127e-07
2.01733e-08
-6.90445e-09
-3.37454e-07
-4.03093e-08
1.89335e-07
-4.21296e-09
-4.18563e-07
3.11495e-07
-1.47212e-08
-2.66152e-07
8.42348e-09
4.55024e-08
-2.39405e-07
1.93903e-07
-9.64519e-08
1.34273e-07
-3.42425e-08
1.44927e-07
2.74289e-09
-9.95908e-09
2.51163e-07
1.53678e-08
-7.26578e-09
-3.23017e-07
-3.05071e-08
1.54307e-08
-5.32238e-07
5.3404e-07
-1.80169e-09
-4.3625e-07
4.32579e-07
-1.60367e-07
2.13828e-07
-5.34613e-08
4.38659e-07
-4.42872e-07
1.29259e-07
-1.66655e-08
-1.42965e-07
1.50089e-08
-2.451e-07
2.53917e-08
3.84531e-07
1.63339e-07
-9.05398e-08
-2.0663e-08
-1.193e-07
-1.27416e-08
-3.42879e-08
2.78442e-09
-2.49579e-07
2.46794e-07
3.64703e-07
1.06736e-09
-4.57174e-08
-1.21489e-07
1.67207e-07
3.79955e-07
1.25412e-09
-2.4365e-07
-2.48043e-09
2.4613e-07
-1.1404e-07
-3.73589e-07
1.17043e-09
-6.7084e-09
1.98081e-07
2.53486e-07
-2.57169e-07
3.68316e-09
-7.35683e-09
-3.08911e-07
1.80955e-07
-1.9784e-07
1.68852e-08
-2.43986e-07
2.34999e-07
8.98771e-09
-3.57798e-07
9.60998e-10
-1.454e-08
2.55838e-07
-2.60179e-07
4.34148e-09
-1.7202e-08
-4.04563e-09
2.23308e-07
1.50941e-07
-1.05621e-07
-4.53197e-08
1.96975e-07
-2.06389e-07
9.41351e-09
-8.67581e-08
8.67581e-08
3.48859e-07
8.64959e-10
2.48096e-07
-9.91854e-10
-2.47105e-07
3.77395e-08
1.58626e-07
2.50836e-07
-2.60878e-07
-3.55063e-07
3.58448e-07
1.80202e-09
-2.15329e-07
2.13527e-07
-4.34909e-10
2.13176e-08
-2.34328e-07
-2.6493e-07
-1.13137e-09
2.66061e-07
-5.28415e-08
3.79699e-08
-3.41593e-07
7.92016e-10
-6.44845e-11
2.55902e-07
2.07169e-08
-2.27398e-07
1.22395e-08
-1.85154e-07
2.25015e-07
1.72384e-08
-2.42253e-07
3.18707e-08
-8.7594e-09
-2.31113e-08
1.43895e-08
2.67112e-07
-1.33127e-08
8.05254e-09
3.327e-07
7.51465e-10
-7.68599e-10
2.5268e-07
-1.72493e-07
1.65271e-07
-2.75962e-07
2.75613e-07
3.49123e-10
2.45858e-07
-5.78953e-08
-7.2315e-09
1.94539e-07
-1.15312e-08
-6.34921e-09
1.93677e-07
-1.75472e-07
1.88403e-07
-2.27735e-07
2.20504e-07
8.89991e-08
7.2661e-09
2.54321e-07
4.59543e-09
-2.24951e-07
6.36601e-09
2.00469e-07
-1.95142e-08
-8.68631e-08
-4.19791e-08
-2.57676e-07
2.62272e-07
-2.68488e-07
2.67719e-07
-2.73014e-07
-4.29153e-10
2.73443e-07
3.94316e-07
1.30875e-09
-2.11517e-07
5.90047e-08
-2.40907e-07
1.82294e-08
1.66003e-08
-2.51816e-08
1.00578e-07
1.45555e-07
-1.63054e-07
-8.07157e-10
2.65288e-07
-2.6448e-07
-1.42169e-07
2.18401e-07
1.98686e-08
-2.3827e-07
1.86803e-07
1.01722e-08
-1.80557e-08
-1.69944e-08
-1.72216e-09
-1.16461e-07
1.30255e-07
-1.37948e-08
-4.21703e-09
-3.97082e-07
2.34454e-08
1.83414e-07
-5.94103e-07
5.56417e-07
-1.58628e-07
4.07199e-07
-2.33701e-07
-2.80531e-09
-3.88572e-07
1.30399e-09
2.75836e-08
5.26045e-07
5.53279e-08
-2.08527e-07
1.53199e-07
-1.84423e-08
7.77582e-10
4.18074e-08
-1.4806e-08
-3.80355e-08
-1.61799e-07
-5.60396e-08
-3.61327e-08
-9.31975e-09
3.18079e-08
-1.50786e-08
7.10483e-07
7.75497e-10
-5.76391e-08
6.98562e-08
2.74033e-10
1.38704e-09
-2.74401e-07
4.96951e-08
-8.28207e-08
-2.97295e-08
3.01638e-07
-3.08563e-07
6.92437e-09
-2.59624e-07
-3.27328e-08
8.98821e-10
-1.37093e-08
3.25343e-07
2.66405e-07
-2.67212e-07
-5.95881e-09
-2.7088e-07
-2.2962e-07
8.72177e-09
2.20898e-07
8.29966e-10
-2.36953e-07
2.04846e-08
-1.75116e-09
6.8939e-07
4.23926e-07
5.87877e-10
-1.98006e-08
-1.48856e-07
1.68657e-07
-2.57233e-07
-3.76129e-09
-1.61061e-07
1.46255e-07
-2.70051e-07
2.6921e-07
-1.83988e-08
6.88486e-07
1.21721e-07
-7.03247e-08
-5.13967e-08
-1.44927e-07
1.41849e-07
3.07784e-09
5.74407e-09
1.84077e-07
-1.95614e-07
1.1537e-08
-4.80399e-09
-3.8538e-07
1.51478e-07
-1.30161e-07
1.31314e-07
-3.16064e-08
-1.31608e-07
-1.12274e-08
1.42835e-07
-5.87e-09
2.56706e-07
4.13387e-07
1.00514e-09
-1.32723e-07
1.54255e-07
-2.15323e-08
-2.51506e-07
1.10371e-07
-2.72505e-07
2.71896e-07
6.09315e-10
-1.80719e-08
7.46871e-10
1.2607e-09
-4.39622e-07
4.35843e-07
3.77889e-09
8.24775e-09
2.45817e-07
-9.62916e-10
5.84116e-08
1.47126e-07
-1.61757e-07
-2.49455e-07
2.36673e-07
-4.08583e-07
1.15804e-09
-1.29447e-08
3.09012e-08
1.2004e-07
2.93128e-07
9.65622e-10
1.39492e-07
-8.87386e-08
-5.07529e-08
-2.05046e-07
-9.79513e-09
2.14841e-07
2.18433e-07
-2.19978e-07
1.54542e-09
-7.15523e-09
4.42804e-10
2.7517e-07
-1.661e-09
-4.41211e-07
-2.41676e-07
2.6346e-08
1.4959e-08
6.2901e-07
-4.07399e-10
-1.25738e-08
1.70955e-07
-1.38566e-07
1.60136e-07
-2.15697e-08
-4.417e-07
4.40682e-07
1.01835e-09
-1.35525e-07
1.57139e-07
-2.16136e-08
-2.68214e-07
3.26064e-09
4.13862e-07
-4.17123e-07
-2.86807e-07
2.85795e-07
1.01202e-09
-5.65296e-07
3.30581e-08
-1.73373e-08
-2.64094e-07
2.7136e-07
2.7369e-07
6.40639e-09
-2.11453e-07
-1.23001e-07
-4.28804e-07
3.29826e-10
-2.79836e-07
1.01949e-09
-1.14133e-08
2.61742e-07
-2.50328e-07
-2.47144e-08
-1.17194e-07
1.32203e-07
6.32128e-09
-2.28911e-07
1.84202e-08
-4.19709e-07
8.12088e-10
-9.64286e-10
2.71116e-07
-2.70152e-07
-1.41352e-07
-1.72131e-08
-5.87913e-07
-6.18975e-09
-9.87845e-09
-1.67072e-07
1.76951e-07
1.25007e-07
-7.33568e-08
-5.16505e-08
1.89505e-07
-1.95854e-07
-1.37733e-07
1.88405e-07
-2.01533e-07
-2.05052e-07
1.93521e-07
4.32565e-07
1.41897e-11
2.65431e-07
-2.16636e-09
-2.63265e-07
-6.01364e-09
-2.23606e-07
-9.47604e-08
-2.64759e-07
2.66146e-07
-2.54724e-07
2.52789e-07
3.52282e-07
6.1665e-09
7.12964e-08
5.11526e-08
1.81912e-07
-2.2536e-07
-6.25118e-08
1.08014e-07
-2.51306e-07
2.52602e-07
-1.09524e-07
1.83633e-07
-1.98173e-07
-1.3763e-08
1.0931e-07
-5.69915e-08
2.59671e-07
5.61623e-09
2.65342e-07
-2.66473e-07
-1.55606e-09
5.57973e-07
2.723e-07
-5.73016e-08
9.23082e-08
-3.50065e-08
1.79224e-07
-1.95044e-07
2.30136e-07
-2.39932e-07
2.01322e-07
-2.27642e-07
-3.26241e-07
3.43608e-07
-1.7367e-08
-2.08838e-07
1.98358e-07
-5.07995e-10
-2.46e-07
2.43519e-07
-6.474e-08
-4.04795e-08
1.1562e-07
9.96619e-09
1.48785e-07
-1.27817e-07
-2.09672e-08
1.32969e-07
1.15521e-07
-1.34296e-07
1.87745e-08
1.75287e-07
-1.88028e-07
-1.09867e-08
2.41123e-07
-3.45726e-07
3.46591e-07
-2.61465e-07
2.59973e-07
1.49171e-09
-1.18132e-07
1.34292e-07
-1.61596e-08
-1.62396e-07
1.4771e-07
-2.5066e-07
2.52798e-07
-1.28989e-08
4.7613e-08
4.40043e-08
-1.5915e-07
-1.0358e-07
-6.59877e-10
-7.81105e-09
-2.22091e-07
1.6863e-07
1.47026e-07
-1.60338e-07
-1.12959e-07
2.9168e-09
1.10043e-07
1.05085e-08
1.9999e-07
-2.12564e-07
4.4298e-09
3.54619e-07
-3.53658e-07
1.64874e-07
-2.20913e-07
1.09524e-07
-2.91103e-08
1.82403e-07
-1.89938e-07
7.5358e-09
1.37398e-09
-2.52473e-07
1.81341e-09
-1.66087e-07
-2.46897e-07
1.955e-07
6.00676e-08
-5.82655e-08
1.43852e-07
-1.43852e-07
2.3457e-07
-4.61669e-08
1.18482e-09
-2.35269e-08
3.62556e-07
-3.61488e-07
1.69003e-07
-1.85669e-07
1.7573e-07
-1.60299e-07
-1.68194e-07
-2.27021e-07
1.92733e-07
-3.37726e-07
3.38518e-07
-9.86656e-08
1.73236e-08
8.1342e-08
7.59364e-08
-5.75497e-08
-1.83867e-08
-2.92303e-09
2.18324e-07
-8.40512e-08
2.11918e-07
-1.19259e-07
1.36497e-07
1.7769e-07
-2.34681e-07
-1.10751e-08
1.32328e-07
2.208e-08
-1.81408e-07
1.59328e-07
6.63552e-09
-2.35178e-07
2.3202e-07
3.15798e-09
2.47042e-07
9.66347e-09
-1.55059e-08
2.08034e-07
-2.27549e-07
-5.99453e-08
2.27152e-07
-1.75158e-07
1.65839e-07
8.98049e-09
2.57387e-07
-2.66367e-07
-1.5928e-08
-3.75563e-09
2.66753e-07
-2.62997e-07
3.1196e-08
5.02844e-07
-8.54672e-08
2.89512e-08
5.6516e-08
-1.24187e-07
1.87554e-08
2.51806e-07
1.58745e-07
-2.05948e-07
4.72032e-08
-1.6301e-07
1.50066e-07
-3.29691e-07
3.30442e-07
-1.41854e-07
1.63257e-07
-2.14035e-08
-2.1126e-07
6.43919e-09
-4.41359e-08
2.33471e-07
-8.61989e-09
-1.86994e-07
-5.66852e-07
-1.58735e-07
-1.28472e-07
1.98328e-07
-1.44993e-07
1.46167e-07
-1.25682e-07
2.77512e-07
-2.76492e-07
-7.35623e-08
3.83682e-08
3.51942e-08
1.89803e-07
-1.96511e-07
-4.44161e-07
2.46052e-09
-6.9429e-08
2.28055e-07
1.54785e-07
-2.16157e-07
-1.20571e-07
1.388e-07
-2.24092e-08
-2.45521e-07
-6.30123e-07
-1.60034e-07
2.06342e-07
-4.63081e-08
1.84507e-09
-1.67524e-07
1.50698e-07
-2.57079e-07
2.151e-07
2.08919e-07
-1.66901e-07
-4.20178e-08
-2.46627e-07
-1.45329e-07
1.87136e-07
3.70356e-07
-3.69185e-07
2.08676e-07
-1.08098e-07
1.43639e-07
-1.2377e-07
1.59444e-07
-1.90403e-07
3.09593e-08
1.81121e-07
-1.62412e-07
-1.87091e-08
3.55542e-07
1.64915e-07
-1.85578e-07
3.82594e-07
-3.50618e-07
-3.19755e-08
-2.60679e-07
1.08203e-07
-1.67419e-07
1.85098e-07
-1.76792e-08
-1.68785e-07
1.51448e-07
7.12496e-07
-7.14247e-07
-3.99986e-07
4.25377e-07
-2.49774e-07
2.66966e-09
4.39021e-07
4.1488e-07
2.84344e-07
-2.83332e-07
1.15521e-07
4.51808e-08
-6.24307e-08
1.72498e-08
1.87299e-08
1.6879e-07
-1.77493e-07
-2.0879e-07
2.03513e-07
5.27707e-09
-2.33603e-07
2.15248e-07
-1.04877e-07
-4.10435e-07
4.1144e-07
1.46544e-07
-1.59697e-07
-4.81368e-08
4.64518e-08
-3.2166e-07
3.22407e-07
-7.31198e-07
7.16119e-07
1.41184e-07
-1.22071e-07
-1.91126e-08
-1.13205e-08
-7.28127e-07
7.18831e-07
9.2964e-09
1.20219e-08
-1.28482e-07
-2.57614e-07
1.8624e-08
-2.30604e-07
2.38448e-07
-4.04371e-07
4.05529e-07
-1.72713e-07
1.89135e-07
-1.64217e-08
1.63965e-07
-1.798e-07
2.18414e-07
-2.2246e-07
8.50319e-08
2.91515e-07
-2.9055e-07
-1.47307e-08
-2.84325e-07
1.36824e-08
2.70643e-07
6.96359e-07
-6.89781e-07
-6.57877e-09
-4.56615e-08
-7.23191e-07
7.04925e-07
1.82659e-08
2.13619e-07
-1.62972e-07
-5.06464e-08
-1.79417e-07
1.62215e-07
-3.97916e-07
3.99177e-07
4.1687e-07
-4.16058e-07
1.85727e-08
-1.61416e-08
-1.84632e-07
1.59387e-07
-7.01913e-09
2.42018e-07
-2.52908e-07
-1.70199e-07
1.52463e-07
2.98959e-07
-2.9806e-07
1.58753e-07
-1.77123e-07
-3.13676e-07
3.14452e-07
-1.61959e-07
2.17287e-07
-1.75147e-07
1.56705e-07
-4.57931e-09
2.61966e-07
1.3061e-08
-3.91123e-07
3.92432e-07
-1.71711e-07
1.53639e-07
1.98386e-07
-1.39381e-07
3.0662e-07
-3.0579e-07
-1.64428e-07
1.53353e-07
-3.04727e-08
-1.73373e-07
1.55033e-07
2.29555e-08
3.59638e-07
3.87651e-09
2.63152e-07
-1.19893e-08
-9.96995e-10
-5.48807e-08
-1.14625e-08
-1.66471e-08
-1.78236e-07
1.93161e-07
-1.49252e-08
-4.76257e-07
5.05219e-07
-2.89626e-08
3.77969e-07
-3.76715e-07
2.73736e-09
-4.7613e-08
4.9298e-08
-1.53177e-08
-1.74457e-07
2.07251e-07
-3.27943e-08
-2.25056e-07
2.18386e-07
6.67024e-09
-1.34296e-07
4.21792e-07
-4.21205e-07
2.74594e-07
-3.84041e-07
3.85345e-07
-6.92071e-08
-1.78999e-08
6.69201e-07
-6.54242e-07
1.41849e-07
7.36034e-09
2.53209e-07
-1.42059e-08
7.5202e-09
2.6971e-09
-2.36398e-07
-7.04546e-07
6.86147e-07
-6.98075e-08
2.61826e-07
5.24953e-09
4.70873e-07
-4.39677e-07
-4.55275e-09
1.77253e-07
-1.57715e-07
-1.95378e-08
4.26195e-07
-4.25865e-07
1.54557e-08
-1.89482e-08
8.89252e-09
4.26064e-08
4.28266e-07
2.91798e-07
-2.68842e-07
-8.80684e-08
-4.08475e-09