/*--------------------------------*- C++ -*----------------------------------*\
  =========                 |
  \\      /  F ield         | OpenFOAM: The Open Source CFD Toolbox
   \\    /   O peration     | Website:  https://openfoam.org
    \\  /    A nd           | Version:  9
     \\/     M anipulation  |
\*---------------------------------------------------------------------------*/
FoamFile
{
    format      ascii;
    class       surfaceScalarField;
    location    "1";
    object      phi;
}
// * * * * * * * * * * * * * * * * * * * * * * * * * * * * * * * * * * * * * //

dimensions      [0 3 -1 0 0 0 0];

internalField   nonuniform List<scalar> 
3455
(
3.72662e-07
-2.18597e-07
-1.54066e-07
-8.30522e-08
1.24903e-07
-4.1851e-08
1.05008e-07
1.06752e-08
-1.15683e-07
1.13463e-07
-8.45552e-09
2.56826e-07
-2.59828e-07
3.00232e-09
2.31885e-07
2.49409e-08
2.46693e-07
-2.3568e-07
-1.10129e-08
2.04851e-07
4.1842e-08
-8.61332e-08
9.23608e-08
-6.2276e-09
-8.70964e-08
9.63262e-10
3.28356e-07
-3.40734e-07
1.23783e-08
2.73329e-07
5.50271e-08
4.55236e-08
-5.80552e-08
1.25316e-08
5.37767e-08
-8.25309e-09
2.94841e-07
-3.42945e-07
4.81037e-08
2.70167e-07
2.46738e-08
-2.98656e-08
2.41303e-08
5.73529e-09
-1.94e-08
-1.04656e-08
8.78999e-08
-8.60811e-08
-1.81872e-09
9.17011e-08
-3.80127e-09
-5.02652e-09
2.67643e-07
-2.62617e-07
-3.08382e-07
2.59234e-07
4.91476e-08
2.8744e-07
-2.4547e-07
-4.19703e-08
1.03354e-07
1.01098e-08
-1.96317e-08
1.22985e-07
-2.43933e-07
3.30541e-07
-8.66081e-08
-3.04464e-07
6.05304e-08
-2.24406e-07
3.32967e-07
-1.0856e-07
-2.8346e-07
5.9054e-08
2.09023e-07
-2.59631e-07
5.06079e-08
-5.0805e-08
7.02102e-08
-6.7514e-08
-2.69621e-09
8.52337e-08
-1.50234e-08
2.61856e-07
-1.70193e-07
-9.1663e-08
1.75481e-07
-2.51092e-07
7.56116e-08
-2.12511e-07
-1.28223e-07
-6.01994e-08
-2.62746e-07
5.02345e-08
1.40856e-07
-2.18801e-07
7.7945e-08
2.88165e-07
-2.92095e-07
3.93083e-09
2.06592e-07
-6.57357e-08
2.64656e-07
-2.66336e-07
1.68008e-09
-6.1867e-08
7.55458e-08
-1.36788e-08
3.09707e-07
-2.54211e-07
-5.54958e-08
-5.5457e-08
-6.40994e-09
3.16433e-07
-6.72636e-09
1.90958e-07
-2.09562e-07
1.86042e-08
2.06142e-07
-1.51836e-08
-7.82888e-08
-3.01478e-07
2.28333e-07
7.31453e-08
-2.13005e-07
-8.84725e-08
-4.6641e-08
-1.14142e-08
-3.63247e-08
-1.03162e-08
-3.62051e-08
4.47251e-08
-8.52008e-09
-2.20932e-08
-1.41118e-08
-2.4176e-08
3.08527e-08
-6.6767e-09
-7.03262e-09
-1.71433e-08
-1.10164e-08
1.61056e-08
-5.08925e-09
9.03183e-09
-2.00482e-08
3.43321e-09
7.72347e-10
-4.20555e-09
2.64139e-08
-2.29807e-08
2.52215e-08
-1.0912e-09
5.1576e-08
-2.63545e-08
3.87083e-08
-3.94856e-08
7.77305e-10
6.6939e-08
-2.82308e-08
5.08523e-08
-5.33996e-08
2.54724e-09
8.06178e-08
-2.97655e-08
6.18022e-08
-6.59531e-08
4.15089e-09
9.26992e-08
-3.0897e-08
7.14971e-08
-7.67514e-08
5.25433e-09
1.02622e-07
-3.11247e-08
7.93577e-08
-8.49758e-08
5.61814e-09
1.09589e-07
-3.02316e-08
-8.5793e-08
1.1427e-07
-2.8477e-08
5.90812e-09
9.30855e-09
2.26233e-07
3.56235e-08
-3.33985e-08
2.41517e-07
-9.63201e-09
-9.57497e-09
2.28129e-07
-2.3278e-08
9.32792e-09
1.88452e-07
1.81403e-08
-2.11106e-08
1.09436e-07
9.67053e-08
-1.03569e-07
-2.73815e-08
-1.75391e-07
2.02772e-07
2.00951e-07
1.38422e-07
1.49742e-07
-1.15788e-07
2.2279e-07
9.36429e-08
-4.35464e-08
6.58194e-08
1.94143e-08
-3.06136e-07
2.26754e-08
-3.28068e-08
-8.65774e-09
7.44771e-08
-3.05158e-07
6.94296e-10
-5.79755e-08
-9.53851e-09
1.75703e-08
2.78087e-08
2.27031e-07
1.0351e-07
-4.61988e-08
-9.25827e-09
7.5779e-09
-2.79951e-07
1.72047e-08
-9.78312e-09
-3.01792e-08
-6.14552e-09
1.45459e-08
-1.78863e-08
-4.20695e-09
1.29664e-08
-4.50561e-09
-2.52702e-09
1.16e-08
9.81638e-09
-7.84548e-10
1.05887e-08
-2.64689e-08
7.06883e-09
-5.49927e-11
4.54769e-08
6.09907e-09
5.99135e-09
8.83778e-08
2.58922e-08
5.72382e-08
9.70076e-09
3.83868e-09
1.28134e-09
6.76158e-08
1.30019e-08
1.66276e-09
7.63037e-08
1.63955e-08
-4.47764e-10
8.26645e-08
1.99573e-08
-2.31134e-09
8.67148e-08
2.28744e-08
6.33682e-10
-2.04138e-07
-8.79577e-08
-2.28168e-07
5.79748e-08
2.66151e-07
-3.91203e-08
2.36751e-07
1.35911e-07
2.21807e-07
-1.67256e-07
-5.45511e-08
9.38291e-08
-1.51923e-08
-2.93189e-07
1.24598e-08
2.74981e-07
7.19766e-08
5.86743e-08
2.87966e-08
-2.87966e-08
-6.61118e-08
-6.13658e-08
1.03648e-07
1.1816e-07
2.1267e-07
-2.17696e-07
-1.67408e-07
1.5563e-07
1.17785e-08
-2.0187e-07
1.97719e-07
4.15093e-09
-2.92133e-09
-1.06785e-08
1.35999e-08
1.14136e-08
-1.4335e-08
8.96046e-09
-2.04234e-07
1.95273e-07
5.44732e-08
7.043e-08
-5.40956e-09
2.26034e-07
-2.20625e-07
-1.64577e-08
-1.5095e-07
-2.86078e-07
2.85417e-07
6.60936e-10
-2.02412e-08
9.22178e-08
1.94402e-08
9.35639e-09
1.46713e-08
-8.07831e-08
-2.43468e-08
-2.61731e-07
-3.0295e-09
-1.9884e-07
2.61436e-07
-2.52475e-07
8.36536e-09
1.95262e-07
-2.03627e-07
-2.71797e-07
2.66388e-07
2.4065e-07
-2.39648e-07
-1.00192e-09
-1.90496e-09
-9.55237e-08
9.74287e-08
2.42973e-07
-2.34608e-07
-1.49041e-07
1.47136e-07
2.80777e-07
-1.31337e-08
-2.06512e-07
9.13748e-09
1.97374e-07
-8.79292e-09
9.91535e-08
-9.81491e-08
-1.00438e-09
3.42007e-09
9.57334e-08
2.3762e-07
-6.43072e-09
-2.33217e-07
2.53116e-07
-7.92408e-09
-2.45192e-07
1.56579e-07
-1.47442e-07
-1.0229e-07
1.00228e-07
2.0615e-09
-1.69289e-07
-7.91505e-08
2.4844e-07
1.6404e-08
-2.65189e-07
2.48785e-07
2.67213e-08
2.34715e-07
2.05773e-07
-1.05115e-08
-2.71675e-07
1.02385e-07
-3.43795e-09
-9.88517e-08
-2.51712e-07
2.68116e-07
-1.54802e-07
-6.54102e-09
1.61343e-07
2.49152e-07
3.96458e-09
-2.59636e-07
-2.26455e-08
-2.63217e-07
-1.97176e-09
1.53141e-07
3.84519e-09
-1.51287e-07
2.85955e-07
1.99343e-07
-2.21022e-07
1.67885e-08
-1.25855e-08
6.70588e-08
2.42832e-07
-1.67975e-08
2.66371e-07
-1.80862e-09
-2.64562e-07
3.15366e-09
3.59157e-09
-1.58393e-07
5.02646e-10
-1.71127e-07
1.29276e-07
-2.73313e-07
2.71505e-07
-1.48538e-07
-2.18786e-07
2.2275e-07
1.44879e-09
-2.20234e-07
1.63977e-07
-1.62528e-07
2.16294e-10
1.63761e-07
3.94795e-10
8.88514e-08
-8.92462e-08
-2.49982e-08
2.5393e-08
2.46e-08
-2.46e-08
8.98894e-08
-1.038e-09
8.50868e-08
-8.59164e-08
8.29561e-10
3.0632e-09
1.52273e-07
-1.55336e-07
-8.14775e-08
8.45407e-08
-2.49982e-08
2.57684e-08
-2.57684e-08
8.63472e-08
-8.6987e-08
6.39785e-10
8.7841e-08
-1.49384e-09
-5.38148e-09
1.57655e-07
-8.95139e-08
8.97302e-08
-7.60207e-08
8.05697e-08
-4.54896e-09
-3.98149e-10
-7.78655e-08
1.84477e-09
-7.2526e-08
-5.33951e-09
-7.46451e-08
2.11913e-09
-6.85269e-08
-6.11816e-09
-7.091e-08
2.38302e-09
-1.90019e-09
5.3917e-08
-5.69462e-08
3.02916e-09
-6.40563e-08
-6.85362e-09
-6.6684e-08
2.62766e-09
-5.9165e-08
-7.51903e-09
-8.27798e-08
1.30238e-09
-6.20103e-08
2.84531e-09
7.90003e-08
1.56935e-09
2.16819e-07
1.89425e-09
-2.18713e-07
-5.15671e-08
4.83893e-08
3.17775e-09
-8.09324e-09
6.07825e-11
2.57076e-08
-4.2668e-08
-8.89902e-09
-3.7545e-10
-2.5393e-08
-4.59715e-08
3.30344e-09
-3.67969e-08
-9.17459e-09
-8.5569e-09
-4.02032e-08
3.40633e-09
-3.11259e-07
4.01185e-08
2.7114e-07
-3.08129e-08
-9.39027e-09
-3.42788e-08
3.46587e-09
-3.77954e-09
-1.79807e-08
-2.89371e-08
4.69177e-08
2.4792e-08
-2.82756e-08
3.48364e-09
-9.48683e-09
-1.87874e-08
-9.48827e-09
-2.22553e-08
3.46791e-09
5.65738e-08
-5.06943e-07
4.5037e-07
-7.29952e-08
5.50011e-08
1.79941e-08
-1.28423e-08
-9.41291e-09
1.30166e-09
-4.49475e-09
3.19309e-09
-4.13668e-07
5.39837e-08
3.59684e-07
-1.62642e-08
3.42188e-09
-2.02836e-08
2.02836e-08
-6.99954e-09
-9.26469e-09
3.09039e-08
-1.84953e-07
1.54049e-07
-1.03375e-08
3.33792e-09
-3.57094e-07
8.1781e-09
6.87039e-08
-7.6882e-08
9.37587e-09
-1.19777e-09
-1.54495e-08
-5.75457e-08
1.65216e-07
-1.63121e-07
-2.09515e-09
-2.57275e-07
-3.41558e-09
2.55154e-08
6.15701e-09
-3.16724e-08
-7.86325e-08
1.04148e-07
1.63566e-07
-1.61672e-07
-1.21027e-08
8.08067e-08
-4.9173e-10
-2.41083e-08
1.72791e-07
-7.57446e-09
2.0517e-07
-2.08578e-07
3.40808e-09
-3.29967e-09
2.0847e-07
2.4073e-07
-2.4403e-07
-9.03581e-09
-1.31727e-07
1.31727e-07
-4.06433e-08
2.26626e-08
-1.8786e-07
1.58923e-07
-1.47742e-07
-8.34877e-08
-2.42867e-09
6.64153e-09
2.73434e-09
-1.87142e-08
2.1586e-08
6.14262e-09
-2.63554e-07
2.57411e-07
-1.24052e-07
-7.67548e-09
-4.90378e-07
5.26301e-07
-3.59236e-08
1.18227e-08
-1.42891e-08
2.46639e-09
-4.6744e-07
-3.95036e-08
-5.49783e-07
5.64276e-07
-1.44921e-08
-5.45199e-07
5.48211e-08
1.57341e-07
2.33623e-08
-1.67017e-08
-6.66059e-09
2.98303e-09
-1.66104e-07
4.32826e-08
-4.32826e-08
1.89375e-08
-7.11482e-09
2.12709e-08
2.09144e-09
-6.26716e-07
6.11857e-07
1.48591e-08
-5.81972e-07
3.21889e-08
5.97945e-07
-6.06758e-07
8.81346e-09
-1.24052e-07
8.28836e-09
-9.08862e-08
8.25979e-08
5.88618e-08
5.79851e-07
1.80941e-08
-5.19192e-07
-2.60072e-08
2.23572e-09
-6.43082e-07
6.26898e-07
1.61845e-08
1.23692e-07
1.1477e-08
-1.35169e-07
-2.11715e-08
1.44863e-07
4.762e-09
-2.62282e-07
2.5752e-07
2.76627e-08
-6.39179e-09
4.50838e-08
-6.21723e-07
-4.99306e-09
2.45492e-07
-2.1216e-09
-6.22415e-07
6.15445e-07
6.96926e-09
2.5574e-08
2.08868e-09
2.81948e-08
-1.15263e-07
8.70683e-08
-6.25277e-07
-1.78054e-08
-1.03082e-07
1.14559e-07
4.60396e-08
-2.757e-09
5.09908e-09
-5.58609e-07
5.60451e-07
-1.84214e-09
3.20056e-08
-6.43163e-09
1.3471e-07
-6.39404e-07
1.76805e-08
-7.64752e-09
-1.03082e-07
-5.94714e-07
-2.77005e-08
-6.5557e-08
8.01124e-09
-6.76521e-08
3.96209e-08
-1.45262e-07
1.05641e-07
-4.5195e-07
4.46212e-07
5.73795e-09
-9.4926e-09
-1.14559e-07
9.21008e-08
-9.21008e-08
3.21112e-08
-3.21112e-08
-1.25063e-08
-6.3773e-07
1.24535e-08
-5.10926e-07
-4.76829e-08
-2.28918e-09
-4.09935e-08
-2.22848e-08
2.97165e-08
-5.96182e-07
1.46735e-09
4.60396e-08
-3.26302e-07
2.96336e-07
2.99661e-08
-3.57308e-08
-2.59221e-07
2.67693e-07
-8.47171e-09
2.65328e-07
-2.58067e-07
-7.26111e-09
-3.71651e-07
-8.02989e-08
-2.6306e-07
2.7338e-07
-1.03203e-08
-2.37887e-07
-5.09671e-07
-1.25442e-09
-3.44863e-08
-2.26546e-07
1.89736e-07
3.68097e-08
2.57484e-07
7.84451e-09
-2.68928e-07
2.80538e-07
-1.16099e-08
4.182e-09
-8.67676e-09
-2.7034e-07
1.1119e-08
-1.09812e-08
-6.3459e-08
-1.16684e-07
-5.05726e-08
-2.75982e-07
2.8861e-07
-1.26277e-08
-1.55551e-07
8.69059e-09
1.4686e-07
-2.76819e-07
1.37599e-08
-1.93833e-07
1.87779e-07
6.05426e-09
-2.32545e-07
-9.3757e-08
-3.88932e-07
1.72806e-08
-6.06979e-09
1.7332e-07
-1.8931e-07
1.599e-08
-2.28234e-08
4.65778e-08
-2.37545e-08
-4.39949e-08
-2.83723e-07
2.97179e-07
-1.34569e-08
-2.84502e-07
1.55743e-08
-1.7116e-07
-5.53854e-08
-2.7034e-07
3.77952e-08
-9.25961e-08
-8.06039e-08
1.98982e-07
-2.56624e-08
2.78216e-08
2.05236e-07
-2.0498e-07
-2.5638e-10
2.50367e-08
1.83362e-07
-2.08399e-07
1.14029e-08
-2.92858e-07
1.68757e-08
4.81022e-08
-9.77528e-09
-3.8327e-08
2.34282e-07
-2.29876e-07
-4.4057e-09
-2.91845e-07
-1.40386e-08
3.05884e-07
-1.53051e-09
1.75062e-07
-1.50025e-07
3.45776e-08
4.34165e-08
4.68577e-09
-7.59754e-08
-7.95756e-08
9.36608e-08
-9.91786e-08
5.51785e-09
-2.93769e-08
-1.07993e-07
4.61185e-08
-2.09985e-07
1.63866e-07
1.90918e-07
-1.448e-07
2.2099e-07
-2.17834e-07
-3.15616e-09
-5.98277e-08
6.96568e-08
-9.82906e-09
-6.64883e-08
2.30536e-08
1.52008e-07
-3.01567e-07
1.7844e-08
-1.10728e-08
-5.73646e-08
6.84374e-08
-1.413e-08
1.07791e-07
-4.87106e-09
9.62587e-09
2.95803e-07
-1.50261e-07
-1.45541e-07
-2.60841e-07
-9.49953e-09
1.60105e-08
1.64474e-08
-2.65811e-07
-1.10083e-08
1.25391e-08
1.35371e-07
3.40754e-08
5.54545e-09
2.44782e-07
-2.40529e-07
-4.25355e-09
-3.54714e-09
4.95868e-08
-2.72347e-07
-1.21555e-08
1.47269e-08
1.07058e-08
2.53682e-07
-2.64387e-07
1.4553e-07
1.50272e-07
-1.33498e-07
1.44204e-07
-1.27136e-07
1.27136e-07
-3.04972e-07
-1.37635e-08
3.18736e-07
2.77412e-07
-2.85884e-07
1.62627e-08
-3.10162e-07
1.83165e-08
2.1859e-07
-1.74213e-07
-4.43769e-08
-2.798e-07
-1.30576e-08
3.14384e-07
-3.003e-07
-1.40846e-08
-2.56141e-07
2.59192e-07
-3.05171e-09
2.86896e-07
-2.97216e-07
1.45048e-07
-1.21994e-07
1.49063e-08
2.98219e-07
-3.09829e-07
1.73793e-08
-2.66595e-07
2.6921e-07
-2.61524e-09
2.59234e-08
2.06545e-08
1.14943e-07
2.60781e-08
1.92512e-07
-2.08613e-09
1.45536e-07
-1.4345e-07
-5.72539e-08
-1.91022e-08
7.63561e-08
1.3423e-07
9.18035e-09
-1.43411e-07
3.10511e-07
-3.23139e-07
-1.21775e-08
2.61447e-07
-2.4927e-07
-2.87741e-07
-1.38252e-08
-3.2772e-07
3.15543e-07
-2.51397e-07
-1.06754e-08
2.62072e-07
2.9591e-07
1.84743e-08
5.3496e-07
-5.70884e-07
-2.49253e-07
2.53002e-07
-3.74889e-09
6.03154e-07
-6.17646e-07
-1.43902e-07
1.04042e-08
3.23257e-07
-3.36713e-07
-2.6375e-07
7.60881e-09
3.0953e-07
1.25873e-08
-3.22117e-07
6.87333e-07
-6.72474e-07
-4.30801e-08
4.90104e-08
-5.93037e-09
-1.26351e-08
-3.13938e-07
3.26573e-07
9.93974e-09
1.24729e-08
1.2329e-07
-1.34363e-07
3.3606e-07
-3.50099e-07
-9.6719e-09
-1.3471e-07
-6.82338e-08
6.82338e-08
7.017e-07
-6.85516e-07
-2.61447e-07
-2.30233e-09
6.74926e-07
-6.67956e-07
4.92494e-07
-4.86756e-07
1.81426e-08
-1.37276e-08
-2.35847e-07
2.49575e-07
6.99826e-08
-6.99826e-08
7.81636e-09
-6.50703e-08
7.17707e-09
7.76847e-08
-8.48618e-08
-1.13526e-08
2.67232e-07
-2.5588e-07
6.06397e-07
-6.08239e-07
2.67045e-07
-2.65102e-07
-1.94267e-09
-3.38728e-07
3.27375e-07
1.10983e-07
1.61525e-08
-8.36637e-08
-8.43719e-09
7.88171e-08
-1.23064e-08
-6.65108e-08
-2.22049e-07
8.75689e-09
2.13292e-07
-3.22753e-07
1.77814e-08
-2.61728e-08
5.43676e-08
-4.30801e-08
-2.68681e-07
-8.87198e-08
-1.04589e-08
-6.04174e-08
-1.3487e-08
-2.33125e-07
2.46612e-07
3.92756e-09
-8.65164e-08
8.25889e-08
-1.42518e-08
3.55247e-07
-3.69011e-07
-1.13891e-08
-3.22395e-07
3.33784e-07
2.86439e-07
-3.00166e-07
-4.54475e-08
1.92747e-08
2.98982e-07
-1.53451e-07
7.88171e-08
2.62873e-07
-9.19107e-09
5.57187e-08
-1.23022e-08
3.55629e-07
-3.25663e-07
-1.52552e-07
1.87663e-07
-3.51117e-08
1.0377e-08
-3.49156e-07
3.38779e-07
3.73875e-08
-3.57181e-08
-1.66937e-09
1.32742e-07
6.14489e-09
4.95738e-08
4.0967e-07
7.4392e-09
-4.1711e-07
1.45845e-07
1.53136e-07
-6.98686e-09
3.16517e-07
7.39102e-08
-1.88717e-09
-2.08098e-07
2.31612e-07
-2.05534e-07
2.75599e-08
-1.80111e-07
-1.27576e-07
1.27576e-07
2.7308e-07
-2.62703e-07
4.23562e-09
-9.29554e-08
-1.00195e-08
6.65108e-08
-5.64913e-08
1.10983e-07
5.59764e-09
-6.28056e-08
7.77302e-08
-9.49641e-09
3.70832e-08
-3.70832e-08
2.67838e-07
-2.72709e-07
4.60668e-08
-5.5842e-08
-1.24609e-08
-2.32549e-07
2.4501e-07
3.28133e-08
3.11278e-09
-3.5926e-08
3.73875e-08
2.70492e-07
-7.60028e-10
-2.69732e-07
-2.34685e-08
2.41083e-08
-1.14977e-07
-1.25994e-08
3.28133e-08
6.25821e-09
2.62952e-07
-7.77302e-08
-1.08898e-08
8.862e-08
-2.95367e-08
2.78156e-08
-9.79647e-08
1.01077e-07
-1.32014e-07
3.67575e-07
-3.8021e-07
1.40857e-07
-3.63792e-09
-1.37219e-07
1.14759e-08
2.76476e-07
-2.89963e-07
-5.33206e-09
4.15002e-07
5.42726e-08
-4.95868e-08
-2.34685e-08
-2.27974e-07
2.36731e-07
8.9791e-08
-3.91157e-08
-3.96441e-09
1.23673e-08
-1.23673e-08
1.60302e-07
-3.30245e-07
1.63072e-08
2.79049e-08
8.30782e-08
-3.21505e-07
-6.2148e-09
2.51987e-07
-2.15177e-07
-7.81458e-08
8.36637e-08
-1.05194e-08
-3.30007e-07
3.40526e-07
2.57076e-08
1.40857e-07
-1.10067e-07
1.10067e-07
1.47503e-08
3.42479e-08
-3.42479e-08
-7.96396e-09
2.81588e-07
-2.73624e-07
2.68965e-07
-2.67824e-07
-1.14092e-09
1.17508e-09
-9.91398e-08
3.78849e-07
-3.90238e-07
1.75567e-07
-2.08023e-07
3.24566e-08
-1.54821e-07
1.55996e-07
-3.55824e-07
3.45149e-07
3.86284e-09
9.85035e-08
-9.85035e-08
3.68133e-08
-3.45776e-08
-3.96536e-08
1.49113e-07
-1.09459e-07
-3.91157e-08
1.45181e-08
7.52729e-08
-1.06422e-08
-2.34114e-07
2.44757e-07
-8.27181e-09
-2.37325e-07
2.45597e-07
-6.04174e-08
4.34246e-08
-8.30782e-08
-2.44774e-08
4.57872e-07
-4.33395e-07
-3.63196e-07
3.55232e-07
-4.79668e-07
4.5519e-07
1.26219e-07
-1.26219e-07
6.68597e-08
3.0551e-07
-7.88147e-09
-2.97629e-07
9.48821e-09
-9.48821e-09
1.84358e-08
-1.1355e-08
-1.25864e-07
1.37219e-07
-2.44075e-07
1.19074e-07
1.25001e-07
2.31996e-08
-1.98616e-08
-4.18741e-08
-2.06304e-07
1.08708e-07
9.75954e-08
7.39102e-08
-3.09496e-07
-1.3257e-08
3.88574e-07
-3.99093e-07
1.95797e-07
-8.0854e-08
-2.16889e-07
-2.38247e-07
2.33841e-07
-1.68695e-08
1.68695e-08
-3.33133e-07
-5.59513e-09
-8.17495e-08
-1.24554e-07
-8.32574e-08
-1.32916e-08
9.6549e-08
2.68296e-07
-2.80757e-07
5.82233e-08
7.24276e-08
1.00818e-07
-1.5752e-08
-8.50659e-08
2.05009e-08
-1.13205e-08
1.90111e-07
-3.1188e-08
-3.48385e-07
-1.35367e-07
6.68438e-08
-1.27969e-07
6.11254e-08
1.06295e-09
1.39794e-07
-4.38805e-07
4.33473e-07
1.29718e-08
2.66807e-09
1.36835e-07
-1.38722e-07
2.37794e-07
-1.34407e-07
1.65311e-07
2.31996e-08
8.93057e-09
3.49811e-07
-3.58741e-07
6.58551e-08
-3.3722e-07
1.48255e-08
-1.01566e-08
-3.36374e-07
3.46531e-07
2.7728e-08
9.8491e-08
5.57405e-09
1.29262e-07
-1.34836e-07
1.68593e-07
-2.01854e-07
3.32615e-08
-1.47503e-08
-5.51102e-08
6.33985e-08
1.16962e-07
1.7909e-09
-1.18753e-07
-1.11973e-08
3.64834e-08
-2.5286e-08
5.99463e-08
-3.4023e-08
-1.67811e-09
3.5926e-08
-4.8849e-07
4.90114e-08
4.39478e-07
2.06945e-07
-2.0089e-07
1.76242e-07
-8.69415e-08
-8.93001e-08
-8.8317e-09
2.73884e-07
-2.74644e-07
-4.09935e-08
2.94969e-07
-8.53045e-09
3.65709e-08
5.1995e-08
-8.8566e-08
3.68133e-08
1.64439e-07
-7.12131e-08
-5.35551e-08
5.54148e-08
-5.54148e-08
9.32261e-08
-1.06158e-08
1.74482e-07
-3.44331e-07
-4.82498e-09
-7.39794e-08
-5.39898e-08
-1.64398e-08
1.64398e-08
4.34246e-08
-1.65886e-07
1.80404e-07
-1.36027e-07
2.86299e-07
9.3577e-08
-1.47599e-08
-7.088e-08
8.74286e-08
-1.65486e-08
-3.86517e-09
3.86517e-09
-6.87424e-10
1.91073e-07
-2.04614e-07
1.35408e-08
-1.17107e-07
6.65348e-08
2.08611e-07
-3.3044e-08
-4.88774e-08
4.88774e-08
-6.89433e-09
9.73964e-09
8.73493e-08
-2.05679e-07
1.76142e-07
9.49457e-08
-5.83748e-08
-8.71488e-08
8.71488e-08
-1.30739e-07
1.30739e-07
3.96463e-07
-4.0662e-07
8.16541e-08
1.54634e-07
-1.70386e-07
-5.42726e-08
5.14889e-08
-5.14889e-08
-3.18255e-07
-1.199e-08
2.1586e-08
1.70763e-08
-5.93897e-08
-5.77177e-08
-9.49066e-08
1.22635e-07
1.00981e-07
-3.0167e-08
-7.08135e-08
1.39794e-07
-1.29718e-08
1.55294e-07
3.23693e-08
1.11875e-07
-1.11875e-07
5.69563e-09
-3.71533e-07
3.65837e-07
-2.8103e-08
2.58687e-07
-2.461e-07
5.04261e-08
4.98867e-09
2.8731e-07
-2.81615e-07
-1.37604e-07
1.37604e-07
-3.81203e-08
8.03557e-09
-8.03557e-09
-1.05299e-09
2.26389e-08
-8.95223e-08
7.81458e-08
1.61366e-07
-2.08581e-07
4.72157e-08
6.89433e-09
8.23321e-08
-9.27977e-08
1.32661e-07
-5.085e-09
3.48884e-07
-3.62968e-07
-8.96359e-09
9.3577e-08
2.98423e-09
1.32661e-07
2.62352e-07
-2.72994e-07
2.3099e-07
-2.29918e-07
-1.0716e-09
1.56025e-07
2.93769e-08
-2.63927e-08
5.53804e-08
-5.53804e-08
-2.63414e-07
2.62412e-07
-2.32818e-08
5.10973e-08
1.14977e-07
-1.64735e-08
-1.46527e-07
1.3533e-07
2.59276e-07
-2.62328e-07
-1.53283e-07
-1.37152e-07
-1.30452e-08
-4.66622e-07
6.02235e-09
-2.61602e-09
-1.64905e-08
3.14585e-07
-3.15081e-08
-2.83077e-07
6.87425e-10
2.61602e-09
1.88495e-09
-2.57651e-07
2.55766e-07
1.89216e-07
-2.06235e-08
2.69689e-08
4.30903e-07
-2.48293e-07
1.79323e-08
2.30361e-07
-1.4451e-07
1.50084e-07
3.89048e-08
-5.37154e-09
-4.35059e-08
2.37147e-07
-2.35262e-07
-2.71393e-07
-1.14447e-07
2.72982e-08
1.55887e-08
2.43098e-07
-3.83086e-08
9.03036e-08
4.06082e-07
8.92004e-09
2.15731e-07
-2.43895e-09
1.28426e-07
-1.28426e-07
2.85205e-07
-8.72964e-09
-2.69855e-07
2.78786e-07
-2.08303e-07
1.802e-07
-8.23134e-08
-1.61901e-08
1.67834e-07
-1.39929e-07
4.08527e-08
1.35389e-07
1.53473e-08
-6.41246e-09
2.03787e-07
1.26454e-08
1.04316e-07
-3.09831e-08
-1.71197e-07
2.0218e-07
1.83725e-07
5.4914e-09
-2.576e-07
-6.78784e-09
8.862e-08
2.30735e-07
2.82303e-08
4.12606e-07
-6.52315e-09
-3.38786e-08
-7.99553e-09
-1.67062e-07
1.91717e-07
-2.46553e-08
2.30382e-08
2.91547e-07
2.07134e-07
-4.57684e-08
1.13996e-07
1.37839e-07
-2.43787e-07
5.5398e-09
-6.98566e-09
2.58973e-07
3.99314e-07
-3.72345e-07
-1.83196e-08
1.00652e-07
-1.31317e-08
-1.33396e-07
-2.48941e-07
-1.18883e-08
2.60829e-07
-9.12314e-08
2.03514e-08
-1.3606e-07
-1.54387e-09
-7.78502e-09
3.56669e-07
-1.57523e-08
-9.70901e-08
1.12842e-07
-7.72066e-09
2.05948e-07
-1.48749e-08
-3.4218e-07
-9.70033e-09
3.51881e-07
-2.03244e-09
4.62869e-08
5.46936e-08
-1.52029e-08
-7.75948e-08
1.55289e-08
1.31917e-07
7.44655e-10
-2.67271e-07
-4.38175e-07
-6.2973e-10
7.67163e-09
-1.60969e-07
1.53297e-07
2.2892e-08
-2.08688e-07
1.39235e-08
1.94765e-07
-7.87561e-09
2.23607e-07
-3.54069e-07
-3.88163e-08
7.14383e-09
2.58815e-07
-2.67087e-07
6.2542e-08
3.89048e-08
-1.68352e-07
-4.02291e-08
-7.42133e-09
3.43482e-07
-2.52608e-07
4.56732e-09
2.4804e-07
1.31053e-07
-5.0734e-08
4.06363e-07
4.53931e-08
-2.08176e-07
1.62783e-07
4.17765e-09
2.41315e-07
-6.02235e-09
-9.91165e-08
2.54603e-08
7.36562e-08
-1.43362e-08
-1.09502e-07
1.23838e-07
-1.81803e-07
-2.62202e-08
-6.66059e-09
3.29917e-07
-2.38353e-07
1.40917e-07
1.45382e-07
1.59525e-07
4.76095e-08
2.70323e-07
-2.71892e-07
1.56861e-09
-4.23294e-08
2.63927e-08
1.65934e-07
-7.98045e-10
1.55346e-07
-1.54548e-07
-1.63482e-07
2.08875e-07
-6.33905e-08
5.55885e-07
-2.71425e-07
1.69291e-09
-2.07672e-07
2.11849e-07
4.02582e-08
-1.25864e-07
9.73964e-09
-6.11835e-09
4.35059e-08
-2.23377e-07
9.98452e-09
2.13393e-07
-6.59613e-08
6.59613e-08
-1.07827e-07
7.76602e-08
1.05237e-07
-1.11356e-07
1.03396e-08
2.08592e-07
-2.18932e-07
4.02905e-07
-1.44871e-07
1.14753e-08
2.12563e-09
-7.18677e-09
3.74762e-07
3.66028e-08
-2.00085e-07
-1.636e-08
-6.71151e-08
8.34751e-08
5.97343e-08
-9.56518e-08
3.59175e-08
-1.28267e-08
-1.20923e-07
1.33749e-07
-3.20162e-08
-8.32469e-08
-3.43694e-07
1.36871e-08
6.65168e-09
8.07769e-08
-1.36838e-07
1.66627e-08
-3.59171e-07
3.52383e-07
1.56546e-08
-2.51502e-07
-1.36076e-08
1.48938e-07
-9.51818e-08
-5.06873e-08
-9.45747e-08
-5.11261e-10
-2.70914e-07
1.36835e-07
2.03296e-08
6.81371e-07
-3.87695e-08
6.45167e-07
1.55729e-07
-8.52989e-08
-6.12766e-09
6.81053e-07
1.46889e-08
2.52544e-07
-3.2633e-07
-1.08903e-08
1.07401e-07
-1.08518e-08
1.5277e-07
9.27527e-09
-1.62045e-07
-5.91911e-09
3.16431e-07
-6.57443e-09
4.03038e-07
-2.8089e-07
2.73629e-07
1.87189e-10
1.95086e-07
-1.52717e-07
-1.46735e-07
-1.92698e-07
1.17331e-08
-1.08087e-08
-1.86703e-08
2.9479e-08
-1.38345e-07
3.94425e-08
9.89027e-08
4.3622e-07
-2.74726e-09
1.2562e-08
2.66224e-07
9.06106e-09
5.94093e-07
-6.90896e-09
4.09814e-07
-1.36642e-08
4.18945e-08
1.48081e-08
-2.47933e-07
1.27939e-07
-2.05378e-08
1.63109e-07
-6.66776e-07
2.76562e-08
6.3912e-07
1.30871e-08
-2.45636e-07
-7.44427e-08
-5.18306e-09
3.03402e-07
-2.26533e-07
-1.50284e-07
1.48465e-07
-2.56357e-07
-1.66334e-07
-4.29697e-07
4.33266e-07
-3.56878e-09
-1.07311e-08
-1.31461e-07
1.42192e-07
-4.31975e-09
-1.94219e-07
-1.03946e-08
-1.52466e-08
-5.68298e-08
7.20764e-08
-6.51843e-09
3.85368e-07
3.54062e-07
-4.25178e-09
-3.14971e-08
-6.24627e-09
3.9482e-07
-1.87774e-07
1.00832e-07
1.98232e-08
1.26712e-07
-1.46535e-07
-2.26389e-08
-8.3318e-08
5.47066e-07
-1.21052e-08
1.38164e-08
2.59263e-07
2.03376e-07
-6.24728e-09
-1.97129e-07
4.08696e-07
-1.6142e-07
1.98023e-07
-1.54965e-08
3.65571e-07
4.31251e-08
-4.44425e-07
3.18309e-09
4.41242e-07
-1.02877e-09
-2.56622e-07
-2.32378e-07
2.25392e-07
-2.52954e-08
1.77489e-07
-1.52193e-07
-1.32653e-07
-5.51204e-08
-1.20116e-07
-1.14513e-07
1.09141e-07
-1.42402e-08
-4.7443e-08
6.16833e-08
-4.93649e-08
-4.47909e-08
2.07447e-07
-2.00038e-07
-7.40903e-09
-3.95084e-07
3.81775e-07
1.33096e-08
-2.07098e-07
-4.84133e-08
1.14268e-07
-4.38985e-07
4.29695e-07
9.28979e-09
1.87142e-08
2.91982e-09
3.68366e-10
-4.19604e-07
4.19236e-07
9.15703e-09
2.68381e-07
1.77911e-07
-1.45542e-07
-4.46055e-09
2.91357e-07
2.73033e-07
8.50589e-10
-7.77006e-09
-1.40803e-07
1.48573e-07
-1.31917e-07
1.31128e-07
7.88445e-10
1.86235e-07
-1.70646e-07
9.4453e-08
-1.05305e-07
-2.40602e-09
-3.56765e-07
-1.14447e-07
1.42463e-08
5.97712e-08
-5.97712e-08
1.66829e-07
2.37719e-07
3.59587e-09
2.02207e-07
-1.88284e-07
-6.57963e-07
1.8697e-07
1.89777e-08
7.74682e-09
-2.45072e-07
-1.33595e-08
-3.85721e-08
5.19316e-08
1.89868e-07
1.75842e-08
-1.75842e-08
-2.21321e-07
1.81092e-07
1.71607e-07
1.82609e-08
5.90639e-08
8.86324e-09
4.44056e-07
-4.5292e-07
1.5631e-07
-7.28335e-09
7.28335e-09
-3.47797e-09
3.56008e-08
-2.01282e-08
1.55956e-07
-1.7265e-07
1.66938e-08
-5.07562e-07
-1.46965e-08
5.22258e-07
2.66763e-07
1.61732e-09
1.52773e-07
-1.71093e-07
-2.36909e-09
-1.47915e-07
-3.78112e-07
-1.6972e-08
2.93707e-08
1.94043e-07
-2.27087e-07
3.60296e-07
-3.67979e-07
7.68214e-09
-1.75217e-07
1.59465e-07
4.98868e-09
-3.05728e-09
-2.65624e-07
1.72839e-07
-5.34769e-08
-1.19362e-07
3.52964e-07
-3.60385e-07
-1.22356e-07
-8.38317e-09
-5.2595e-09
1.53725e-07
2.75086e-07
-2.75597e-07
-2.12104e-08
2.12104e-08
3.67559e-07
-3.75344e-07
2.28304e-07
-2.78991e-07
-4.30122e-07
-2.87655e-07
2.5876e-07
2.88951e-08
1.51981e-07
-1.67183e-07
2.45807e-07
-9.57225e-08
4.03853e-07
-3.82825e-08
-4.21919e-08
-1.57961e-08
9.76173e-09
2.77548e-07
-1.98616e-08
2.47221e-07
2.40148e-07
-2.59781e-07
1.96333e-08
-2.50608e-07
2.53528e-07
2.04842e-07
-1.90596e-07
2.28149e-07
-2.70946e-07
4.27974e-08
4.26357e-07
-3.52635e-07
3.45578e-07
7.05704e-09
-2.56482e-07
1.82227e-07
-2.133e-09
2.5822e-07
-2.56087e-07
1.47756e-07
-1.64911e-07
1.71554e-08
2.32109e-07
-7.88111e-08
-3.57181e-08
9.2972e-08
-1.13009e-07
2.00367e-08
-2.44394e-07
2.48961e-07
2.192e-07
-2.34075e-07
-2.88175e-07
2.3372e-07
5.4455e-08
-3.35649e-08
4.97299e-08
3.74189e-08
1.92624e-07
-1.62367e-07
1.46007e-07
1.33395e-07
3.49278e-07
-3.39255e-07
-1.00231e-08
1.26708e-07
-1.26708e-07
4.42255e-10
-2.3073e-07
2.04509e-07
-3.12749e-07
2.96177e-07
1.65718e-08
-1.04809e-08
1.22356e-07
2.69757e-07
-1.92097e-07
1.44232e-07
-1.60104e-07
1.58715e-08
5.62484e-07
-5.83806e-07
2.13223e-08
2.57065e-07
-1.26013e-07
-5.92388e-07
5.8626e-07
2.11742e-07
-1.99496e-07
-1.22458e-08
-2.3376e-07
2.393e-07
2.49207e-07
-2.55807e-07
6.59997e-09
-1.60591e-07
2.64908e-07
-2.3387e-07
2.28734e-07
5.13547e-09
-2.64589e-07
2.32572e-07
1.06091e-08
-2.44723e-07
4.32878e-07
-2.86104e-09
2.7649e-07
-1.78284e-07
1.63095e-07
1.51896e-08
2.65372e-07
-2.4502e-07
2.69979e-07
-2.34062e-07
-2.32925e-07
2.12797e-07
2.70533e-07
1.11104e-09
-2.71644e-07
3.74696e-07
-3.82417e-07
2.12014e-08
-2.6086e-07
4.37825e-09
-5.9695e-07
6.04941e-07
-7.99121e-09
-2.44055e-07
-3.44812e-07
3.38151e-07
-2.51557e-07
2.58209e-07
7.30807e-09
-3.57694e-07
3.0696e-07
-1.72877e-09
-2.68924e-07
2.70652e-07
4.30763e-08
-9.8491e-08
1.80133e-07
-1.67571e-07
-1.57939e-07
1.42693e-07
-2.48608e-07
-2.74391e-07
2.72662e-07
-1.03665e-08
1.60175e-09
-2.70826e-07
2.69224e-07
1.79325e-07
-1.68542e-07
-1.07831e-08
3.91065e-07
-1.67409e-07
1.80662e-07
-1.32524e-08
-4.47094e-07
1.79674e-07
-1.67941e-07
1.35274e-07
-5.32116e-09
1.3606e-07
1.60988e-07
-2.68003e-07
3.44106e-09
2.24004e-07
-2.34399e-07
-3.57576e-07
1.41277e-07
-1.56094e-07
1.48168e-08
-8.10184e-08
2.16407e-07
-3.96025e-09
2.6148e-07
1.38722e-07
-3.36989e-07
3.3071e-07
6.27959e-09
1.34023e-07
-1.89003e-07
2.02091e-07
-1.85267e-07
1.99324e-07
-1.40573e-08
-4.17366e-07
4.1112e-07
-4.71677e-07
-5.98662e-07
6.18992e-07
1.96649e-07
-1.81841e-07
-4.1245e-07
4.06142e-07
6.30856e-09
-1.81178e-07
1.66842e-07
4.68063e-07
-4.82759e-07
2.22252e-07
-2.12267e-07
2.00647e-07
-9.98143e-08
-2.39509e-08
2.39509e-08
2.64461e-07
-3.13495e-09
-2.16785e-07
2.71478e-07
1.77545e-08
1.29037e-08
4.15572e-07
-4.21917e-07
6.34537e-09
3.68808e-07
-3.70041e-07
1.23278e-09
-2.49309e-08
9.2972e-08
1.41962e-08
-4.2201e-07
3.06646e-09
-5.90486e-07
6.17063e-07
-2.65767e-08
-2.70975e-07
2.69062e-07
1.91254e-09
-1.92951e-07
2.04874e-07
-1.19225e-08
1.79145e-07
-1.69383e-07
-4.07173e-07
4.00654e-07
4.98821e-07
-1.4683e-08
-4.84138e-07
5.75347e-08
-1.1468e-08
-2.74129e-07
5.2055e-09
2.1695e-09
-1.84423e-07
1.70575e-07
1.38481e-08
3.81648e-07
-3.89154e-07
7.50619e-09
2.89173e-07
-2.932e-07
4.02682e-09
-1.3097e-08
1.3097e-08
-3.29222e-07
3.23303e-07
-4.01533e-07
3.94701e-07
6.83238e-09
-3.18672e-08
3.99027e-08
2.95326e-07
-2.99787e-07
-2.87069e-07
2.83591e-07
-2.33651e-07
2.27403e-07
3.08851e-07
-3.14035e-07
3.0193e-07
-3.06753e-07
4.82278e-09
-5.80535e-07
6.09906e-07
1.40077e-07
-1.54317e-07
2.64115e-07
-1.88668e-09
-2.62228e-07
2.62115e-07
-2.60498e-07
-3.95528e-07
3.88341e-07
3.15997e-07
-3.21551e-07
5.55354e-09
7.6887e-09
4.60374e-07
5.27457e-07
-5.66227e-07
5.19269e-09
4.14043e-07
1.84873e-07
-1.69526e-07
-6.22631e-08
-1.9699e-07
2.07599e-07
3.46617e-08
-1.87272e-07
1.74445e-07
1.13475e-08
-1.69809e-07
1.58462e-07
4.19522e-07
-4.26097e-07
2.76051e-07
-2.76373e-07
3.21928e-10
-1.98364e-07
1.56035e-07
-2.11125e-07
3.09486e-07
-2.66401e-07
1.23835e-07
-1.34316e-07
4.23059e-07
6.82896e-09
-4.29888e-07
2.30326e-07
-2.23018e-07
7.61226e-09
-5.98706e-08
-1.37258e-08
4.83857e-07
-5.37466e-07
5.3609e-08
1.85615e-07
-1.26552e-07
1.97446e-09
2.7668e-07
-2.78654e-07
1.38899e-07
-1.5273e-07
1.38302e-08
-5.50521e-07
5.69874e-07
-1.93524e-08
1.70516e-07
-1.53854e-07
-3.61085e-07
-5.69709e-07
5.97365e-07
1.94128e-07
-1.78791e-07
-1.53368e-08
-1.13009e-07
-2.00988e-07
2.10187e-07
-9.19898e-09
-4.5524e-09
1.37806e-07
-1.51165e-07
-1.50107e-07
1.6751e-07
-1.74029e-08
2.81692e-09
2.34902e-07
-4.97299e-08
4.16943e-08
-2.12273e-07
1.66505e-07
9.75626e-09
1.65587e-08
1.96334e-08
2.27057e-07
-2.4669e-07
2.1461e-07
-2.08295e-07
-6.31433e-09
-1.67451e-07
1.81267e-07
1.31128e-07
2.12553e-07
-2.04806e-07
-1.58646e-07
1.53324e-07
2.565e-07
7.61473e-09
-5.3181e-07
5.40871e-07
9.13397e-09
2.68067e-07
-2.66498e-07
3.29113e-10
-3.33404e-07
-1.029e-08
2.16305e-07
-2.11315e-07
-4.99059e-09
-8.87189e-11
2.69674e-07
-1.83591e-09
3.06272e-08
3.47018e-09
-3.40974e-08
-5.08427e-08
-1.90487e-07
1.78274e-07
1.22127e-08
4.82199e-07
-4.94304e-07
-4.35443e-07
3.72331e-07
6.31126e-08
-2.03682e-07
2.01313e-07
-8.23134e-08
1.94941e-07
-2.01641e-07
6.69959e-09
-1.78526e-07
1.57903e-07
1.39787e-08
-2.1376e-07
-3.87537e-09
2.17635e-07
4.33879e-07
-4.46924e-07
-5.11843e-07
5.09045e-07
2.79832e-09
-2.24332e-07
3.11814e-08
1.9315e-07
1.41313e-08
1.72103e-07
-1.73996e-09
4.35619e-07
1.91805e-07
-1.76151e-07
-2.4441e-08
1.83735e-07
-1.68692e-07
-1.50426e-08
1.88178e-07
-4.97873e-07
4.34483e-07
-2.07702e-07
2.02443e-07
1.99541e-07
-1.95618e-07
-3.92359e-09
1.79212e-07
-1.70442e-07
-8.77036e-09
-1.6768e-07
1.81966e-07
-1.42856e-08
8.38377e-09
1.27237e-08
2.39673e-08
-2.39673e-08
-4.19696e-10
2.69913e-07
6.02813e-09
-1.9314e-07
1.82409e-07
-3.83736e-08
9.64738e-08
2.57611e-07
4.53501e-10
5.28605e-09
-6.03962e-08
-4.91619e-09
-1.92614e-08
3.65751e-07
1.36561e-07
-1.497e-07
1.31394e-08