/*--------------------------------*- C++ -*----------------------------------*\
  =========                 |
  \\      /  F ield         | OpenFOAM: The Open Source CFD Toolbox
   \\    /   O peration     | Website:  https://openfoam.org
    \\  /    A nd           | Version:  9
     \\/     M anipulation  |
\*---------------------------------------------------------------------------*/
FoamFile
{
    format      ascii;
    class       volVectorField;
    location    "1";
    object      U;
}
// * * * * * * * * * * * * * * * * * * * * * * * * * * * * * * * * * * * * * //

dimensions      [0 1 -1 0 0 0 0];

internalField   nonuniform List<vector> 
464
(
(-1.40381e-21 2.30733e-21 5.88118e-40)
(-9.6168e-22 3.81127e-21 0)
(-2.00046e-23 7.91671e-24 0)
(-4.00874e-23 2.9056e-22 1.05766e-38)
(-6.79827e-22 3.03001e-21 0)
(-2.92204e-23 2.28285e-23 -2.82269e-39)
(-1.28857e-21 2.77878e-21 -2.71241e-40)
(1.45857e-23 2.76087e-22 0)
(-1.64146e-21 3.38359e-21 5.24506e-40)
(-1.54106e-21 3.65934e-21 -1.48561e-39)
(-1.10985e-21 1.60587e-21 1.22186e-41)
(-5.03453e-22 1.22725e-21 -1.36557e-40)
(-1.45323e-21 3.18736e-21 -2.97108e-39)
(-2.18478e-22 8.35304e-22 0)
(6.12755e-22 2.57401e-21 -4.92383e-39)
(1.08896e-21 2.14645e-21 4.39898e-39)
(1.14703e-20 -1.42011e-21 0)
(1.01785e-20 1.84699e-21 3.53764e-38)
(-4.04526e-24 4.04176e-23 -8.48063e-39)
(7.30589e-22 1.34814e-21 6.53355e-39)
(3.60791e-22 1.19438e-21 -9.86014e-39)
(-5.67881e-23 7.97858e-22 2.36251e-39)
(-7.74025e-23 9.00091e-22 -1.52259e-39)
(-4.59298e-23 3.99855e-22 0)
(-6.0154e-23 2.17179e-22 -1.08627e-38)
(-7.12981e-23 4.37808e-22 5.14794e-39)
(-8.9689e-22 1.52523e-21 3.28498e-39)
(7.09777e-23 3.3052e-22 -1.08301e-38)
(-4.11245e-22 2.07832e-21 0)
(-1.19722e-22 5.66767e-22 0)
(-9.97664e-23 5.84419e-22 6.30267e-40)
(-1.2498e-22 2.7703e-21 5.0138e-41)
(2.17973e-22 2.31629e-21 -1.4273e-39)
(-2.20336e-21 1.6679e-21 -5.07754e-39)
(-2.71289e-21 2.29739e-21 5.11733e-39)
(7.44967e-21 5.27019e-21 3.01629e-38)
(1.1039e-21 2.32111e-21 -3.61824e-38)
(1.26965e-23 9.38249e-23 -1.35743e-39)
(7.95132e-23 3.14504e-22 -1.21232e-40)
(1.31486e-21 1.06044e-21 0)
(1.07637e-21 1.62197e-21 6.25258e-39)
(1.715e-22 1.14339e-21 0)
(8.83252e-24 1.09917e-21 -3.851e-39)
(-9.89863e-22 1.67565e-21 -3.16198e-39)
(-6.87551e-22 1.82338e-21 3.31988e-39)
(8.33263e-22 1.82541e-21 -1.08109e-39)
(2.91034e-23 9.05054e-22 1.00244e-38)
(5.36414e-23 6.32297e-22 -7.51501e-41)
(-1.59329e-24 1.04752e-22 0)
(6.26082e-23 2.10273e-22 1.31424e-39)
(4.02541e-22 1.25197e-21 5.20848e-40)
(6.56358e-23 4.37469e-22 -6.77915e-40)
(-2.0145e-21 -1.20316e-22 -7.40018e-39)
(2.2494e-23 1.56206e-21 -8.35005e-39)
(6.89556e-23 1.42897e-21 -2.90979e-40)
(4.23332e-23 5.68822e-22 1.06558e-38)
(5.92685e-23 7.31807e-22 0)
(4.28074e-22 2.2809e-21 0)
(1.17049e-22 1.88604e-21 -1.0023e-38)
(-1.63195e-21 -3.14911e-22 0)
(3.00407e-23 1.76047e-22 1.10262e-38)
(-6.92837e-22 2.86095e-21 6.2219e-39)
(1.47479e-21 1.88312e-21 1.61058e-38)
(9.81727e-23 1.75546e-21 -8.58743e-39)
(-1.24365e-21 3.50367e-21 -2.06729e-40)
(-8.49901e-23 1.4723e-21 -9.27361e-39)
(-4.32853e-22 1.94626e-21 -9.6641e-39)
(2.35297e-23 2.38987e-22 -1.02724e-38)
(-7.83649e-22 1.62484e-21 -8.90497e-40)
(1.46201e-23 1.36452e-21 9.64971e-39)
(-1.07077e-22 1.74903e-21 1.00022e-38)
(-9.78207e-22 3.3261e-21 -3.12311e-39)
(2.40286e-22 2.32785e-21 0)
(4.72525e-23 7.19812e-22 1.03448e-38)
(7.9964e-23 1.3007e-21 -4.2327e-39)
(8.7312e-23 4.65685e-22 1.08969e-38)
(-2.75857e-22 1.79284e-21 -9.93261e-39)
(-1.59169e-21 2.46066e-21 -3.85047e-40)
(2.78557e-22 2.20338e-21 -9.97628e-39)
(5.40168e-22 1.99667e-21 -2.4227e-40)
(-5.9588e-22 2.82544e-21 0)
(-7.61417e-23 1.74951e-22 2.63485e-39)
(-1.31867e-22 1.15095e-21 -5.95458e-39)
(-5.23358e-23 9.11331e-23 1.1613e-38)
(-3.49424e-22 2.1373e-21 0)
(8.27959e-22 2.04121e-21 -6.2228e-40)
(-6.7462e-22 2.85899e-21 -3.12941e-39)
(-9.26013e-23 2.06476e-22 0)
(1.56911e-24 5.42357e-22 0)
(9.1807e-23 1.75806e-21 -3.73552e-39)
(-4.18296e-22 2.25517e-21 4.09501e-39)
(-9.35372e-22 3.43934e-21 0)
(-3.54421e-22 1.82152e-21 6.28251e-39)
(-5.54039e-22 5.6215e-22 -1.59085e-39)
(-2.57652e-22 1.68589e-21 -6.09415e-39)
(7.66714e-22 1.65545e-21 -1.04946e-38)
(1.37518e-22 1.8783e-21 9.99944e-39)
(-5.3454e-23 2.52277e-22 -2.41651e-39)
(-8.87018e-24 6.06823e-22 -4.24575e-39)
(-1.32828e-21 3.31356e-21 1.6713e-39)
(-5.32577e-23 5.66718e-22 0)
(6.58207e-23 7.98987e-22 8.7135e-40)
(-6.28229e-23 6.55009e-22 0)
(-6.67257e-22 2.86523e-21 -4.9061e-41)
(-1.23502e-21 2.79783e-21 0)
(-9.76727e-23 7.16978e-22 -4.06134e-39)
(-1.9253e-23 2.62608e-23 0)
(-4.1051e-22 2.38408e-21 9.36881e-39)
(-2.27241e-22 1.66042e-21 -4.0994e-39)
(8.95204e-23 1.17485e-21 0)
(4.63852e-23 2.01133e-21 0)
(7.3722e-23 9.2462e-22 -1.02334e-38)
(-3.30381e-22 1.96705e-21 0)
(-4.96471e-23 1.22128e-21 4.54129e-39)
(1.4805e-23 6.07501e-22 3.41713e-40)
(-3.01278e-23 7.53167e-22 -1.71006e-40)
(-6.84657e-23 8.23054e-22 5.08863e-39)
(-6.18266e-23 1.92675e-22 1.1571e-38)
(-1.18702e-23 3.15353e-22 3.41803e-39)
(-8.83083e-23 3.12475e-22 -6.6542e-40)
(1.02807e-22 1.0237e-21 9.13284e-39)
(-1.14051e-21 3.2196e-21 1.04835e-40)
(-8.86066e-22 3.14932e-21 2.30903e-39)
(-8.80786e-22 2.77849e-21 2.02947e-39)
(1.10489e-22 1.93815e-21 0)
(2.29021e-22 2.13064e-21 3.12729e-39)
(-7.9804e-22 3.09468e-21 -2.32915e-39)
(1.4117e-22 1.34445e-21 0)
(-5.03812e-21 4.76565e-21 0)
(-4.77014e-23 4.98421e-22 4.61297e-39)
(-4.8413e-23 7.92027e-23 -9.01901e-39)
(-1.905e-22 8.23044e-22 3.87999e-39)
(8.28512e-24 6.53122e-23 -9.01979e-39)
(-5.44902e-23 8.45295e-22 0)
(-1.12749e-22 5.33896e-22 0)
(-3.14756e-23 3.58025e-22 -4.03558e-39)
(-2.41624e-23 1.04242e-22 -1.71035e-38)
(3.52692e-23 4.26516e-22 -1.08941e-38)
(-1.19609e-21 3.35957e-21 1.73307e-39)
(-1.11675e-22 1.50352e-22 8.26784e-39)
(-9.66531e-23 2.47112e-22 0)
(-1.71256e-22 2.10079e-21 0)
(-4.43247e-23 1.4188e-21 7.37082e-40)
(-4.38168e-24 7.32883e-22 1.07516e-38)
(-2.37895e-23 2.04115e-22 1.03877e-38)
(2.0609e-23 1.06222e-21 -4.65728e-39)
(-2.27577e-23 9.38212e-22 0)
(-1.24842e-22 3.36442e-22 0)
(8.43938e-23 1.67307e-21 -9.14569e-41)
(-4.3081e-22 1.47032e-22 -2.33744e-38)
(-7.43131e-23 1.0389e-21 3.20902e-40)
(-1.0753e-22 8.09461e-22 1.02217e-38)
(-3.52236e-22 3.13185e-21 -2.56558e-39)
(2.41407e-22 1.78537e-21 -3.14116e-39)
(-3.41552e-23 6.6778e-22 -3.97488e-42)
(-1.44294e-22 3.89764e-22 -1.17382e-38)
(1.472e-20 -1.32782e-21 0)
(-5.95817e-23 1.13822e-21 0)
(-9.43707e-22 3.17377e-21 -2.6132e-39)
(-2.82805e-22 1.82157e-21 3.97505e-39)
(-6.88505e-23 3.06804e-21 0)
(-1.17418e-22 1.19148e-21 -1.01787e-38)
(9.87685e-23 1.05614e-21 8.57698e-39)
(-3.68415e-22 -5.45639e-23 -2.07237e-39)
(-1.07875e-21 -2.1995e-22 1.61026e-38)
(-2.43338e-23 9.77248e-23 0)
(1.32134e-23 3.1428e-21 -2.9874e-39)
(-6.97807e-22 6.11471e-22 2.55144e-39)
(3.21368e-22 3.31647e-21 1.61156e-38)
(1.52411e-23 2.68565e-22 6.66438e-39)
(6.20406e-23 5.79909e-22 4.19509e-40)
(-4.46233e-22 2.42559e-21 -3.85919e-39)
(1.71234e-23 5.29361e-22 -1.36659e-40)
(-7.69763e-23 7.18485e-22 -2.3472e-39)
(3.5632e-23 5.28454e-22 1.1469e-40)
(2.7448e-22 1.03575e-21 -2.57819e-39)
(-1.48403e-22 1.233e-21 1.0079e-38)
(-1.86885e-22 1.28136e-21 -4.6405e-41)
(-3.67552e-22 3.04289e-21 -3.89025e-39)
(6.24989e-21 1.61276e-21 -5.36008e-39)
(-1.16589e-22 1.10072e-21 1.06831e-38)
(2.5823e-22 1.25524e-21 2.53942e-39)
(1.23888e-21 -3.46471e-21 0)
(5.08003e-21 -4.08594e-21 1.21837e-37)
(3.43181e-22 2.79229e-21 2.22383e-38)
(1.13799e-21 -1.21539e-21 -1.17103e-39)
(2.1315e-22 6.44649e-22 0)
(1.18739e-22 3.45487e-22 -4.38331e-39)
(1.20918e-23 2.7008e-22 -6.87466e-39)
(2.18169e-22 6.51249e-22 9.9736e-42)
(2.02351e-23 9.75548e-22 -1.00483e-41)
(3.35398e-22 5.34894e-22 5.4831e-39)
(-6.48221e-24 1.93756e-22 -1.67715e-38)
(3.63086e-23 7.4238e-22 -1.06612e-38)
(-8.00173e-23 1.63339e-21 8.68925e-42)
(-5.4578e-23 1.32949e-21 -8.71679e-42)
(-4.17238e-22 8.1984e-22 -2.34598e-39)
(6.39522e-23 1.19584e-21 9.9414e-42)
(2.07984e-22 1.32111e-21 -1.06091e-38)
(1.57571e-23 1.10932e-21 8.96449e-39)
(1.57837e-23 8.9081e-22 0)
(-2.47203e-23 1.0863e-21 0)
(7.36003e-24 4.99937e-22 0)
(-3.9955e-23 1.20029e-21 9.50005e-42)
(1.74874e-22 2.68032e-22 0)
(7.17961e-25 4.02537e-22 2.06962e-40)
(1.32839e-24 2.69377e-22 0)
(-1.03535e-23 2.98495e-22 -6.94682e-39)
(-2.3288e-23 5.98091e-22 7.97752e-39)
(1.19295e-23 2.79e-22 3.48639e-39)
(-7.94364e-23 1.92381e-22 8.75898e-39)
(8.77828e-23 3.18533e-22 0)
(-2.70441e-24 1.52852e-22 8.81019e-39)
(1.32405e-21 4.8067e-21 -2.24815e-38)
(-6.69618e-22 -2.45734e-22 0)
(4.99619e-23 3.53709e-22 -3.59172e-39)
(5.56939e-22 1.12201e-21 -6.27821e-39)
(6.42647e-24 2.47013e-22 8.28419e-39)
(-5.01563e-23 -7.24863e-23 -8.48966e-39)
(-8.88252e-24 3.29008e-22 -6.38301e-39)
(3.56524e-21 -2.36812e-21 -9.49291e-38)
(2.8508e-25 5.37389e-22 8.68825e-39)
(-3.06929e-25 9.5307e-22 -8.97528e-39)
(-5.15549e-23 1.64665e-21 1.72954e-38)
(-2.20601e-22 1.4393e-21 1.1486e-38)
(-3.68308e-22 1.54557e-21 -1.08271e-38)
(-3.57069e-22 1.67022e-21 0)
(-7.307e-23 2.43277e-21 7.14042e-39)
(-5.86468e-22 1.76665e-21 -4.62625e-40)
(-2.24194e-22 1.98101e-21 -7.24888e-39)
(-1.95792e-22 2.18356e-21 7.18485e-39)
(-8.52369e-23 2.01119e-21 -3.31633e-40)
(-2.3023e-22 2.09491e-21 0)
(7.54982e-22 2.28831e-21 -4.9668e-39)
(-4.45614e-22 1.07859e-21 9.65977e-40)
(1.02856e-22 2.34909e-21 0)
(-3.14645e-21 6.98192e-22 8.0188e-39)
(-1.47332e-21 1.63006e-21 6.90238e-39)
(-3.13918e-23 2.54524e-21 -9.61912e-40)
(-1.60079e-21 -2.37286e-21 7.81369e-38)
(4.48945e-22 2.76208e-21 9.81475e-40)
(-3.48337e-21 1.90887e-21 -1.2038e-38)
(-8.52329e-22 2.24916e-21 -2.85907e-39)
(1.83264e-22 2.65213e-21 0)
(1.09372e-21 2.50645e-21 0)
(3.83336e-21 -1.25393e-21 2.68205e-38)
(-2.79634e-22 2.17576e-21 2.70301e-40)
(-1.66749e-21 1.17561e-21 0)
(-6.09539e-21 3.98761e-21 0)
(-1.48325e-21 1.87086e-22 0)
(-2.16824e-21 4.87467e-21 3.7483e-38)
(-3.43694e-21 1.92479e-21 -2.04577e-37)
(1.7876e-21 2.4402e-21 -1.26079e-38)
(1.88892e-22 1.97364e-21 3.74707e-39)
(2.15697e-21 2.50121e-21 0)
(1.71011e-21 3.18441e-21 0)
(2.25311e-24 1.17633e-21 0)
(-7.26082e-22 -2.78603e-23 -2.91514e-38)
(2.27278e-21 2.25358e-21 1.55832e-38)
(9.02561e-22 1.60257e-21 0)
(2.21679e-21 1.13041e-21 -1.49734e-38)
(1.21968e-22 3.00505e-21 1.49914e-38)
(1.45379e-21 1.53534e-21 1.44685e-38)
(-4.75859e-22 3.11837e-21 -3.24315e-39)
(1.18284e-21 2.52404e-21 -1.44688e-38)
(-2.20169e-22 3.23161e-21 4.02331e-39)
(4.28306e-22 3.06651e-21 -1.71361e-41)
(3.32472e-23 5.59202e-22 -3.33997e-40)
(-1.97879e-23 3.07689e-21 6.23e-39)
(-6.35981e-23 3.07034e-21 3.2871e-39)
(-9.72397e-23 7.43847e-22 -7.48782e-39)
(2.57499e-22 3.14009e-21 0)
(1.39109e-22 2.97897e-21 2.93502e-39)
(-4.3642e-22 2.97302e-21 7.71555e-39)
(-9.22251e-22 3.11635e-21 1.98963e-39)
(1.53882e-22 2.94532e-21 0)
(1.56928e-22 3.01475e-21 0)
(-1.08756e-23 1.17094e-21 -7.16517e-39)
(2.49186e-23 3.00612e-22 0)
(-3.08033e-23 1.40597e-21 8.00023e-41)
(9.89212e-23 2.59667e-21 3.10855e-41)
(4.19173e-24 7.8077e-22 1.76965e-41)
(8.60173e-25 6.15659e-22 0)
(1.77153e-23 5.36804e-22 -1.0894e-38)
(-3.22637e-22 3.13077e-21 2.45493e-39)
(2.85138e-23 2.52129e-21 -4.42299e-39)
(1.31143e-22 5.75894e-22 -8.28049e-39)
(-4.96504e-22 2.8529e-21 0)
(5.30109e-23 6.96065e-22 0)
(-4.33972e-23 2.82332e-21 4.51407e-39)
(-1.66896e-22 2.74307e-21 1.61179e-41)
(-3.70806e-22 2.94051e-21 -1.47821e-41)
(1.13845e-23 1.01748e-21 -1.09974e-38)
(1.27502e-23 1.29453e-21 1.84547e-38)
(6.47214e-22 2.65671e-21 1.27554e-38)
(8.67832e-23 1.19237e-21 1.24126e-38)
(1.93787e-22 7.10181e-22 0)
(6.27546e-23 1.24021e-21 1.2453e-39)
(1.75835e-22 1.49726e-21 -2.54512e-39)
(-3.81329e-22 2.48305e-21 3.83094e-39)
(-3.02539e-22 3.14746e-21 -1.96515e-39)
(-3.17694e-22 3.1565e-21 -1.79613e-39)
(-2.25436e-22 2.73925e-21 -1.90265e-39)
(-2.7612e-22 5.22902e-22 2.18729e-39)
(-2.02195e-21 1.90337e-22 1.0797e-38)
(3.09414e-22 2.04086e-21 -1.4767e-38)
(4.67864e-23 2.61746e-21 -2.31281e-38)
(-2.00045e-21 -9.25132e-24 2.63173e-38)
(-1.37285e-22 1.35478e-21 -7.65471e-39)
(1.30703e-22 1.05106e-21 -4.31881e-39)
(4.50306e-23 1.51335e-21 -9.65173e-39)
(5.67477e-24 8.9506e-22 3.92952e-40)
(1.65258e-21 2.26136e-21 0)
(-7.86491e-22 3.13303e-21 4.58629e-40)
(9.46208e-23 2.65309e-21 -7.71116e-39)
(1.28576e-22 2.38255e-21 0)
(1.23765e-22 3.53336e-22 6.56707e-39)
(-2.46851e-22 2.14415e-21 0)
(2.59548e-23 1.84949e-22 0)
(-6.53581e-22 3.07265e-21 3.92655e-39)
(-1.25056e-22 6.35082e-22 8.36101e-39)
(-1.10993e-22 1.50376e-21 -2.42268e-41)
(-1.37384e-22 1.58611e-21 3.7325e-39)
(2.96862e-22 1.11791e-21 1.32268e-39)
(-5.15445e-22 3.09737e-21 4.20375e-39)
(1.93176e-23 3.3066e-22 -4.64845e-41)
(-5.16249e-24 2.9012e-22 -1.02805e-38)
(-5.46769e-22 3.0071e-21 -4.33276e-39)
(7.26212e-23 5.91935e-22 0)
(-1.46255e-22 2.29241e-21 -4.71538e-39)
(4.51101e-22 1.20059e-21 -4.07888e-39)
(-1.68963e-21 3.84834e-21 -5.61426e-40)
(-1.87155e-23 1.65285e-23 -4.31836e-39)
(3.4858e-22 2.2901e-21 2.75064e-38)
(-3.62777e-23 1.4801e-21 -9.4531e-42)
(-3.80625e-23 1.26198e-21 -8.88023e-39)
(-1.07317e-22 7.75718e-22 -7.73308e-39)
(-7.62132e-24 3.05907e-23 -8.56591e-39)
(1.75976e-22 1.29917e-21 -2.73847e-41)
(2.7164e-22 1.07403e-21 8.23069e-39)
(2.85839e-24 1.25109e-23 4.35699e-39)
(-1.37853e-21 1.28544e-21 0)
(3.80815e-24 2.07003e-21 -7.67648e-41)
(-5.70558e-23 1.93175e-21 4.68005e-39)
(1.16099e-22 2.61993e-21 2.56901e-39)
(1.96807e-23 3.70133e-22 5.37484e-39)
(-4.77455e-24 1.47461e-22 1.68157e-38)
(-2.51492e-22 1.73589e-21 9.90371e-39)
(-2.18497e-23 7.83967e-23 1.04852e-38)
(-4.5067e-23 1.68383e-21 0)
(2.58903e-23 1.20314e-21 -2.902e-40)
(-2.99432e-24 7.04253e-23 -4.95569e-39)
(1.078e-22 1.27423e-21 0)
(-2.2663e-23 1.46675e-21 -5.87464e-39)
(9.48141e-23 1.06541e-21 -9.52838e-39)
(-3.08538e-22 2.022e-21 3.81142e-39)
(5.87854e-24 1.03606e-23 0)
(-8.60875e-23 8.90268e-22 -2.05809e-39)
(7.69147e-24 9.83303e-24 -4.05424e-39)
(-1.19914e-21 4.06321e-21 0)
(-1.77196e-23 4.68017e-23 -6.0328e-39)
(-1.70995e-21 3.14823e-21 7.34254e-40)
(-3.97796e-23 9.28629e-23 3.01797e-39)
(-5.14746e-22 2.62675e-21 0)
(-9.79484e-22 1.12707e-21 3.42342e-41)
(1.57839e-23 4.06839e-23 1.16348e-38)
(1.83835e-23 4.097e-22 0)
(-2.37292e-21 5.53653e-21 0)
(-1.25451e-22 7.68356e-22 0)
(-9.76509e-23 4.24955e-22 6.03264e-39)
(3.41662e-23 3.6336e-23 0)
(-6.05383e-22 1.15774e-21 -1.063e-38)
(-3.77985e-23 2.91205e-21 -5.69177e-40)
(7.33132e-21 1.44922e-21 0)
(-4.3905e-22 4.40314e-22 -3.5106e-39)
(-4.68697e-23 4.27904e-22 0)
(-3.75451e-22 2.39877e-21 1.73843e-39)
(9.48226e-24 8.96346e-22 1.1736e-38)
(2.41903e-22 4.9562e-22 1.61241e-38)
(-9.56331e-23 5.30904e-22 3.11038e-39)
(1.11078e-21 7.19196e-22 0)
(-3.87879e-22 2.97287e-21 -1.74671e-38)
(1.17981e-21 7.01461e-22 0)
(-2.1368e-23 2.36779e-21 -2.34898e-39)
(-2.90021e-21 2.67327e-21 -3.5336e-39)
(-1.67232e-23 3.06392e-21 0)
(-4.97037e-22 1.33989e-21 1.45462e-38)
(-6.59954e-23 3.78363e-22 -5.94594e-39)
(1.08216e-20 -1.15497e-21 0)
(5.77313e-21 5.82109e-21 0)
(-1.78585e-21 7.29481e-22 -1.0156e-38)
(-1.47199e-21 -3.54451e-23 0)
(4.07503e-22 2.86227e-21 6.15265e-40)
(-1.7132e-21 -2.96627e-22 6.79752e-38)
(3.52651e-22 1.94506e-21 -4.89199e-39)
(-1.20154e-22 1.11897e-21 -1.0838e-38)
(1.04615e-22 1.18177e-21 0)
(-1.22236e-22 8.59373e-22 -2.18442e-38)
(-1.04047e-22 8.75538e-22 0)
(-1.86402e-22 2.62082e-21 3.27005e-40)
(-1.43918e-21 4.39044e-21 0)
(-8.64121e-24 2.02661e-23 0)
(-1.16801e-21 9.23684e-22 0)
(1.791e-23 1.76372e-23 -4.25683e-39)
(-1.74252e-21 3.30249e-21 6.24751e-40)
(-1.55668e-21 2.07154e-21 0)
(-6.95199e-23 -1.49658e-22 0)
(8.37338e-24 -4.81912e-24 8.10256e-39)
(-2.57652e-22 -3.90627e-22 0)
(6.62333e-24 -5.25915e-24 -1.04055e-38)
(-1.5355e-21 3.87127e-21 4.89766e-40)
(3.87437e-23 2.64945e-22 5.78569e-39)
(-4.12484e-23 1.71882e-22 0)
(-9.18914e-23 6.25919e-22 5.44858e-39)
(-4.48287e-23 2.61129e-22 0)
(-1.21223e-21 3.83125e-21 0)
(-2.31622e-23 1.37062e-22 0)
(6.06207e-23 1.83172e-22 3.44966e-40)
(-4.86744e-23 1.63212e-22 5.42749e-39)
(-1.62138e-21 4.0675e-21 -4.86146e-40)
(3.61033e-23 1.85289e-22 6.20604e-39)
(-3.56548e-23 6.37197e-23 6.26527e-39)
(-6.83555e-22 2.25855e-21 9.54318e-40)
(-2.44257e-22 4.08249e-22 9.05014e-39)
(-8.49241e-22 1.36673e-22 -2.07105e-39)
(-2.25358e-22 3.00312e-21 -1.78077e-39)
(2.83377e-22 3.89134e-22 -9.77482e-39)
(9.72683e-22 9.22052e-22 7.83894e-39)
(4.50761e-22 3.48154e-22 -5.65852e-39)
(-2.20754e-22 1.48566e-21 5.91453e-39)
(-9.3556e-24 3.20319e-23 6.04083e-39)
(1.60851e-22 2.94494e-21 2.52585e-39)
(-8.3883e-23 1.21339e-21 1.31981e-39)
(-9.85502e-23 4.20068e-22 1.03716e-38)
(5.23948e-22 1.53353e-21 -5.50729e-38)
(3.93921e-21 5.14321e-22 0)
(6.24976e-21 2.14227e-21 -3.56236e-38)
(-1.10087e-22 6.97112e-22 -5.70371e-39)
(2.7135e-21 2.01291e-21 0)
(-4.57844e-23 3.82887e-22 -6.08812e-39)
(-1.06206e-21 1.15927e-21 0)
(-3.7498e-22 -1.81855e-23 -1.85749e-38)
(-3.03341e-22 1.6319e-21 1.44409e-40)
(1.9549e-22 1.40289e-21 -1.06154e-38)
(-1.18965e-22 9.794e-22 1.60977e-38)
(-1.89627e-22 1.30495e-21 -4.42922e-40)
(-1.28215e-22 1.00462e-21 -5.94018e-39)
(-2.48357e-22 6.98917e-22 -3.54757e-39)
(-1.25524e-22 1.1237e-21 6.51138e-39)
(-1.11969e-21 8.33291e-22 1.72716e-39)
(4.53574e-22 2.4565e-21 0)
(-1.70957e-21 2.64651e-21 -2.23921e-40)
(-8.67462e-23 2.36373e-21 -1.22347e-38)
(-7.87421e-23 5.37262e-22 0)
(-6.16086e-22 7.1443e-22 -8.12369e-40)
(3.72531e-21 5.79245e-21 0)
(-1.18079e-21 3.37983e-21 1.25756e-37)
(4.09121e-23 6.2849e-23 -5.75485e-39)
(3.53966e-23 1.00356e-22 -5.79625e-41)
(4.81128e-23 1.12407e-22 1.74371e-41)
(1.76478e-23 2.03981e-23 9.62056e-39)
(-5.20621e-23 9.47956e-23 0)
(-5.56817e-22 3.94067e-23 7.39481e-40)
(-8.63439e-23 5.04254e-22 -1.30734e-38)
)
;

boundaryField
{
    back
    {
        type            empty;
    }
    front
    {
        type            empty;
    }
    left
    {
        type            noSlip;
    }
    top
    {
        type            uniformFixedValue;
        uniformValue    
        {
            type            scale;
            scale           
            {
                type            squarePulse;
                start           0.3;
                duration        0.3;
            }
            xScale          
            {
                type            constant;
                value           1;
            }
            value           
            {
                type            constant;
                value           (0 -0.7 0);
            }
        }
        value           uniform (0 -0 0);
    }
    right
    {
        type            noSlip;
    }
    bottom
    {
        type            zeroGradient;
    }
}


// ************************************************************************* //
