/*--------------------------------*- C++ -*----------------------------------*\
  =========                 |
  \\      /  F ield         | OpenFOAM: The Open Source CFD Toolbox
   \\    /   O peration     | Website:  https://openfoam.org
    \\  /    A nd           | Version:  9
     \\/     M anipulation  |
\*---------------------------------------------------------------------------*/
FoamFile
{
    format      ascii;
    class       volVectorField;
    location    "1";
    object      U;
}
// * * * * * * * * * * * * * * * * * * * * * * * * * * * * * * * * * * * * * //

dimensions      [0 1 -1 0 0 0 0];

internalField   nonuniform List<vector> 
2510
(
(-7.17098e-05 -0.0738057 0)
(2.19508e-05 -0.0779511 -6.4041e-18)
(-6.52807e-06 -0.0719659 0)
(0.000877512 -0.0408624 -4.33759e-17)
(0.000477354 -0.049158 2.51663e-17)
(0.000522106 -0.0704559 2.65055e-17)
(-7.92864e-05 -0.0445587 -1.62548e-17)
(-0.000385715 -0.0709925 2.75938e-17)
(0.000404134 -0.0379846 9.28193e-19)
(0.000677177 -0.0700396 2.53943e-17)
(0.00329591 0.0206474 -1.22206e-17)
(-0.00435209 -0.0312258 0)
(6.39711e-06 -0.0782107 -7.50376e-18)
(-0.0010326 -0.0459401 -1.62856e-17)
(-6.93427e-05 -0.0760759 1.36851e-17)
(-0.000935971 -0.0707222 -1.00235e-17)
(5.20331e-05 -0.0460276 3.32591e-17)
(3.57715e-05 -0.00715003 -1.44259e-17)
(-0.000305019 -0.0409989 -9.83611e-18)
(-0.00167155 -0.0540119 1.38741e-17)
(-0.00112208 -0.0451347 -1.30566e-17)
(-0.000411905 0.0130973 -2.72819e-17)
(-0.00062234 -0.0711769 8.27551e-18)
(6.96147e-05 -0.0390023 -1.41877e-17)
(0.00223378 0.0323307 0)
(-0.00365976 -0.025804 0)
(0.00034563 -0.051914 -9e-19)
(-0.00122143 -0.0702727 0)
(-0.000227358 -0.0318061 -2.87264e-17)
(-0.0138935 -0.0524858 -8.77563e-19)
(-0.0121586 -0.0558763 0)
(-0.01247 -0.0560963 0)
(-0.00203824 -0.0653922 0)
(0.0224321 0.0155493 1.42394e-17)
(0.0098632 0.0405381 -1.23472e-17)
(-0.00659122 0.0114236 1.53901e-17)
(-0.006467 0.0247179 -1.4382e-17)
(-0.00759704 0.0085988 8.70001e-19)
(-0.000255742 0.0181751 0)
(-0.00190453 0.00825444 0)
(-0.000399095 0.0113945 0)
(-0.00225648 -0.0191586 2.76323e-17)
(-0.000318706 -0.000811234 5.32116e-23)
(-0.000534899 -0.0301824 4.60972e-19)
(-3.89958e-05 -0.00462086 0)
(-0.000147256 -0.0105285 0)
(4.3527e-06 -0.00498203 -1.4166e-17)
(-0.00247758 0.0311991 0)
(-0.000183648 -0.00728392 2.87199e-17)
(-0.00162313 0.0382726 -1.48553e-17)
(-0.0002546 -0.0414826 0)
(0.00469015 0.0354122 1.51522e-17)
(-0.00103916 0.0293798 0)
(-0.000377263 0.0210046 0)
(-0.000594672 0.00472815 -1.52387e-17)
(-0.00342712 -0.0283482 0)
(0.00474925 0.0508215 4.00973e-18)
(-0.0019049 -0.0107499 -4.02141e-18)
(-0.00305063 0.0371145 -4.41892e-19)
(-0.00179776 -0.0330153 0)
(-0.00393927 -0.036011 -1.46282e-17)
(-0.00687279 -0.0416057 0)
(-0.000524259 -0.0692353 4.60686e-19)
(0.00397793 -0.0636482 0)
(0.012835 -0.0400382 -1.46057e-17)
(0.022943 -0.00209819 0)
(-0.00121198 0.0235924 1.45356e-17)
(-0.000973688 0.0201439 -2.20943e-19)
(-0.00163452 0.00778135 0)
(-0.00170765 0.00355834 0)
(-0.00173511 -0.00108172 -2.83256e-17)
(-0.00113126 -0.0182291 0)
(-0.000761413 -0.0205869 0)
(-0.000446039 -0.0225454 0)
(-0.000126197 -0.0711159 1.51813e-24)
(-0.00325341 0.0242862 -1.77721e-18)
(-0.00163083 -0.0691917 -8.33039e-18)
(-0.000300401 -0.0319006 -2.85777e-17)
(-0.00641552 -0.00536179 -8.97729e-22)
(-0.00749071 0.000784174 -1.40848e-17)
(-4.36881e-05 -0.00684234 0)
(-0.000767598 -0.00907817 0)
(-0.0013321 -0.0128766 0)
(-0.00191816 -0.0197191 0)
(0.000413554 -0.0322851 0)
(0.00054602 -0.0331719 0)
(0.00369203 -0.0276392 0)
(0.00551325 -0.00913242 0)
(0.0105698 0.0193149 2.78249e-17)
(-3.65444e-05 0.0317528 -1.47381e-17)
(-0.00360422 -0.00975987 2.21707e-19)
(-0.0030051 -0.0121186 1.43431e-17)
(-0.00331242 -0.0146318 -1.42855e-17)
(-0.00398287 -0.0200911 0)
(-0.00410283 -0.0228168 2.18204e-22)
(-0.00422131 -0.0255631 -1.43357e-17)
(-0.00429599 -0.0284104 4.19094e-17)
(-0.000784857 0.0014165 0)
(-0.0034764 -0.0402218 -1.41393e-17)
(-0.00276517 -0.0437394 -1.42694e-17)
(-0.00190738 -0.0468814 -2.87706e-17)
(-0.00093082 -0.050729 0)
(-0.00143365 -0.0604722 1.51276e-17)
(-0.000121856 -0.063551 1.57077e-17)
(0.0044723 0.0511727 1.4643e-17)
(-0.00157169 -0.00483535 5.73608e-20)
(-0.000155571 -0.0428069 -9.21841e-18)
(0.000120201 -0.0706367 -3.07022e-17)
(-0.000151282 -0.0142482 -1.42532e-17)
(-0.00123282 -0.0120048 2.817e-17)
(-0.00449332 0.0414053 0)
(0.000280438 -0.0556203 0)
(-0.000101813 -0.00722962 0)
(8.44595e-05 -0.0563303 1.41972e-17)
(-0.00121172 -0.044291 8.34343e-18)
(-0.000179048 -0.0263211 0)
(-0.000567846 -0.0309073 -2.73047e-17)
(0.000339815 -0.070896 -1.64201e-17)
(0.000267217 -0.065511 0)
(7.31616e-05 -0.028959 8.00174e-24)
(-0.000629929 0.0196402 2.75832e-17)
(0.00018135 -0.062844 -2.79302e-17)
(0.00434393 0.0319027 1.09088e-17)
(-0.0036621 -0.0235315 3.619e-18)
(0.000169725 -0.0388144 0)
(-0.00338524 0.0443954 -1.32793e-17)
(-0.000165741 -0.027518 -1.55394e-23)
(-0.000265473 -0.0457183 -1.43326e-17)
(-0.000866061 0.0262206 1.49794e-17)
(0.00134811 0.0236978 -4.22796e-22)
(0.000204622 0.0165445 0)
(-0.000407409 0.0139178 0)
(-0.000485353 0.00431419 1.53398e-17)
(-0.00404923 -0.0336061 0)
(0.00090032 -0.0635806 0)
(-9.80717e-05 -0.077149 1.36811e-17)
(-9.18147e-05 -0.0139705 0)
(-0.000125798 -0.0258343 2.69391e-17)
(-0.0025689 -0.03055 0)
(-0.00468833 -0.0365883 0)
(-0.00696437 -0.0464915 -1.38314e-17)
(0.00132994 -0.0653255 0)
(0.00493603 -0.0496371 0)
(0.014644 -0.0170023 0)
(0.0161496 0.0174517 -1.38561e-17)
(0.0109998 0.0453294 0)
(-0.00104117 0.0531576 2.14094e-19)
(-0.00191226 0.0210121 1.04957e-17)
(-0.00179296 0.0177738 0)
(-0.00168032 0.0141316 -1.42058e-17)
(-0.00177488 0.00509204 0)
(-0.00232661 0.000844601 -1.47538e-17)
(-0.0024267 -0.00346461 1.47377e-17)
(-0.00218894 -0.00752804 4.42392e-17)
(-0.00162799 -0.0117484 -2.77015e-17)
(-0.00453223 0.0337176 0)
(-0.00165866 -0.0218841 0)
(-0.0013655 -0.0250765 1.47305e-17)
(-0.000864296 -0.0275587 1.46956e-17)
(-0.00399406 0.0273054 0)
(-0.00054786 0.0263475 -1.08258e-17)
(-0.00120236 0.02647 -1.73676e-17)
(-0.0094375 -0.0513019 -1.40103e-17)
(-0.0121767 -0.0515431 0)
(0.0199587 0.0289202 -3.49116e-18)
(0.0246592 0.0192578 -1.10275e-17)
(-0.00232364 0.0475475 1.42883e-17)
(-0.00454141 0.0261711 0)
(-0.000507735 0.0155024 -1.46231e-17)
(-0.00125448 0.0111098 -1.39355e-17)
(-0.00044447 -0.0046183 -2.91498e-17)
(-0.00141766 -0.0158489 0)
(-8.51572e-05 -0.0104676 1.45862e-17)
(-0.000416718 -0.024306 0)
(-0.00899883 -0.0607031 1.45457e-17)
(-0.00512318 -0.064813 0)
(0.018635 0.0250818 -1.78711e-18)
(0.0150986 0.0388229 1.61189e-17)
(-0.00638535 0.0212249 -1.45093e-17)
(-0.00126309 0.0134324 -3.51136e-18)
(-0.000464999 0.0167816 3.68257e-18)
(-0.0014658 -0.0141238 0)
(-0.000718898 -0.00356715 1.43069e-17)
(-0.000309216 -0.0234061 -5.71905e-20)
(-6.26124e-05 -0.0102623 1.42117e-17)
(-0.000918339 0.0277531 1.79006e-17)
(0.00063441 -0.0524534 -1.46412e-17)
(0.000527831 -0.0559287 1.4768e-17)
(-0.00326082 0.0411215 0)
(-0.000208435 -0.0310513 0)
(0.00675532 0.0478399 0)
(5.09834e-05 0.0503194 0)
(-0.00131556 0.0188226 -1.12356e-22)
(-0.00158068 -0.00225956 1.06692e-22)
(-0.00250671 -0.0166837 0)
(-0.00428931 0.0302061 1.53888e-17)
(-0.00166061 -0.0284084 0)
(-0.00349465 -0.0329347 1.45429e-17)
(-0.00587672 -0.0408594 0)
(0.000641988 -0.067437 0)
(0.00188852 -0.0599512 1.8133e-18)
(0.0100223 -0.0353963 1.45423e-17)
(0.0167666 0.000805072 0)
(-0.00209645 0.0194661 -1.47475e-17)
(-0.00168605 0.0158634 0)
(-0.00260967 0.00293972 -1.47914e-17)
(-0.00261997 -0.0014325 -9.24489e-19)
(-0.00266929 -0.00579592 1.46586e-17)
(-0.00166853 -0.0235414 0)
(-0.00119311 -0.0264575 0)
(-0.000775887 -0.0286356 1.62704e-17)
(-0.00539611 0.00784532 1.46829e-17)
(-0.00566336 0.0100976 -9.27126e-19)
(-0.00581344 0.0138462 0)
(-0.00685346 0.0171933 5.0502e-22)
(9.12869e-06 -0.0131997 0)
(-4.96889e-05 -0.0136424 8.76681e-19)
(-0.00122949 -0.0186696 0)
(-0.00103019 -0.0164019 0)
(-0.00238632 -0.025867 0)
(-0.00196017 -0.0217564 0)
(-0.00303563 -0.0368439 0)
(-0.00312964 -0.0310199 0)
(0.000586815 -0.0519836 0)
(-0.000135534 -0.0504946 0)
(-0.000743167 -0.0493999 -1.78362e-18)
(0.00014185 -0.0467893 0)
(0.0052344 -0.0299434 0)
(0.00244557 -0.0405556 0)
(0.00811963 -0.000538121 0)
(0.00776283 -0.0155011 0)
(0.0126788 0.0285871 -1.42086e-17)
(0.00803578 0.0308062 0)
(0.000567191 0.0488906 -2.25794e-19)
(0.00152644 0.0481527 1.86894e-18)
(-0.00291647 0.00130075 0)
(-0.00338274 0.00138811 3.72561e-18)
(-0.00233301 -0.00153111 0)
(-0.00275504 -7.42221e-05 -1.45086e-17)
(-0.00273512 -0.00328268 1.45048e-17)
(-0.00306315 -0.00473496 0)
(-0.00334304 -0.0108144 0)
(-0.0035512 -0.0118657 0)
(-0.00361272 -0.015243 9.04706e-19)
(-0.00354547 -0.0135959 0)
(-0.0036801 -0.0188245 0)
(-0.00368316 -0.0170354 2.89803e-17)
(-0.00371599 -0.0220245 -1.41675e-17)
(-0.00370884 -0.020571 -2.87524e-17)
(-0.000783008 -0.00191715 0)
(-0.000836639 -1.47027e-06 0)
(-0.00301943 -0.0340764 2.9652e-17)
(-0.00276404 -0.0355971 0)
(-0.00243275 -0.0374636 0)
(-0.00205773 -0.0390698 1.4443e-17)
(-0.00168803 -0.0406484 1.44569e-17)
(-0.00132132 -0.0421185 1.27599e-17)
(-0.00158672 -0.0641998 0)
(-0.000993835 -0.0518287 -1.52514e-17)
(-0.000991902 -0.0514756 1.25684e-17)
(-0.00164977 0.0282201 -3.59732e-18)
(2.52764e-05 -0.0665113 0)
(-0.00105701 -0.0272812 0)
(0.000281082 -0.0238676 0)
(0.000117544 -0.0290276 0)
(-0.000437929 -0.0147556 -1.45832e-17)
(-0.000916469 -0.0709664 -4.14323e-18)
(0.000596653 -0.0670977 1.81538e-17)
(0.000113882 -0.070866 -3.46387e-17)
(0.000330042 -0.0625166 0)
(-0.00173017 -0.0666287 2.31997e-17)
(0.000210204 -0.062536 0)
(-0.00162305 -0.0695794 1.91111e-17)
(-0.000636505 0.0179601 0)
(-0.000261603 -0.0579635 0)
(0.000548213 -0.044195 0)
(0.000414733 -0.0249289 -1.5249e-17)
(-0.00165043 0.0144267 1.44357e-17)
(8.99207e-05 -0.0520829 -1.32435e-17)
(-0.000946204 -0.0457667 0)
(0.000425111 -0.0300422 -1.52816e-17)
(0.000599815 -0.0588805 2.53679e-17)
(0.00175631 -0.0450888 1.54903e-17)
(-0.000396141 -0.0237055 2.82279e-17)
(-0.000506599 -0.0322595 -1.45148e-17)
(-0.000604063 -0.0331245 -8.64536e-24)
(-0.000257655 0.0161429 0)
(-0.000173445 0.0149664 2.94668e-17)
(-0.000474891 0.00986416 1.09629e-22)
(-0.000495176 0.00804402 0)
(-0.000557832 0.0061258 0)
(-0.000324856 -0.00185598 1.48881e-17)
(-0.000167257 -0.00311982 0)
(-0.000190165 -0.00374284 -1.4884e-17)
(0.0348671 0.00344764 0)
(0.031746 -0.0223248 -1.47419e-17)
(0.0147911 -0.0507946 1.47155e-17)
(0.00093519 -0.0614652 1.4681e-17)
(-0.00994484 -0.0488657 0)
(-0.00573651 -0.0475411 -1.47335e-17)
(-0.00280662 -0.0469888 7.17643e-21)
(-0.000645081 0.0223554 0)
(0.000653415 -0.039993 0)
(-0.00100612 -0.0467633 1.52786e-17)
(0.000286544 -0.0392598 0)
(-0.000346962 0.0187267 -1.4787e-17)
(-0.0012032 0.0296571 0)
(0.00018948 -0.0555679 -1.46948e-17)
(-0.00476665 0.0374021 1.44916e-17)
(-2.41059e-05 -0.0248273 0)
(0.000713759 0.0542977 -1.83056e-18)
(0.00725807 0.0487352 0)
(-0.00229412 0.0118463 1.47072e-17)
(-0.00255225 -0.00929621 -1.46767e-17)
(-0.00179233 -0.0091925 0)
(-9.29916e-05 -0.00495276 3.02898e-17)
(-0.000239446 -0.0105034 -1.44895e-17)
(-0.00277108 -0.0346337 -9.19516e-19)
(-0.00532606 -0.0387129 4.5941e-19)
(-0.00864934 -0.0462109 1.45475e-17)
(0.0025259 -0.068788 -9.00722e-19)
(0.0234905 0.016824 1.45717e-17)
(0.0194534 -0.0211945 4.59509e-19)
(0.00731655 -0.0543638 0)
(-0.00286014 0.034209 -1.4518e-17)
(-0.00131926 0.0259633 -1.43956e-17)
(-0.00110299 0.0221867 2.3265e-19)
(-0.00143855 0.0105118 1.49383e-17)
(-0.00163698 0.00607115 1.49609e-17)
(-0.00168623 0.00174559 -2.98393e-17)
(-0.00105563 -0.0161003 0)
(-0.00084562 -0.0191493 -1.49336e-17)
(-0.000506286 -0.0210662 -2.97853e-17)
(-0.000503981 0.0251028 1.45084e-17)
(-0.000478517 0.0238807 -1.48468e-17)
(-0.000233155 0.0219203 -1.4393e-17)
(-0.000345809 0.0228255 -1.49819e-17)
(-0.000452396 0.0143769 2.99913e-17)
(-0.000702579 0.0128207 -2.97317e-17)
(-0.000745444 0.00960022 -1.48361e-17)
(-0.000637336 0.0112651 1.48339e-17)
(-0.000712624 0.00794665 1.47708e-17)
(-0.000793425 0.00618025 1.46417e-17)
(-0.000540187 -0.00550791 1.5011e-17)
(-0.00047559 -0.00666037 -2.97567e-17)
(-0.000359986 -0.00758103 1.48433e-17)
(-0.000300726 -0.008314 -1.48427e-17)
(-0.00018534 -0.00885587 2.98677e-17)
(-0.000329344 -0.00965675 -1.4514e-17)
(0.0304765 0.0111063 0)
(0.0327596 -0.00125347 -1.48678e-17)
(0.0304292 -0.0165325 1.44029e-17)
(0.0238923 -0.0327903 4.64038e-19)
(0.00848109 -0.0583745 -1.48213e-17)
(0.0154274 -0.0476805 1.48347e-17)
(-0.00275559 -0.0640668 1.42031e-17)
(0.00331446 -0.0638031 -1.3839e-17)
(-0.0083525 -0.0464665 -1.48426e-17)
(-0.0105325 -0.0485245 0)
(-0.00641074 -0.0450195 1.43764e-17)
(-0.00472404 -0.044027 4.63853e-19)
(-0.00216844 -0.042825 0)
(-0.00331783 -0.0433206 -1.39041e-17)
(-0.00143422 0.0323225 1.47018e-17)
(-0.00148913 0.0352285 1.50239e-17)
(-0.00105611 -0.0237198 4.84268e-17)
(-0.000662426 -0.0422163 0)
(-0.00127111 -0.0425693 -2.99588e-17)
(-0.000819445 -0.0305148 -1.89191e-18)
(0.00121999 -0.0404906 -1.50787e-17)
(0.000183224 -0.0516459 2.92123e-17)
(-0.000170561 -0.0306869 -3.13105e-18)
(0.000158186 -0.0431915 1.50899e-17)
(-0.000114443 -0.00541878 -1.56963e-17)
(0.000167188 -0.0218358 0)
(4.35937e-05 -0.0097814 0)
(3.24145e-05 -0.00438723 0)
(0.000279138 -0.0298206 1.26763e-17)
(0.00026752 -0.0286054 2.99574e-20)
(2.69022e-05 -0.0044903 0)
(0.00035867 -0.0277531 0)
(0.000292823 -0.0210139 0)
(0.000606232 -0.0105331 9.63853e-19)
(0.000386146 -0.0205927 0)
(0.000465527 -0.0273495 0)
(0.000606163 -0.0268099 0)
(0.000497844 -0.0200351 0)
(0.000773666 -0.0261008 0)
(0.000295143 -0.0223326 -1.52714e-17)
(0.000621218 -0.019315 0)
(0.00355732 -0.021143 0)
(0.00231425 -0.00987489 0)
(0.000958772 -0.025202 0)
(0.000184851 -0.0220911 -1.53352e-17)
(0.000749033 -0.018417 0)
(0.000874952 -0.0173363 0)
(0.00115102 -0.0241066 0)
(0.00144778 -0.0075557 0)
(0.000994291 -0.0160766 0)
(0.00134103 -0.0228188 0)
(5.83729e-05 -0.00962273 0)
(0.00152171 -0.0213515 0)
(0.00110384 -0.0146479 0)
(0.0016889 -0.0197226 0)
(0.00120173 -0.0130644 0)
(0.00336642 -0.00742253 0)
(0.00184079 -0.0179527 0)
(0.00226521 0.00573513 0)
(0.00128652 -0.0113437 0)
(0.00197788 -0.0160649 0)
(0.00136706 -0.00950477 0)
(0.0016051 0.00768951 0)
(4.81257e-05 -0.00465765 0)
(0.00409911 -0.0282363 0)
(0.000280871 -0.0289133 1.53661e-17)
(0.00024488 0.0207753 0)
(0.00244729 -0.00548663 0)
(0.00164467 0.00107857 0)
(0.000941761 0.0206346 0)
(0.00248979 -0.0032649 0)
(0.00165401 0.00333386 0)
(0.00157636 -0.00336906 0)
(0.00248918 -0.0010396 0)
(0.00164423 0.00554714 0)
(0.00161756 -0.00117071 0)
(0.000432595 -0.0243551 1.27833e-17)
(0.00210489 -0.0140791 0)
(0.0039663 -0.0164953 0)
(0.00238783 -0.00769516 0)
(0.00146754 0.011826 0)
(0.00137786 0.0137921 0)
(0.00214755 0.00788374 0)
(0.000136572 0.0143682 0)
(0.00201446 0.00994668 0)
(0.00127734 0.015667 0)
(8.92516e-05 -0.0101544 0)
(4.34534e-05 -0.00994291 0)
(0.00116873 0.0174381 0)
(0.00186997 0.0119134 0)
(0.00171817 0.0137757 0)
(8.70279e-05 -0.00943758 0)
(0.00243768 0.00124495 0)
(0.00105527 0.0190961 0)
(0.000172134 0.0139711 0)
(0.00156387 0.0155273 0)
(0.00658184 -0.0717168 1.52042e-17)
(0.00220927 -0.0245202 0)
(0.00184672 0.0306714 0)
(0.00319282 0.0278174 0)
(0.00268677 -0.107324 0)
(0.00190446 -0.099593 0)
(0.00245434 0.0331452 0)
(0.000497375 0.0044714 1.535e-17)
(0.00405211 0.030334 0)
(0.00531773 -0.0669301 0)
(-0.00211485 -0.108979 1.51818e-17)
(0.00320148 -0.00289856 0)
(0.00310694 0.0362238 0)
(-0.00738631 -0.0700471 0)
(-0.00187071 -0.132127 3.03203e-17)
(-0.00259447 -0.104902 0)
(-0.00256789 -0.101279 -1.51886e-17)
(-0.00148388 -0.123859 -1.51581e-17)
(-0.00292841 -0.101915 0)
(-0.00291971 -0.0987024 0)
(0.00222077 -0.0120098 0)
(-0.00309131 -0.0973494 0)
(-0.00324834 -0.0988372 0)
(0.00484548 0.0334413 0)
(-0.00427903 -0.125931 1.85157e-21)
(-0.012907 -0.0787753 0)
(0.00087652 -0.122983 6.86415e-23)
(-0.00353113 -0.0956721 0)
(0.000700615 0.00529288 0)
(0.0030288 -0.0806102 0)
(-0.00343332 -0.0946121 2.96652e-20)
(0.00516765 -0.0651068 0)
(0.00870876 -0.182109 6.6503e-22)
(0.00136653 -0.107448 0)
(0.00353499 -0.0991791 0)
(0.00242393 0.0258048 0)
(-0.00377448 -0.0924599 -1.52034e-17)
(0.00395387 -0.0691337 0)
(0.00725427 0.0191389 0)
(0.00770165 -0.195306 4.71061e-22)
(-0.00487426 -0.141274 -2.1268e-22)
(0.00366851 -0.0733618 0)
(-0.00240269 -0.102451 -5.92584e-20)
(0.00793467 0.00365648 0)
(0.00068887 0.0036549 -1.53585e-17)
(0.0014281 -0.118958 3.03545e-17)
(-0.00374986 -0.091855 2.9674e-20)
(0.00448448 -0.0712424 0)
(0.00293851 -0.19862 -1.61653e-23)
(0.00653503 -0.110763 0)
(-0.00400696 -0.191301 -1.50565e-17)
(0.000196906 0.0215865 0)
(-0.00226712 -0.107706 0)
(-0.00242965 -0.106336 0)
(0.00503434 -0.0692872 0)
(-0.0117311 -0.173449 -1.09302e-21)
(-0.00402365 -0.0890741 0)
(0.00876191 0.00685546 0)
(0.00523727 -0.0680669 0)
(-0.00402764 -0.0876532 0)
(0.00168261 -0.113695 -1.04212e-22)
(-0.0185475 -0.142679 -1.26065e-21)
(0.000750455 0.0245842 0)
(-0.00151769 -0.119239 0)
(-0.0185432 -0.101211 -6.21416e-22)
(-0.0040965 -0.0845107 1.48827e-20)
(0.0129428 -0.158037 7.44365e-22)
(-0.00174904 -0.115576 0)
(-0.0039596 -0.0892496 -3.71372e-21)
(-0.00276189 -0.10342 0)
(0.00633441 0.0158261 0)
(-0.00887287 -0.0661422 -1.52531e-17)
(-0.00272489 -0.101809 1.5197e-17)
(0.00477983 -0.0802498 0)
(-0.00326404 -0.0959868 2.96641e-20)
(-0.00425277 -0.0863004 0)
(-0.00200714 -0.112559 0)
(0.0117999 -0.143819 5.6568e-22)
(-0.00291321 -0.132325 -3.03134e-17)
(-0.00226854 -0.109211 0)
(-0.00433925 -0.0849374 5.93549e-20)
(0.0128478 -0.151082 6.85986e-22)
(0.00948603 -0.168046 5.59781e-22)
(-0.00309383 -0.100381 0)
(-0.00404571 -0.0814818 0)
(-0.00250894 -0.105602 1.51895e-17)
(0.00764935 0.0228757 0)
(0.0102917 -0.126174 -3.48417e-22)
(0.00313653 0.00924077 0)
(-0.00359711 -0.0932465 -2.96516e-20)
(0.0126245 -0.130918 -3.02849e-17)
(0.0142417 -0.136532 6.10793e-22)
(0.00178834 -0.169723 3.49542e-23)
(-0.00446602 -0.0822611 1.85877e-21)
(0.000740237 -0.0534349 8.69185e-23)
(-0.00339698 -0.0972532 0)
(-0.00135031 -0.130187 -3.03248e-17)
(-0.00771936 -0.162898 -5.36741e-22)
(0.0141338 -0.147523 3.02204e-17)
(-0.00389205 -0.0904707 0)
(-0.0183435 -0.14838 -1.05225e-21)
(0.00351516 -0.0577353 3.03916e-23)
(0.00236353 0.00351479 0)
(0.00303861 -0.0926816 0)
(0.00882646 0.0108194 0)
(-0.00361815 -0.0809 0)
(-0.00297052 -0.0959285 0)
(0.00304264 -0.0656436 4.0662e-23)
(-0.00366036 -0.0940611 0)
(-0.00448578 -0.0796713 0)
(-0.00102118 -0.151919 3.02212e-17)
(0.00117185 -0.0174562 1.53787e-17)
(-0.0287658 -0.123871 -1.3143e-21)
(0.00853247 -0.153615 3.02067e-17)
(-0.00385789 -0.0786914 -2.97344e-20)
(-0.00414545 -0.0876893 1.51618e-17)
(2.7476e-05 -0.0796957 1.61606e-17)
(-0.011831 -0.143221 3.02306e-17)
(-0.000646103 -0.070361 1.49951e-17)
(0.007718 -0.00439937 0)
(-0.0100337 -0.05794 0)
(-0.0292633 -0.0897635 -7.22218e-22)
(0.000183249 0.0162379 0)
(-0.00304877 -0.0919708 -1.52339e-17)
(-0.00207089 -0.130054 8.89119e-23)
(0.00388896 -0.0889108 0)
(0.00102352 0.0271519 0)
(-0.00303307 -0.0880648 0)
(0.000641014 -0.00809818 -1.53466e-17)
(0.00537859 0.0371234 0)
(-0.00274608 -0.10002 0)
(0.00367845 0.0398895 0)
(-0.00441001 -0.0835973 0)
(0.00512338 -0.0647509 0)
(-0.00387954 -0.0908413 0)
(0.0059506 -0.0566307 1.41875e-23)
(-0.00407726 -0.0860676 1.52259e-17)
(-0.0239024 -0.127879 3.02636e-17)
(-0.0146543 -0.0604412 -1.73554e-23)
(0.00046561 0.0246272 0)
(0.0010286 -0.0505493 4.47013e-23)
(-0.0043688 -0.0772562 1.52485e-17)
(-0.00449046 -0.0809509 -1.52211e-17)
(0.000367187 0.0188005 0)
(-0.00408939 -0.0829732 1.85822e-21)
(0.00160389 -0.074091 3.80692e-23)
(0.000827876 0.0258164 0)
(0.00025571 -0.00671284 0)
(0.00126362 0.0214116 0)
(0.00249019 -0.101129 0)
(0.000760002 -0.0310714 0)
(-0.00291121 -0.0843098 2.97357e-20)
(0.00446352 -0.0851718 0)
(0.000712041 0.0258357 0)
(0.00280806 -0.0997311 0)
(0.00363142 -0.0901661 0)
(-0.00352706 -0.0762603 0)
(0.00192655 -0.0486762 0)
(0.00471945 -0.0755937 0)
(0.000361926 0.010915 0)
(0.00102784 0.027506 0)
(-0.00444591 -0.0784333 0)
(0.000173986 -0.00887594 1.53567e-17)
(0.000759993 -0.0152952 -1.54257e-17)
(0.000206893 0.0229919 0)
(0.000280658 0.017174 0)
(0.000281827 -0.00134596 1.5353e-17)
(-0.000487385 -0.00745513 0)
(4.50371e-05 -0.00424411 0)
(-0.0347805 -0.103242 3.03289e-17)
(-0.00145195 -0.0274492 0)
(0.00262295 -0.072803 0)
(0.000425102 -0.00556788 0)
(-0.000628686 -0.0727942 -1.53076e-17)
(0.00724238 -0.057945 1.52711e-17)
(1.77193e-05 -0.0798668 -1.60694e-17)
(-0.00131328 -0.0460061 1.54229e-17)
(0.00183667 -0.0226642 0)
(0.000408165 -0.00715255 1.53823e-17)
(-0.00268747 -0.080822 0)
(-0.00397127 -0.0800473 -1.52103e-17)
(3.80251e-05 -0.0796738 -3.22663e-17)
(-0.00147829 -0.0463966 0)
(0.000127441 0.0155842 0)
(0.0100227 -0.0533198 -2.33098e-22)
(-0.00625834 -0.0628464 -1.52629e-17)
(0.00310405 -0.0983087 0)
(0.00646618 0.026469 -1.65408e-17)
(-0.00305343 -0.0100546 -1.50875e-17)
(0.00430653 -0.0864139 0)
(0.00389718 -0.0494329 3.0571e-17)
(-0.00604281 -0.10832 0)
(0.000489409 0.0163479 1.53415e-17)
(0.00779409 -0.0533296 0)
(0.00467974 -0.0826985 0)
(-0.000552276 0.0203675 -1.48244e-17)
(0.000667995 0.010295 1.53496e-17)
(-0.000843485 -0.0336534 1.80848e-17)
(-0.00214762 0.00578839 1.44871e-17)
(0.000544624 0.0149586 0)
(0.000189674 -0.00253902 1.53509e-17)
(-0.00409332 -0.0751563 -1.52239e-17)
(-0.00172826 -0.054542 -1.65565e-17)
(-0.00306448 -0.0743586 0)
(0.00361953 -0.0954149 0)
(-0.00238013 -0.0777446 0)
(-0.000491869 -0.0717412 -1.5368e-17)
(-0.01261 -0.0519031 3.05415e-17)
(0.000624104 -0.0778654 9.46501e-22)
(-0.00108251 -0.0725529 0)
(-0.0042519 -0.0761645 -2.97105e-20)
(-0.00395634 -0.0497243 0)
(-0.00162547 -0.0484416 0)
(-0.00509005 -0.0599133 0)
(0.000448867 0.00828748 -1.53412e-17)
(-0.00158925 -0.0536238 1.74492e-17)
(-0.031873 -0.0727881 3.04352e-17)
(0.00758234 -0.0474493 0)
(-0.000139301 -0.071882 -1.46463e-17)
(-0.00369985 -0.0366085 -2.33785e-19)
(0.000275371 -0.00791671 1.53577e-17)
(0.000635701 -0.0671901 4.98971e-19)
(0.007247 0.0267891 0)
(-0.000850405 -0.0795626 -1.52446e-17)
(0.00294642 -0.0284947 0)
(0.000376003 -0.00647341 -1.53593e-17)
(0.000968089 -0.0763292 -9.30979e-22)
(-0.000856599 0.0298054 0)
(-0.000254583 -0.0776722 0)
(0.000210906 0.0135108 0)
(-0.000644372 -0.0720779 -3.17756e-17)
(-0.0439567 -0.0175467 0)
(0.000760875 -0.118468 -3.03578e-17)
(0.00317703 -0.041482 0)
(-0.00135008 0.00103181 0)
(-0.00129402 -0.0340763 1.04019e-17)
(-0.000895829 -0.0101134 0)
(8.79055e-05 -0.00378024 0)
(0.00331268 0.0106324 0)
(0.0153322 -0.0545945 0)
(0.000484414 0.00637953 0)
(-0.00055296 -0.0310097 -1.50862e-17)
(0.00555653 0.0194159 0)
(-0.0034134 -0.0309068 2.93408e-17)
(-0.00800948 -0.060597 0)
(-0.0021057 -0.106094 -3.03995e-17)
(0.000466153 0.000908911 -1.5357e-17)
(-0.0290982 -0.000827987 0)
(0.000615447 -0.000878573 1.53642e-17)
(-0.00448337 -0.0236791 0)
(-0.00111602 -0.10161 8.65467e-23)
(0.00106544 0.0276334 0)
(0.000521253 -0.00341512 0)
(-0.000183938 0.0144919 0)
(0.0038294 -0.0939525 0)
(0.000298575 0.0237263 0)
(-0.00156558 -0.0229873 0)
(0.000289046 0.0123628 0)
(-0.00116811 -0.0969867 7.36266e-23)
(0.00152042 -0.00550361 0)
(0.000795206 0.0224364 1.53072e-17)
(0.00673911 -0.0559343 1.52773e-17)
(0.00137985 0.0297754 0)
(0.00669935 0.00123628 0)
(-0.000906671 -0.110479 1.06023e-22)
(0.000145936 -0.0320056 0)
(-0.00228058 -0.101974 0)
(0.00778875 -0.025935 0)
(-0.0281731 -0.0418633 0)
(0.0111634 -0.0547284 -2.33074e-22)
(0.000836561 0.0320378 0)
(-0.0168497 -0.0522484 0)
(-0.00240681 -0.0872357 0)
(0.000700406 0.00696172 0)
(-0.00189019 -0.0780465 -1.52479e-17)
(-0.00508877 -0.00176692 0)
(-0.00343914 -0.0654089 -1.52616e-17)
(-0.00241724 0.00225216 -9.48337e-19)
(0.00340217 -0.0707098 0)
(0.00257151 -0.00379466 0)
(-0.00225072 -0.0832901 0)
(-0.00274218 -0.042706 0)
(-0.00115875 -0.092362 -1.52242e-17)
(-0.00190603 -0.110032 -1.51939e-17)
(0.000106641 0.0151125 0)
(-0.00160581 -0.0713992 0)
(0.000572508 -0.00218096 0)
(3.8641e-05 -0.0521642 0)
(-0.000619017 -0.122665 1.07844e-22)
(-0.00113096 -0.0900798 5.20282e-23)
(-0.00033193 -0.0325716 0)
(0.00308539 -0.0426038 0)
(-0.000198608 0.0154844 1.48288e-17)
(-0.00010424 -0.0790895 4.59363e-24)
(-0.00212757 0.0218044 1.56147e-17)
(-0.00128557 -0.0356449 0)
(0.000395781 9.87492e-05 0)
(0.00110183 -0.0733385 -3.05106e-17)
(-0.000443128 -0.0724218 -4.69293e-19)
(-0.00371123 -0.0774165 1.52164e-17)
(-0.00122396 -0.121143 0)
(-0.00183002 -0.0628982 1.32794e-17)
(-0.00102045 -0.106138 9.74865e-23)
(-0.00352156 -0.0187976 1.51609e-17)
(6.38561e-05 -0.00404544 -1.53483e-17)
(-0.00079854 -0.114528 1.11418e-22)
(-0.00519064 -0.0663548 0)
(-0.00103795 -0.0856443 3.73188e-23)
(0.000436328 -0.0778639 -3.04981e-17)
(-0.00028658 -0.0766917 0)
(-0.000674838 -0.119806 1.12153e-22)
(-0.0014724 -0.0716239 1.19487e-19)
(0.0114686 -0.0565963 0)
(0.000593183 0.0134766 0)
(0.00154417 0.00978545 0)
(-0.00158079 -0.071988 0)
(-0.000751791 -0.116407 1.12667e-22)
(-0.00132049 -0.0726968 0)
(-0.0019424 -0.0549556 -1.50546e-17)
(0.000429588 0.0176317 0)
(-0.0138485 0.0013635 0)
(0.000670486 0.00206541 0)
(-0.00054985 -0.0310356 0)
(-0.000206633 -0.0599537 1.4886e-17)
(-0.00115188 -0.0715726 -1.58296e-17)
(-0.00382167 -0.035301 0)
(0.000645515 0.000542981 0)
(-0.0019952 -0.0681347 0)
(0.011247 -0.0141282 0)
(0.0157871 -0.0532032 0)
(-0.00212934 -0.072624 0)
(-0.00141483 -0.0712226 0)
(-0.00409287 -0.0368887 0)
(0.00320353 -0.0358346 0)
(-7.04478e-05 -0.0737936 1.49342e-17)
(-0.00238198 -0.0718978 0)
(-0.00112793 -0.0329145 0)
(0.000398433 -0.0139314 -3.76667e-21)
(0.000126892 -0.00919712 0)
(-0.000226873 -0.0671063 -1.00204e-18)
(-0.00154421 -0.0711248 0)
(0.00113439 0.047889 0)
(0.00274123 -0.0411703 0)
(-0.00355764 -0.0166805 0)
(-0.000118322 -0.0575891 1.53551e-17)
(0.00060879 -0.0622856 -5.03395e-19)
(0.00400965 0.0439923 0)
(0.000422161 0.0184888 0)
(0.000499254 0.00176372 0)
(0.00011677 -0.0034421 -1.53493e-17)
(-0.00235559 -0.0998698 1.52136e-17)
(-0.00172104 -0.0622043 -1.43323e-17)
(-0.0454884 -0.0181867 0)
(-0.0012671 -0.123145 0)
(0.00414447 -0.0910061 0)
(7.80806e-05 -0.00484642 0)
(0.000394202 0.0100912 0)
(0.00027313 -0.0711539 0)
(-0.0122686 -0.0551019 0)
(-0.033023 -0.012674 0)
(-0.000153576 -0.00662093 0)
(-0.000914061 -0.0523605 0)
(-0.00201873 -0.0214159 0)
(-0.00365248 -0.0735081 -1.52372e-17)
(-0.0024553 -0.0956237 1.52214e-17)
(-0.0038292 -0.0128279 0)
(-0.00332498 -0.155143 0)
(-0.000628503 -0.124974 1.00002e-22)
(0.0137698 -0.0539083 0)
(-0.000830624 -0.126809 8.92476e-23)
(-0.0038958 -0.0376158 -3.0505e-17)
(-0.000554296 0.0315959 -2.9518e-22)
(0.0036582 -0.0635278 0)
(-0.0129105 -0.117812 -3.03738e-17)
(-0.000991907 -0.0439563 -2.56911e-19)
(-0.00402361 -0.0355847 -1.50368e-17)
(-0.00372327 -0.0393224 -6.06232e-23)
(0.00879416 -0.0554119 0)
(0.000672405 -0.0706864 0)
(-0.000397953 -0.10584 -3.04111e-17)
(-0.0407599 -0.0142619 0)
(-0.000313229 -0.110305 -3.03969e-17)
(0.00141659 -0.0707837 -4.38262e-23)
(-0.00201931 -0.0663234 0)
(-0.000355138 -0.108101 3.04039e-17)
(0.00263266 -0.0564624 -3.05608e-17)
(-0.000629111 -0.0736826 -1.52542e-17)
(-0.00247646 -0.0913822 0)
(0.00423631 -0.0533278 0)
(-0.00181192 -0.0685715 0)
(0.000224316 -0.00845379 0)
(-0.000437403 -0.103535 3.04184e-17)
(-0.00312141 -0.0422964 0)
(0.000774663 -0.0742934 6.75356e-24)
(-0.00428844 -0.0304294 -4.54547e-19)
(0.0021501 -0.0639398 -3.05385e-17)
(-0.00991009 -0.0431127 1.49124e-17)
(0.00298577 -0.0585725 0)
(0.000501451 0.00354143 0)
(-0.00283444 0.0186591 0)
(-0.000471193 -0.101197 -3.04257e-17)
(0.00038946 -0.0715934 0)
(-0.03669 -0.0353278 0)
(0.00220252 -0.0680528 0)
(0.000920094 -0.107016 0)
(-0.000207525 -0.0537584 1.47087e-17)
(-0.000385901 -0.0732329 1.52556e-17)
(0.00530801 -0.0607935 0)
(0.000612404 -0.076802 -2.69991e-23)
(-0.00307178 -0.00873329 0)
(0.000633295 0.0119169 0)
(-0.000495667 -0.0988394 3.04331e-17)
(0.000367184 -0.0740055 -3.05096e-17)
(0.00524742 -0.0599921 0)
(-0.00237814 0.0516624 -1.46239e-17)
(0.0042371 -0.0626883 0)
(0.00535472 -0.000540353 0)
(-9.22919e-05 -0.0781096 -1.38442e-17)
(-0.00290619 -0.0141057 0)
(0.000334934 -0.000652028 0)
(-0.000508408 -0.0964729 -3.04405e-17)
(-0.000191086 -0.0737901 0)
(-0.000834947 -0.0450347 0)
(2.21352e-05 -0.0797372 -3.0168e-20)
(-0.00121724 -0.0721073 -1.19644e-19)
(0.0146786 -0.0532864 0)
(-0.00114913 -0.0993042 -8.02915e-23)
(-0.00107202 -0.103891 -9.2251e-23)
(0.000889428 -0.0564119 -4.70246e-19)
(-0.00232498 -0.0456053 0)
(0.000745774 -0.0560806 -3.05651e-17)
(-0.0443772 -0.0254805 0)
(0.0009157 -0.062941 1.55421e-17)
(-0.00325342 -0.0329177 -7.30803e-23)
(0.000600913 0.0202443 0)
(-0.0060886 -0.0768312 -1.5253e-17)
(0.000884857 -0.0770044 -9.53966e-22)
(0.000698944 -0.0657338 -1.50407e-17)
(-0.000964394 -0.108338 -1.02065e-22)
(0.00498576 -0.0563069 0)
(0.00931566 -0.038255 0)
(0.00140126 -0.0755302 -1.5254e-17)
(-0.000187697 -0.0768499 0)
(-0.000596366 0.04726 1.51969e-17)
(0.000199001 -0.0790778 -6.66319e-24)
(-0.000244287 -0.114485 -3.03835e-17)
(-0.0135439 -0.0528482 0)
(0.00518702 0.013077 0)
(0.00449345 -0.0623134 0)
(-0.00389322 -0.0742662 0)
(-0.0247679 -0.0122 0)
(-0.00384093 -0.0385157 1.50973e-17)
(0.00070236 -0.0766996 -1.13497e-23)
(-0.00290255 -0.0979061 -1.5209e-17)
(-0.0369771 -0.00347697 0)
(0.00491905 -0.0616358 0)
(-0.00242578 -0.0553326 0)
(0.0004004 -0.0712037 0)
(0.00176329 -0.0319439 0)
(-0.00366841 -0.00970033 -1.74697e-22)
(0.00347605 -0.0410698 0)
(-0.0014799 -0.117019 -1.51829e-17)
(0.00586646 -0.0533429 -1.52786e-17)
(0.00205563 -0.0718706 -4.29705e-23)
(-0.00671971 -0.0527171 2.95801e-17)
(0.00672811 -0.163598 -1.51008e-17)
(-0.00383721 0.0449222 0)
(-0.00163763 -0.116937 0)
(0.000707984 -0.0686483 0)
(-0.000275066 -0.112438 3.03901e-17)
(-0.0126218 -0.159493 -3.02408e-17)
(-0.0131837 -0.0517931 0)
(-0.00424207 -0.0275734 1.46265e-20)
(-0.0101851 -0.0121881 0)
(-0.00340039 -0.0182175 0)
(-0.0428506 -0.00873594 0)
(-0.00319525 -0.0112062 1.5549e-17)
(0.0125969 -0.0251783 0)
(0.00199066 -0.0142836 0)
(0.00371126 -0.2066 -3.00909e-17)
(-0.000496669 -0.0917618 1.52275e-17)