/*--------------------------------*- C++ -*----------------------------------*\
  =========                 |
  \\      /  F ield         | OpenFOAM: The Open Source CFD Toolbox
   \\    /   O peration     | Website:  https://openfoam.org
    \\  /    A nd           | Version:  9
     \\/     M anipulation  |
\*---------------------------------------------------------------------------*/
FoamFile
{
    format      ascii;
    class       volVectorField;
    location    "1";
    object      U;
}
// * * * * * * * * * * * * * * * * * * * * * * * * * * * * * * * * * * * * * //

dimensions      [0 1 -1 0 0 0 0];

internalField   nonuniform List<vector> 
2364
(
(5.51484e-06 -0.0792249 0)
(-0.000106459 -0.0307276 -8.49412e-17)
(0.000164334 -0.0316608 2.75131e-16)
(-0.000744747 -0.0267976 -2.47115e-16)
(-0.00485965 -0.064622 0)
(-0.00592449 -0.0619589 0)
(-0.00837982 -0.0580911 -3.20574e-17)
(-0.00971341 -0.0558515 0)
(-0.000152293 -0.0222193 0)
(0.000280337 -0.0272966 0)
(-0.0119027 -0.0828142 -2.36716e-16)
(-0.0134589 -0.0658525 2.59483e-16)
(-0.0011867 0.0149692 3.96253e-18)
(-0.00117607 0.011444 1.74047e-17)
(-0.0021685 -0.0836167 5.9138e-17)
(-0.00566948 -0.0644516 1.63467e-17)
(-0.00131703 -0.00517415 3.98971e-18)
(-0.00163786 -0.0085229 1.75161e-17)
(-0.000321566 -0.0262214 0)
(-0.000596272 -0.0215206 -6.68425e-17)
(-0.000351485 -0.0762035 2.65391e-16)
(-6.42847e-06 -0.0762632 6.93562e-17)
(0.000283347 -0.0747227 6.55257e-17)
(0.000210181 -0.0265021 6.20322e-17)
(-0.00079401 -0.032285 1.67446e-17)
(-0.00622778 -0.0872667 6.41784e-17)
(-0.00530946 -0.0744113 -1.94569e-18)
(-0.0119445 -0.082893 5.94415e-17)
(-0.0091127 -0.0670342 6.00806e-17)
(-0.00418772 -0.0636481 6.12025e-17)
(-0.00451793 -0.0652692 0)
(-0.00168949 0.0163572 6.13276e-17)
(-0.000393614 0.020358 0)
(-0.00257117 -0.0673431 0)
(-0.00823924 -0.0589301 0)
(-0.0125995 -0.0813825 0)
(-0.00812757 -0.0595287 0)
(-0.0075229 -0.0604485 6.03875e-17)
(-0.0100926 -0.0508111 0)
(0.0304002 -0.0721829 1.33799e-16)
(-0.00806888 -0.0498494 5.94797e-17)
(0.00534217 -0.0623395 -1.47255e-20)
(-0.000669912 0.0178452 0)
(0.0195715 -0.0597513 6.0524e-17)
(-0.00220794 0.0131271 0)
(0.0140228 -0.0782933 -5.96275e-17)
(0.00340895 -0.0491327 0)
(0.00652535 -0.0482588 5.94815e-17)
(7.20613e-05 -0.0818817 -5.76003e-17)
(0.0329222 -0.0529613 5.82456e-17)
(0.0293029 -0.0479034 0)
(-0.000748363 0.0135657 5.78016e-17)
(-0.00230872 0.00863114 0)
(-0.000989202 0.0105377 -2.48042e-16)
(-0.00270329 0.00509002 2.47262e-16)
(-0.000969879 0.00726208 0)
(-0.00290791 0.00145118 0)
(-0.00084748 0.00382529 -2.49721e-16)
(-0.00296659 -0.00228656 2.48193e-16)
(-0.000540668 1.6622e-05 0)
(-0.00288062 -0.00611861 0)
(-0.000254162 -0.00549959 5.82503e-17)
(-0.00243687 -0.0122967 6.16288e-17)
(-0.000314662 -0.00908618 -2.48368e-16)
(-0.00227401 -0.0160317 3.06915e-16)
(-0.000348848 -0.0123288 0)
(-0.00209817 -0.019371 0)
(-0.000312121 -0.0152622 0)
(-0.001887 -0.0223516 0)
(-0.000174309 -0.0177542 0)
(-0.00154931 -0.024853 0)
(9.58023e-05 -0.0196058 0)
(-0.00102353 -0.0265753 0)
(-0.000459054 -0.0278182 0)
(0.000649937 -0.0206638 6.501e-17)
(0.000752635 -0.0211351 0)
(-0.00274995 -0.0672733 -2.5917e-16)
(-0.00355178 -0.0642984 2.51515e-16)
(-0.00617728 -0.062911 -1.59345e-17)
(-0.00719243 -0.0603164 0)
(-0.00957729 -0.0548051 1.5987e-17)
(-0.0107591 -0.0528706 0)
(-0.00539265 -0.0486105 -5.94796e-17)
(-0.00300357 -0.0500309 0)
(0.0150386 -0.0502244 -2.37921e-16)
(0.0189886 -0.0524008 2.37613e-16)
(0.0412704 -0.0533471 -3.27288e-17)
(0.0402257 -0.0569098 -5.91909e-17)
(0.0242113 -0.0762981 0)
(0.0198722 -0.0627947 0)
(0.0102144 -0.0796094 -2.38516e-16)
(0.00490434 -0.0653186 2.41245e-16)
(-0.00122174 0.0215201 0)
(-0.0119928 -0.0695564 -5.97691e-17)
(-0.0123453 -0.0812791 0)
(-0.00124164 0.0186485 0)
(-0.00842356 -0.0726508 -1.79754e-16)
(-0.000983781 0.0157264 -3.06833e-16)
(-0.00113111 0.0193597 3.07819e-16)
(-0.00831575 -0.0827426 1.78291e-16)
(-0.00325584 -0.0851747 -1.32859e-16)
(-0.0014332 0.0129628 0)
(-0.00103675 0.0171235 -1.67399e-17)
(-0.00838728 -0.0660478 -6.01237e-17)
(-0.00652918 -0.0806728 -1.58131e-17)
(-0.00119028 0.00843833 0)
(-0.00145552 0.0117469 0)
(-0.00116942 0.00517364 0)
(-0.00150333 0.00823987 0)
(-0.0012643 0.00169638 0)
(-0.00168265 0.00440946 0)
(-0.00136775 -0.00227998 0)
(-0.00176131 0.000474242 0)
(-0.00207222 -0.00229611 -1.68574e-17)
(-0.00207626 -0.00707978 0)
(-0.00149621 -0.0128499 -6.16292e-17)
(-0.00183235 -0.00902758 0)
(4.76193e-05 -0.0276205 -3.51653e-16)
(-0.00135924 -0.0165209 0)
(-0.00176952 -0.0123536 0)
(-0.000468495 -0.0209337 2.6918e-16)
(-0.00119609 -0.0197764 -2.44764e-16)
(-0.0016986 -0.0153445 2.46761e-16)
(-0.000952396 -0.0226192 -2.44091e-16)
(-0.0015801 -0.0179425 2.46244e-16)
(-0.000610732 -0.0248981 -2.43541e-16)
(-0.00135813 -0.0199675 2.45781e-16)
(-0.000509618 -0.0267329 -2.43095e-16)
(-0.00101488 -0.0198408 2.657e-16)
(0.0359376 -0.052334 0)
(-0.00217748 -0.0646167 8.34726e-17)
(-0.00336499 -0.0730095 3.88904e-17)
(-1.49884e-05 -0.0794889 0)
(0.0437977 -0.0222418 -1.34052e-16)
(-5.29392e-05 -0.0779399 0)
(3.54155e-05 -0.0745813 -1.85445e-17)
(0.000401445 -0.0741375 1.57676e-16)
(0.000406751 -0.0330748 0)
(0.000135878 -0.00548262 1.40449e-16)
(0.000437783 -0.0318975 2.76313e-16)
(0.0443105 -0.0328494 0)
(-0.000630578 -0.0760766 -3.2453e-16)
(7.72814e-05 -0.0415553 2.68759e-16)
(0.000257972 -0.0547395 -8.45832e-18)
(-0.00367458 0.00416305 0)
(-0.00372935 -0.00760005 0)
(-5.75458e-05 -0.0593009 1.20174e-16)
(3.54378e-05 -0.0281467 -1.70502e-16)
(0.000411323 -0.0653905 -2.68036e-16)
(-0.000152462 -0.0456067 -3.44246e-16)
(-0.000145957 -0.0749721 0)
(3.61285e-05 -0.0261051 -8.94265e-17)
(-0.000594797 -0.00950036 0)
(-0.000568285 -0.0218545 -3.59081e-16)
(-0.000137857 -0.0731349 -3.77589e-17)
(0.000199252 -0.0585139 0)
(-0.000113875 -0.066031 2.64899e-16)
(6.99544e-05 -0.0592572 2.66863e-16)
(0.000335062 -0.0707546 7.59159e-18)
(0.000192515 -0.0683586 0)
(7.54769e-05 -0.0308777 1.44237e-16)
(0.000139008 -0.0658162 -1.30211e-16)
(0.000137017 -0.0412838 0)
(-0.000247028 -0.0759048 -2.80787e-16)
(0.000475091 -0.0552319 -1.37318e-16)
(0.000386443 -0.0587892 1.38466e-16)
(0.000173231 -0.0254797 0)
(9.4188e-05 -0.0309228 0)
(0.000235107 -0.0654225 0)
(0.000168409 -0.065448 1.38348e-16)
(0.000599377 -0.0721359 -1.27429e-16)
(0.000426468 -0.0467542 0)
(0.000348008 -0.0264108 0)
(-0.000954906 -0.0751855 0)
(0.000256566 -0.0756822 1.40989e-16)
(-0.000124593 -0.0688548 0)
(4.24566e-05 -0.0549616 -1.59432e-16)
(-0.00100493 -0.0743548 1.64539e-16)
(0.000342228 -0.0318654 -4.58341e-18)
(0.000433423 -0.0748478 -2.7429e-16)
(0.00137366 -0.0474865 1.44281e-16)
(0.000510508 -0.0704181 1.31725e-16)
(0.000593109 -0.0742496 1.29612e-16)
(0.000543299 -0.0722761 0)
(0.000223851 -0.076141 1.3771e-16)
(0.00050969 -0.0423331 4.50959e-18)
(0.000226695 -0.0416647 1.52638e-16)
(-4.61285e-06 -0.0737839 0)
(0.000136695 -0.0584934 -2.7563e-16)
(9.41791e-05 -0.0553338 -3.46221e-16)
(-0.000467617 -0.020342 1.99692e-16)
(0.00061007 -0.0609655 2.67593e-16)
(0.000401176 -0.076689 1.40197e-16)
(0.000451621 -0.0760997 0)
(0.000943269 -0.0427386 -1.42818e-16)
(0.000134153 -0.0545086 2.74498e-16)
(-0.000206934 -0.0439822 1.40842e-16)
(0.000469334 -0.0741896 1.41699e-16)
(-2.03012e-05 -0.077139 1.37772e-16)
(0.000112943 -0.0458705 -1.74872e-20)
(0.000435059 -0.065157 4.3092e-18)
(0.00046251 -0.0610822 2.7739e-19)
(0.000376782 -0.0503357 -2.82683e-19)
(0.000252804 -0.0439444 0)
(0.000153301 -0.0222827 0)
(5.1685e-05 -0.00993789 1.50251e-16)
(2.12219e-05 -0.00447588 0)
(0.000209764 -0.0292232 0)
(0.000299011 -0.0212895 0)
(0.000985313 -0.0413044 0)
(0.000577405 -0.0273348 0)
(1.87304e-05 -0.00456351 -1.49464e-16)
(8.37156e-05 -0.00473834 0)
(0.000234299 -0.021612 -1.47692e-16)
(0.000289179 -0.0285576 1.47656e-16)
(0.00107705 -0.0478601 1.44848e-16)
(0.000179488 -0.0291777 0)
(0.000854201 -0.0259134 0)
(5.11028e-05 -0.00979755 0)
(0.000672931 -0.0189328 0)
(0.00100427 -0.0249791 -1.48062e-16)
(0.000779165 -0.0180058 1.48194e-16)
(0.00115397 -0.0238929 0)
(0.000882527 -0.0169348 0)
(0.000364172 -0.0282432 0)
(0.00113473 -0.0129425 0)
(0.00129706 -0.0226619 -1.48345e-16)
(0.000978885 -0.0157257 1.48519e-16)
(0.00142784 -0.0212992 0)
(0.00046849 -0.0203603 0)
(0.00106433 -0.0143898 0)
(0.000568037 -0.0197155 -1.47952e-16)
(0.00050325 -0.0608443 1.42568e-16)
(0.00118398 -0.0114035 1.49143e-16)
(0.00154138 -0.0198226 0)
(0.000300979 -0.0101964 1.47702e-16)
(0.00170037 -0.0166168 0)
(9.88951e-05 -0.0100785 2.36743e-18)
(0.00122205 -0.00979909 0)
(0.00175956 -0.014933 0)
(0.0016329 -0.0182539 -1.48919e-16)
(0.00126625 -0.00814232 0)
(0.010889 -0.0785595 0)
(0.00181209 -0.0132186 0)
(0.00130252 -0.00643292 -1.49863e-16)
(0.000710017 -0.0266962 1.47862e-16)
(0.00661576 -0.0162587 0)
(0.00131916 -0.00469574 0)
(0.00183889 -0.0114895 1.49863e-16)
(0.00184477 -0.00976149 0)
(0.00132133 -0.00294907 0)
(0.0129745 -0.135213 -1.32222e-16)
(0.00551099 0.012293 1.49626e-16)
(0.00183426 -0.00804901 0)
(0.00124645 0.00222228 0)
(0.0138249 -0.107048 0)
(0.00131127 -0.00120626 0)
(9.33714e-05 -0.00344332 0)
(0.00180782 -0.00636502 0)
(0.00838917 -0.0484282 0)
(0.00128772 0.000522066 -1.50874e-16)
(0.0147882 -0.115995 1.35352e-16)
(0.00243524 -0.0165313 0)
(0.00159055 -0.00153748 0)
(0.00395557 0.0249969 -1.2085e-21)
(0.000217837 0.0459456 0)
(0.0127937 -0.0876685 0)
(0.000521264 -0.0649774 -1.41303e-16)
(0.00722861 0.00187625 0)
(0.00534018 0.0228157 0)
(0.000367406 -0.0501264 1.44081e-16)
(0.00281826 -0.0259873 0)
(6.93923e-05 -0.00964416 0)
(0.0015014 0.0507006 0)
(-0.000796039 -0.0582393 -1.44861e-16)
(-0.000794734 -0.0628271 1.45255e-16)
(-0.00118734 -0.0688876 0)
(0.00176348 -0.00472147 1.50874e-16)
(-0.00073816 0.0299797 0)
(0.00638405 -0.0014496 0)
(0.00776458 -0.0433396 0)
(0.00918363 -0.0552418 0)
(0.000460997 -0.0278437 -1.47736e-16)
(0.000207257 -0.0224621 -2.31533e-18)
(0.00110575 0.00534834 0)
(0.000246696 -0.00800701 0)
(0.000310881 -0.0438141 -1.44485e-16)
(0.000206465 -0.00849414 0)
(-0.00155637 -0.0745526 -1.40969e-16)
(-0.000937253 0.0447435 0)
(0.011116 -0.150135 2.63392e-16)
(0.00101623 0.00674976 -1.50702e-16)
(0.011886 -0.14362 -1.32215e-16)
(0.00581414 -0.165 1.30278e-16)
(0.0119086 -0.146013 -1.31119e-16)
(0.0037709 0.0462784 -1.44598e-16)
(0.00125814 0.00288263 0)
(-0.00200326 0.0499082 0)
(0.000142031 0.0101285 0)
(0.00135472 0.00149004 1.50503e-16)
(0.000878503 0.0093275 0)
(-0.00272961 -0.184395 -2.56919e-16)
(0.0060342 -0.159032 0)
(-0.000533955 -0.179066 2.5815e-16)
(-0.000971542 0.0283877 0)
(0.00258157 -0.0178099 0)
(0.0131965 -0.140182 3.68933e-21)
(0.00272147 -0.165325 -2.58723e-16)
(0.00893709 -0.157385 -1.30819e-16)
(0.000935261 0.00807234 0)
(-0.00433983 -0.189354 8.30789e-22)
(-0.0042207 0.0402578 0)
(-0.00441773 0.0363351 0)
(-0.00125459 -0.0744664 1.40801e-16)
(0.00120511 0.00419989 0)
(0.00930493 -0.152444 4.48081e-21)
(-0.00217494 -0.17483 2.56914e-16)
(-0.00116067 -0.0713668 0)
(0.00245922 -0.172421 1.29853e-16)
(-0.00367823 -0.184599 -2.56981e-16)
(0.00086323 0.01054 0)
(0.00788516 -0.0223617 0)
(-0.00405042 -0.177401 -2.55844e-16)
(-0.00177281 0.037929 0)
(0.000396831 0.0153445 0)
(-0.000131542 -0.170764 -2.7504e-21)
(-0.00381826 -0.166964 1.30572e-16)
(0.00122196 0.00546724 0)
(0.000301292 0.0468358 0)
(-0.00396117 -0.18793 -6.71902e-22)
(0.00147157 1.30319e-05 0)
(-0.000987107 0.023613 0)
(-0.00480914 -0.170118 2.56969e-16)
(0.00146755 0.0129188 -1.44399e-16)
(-0.00166975 0.0250478 0)
(0.010978 -0.0295755 -1.4524e-16)
(-0.00750635 -0.134092 1.34065e-16)
(-0.00149184 0.0415732 0)
(-0.000746468 0.0211454 -3.54034e-21)
(0.000190643 0.00785926 0)
(-0.00342804 -0.177164 -1.95365e-23)
(-0.0041155 -0.188374 1.28055e-16)
(-0.00779706 -0.149472 6.37318e-20)
(0.000292378 0.014435 0)
(-0.00435394 -0.175202 1.28049e-16)
(0.000909158 0.0117549 0)
(-0.00344063 -0.177624 -2.58592e-16)
(0.000177553 0.0107292 0)
(-0.0128889 -0.0932848 0)
(-0.00580859 -0.161666 -7.47927e-21)
(-0.00237048 -0.0770788 -1.40647e-16)
(-0.00201885 -0.0764818 0)
(-0.0147567 -0.114793 -2.6811e-16)
(-0.00291601 -0.0787552 -1.40436e-16)
(-0.00148145 -0.0709888 0)
(-0.0051366 -0.152331 1.28982e-19)
(0.00781279 -0.013998 0)
(-0.0116287 -0.06282 -1.4214e-16)
(-0.00192515 -0.0747059 0)
(-0.00328759 -0.0809479 -1.40171e-16)
(0.00169182 -0.0031142 0)
(-0.00268214 -0.0753231 0)
(-0.00194435 0.0339024 -1.46993e-16)
(-0.010904 -0.133517 0)
(0.0372333 -0.0087429 -3.9089e-16)
(-0.00356889 -0.0834379 -1.39872e-16)
(0.0347935 -0.0235811 0)
(-0.00325668 -0.0765103 0)
(-0.000545763 -0.0563109 1.60597e-22)
(-0.0193737 -0.0771424 -1.38439e-16)
(-0.0104664 -0.113642 1.362e-16)
(-0.00167387 -0.0760329 1.40953e-16)
(-0.00360641 -0.0541185 3.5109e-22)
(-0.00571222 0.00391393 -1.50015e-16)
(-0.00655349 0.0165881 1.49389e-16)
(-0.0037864 -0.0860924 0)
(-0.00365772 -0.0781588 0)
(-0.0124663 -0.0544988 2.84282e-16)
(-0.0134877 -0.0756517 1.35495e-19)
(-0.0181453 -0.0951395 0)
(-0.0173859 -0.0631406 1.40481e-16)
(-0.00635702 -0.0513672 -2.86436e-16)
(-0.00779814 -0.0557387 -4.24763e-22)
(0.00113742 -0.060009 1.432e-16)
(-0.00552842 -0.0549096 0)
(0.00152803 -0.0566136 2.42925e-22)
(-0.00395115 -0.0800797 0)
(0.00198082 0.00951917 1.49266e-16)
(0.00201415 -0.0674003 -3.45432e-22)
(-0.00394833 -0.0888134 0)
(-0.00135714 -0.0527685 2.96062e-22)
(-0.00576374 -0.0484598 -2.90064e-16)
(0.000289584 0.0111488 0)
(0.00160821 0.0162041 0)
(0.0257149 -0.0337836 -1.46996e-16)
(-0.00180534 0.0304219 0)
(0.000338819 0.0101764 0)
(0.0335402 -0.0153565 1.53108e-16)
(0.00707495 -0.054866 -2.86441e-16)
(0.0161923 -0.0493917 0)
(0.00188382 -0.0638655 1.42474e-16)
(0.00231089 -0.0235382 0)
(0.00200919 -0.0133041 0)
(-0.0061253 -0.0462496 1.44548e-16)
(-0.00417401 -0.082159 0)
(0.00182344 -0.0236376 0)
(-0.00300663 0.0266168 0)
(-0.00134938 -0.0757009 0)
(-0.00230927 -0.074948 1.40967e-16)
(-0.000962944 -0.0738652 -1.48615e-16)
(-0.00267492 -0.0778403 0)
(0.0027953 -0.0609291 -3.47853e-20)
(0.00308949 -0.0649196 -3.35856e-22)
(-0.00311901 -0.0798029 0)
(-0.00299747 -0.0758493 1.40435e-16)
(-0.00320253 0.0435654 -1.45717e-16)
(0.00885591 -0.00370304 0)
(0.00183337 -0.0704039 -3.61292e-22)
(0.000562485 0.0164563 0)
(-0.00344159 -0.0821659 0)
(-0.0034725 -0.0772934 1.4017e-16)
(-0.00244921 -0.0698818 1.41359e-16)
(-0.0011016 -0.0740686 0)
(-0.00292498 -0.0463464 -2.87417e-19)
(0.000690645 0.0287399 0)
(-0.00385491 -0.0929108 0)
(-0.00176334 -0.0807185 -1.39978e-16)
(-0.0038163 -0.0790956 1.39871e-16)
(-0.0043124 -0.0843304 0)
(-0.0106901 -0.0563895 0)
(-0.00368527 -0.084752 0)
(-0.00394141 -0.0915568 0)
(0.0012161 -0.0747377 -2.91224e-22)
(-0.00214077 -0.083543 -1.39562e-16)
(-0.00487677 -0.0404156 0)
(0.00288011 -0.0682879 3.42095e-20)
(-0.00241586 -0.0868173 -1.39101e-16)
(-0.00406896 -0.0811078 0)
(-0.00101279 -0.0831394 0)
(-0.00555799 0.0176505 0)
(0.0243798 -0.0392835 1.45276e-16)
(-0.00796566 -0.0608994 0)
(-0.00189796 -0.048466 -3.00966e-16)
(0.00400887 0.015926 0)
(-0.00232243 -0.0345846 1.47587e-16)
(-0.00264596 -0.090339 -1.38617e-16)
(0.00338649 -0.0771488 0)
(-0.00388158 -0.0874476 0)
(0.00259736 -0.0903077 0)
(-0.00290881 -0.0790995 0)
(-0.00431154 -0.0854421 0)
(0.00640412 -0.160242 -1.30361e-16)
(0.00153504 -0.0728361 -3.38632e-22)
(0.00112482 -0.177196 1.26004e-19)
(-0.00273989 -0.0348565 0)
(-0.00284716 -0.0939691 6.08192e-22)
(0.00153743 -0.0747621 -2.81652e-16)
(0.00270008 -0.0887338 0)
(-0.00485424 -0.196924 0)
(0.00094495 -0.0175809 1.49427e-16)
(-0.00354343 -0.0955509 0)
(0.00198904 -0.0731421 3.41098e-20)
(0.00246101 -0.0710112 -1.75985e-20)
(0.00378836 -0.035248 -4.51993e-22)
(-0.00301103 -0.0976036 7.09707e-22)
(-0.00243106 -0.0466149 -1.47377e-16)
(0.00200947 0.0462856 0)
(0.000584783 0.0158544 0)
(-0.00370539 -0.200825 0)
(0.000915882 -0.0761698 2.25281e-22)
(0.000332276 -0.194975 0)
(0.00483455 -0.142233 0)
(-0.0042607 -0.0832344 0)
(0.00369575 -0.0726033 0)
(-0.000289727 0.0159057 0)
(0.0025972 0.0209088 0)
(-0.00172588 0.0253615 -1.55782e-16)
(0.00318036 -0.0792577 0)
(0.00469859 -0.176561 -1.26222e-19)
(0.000658666 -0.0772094 1.40438e-16)
(0.00240196 -0.093421 0)
(0.0037512 0.0424119 0)
(-0.0016013 0.03047 1.47442e-16)
(-0.00203402 -0.0270533 0)
(-0.00308629 -0.0645299 1.44208e-16)
(-0.00413645 -0.0876669 0)
(0.00619431 0.00424113 0)
(0.000466142 -0.00831934 -1.48768e-16)
(-0.00126064 -0.0735001 0)
(-0.00229995 0.0247957 0)
(0.00138478 0.0221495 0)
(0.00357291 -0.0714068 0)
(-0.00141841 0.0269614 0)
(-0.00397451 -0.0901891 0)
(-0.00295391 -0.102902 8.15525e-22)
(-0.00319812 -0.0980085 0)
(0.00303912 -0.0826985 0)
(0.00597457 0.0178422 0)
(-0.0010267 -0.0748681 0)
(-0.00116038 -0.0162272 0)
(-0.00250903 -0.0798066 1.41084e-16)
(0.00253764 0.0112436 0)
(-0.00203802 -0.0992387 0)
(-0.00864028 -0.0502471 -1.45496e-16)
(0.00217492 -0.0964229 0)
(-0.000707486 -0.0141257 -9.11799e-18)
(-0.00420827 -0.0384078 0)
(0.00206027 0.0183101 0)
(-0.00161889 -0.117371 8.35222e-22)
(-0.00113211 -0.0747893 0)
(0.00228482 -0.0927448 0)
(-0.000600375 0.0251474 0)
(0.00199948 -0.0601141 1.43159e-16)
(-0.00472075 -0.0650039 1.42517e-16)
(-0.00749553 -0.047954 0)
(0.000431215 -0.0276743 0)
(0.00293172 -0.0813755 0)
(-0.00141481 0.0285425 0)
(-0.00162425 -0.0231189 0)
(0.00161291 0.0247208 0)
(0.00113434 -0.0759499 1.92536e-22)
(-0.000792522 0.0234017 0)
(0.00167941 0.0251313 0)
(0.000176843 -0.00719674 -1.49319e-16)
(-0.0010254 -0.0777066 1.40456e-16)
(0.00279532 -0.00888143 0)
(0.00323692 -0.0707304 0)
(0.000202709 -0.0132407 1.59441e-16)
(-0.000523663 -0.0072254 1.52894e-16)
(0.000297191 -0.0784041 -1.40568e-16)
(9.66959e-05 -0.00945302 0)
(0.00151188 -0.0440538 0)
(3.12353e-05 -0.00464422 0)
(0.000104596 -0.00661512 -3.82263e-23)
(-0.00150132 -0.0718682 0)
(0.0018966 0.0286615 0)
(-0.00647132 -0.060069 0)
(0.00536735 -0.00410345 0)
(2.10835e-05 -0.0258202 -1.20146e-22)
(-0.00341761 -0.0347928 0)
(-0.00270992 -0.106187 8.33789e-22)
(5.11527e-05 -0.0500277 0)
(-0.00285666 -0.0692376 -1.40889e-16)
(0.00303386 -0.0800552 0)
(-0.00160725 -0.120995 -2.70693e-16)
(0.000791296 0.0178858 0)
(4.29891e-05 -0.00420793 0)
(-0.000984441 -0.0691043 -1.41968e-16)
(0.00027824 -0.0226918 9.42577e-18)
(0.000602468 -0.0157575 -1.5024e-16)
(0.000172476 -0.00160174 0)
(0.000729267 0.0180611 0)
(-0.00595261 -0.0437602 0)
(-0.00378297 -0.0898311 0)
(0.00574732 0.0351201 0)
(0.00207716 -0.0962978 0)
(-0.00671336 -0.0673918 0)
(-0.00101122 0.0281098 0)
(-0.00293788 -0.100248 0)
(5.52878e-05 -0.00499581 -7.36325e-23)
(0.000208822 -0.0309335 0)
(-0.00132013 -0.0234393 0)
(0.000360907 -0.00596006 0)
(0.000150851 -0.00677707 0)
(0.00232994 -0.0845549 0)
(0.000453427 -0.0779268 4.22061e-16)
(-0.000106429 -0.0316623 1.53008e-16)
(-0.00244515 -0.109163 8.24363e-22)
(0.00795334 -0.0546156 0)
(-0.000109679 -0.0420526 -1.47481e-16)
(-0.00247851 -0.0975149 0)
(0.000804373 -0.0767826 -1.40698e-16)
(0.00133879 -0.0207302 0)
(0.000250457 0.0120319 0)
(0.0119646 0.0363587 0)
(0.000285369 -0.00754072 1.4925e-16)
(-0.000357251 -0.0279702 -3.50094e-17)
(0.00270173 -0.0705966 0)
(0.002038 -0.0709294 1.41468e-16)
(0.000446416 0.0140331 0)
(0.00760497 0.0237803 0)
(0.0070829 -0.130723 1.35092e-21)
(0.00159139 -0.100672 0)
(-0.00208567 -0.0648503 -1.04014e-21)
(0.00497719 -0.13497 0)
(0.0012451 -0.0307904 0)
(0.00316464 0.0240634 0)
(0.00250319 -0.0892074 0)
(0.000297845 0.0031875 0)
(-0.00425147 -0.0865539 0)
(-0.00122673 -0.0475969 2.84594e-19)
(-0.00137465 -0.0618278 0)
(0.000462252 0.00674176 0)
(0.00126626 0.0144864 -1.49525e-16)
(-0.000870203 -0.052578 -4.54962e-18)
(-0.00019504 0.0169086 0)
(-0.00371501 -0.0942522 0)
(-0.00228563 -0.111767 8.05566e-22)
(0.0323307 -0.0379247 6.89445e-20)
(-0.00465971 -0.0599331 -2.79722e-19)
(0.000177675 -0.0681909 0)
(0.000131693 -0.00263981 0)
(0.00189333 -0.099742 0)
(-0.000766749 -0.0522025 4.64352e-18)
(0.0222153 0.0197539 -1.49321e-16)
(0.00285542 -0.0778338 0)
(-0.000407189 -0.0330621 -1.43017e-16)
(-0.000329298 -0.0312833 0)
(-0.00214812 -0.00944981 1.4804e-16)
(0.00723769 -0.057123 0)
(-0.0020844 -0.10537 0)
(-0.00115393 -0.0613431 0)
(-0.000113691 -0.0291772 -1.38644e-16)
(0.000306986 -0.0501746 0)
(-0.00104615 -0.125625 0)
(0.000510185 0.00292751 0)
(0.000542496 -0.0773433 -1.40596e-16)
(-0.000706291 -0.0481702 1.45618e-16)
(0.000120024 -0.0669729 0)
(0.00670476 -0.0446239 0)
(0.000251881 0.0060334 0)
(0.00182777 -0.0992881 0)
(0.0181247 0.0333185 0)
(-0.00342884 -0.0918688 0)
(-0.00279739 -0.102206 0)
(0.00317978 -0.0374021 0)
(-0.0349524 -0.0138636 0)
(0.00879809 -0.0537196 0)
(0.00032471 -0.00674103 0)
(0.00153253 0.0103177 0)
(-0.0301331 -0.0115758 0)
(-0.00311811 -0.0132921 0)
(-0.00674763 0.00473525 0)
(0.000121977 -0.0134638 0)
(0.0113907 -0.131247 1.32826e-16)
(-0.00231406 -0.0584427 0)
(-0.000937279 0.0262235 0)
(-0.0256033 -0.0370189 0)
(-0.0020755 0.0218487 0)
(0.000114669 -0.0791897 0)
(0.000127912 0.0096485 0)
(0.00264187 -0.0858198 0)
(0.011989 0.0143089 0)
(0.000144248 0.00880632 0)
(-0.000455435 -0.0424174 -1.38454e-16)
(-0.000656858 -0.0312159 1.50516e-16)
(0.00494748 -0.0154716 0)
(-0.000127715 -0.0258861 0)
(-0.000790349 -0.0425375 -9.45875e-18)
(0.00580052 -0.0493304 2.89331e-16)
(0.00166594 -0.103004 0)
(-0.000312704 -0.0299409 0)
(0.000274426 0.00463392 0)
(0.00388845 0.00837901 0)
(0.000138458 -0.04362 -2.20679e-16)
(-0.00122468 -0.0716146 0)
(-0.00243713 -0.0318009 0)
(-0.00383907 -0.0153573 0)
(0.000259786 0.000307894 0)
(0.000501453 -0.00195946 0)
(0.00333121 -0.0556711 1.42941e-16)
(0.0338684 -0.00165418 2.48918e-16)
(0.0086763 -0.0560569 0)
(-0.00059275 -0.00958774 3.70642e-22)
(0.000426846 -0.00412141 0)
(0.000185729 -0.02187 0)
(-0.00784773 -0.0542765 -1.40755e-16)
(0.0154952 0.0236173 1.45732e-19)
(-0.00305719 -0.0226987 0)
(0.000657863 0.0300555 0)
(-0.00226051 -0.113943 7.93261e-22)
(0.0198856 0.0117292 0)
(-8.35213e-05 -0.0415648 2.53108e-16)
(0.00107393 0.0197506 0)
(-0.000421008 0.0120354 0)
(-0.00336653 -0.0968042 0)
(7.51818e-05 -0.00375444 0)
(-0.00396956 -0.0887644 0)
(0.0235368 0.00386169 8.95635e-18)
(0.0123113 -0.0327011 0)
(-0.0176109 -0.0120732 0)
(6.11309e-05 -0.0308908 0)
(0.000497703 0.00421319 0)
(-0.00879982 -0.0500466 2.91456e-16)
(0.000932494 0.0258741 0)
(0.00103525 -0.103347 0)
(-0.00723245 -0.0492707 -2.26827e-18)
(0.0034834 -0.0761229 0)
(0.00853231 -0.00772214 0)
(0.00177148 -0.0867533 0)
(3.29892e-05 0.0313802 0)
(0.0112082 -0.138157 -2.72772e-21)
(-0.00413203 -0.00413026 0)
(0.000167024 -0.00889101 0)
(0.00367747 0.0277649 0)
(-0.000739647 0.0264718 0)
(0.0116932 -0.0534344 0)
(0.000377842 -0.0208793 1.47791e-16)
(0.000458801 -0.00307894 0)
(0.000328895 0.012605 0)
(-0.00333028 -0.0216156 0)
(0.000136591 -0.0470102 0)
(-0.00302185 -0.101171 7.90051e-22)
(0.0176469 0.00696452 0)
(-0.0013152 -0.0196049 0)
(0.00118518 0.00384683 0)
(0.000222173 -0.000364807 0)
(-0.000180657 -0.028989 0)
(-0.000246655 0.0179042 0)
(0.00248958 -0.0761546 0)
(0.000971861 -0.0654939 -1.42008e-16)
(-0.00429016 0.0388745 1.45206e-16)
(0.000386904 0.0091098 0)
(-0.000701356 0.0130056 0)
(0.00016196 -0.0732999 1.39546e-16)
(0.00537894 -0.0179427 0)
(0.00247999 -0.0390014 0)
(-0.00144788 -0.0530942 0)
(-0.00322319 -0.0354285 0)
(0.00033142 -0.0754742 0)
(-0.000998133 -0.0747869 0)
(-0.00234677 -0.0470111 0)
(0.00476583 -0.13639 0)
(0.000530735 0.00037383 0)
(-0.00265231 -0.0372455 0)
(0.00740099 -0.0916806 0)
(0.000531471 -0.000838759 0)
(0.000437084 -0.0732252 0)
(0.00546358 -0.0513963 0)
(0.00636978 -0.126259 -2.67801e-16)
(0.00397289 -0.0685619 0)
(-0.0366827 -0.0236218 0)
(0.00023055 0.0128461 0)
(-0.000841734 -0.0176145 1.49284e-16)
(0.000474513 -0.0685256 1.39836e-16)
(-0.00120948 -0.068068 0)
(-0.00338237 -0.0330225 0)
(0.00374132 -0.0692464 0)
(0.0142396 -0.0126653 -2.9022e-16)
(-0.00200253 -0.116538 2.70695e-16)
(-0.000445453 -0.0622038 -1.44419e-16)
(-0.000127628 -0.0305562 0)
(0.00265165 -0.0826954 0)
(0.00256907 -0.0834883 0)
(-0.0073116 -0.0548886 2.21378e-18)
(0.00262662 -0.0333018 0)
(0.00032262 0.0010114 0)
(0.00799493 0.0445195 -1.44705e-16)
(-0.031793 -0.0328991 0)
(0.00366296 -0.0699066 0)
(0.000652112 -0.0592181 0)
(-0.0263677 -0.0245131 0)
(0.00892686 -0.0532135 0)
(0.00151036 -0.054125 0)
(-0.00199406 -0.0806682 -1.41124e-16)
(0.000855524 0.0205754 0)
(0.000648951 -0.0657687 -1.40093e-16)
(-0.00275774 -0.00431471 0)
(-0.00188201 -0.120148 -2.70863e-16)
(0.000214447 0.00730055 0)
(0.00158342 0.00805006 0)
(-0.00726734 -0.0520996 0)
(0.00604853 -0.0821833 0)
(0.0121384 -0.0529505 0)
(-0.000179666 -0.0629123 -2.83678e-22)
(-0.000597082 -0.0698254 0)
(-0.00140122 -0.0735908 6.89876e-20)
(0.00681908 -0.115059 0)
(-0.00370631 -0.0292883 1.41334e-16)
(-0.00336153 -0.0464059 0)
(-0.00314845 -0.0785348 0)
(-0.00514285 -0.0309402 0)
(-0.000241686 0.0478374 0)
(-0.00250982 -0.103385 -2.74821e-16)
(0.0130157 0.0410275 -1.41414e-19)
(-0.00315767 -0.0687677 0)
(-0.00334822 -0.032658 0)
(-0.00247581 -0.105277 8.11927e-22)
(9.31868e-05 -0.00709296 0)
(0.00386046 -0.0586693 -1.42959e-16)
(-0.00264746 -0.103851 0)
(0.000308812 -0.0146317 -3.67216e-20)
(-0.0140013 -0.0284385 0)
(-0.00386694 -0.0277882 0)
(-0.00359739 -0.0908674 0)
(-0.000369502 -0.0474905 0)
(-0.0019428 -0.0707154 0)
(-0.000474465 -0.126819 0)
(-0.0366988 -0.0269068 0)
(0.00359459 -0.0646791 1.43248e-16)
(-0.0038548 -0.0588816 -4.37269e-21)
(0.00203633 -0.0650957 0)
(-0.00276196 -0.096816 0)
(0.00873377 -0.0111294 0)
(0.00198927 -0.075075 1.4067e-16)
(0.00214009 -0.0143022 0)
(0.000130222 0.00922447 0)
(0.0106273 -0.0546001 0)
(-0.00244151 -0.0994915 -2.75766e-16)
(-0.000392984 -0.0724501 0)
(-0.0325534 -0.0232697 0)
(0.00668374 -0.109029 0)
(-0.0118604 -0.0534632 0)
(-0.000936889 -0.0693466 0)
(0.000520735 0.00164295 0)
(-0.00807642 -0.0189841 -1.45707e-16)
(-0.00298842 -0.0358568 1.43892e-16)
(0.00685758 -0.0571949 0)
(-0.00225919 -0.095525 -2.76744e-16)
(0.00295894 -0.0708572 -3.45166e-20)
(-0.00139438 -0.0718561 1.40167e-16)
(0.0120844 -0.0531916 0)
(-6.99752e-05 -0.078387 -1.40676e-16)
(0.0111401 -0.0517342 0)
(0.000430645 0.00795683 0)
(2.7119e-06 -0.0801315 0)
(-0.000268931 -0.0472576 -2.90303e-16)
(-0.0115921 -0.0534431 0)
(0.0105131 -0.150925 -5.1071e-19)
(0.000350612 -0.0777044 0)
(-0.000677416 -0.0631612 0)
(0.00988789 -0.054035 0)
(0.000240678 0.0136283 0)
(-0.000972122 -0.0272035 0)
(0.000314854 0.00246364 0)
(0.000195262 -0.00100473 0)
(-0.00074149 -0.0156834 -1.4785e-16)
(-0.00642877 -0.0570987 0)
(-0.00143377 -0.0634171 0)
(-0.00259342 0.0137329 0)
(-0.00142145 -0.0735248 -1.4074e-16)
(-0.0198447 -0.0265401 0)
(-0.0014081 -0.0282253 -9.39979e-18)
(-0.00292762 -0.0558039 -2.65296e-16)
(-0.00219248 -0.115725 2.70864e-16)
(-0.0031101 -0.0352707 1.47184e-16)
(0.000554221 -0.061149 0)
(-0.00229319 -0.108874 -2.73532e-16)
(-0.0101574 -0.052831 0)
(-0.00365307 -0.0246821 0)
(-0.00915747 -0.0298972 -1.47243e-16)
(-0.00261127 -0.0388127 0)
(0.00753005 -0.035578 0)
(-0.00316969 -0.093744 0)
(-0.00165418 -0.0317516 0)
(-0.0363887 -0.0192131 0)
(-0.0036005 -0.0506214 0)
(-0.000662566 -0.0587003 0)
(-0.00141547 -0.0990184 -1.37288e-16)
(0.00383938 -0.0677031 0)
(-0.00337307 -0.0464515 0)
(-0.0239009 -0.0112098 0)
(0.0117216 -0.0412944 0)
(0.000186055 -0.0787088 -1.71521e-20)
(-6.91446e-05 -0.0318933 0)
(-0.0049918 -0.199878 4.93238e-19)
(0.00627466 -0.180837 0)
(-0.000276322 -0.0404875 -3.0733e-16)
(-9.8191e-05 -0.195923 0)
(0.00347827 -0.0713471 0)
(-0.00305426 -0.0991596 0)
(0.0262753 0.0093828 1.55043e-16)
(-0.00246442 -0.0435573 0)
(-0.00206961 -0.091566 -1.38861e-16)
(-0.00194019 -0.11737 -2.71536e-16)
(-0.00151368 -0.0795418 1.03541e-22)
(-4.78785e-05 -0.0553133 1.45184e-16)
(-0.000477536 -0.0748674 -4.29727e-16)
(-0.00414298 -0.0573567 0)
(0.00271145 -0.0752342 0)
(-0.00273303 -0.011204 -1.47432e-16)
(-0.0122496 -0.0279798 0)
(-0.000968102 -0.125815 0)
(0.00292712 -0.0744278 0)
(0.000124842 -0.172883 1.29525e-16)
(-0.00197889 -0.119296 -2.71059e-16)
(-0.00278054 -0.01474 0)
(0.00369948 -0.0671682 1.41378e-16)
(0.0287609 -0.0157016 0)
(0.000439817 -0.0450205 0)
(-0.00318011 -0.0476886 0)
(-0.00500903 -0.188539 0)
(0.00334584 -0.0671203 1.41466e-16)
(-0.00593932 -0.0310699 2.93286e-16)
(-0.00186244 -0.0877326 -1.39336e-16)
(-0.000230549 -0.0648278 0)
(-0.000499068 -0.0398879 0)
(0.000355649 -0.0735553 0)
(-0.010961 -0.0539643 0)
(-0.00116424 -0.124871 0)
(-0.00209227 -0.0414888 0)
(-0.00160731 -0.0676168 0)
(-0.00141404 -0.0817139 0)
(0.00270912 -0.0590594 -1.42972e-16)
(-0.00344193 -0.0218235 1.45917e-16)
(0.00275607 0.0179925 0)
(-0.00206517 -0.112136 -2.72781e-16)
(0.00150468 -0.104558 0)
(-0.00763597 -0.0143251 0)
(0.000330362 0.00173878 0)
(-0.00192798 -0.114988 -2.72114e-16)
(0.00180932 -0.0692601 0)
(-0.0231645 -0.0405095 -1.43686e-16)
(-0.00411995 -0.0321839 -2.8606e-16)
(0.000129884 -0.00920672 0)
(-0.0131345 -0.0377022 0)
(0.013778 -0.0387505 -1.4445e-16)
(0.00503587 -0.155696 0)
(0.00325103 -0.0728646 0)
(0.00178736 -0.0592783 0)
(0.0126245 -0.115224 0)
(-0.00778932 -0.0528227 0)
(0.00323345 0.0133416 0)
(0.0111677 -0.107595 0)
(0.00039023 -0.128009 1.34347e-16)
(0.000280409 -0.0751341 0)
(0.00443654 -0.0702439 -7.01291e-20)
(0.0062593 -0.0487601 -1.44069e-16)
(-0.0162853 -0.0461095 1.43686e-16)
(0.000235919 0.00668923 0)
(-0.0331125 -0.0272678 0)
(-0.00188169 -0.0298141 0)
(-0.00328312 -0.0192291 0)
(-0.0121594 -0.0132173 1.47243e-16)
(-0.0102814 -0.0515602 -1.44206e-16)
(-0.000421548 -0.0617009 0)
(0.00336337 -0.108753 0)
(0.00618725 -0.0550924 0)
(0.0155786 0.0237122 0)
(0.00212328 -0.123816 1.34532e-16)
(0.000286433 -0.00742356 0)
(-0.000267636 -0.0746031 2.7577e-19)
(-0.000358954 -0.123032 1.35187e-16)
(0.00225351 -0.0557751 1.4289e-16)
(0.000219266 -0.0779865 1.41192e-16)
(-0.00700163 -0.0478252 0)
(-0.00163446 -0.0841739 -1.39777e-16)
(-4.21261e-05 -0.078977 0)
(-0.00574625 -0.0479109 0)
(-0.00139429 -0.0437606 0)
(0.000303649 -0.0468773 0)
(0.00390214 -0.0549361 0)
(0.0286977 0.0139931 0)
(-0.000883497 -0.10703 0)
(-0.00148273 -0.0284009 0)
(-0.00137165 -0.124679 0)
(-0.00317838 -0.0583936 0)
(-0.000891773 0.0137544 0)
(0.00613804 -0.0448804 0)
(-0.000986755 -0.0716504 0)
(-0.00334514 -0.0583041 -1.44856e-16)