/*--------------------------------*- C++ -*----------------------------------*\
  =========                 |
  \\      /  F ield         | OpenFOAM: The Open Source CFD Toolbox
   \\    /   O peration     | Website:  https://openfoam.org
    \\  /    A nd           | Version:  9
     \\/     M anipulation  |
\*---------------------------------------------------------------------------*/
FoamFile
{
    format      ascii;
    class       volScalarField;
    location    "0.67";
    object      p;
}
// * * * * * * * * * * * * * * * * * * * * * * * * * * * * * * * * * * * * * //

dimensions      [0 2 -2 0 0 0 0];

internalField   nonuniform List<scalar> 
90
(
-1.21836e-17
1.72804e-18
-1.95784e-19
8.62407e-19
3.61974e-18
1.71621e-18
-1.13416e-17
9.00205e-19
1.86838e-19
3.44244e-18
-8.88638e-18
3.34637e-18
-8.52009e-18
2.59901e-18
2.83908e-18
3.60404e-18
4.7093e-18
1.39982e-18
-7.79604e-19
-2.92454e-18
1.35104e-17
-8.73926e-19
-1.32528e-18
-1.31886e-18
5.55976e-18
-4.66288e-18
1.09209e-17
2.25119e-18
1.15553e-18
-3.14102e-18
1.82035e-19
-7.52556e-18
9.08573e-18
2.42527e-18
5.57348e-18
3.85217e-18
-4.01527e-18
3.79202e-18
5.74088e-18
-5.95752e-18
-4.47496e-18
-2.36467e-18
1.8546e-18
-7.30304e-18
5.92517e-19
6.53444e-19
-9.22712e-19
1.29663e-18
-1.62292e-19
1.68678e-18
-5.27509e-18
-4.287e-18
-1.47581e-20
9.63017e-19
-3.63952e-18
-1.79589e-18
-1.99791e-18
-1.59789e-19
7.04713e-18
-7.62047e-18
-2.81232e-19
-6.06236e-18
-7.92504e-18
1.33044e-18
4.33271e-20
-2.50682e-18
-1.39581e-18
-2.22504e-19
1.97012e-18
4.26946e-19
1.52566e-19
6.13283e-18
1.64419e-18
-3.07819e-18
1.5955e-19
-1.68558e-18
1.41297e-17
2.61881e-18
1.46399e-18
3.34687e-18
2.25973e-18
-2.09655e-18
-1.19757e-18
-6.11436e-19
-3.04789e-18
4.58063e-19
2.69487e-19
-1.54195e-18
-1.19375e-18
1.22582e-17
)
;

boundaryField
{
    back
    {
        type            empty;
    }
    front
    {
        type            empty;
    }
    bottom
    {
        type            zeroGradient;
    }
    outer_arc
    {
        type            zeroGradient;
    }
    right
    {
        type            uniformFixedValue;
        uniformValue    
        {
            type            scale;
            scale           
            {
                type            squarePulse;
                start           0.3;
                duration        0.3;
            }
            xScale          
            {
                type            constant;
                value           1;
            }
            value           
            {
                type            constant;
                value           15.1;
            }
        }
        value           uniform 0;
    }
    inner_arc
    {
        type            zeroGradient;
    }
}


// ************************************************************************* //
