/*--------------------------------*- C++ -*----------------------------------*\
  =========                 |
  \\      /  F ield         | OpenFOAM: The Open Source CFD Toolbox
   \\    /   O peration     | Website:  https://openfoam.org
    \\  /    A nd           | Version:  9
     \\/     M anipulation  |
\*---------------------------------------------------------------------------*/
FoamFile
{
    format      ascii;
    class       surfaceScalarField;
    location    "0.67";
    object      phi;
}
// * * * * * * * * * * * * * * * * * * * * * * * * * * * * * * * * * * * * * //

dimensions      [0 3 -1 0 0 0 0];

internalField   nonuniform List<scalar> 
122
(
-5.19347e-24
2.09471e-24
3.09874e-24
2.28999e-28
9.76097e-26
-9.78146e-26
-1.62073e-24
4.24985e-24
-2.62911e-24
1.17963e-24
-2.80042e-24
-1.96736e-24
1.96737e-24
1.41236e-24
3.52832e-24
-4.94064e-24
1.05004e-24
-1.75472e-26
-1.03252e-24
4.85002e-24
-3.43754e-24
-2.09508e-24
2.5331e-24
-4.38065e-25
-9.77307e-26
5.5001e-25
-4.52249e-25
1.4176e-24
-3.67405e-25
-5.49886e-25
3.14726e-24
2.53889e-24
1.71086e-24
-2.81798e-24
1.73483e-24
-1.17001e-24
-5.64828e-25
-2.13387e-24
2.13395e-24
-3.43505e-24
3.43503e-24
-3.6874e-24
1.79521e-24
1.89216e-24
1.49648e-24
2.38516e-25
3.42858e-24
9.97969e-26
-8.00809e-25
-2.88636e-24
1.29467e-24
-5.51752e-24
2.08244e-24
-1.63442e-24
4.17318e-24
3.14552e-24
-6.12206e-25
-4.38273e-25
-1.96386e-24
4.09768e-24
4.07968e-24
-3.97993e-24
2.11583e-24
2.37312e-24
-2.37316e-24
3.14727e-24
4.09785e-24
-1.38509e-24
1.38504e-24
2.05039e-24
-1.33238e-24
3.38275e-24
-1.83154e-24
3.9474e-24
-1.19957e-24
4.29852e-24
5.80992e-25
-4.50666e-24
-1.43797e-25
4.5707e-26
-4.53321e-25
4.53328e-25
-6.4862e-25
2.35932e-24
-3.96147e-24
-8.19654e-25
2.15123e-25
2.15097e-25
-2.15133e-24
6.34502e-26
2.08786e-24
-1.4196e-24
2.15087e-25
1.75241e-24
-3.90385e-24
4.25805e-24
-1.43831e-25
-4.08592e-24
4.66696e-24
-1.23904e-24
1.23899e-24
1.13407e-24
1.87878e-24
-2.52759e-24
-2.25036e-24
2.25033e-24
4.64197e-25
-3.0974e-25
7.73953e-25
1.51277e-24
-7.37722e-25
-1.51268e-24
1.76787e-24
5.91482e-25
7.64345e-25
-1.22852e-25
3.43536e-24
2.059e-24
-2.05895e-24
-2.4862e-25
4.02664e-24
-3.68627e-24
)
;

boundaryField
{
    back
    {
        type            empty;
        value           nonuniform List<scalar> 0();
    }
    front
    {
        type            empty;
        value           nonuniform List<scalar> 0();
    }
    bottom
    {
        type            calculated;
        value           uniform 0;
    }
    outer_arc
    {
        type            calculated;
        value           uniform 0;
    }
    right
    {
        type            calculated;
        value           nonuniform List<scalar> 4(-5.19334e-24 3.92561e-24 -5.45762e-24 6.72616e-24);
    }
    inner_arc
    {
        type            calculated;
        value           uniform 0;
    }
}


// ************************************************************************* //
