/*--------------------------------*- C++ -*----------------------------------*\
  =========                 |
  \\      /  F ield         | OpenFOAM: The Open Source CFD Toolbox
   \\    /   O peration     | Website:  https://openfoam.org
    \\  /    A nd           | Version:  9
     \\/     M anipulation  |
\*---------------------------------------------------------------------------*/
FoamFile
{
    format      ascii;
    class       volVectorField;
    location    "0.67";
    object      U;
}
// * * * * * * * * * * * * * * * * * * * * * * * * * * * * * * * * * * * * * //

dimensions      [0 1 -1 0 0 0 0];

internalField   nonuniform List<vector> 
90
(
(-1.19811e-16 -5.11704e-17 1.13985e-33)
(-2.38122e-19 1.81315e-18 1.71375e-34)
(-1.47802e-17 8.3073e-17 1.63664e-35)
(-5.76023e-18 9.32726e-17 -1.62086e-35)
(4.47643e-18 4.29452e-17 -2.09161e-34)
(-4.84182e-19 4.57594e-19 -1.36153e-34)
(-1.25175e-16 -3.17434e-17 -1.3718e-33)
(4.96875e-17 -1.43858e-16 2.18228e-34)
(-3.68765e-17 4.54877e-17 0)
(6.71199e-17 -1.4457e-16 0)
(-1.83759e-17 -4.83026e-17 -2.223e-34)
(-5.9659e-18 1.6384e-17 -1.60683e-34)
(-3.04601e-17 -2.76606e-17 -1.06431e-34)
(-3.36669e-18 3.30405e-18 1.12189e-34)
(-1.92232e-17 4.60505e-17 0)
(-4.60966e-18 4.82784e-17 0)
(2.33095e-17 8.57551e-17 4.10981e-34)
(4.15537e-17 1.07211e-16 -3.71275e-35)
(-5.25814e-17 5.17438e-17 0)
(-5.01239e-17 -2.24425e-17 -1.29564e-34)
(-1.15608e-17 -4.80124e-17 6.80653e-34)
(-5.94354e-17 -5.77095e-17 -1.28908e-34)
(6.42411e-17 -8.2979e-17 -1.68146e-34)
(-3.83471e-17 -6.22948e-18 1.26633e-34)
(2.34663e-17 -1.20365e-16 -2.62163e-34)
(7.81118e-17 -2.8693e-17 1.36004e-34)
(3.08122e-17 -7.25927e-17 -6.60413e-34)
(-1.06167e-16 -9.39128e-17 2.90276e-35)
(7.47886e-17 1.15367e-16 0)
(-1.27396e-17 -9.61408e-17 8.66201e-35)
(4.02771e-17 -1.21324e-16 -1.11318e-34)
(1.06533e-17 -2.08215e-17 -3.36281e-34)
(-7.03901e-17 -1.01217e-16 5.77985e-35)
(7.78776e-18 -1.19181e-16 -2.10244e-34)
(-4.8675e-17 -1.11331e-16 9.63549e-35)
(-1.88038e-18 1.54594e-17 -9.13633e-35)
(5.01257e-17 2.66665e-17 0)
(2.79288e-17 5.41291e-17 0)
(-6.24776e-17 -6.49505e-17 -1.7583e-34)
(-3.09539e-17 -2.72785e-17 -6.09535e-35)
(-8.03013e-17 -6.61493e-17 1.54722e-34)
(-9.46129e-17 -4.38841e-17 1.76754e-34)
(-4.21879e-17 -8.79505e-17 2.70928e-35)
(-1.3531e-16 -8.64279e-17 1.15583e-34)
(1.05925e-16 -1.3022e-16 3.83469e-35)
(-3.04076e-18 4.09181e-18 -1.56464e-35)
(-7.54673e-18 7.38347e-19 -5.0164e-35)
(2.23485e-17 5.33682e-17 4.3592e-35)
(-9.2257e-17 -1.86285e-17 1.49968e-36)
(-1.58489e-17 2.41316e-17 -2.04555e-35)
(-2.54191e-17 -1.86505e-17 0)
(-5.86815e-18 -3.2549e-18 1.34797e-34)
(7.61877e-17 -2.93356e-17 -7.13985e-37)
(-1.0715e-16 -1.04658e-16 0)
(-6.22532e-19 -3.07779e-18 -2.47313e-34)
(1.16626e-16 2.75744e-17 3.5262e-37)
(-1.48662e-16 -1.23574e-16 -9.56797e-35)
(-1.00571e-18 1.32098e-18 0)
(1.66468e-16 -9.80735e-17 0)
(4.52126e-17 -1.24695e-17 4.64185e-34)
(-7.98952e-17 -1.2583e-17 -6.79112e-35)
(7.16418e-17 2.67424e-17 0)
(2.7992e-17 4.80245e-18 3.70358e-34)
(-5.74303e-17 -3.17038e-17 -1.23327e-35)
(-1.03713e-16 -5.55248e-17 -2.49823e-35)
(4.36031e-17 3.96803e-17 -1.08083e-34)
(-4.04812e-17 1.74606e-17 0)
(-2.47242e-17 1.32695e-17 0)
(5.52421e-17 7.98478e-17 -8.37649e-36)
(6.35608e-17 6.61099e-17 9.94516e-36)
(6.71663e-17 5.6056e-17 0)
(1.16788e-16 -9.50037e-17 3.00814e-34)
(4.44737e-17 -1.38455e-17 0)
(8.06953e-17 5.93382e-17 -1.37604e-34)
(9.94378e-17 1.05715e-16 -1.00411e-35)
(-1.51251e-17 -6.43118e-18 8.58228e-35)
(5.59143e-17 -7.63995e-18 -1.87636e-34)
(-7.70523e-17 -8.95465e-17 0)
(5.53322e-17 -8.49606e-17 1.29375e-34)
(1.88505e-16 -4.06542e-17 4.39616e-34)
(2.80132e-17 3.16598e-17 -9.41188e-35)
(-3.52524e-18 -1.49459e-16 4.12741e-35)
(-1.18921e-17 4.83412e-18 7.73126e-35)
(1.13093e-16 9.60411e-17 -2.81667e-35)
(1.06251e-16 1.57627e-17 6.41228e-35)
(-1.60981e-17 1.51252e-17 1.83284e-35)
(1.63405e-17 -1.45112e-16 -1.98093e-35)
(-4.92811e-17 -1.15063e-16 -1.18115e-34)
(1.20189e-16 7.30079e-17 1.61324e-34)
(7.22553e-17 -4.84305e-17 -2.91317e-34)
)
;

boundaryField
{
    back
    {
        type            empty;
    }
    front
    {
        type            empty;
    }
    bottom
    {
        type            uniformFixedValue;
        uniformValue    
        {
            type            scale;
            scale           
            {
                type            squarePulse;
                start           0.3;
                duration        0.3;
            }
            xScale          
            {
                type            constant;
                value           1;
            }
            value           
            {
                type            constant;
                value           (0 0.7 0);
            }
        }
        value           uniform (0 0 0);
    }
    outer_arc
    {
        type            noSlip;
    }
    right
    {
        type            zeroGradient;
    }
    inner_arc
    {
        type            noSlip;
    }
}


// ************************************************************************* //
