/*--------------------------------*- C++ -*----------------------------------*\
  =========                 |
  \\      /  F ield         | OpenFOAM: The Open Source CFD Toolbox
   \\    /   O peration     | Website:  https://openfoam.org
    \\  /    A nd           | Version:  9
     \\/     M anipulation  |
\*---------------------------------------------------------------------------*/
FoamFile
{
    format      ascii;
    class       volScalarField;
    location    "0.96";
    object      p;
}
// * * * * * * * * * * * * * * * * * * * * * * * * * * * * * * * * * * * * * //

dimensions      [0 2 -2 0 0 0 0];

internalField   nonuniform List<scalar> 
464
(
1.38951e-22
-5.55285e-22
-9.12854e-22
-9.1081e-22
-6.52004e-22
-9.17749e-22
-6.77512e-24
-9.14987e-22
-1.73238e-22
-1.27766e-22
1.33328e-22
3.12265e-22
-2.75853e-24
4.28317e-22
-1.35249e-22
-3.27121e-22
-6.37682e-22
-1.79915e-21
-9.16793e-22
-7.8417e-22
-8.58372e-22
-8.61933e-22
-8.49479e-22
-9.08877e-22
-9.17024e-22
-9.09925e-22
1.61925e-22
-9.08718e-22
-2.59293e-22
-8.89336e-22
-8.96903e-22
-3.82201e-22
-2.4357e-22
-3.66485e-22
-7.21896e-22
-6.39407e-22
-1.28799e-22
-9.18825e-22
-9.18371e-22
-4.03184e-22
-8.11946e-22
-8.46699e-22
-8.27601e-22
3.38216e-22
-7.30642e-23
1.73926e-22
-8.72952e-22
-8.57345e-22
-9.05534e-22
-9.08152e-22
-9.44372e-22
-8.93712e-22
-6.70552e-22
-8.03898e-22
-8.01726e-22
-8.8936e-22
-8.90232e-22
-7.0555e-22
-6.68139e-22
-7.17462e-22
-9.24045e-22
-4.26895e-22
-6.81348e-22
-7.62958e-22
-3.22441e-22
-8.16714e-22
-5.52937e-22
-8.99717e-22
1.67709e-22
-7.86572e-22
-6.61523e-22
-3.65667e-22
-1.80527e-22
-8.72184e-22
-4.23266e-22
-9.11375e-22
-5.42331e-22
3.29213e-23
-7.27612e-22
-4.13213e-22
-5.52113e-22
-9.1234e-22
-8.90873e-22
-9.12209e-22
-5.91775e-22
-6.49788e-22
-3.74922e-22
-9.16451e-22
-9.04493e-22
-4.05874e-22
-5.32426e-22
-4.29031e-22
-5.07931e-22
4.70742e-22
-5.04347e-22
-4.83218e-22
-7.17561e-22
-9.1437e-22
-5.40016e-22
-1.8869e-22
-9.06134e-22
-8.50361e-22
-8.96833e-22
-4.67645e-22
-3.49698e-22
-8.7861e-22
-9.15389e-22
-5.2403e-22
-5.46709e-22
-8.32908e-22
-4.58826e-22
-8.7441e-22
-6.06476e-22
-4.69359e-22
-9.05219e-22
-8.91019e-22
-7.93161e-22
-8.99848e-22
-5.97962e-22
-9.01434e-22
-8.49896e-22
-5.47593e-24
-3.51127e-22
7.57972e-23
-6.14463e-22
-4.60248e-22
-2.48369e-22
-4.70705e-22
-4.87118e-22
-8.32194e-22
-9.15474e-22
6.88789e-22
-9.28748e-22
-8.8418e-22
-8.71388e-22
-7.10588e-22
-8.95202e-22
-9.10984e-22
-2.34206e-22
-8.26689e-22
-8.67784e-22
-4.38107e-22
-6.84479e-22
-8.93966e-22
-8.84724e-22
-4.33649e-22
-8.76683e-22
-9.04122e-22
-7.77802e-22
-8.24183e-22
-8.69424e-22
-8.8698e-22
-2.40989e-22
-4.45902e-22
-6.6551e-22
-8.50459e-22
-8.46821e-22
-8.63121e-22
-2.34551e-22
-5.21935e-22
-3.51593e-22
-8.49779e-22
-4.38576e-22
-7.37961e-22
-7.36724e-22
-8.83028e-22
-3.49547e-22
-8.91972e-22
-4.66609e-22
-3.93683e-22
-3.9031e-22
-4.23071e-22
-4.58932e-22
-8.74064e-22
-3.97477e-22
-4.72202e-22
-8.41992e-22
-8.09748e-22
-7.90381e-23
-7.64331e-22
-8.06462e-22
-5.7476e-22
-9.81805e-22
-1.77462e-21
-6.54363e-22
-8.68544e-23
-4.94808e-22
-4.76739e-22
-4.27703e-22
-3.84609e-22
-8.17183e-22
-4.53975e-22
-8.51426e-22
-8.37565e-22
-7.04284e-22
-7.14928e-22
-8.61738e-22
-8.20903e-22
-1.71833e-22
-7.90906e-22
-8.07556e-22
-7.34736e-22
-8.11663e-22
-7.51741e-22
-4.01215e-22
-8.43948e-22
-7.99693e-22
-7.57203e-22
-7.37482e-22
-4.96147e-22
-8.51729e-22
-5.34242e-22
-8.82188e-22
-9.96665e-22
-5.58029e-22
-3.89862e-22
-1.18408e-21
-8.2428e-22
8.19919e-23
-7.11726e-22
-2.4567e-21
-7.81069e-22
-7.78586e-22
-8.01888e-22
-8.09103e-22
-7.71314e-22
-7.92808e-22
-7.42973e-22
-7.4767e-22
-7.86534e-22
-7.63194e-22
-7.98945e-22
-7.64167e-22
-7.57539e-22
-8.01206e-22
-7.6396e-22
-4.99885e-22
-8.77544e-22
-7.77421e-22
-1.77001e-22
-8.04045e-22
-6.5009e-22
-7.16558e-22
-8.76736e-22
-8.56175e-22
4.97335e-22
-9.23747e-22
-7.98381e-22
-2.9426e-22
-5.4684e-22
-1.09744e-21
4.93024e-22
-5.43335e-22
-4.16855e-22
-7.17533e-22
-8.73264e-22
-8.62906e-22
-4.40357e-22
-7.775e-22
-5.86854e-22
-7.67631e-22
-4.2711e-22
-3.68617e-22
-2.83365e-22
-4.29958e-22
-3.7433e-22
-4.24847e-22
-9.11195e-22
2.0784e-23
-4.70323e-22
-8.66249e-22
-4.6582e-22
-3.48386e-22
-2.42231e-23
4.56527e-23
-3.93902e-22
-4.26561e-22
-6.96153e-22
-6.59872e-22
-4.31827e-22
-3.39553e-22
-8.83852e-22
-6.87323e-22
-8.76083e-22
-1.65999e-22
-3.57054e-22
-6.3091e-22
-3.64426e-22
-8.92349e-22
-3.25104e-22
-3.66908e-22
-3.47941e-22
-8.71201e-22
-8.42589e-22
-4.3093e-22
-6.64018e-22
-5.72104e-22
-5.27292e-22
-5.72502e-22
-3.52623e-22
-2.46397e-22
-2.83571e-22
-9.77929e-23
5.10129e-22
-4.49251e-22
-4.28326e-22
-4.04533e-22
-3.49931e-22
-5.25927e-22
-4.49444e-22
-7.68085e-22
-8.75717e-22
-4.67858e-22
-1.33298e-22
-4.47133e-22
-3.87119e-22
-5.82096e-22
-3.99918e-22
-9.15727e-22
-2.74764e-23
-8.83178e-22
-6.11137e-22
-4.937e-22
-5.44138e-22
-3.525e-22
-8.69502e-22
-8.75402e-22
1.5373e-22
-9.014e-22
-3.52199e-22
-8.06874e-22
-2.04073e-22
-9.1197e-22
-4.11516e-22
-7.45152e-22
-8.52508e-22
-8.78661e-22
-9.19788e-22
-4.47439e-22
-8.75134e-22
-9.20136e-22
3.73164e-22
-3.7735e-22
-3.82883e-22
-3.98859e-22
-9.07555e-22
-8.67967e-22
-6.32367e-22
-9.21333e-22
-7.20859e-22
-8.62229e-22
-9.26955e-22
-6.21954e-22
-6.37698e-22
-8.58368e-22
-3.51498e-22
-9.16365e-22
-7.98188e-22
-9.11889e-22
-5.47574e-22
-9.17071e-22
-3.49349e-23
-9.18501e-22
-5.59469e-22
2.69995e-22
-9.29471e-22
-9.20461e-22
1.41106e-22
4.43775e-22
-8.98787e-22
-9.20782e-22
9.73071e-22
-7.28732e-23
8.09751e-22
8.05062e-22
-9.16916e-22
-1.69205e-22
-8.68189e-22
-5.79594e-22
-8.84472e-22
-1.01345e-21
-2.30921e-22
-2.27237e-22
-5.37735e-22
-1.04796e-21
-4.89606e-22
-8.09829e-22
-9.10448e-22
-2.58913e-21
-1.78471e-21
-7.56795e-22
-6.52286e-22
-1.00249e-22
-4.75999e-22
-6.5717e-22
-8.34675e-22
-7.72372e-22
-8.76697e-22
-8.78114e-22
-1.43126e-22
-3.14224e-22
-9.1688e-22
5.16418e-22
-9.47449e-22
-1.87641e-23
1.99679e-22
6.46357e-22
-9.44029e-22
3.78777e-22
-9.45189e-22
-1.70618e-22
-9.03104e-22
-9.14597e-22
-8.99894e-22
-9.22895e-22
-2.91343e-22
6.30797e-22
-9.01876e-22
-9.21212e-22
-3.92426e-22
-9.12335e-22
-9.21628e-22
-1.40476e-23
1.11312e-21
3.30324e-22
-1.3423e-22
-8.50761e-22
-8.40349e-22
-1.1216e-21
-8.77901e-22
-9.14141e-22
-5.0286e-22
-2.88371e-22
-8.99912e-22
-9.7933e-22
-3.1532e-21
-2.52689e-21
-8.97304e-22
-2.7392e-21
-8.87061e-22
-7.28805e-22
-2.03451e-22
-6.88051e-22
-7.04899e-22
-8.69495e-22
-7.48009e-22
-8.57452e-22
-8.79684e-22
-8.4783e-22
-9.69821e-22
-5.0638e-22
6.38587e-23
7.0966e-23
-9.03833e-22
-8.58542e-22
-1.60183e-22
5.74886e-22
-9.1918e-22
-9.03506e-22
-8.98211e-22
-9.45185e-22
7.29429e-22
5.87513e-22
-8.97943e-22
)
;

boundaryField
{
    back
    {
        type            empty;
    }
    front
    {
        type            empty;
    }
    left
    {
        type            zeroGradient;
    }
    top
    {
        type            zeroGradient;
    }
    right
    {
        type            zeroGradient;
    }
    bottom
    {
        type            uniformFixedValue;
        uniformValue    
        {
            type            scale;
            scale           
            {
                type            squarePulse;
                start           0.3;
                duration        0.3;
            }
            xScale          
            {
                type            constant;
                value           1;
            }
            value           
            {
                type            constant;
                value           15.1;
            }
        }
        value           uniform 0;
    }
}


// ************************************************************************* //
