/*--------------------------------*- C++ -*----------------------------------*\
  =========                 |
  \\      /  F ield         | OpenFOAM: The Open Source CFD Toolbox
   \\    /   O peration     | Website:  https://openfoam.org
    \\  /    A nd           | Version:  9
     \\/     M anipulation  |
\*---------------------------------------------------------------------------*/
FoamFile
{
    format      ascii;
    class       surfaceScalarField;
    location    "0.96";
    object      phi;
}
// * * * * * * * * * * * * * * * * * * * * * * * * * * * * * * * * * * * * * //

dimensions      [0 3 -1 0 0 0 0];

internalField   nonuniform List<scalar> 
663
(
-4.87281e-28
6.5638e-28
-1.66713e-28
1.79471e-28
7.07332e-28
-1.14039e-31
1.10576e-31
-1.17842e-30
6.14172e-30
-4.83053e-30
-3.14405e-28
4.89399e-28
5.62571e-32
-1.70505e-30
-6.86736e-28
1.98622e-28
4.38432e-30
-7.78667e-30
-8.16449e-28
3.99685e-28
4.16695e-28
-3.68212e-29
-7.78824e-28
-8.92545e-29
7.42098e-28
3.34843e-28
-7.87555e-29
-2.54199e-28
-2.86719e-28
2.95515e-28
6.36016e-29
1.66661e-28
-2.10837e-28
2.58605e-29
1.75034e-28
-1.48491e-29
-3.19757e-29
-4.47501e-29
5.05524e-29
3.58585e-30
-6.56884e-29
-2.21669e-30
1.92598e-30
1.13066e-29
-9.48509e-30
-3.81026e-30
7.8378e-30
5.89782e-30
-1.82383e-29
7.22701e-30
1.10985e-29
-1.37014e-29
-6.23637e-30
-4.10646e-30
-3.22968e-30
7.2867e-30
3.71759e-30
3.09138e-31
3.39846e-30
-9.64062e-30
4.47436e-29
-8.76735e-29
4.35636e-29
-9.66762e-30
9.35979e-30
4.1975e-31
1.94273e-28
-1.62541e-28
4.76964e-30
-1.18468e-29
7.02235e-30
-7.69074e-30
1.05781e-29
-2.13296e-28
1.98602e-28
1.50203e-29
1.70351e-29
-2.35515e-28
1.84842e-28
-1.71871e-28
-3.52361e-29
1.16355e-28
4.90138e-29
6.24564e-29
7.69826e-30
3.88161e-29
6.27587e-29
-9.71292e-31
-2.77416e-30
8.04883e-31
-1.31474e-29
-2.01167e-28
6.7574e-30
1.9188e-28
7.73648e-31
-1.06372e-29
-1.62491e-30
-9.66835e-30
1.12586e-29
-1.45782e-29
-1.41437e-28
4.66815e-29
-2.22929e-28
3.49556e-29
2.34479e-29
-3.10485e-29
7.53417e-30
2.95359e-29
-2.91896e-29
-3.37637e-31
6.56053e-30
-6.51203e-30
5.59741e-30
1.0451e-29
-7.15172e-30
-1.70595e-29
9.64814e-31
1.60765e-29
-9.02465e-30
-1.95601e-30
9.84452e-30
-9.01961e-30
4.68413e-29
-3.76331e-29
-5.37228e-29
4.40771e-29
1.91121e-30
-2.11487e-29
2.18656e-29
1.61165e-29
3.87945e-29
-5.6889e-29
-4.28702e-29
5.98522e-29
-2.67902e-29
3.78729e-30
4.5555e-30
-4.39161e-29
3.13354e-28
-2.69333e-28
5.92553e-29
-8.46216e-30
-4.84652e-29
-4.87906e-29
4.5032e-29
4.72899e-30
-5.27286e-28
4.90075e-28
1.44807e-29
3.18991e-29
-3.75284e-30
-3.26651e-29
3.51441e-29
-8.59799e-30
-3.18748e-28
-4.44988e-30
-5.03695e-29
-5.79634e-29
1.3835e-29
-5.73731e-28
1.92878e-28
2.45522e-30
5.94488e-30
2.15509e-29
-2.45204e-29
1.6499e-28
-1.40413e-28
-1.1747e-31
-6.12454e-29
4.99279e-29
-6.62496e-28
4.94612e-28
5.21342e-29
-1.1567e-29
-1.92523e-29
2.15948e-28
3.41874e-28
-5.58279e-28
-4.18576e-30
2.40258e-31
3.94702e-30
9.91058e-29
-1.55653e-28
5.53812e-29
-5.77702e-31
2.82522e-30
-2.27029e-30
3.0319e-28
3.56915e-29
2.68982e-29
3.86315e-28
-7.66919e-29
-8.56174e-30
3.87068e-30
-1.36296e-29
9.83096e-30
-1.69419e-28
1.43137e-28
2.95415e-29
-2.38851e-28
8.51887e-29
9.55236e-30
-9.78469e-29
-1.73804e-28
-3.18618e-28
4.8956e-28
2.55474e-29
5.73871e-29
-6.52753e-29
3.95713e-30
-7.73091e-30
5.86714e-30
1.12081e-29
6.13573e-29
-7.23802e-29
3.24786e-28
-6.1112e-28
-1.10275e-29
1.29375e-29
3.36464e-30
-3.47909e-29
-1.62504e-29
3.97668e-30
6.43581e-29
1.37439e-28
-1.15391e-28
-1.62168e-28
1.13107e-30
4.37958e-29
-8.52749e-29
-6.12893e-29
9.15571e-29
3.60681e-29
-4.67321e-29
1.0874e-29
6.91029e-29
6.07264e-29
-1.2845e-28
-2.8684e-29
4.3102e-29
-1.33903e-28
1.42197e-28
-1.34933e-29
-2.0782e-30
-1.28977e-29
-4.69963e-30
-4.60695e-29
-1.95229e-29
-1.86287e-30
5.81394e-30
-3.98425e-30
5.86732e-29
7.12125e-30
-1.0811e-29
3.72255e-29
-1.55086e-28
4.75412e-28
2.56127e-28
1.26624e-28
-2.59395e-28
4.55287e-28
-2.21345e-29
1.60103e-28
-9.30856e-29
3.8686e-28
-1.25904e-28
-6.68883e-29
1.25821e-28
2.50985e-29
1.12099e-28
2.37547e-29
-3.28309e-29
-2.06632e-29
6.46556e-30
2.34278e-30
-1.21565e-29
9.80936e-30
-2.36499e-29
-5.67625e-30
-1.23688e-29
1.04731e-29
-5.31942e-30
4.31085e-30
6.64674e-30
-5.57812e-30
-1.00611e-28
4.87762e-29
-3.8164e-29
-2.01583e-29
-4.1182e-30
-1.53865e-30
6.81455e-30
1.56414e-28
-1.38801e-29
-7.9301e-30
-2.56291e-30
4.94816e-29
-5.7164e-30
-2.5649e-30
-2.20153e-30
-2.61956e-29
1.07814e-29
-1.28361e-29
1.81273e-29
-8.85814e-29
2.14283e-28
-1.23721e-28
1.10157e-28
5.06542e-29
3.49609e-29
6.96121e-30
-3.10863e-30
-1.30578e-29
-3.62584e-29
-1.61843e-29
-1.09613e-29
2.21935e-28
1.70382e-28
-8.40182e-29
8.79152e-29
-6.46449e-29
-2.10965e-29
-2.96113e-29
1.26848e-29
1.44852e-29
-1.57619e-28
-3.44252e-30
4.97971e-31
-3.14144e-30
1.66617e-29
7.70059e-29
-1.55019e-29
-2.4227e-31
-1.99955e-29
2.20121e-28
-1.92638e-28
-5.83903e-29
5.81667e-29
-3.98044e-29
-1.87709e-29
9.05165e-29
-7.24121e-29
7.65936e-29
-9.54531e-30
7.40329e-29
1.75476e-29
-8.3654e-29
-1.72706e-29
-1.29719e-29
1.41965e-29
-3.23312e-29
-2.32154e-28
1.42461e-28
-4.68855e-30
-1.10277e-28
1.22004e-28
2.48547e-29
-1.29342e-29
9.96964e-30
-4.08811e-30
-5.08864e-30
8.00479e-29
-7.08199e-29
4.27448e-30
4.89057e-29
-8.31554e-29
-5.90154e-29
4.71208e-29
4.27914e-30
1.10134e-29
3.23937e-30
-2.01403e-29
4.10137e-29
3.57593e-29
6.44837e-30
-4.24782e-29
1.88004e-29
-1.52081e-29
-1.46048e-29
1.45397e-29
-1.63887e-30
4.53763e-30
5.32295e-29
5.04995e-29
-4.79932e-29
-7.16036e-31
4.2693e-29
-4.8149e-29
-2.15462e-30
5.04106e-29
-5.39498e-32
-2.06177e-29
1.84684e-29
4.84404e-29
1.53757e-30
-1.79179e-29
-2.15273e-29
-2.3381e-29
2.34656e-29
-2.44145e-29
1.01794e-29
-8.93677e-30
2.39548e-29
-1.49775e-29
-7.00635e-30
-7.13325e-29
-1.17742e-28
1.15254e-28
-2.45204e-29
5.53452e-29
1.59965e-30
1.09234e-29
-1.99672e-29
-3.34116e-29
1.16184e-29
-2.65936e-29
6.7387e-30
-2.14712e-29
1.54127e-29
-3.13116e-29
2.82562e-30
-3.5219e-29
-3.23032e-29
-1.93518e-29
-4.86109e-30
2.13774e-29
-3.28467e-29
-3.33432e-29
-6.70822e-30
8.97276e-30
-4.48767e-29
4.87014e-29
-3.7979e-29
-2.3666e-29
7.60679e-30
2.79718e-29
-2.10123e-29
-7.80847e-29
4.26191e-29
-5.13861e-29
4.91115e-29
-8.88037e-29
-5.76636e-30
-1.29377e-29
-6.39518e-29
-2.12351e-29
-1.67789e-29
-6.097e-31
3.16017e-31
-1.33123e-29
-7.21728e-29
1.87975e-30
5.81133e-29
-1.30273e-28
-9.91797e-29
-1.08331e-28
5.63354e-29
4.70415e-29
-6.15332e-29
-9.22627e-29
7.45203e-29
3.56634e-30
2.13926e-29
-3.3291e-29
-6.66181e-30
-1.12028e-28
1.22561e-28
-2.00428e-28
8.1473e-29
3.32232e-30
-1.04875e-28
-1.27682e-28
2.57374e-29
9.86938e-29
-1.14163e-28
1.37547e-28
-1.89209e-28
2.33679e-28
-4.40064e-29
1.92483e-29
-1.82214e-28
-1.1969e-28
-1.67948e-29
2.66023e-28
-2.33911e-28
5.65621e-29
1.63809e-28
-1.43867e-29
-5.12315e-30
-1.10537e-28
4.09677e-29
3.78222e-29
2.16185e-28
2.20035e-28
-1.01257e-28
9.9962e-29
1.23646e-30
2.26226e-29
-2.29179e-29
1.86556e-29
7.35051e-29
-3.50835e-29
-3.66935e-30
-1.66126e-29
-1.57023e-30
-2.78945e-29
-2.26492e-28
7.16288e-29
-1.99382e-30
-3.57113e-30
-1.88882e-29
1.03388e-28
-2.30893e-28
1.67097e-29
8.33302e-30
1.08362e-28
-9.97625e-29
2.08582e-28
2.68369e-29
3.99519e-29
-2.49191e-29
-4.21617e-29
1.73478e-29
-6.36909e-30
-2.79827e-29
4.33945e-29
-1.37564e-28
-1.44805e-28
-2.84111e-28
7.64527e-29
2.05679e-28
1.32821e-28
1.2497e-29
1.92498e-29
-4.58281e-29
-8.27093e-29
-1.98351e-29
-5.16477e-29
1.07913e-28
-5.69528e-29
2.77123e-28
-5.80898e-29
-9.24882e-31
-1.00069e-28
-8.33505e-29
-5.46356e-29
4.29824e-30
-8.9874e-31
4.56549e-29
-1.498e-29
1.69305e-30
2.74516e-29
1.08621e-29
-1.0718e-29
-1.55085e-28
1.62402e-29
-8.71147e-30
7.94379e-28
-4.49864e-28
-3.49436e-31
2.7539e-31
-5.59161e-29
2.55689e-29
-6.34836e-30
2.40154e-31
-5.17965e-32
4.12144e-30
3.68087e-31
1.25672e-32
1.83443e-28
-8.42582e-28
1.37437e-28
2.93584e-30
6.65333e-30
2.10486e-29
-8.76072e-30
2.06109e-29
2.38135e-28
-6.68161e-31
2.36621e-28
-6.7859e-31
-2.78799e-29
7.30249e-28
6.69839e-31
-2.08405e-30
-2.44698e-28
-4.457e-31
-7.3955e-29
4.28747e-28
3.98791e-31
-5.94239e-31
-5.13771e-29
7.67696e-29
6.33853e-29
-6.59544e-30
1.24226e-30
-2.14693e-30
4.75122e-29
-2.01661e-28
-2.1871e-29
9.0962e-29
-2.25844e-29
-1.30923e-28
-2.63463e-30
7.20654e-29
9.17812e-30
-8.41507e-29
9.49941e-29
-1.23171e-28
-6.21793e-29
-4.12504e-29
1.70017e-28
1.34327e-28
-6.37161e-30
-3.56209e-29
-3.26883e-29
-1.07364e-29
1.34718e-29
1.84999e-29
-9.5509e-30
1.56968e-29
6.49452e-30
-2.21269e-29
-2.04036e-29
9.57247e-30
6.82789e-29
7.4136e-28
-1.54933e-31
6.13866e-28
6.68616e-33
5.48961e-28
-3.45555e-28
2.0702e-28
-2.05248e-28
-2.15565e-31
-3.08757e-28
2.54082e-31
-4.89461e-28
-2.8871e-28
1.80622e-31
5.03909e-30
-2.93997e-30
1.03568e-31
2.77967e-30
-7.71227e-30
1.03455e-29
6.76712e-29
3.71874e-30
1.16748e-30
-1.8265e-28
9.21141e-29
6.31247e-29
-8.96655e-30
3.23215e-29
-1.69481e-29
1.57647e-29
1.31629e-29
-1.04457e-29
-1.8245e-29
-8.35149e-31
-1.99514e-30
1.47855e-30
-1.05451e-30
)
;

boundaryField
{
    back
    {
        type            empty;
        value           nonuniform List<scalar> 0();
    }
    front
    {
        type            empty;
        value           nonuniform List<scalar> 0();
    }
    left
    {
        type            calculated;
        value           uniform 0;
    }
    top
    {
        type            calculated;
        value           uniform 0;
    }
    right
    {
        type            calculated;
        value           uniform 0;
    }
    bottom
    {
        type            calculated;
        value           nonuniform List<scalar> 8(-8.91488e-28 -3.46156e-28 6.62832e-28 -5.55282e-28 -7.7345e-28 5.26928e-28 7.98497e-28 2.04623e-28);
    }
}


// ************************************************************************* //
