/*--------------------------------*- C++ -*----------------------------------*\
  =========                 |
  \\      /  F ield         | OpenFOAM: The Open Source CFD Toolbox
   \\    /   O peration     | Website:  https://openfoam.org
    \\  /    A nd           | Version:  9
     \\/     M anipulation  |
\*---------------------------------------------------------------------------*/
FoamFile
{
    format      ascii;
    class       volVectorField;
    location    "0.96";
    object      U;
}
// * * * * * * * * * * * * * * * * * * * * * * * * * * * * * * * * * * * * * //

dimensions      [0 1 -1 0 0 0 0];

internalField   nonuniform List<vector> 
464
(
(-1.67394e-20 -7.29473e-21 4.75853e-40)
(-1.08241e-20 2.30237e-20 0)
(1.02413e-24 9.80075e-24 0)
(-3.72492e-23 1.8388e-22 5.49671e-38)
(-7.85672e-21 1.83702e-20 0)
(-4.69369e-24 2.55091e-23 -1.38254e-38)
(-1.56832e-20 -3.0304e-21 3.78945e-39)
(-3.60176e-25 1.71072e-22 0)
(-1.95759e-20 2.37119e-21 -5.7642e-40)
(-1.84857e-20 7.3859e-21 -1.29205e-38)
(-1.32593e-20 -1.00797e-20 4.64822e-40)
(-5.58142e-21 -4.60753e-21 -2.05356e-40)
(-1.72318e-20 2.6686e-22 -1.07896e-38)
(-4.08273e-21 -5.67288e-21 0)
(4.10667e-22 7.45909e-21 -6.11656e-39)
(4.69192e-22 5.89988e-21 1.39873e-38)
(1.74587e-21 1.5346e-21 0)
(1.81989e-21 9.45243e-22 -4.12748e-38)
(-2.40236e-23 4.51696e-23 -4.23735e-38)
(-7.44791e-23 3.56234e-22 4.72781e-38)
(-1.40661e-22 2.47432e-22 -6.97228e-38)
(-2.08935e-22 4.03299e-22 1.21452e-38)
(-2.28939e-22 4.30826e-22 -6.45002e-39)
(-2.50446e-23 2.44527e-22 0)
(-3.88551e-23 1.35664e-22 -5.64542e-38)
(-4.1602e-23 2.70584e-22 2.58628e-38)
(-9.44151e-22 3.39858e-21 -1.38267e-38)
(2.01039e-24 2.8135e-22 -5.50721e-38)
(-1.95773e-21 5.0126e-21 0)
(-1.05168e-22 3.59029e-22 0)
(-9.16747e-23 3.54651e-22 3.18035e-39)
(2.07313e-21 6.20631e-21 1.91918e-40)
(1.26175e-21 7.15808e-21 -6.06371e-40)
(2.01473e-21 4.61511e-21 -3.04485e-38)
(1.60354e-21 3.9914e-21 3.0687e-38)
(1.73351e-22 7.17319e-22 3.00602e-38)
(1.48116e-21 1.02118e-21 -2.19807e-38)
(1.05149e-23 9.74337e-23 -6.59383e-39)
(3.39009e-23 2.9447e-22 3.38702e-40)
(4.93256e-22 6.54867e-21 0)
(-1.65021e-22 2.78995e-22 7.30831e-38)
(-2.13221e-22 3.186e-22 0)
(-2.30504e-22 4.13423e-22 -1.71972e-38)
(-2.11154e-21 1.59939e-21 -7.69194e-39)
(-4.35467e-21 -4.21617e-22 7.6907e-39)
(1.43099e-21 6.48109e-21 4.77089e-40)
(-1.36014e-22 7.54293e-22 5.08994e-38)
(-4.80779e-23 7.71089e-22 -6.49005e-40)
(-4.91191e-24 1.30735e-22 0)
(2.05846e-23 1.90842e-22 6.38405e-39)
(-1.11123e-22 2.17041e-22 -5.26542e-38)
(-7.58155e-24 4.35277e-22 -3.31314e-39)
(-1.0112e-22 9.39876e-24 -3.01715e-38)
(-2.88046e-22 1.23544e-21 -4.6132e-38)
(-2.0242e-22 1.3921e-21 -1.49779e-39)
(-4.78394e-23 5.67413e-22 5.217e-38)
(-9.68677e-23 6.36812e-22 0)
(5.06114e-22 1.31014e-21 0)
(2.98267e-22 1.53256e-21 -3.96546e-38)
(-2.87395e-22 1.66406e-22 0)
(-2.75896e-24 1.9891e-22 5.43739e-38)
(-8.57516e-21 5.53148e-21 4.83048e-38)
(1.21568e-21 1.09933e-21 7.43903e-38)
(-7.79858e-23 1.3429e-21 -4.56664e-38)
(-1.50966e-20 6.86103e-21 -3.08147e-39)
(-3.13511e-22 1.07191e-21 -4.88364e-38)
(1.03123e-21 3.77198e-22 -3.20928e-38)
(-1.00023e-24 2.70601e-22 -4.96529e-38)
(-9.58689e-21 -6.924e-21 -2.12388e-39)
(-1.33793e-22 1.49834e-21 4.62772e-38)
(4.52103e-22 1.43621e-21 3.95724e-38)
(-1.19692e-20 8.48181e-21 -2.45218e-38)
(-1.08675e-21 6.50479e-21 0)
(-8.69102e-23 7.67081e-22 5.1897e-38)
(5.47686e-22 -4.74971e-21 -2.56749e-38)
(2.93717e-24 4.32419e-22 5.44313e-38)
(1.15772e-21 6.94516e-22 -3.50536e-38)
(-1.91327e-20 -6.85938e-21 -4.86475e-39)
(3.14952e-22 1.35539e-21 -4.29114e-38)
(-4.31509e-22 5.5333e-21 -7.82229e-39)
(-7.41435e-21 1.18759e-20 0)
(-2.2518e-23 1.42797e-22 1.32411e-38)
(-1.61862e-21 3.95083e-21 -5.28565e-38)
(-2.23348e-23 1.00795e-22 5.57341e-38)
(-4.3256e-21 7.08892e-21 0)
(1.09225e-21 1.15355e-21 2.25349e-39)
(-8.4304e-21 2.89785e-21 -2.40298e-38)
(-4.21463e-23 1.7821e-22 0)
(-5.31741e-23 3.5038e-22 0)
(7.09383e-22 -4.62274e-21 -2.4507e-38)
(-5.18685e-21 4.81792e-21 3.22593e-38)
(-1.13683e-20 1.26919e-20 0)
(2.03009e-21 -9.46469e-22 3.07222e-38)
(-7.74838e-21 -1.37061e-20 -2.28494e-38)
(1.73645e-21 -1.72316e-21 -3.01935e-38)
(1.76189e-21 9.39303e-22 -3.46709e-38)
(1.05857e-22 1.42156e-21 4.3011e-38)
(-4.52294e-24 1.80643e-22 -1.21438e-38)
(-1.00951e-22 -2.52485e-21 -3.37781e-38)
(-1.48094e-20 1.72862e-21 5.56301e-39)
(-7.74054e-23 3.49376e-22 0)
(-9.92277e-23 9.52935e-22 2.58639e-39)
(-1.06562e-22 3.89607e-22 0)
(2.02457e-21 5.60229e-21 -1.87795e-40)
(1.79352e-21 5.47489e-21 0)
(-1.10671e-21 3.44223e-21 -4.04772e-38)
(-6.7385e-24 3.64805e-23 0)
(1.64142e-21 1.45974e-23 3.14653e-38)
(-2.72622e-21 1.65594e-21 -3.22939e-38)
(-2.22458e-22 1.15252e-21 0)
(1.82987e-21 -2.98729e-21 0)
(-1.34936e-22 8.43445e-22 -5.19608e-38)
(1.43887e-21 -5.46411e-22 0)
(-5.50749e-22 -3.77761e-21 2.6772e-38)
(-6.83372e-23 4.16903e-22 1.7295e-39)
(-1.25647e-22 4.49854e-22 -8.56162e-40)
(-8.77008e-22 4.60299e-22 4.5217e-38)
(-3.8034e-23 1.82649e-22 5.76709e-38)
(-1.66398e-22 -1.25993e-21 2.71799e-38)
(-5.44552e-23 2.59458e-22 -3.29165e-39)
(-1.54962e-22 1.04689e-21 4.81246e-38)
(-1.21054e-20 1.3721e-21 -3.7949e-41)
(-1.07346e-20 2.64109e-21 1.78576e-38)
(-1.23784e-20 -2.07691e-21 -3.49225e-39)
(6.71452e-22 1.18298e-21 0)
(2.00878e-21 -3.15595e-21 2.70053e-38)
(-9.17441e-21 1.25088e-21 -1.80132e-38)
(1.18574e-21 -2.92196e-21 0)
(2.11324e-21 3.36337e-21 0)
(-6.69556e-22 1.01249e-21 4.09476e-38)
(-2.76769e-23 8.74596e-23 -4.32847e-38)
(-1.12602e-21 -3.22854e-22 -3.8816e-38)
(9.57518e-25 6.8929e-23 -4.44816e-38)
(-1.70629e-22 4.8673e-22 0)
(-7.98108e-23 3.20225e-22 0)
(-3.80925e-22 -5.12381e-22 -3.58597e-38)
(-1.72979e-23 1.10977e-22 -8.53632e-38)
(-2.30021e-23 3.36876e-22 -5.51932e-38)
(-1.3937e-20 3.86736e-21 1.63095e-38)
(-7.22538e-23 8.50868e-23 3.94546e-38)
(-5.15402e-23 2.36415e-22 0)
(2.21155e-21 -2.01997e-21 0)
(2.11117e-22 1.3471e-21 9.61299e-40)
(-1.21934e-22 4.79208e-22 5.4198e-38)
(-2.7388e-23 1.91897e-22 5.1892e-38)
(1.67885e-22 -4.40468e-21 -2.59325e-38)
(-2.06216e-22 5.50485e-22 0)
(-6.54113e-23 2.60357e-22 0)
(-1.47416e-22 1.36737e-21 -1.13579e-39)
(1.60984e-24 1.94343e-22 -9.38194e-38)
(-2.53575e-22 5.64659e-22 1.61597e-39)
(-1.74411e-22 4.54499e-22 5.10974e-38)
(-2.88603e-21 4.52447e-21 -1.59276e-38)
(1.54063e-21 -4.02407e-21 -2.71251e-38)
(-4.82324e-22 -1.5722e-21 -3.47833e-41)
(-3.86859e-23 2.33262e-22 -5.4642e-38)
(2.45227e-22 1.66721e-21 0)
(-2.90414e-22 6.76032e-22 0)
(-9.92234e-21 1.53503e-21 -1.10691e-38)
(-3.20009e-21 -9.07606e-23 3.16511e-38)
(-1.64522e-21 1.45491e-21 0)
(-3.40772e-22 6.30935e-22 -5.20094e-38)
(5.61522e-22 -4.05338e-21 5.20793e-38)
(-1.51721e-22 1.41322e-23 2.08612e-39)
(5.19119e-23 1.55297e-22 4.38825e-38)
(-2.71304e-23 1.13273e-22 0)
(-2.68801e-22 2.68756e-21 -2.0928e-38)
(-1.50043e-22 4.5558e-23 5.36978e-38)
(9.13642e-22 5.74453e-21 1.93139e-38)
(1.63798e-22 -1.17231e-21 3.7628e-38)
(2.96813e-22 -1.86337e-21 -1.14124e-40)
(-5.43382e-21 4.31259e-22 -2.34754e-38)
(1.48392e-22 -2.81682e-21 -2.04166e-39)
(-1.47306e-22 3.52996e-22 -1.20665e-38)
(2.51852e-22 -2.50149e-21 1.01536e-39)
(7.03404e-22 -2.04405e-21 -2.98677e-38)
(-3.38809e-22 7.62545e-22 5.16402e-38)
(-3.67947e-22 6.78474e-22 -1.92521e-40)
(-4.35387e-21 4.70902e-21 -3.16572e-39)
(1.56418e-22 2.64166e-21 8.5927e-39)
(-3.17206e-22 5.44872e-22 4.74353e-38)
(4.39643e-22 -1.53609e-23 3.42116e-38)
(7.62895e-22 1.23432e-21 0)
(6.30222e-22 1.99607e-21 -1.32496e-37)
(4.03041e-22 2.86856e-21 -3.18029e-38)
(3.08729e-23 2.56959e-21 -3.62855e-40)
(1.83994e-22 1.20346e-22 0)
(1.67671e-22 -6.1752e-23 -2.22234e-38)
(1.0716e-22 -1.49608e-21 -4.0877e-38)
(3.05723e-22 -1.1695e-21 4.9941e-41)
(-1.13338e-22 1.18798e-21 -4.77429e-41)
(2.24774e-22 -4.31219e-22 2.77994e-38)
(-2.11581e-23 3.01099e-22 -8.14907e-38)
(-6.89921e-23 9.66654e-22 -5.13972e-38)
(1.60458e-22 1.60649e-21 4.12712e-41)
(6.49285e-23 1.51403e-21 -4.1402e-41)
(-3.51961e-22 3.38142e-22 -4.93737e-38)
(-1.79568e-22 1.29082e-21 4.72351e-41)
(5.79506e-22 1.21572e-21 -1.98414e-38)
(-9.40609e-23 1.38591e-21 4.68299e-38)
(-7.6773e-23 1.16988e-21 0)
(-8.15123e-24 1.38125e-21 0)
(-3.16234e-23 7.24847e-22 0)
(-3.36272e-23 1.51261e-21 4.37589e-41)
(1.75944e-22 -3.68618e-22 0)
(-3.72458e-23 5.9675e-22 1.59353e-39)
(-1.19537e-23 4.40624e-22 0)
(-1.22791e-23 4.88284e-22 -3.67272e-38)
(-4.64456e-24 8.85451e-22 4.32525e-38)
(-1.73475e-24 -1.53158e-21 2.28046e-38)
(-3.35829e-23 1.30797e-22 4.043e-38)
(1.18432e-22 2.4372e-22 0)
(-1.16446e-23 1.82664e-22 4.26144e-38)
(7.5917e-22 -6.92549e-24 -2.42688e-38)
(-2.32211e-22 6.24951e-23 0)
(1.90475e-22 -7.97045e-22 -1.86313e-38)
(3.12257e-22 2.10478e-21 4.31274e-38)
(-2.21334e-23 3.80425e-22 3.98399e-38)
(-3.67293e-22 2.30198e-21 3.36737e-38)
(1.53545e-24 5.11816e-22 -3.46074e-38)
(1.59996e-21 3.39058e-22 1.00797e-37)
(-3.0328e-23 8.30326e-22 4.59339e-38)
(-4.90229e-23 1.32274e-21 -4.68863e-38)
(-2.57627e-22 1.20168e-21 9.42934e-38)
(-3.69524e-22 8.58127e-22 4.7998e-38)
(-3.16735e-22 7.30556e-22 -4.56101e-38)
(-3.12579e-22 9.38372e-22 0)
(1.94343e-22 5.24033e-22 1.98621e-38)
(-1.20241e-22 8.27671e-22 -1.27815e-39)
(-9.91555e-23 9.72498e-22 -4.72332e-38)
(1.81778e-22 1.04371e-21 4.6816e-38)
(1.77107e-22 5.08773e-22 -5.71069e-39)
(4.24956e-22 9.36669e-22 0)
(7.67476e-22 1.33424e-21 -4.10003e-38)
(-8.06615e-23 3.47734e-22 5.03783e-38)
(2.7123e-22 1.08932e-21 0)
(7.60855e-22 5.08547e-22 -7.11019e-39)
(6.89155e-22 1.16217e-21 -6.52174e-39)
(6.27482e-22 9.67673e-22 4.69114e-38)
(1.10724e-21 1.54249e-21 -9.35174e-39)
(7.86661e-22 1.0518e-21 -4.77804e-38)
(4.40266e-22 1.73932e-21 -3.29702e-38)
(4.48446e-22 3.98292e-22 4.63784e-38)
(9.70954e-22 9.59564e-22 0)
(1.17364e-21 9.89178e-22 0)
(4.67841e-22 9.35562e-22 -1.94819e-38)
(1.78175e-21 1.32211e-21 -1.46733e-39)
(-4.17103e-24 -1.61285e-22 0)
(1.93593e-21 1.78054e-21 0)
(-4.6901e-23 1.07089e-22 0)
(1.08315e-21 1.67753e-21 -6.13149e-38)
(1.40224e-21 2.24721e-21 5.82922e-38)
(2.36308e-21 3.5902e-22 -2.87775e-38)
(1.38184e-21 -3.96708e-21 2.45827e-38)
(1.77365e-21 1.25206e-21 0)
(2.17646e-21 1.88258e-21 0)
(-2.59534e-22 7.69846e-22 0)
(-2.68897e-22 -2.04643e-23 -2.165e-38)
(3.07098e-21 1.20728e-21 -4.7319e-38)
(2.71827e-21 3.73027e-21 0)
(2.91589e-21 1.87372e-21 4.52649e-38)
(2.96902e-21 -6.3781e-22 5.08611e-38)
(3.35933e-21 1.36048e-21 2.42455e-38)
(9.7254e-22 6.2866e-21 -2.14169e-38)
(3.38794e-21 1.73012e-21 -2.42461e-38)
(-4.30799e-22 5.15341e-21 3.76256e-38)
(3.35604e-21 1.25234e-21 -5.05002e-41)
(-5.51621e-23 4.13795e-22 -1.69045e-39)
(-6.8469e-23 7.85122e-21 4.62329e-40)
(1.42083e-21 5.14749e-21 2.17071e-38)
(-9.41677e-23 3.23595e-22 -4.72173e-38)
(2.9209e-21 2.30292e-21 0)
(9.35242e-22 1.37699e-21 2.06173e-38)
(7.39976e-22 7.34683e-21 -1.86683e-39)
(-1.07833e-20 4.04756e-22 -2.37243e-39)
(2.54999e-21 1.21443e-21 0)
(1.72434e-21 2.46901e-21 0)
(4.93794e-23 1.3295e-21 -4.1168e-38)
(3.72285e-23 4.75008e-22 0)
(-2.67284e-22 -4.57341e-21 -1.06503e-39)
(9.61942e-22 -1.28237e-21 1.61092e-40)
(-1.35116e-22 5.45206e-22 -5.48446e-40)
(2.00529e-23 8.8268e-22 0)
(-5.57033e-23 5.8703e-22 -5.33381e-38)
(-6.61708e-22 7.31756e-21 4.83076e-39)
(-4.72037e-23 -2.37863e-21 -2.00176e-38)
(5.14105e-23 7.79233e-22 -3.65882e-38)
(-6.44209e-21 -2.98311e-23 0)
(-8.18312e-23 5.50136e-22 0)
(-1.44348e-21 -1.04578e-21 2.04253e-38)
(-2.77764e-21 -1.72163e-21 8.4135e-41)
(-4.92788e-21 -3.22799e-22 -1.63603e-40)
(-2.10448e-22 7.21039e-22 -5.24164e-38)
(-3.07404e-22 1.06819e-21 1.00628e-37)
(2.43671e-21 3.26052e-22 2.94318e-38)
(1.63369e-22 1.10783e-21 7.96918e-38)
(1.02468e-22 5.11619e-22 0)
(1.12088e-21 -1.68895e-21 -2.14595e-39)
(8.55607e-22 -5.45396e-22 -3.42884e-38)
(-4.96686e-21 -1.03049e-21 2.32758e-38)
(-1.39866e-21 6.16478e-21 -2.36847e-38)
(-3.27659e-21 2.37674e-21 -1.79515e-38)
(-5.78766e-21 2.32887e-21 1.46489e-38)
(-4.63987e-21 -9.77474e-21 2.98827e-38)
(2.98887e-22 5.37276e-22 1.83433e-38)
(2.79096e-21 -2.16395e-22 -2.56915e-38)
(2.80325e-21 -1.06872e-21 -4.93433e-38)
(4.279e-22 8.93967e-22 6.03512e-39)
(-1.53686e-21 -1.8736e-21 -6.17691e-38)
(7.43887e-22 -3.16725e-21 -2.67384e-38)
(-1.39202e-22 1.54308e-21 -4.62872e-38)
(-1.9175e-22 6.05303e-22 -3.76155e-40)
(1.94551e-21 8.00849e-22 0)
(-7.33028e-21 1.92743e-21 -3.4778e-39)
(2.64085e-21 -1.77514e-21 -5.14784e-38)
(1.70738e-21 -2.32788e-21 0)
(6.29544e-23 3.88402e-22 2.89645e-38)
(-2.6949e-21 -2.72291e-21 0)
(-5.99791e-24 1.28737e-22 0)
(-6.4199e-21 3.03722e-21 3.16604e-39)
(-1.38404e-22 3.78852e-22 4.13743e-38)
(6.80006e-22 3.83401e-22 -1.3567e-40)
(-1.54243e-21 -3.13791e-21 3.05108e-38)
(6.58937e-22 -9.74279e-22 3.196e-38)
(-5.28853e-21 1.47013e-21 3.41238e-38)
(-2.48156e-23 4.62681e-22 -4.95059e-40)
(-2.54298e-23 3.58706e-22 -5.14399e-38)
(-7.96792e-21 2.17742e-21 6.21216e-39)
(-3.86431e-23 4.78094e-22 0)
(-2.09628e-21 -3.20501e-21 -2.21356e-38)
(-2.52407e-22 3.16514e-22 -2.44186e-38)
(-2.03094e-20 8.93726e-21 -7.5167e-39)
(-6.54329e-24 8.70389e-24 -2.21975e-38)
(3.15118e-21 -3.09884e-22 4.91593e-38)
(-4.56369e-23 1.61222e-21 -4.35426e-41)
(-3.10805e-22 8.95711e-22 -5.01605e-38)
(-1.73366e-22 4.15247e-22 -3.80017e-38)
(-3.97928e-24 1.39541e-23 -4.39584e-38)
(1.00623e-21 -4.08067e-21 3.24022e-40)
(-1.61349e-22 3.5626e-22 5.28296e-38)
(-1.37116e-23 -8.22974e-24 2.2942e-38)
(-1.68402e-20 -1.70274e-20 0)
(3.26204e-23 -4.08724e-21 -3.42932e-40)
(-6.75638e-22 -4.29942e-21 2.19613e-38)
(2.38068e-21 -1.07307e-21 2.52221e-38)
(-3.00132e-23 2.61985e-22 2.74516e-38)
(-1.6634e-23 2.19642e-22 8.30507e-38)
(7.3094e-22 1.0337e-21 3.49516e-38)
(-7.71302e-24 5.09435e-23 5.38078e-38)
(5.20118e-23 1.58833e-21 0)
(-2.63848e-22 8.89341e-22 -1.61457e-39)
(-2.95633e-24 4.69493e-23 -2.60945e-38)
(2.82986e-22 6.61713e-22 0)
(3.95692e-22 9.74866e-22 -3.88243e-38)
(-1.88414e-22 9.60938e-22 -4.99357e-38)
(-3.66687e-21 1.49123e-20 4.75073e-38)
(7.32153e-24 9.97929e-24 0)
(-1.03621e-21 6.30212e-21 -2.5653e-38)
(8.02469e-24 1.11179e-23 -2.05495e-38)
(-1.38271e-20 2.01904e-20 0)
(1.20577e-23 3.47688e-23 -2.98991e-38)
(-2.06364e-20 -2.982e-22 5.92369e-39)
(-7.4707e-24 8.09523e-23 1.47818e-38)
(-6.03995e-21 1.36398e-20 0)
(-1.2234e-20 -1.38501e-20 7.09822e-40)
(3.32902e-24 2.48536e-23 5.81332e-38)
(-3.02369e-23 2.84628e-22 0)
(7.33626e-22 3.58815e-21 0)
(-1.4866e-21 -2.13841e-21 0)
(-7.33669e-23 3.15879e-22 2.8798e-38)
(2.73957e-23 4.72692e-23 0)
(-1.25703e-21 1.08559e-21 8.35265e-38)
(-1.61676e-21 6.97991e-21 -3.13207e-40)
(3.00569e-21 2.69942e-21 0)
(-7.53119e-22 2.57721e-21 1.67726e-38)
(-5.25741e-23 2.61523e-22 0)
(-6.312e-21 2.36352e-22 -8.23926e-39)
(-1.78358e-22 3.41956e-22 7.9338e-38)
(2.6827e-22 3.97874e-21 -5.60036e-38)
(-9.33266e-23 3.47033e-22 1.49295e-38)
(4.03795e-22 3.38165e-21 0)
(1.19693e-21 5.35164e-21 -2.05001e-38)
(1.74598e-21 4.28287e-21 0)
(2.86493e-21 4.49377e-21 -1.59871e-38)
(1.71562e-21 3.84838e-21 3.62984e-39)
(2.08502e-21 5.19347e-21 0)
(2.71423e-21 3.8014e-21 -2.7871e-38)
(-2.33921e-23 2.52442e-22 -2.98719e-38)
(7.64698e-22 3.63805e-22 0)
(2.75234e-22 1.2336e-21 0)
(3.08211e-22 2.6774e-22 -1.93121e-38)
(6.43952e-22 5.57738e-22 0)
(-4.04738e-22 2.2714e-22 2.52784e-38)
(4.92824e-23 5.21997e-23 4.61907e-38)
(6.72977e-24 6.13491e-22 -2.33262e-38)
(-3.09509e-22 4.78783e-22 -5.04104e-38)
(-2.77706e-22 4.66014e-22 0)
(-2.06456e-22 4.55768e-22 -1.08479e-37)
(-2.34176e-22 2.15438e-22 0)
(-3.70853e-21 4.34999e-21 -7.67631e-39)
(-1.69389e-20 2.03048e-20 0)
(6.68023e-24 1.35635e-23 0)
(-1.44127e-20 -1.78106e-20 0)
(1.53013e-23 -2.68025e-24 -2.23017e-38)
(-2.09307e-20 1.69689e-21 7.31048e-39)
(-1.89684e-20 -1.06988e-20 0)
(-1.24673e-21 -5.93963e-21 0)
(2.4558e-24 5.06588e-24 4.2597e-38)
(-3.96842e-21 -1.38358e-20 0)
(4.03103e-25 -1.38655e-23 -5.47636e-38)
(-1.83049e-20 1.12791e-20 4.445e-39)
(3.7079e-25 2.0414e-22 2.91009e-38)
(-2.77537e-24 1.09697e-22 0)
(-1.06456e-22 3.60002e-22 2.72882e-38)
(-1.57324e-23 1.63118e-22 0)
(-1.43255e-20 1.51314e-20 0)
(-6.97771e-22 -1.70852e-21 0)
(3.06542e-24 1.5053e-22 1.7118e-39)
(-1.25219e-25 1.13874e-22 2.68991e-38)
(-1.93175e-20 1.31231e-20 -4.41215e-39)
(3.5556e-24 1.19645e-22 3.07537e-38)
(-4.81785e-24 4.08846e-23 3.22051e-38)
(-9.54032e-21 -2.5835e-21 2.2761e-39)
(-4.96132e-22 8.57294e-22 -4.74068e-38)
(-1.09232e-20 -2.1063e-20 -2.28052e-38)
(-2.93751e-21 5.32245e-21 -3.46034e-39)
(2.3375e-22 1.71441e-21 3.44789e-38)
(1.9133e-22 3.92546e-21 -3.16207e-38)
(5.71733e-22 1.88977e-21 2.28253e-38)
(-2.38526e-21 8.39252e-21 5.89469e-38)
(4.66333e-24 3.84956e-23 3.06188e-38)
(2.62274e-21 4.09154e-21 1.71909e-38)
(1.44878e-21 3.26861e-21 4.08957e-40)
(-5.46414e-23 2.85307e-22 5.35931e-38)
(2.45112e-21 2.41134e-21 9.67572e-38)
(1.1944e-21 3.21935e-22 0)
(1.08599e-21 5.75442e-22 3.75985e-38)
(-1.34644e-22 3.97536e-22 -2.8566e-38)
(5.47987e-22 6.51698e-22 0)
(-4.6519e-23 2.91309e-22 -2.90629e-38)
(2.09409e-23 4.5982e-22 0)
(5.64647e-23 5.3856e-22 -7.64469e-39)
(-8.0359e-23 6.39039e-22 2.23654e-39)
(-2.37478e-22 4.76198e-22 -2.43799e-38)
(-2.55586e-22 5.01539e-22 7.94785e-38)
(-2.31213e-22 5.79888e-22 -1.47031e-39)
(-2.73618e-22 4.69602e-22 -2.92104e-38)
(-1.27689e-22 1.76663e-22 -2.87404e-38)
(-3.26719e-22 5.23744e-22 3.15028e-38)
(-2.5713e-22 2.66924e-22 2.61159e-38)
(1.62414e-21 6.21023e-21 0)
(-2.06423e-20 -5.36141e-21 -1.30713e-39)
(1.14445e-21 7.47753e-21 2.28982e-39)
(-6.8897e-23 3.22736e-22 0)
(1.30317e-22 1.47907e-22 -5.59346e-38)
(2.30735e-21 1.86102e-21 0)
(1.14134e-21 2.40339e-21 -3.72625e-38)
(2.07713e-23 5.80408e-23 -2.8727e-38)
(-1.58552e-23 5.91331e-23 -2.30065e-40)
(1.89358e-23 7.76191e-23 2.44786e-40)
(-1.7906e-23 1.72149e-23 5.05517e-38)
(-1.92304e-21 -6.28052e-21 0)
(-7.50383e-21 -1.70804e-20 7.0844e-39)
(-6.71064e-23 3.16879e-22 -6.7459e-38)
)
;

boundaryField
{
    back
    {
        type            empty;
    }
    front
    {
        type            empty;
    }
    left
    {
        type            noSlip;
    }
    top
    {
        type            uniformFixedValue;
        uniformValue    
        {
            type            scale;
            scale           
            {
                type            squarePulse;
                start           0.3;
                duration        0.3;
            }
            xScale          
            {
                type            constant;
                value           1;
            }
            value           
            {
                type            constant;
                value           (0 -0.7 0);
            }
        }
        value           uniform (0 -0 0);
    }
    right
    {
        type            noSlip;
    }
    bottom
    {
        type            zeroGradient;
    }
}


// ************************************************************************* //
