/*--------------------------------*- C++ -*----------------------------------*\
  =========                 |
  \\      /  F ield         | OpenFOAM: The Open Source CFD Toolbox
   \\    /   O peration     | Website:  https://openfoam.org
    \\  /    A nd           | Version:  9
     \\/     M anipulation  |
\*---------------------------------------------------------------------------*/
FoamFile
{
    format      ascii;
    class       volVectorField;
    location    "0.43";
    object      U;
}
// * * * * * * * * * * * * * * * * * * * * * * * * * * * * * * * * * * * * * //

dimensions      [0 1 -1 0 0 0 0];

internalField   nonuniform List<vector> 
90
(
(0.690815 0.156495 -5.70753e-16)
(0.162271 0.761878 6.05085e-16)
(0.506769 0.699441 2.41554e-16)
(0.429024 0.687361 -2.40862e-16)
(0.192823 0.391093 -3.00907e-16)
(0.0222161 0.529475 -5.49931e-16)
(0.682253 0.119109 6.35586e-16)
(0.863541 0.380353 3.80638e-16)
(0.317821 0.735636 0)
(0.861215 0.33893 0)
(0.609438 0.198313 1.82987e-16)
(0.208909 0.650857 -3.14942e-16)
(0.374812 0.103488 8.85143e-17)
(0.109671 0.483759 2.46149e-16)
(0.320112 0.719196 0)
(0.265554 0.573457 0)
(0.361888 0.530308 6.27384e-16)
(0.547096 0.645838 -1.26775e-16)
(0.380813 0.751185 0)
(0.207867 0.784754 3.53246e-16)
(0.353168 0.205814 4.1078e-16)
(0.240368 0.395775 3.2804e-16)
(0.82338 0.42001 1.81891e-16)
(0.147616 0.792413 -3.21759e-16)
(0.788202 0.399727 -3.45297e-16)
(0.70049 0.347105 -2.61752e-16)
(0.52686 0.234365 -3.55974e-16)
(0.407858 0.504614 1.55149e-16)
(0.4725 0.513481 0)
(0.847836 0.315725 -2.82399e-16)
(0.878117 0.390455 1.84298e-16)
(0.331463 0.143781 3.41376e-16)
(0.571242 0.377735 9.39453e-17)
(0.82288 0.487189 -4.135e-16)
(0.72653 0.512688 1.16718e-16)
(0.123559 0.352231 -1.92195e-16)
(0.220986 0.154671 0)
(0.232488 0.309932 0)
(0.310902 0.270439 -1.71151e-16)
(0.138949 0.450541 8.77468e-17)
(0.341703 0.635177 -2.86013e-16)
(0.392905 0.746547 -4.2024e-16)
(0.71621 0.600734 3.44084e-17)
(0.930078 0.249234 -1.44311e-16)
(0.782118 0.241668 -1.64217e-16)
(0.13259 0.730067 -1.75311e-16)
(0.0400637 0.70024 2.89478e-16)
(0.636751 0.658637 1.54763e-16)
(0.490474 0.742058 -2.75067e-16)
(0.24246 0.736211 -4.65057e-17)
(0.182485 0.722808 0)
(0.055281 0.474158 -2.66919e-16)
(0.768059 0.531396 -4.87214e-18)
(0.487523 0.473343 0)
(0.0317083 0.73794 4.35388e-16)
(0.688172 0.458151 -1.4448e-18)
(1.01357 0.263713 1.34491e-16)
(0.0306206 0.696802 0)
(0.608884 0.200652 0)
(0.489632 0.228821 -3.86028e-16)
(0.327473 0.781107 2.49266e-16)
(0.388587 0.230836 0)
(0.19404 0.114739 -4.65901e-16)
(0.640362 0.680062 -8.32767e-17)
(0.545661 0.68902 2.16455e-16)
(0.179093 0.164016 4.35381e-16)
(0.221681 0.741287 0)
(0.170705 0.722593 0)
(0.329471 0.378475 -2.54682e-17)
(0.304724 0.277971 2.91698e-16)
(0.667742 0.610341 0)
(0.664123 0.232565 1.83126e-16)
(0.739612 0.587737 0)
(0.366212 0.275948 5.35596e-16)
(0.470325 0.45463 -2.03056e-16)
(0.0360803 0.757888 -1.77654e-16)
(0.174718 0.0352355 -2.48419e-16)
(0.630359 0.61792 0)
(0.839417 0.500456 3.29875e-16)
(0.317236 0.0856639 3.18104e-16)
(0.148803 0.157755 -4.6287e-16)
(0.932168 0.308075 -1.26568e-19)
(0.0805978 0.689594 -4.13875e-16)
(0.590592 0.51213 1.79534e-16)
(0.623196 0.388829 -9.04095e-17)
(0.207412 0.746886 1.85937e-16)
(0.914956 0.325144 1.50868e-16)
(0.926355 0.309355 1.78071e-19)
(0.567151 0.448335 -5.4093e-16)
(0.441767 0.159688 -1.90787e-16)
)
;

boundaryField
{
    back
    {
        type            empty;
    }
    front
    {
        type            empty;
    }
    bottom
    {
        type            uniformFixedValue;
        uniformValue    
        {
            type            scale;
            scale           
            {
                type            squarePulse;
                start           0.3;
                duration        0.3;
            }
            xScale          
            {
                type            constant;
                value           1;
            }
            value           
            {
                type            constant;
                value           (0 0.7 0);
            }
        }
        value           uniform (0 0.7 0);
    }
    outer_arc
    {
        type            noSlip;
    }
    right
    {
        type            zeroGradient;
    }
    inner_arc
    {
        type            noSlip;
    }
}


// ************************************************************************* //
