/*--------------------------------*- C++ -*----------------------------------*\
  =========                 |
  \\      /  F ield         | OpenFOAM: The Open Source CFD Toolbox
   \\    /   O peration     | Website:  https://openfoam.org
    \\  /    A nd           | Version:  9
     \\/     M anipulation  |
\*---------------------------------------------------------------------------*/
FoamFile
{
    format      ascii;
    class       volScalarField;
    location    "0.65";
    object      p;
}
// * * * * * * * * * * * * * * * * * * * * * * * * * * * * * * * * * * * * * //

dimensions      [0 2 -2 0 0 0 0];

internalField   nonuniform List<scalar> 
90
(
-1.52349e-13
3.64617e-14
-1.5555e-14
-1.46223e-15
4.35841e-14
3.59644e-14
-1.40539e-13
-1.44777e-15
-6.61347e-15
3.65141e-14
-1.28038e-13
6.529e-14
-1.17608e-13
5.178e-14
4.44265e-14
5.46263e-14
5.95983e-14
4.30344e-15
-2.52609e-14
-6.33223e-14
1.81996e-13
-1.00875e-14
-3.72768e-14
-3.05467e-14
6.47523e-14
-8.54129e-14
1.42833e-13
3.75245e-14
-6.22542e-15
-5.35329e-14
-1.10145e-14
-1.14687e-13
1.30401e-13
1.86097e-14
7.01544e-14
6.44038e-14
-9.28199e-14
4.35905e-14
9.02263e-14
-1.12911e-13
-8.22611e-14
-4.93447e-14
1.05163e-14
-9.19498e-14
3.45585e-15
9.21536e-15
-2.04896e-14
1.04764e-14
-1.69337e-14
2.82725e-14
-1.06743e-13
-8.86303e-14
-2.12321e-14
1.30977e-14
-7.70781e-14
-5.03549e-14
-2.42081e-14
-9.24409e-15
8.54985e-14
-1.25227e-13
-1.29503e-14
-1.19267e-13
-1.36896e-13
6.76234e-15
-9.57339e-15
-7.46982e-14
-3.47478e-14
-8.05607e-15
5.64166e-15
-2.82314e-14
-1.59992e-14
7.24278e-14
9.89055e-15
-8.4178e-14
-2.25554e-14
-3.61058e-14
1.70331e-13
3.28252e-14
6.20932e-15
3.63087e-14
3.52098e-15
-2.89487e-14
-2.81592e-14
-3.26075e-14
-7.01043e-14
5.92196e-15
-1.03291e-15
-2.75172e-14
-4.42531e-14
1.56594e-13
)
;

boundaryField
{
    back
    {
        type            empty;
    }
    front
    {
        type            empty;
    }
    bottom
    {
        type            zeroGradient;
    }
    outer_arc
    {
        type            zeroGradient;
    }
    right
    {
        type            uniformFixedValue;
        uniformValue    
        {
            type            scale;
            scale           
            {
                type            squarePulse;
                start           0.3;
                duration        0.3;
            }
            xScale          
            {
                type            constant;
                value           1;
            }
            value           
            {
                type            constant;
                value           15.1;
            }
        }
        value           uniform 0;
    }
    inner_arc
    {
        type            zeroGradient;
    }
}


// ************************************************************************* //
