/*--------------------------------*- C++ -*----------------------------------*\
  =========                 |
  \\      /  F ield         | OpenFOAM: The Open Source CFD Toolbox
   \\    /   O peration     | Website:  https://openfoam.org
    \\  /    A nd           | Version:  9
     \\/     M anipulation  |
\*---------------------------------------------------------------------------*/
FoamFile
{
    format      ascii;
    class       surfaceScalarField;
    location    "0.65";
    object      phi;
}
// * * * * * * * * * * * * * * * * * * * * * * * * * * * * * * * * * * * * * //

dimensions      [0 3 -1 0 0 0 0];

internalField   nonuniform List<scalar> 
122
(
-6.70739e-20
3.10378e-20
3.60361e-20
1.92803e-27
4.33504e-21
-4.33504e-21
-3.79304e-20
7.08698e-20
-3.29395e-20
1.42675e-20
-5.21979e-20
-4.53477e-20
4.53477e-20
2.0729e-20
4.47268e-20
-6.54557e-20
2.01983e-20
1.16279e-21
-2.13611e-20
6.17011e-20
-4.09721e-20
-3.10378e-20
3.12565e-20
-2.18654e-22
-4.33505e-21
1.48258e-20
-1.04907e-20
3.0522e-20
-1.03236e-20
-1.48258e-20
5.96152e-20
3.42083e-20
3.66615e-20
-5.10351e-20
4.04442e-20
-2.48043e-20
-1.56399e-20
-2.47576e-20
2.47576e-20
-6.40134e-20
6.40134e-20
-5.13224e-20
2.17083e-20
2.9614e-20
3.40817e-20
6.36252e-21
4.75573e-20
-2.83056e-21
-1.41367e-20
-3.71857e-20
2.27997e-20
-9.12279e-20
2.72144e-20
-3.37741e-20
6.79825e-20
4.37474e-20
-1.24909e-20
-2.18649e-22
-3.52912e-20
6.00488e-20
6.00725e-20
-6.29031e-20
2.47813e-20
3.22559e-20
-3.22559e-20
5.96152e-20
6.00488e-20
-3.08706e-20
3.08706e-20
3.31428e-20
-3.35322e-20
6.6675e-20
-4.23141e-20
6.70954e-20
-2.02692e-20
5.63052e-20
2.48279e-21
-5.37876e-20
-5.05807e-21
7.23029e-22
-1.24288e-20
1.24288e-20
3.34085e-21
3.33207e-20
-6.64716e-20
-2.08144e-20
6.06628e-21
6.06628e-21
-4.07549e-20
7.46589e-21
3.3289e-20
-3.11791e-20
6.06628e-21
1.92851e-20
-6.004e-20
5.09454e-20
-5.05806e-21
-5.60393e-20
5.85221e-20
-1.43553e-20
1.43553e-20
1.79006e-20
3.92572e-20
-3.59163e-20
-3.4692e-20
3.4692e-20
1.27206e-20
-7.37074e-21
2.00913e-20
2.58411e-20
-8.85092e-21
-2.58411e-20
3.48482e-20
-1.52755e-21
5.66178e-21
2.43605e-21
5.91315e-20
2.84615e-20
-2.84615e-20
-2.84219e-21
5.7604e-20
-4.38143e-20
)
;

boundaryField
{
    back
    {
        type            empty;
        value           nonuniform List<scalar> 0();
    }
    front
    {
        type            empty;
        value           nonuniform List<scalar> 0();
    }
    bottom
    {
        type            calculated;
        value           uniform 0;
    }
    outer_arc
    {
        type            calculated;
        value           uniform 0;
    }
    right
    {
        type            calculated;
        value           nonuniform List<scalar> 4(-6.70739e-20 5.13048e-20 -7.12146e-20 8.69837e-20);
    }
    inner_arc
    {
        type            calculated;
        value           uniform 0;
    }
}


// ************************************************************************* //
