/*--------------------------------*- C++ -*----------------------------------*\
  =========                 |
  \\      /  F ield         | OpenFOAM: The Open Source CFD Toolbox
   \\    /   O peration     | Website:  https://openfoam.org
    \\  /    A nd           | Version:  9
     \\/     M anipulation  |
\*---------------------------------------------------------------------------*/
FoamFile
{
    format      ascii;
    class       volVectorField;
    location    "0.65";
    object      U;
}
// * * * * * * * * * * * * * * * * * * * * * * * * * * * * * * * * * * * * * //

dimensions      [0 1 -1 0 0 0 0];

internalField   nonuniform List<vector> 
90
(
(-1.63613e-12 -6.05903e-13 1.41841e-29)
(-3.99165e-14 9.2288e-14 3.60279e-30)
(2.81933e-14 1.32311e-12 -4.69485e-31)
(9.36215e-14 1.71763e-12 4.6496e-31)
(1.78423e-13 9.22878e-13 -2.63854e-30)
(-2.41669e-14 2.69246e-14 -2.86232e-30)
(-1.62509e-12 -3.73494e-13 -1.70665e-29)
(7.13235e-13 -1.86451e-12 1.85049e-30)
(-7.28788e-13 9.45939e-13 0)
(9.25498e-13 -1.77761e-12 0)
(-3.99966e-13 -6.4696e-13 -3.28991e-30)
(-1.23901e-13 4.63782e-13 -3.18368e-30)
(-4.79722e-13 -3.56302e-13 -1.46913e-30)
(-8.00545e-14 1.26472e-13 2.19951e-30)
(-3.59163e-13 1.05901e-12 0)
(-1.81877e-14 1.11981e-12 0)
(6.07453e-13 1.6646e-12 5.08077e-30)
(9.80221e-13 1.6817e-12 -2.18624e-31)
(-9.25366e-13 9.58422e-13 0)
(-1.06786e-12 -5.71236e-13 -2.89229e-30)
(-6.01026e-14 -6.49195e-13 9.11389e-30)
(-9.91136e-13 -1.09116e-12 -2.24354e-30)
(8.39792e-13 -1.2226e-12 -3.22011e-30)
(-9.00147e-13 -1.97726e-13 2.80853e-30)
(4.44413e-13 -1.62784e-12 -2.64967e-30)
(9.71506e-13 -5.0501e-13 2.73865e-30)
(5.63139e-13 -9.09205e-13 -8.77237e-30)
(-1.64568e-12 -1.72982e-12 3.23447e-31)
(1.45482e-12 1.87975e-12 0)
(-2.99336e-13 -1.25044e-12 1.90015e-30)
(4.70714e-13 -1.64104e-12 -2.07475e-30)
(3.3682e-14 -3.17579e-13 -5.44815e-30)
(-8.41026e-13 -1.5122e-12 1.03113e-30)
(2.65505e-13 -1.77254e-12 -1.77954e-30)
(-5.14728e-13 -1.75639e-12 1.06931e-30)
(-1.6756e-14 3.92463e-13 -1.52749e-30)
(7.03918e-13 3.28592e-13 0)
(5.98702e-13 1.00443e-12 0)
(-8.74403e-13 -1.03254e-12 -2.61332e-30)
(-6.08694e-13 -6.15899e-13 -1.13967e-30)
(-1.45175e-12 -1.39203e-12 2.60152e-30)
(-1.66268e-12 -1.03453e-12 3.7363e-30)
(-3.81711e-13 -1.59184e-12 2.96454e-31)
(-1.8302e-12 -1.02021e-12 1.58452e-30)
(1.39435e-12 -1.48736e-12 6.24927e-31)
(-1.27708e-13 1.23081e-13 -2.11785e-31)
(-2.23915e-13 4.72215e-15 -1.15731e-30)
(6.73205e-13 6.16e-13 2.5669e-31)
(-1.41195e-12 -5.90657e-13 7.30527e-31)
(-3.64664e-13 6.17699e-13 -3.76846e-31)
(-5.86633e-13 -4.73976e-13 0)
(-1.43833e-13 -9.96115e-14 2.82822e-30)
(1.24765e-12 -6.59656e-13 6.66472e-33)
(-1.55183e-12 -1.81465e-12 0)
(-4.60589e-14 -8.27568e-14 -5.19062e-30)
(1.7485e-12 1.99425e-13 1.11841e-32)
(-1.94372e-12 -1.44585e-12 -1.24935e-30)
(-6.24663e-14 3.41595e-14 0)
(2.20924e-12 -1.11917e-12 0)
(4.80496e-13 -2.47355e-13 7.39038e-30)
(-1.51023e-12 -3.97592e-13 -1.61399e-30)
(9.44172e-13 2.8686e-13 0)
(3.30343e-13 2.14074e-14 6.39753e-30)
(-6.54571e-13 -8.17562e-13 1.53614e-32)
(-1.54693e-12 -1.21371e-12 -1.23431e-30)
(6.91149e-13 5.8198e-13 -3.2312e-30)
(-9.2821e-13 3.43841e-13 0)
(-6.37562e-13 2.89227e-13 0)
(1.08442e-12 1.38766e-12 -1.75565e-32)
(1.07046e-12 1.03055e-12 -8.57131e-31)
(1.31644e-12 6.32951e-13 0)
(1.62139e-12 -1.10423e-12 3.74198e-30)
(9.13127e-13 -4.90836e-13 0)
(1.21786e-12 8.08777e-13 -4.1487e-30)
(1.73354e-12 1.61395e-12 8.65396e-31)
(-3.99757e-13 -1.7202e-13 1.82513e-30)
(7.57134e-13 -8.19908e-14 -2.21507e-30)
(-9.78096e-13 -1.66919e-12 0)
(8.67011e-13 -1.35295e-12 8.04751e-31)
(2.44917e-12 -4.4415e-13 5.18975e-30)
(5.06455e-13 5.29317e-13 -1.43481e-31)
(-5.22343e-14 -1.75491e-12 4.40971e-31)
(-3.56131e-13 1.09498e-13 1.78364e-30)
(1.93068e-12 1.32624e-12 -1.20247e-30)
(1.46091e-12 7.25674e-14 1.3047e-30)
(-4.33837e-13 3.91107e-13 2.48087e-31)
(1.91419e-13 -1.74536e-12 -4.52518e-31)
(-7.49413e-13 -1.4189e-12 -1.43084e-30)
(1.8887e-12 9.41863e-13 5.24129e-30)
(1.08323e-12 -5.7226e-13 -3.62384e-30)
)
;

boundaryField
{
    back
    {
        type            empty;
    }
    front
    {
        type            empty;
    }
    bottom
    {
        type            uniformFixedValue;
        uniformValue    
        {
            type            scale;
            scale           
            {
                type            squarePulse;
                start           0.3;
                duration        0.3;
            }
            xScale          
            {
                type            constant;
                value           1;
            }
            value           
            {
                type            constant;
                value           (0 0.7 0);
            }
        }
        value           uniform (0 0 0);
    }
    outer_arc
    {
        type            noSlip;
    }
    right
    {
        type            zeroGradient;
    }
    inner_arc
    {
        type            noSlip;
    }
}


// ************************************************************************* //
