/*--------------------------------*- C++ -*----------------------------------*\
  =========                 |
  \\      /  F ield         | OpenFOAM: The Open Source CFD Toolbox
   \\    /   O peration     | Website:  https://openfoam.org
    \\  /    A nd           | Version:  9
     \\/     M anipulation  |
\*---------------------------------------------------------------------------*/
FoamFile
{
    format      ascii;
    class       surfaceScalarField;
    location    "2.76";
    object      phi;
}
// * * * * * * * * * * * * * * * * * * * * * * * * * * * * * * * * * * * * * //

dimensions      [0 3 -1 0 0 0 0];

internalField   nonuniform List<scalar> 
1363
(
-5.09188e-07
3.40368e-07
1.6882e-07
2.11645e-07
-1.08475e-07
-1.0317e-07
7.74678e-07
-5.97181e-07
-1.77497e-07
-1.57223e-07
4.65205e-07
-3.07983e-07
7.1187e-07
6.28074e-08
5.34082e-07
6.43226e-08
-5.98404e-07
-9.20736e-08
9.20736e-08
7.31818e-07
-1.97737e-07
-2.93674e-07
3.02883e-07
-9.20873e-09
1.53566e-08
-3.0903e-07
-4.04887e-07
3.91928e-07
1.29594e-08
8.06832e-07
-7.84799e-07
-2.20325e-08
3.39303e-07
-4.96525e-07
-4.43095e-07
4.34857e-07
8.23863e-09
5.27121e-07
2.79711e-07
1.38258e-07
7.33873e-08
6.37645e-08
-2.24486e-07
1.60722e-07
-2.53303e-07
-2.55885e-07
2.60387e-07
-1.3469e-08
-2.46918e-07
-9.42848e-08
9.42848e-08
6.39463e-08
-1.81804e-10
5.88897e-08
-8.43689e-07
-2.01938e-07
1.02313e-08
1.91707e-07
-5.95566e-08
2.57551e-07
-1.97994e-07
-1.66648e-07
-2.3824e-07
2.41023e-07
-3.0058e-07
7.22842e-07
-6.85757e-07
-3.70851e-08
-2.34756e-07
3.28179e-08
-2.37495e-07
3.91051e-07
-1.53555e-07
-9.5732e-09
-3.6087e-07
3.70443e-07
-2.45174e-07
1.1602e-07
1.29153e-07
7.17745e-09
7.15665e-07
9.55121e-08
-3.33008e-07
3.50421e-08
-3.24541e-07
2.89499e-07
6.78856e-07
-6.10702e-07
-6.8154e-08
-1.48559e-07
2.3777e-07
-8.92108e-08
-4.3249e-07
-4.29344e-08
4.75425e-07
3.01748e-07
-1.31932e-07
-1.69816e-07
-2.72346e-07
-1.60144e-07
6.07825e-08
1.96768e-07
6.13598e-07
-2.75381e-07
-3.38217e-07
3.51483e-07
-7.74587e-07
4.23104e-07
-3.90382e-08
9.98207e-08
-4.68727e-08
-4.52009e-08
4.60147e-08
4.60589e-08
3.21083e-07
-3.61898e-08
-2.84893e-07
-1.5555e-07
-1.42124e-08
1.69763e-07
1.67086e-07
-1.32044e-07
8.38399e-08
5.29758e-07
-1.59264e-07
-2.83832e-07
2.10411e-07
4.99762e-08
1.08302e-07
-9.80705e-08
-4.3225e-08
-1.05334e-07
2.87169e-07
-1.4292e-07
-1.44249e-07
4.11566e-07
-3.96209e-07
-3e-07
-2.39559e-07
5.3956e-07
1.47558e-08
-1.47558e-08
6.80231e-10
4.10885e-07
-1.33982e-07
1.48738e-07
-9.80224e-08
7.57495e-07
-6.59473e-07
-2.07823e-07
1.9825e-07
7.39721e-07
-6.65054e-07
-7.46673e-08
-9.72347e-08
-2.27307e-07
-6.48673e-08
4.05235e-07
1.98855e-07
1.02893e-07
-1.82786e-07
7.0929e-08
1.11857e-07
5.39641e-08
8.42436e-08
-1.15553e-07
3.1309e-08
4.28223e-07
-7.28224e-07
2.7359e-07
-1.88107e-07
-8.54822e-08
-9.18918e-08
-1.65833e-08
-2.21955e-07
2.08327e-07
1.3628e-08
-3.25952e-07
3.25952e-07
-2.88612e-08
-3.32009e-07
1.98345e-07
8.88239e-08
-8.8843e-08
-5.44185e-09
1.36228e-07
-4.19434e-08
1.38021e-08
-1.78456e-07
-6.67175e-08
1.57072e-07
-1.88141e-08
-5.76443e-08
1.61149e-07
-1.03505e-07
3.57044e-07
-3.34746e-07
1.5423e-08
3.19323e-07
-2.57147e-08
1.89332e-07
-1.18403e-07
-8.56574e-07
8.28069e-07
2.85058e-08
3.71149e-07
-4.69172e-07
1.45306e-07
2.3522e-07
-3.80526e-07
1.24402e-07
3.10455e-07
-1.6231e-07
-1.72436e-07
4.43466e-07
-9.19835e-08
2.79136e-07
-3.41451e-08
-2.44991e-07
-4.16638e-07
4.17319e-07
6.96756e-08
-3.09235e-07
4.58425e-07
8.11349e-08
-1.77769e-07
2.51017e-07
-7.3248e-08
-7.13262e-07
-6.1325e-08
-8.70077e-08
2.32314e-07
-2.49842e-07
1.92197e-07
-8.9689e-09
2.1569e-07
-1.5394e-08
-2.00296e-07
3.97035e-08
-4.56342e-07
5.48607e-08
2.26717e-07
3.31187e-07
1.27238e-07
3.34659e-08
1.64784e-07
4.21872e-08
2.78895e-07
-6.66823e-09
3.55206e-07
-3.48537e-07
9.22173e-08
-7.97373e-09
7.07596e-09
-1.22629e-07
-2.74893e-07
7.03116e-07
-9.30293e-08
-6.35195e-07
4.02458e-07
-9.29311e-08
-1.29024e-07
1.10991e-07
2.80937e-07
2.79136e-07
-2.21903e-07
-4.77594e-07
6.99497e-07
3.85675e-07
7.95309e-08
-7.35735e-08
6.46046e-08
8.20288e-07
-9.32879e-07
1.12591e-07
-6.46046e-08
9.80705e-08
-1.90653e-07
-3.00349e-07
4.91002e-07
-3.90382e-08
-2.52565e-07
3.00237e-07
-1.73026e-07
-5.42975e-09
1.08302e-07
1.95333e-07
-9.98207e-08
-1.95333e-07
1.66879e-07
2.84541e-08
-4.3225e-08
-6.33425e-08
4.98735e-08
6.33425e-08
-1.24021e-07
6.06782e-08
-4.98735e-08
3.56611e-08
-1.34954e-07
3.02041e-07
1.34954e-07
-4.27371e-08
1.24021e-07
-1.6021e-07
3.43574e-07
-6.18467e-07
-3.56611e-08
4.27371e-08
-7.11496e-07
6.18467e-07
7.11496e-07
-6.27656e-07
-3.02041e-07
6.27656e-07
-3.25615e-07
1.6021e-07
-1.66879e-07
1.80556e-07
1.26184e-08
-1.85645e-07
6.50373e-07
8.14455e-08
-1.36239e-07
2.40726e-08
-2.1218e-07
6.56085e-08
1.42718e-07
4.10698e-07
-3.43196e-07
-6.75017e-08
-2.6354e-07
-5.93035e-07
-6.47771e-09
6.5685e-07
7.16985e-07
-8.22186e-07
1.05201e-07
5.5049e-07
-5.84635e-07
-1.68705e-07
2.13455e-07
-4.47501e-08
-6.54963e-07
4.42607e-08
-1.15688e-08
-2.60777e-07
2.37184e-07
-4.7852e-08
-8.06352e-09
6.10784e-08
-5.30149e-08
2.79901e-07
-2.66612e-07
1.5239e-08
2.21945e-07
2.35464e-07
-2.47033e-07
-4.87253e-07
1.7927e-07
7.95482e-07
-6.65055e-08
-7.28977e-07
8.39464e-07
-1.22479e-07
1.29572e-08
-4.33052e-07
4.20095e-07
9.91678e-08
1.16522e-07
3.31865e-07
-1.05148e-07
7.03129e-08
4.71342e-08
-1.40018e-07
-1.05437e-07
5.12463e-07
-6.99717e-08
1.46599e-07
6.81469e-07
-3.79465e-07
2.94894e-07
8.45703e-08
3.71943e-08
2.13823e-07
-1.41787e-07
-2.37678e-07
-4.76294e-08
1.17305e-07
-4.34566e-07
3.24236e-07
1.1033e-07
-1.8928e-07
2.05752e-08
2.4765e-07
1.43401e-07
3.67763e-07
-1.39671e-07
-2.82164e-07
2.20804e-07
-5.6158e-07
3.63541e-07
1.98039e-07
-4.26178e-07
2.15178e-08
4.04661e-07
6.11502e-07
-8.75042e-07
4.4715e-07
-1.22914e-07
8.76894e-07
-7.61337e-07
-1.15558e-07
3.40762e-07
1.06387e-07
-3.05576e-07
2.35604e-07
-4.06529e-08
1.69806e-07
-1.43251e-08
-4.11853e-07
5.19832e-07
-1.8053e-07
4.43485e-07
-4.34873e-07
-8.61252e-09
3.61161e-08
-3.11497e-07
3.86872e-08
-3.86872e-08
-7.35735e-08
2.0253e-07
3.17302e-07
-8.1299e-08
6.69739e-08
-1.54173e-07
2.2769e-07
-4.14672e-07
5.93598e-07
-6.766e-07
6.98118e-07
-3.50999e-10
3.16319e-08
-2.45933e-07
4.48463e-07
-2.09951e-07
4.12525e-07
-2.02573e-07
-8.89517e-07
8.1485e-07
-6.86806e-08
-2.04523e-07
4.93072e-07
-2.88548e-07
-2.54794e-07
8.66296e-07
8.90771e-07
-5.58686e-07
-3.32084e-07
-4.9721e-07
6.23371e-08
-4.67603e-07
-2.96065e-08
-3.45117e-07
4.8071e-07
-1.35593e-07
3.14145e-07
-5.18668e-07
-1.01723e-07
4.42485e-07
4.67058e-07
-2.55401e-07
-2.11657e-07
7.47064e-08
-7.47064e-08
3.98341e-07
-3.98341e-07
-8.28326e-08
-8.06685e-07
-3.63244e-07
4.61209e-07
-9.79649e-08
2.1427e-07
1.01399e-07
-3.15669e-07
-1.11577e-07
3.32381e-07
-7.00324e-07
2.37235e-08
3.37199e-07
-3.37199e-07
-4.73641e-08
4.73641e-08
1.47955e-07
1.99168e-07
-4.45101e-07
6.62754e-07
2.28016e-07
1.17467e-07
1.73617e-07
-5.89488e-07
1.21884e-07
-4.88089e-07
1.43221e-07
1.88643e-07
-9.01037e-08
-3.72931e-07
4.63035e-07
3.17184e-07
-2.32614e-07
-2.66277e-07
3.76607e-07
-7.72931e-08
-3.71105e-07
-6.62872e-08
4.37392e-07
1.7851e-07
1.44011e-07
7.94062e-07
1.56176e-08
-4.30289e-07
1.41122e-07
-9.02459e-07
-2.91125e-07
3.97512e-07
1.93062e-07
-4.74653e-07
8.04174e-08
3.62067e-07
-5.65498e-07
-3.69525e-07
9.35023e-07
5.09071e-08
-4.82965e-07
3.47372e-07
3.85078e-07
-9.50576e-07
-8.74839e-07
-2.92365e-07
3.72782e-07
-3.98807e-07
3.3252e-07
5.82923e-08
3.7789e-07
-4.36183e-07
5.82298e-08
3.53069e-07
8.43234e-08
5.39623e-07
-1.86554e-07
-8.23298e-07
8.68425e-07
-4.51261e-08
-3.22599e-07
-5.98654e-08
8.74715e-07
-6.68692e-07
-4.67177e-07
8.52255e-07
-5.05139e-07
1.37377e-07
3.67762e-07
-7.87291e-07
6.71733e-07
2.96753e-09
1.05334e-07
-5.9421e-08
2.97191e-07
1.96943e-07
-1.93975e-07
-3.21325e-07
-1.83814e-07
5.3065e-07
-3.03461e-07
-2.27189e-07
-6.74442e-07
9.54343e-07
-7.93786e-08
4.12423e-07
-3.33044e-07
-4.56551e-07
3.77173e-07
3.16692e-07
5.609e-08
3.74984e-07
3.54314e-07
1.76336e-07
4.02515e-07
-7.25115e-07
-8.65327e-07
3.98149e-07
6.43801e-07
2.2833e-08
-6.66634e-07
-2.5972e-07
3.97097e-07
4.26778e-08
7.27944e-08
-1.15472e-07
9.06085e-07
-8.70997e-07
-3.50878e-08
2.31642e-07
3.02963e-08
-9.01293e-07
4.01797e-07
5.52547e-07
4.1935e-07
3.75071e-07
-7.94421e-07
9.10979e-08
-8.16103e-07
-4.51281e-07
1.26738e-06
-6.939e-07
-3.39358e-07
1.03326e-06
-2.30983e-07
6.50332e-07
3.88919e-07
7.41154e-08
-5.52112e-07
2.1487e-07
3.37242e-07
1.78235e-07
-1.78235e-07
-5.44185e-09
-2.44991e-07
-4.52009e-08
-6.77528e-08
6.77528e-08
-3.92792e-07
3.92792e-07
-2.52565e-07
9.87272e-07
-2.77608e-07
-7.09664e-07
-1.1767e-07
1.1767e-07
-9.04648e-08
9.04648e-08
-1.33982e-07
4.22395e-08
-4.22395e-08
-2.64906e-07
2.64906e-07
1.36228e-07
1.54167e-07
-1.54167e-07
4.60147e-08
3.00237e-07
-1.36288e-07
5.38803e-07
3.82755e-07
5.16898e-07
-8.99653e-07
8.24339e-08
-8.24339e-08
8.99781e-07
-2.5598e-07
-4.47729e-07
8.70833e-07
2.77151e-07
-2.77151e-07
-3.5015e-07
4.66889e-08
6.80735e-07
-3.79544e-07
-3.01191e-07
3.20054e-07
-9.73534e-07
6.53481e-07
-1.26583e-06
4.49727e-07
-5.44936e-07
8.6499e-07
-2.53592e-07
-9.65574e-08
-8.57026e-07
1.63127e-07
-8.50306e-10
1.80942e-07
-1.80092e-07
4.18275e-08
-3.43574e-07
1.40382e-07
-3.71365e-07
-1.87743e-07
-3.2584e-07
5.13582e-07
-1.08646e-07
2.11765e-07
-2.6525e-07
5.34855e-08
-5.86665e-07
9.88462e-07
1.19483e-07
-5.23865e-07
9.98724e-07
-4.74859e-07
5.39543e-07
-7.86609e-08
9.21553e-07
-6.89911e-07
8.18141e-07
-7.87845e-07
6.22173e-07
6.9789e-07
-9.36194e-07
2.38304e-07
1.24868e-07
5.60741e-08
-6.70047e-07
1.25111e-07
-5.59891e-07
9.34963e-07
4.24755e-07
-1.47544e-07
-6.69468e-07
8.17012e-07
5.5426e-07
-7.42002e-07
6.6836e-07
-1.11964e-06
5.50611e-07
4.56419e-07
-1.00703e-06
1.95229e-07
3.19702e-07
-5.1493e-07
1.6008e-07
8.57346e-07
-1.1967e-06
-5.26547e-07
2.83781e-07
2.42766e-07
7.72291e-07
-1.13638e-06
3.64094e-07
8.13979e-07
-5.99109e-07
-4.62447e-07
1.36607e-07
6.84e-07
7.08114e-07
1.62719e-07
-5.02788e-07
5.56273e-07
3.34888e-07
4.64597e-07
5.54661e-07
-3.94582e-07
1.28231e-07
-8.99552e-08
-4.08484e-07
8.50816e-07
-6.55588e-07
4.38832e-07
-2.67834e-07
6.67254e-07
-2.03902e-07
-2.33175e-07
4.37077e-07
1.18093e-07
8.53463e-07
-9.71556e-07
1.12756e-06
-3.55267e-07
1.05867e-06
-5.19128e-07
-2.06845e-07
-5.85774e-07
-4.30469e-08
-6.10356e-07
5.13798e-07
-1.07732e-07
2.65495e-07
5.99468e-07
8.41378e-07
-5.57597e-07
-6.46306e-07
1.10272e-06
-7.667e-07
-3.5294e-07
-9.58346e-07
-2.38357e-07
3.59619e-07
1.95042e-07
7.84374e-07
-9.03315e-07
-5.89083e-08
9.62223e-07
-7.29246e-07
5.02057e-07
-7.40596e-07
-7.94554e-07
-2.12476e-07
-9.15386e-07
3.16277e-07
7.85347e-07
-4.8816e-07
-4.85375e-07
-1.00139e-06
-1.17518e-06
-5.40823e-08
4.40334e-07
7.66163e-07
-2.77726e-07
-4.88438e-07
1.58255e-08
-2.19727e-07
1.0194e-07
-3.08785e-07
4.98329e-07
5.10901e-07
-2.68135e-07
4.29455e-08
6.57978e-07
-7.00923e-07
-5.39836e-07
6.68067e-07
-3.18075e-07
-3.15918e-07
1.18645e-06
-4.4271e-07
9.07307e-07
1.56011e-07
2.81066e-07
5.72215e-07
5.0278e-08
7.66734e-07
-7.85598e-07
-4.09486e-08
8.26546e-07
1.00729e-06
-3.85115e-07
8.81983e-07
-6.16488e-07
-6.17029e-07
6.93091e-07
-7.60617e-08
4.8328e-07
-7.3532e-07
-2.15448e-07
7.12651e-07
4.56843e-08
-1.48854e-07
3.99259e-07
-6.5434e-07
5.64384e-07
-4.61869e-07
7.96757e-07
1.78826e-07
1.46664e-07
-6.80406e-07
4.19017e-07
2.61389e-07
-3.02286e-07
2.45482e-08
-5.79979e-07
9.4061e-07
-3.60632e-07
2.06198e-07
-3.54047e-07
-2.47329e-07
6.01376e-07
-8.81965e-07
-2.93219e-07
8.36659e-07
-3.34601e-07
-4.82571e-07
1.06373e-06
-7.47458e-07
-3.24828e-07
-4.17174e-07
-1.12032e-06
-3.26092e-07
4.73243e-07
5.10567e-07
-5.02484e-07
9.41316e-07
-9.1458e-07
6.23413e-08
6.36661e-07
-8.52109e-07
4.04823e-07
4.12665e-07
5.27945e-07
-4.9999e-07
9.20061e-07
-4.20071e-07
1.39458e-07
6.87088e-07
-8.60621e-07
-4.33678e-07
-2.77919e-07
2.93569e-07
7.8766e-07
-3.88401e-07
1.7675e-07
5.16341e-07
9.23231e-07
-4.89473e-07
-4.45594e-07
9.35068e-07
-2.8863e-07
-1.73817e-07
-8.754e-07
5.05875e-07
7.05804e-07
-3.00981e-07
-2.24498e-07
2.70183e-07
2.41801e-07
-5.75954e-07
3.34153e-07
-9.4595e-08
-5.42591e-08
1.24879e-06
4.2318e-07
5.00052e-07
-4.37007e-07
-4.62646e-07
8.42197e-07
3.9121e-07
5.28851e-07
-9.47666e-07
5.10659e-07
-9.5212e-07
-4.71827e-07
3.77041e-07
-1.35239e-07
-1.28467e-07
-2.65629e-07
-4.52068e-07
-3.60224e-07
3.35676e-07
-5.46097e-08
-8.63838e-07
5.85919e-07
-3.7401e-07
-5.0139e-07
3.00394e-07
-2.74702e-07
-6.65407e-07
3.96602e-07
-2.89625e-07
7.955e-07
5.29337e-08
5.29605e-09
-4.67087e-07
-4.80578e-07
-7.33716e-07
8.8066e-08
3.17169e-07
9.19155e-07
-3.14565e-07
4.194e-08
2.42402e-07
1.34638e-07
-2.62735e-07
7.30755e-07
4.54856e-07
-3.09523e-07
-1.45334e-07
1.92121e-07
3.56745e-07
-2.05309e-07
8.50404e-07
-6.45095e-07
5.99148e-07
8.5944e-07
-6.53784e-08
-6.93398e-07
7.82059e-07
-2.65718e-07
7.99575e-07
5.07357e-07
6.02939e-07
-3.57187e-07
5.01277e-07
2.94223e-07
-7.17462e-07
-1.84997e-07
5.23639e-08
-4.70678e-08
1.92401e-07
-5.77632e-08
2.31189e-07
-9.14821e-07
1.97359e-07
1.96836e-07
2.15689e-07
4.71817e-07
-2.93308e-07
7.3407e-07
-2.52066e-07
-8.97162e-07
8.38189e-07
-6.4083e-07
-1.04473e-07
-3.38977e-07
3.66325e-07
-2.73482e-08
-6.81848e-07
-8.49977e-08
2.0855e-07
2.2825e-07
-4.80101e-07
-3.32146e-07
-3.00228e-08
-3.61317e-07
3.96004e-07
-3.82075e-07
2.65486e-07
2.09714e-07
-1.63097e-08
-8.95631e-09
4.86271e-08
1.14077e-07
1.71494e-07
1.88506e-07
1.65482e-07
1.53962e-07
-4.4776e-07
4.02558e-07
4.52023e-08
-7.29941e-07
-2.61412e-07
4.35095e-07
-2.42033e-07
1.30495e-07
1.14305e-07
1.57376e-07
7.35041e-08
-7.13919e-07
-3.37132e-07
1.36689e-07
1.08111e-07
-1.25852e-07
6.80886e-08
1.53971e-07
1.05338e-07
-3.77626e-07
4.50192e-08
1.8927e-08
-8.14939e-07
3.96708e-08
2.79559e-07
-3.15887e-07
-1.31873e-07
1.27683e-07
-1.20115e-06
2.68268e-07
-7.30731e-08
4.35438e-07
3.01989e-07
3.11338e-07
-1.30005e-07
-9.75331e-07
-1.37087e-07
-8.28732e-07
1.00937e-07
-7.57761e-09
-1.35342e-07
2.20867e-08
-1.54019e-07
-2.29115e-07
-9.12273e-08
7.64715e-08
7.01499e-08
-2.00155e-07
-4.28028e-07
-3.37473e-07
-6.13342e-08
1.63977e-07
-1.99849e-07
1.07957e-07
-3.0601e-07
-3.89639e-07
1.51961e-07
2.76104e-07
-6.72755e-08
-1.0605e-07
1.73326e-07
-2.11283e-08
-6.0919e-07
2.82065e-08
-2.16427e-07
-6.27262e-07
-5.32314e-07
-2.11283e-08
-2.35669e-07
9.45384e-08
-4.95192e-08
2.63168e-07
-1.87659e-07
3.46305e-07
3.53192e-07
7.03341e-08
-3.70728e-07
1.96911e-07
8.3763e-07
-7.24338e-08
-4.03538e-07
2.14255e-07
1.89283e-07
-1.72341e-07
-2.21767e-07
-2.15033e-07
-4.56822e-07
-1.61273e-07
-5.61521e-07
4.64286e-07
9.69361e-07
7.70989e-07
-7.48156e-07
4.38433e-07
-4.00924e-08
-2.15275e-07
-3.91163e-07
6.27582e-08
1.19483e-08
3.91163e-07
-6.27582e-08
2.36789e-07
4.38433e-07
2.08312e-07
-3.92005e-07
5.55132e-07
7.76298e-07
-5.48281e-07
1.74233e-07
-8.77776e-08
-2.9892e-08
7.9539e-08
2.89492e-09
-5.23299e-08
3.17524e-08
-1.89076e-07
-5.59151e-08
-8.77776e-08
6.94746e-08
-1.72175e-09
-4.22919e-07
3.01271e-08
1.30627e-07
-6.65899e-08
-2.38749e-08
5.23299e-08
-1.00903e-08
-3.17524e-08
-1.04871e-08
1.89076e-07
-3.49089e-08
-1.30627e-07
-2.35403e-08
6.65899e-08
-6.94746e-08
7.9539e-08
-4.22919e-07
-7.09595e-07
-6.39842e-07
-1.24148e-08
-3.95248e-07
6.88817e-07
1.76305e-07
-2.48739e-07
1.32173e-07
3.41473e-07
1.35468e-07
7.92504e-07
-5.86719e-07
4.66974e-08
-4.49168e-07
3.41473e-07
1.19301e-07
-2.95638e-07
2.1748e-07
-1.56802e-07
7.78869e-07
3.31411e-07
6.13801e-08
-3.31411e-07
-1.8958e-07
2.37894e-07
-4.83142e-08
-7.5142e-07
-2.94383e-08
1.92747e-07
-3.70243e-07
3.93526e-07
9.05739e-07
-4.3088e-07
-4.68083e-07
3.92021e-07
4.31581e-07
-1.52343e-07
3.23397e-07
-2.49872e-08
-2.24855e-07
3.64e-07
2.02909e-07
-4.66939e-07
4.66939e-07
-3.46699e-07
-2.84707e-07
-2.83233e-07
3.23397e-07
2.51129e-07
-6.94561e-07
2.81297e-07
-1.52489e-07
-2.80563e-07
2.65917e-07
2.21765e-09
5.57788e-07
-7.96092e-07
-1.81834e-07
1.81834e-07
-4.0701e-08
-2.28092e-07
-5.14868e-08
5.14868e-08
-4.62648e-08
4.62648e-08
-2.47108e-07
3.97132e-08
6.18383e-08
-3.48948e-07
5.78638e-07
-2.29689e-07
4.18283e-07
-4.18283e-07
1.61149e-07
1.39948e-07
2.80147e-07
6.10784e-08
-6.33127e-07
2.2902e-07
-1.51973e-08
2.18533e-07
-3.92993e-07
-6.35061e-07
2.70631e-08
2.0301e-08
-1.54667e-07
-4.56289e-08
-1.36126e-07
1.19543e-07
-3.20669e-09
-1.3292e-07
-7.77375e-07
-3.75638e-08
-3.91716e-07
-2.06688e-07
-5.38097e-07
1.42849e-07
-9.12273e-08
7.93612e-08
2.39961e-07
8.25377e-08
-1.46296e-07
-1.33033e-07
1.33033e-07
1.30492e-07
2.66605e-07
-5.05083e-07
-1.03505e-07
-1.33022e-07
1.33022e-07
-7.14568e-07
8.26326e-08
1.63948e-08
2.32759e-08
-5.47635e-08
-6.58773e-07
4.56846e-07
2.01927e-07
-3.14562e-07
9.73758e-08
2.17186e-07
-5.30149e-08
-4.92401e-07
1.8488e-07
-1.68485e-07
-2.03692e-07
-4.68094e-08
4.68094e-08
1.67089e-07
5.01663e-08
-9.77958e-08
-2.94156e-07
-4.54e-07
-2.73876e-08
8.74367e-08
4.43906e-08
-1.47472e-07
-2.81838e-07
-3.76936e-07
-2.0953e-07
2.20403e-07
1.52006e-08
-5.9348e-09
-1.55338e-07
-8.8269e-08
1.32087e-07
-3.21456e-07
9.2341e-08
-2.70631e-08
6.86977e-07
-1.16002e-07
2.53221e-07
1.63045e-07
5.23932e-07
3.92013e-09
2.49301e-07
5.66393e-07
3.3237e-07
2.44543e-07
1.52559e-07
1.44903e-07
1.41789e-08
-2.74956e-07
2.71036e-07
3.2269e-07
-1.04713e-07
1.34068e-07
-6.70936e-08
-3.60075e-08
2.41923e-07
-1.99983e-07
7.29438e-07
1.30399e-08
-6.76231e-07
-3.44176e-08
1.93609e-07
1.36823e-07
-2.11057e-07
2.90588e-07
1.40536e-07
-2.44733e-07
-2.2683e-09
3.99456e-07
-2.56607e-07
3.64547e-07
1.78196e-07
1.52502e-07
-1.24638e-07
-3.24357e-09
-7.30125e-07
1.85152e-08
-2.28362e-07
1.43665e-07
4.86559e-08
1.55363e-07
5.85312e-07
-1.82526e-07
1.22094e-07
-1.82469e-07
2.7481e-07
6.2055e-09
-7.35434e-09
)
;

boundaryField
{
    back
    {
        type            empty;
        value           nonuniform List<scalar> 0();
    }
    front
    {
        type            empty;
        value           nonuniform List<scalar> 0();
    }
    top
    {
        type            calculated;
        value           nonuniform List<scalar> 10(-4.368e-07 -4.752e-07 -3.6e-07 -2.448e-07 -2.448e-07 -3.6e-07 -4.368e-07 -9.12e-08 -9.12e-08 -4.752e-07);
    }
    outer_arc
    {
        type            calculated;
        value           uniform 0;
    }
    bottom
    {
        type            calculated;
        value           nonuniform List<scalar> 10(7.66845e-07 3.9134e-07 2.5266e-08 -1.62704e-07 -3.19444e-07 9.91353e-07 -2.3088e-07 1.05105e-06 -1.08103e-07 8.11276e-07);
    }
    inner_arc
    {
        type            calculated;
        value           uniform 0;
    }
}


// ************************************************************************* //
