/*--------------------------------*- C++ -*----------------------------------*\
  =========                 |
  \\      /  F ield         | OpenFOAM: The Open Source CFD Toolbox
   \\    /   O peration     | Website:  https://openfoam.org
    \\  /    A nd           | Version:  9
     \\/     M anipulation  |
\*---------------------------------------------------------------------------*/
FoamFile
{
    format      ascii;
    class       volScalarField;
    location    "0.9";
    object      p;
}
// * * * * * * * * * * * * * * * * * * * * * * * * * * * * * * * * * * * * * //

dimensions      [0 2 -2 0 0 0 0];

internalField   nonuniform List<scalar> 
90
(
-9.19136e-23
-4.70103e-23
7.50393e-22
2.0307e-21
1.15903e-21
-1.34062e-21
-6.62923e-24
-2.15541e-22
-1.33965e-22
-2.29113e-22
1.80244e-22
-4.62219e-22
-1.40229e-22
4.16627e-22
-4.499e-22
-3.01756e-21
4.38112e-21
-5.50356e-22
-6.37128e-22
-1.70235e-22
3.89827e-23
-2.11417e-22
9.61906e-23
1.94938e-22
-8.04909e-26
4.82895e-22
-3.06353e-22
4.72138e-23
1.11474e-21
-2.11119e-22
-1.26142e-22
8.3928e-22
5.66366e-22
3.40666e-22
5.03558e-22
-3.41733e-21
-2.61e-22
6.88912e-21
6.12474e-22
-3.99888e-22
-4.92384e-22
-6.0582e-22
5.84427e-22
-7.83718e-23
-2.70652e-23
8.26122e-22
-2.23256e-22
-1.75666e-21
-8.60439e-22
8.4535e-22
-2.19678e-22
-3.41709e-22
-4.7799e-22
5.90233e-22
-4.28378e-22
-1.14921e-21
-1.22702e-23
9.76174e-23
-1.01024e-22
9.82307e-22
-3.5717e-22
7.67759e-22
1.35945e-21
-3.56724e-22
-7.35983e-22
-2.21313e-22
7.86158e-22
1.0039e-21
5.73027e-21
6.58263e-22
-2.17896e-21
-2.23248e-22
1.62972e-22
-1.70466e-21
-2.89436e-21
-3.00649e-22
-2.1902e-22
3.88039e-22
1.46673e-22
-6.96842e-24
6.36143e-21
-6.16922e-23
1.40415e-22
-3.36137e-21
4.8109e-23
1.29186e-21
-1.55172e-22
-1.87831e-22
-2.4138e-21
-3.29199e-22
)
;

boundaryField
{
    back
    {
        type            empty;
    }
    front
    {
        type            empty;
    }
    bottom
    {
        type            zeroGradient;
    }
    outer_arc
    {
        type            zeroGradient;
    }
    right
    {
        type            uniformFixedValue;
        uniformValue    
        {
            type            scale;
            scale           
            {
                type            squarePulse;
                start           0.3;
                duration        0.3;
            }
            xScale          
            {
                type            constant;
                value           1;
            }
            value           
            {
                type            constant;
                value           15.1;
            }
        }
        value           uniform 0;
    }
    inner_arc
    {
        type            zeroGradient;
    }
}


// ************************************************************************* //
