/*--------------------------------*- C++ -*----------------------------------*\
  =========                 |
  \\      /  F ield         | OpenFOAM: The Open Source CFD Toolbox
   \\    /   O peration     | Website:  https://openfoam.org
    \\  /    A nd           | Version:  9
     \\/     M anipulation  |
\*---------------------------------------------------------------------------*/
FoamFile
{
    format      ascii;
    class       surfaceScalarField;
    location    "0.9";
    object      phi;
}
// * * * * * * * * * * * * * * * * * * * * * * * * * * * * * * * * * * * * * //

dimensions      [0 3 -1 0 0 0 0];

internalField   nonuniform List<scalar> 
122
(
-1.43788e-29
-3.80062e-30
-1.84714e-30
2.12917e-28
-2.45014e-29
-1.41806e-28
-2.04946e-28
2.31446e-28
1.74462e-28
-2.67907e-28
2.63568e-28
6.08955e-28
-6.05025e-28
4.61268e-30
-3.2876e-29
-1.2518e-29
2.37206e-29
9.73098e-29
-6.84126e-29
-5.95754e-30
-6.34155e-30
4.51754e-29
4.57974e-29
-9.77043e-29
-1.19276e-28
2.07115e-28
-1.01391e-28
1.99349e-28
-7.81944e-29
9.96539e-29
-3.66916e-28
-1.94159e-28
1.13823e-28
-2.22579e-29
-6.39501e-29
1.28163e-29
1.88337e-29
5.82109e-29
-6.0769e-29
-4.45121e-29
2.94478e-29
-5.80696e-29
3.09537e-29
-1.49402e-29
-6.83863e-29
2.09166e-29
1.38641e-29
-3.19797e-29
-5.76017e-29
3.88483e-29
1.09258e-29
-8.1608e-29
6.79954e-29
-5.14978e-28
2.70712e-28
-1.78605e-29
2.76547e-30
-2.72568e-29
5.9394e-31
-9.5222e-30
-2.06414e-29
2.57103e-29
1.20538e-30
-8.64938e-29
1.46188e-28
1.81108e-28
1.6843e-29
1.45204e-29
-2.00522e-29
2.06421e-29
5.57556e-29
-2.63503e-29
7.30684e-29
2.96479e-29
-1.1104e-29
1.1334e-29
8.17033e-30
9.30613e-30
6.36113e-29
-4.93471e-29
1.38871e-29
-5.29518e-29
-1.56564e-28
4.32676e-29
-2.39816e-29
-6.63473e-29
2.47151e-30
8.08939e-30
7.58205e-29
-7.63186e-29
-6.8971e-29
1.13717e-29
-1.686e-29
-1.2455e-28
8.89031e-29
2.63736e-30
7.1297e-30
1.58809e-29
-1.26697e-29
-3.18594e-29
-6.2827e-29
6.3219e-29
3.50452e-29
-7.05213e-29
-4.00142e-29
1.37217e-28
-4.28374e-29
5.72537e-29
-2.97009e-29
-5.30873e-29
3.45952e-28
-3.64767e-28
-2.05807e-28
1.39948e-28
7.22945e-30
9.4601e-29
1.01211e-28
-1.68999e-29
6.811e-30
1.09114e-29
-9.32802e-29
3.88804e-30
)
;

boundaryField
{
    back
    {
        type            empty;
        value           nonuniform List<scalar> 0();
    }
    front
    {
        type            empty;
        value           nonuniform List<scalar> 0();
    }
    bottom
    {
        type            calculated;
        value           uniform 0;
    }
    outer_arc
    {
        type            calculated;
        value           uniform 0;
    }
    right
    {
        type            calculated;
        value           nonuniform List<scalar> 4(-4.20122e-30 -1.10835e-29 -7.8694e-30 -1.13083e-29);
    }
    inner_arc
    {
        type            calculated;
        value           uniform 0;
    }
}


// ************************************************************************* //
