/*--------------------------------*- C++ -*----------------------------------*\
  =========                 |
  \\      /  F ield         | OpenFOAM: The Open Source CFD Toolbox
   \\    /   O peration     | Website:  https://openfoam.org
    \\  /    A nd           | Version:  9
     \\/     M anipulation  |
\*---------------------------------------------------------------------------*/
FoamFile
{
    format      ascii;
    class       volVectorField;
    location    "0.9";
    object      U;
}
// * * * * * * * * * * * * * * * * * * * * * * * * * * * * * * * * * * * * * //

dimensions      [0 1 -1 0 0 0 0];

internalField   nonuniform List<vector> 
90
(
(-2.44369e-22 -4.16829e-23 4.3482e-39)
(-3.75182e-21 -2.94581e-21 -7.38148e-38)
(6.59397e-21 1.25214e-21 7.22208e-38)
(6.01433e-21 -6.29762e-21 -7.15247e-38)
(-7.93927e-21 -1.22002e-20 -1.86162e-37)
(-2.12699e-21 -1.71087e-21 5.86439e-38)
(-1.92484e-22 -1.36558e-22 -4.98029e-39)
(5.26682e-22 3.02257e-22 -1.08985e-38)
(-2.66416e-22 2.34807e-21 0)
(-1.37861e-22 3.03513e-23 0)
(2.19023e-21 -4.21249e-22 1.4051e-38)
(-1.21557e-21 6.63808e-21 5.60092e-39)
(6.17794e-22 2.4567e-22 -1.75171e-39)
(3.55686e-22 1.46064e-21 -7.80564e-39)
(-2.58045e-21 4.08136e-21 0)
(-7.15602e-21 -5.13544e-21 0)
(-2.90624e-21 -1.27462e-20 2.62877e-37)
(6.89372e-21 2.02189e-21 3.46703e-38)
(1.09048e-21 -2.85652e-21 0)
(8.98938e-22 8.15576e-22 -2.87488e-40)
(1.27477e-21 6.80494e-22 -2.94143e-39)
(-7.91281e-22 -7.88472e-22 -1.66159e-38)
(8.74874e-22 -4.5737e-22 1.7404e-38)
(1.73897e-21 9.75962e-23 -1.72855e-39)
(1.14507e-21 2.37601e-22 5.20748e-39)
(3.62368e-22 -1.94328e-21 -1.51607e-38)
(9.11691e-22 3.52843e-22 7.87537e-39)
(-2.08192e-21 -1.09447e-21 -1.0872e-38)
(1.42011e-20 2.03047e-21 0)
(6.94683e-22 -4.38663e-22 9.97685e-39)
(8.63244e-22 5.50637e-23 -5.07641e-39)
(1.70922e-21 -2.11304e-22 5.01745e-38)
(1.14802e-21 4.2827e-22 1.31238e-38)
(4.41134e-22 6.82463e-22 -2.64993e-38)
(6.32773e-22 4.31167e-22 9.06827e-39)
(-2.04517e-21 2.96764e-21 8.10499e-38)
(-1.84998e-21 -2.57942e-21 0)
(2.37374e-21 -3.9764e-21 0)
(3.48592e-23 -2.95271e-23 -1.38787e-38)
(8.74522e-23 3.09353e-22 -5.2628e-39)
(-7.03104e-22 2.29784e-22 1.32513e-38)
(-2.01947e-23 1.05661e-21 4.41179e-38)
(-1.35252e-21 3.48358e-22 3.89615e-39)
(-3.57402e-22 -1.07243e-24 3.97255e-39)
(-3.52992e-22 3.45312e-23 2.02717e-39)
(-1.75772e-21 -2.2131e-21 -3.15366e-38)
(7.75339e-22 -6.32583e-22 -2.23719e-40)
(-1.63145e-21 3.40629e-21 -4.07071e-38)
(1.83487e-21 1.66835e-22 4.65364e-38)
(-1.61153e-21 4.64982e-21 -2.34888e-39)
(4.53932e-22 2.98553e-22 0)
(-2.62754e-23 -2.1217e-22 1.3865e-38)
(-2.81258e-21 1.95289e-21 1.4665e-40)
(-1.37389e-21 -8.36938e-22 0)
(7.67522e-23 -2.81505e-22 -2.64948e-38)
(-3.3934e-21 -1.4744e-21 4.24122e-40)
(-3.03149e-22 5.21704e-23 -1.82725e-39)
(4.42313e-22 -1.15147e-21 0)
(-5.3369e-22 -1.53206e-23 0)
(1.11169e-21 -1.05377e-21 -5.63754e-38)
(-2.05718e-22 6.80056e-22 -2.79619e-38)
(-1.87983e-21 -2.90673e-21 0)
(-1.12479e-23 -9.75448e-22 -6.35309e-38)
(-3.69173e-21 1.02023e-21 9.07917e-39)
(-2.16072e-21 -4.00556e-22 -4.82004e-38)
(4.34898e-21 1.86469e-22 -7.54002e-39)
(1.66308e-21 1.20573e-21 0)
(1.36315e-21 -7.37736e-22 0)
(1.213e-20 -9.2736e-22 -2.39034e-38)
(1.43988e-20 -1.80783e-21 -3.68564e-38)
(-5.59534e-21 3.06277e-21 0)
(-4.29199e-22 -8.56478e-23 -9.07611e-39)
(-4.60008e-21 2.26284e-21 0)
(1.578e-21 -3.79431e-21 -1.30311e-37)
(1.09971e-20 7.80006e-23 3.72118e-38)
(7.20048e-22 -8.31591e-22 1.19962e-38)
(-3.20673e-22 -9.74819e-23 2.38732e-39)
(-1.99991e-21 -5.50547e-22 0)
(-7.89864e-22 9.16432e-22 1.58518e-38)
(-6.43383e-22 -1.36628e-22 -5.59333e-39)
(7.65958e-21 -1.9053e-22 -2.6473e-37)
(-3.2404e-22 4.11473e-23 -2.33112e-40)
(1.22807e-21 -1.82386e-21 3.44795e-40)
(-1.70866e-21 2.66707e-22 -9.07945e-38)
(-1.40147e-21 -3.63058e-21 -4.20185e-39)
(-1.5147e-22 -1.0975e-22 3.69423e-38)
(-3.69065e-22 4.35227e-25 -5.59903e-39)
(-2.80422e-22 -1.04452e-22 1.06072e-39)
(-1.92463e-21 -3.43204e-21 2.24726e-37)
(-1.13923e-22 1.16951e-23 8.78957e-39)
)
;

boundaryField
{
    back
    {
        type            empty;
    }
    front
    {
        type            empty;
    }
    bottom
    {
        type            uniformFixedValue;
        uniformValue    
        {
            type            scale;
            scale           
            {
                type            squarePulse;
                start           0.3;
                duration        0.3;
            }
            xScale          
            {
                type            constant;
                value           1;
            }
            value           
            {
                type            constant;
                value           (0 0.7 0);
            }
        }
        value           uniform (0 0 0);
    }
    outer_arc
    {
        type            noSlip;
    }
    right
    {
        type            zeroGradient;
    }
    inner_arc
    {
        type            noSlip;
    }
}


// ************************************************************************* //
