/*--------------------------------*- C++ -*----------------------------------*\
  =========                 |
  \\      /  F ield         | OpenFOAM: The Open Source CFD Toolbox
   \\    /   O peration     | Website:  https://openfoam.org
    \\  /    A nd           | Version:  9
     \\/     M anipulation  |
\*---------------------------------------------------------------------------*/
FoamFile
{
    format      ascii;
    class       volScalarField;
    location    "0.73";
    object      p;
}
// * * * * * * * * * * * * * * * * * * * * * * * * * * * * * * * * * * * * * //

dimensions      [0 2 -2 0 0 0 0];

internalField   nonuniform List<scalar> 
578
(
-7.43478e-11
-1.53283e-10
-6.18962e-11
-3.72155e-11
-1.3444e-10
3.95127e-11
9.71831e-11
-1.09372e-10
-1.08778e-10
-2.15626e-10
4.26164e-12
-1.11794e-10
-4.25257e-11
-1.31347e-10
8.82421e-11
-3.4491e-11
-8.66585e-11
-7.90794e-11
-8.93169e-11
-8.24729e-11
-3.64675e-11
-2.84974e-11
-6.32853e-12
-8.08452e-12
-9.30944e-12
-8.01804e-11
-4.881e-11
-5.67796e-11
-1.19383e-10
-2.97495e-11
-5.09008e-11
4.91037e-11
-6.60259e-11
-3.16364e-11
7.86358e-11
-6.98167e-11
-1.18655e-10
-1.03065e-10
-2.68689e-11
-1.51977e-10
-1.25727e-10
-9.88144e-11
-1.18089e-10
9.23506e-11
-5.80151e-11
1.22133e-10
8.89228e-11
-1.15356e-10
-2.91608e-11
-5.11626e-11
8.01081e-11
-4.26521e-11
8.11456e-11
-3.34381e-11
-4.46031e-11
-8.45673e-11
-7.67487e-12
-1.37582e-11
-5.73158e-11
-9.1312e-11
-8.34729e-11
-1.07827e-10
-1.03964e-10
-1.4411e-10
-4.52448e-11
8.30846e-11
-4.96425e-11
1.88434e-11
5.06504e-12
-7.90046e-11
-2.74569e-11
4.52348e-11
-4.48092e-11
-9.37421e-11
1.74632e-12
-1.5287e-10
-1.30637e-10
-1.12595e-10
-4.4358e-11
5.06086e-11
5.99811e-11
-1.2051e-10
1.04356e-10
9.73785e-11
8.00837e-13
7.07011e-11
9.90828e-11
-6.85471e-11
-9.15767e-11
6.38617e-11
-4.83195e-11
2.7976e-11
7.81805e-11
-4.03709e-11
1.40715e-11
4.9177e-11
-4.49838e-11
-4.46714e-11
-2.05646e-10
8.95665e-11
7.86483e-11
-8.80926e-11
-4.85698e-11
3.71284e-11
-4.66201e-11
-1.30261e-10
6.44734e-12
-1.53445e-10
8.37759e-11
-1.40076e-10
-6.53256e-11
-8.31688e-11
-8.97653e-11
3.18265e-11
3.87254e-11
-4.71471e-11
-3.85549e-11
-8.95379e-11
6.18263e-11
-4.5693e-11
-7.04387e-11
1.46957e-10
-9.96112e-11
-3.80528e-11
7.22202e-11
4.24726e-11
4.33904e-11
-3.19176e-11
7.53194e-11
1.15312e-11
7.77235e-11
3.78463e-11
-4.00792e-11
-7.54489e-11
6.95392e-11
6.45236e-11
-1.30857e-10
-4.69348e-11
9.98012e-12
7.81938e-11
8.56391e-11
2.41974e-11
7.57649e-11
-6.74259e-11
-8.70916e-11
6.81229e-12
2.9139e-11
-5.39288e-11
-9.92999e-11
-8.22272e-13
-1.17921e-10
1.78197e-11
-1.43301e-10
-6.87678e-11
8.847e-11
-5.12899e-11
-9.91084e-11
-3.90098e-11
8.59265e-11
-1.20342e-10
-1.24841e-10
-1.23368e-10
9.01625e-11
-1.15515e-10
-8.5482e-11
2.5272e-11
-7.06796e-11
8.9457e-11
-3.59894e-11
-4.49942e-11
-1.08538e-10
-1.33918e-10
6.67427e-11
5.81132e-11
8.76126e-11
-4.61547e-11
-4.41604e-11
-8.54263e-11
-1.16664e-10
-1.11396e-10
9.70361e-11
-1.2526e-10
5.62004e-11
-4.40585e-11
6.70979e-11
-5.18578e-11
-3.59533e-11
1.00869e-10
8.55169e-11
-1.44064e-10
-1.23739e-10
-1.21733e-10
5.44401e-12
8.6828e-11
-1.73245e-10
-4.35435e-11
-3.14816e-11
-5.64473e-11
8.11534e-11
-1.22856e-10
-3.78552e-11
-4.26401e-11
1.55196e-10
-4.67332e-11
-4.5059e-11
-1.23747e-10
7.73797e-11
-2.674e-11
-1.21327e-10
-1.02745e-11
1.55949e-11
7.83327e-11
6.65191e-11
-4.28383e-11
6.86176e-11
-3.94423e-11
8.51089e-11
-1.23063e-10
8.64026e-11
3.62315e-11
-1.21066e-10
8.76662e-11
-5.0219e-11
-1.25329e-10
9.56904e-11
4.18386e-11
-4.23311e-11
-3.42614e-11
-5.45205e-11
-1.21277e-10
-1.94424e-10
1.45747e-10
6.52271e-11
-4.32519e-11
4.17656e-11
-1.01732e-10
-1.2697e-10
9.05038e-11
-4.14064e-11
-1.87849e-11
9.44779e-11
-1.33313e-10
-4.4643e-11
9.58987e-11
-5.58577e-11
-8.8918e-11
7.97518e-11
-1.95448e-10
5.40865e-11
-4.078e-11
-4.33166e-11
5.66877e-11
6.19127e-11
1.1952e-11
5.0697e-11
-2.6717e-11
-1.03526e-10
7.75932e-11
-1.09711e-10
1.25951e-10
-4.11114e-11
9.64033e-11
-3.13808e-11
-2.95828e-11
-1.26167e-10
-6.08881e-11
2.88827e-11
-2.08424e-11
-1.66903e-10
3.47387e-11
-3.53467e-11
3.29317e-11
1.50239e-11
-4.27535e-11
-4.17379e-11
-4.05395e-11
-4.61872e-11
1.7949e-11
8.6568e-11
-3.61156e-11
-1.29069e-10
-4.33169e-11
-4.23757e-11
-4.21396e-11
-3.98803e-11
7.57423e-11
-5.12334e-11
4.43653e-11
-2.42093e-11
-2.96708e-11
1.37436e-11
5.3382e-11
-4.74376e-11
7.63118e-11
-3.25437e-11
-3.04774e-11
-1.27297e-10
-1.25332e-11
-4.82052e-11
-3.30951e-11
-3.90432e-11
-1.49277e-11
-4.22723e-11
-5.85e-11
-3.06064e-11
-3.88604e-11
-7.96009e-13
-9.76066e-11
-3.7099e-11
-3.9217e-11
-3.31237e-11
-4.60824e-11
-3.84957e-11
-1.69421e-11
-3.22894e-11
-4.20117e-11
4.9088e-11
-1.36594e-11
-2.98318e-11
-3.25789e-11
5.15125e-11
-4.22401e-11
-4.2915e-11
-1.87533e-11
-4.50406e-11
-4.5793e-11
7.67036e-11
8.75867e-11
-1.2082e-10
-4.654e-11
-4.62688e-11
6.29224e-11
-4.2065e-11
-4.50793e-11
6.26178e-11
-2.61103e-11
-4.05843e-11
-4.43542e-11
-7.4061e-11
-4.73413e-11
-4.2151e-11
-4.21421e-11
-4.57961e-11
-8.66805e-11
-3.27184e-11
5.71061e-11
1.71245e-11
7.20106e-11
-9.00547e-11
8.23137e-11
-1.01862e-10
-1.14581e-10
8.66455e-11
-7.00327e-11
-1.47113e-10
1.11171e-10
-2.42458e-11
1.03114e-10
-1.57381e-10
1.07757e-10
-3.75539e-11
-7.16745e-11
-2.77178e-11
-7.02419e-11
-3.73798e-11
-2.88328e-11
-4.50774e-11
4.54688e-11
-4.12413e-11
-3.35449e-11
-1.06165e-10
-1.12958e-10
1.21207e-11
1.94555e-11
1.31277e-11
1.02244e-10
-4.82332e-11
8.14062e-11
-1.05501e-10
-5.19058e-11
-4.57056e-11
-1.09874e-10
8.81005e-11
-1.54738e-11
-2.44937e-11
-3.6278e-11
-2.91238e-11
1.04372e-10
9.4636e-11
-8.19454e-11
-4.35455e-11
-1.25623e-11
-9.79506e-12
-2.88328e-11
-3.55023e-11
-2.10981e-11
5.49876e-11
-5.69351e-11
-1.63234e-11
-7.76723e-12
-2.52811e-11
3.12103e-11
-2.98413e-11
-9.50929e-11
-4.69689e-11
-4.55664e-11
2.65617e-11
-5.66415e-11
-2.71674e-12
2.62919e-11
-3.98744e-11
-1.11638e-10
-8.06149e-11
4.77443e-11
-6.02828e-11
3.93752e-12
-9.78737e-11
6.98005e-11
-1.2404e-10
-5.02943e-11
7.9912e-11
1.15886e-11
-1.04744e-10
9.51681e-11
6.29902e-11
-4.68914e-11
-6.98289e-11
-1.0026e-10
-8.7719e-11
-4.32621e-11
4.40512e-11
-1.80057e-11
-6.12339e-12
-4.33737e-11
5.57065e-11
-6.20013e-11
-1.08236e-10
-8.59929e-11
-5.88706e-11
-5.76878e-11
-7.68798e-11
-3.91455e-11
-3.80976e-11
-4.89348e-11
6.03101e-11
-5.55688e-11
-5.13104e-11
4.92737e-11
4.93928e-11
-4.78202e-11
8.20265e-11
-4.82772e-11
5.9023e-11
-4.1811e-11
7.96579e-11
-4.2285e-11
-1.50422e-10
-3.87349e-12
-1.63495e-11
-9.41341e-11
1.07999e-10
5.96332e-11
-8.78125e-11
-6.19157e-11
-5.62477e-11
-9.72117e-11
5.70862e-11
-1.38681e-10
-6.81645e-11
-5.8947e-11
-5.58658e-11
-5.84746e-11
4.08347e-11
-5.11629e-11
-6.03104e-11
-1.02919e-10
-6.83561e-11
-9.62211e-11
-6.38593e-11
-8.77875e-11
-1.77707e-11
-3.31743e-12
-5.37777e-11
-5.35566e-11
-5.05814e-11
-5.43326e-11
-7.00991e-11
-5.01329e-11
-4.85488e-11
6.80321e-11
-3.9688e-11
4.25776e-11
-3.69982e-11
-3.96813e-11
-4.74859e-11
6.51155e-11
-4.45713e-11
7.46796e-11
-4.96279e-11
-4.02267e-11
-1.23113e-10
-5.00585e-11
-6.04001e-11
-3.95985e-11
-8.2783e-11
-4.97985e-11
7.24248e-11
-3.66255e-11
5.11061e-11
-4.86341e-11
-4.93729e-11
6.6586e-11
-3.85623e-11
1.19114e-10
8.13817e-11
-4.73824e-11
-1.10723e-10
-1.46324e-10
2.54251e-11
-4.0797e-11
-6.57865e-12
1.16922e-11
-6.26894e-11
-8.31832e-11
-9.19448e-11
-4.09561e-11
-5.84363e-11
-3.59686e-11
-1.15732e-10
-1.18879e-10
-1.19886e-10
-1.10212e-10
-5.67677e-11
-4.97698e-11
4.94052e-11
4.78382e-11
1.82659e-11
6.88444e-11
4.51396e-11
-5.12186e-11
-3.8658e-11
4.44691e-11
-7.59981e-11
-8.06641e-11
6.33898e-11
-2.83467e-11
-4.19004e-13
-8.49061e-11
-7.30974e-11
-7.31564e-11
2.12896e-11
8.76548e-11
-7.17601e-11
7.0406e-11
2.56063e-11
-7.01179e-11
-1.22441e-10
-5.16551e-11
-4.15411e-11
-5.00196e-11
-4.87565e-11
7.7524e-11
-9.67201e-11
-5.00697e-11
-3.96939e-11
1.79599e-11
-4.19585e-11
-8.74986e-11
-4.8843e-11
-4.1001e-11
7.68724e-11
-8.60797e-11
2.82119e-11
-1.15676e-10
-5.98161e-11
-1.3541e-12
2.43907e-11
1.09353e-11
)
;

boundaryField
{
    front
    {
        type            empty;
    }
    back
    {
        type            empty;
    }
    bottom
    {
        type            uniformFixedValue;
        uniformValue    
        {
            type            scale;
            scale           
            {
                type            squarePulse;
                start           0.3;
                duration        0.3;
            }
            xScale          
            {
                type            constant;
                value           1;
            }
            value           
            {
                type            constant;
                value           15.1;
            }
        }
        value           uniform 0;
    }
    left
    {
        type            zeroGradient;
    }
    top
    {
        type            zeroGradient;
    }
    right
    {
        type            zeroGradient;
    }
    inner_arc
    {
        type            zeroGradient;
    }
}


// ************************************************************************* //
