/*--------------------------------*- C++ -*----------------------------------*\
  =========                 |
  \\      /  F ield         | OpenFOAM: The Open Source CFD Toolbox
   \\    /   O peration     | Website:  https://openfoam.org
    \\  /    A nd           | Version:  9
     \\/     M anipulation  |
\*---------------------------------------------------------------------------*/
FoamFile
{
    format      ascii;
    class       surfaceScalarField;
    location    "0.73";
    object      phi;
}
// * * * * * * * * * * * * * * * * * * * * * * * * * * * * * * * * * * * * * //

dimensions      [0 3 -1 0 0 0 0];

internalField   nonuniform List<scalar> 
816
(
2.54988e-18
8.48386e-17
-8.73885e-17
-2.94897e-17
1.18803e-16
-8.93133e-17
-1.47563e-16
1.50113e-16
7.80316e-18
-1.0545e-17
2.7418e-18
8.30918e-17
-8.30918e-17
-4.60618e-17
5.77811e-17
-1.17194e-17
-8.6881e-17
8.6881e-17
-7.80107e-17
7.80107e-17
-1.76744e-16
5.2682e-19
1.76217e-16
2.1679e-17
-5.11687e-17
4.43022e-17
-9.0364e-17
2.06839e-16
-1.49752e-16
-5.70875e-17
3.22047e-18
-2.56173e-18
-6.58743e-19
1.99933e-16
-1.81147e-16
-1.87859e-17
-1.97426e-16
1.74256e-16
2.31699e-17
-1.51757e-16
2.49806e-16
-9.80489e-17
-9.46505e-17
-2.69728e-17
1.21623e-16
1.8076e-16
-1.46702e-17
-1.6609e-16
2.42877e-17
1.82551e-16
8.30034e-17
-2.59747e-16
1.46765e-17
-6.87329e-18
1.87351e-17
-1.70492e-16
9.90187e-17
-4.15712e-17
-5.74474e-17
2.53671e-17
1.15898e-17
-3.69569e-17
2.9387e-17
-4.01993e-18
-1.70007e-16
4.15979e-17
1.28409e-16
1.18387e-17
-1.06725e-17
-1.16621e-18
3.55657e-18
-7.37874e-18
3.82217e-18
5.6613e-17
6.219e-17
8.69867e-17
1.6282e-16
1.30005e-17
-9.44391e-18
1.70892e-17
4.06919e-17
2.64079e-16
-1.77092e-16
3.53177e-17
-2.44843e-17
-1.08334e-17
-1.95071e-17
-1.77919e-16
-4.27893e-17
2.05609e-16
1.83293e-17
1.81603e-16
-2.4883e-17
-1.45124e-16
2.57059e-16
-9.36073e-17
-1.63451e-16
5.16365e-17
3.14553e-17
-6.47625e-17
-5.3723e-17
5.31277e-17
1.75465e-16
-1.20922e-18
-8.94129e-17
-4.28273e-17
1.3224e-16
-5.21984e-17
-3.46826e-17
6.7374e-17
1.63601e-16
-1.63074e-16
1.09495e-16
3.88141e-18
7.9573e-18
-9.69298e-18
-2.39582e-18
1.20888e-17
2.69311e-18
5.27361e-19
7.22947e-17
2.6724e-17
2.06298e-17
1.46879e-17
-1.14991e-18
1.14991e-18
5.61783e-17
-1.68549e-17
-3.93234e-17
-4.15712e-17
-8.94129e-17
-2.05003e-16
1.10353e-16
7.05523e-17
-1.13342e-16
-2.42431e-17
3.3541e-17
-6.05138e-17
-7.5184e-17
6.05138e-17
-5.87172e-18
-1.75275e-16
4.06516e-18
-2.60194e-18
-1.46321e-18
1.77044e-16
-1.57811e-18
1.69155e-16
9.49241e-17
-7.29189e-17
1.17221e-16
-7.52439e-17
2.19919e-16
-1.44675e-16
3.99954e-17
1.46726e-16
-1.86721e-16
4.90268e-18
7.39622e-18
3.89027e-18
1.74883e-19
1.49294e-16
7.1985e-17
-2.21279e-16
4.15358e-17
-4.8334e-17
6.79822e-18
7.06342e-17
-7.06342e-17
-1.04894e-16
1.87897e-16
-1.41795e-16
3.69014e-17
1.32855e-18
-3.21375e-17
-5.5251e-17
8.73885e-17
-1.42786e-16
-5.63347e-17
1.9912e-16
8.48386e-17
6.42127e-17
-6.42127e-17
-9.46065e-17
9.46065e-17
-1.01931e-16
1.98689e-16
-9.67585e-17
5.08747e-17
1.56334e-17
-2.39582e-18
5.22882e-17
3.89011e-18
-4.42335e-18
-1.39002e-16
1.43426e-16
1.21673e-16
5.2675e-18
-1.26941e-16
2.328e-18
7.27619e-17
-1.74692e-16
4.86301e-18
1.49668e-16
-1.54532e-16
6.94664e-18
-5.96887e-18
-9.77772e-19
-1.73293e-16
-1.76589e-18
1.57567e-16
-1.55801e-16
-9.75025e-19
4.91169e-19
2.1679e-17
1.39414e-17
-1.9186e-16
-2.20131e-18
1.79245e-16
-1.23852e-16
1.63847e-16
1.99576e-18
2.61559e-18
-4.61135e-18
-1.25745e-16
5.18375e-19
-5.18375e-19
-2.47357e-17
2.06339e-16
2.98164e-17
6.47625e-17
5.08747e-17
-6.54402e-18
-6.40902e-17
9.05927e-17
1.15016e-16
1.88324e-16
1.75059e-16
-2.1691e-16
4.18512e-17
3.05861e-18
-1.06285e-18
-7.80381e-18
-2.74114e-18
7.95572e-17
1.15196e-16
-1.94753e-16
-2.36773e-18
1.24041e-16
-4.56657e-19
9.75027e-19
-8.06264e-18
1.36472e-16
-1.07532e-16
1.29255e-17
3.74272e-17
1.25257e-17
2.15074e-18
-4.33193e-17
-1.6005e-16
1.73798e-16
-1.37477e-17
-2.70911e-17
-1.15694e-16
1.58529e-16
-1.11345e-16
-4.71839e-17
1.52303e-16
3.32106e-17
-1.81337e-16
1.04318e-18
1.80294e-16
-1.86576e-16
2.65265e-17
2.6253e-18
4.32134e-18
-4.5065e-17
4.5065e-17
-1.64e-16
-1.73364e-17
-1.28569e-18
1.65087e-16
-1.63802e-16
-2.51547e-18
-1.47236e-16
-1.32531e-16
-8.43784e-17
-1.29111e-16
1.30155e-16
-2.23944e-18
4.882e-17
-4.65806e-17
-3.4273e-17
-1.31351e-16
1.54287e-18
2.77817e-17
-2.93245e-17
-5.31277e-17
-1.88856e-18
-1.61563e-16
-1.87228e-17
-9.70132e-17
1.15736e-16
1.44049e-19
-1.01469e-18
8.70645e-19
1.66077e-16
-1.32866e-16
-2.02385e-16
-5.3497e-18
2.07735e-16
5.84706e-17
-5.84706e-17
7.05523e-17
7.89507e-18
3.717e-17
1.95318e-17
1.85104e-16
-2.04636e-16
-1.64127e-18
5.52269e-18
-7.65886e-17
1.33202e-16
7.42925e-19
1.86714e-18
-2.61006e-18
-5.5251e-17
1.82181e-17
-2.20603e-16
-1.57057e-16
4.882e-17
-1.58647e-16
1.53297e-16
-1.58101e-17
1.58101e-17
1.47354e-16
-1.42672e-17
-1.33017e-16
1.52549e-16
-1.23806e-19
8.66731e-19
1.52211e-17
-1.62653e-17
1.04426e-18
-1.51358e-17
-1.43511e-16
5.3723e-17
-5.62384e-17
6.05162e-17
-6.18018e-17
-5.43188e-18
4.17734e-17
-3.63415e-17
2.85998e-18
-1.35877e-16
5.67028e-18
-7.1335e-18
7.3879e-18
-1.71761e-18
1.8991e-16
-8.06745e-17
6.55387e-17
-9.29778e-18
-3.41641e-18
1.27142e-17
-5.32256e-17
5.60856e-17
-3.367e-17
1.61041e-16
-1.27371e-16
-1.19964e-16
1.35597e-16
8.71644e-18
6.03192e-18
1.59056e-16
1.44048e-19
-1.13342e-16
7.68745e-17
8.16543e-17
1.90012e-16
9.03364e-18
-1.99045e-16
-1.23558e-17
3.05802e-18
-1.88949e-16
-9.07334e-18
1.98022e-16
1.59319e-16
-6.02151e-18
1.49353e-16
3.1961e-18
5.11687e-17
-8.62447e-18
-6.22303e-18
1.48475e-17
-8.66728e-19
2.61802e-18
-1.75129e-18
1.01469e-18
-2.65597e-18
1.55866e-16
-1.58387e-16
2.52012e-18
1.53524e-16
-1.50245e-16
-3.27876e-18
-1.23807e-19
2.74758e-18
-1.95492e-17
-4.46635e-17
6.59659e-18
9.70742e-18
-1.1425e-17
6.2879e-18
-7.93541e-18
1.31232e-16
6.87688e-18
-1.0389e-16
2.13182e-16
1.05059e-17
-1.74506e-16
2.55075e-19
9.45234e-18
-1.20845e-16
1.73536e-17
-4.82783e-18
-2.94647e-17
3.63415e-17
1.73287e-16
-1.25749e-16
-1.01282e-17
-1.101e-16
1.17995e-16
5.95172e-17
-6.55387e-17
5.92817e-17
-5.60856e-17
1.10304e-16
-1.32709e-17
-2.21082e-18
1.54817e-17
-1.23558e-17
-1.95492e-17
4.17734e-17
-3.22633e-17
-1.21793e-16
-8.06745e-17
5.95172e-17
5.92817e-17
1.71534e-18
-7.52451e-18
1.05011e-16
-9.74869e-17
-5.32256e-17
-1.9494e-17
-4.40563e-18
-2.65596e-18
-4.65806e-17
-3.05801e-18
2.4737e-17
6.05161e-17
4.16674e-18
2.17479e-17
-2.59147e-17
1.51026e-17
1.59738e-17
1.57824e-16
2.1945e-17
1.87469e-17
9.14225e-18
-2.96455e-17
2.05032e-17
1.20888e-17
1.52107e-16
-1.84371e-16
3.45429e-18
-2.05246e-16
2.03668e-16
2.96455e-17
-3.717e-17
2.61802e-18
5.35982e-18
7.17276e-17
2.63722e-17
-8.05064e-17
2.05526e-17
1.73881e-16
2.4505e-17
-2.0035e-17
1.78242e-17
1.21999e-17
-5.53045e-18
-1.45045e-17
1.72138e-17
-1.30471e-17
-2.94647e-17
6.18018e-17
2.15178e-17
5.28488e-18
-2.68027e-17
5.62384e-17
1.62175e-17
1.16916e-17
6.13253e-18
9.8196e-18
5.28297e-18
7.01328e-18
-4.80716e-18
1.02791e-17
-1.02791e-17
1.51818e-17
-1.31987e-16
-1.58533e-16
3.27648e-18
-1.95418e-17
-7.51055e-18
7.51055e-18
-5.35982e-18
-3.33763e-17
-1.36866e-17
1.42672e-17
-5.80648e-19
1.36866e-17
-6.17601e-18
2.3302e-17
1.51818e-17
-1.65363e-16
-3.18906e-17
2.84741e-17
7.33971e-18
-1.27149e-17
5.37521e-18
1.4353e-17
2.05078e-17
3.17608e-18
1.43154e-17
-1.74915e-17
-3.27792e-18
6.45401e-18
-8.05881e-17
7.44474e-18
-2.01597e-17
2.36115e-17
-1.19199e-17
1.5348e-17
-8.91207e-18
-1.93579e-17
1.25652e-16
2.04855e-17
6.18732e-18
1.86015e-17
-2.47889e-17
-4.82844e-18
1.70612e-17
3.42432e-18
1.79575e-16
-2.09729e-18
1.91585e-17
-4.51791e-18
2.097e-16
-2.11598e-17
2.45841e-17
-1.39723e-17
-8.71746e-18
1.85371e-17
2.45169e-18
2.84363e-17
-6.54591e-19
-2.07647e-17
8.84486e-18
3.41431e-17
-1.98278e-17
-7.51833e-18
7.9429e-17
-1.77993e-16
9.85644e-17
4.34159e-17
-4.34159e-17
-3.97492e-17
3.97492e-17
-4.73354e-17
4.73354e-17
4.72132e-17
-4.72132e-17
5.16365e-17
-5.21984e-17
-1.16193e-17
-2.50014e-17
3.66207e-17
6.7374e-17
-2.74635e-17
1.99452e-17
-6.61647e-17
6.61647e-17
-6.40902e-17
-6.39634e-17
6.39634e-17
-1.40288e-17
1.02969e-16
-8.89397e-17
3.3541e-17
-6.67963e-18
-5.50523e-17
6.17319e-17
-4.06024e-17
4.06024e-17
-2.63706e-17
1.64027e-16
-1.37657e-16
-6.90811e-17
-1.88866e-16
3.48247e-18
-7.5184e-17
-7.16816e-17
1.43667e-16
5.60484e-17
-1.09437e-16
1.96801e-16
7.22947e-17
-9.34635e-18
-3.91951e-18
7.46392e-18
1.05008e-16
1.66151e-17
-2.60025e-17
-1.08074e-16
1.34076e-16
7.69661e-17
-1.34444e-16
-8.03025e-18
-8.53162e-19
4.91169e-19
-6.42664e-17
-1.13727e-16
9.97607e-17
-1.44855e-16
-2.52849e-16
8.67589e-17
-3.9502e-17
-9.6978e-17
1.3648e-16
-1.71183e-17
-2.3989e-17
-7.35826e-19
2.47248e-17
-1.53229e-16
-1.42991e-17
1.42991e-17
-2.21029e-18
-3.0884e-18
6.52784e-17
-6.79077e-20
-4.50471e-19
4.63819e-18
-1.42295e-16
-1.61794e-16
1.48591e-16
-1.31976e-16
6.11575e-17
-1.60918e-16
5.14811e-17
1.86924e-16
1.2185e-16
5.79344e-17
-2.76219e-17
-1.11381e-16
4.62574e-17
1.03411e-16
-8.06221e-17
-1.40657e-16
9.00157e-18
4.70562e-17
-1.58401e-16
-1.3771e-16
1.23132e-16
1.63091e-16
1.4961e-16
-1.77437e-16
2.78278e-17
-4.99961e-17
-1.63003e-17
-3.43628e-17
-4.96059e-18
-4.99961e-17
-3.4761e-17
-2.19745e-16
-1.96251e-17
2.3937e-16
1.33979e-17
5.61119e-17
7.61284e-17
2.56016e-20
4.65568e-19
-4.57836e-17
4.57836e-17
1.53244e-16
3.50799e-17
7.17442e-17
1.10335e-16
-1.38094e-16
-1.6827e-16
2.59747e-17
1.16638e-17
4.49243e-18
2.28793e-17
-2.931e-17
6.43075e-18
-1.00452e-17
7.02388e-18
-9.59636e-17
2.22986e-17
-1.65851e-16
1.46226e-16
-6.79529e-18
-7.37874e-18
1.3311e-16
-6.79105e-20
-6.87285e-17
2.56027e-20
-1.22982e-16
2.2491e-17
-7.80309e-18
2.16486e-17
-7.90326e-17
1.77597e-16
2.67434e-17
-1.35044e-16
-5.97092e-17
-7.17547e-17
-5.37209e-17
-1.53018e-18
1.01446e-16
3.17558e-17
-9.39368e-18
-1.67929e-17
4.43864e-17
5.09108e-18
4.37732e-17
2.67791e-17
1.27421e-16
1.79616e-16
7.02589e-18
-3.10149e-17
3.82217e-18
-5.37209e-17
-1.72843e-18
2.59908e-18
-2.40702e-17
-9.31192e-19
1.26414e-16
7.99253e-17
-1.42357e-16
4.37732e-17
5.61119e-17
3.01913e-17
1.96254e-16
1.84227e-17
3.79426e-18
-1.10266e-16
-4.83896e-20
4.83896e-20
-1.51333e-18
1.692e-16
4.78429e-20
-4.78429e-20
1.42612e-16
-8.94723e-19
-3.44782e-19
1.45755e-16
-4.83918e-20
4.78423e-20
1.68279e-16
-4.1865e-17
-1.1966e-16
2.05086e-17
-1.59287e-16
1.4372e-18
1.16188e-18
1.07475e-16
-1.11395e-16
-7.61322e-20
-1.11776e-17
-1.81325e-17
1.98068e-17
-1.24106e-17
9.82066e-20
-9.9293e-19
1.95454e-18
-9.90232e-17
9.817e-17
1.9815e-17
1.56808e-17
7.97826e-18
-1.71052e-16
-6.42134e-17
1.75965e-17
1.26461e-17
1.44696e-16
1.92434e-19
-1.71653e-19
5.30077e-17
-7.92081e-17
-1.93603e-17
-1.8708e-16
-2.14896e-17
-1.19942e-16
-5.49287e-18
9.32185e-17
-9.20735e-17
3.44947e-18
1.16302e-19
-7.3445e-20
1.74058e-17
-6.03178e-17
-3.69669e-17
-1.89508e-17
)
;

boundaryField
{
    front
    {
        type            empty;
        value           nonuniform List<scalar> 0();
    }
    back
    {
        type            empty;
        value           nonuniform List<scalar> 0();
    }
    bottom
    {
        type            calculated;
        value           nonuniform List<scalar> 
12
(
-6.65081e-17
-1.85514e-16
1.54057e-16
-1.54237e-16
8.96487e-17
2.05032e-17
-2.05526e-17
1.56492e-16
1.85484e-16
-1.56168e-16
-8.95002e-17
6.62964e-17
)
;
    }
    left
    {
        type            calculated;
        value           uniform 0;
    }
    top
    {
        type            calculated;
        value           uniform 0;
    }
    right
    {
        type            calculated;
        value           uniform 0;
    }
    inner_arc
    {
        type            calculated;
        value           uniform 0;
    }
}


// ************************************************************************* //
