/*--------------------------------*- C++ -*----------------------------------*\
  =========                 |
  \\      /  F ield         | OpenFOAM: The Open Source CFD Toolbox
   \\    /   O peration     | Website:  https://openfoam.org
    \\  /    A nd           | Version:  9
     \\/     M anipulation  |
\*---------------------------------------------------------------------------*/
FoamFile
{
    format      ascii;
    class       volVectorField;
    location    "0.73";
    object      U;
}
// * * * * * * * * * * * * * * * * * * * * * * * * * * * * * * * * * * * * * //

dimensions      [0 1 -1 0 0 0 0];

internalField   nonuniform List<vector> 
578
(
(2.16398e-09 2.66526e-09 0)
(1.70687e-09 2.13624e-09 -8.06377e-27)
(3.33651e-09 4.00402e-09 0)
(-1.09144e-10 -2.50035e-10 -2.05447e-27)
(6.20214e-10 -1.32667e-09 0)
(1.40721e-09 -2.06923e-10 -1.15437e-27)
(6.41362e-10 1.36676e-09 -5.47116e-28)
(6.42388e-10 -1.17109e-09 -6.15148e-27)
(3.29189e-09 -5.37516e-09 0)
(8.68183e-10 1.29445e-09 1.0167e-26)
(2.22317e-09 -5.79872e-10 1.17185e-27)
(2.25249e-09 -4.3278e-09 -3.92009e-28)
(-7.40544e-11 -2.16088e-11 0)
(2.33857e-09 -4.7854e-09 8.09592e-27)
(2.35499e-09 4.78367e-09 0)
(4.19638e-09 -4.79319e-09 -1.01785e-28)
(3.10781e-09 1.48643e-09 2.49587e-27)
(3.60578e-09 3.28228e-09 -7.4885e-27)
(2.01723e-09 -3.87942e-09 1.91164e-27)
(3.59025e-09 -5.28574e-09 5.07032e-27)
(-1.75234e-10 -3.54626e-10 2.11534e-27)
(3.50582e-09 -4.37999e-09 -7.06052e-28)
(1.92052e-09 -8.69284e-10 -1.10582e-27)
(-3.77353e-12 8.97337e-10 2.24418e-29)
(-3.33543e-11 7.9744e-10 0)
(1.96933e-09 -3.98838e-09 3.81768e-28)
(-9.68092e-11 2.55646e-10 0)
(-4.54541e-11 2.2674e-10 -1.75403e-28)
(2.03269e-09 1.72402e-09 6.02519e-27)
(4.17818e-09 -4.87604e-09 0)
(-9.37058e-11 3.7595e-10 2.96538e-27)
(9.59729e-10 -1.97118e-10 -4.80788e-28)
(4.2088e-09 -5.02023e-09 6.91244e-28)
(-1.72752e-10 8.36953e-10 4.63394e-28)
(2.05034e-09 4.24053e-09 -4.86969e-27)
(3.59099e-09 -4.09345e-09 -1.90968e-27)
(2.03545e-09 -4.20735e-09 -7.16784e-27)
(1.88024e-09 -3.61798e-09 0)
(4.00434e-09 4.63325e-09 1.61635e-27)
(1.02465e-09 -2.14718e-09 0)
(1.0748e-09 -2.3653e-09 6.89647e-27)
(1.15654e-09 -2.01862e-09 3.32977e-27)
(1.03186e-09 -1.99917e-09 7.53761e-27)
(2.01752e-09 4.14251e-09 -1.66988e-28)
(2.48078e-09 -2.70236e-09 0)
(1.04862e-09 2.20575e-09 2.37132e-28)
(1.08763e-09 2.41806e-09 5.39546e-27)
(2.88827e-09 -4.78375e-09 3.3593e-27)
(4.06548e-09 4.71485e-09 -1.64925e-27)
(-1.31517e-10 2.26731e-10 0)
(1.31275e-10 3.02488e-10 1.14348e-28)
(-6.69098e-11 -3.2049e-11 7.49497e-30)
(2.15993e-09 -1.20862e-09 2.42081e-27)
(-2.06845e-10 7.61129e-10 -4.58297e-28)
(-1.94606e-11 -2.20553e-12 0)
(1.2995e-09 -4.92373e-11 -2.38606e-27)
(8.47658e-10 -2.64203e-10 4.55693e-28)
(1.40602e-09 -1.3249e-09 0)
(3.9252e-09 2.75536e-09 4.60274e-27)
(2.30347e-09 -2.58512e-09 -1.67742e-27)
(4.04229e-09 3.51611e-09 2.30453e-27)
(1.72227e-09 8.66226e-10 3.58795e-27)
(2.19697e-09 1.95536e-09 5.38577e-27)
(2.02912e-09 -4.19479e-09 -3.83739e-27)
(-1.12244e-10 1.56269e-11 -2.57384e-27)
(2.50888e-09 4.83469e-09 2.58477e-27)
(3.95092e-09 -5.06574e-09 -3.94249e-27)
(2.7604e-09 -1.06801e-09 0)
(4.22693e-09 -4.30846e-09 1.15339e-28)
(2.37935e-09 -5.00328e-09 -2.52557e-27)
(-1.01517e-10 7.80797e-10 0)
(4.06875e-10 2.89622e-10 -2.94592e-27)
(-9.32092e-11 -2.40859e-12 5.40608e-27)
(2.46638e-09 -5.02525e-09 -6.77844e-27)
(1.13969e-09 2.48809e-10 0)
(6.03038e-10 -1.27119e-09 -3.7503e-27)
(2.93087e-09 -4.50568e-09 -1.06281e-26)
(2.3442e-09 -3.59387e-09 5.7918e-27)
(-1.17345e-10 -2.41308e-11 -2.61827e-27)
(2.00824e-09 2.22594e-09 6.31792e-28)
(3.25696e-09 -3.21106e-09 -3.97637e-27)
(1.11486e-09 1.49599e-09 -1.30159e-26)
(7.88762e-10 -1.12965e-09 -8.37345e-27)
(1.08524e-09 -1.48962e-09 0)
(3.7203e-09 4.98287e-09 3.81857e-28)
(7.58685e-10 1.86445e-09 -6.18391e-27)
(1.30745e-10 7.39784e-11 0)
(1.82717e-09 1.0291e-10 -1.50363e-27)
(1.65777e-09 -3.51966e-09 5.58544e-27)
(1.70618e-09 3.88959e-09 2.70088e-29)
(-1.4627e-10 3.48347e-10 -2.99544e-27)
(3.08985e-09 4.37974e-09 1.1417e-30)
(1.65677e-09 3.57471e-09 4.31337e-27)
(-1.36205e-10 -8.69577e-11 -1.12735e-27)
(4.37305e-09 -4.63078e-09 1.1857e-28)
(3.61075e-09 -4.14088e-09 0)
(-4.25498e-11 1.75934e-13 -2.70394e-27)
(-3.22787e-11 -6.91715e-12 0)
(3.64062e-10 4.36856e-10 2.47164e-27)
(2.38067e-09 4.84137e-09 -4.94577e-27)
(2.2431e-09 4.2054e-09 -2.82215e-28)
(2.19186e-09 -4.77497e-09 -2.80642e-27)
(-1.09617e-10 6.18791e-11 0)
(3.13715e-09 3.46967e-09 0)
(-9.63229e-12 3.9065e-12 -1.14501e-27)
(2.36928e-09 -4.85251e-09 -7.01594e-27)
(1.0182e-09 2.58527e-10 0)
(1.08164e-09 -2.30011e-09 -4.49144e-27)
(3.53198e-10 9.65012e-10 3.83784e-27)
(1.1851e-09 -2.38853e-09 8.9834e-27)
(3.49599e-09 -4.39167e-09 -2.06742e-27)
(2.26638e-09 -4.78467e-09 -1.97961e-27)
(3.89853e-09 -5.20609e-09 -7.55686e-30)
(4.22459e-09 -3.79491e-09 2.60676e-28)
(4.17749e-09 -4.34837e-09 -2.59161e-28)
(-7.13271e-11 3.31495e-11 -2.9204e-27)
(-1.23699e-10 -2.10736e-10 0)
(4.11849e-09 3.65364e-09 1.54438e-27)
(1.46293e-09 3.2491e-09 0)
(-3.16219e-11 6.85789e-12 -2.92968e-27)
(1.57543e-09 -3.17602e-09 5.08039e-27)
(1.80466e-09 -2.47992e-09 0)
(2.27921e-09 -4.493e-09 7.05316e-28)
(-1.21847e-10 -3.99318e-10 -2.6082e-27)
(1.64733e-09 -2.16085e-09 0)
(1.92108e-09 4.75009e-09 1.333e-27)
(2.65162e-09 -2.6408e-09 4.64979e-27)
(3.88411e-09 -4.32463e-09 -7.56404e-28)
(2.46763e-09 5.02701e-09 -4.7529e-27)
(1.7308e-09 4.86055e-09 0)
(2.40318e-09 4.79688e-09 5.73193e-27)
(1.92301e-09 4.90328e-09 0)
(-1.32446e-10 -1.25575e-10 -1.26566e-27)
(3.89779e-10 -7.8697e-10 -3.88712e-27)
(2.39397e-09 4.95938e-09 -5.19204e-27)
(2.20792e-09 3.90538e-09 0)
(1.92056e-09 -3.54566e-09 8.36839e-27)
(-7.03263e-11 1.79995e-11 2.98963e-27)
(4.24458e-09 -3.40217e-09 -6.12744e-30)
(2.01805e-09 3.8933e-09 -4.78417e-27)
(9.08526e-10 1.68659e-09 0)
(1.73221e-09 4.78652e-09 0)
(1.68555e-09 3.2231e-09 0)
(-2.17643e-11 -8.30464e-10 0)
(8.49794e-10 -1.6702e-09 4.88368e-27)
(4.09435e-09 5.0506e-09 0)
(1.43214e-09 3.26062e-09 2.98071e-27)
(-1.24719e-11 2.11235e-11 -3.46242e-27)
(2.47398e-09 -4.99362e-09 0)
(1.65795e-09 4.50344e-09 0)
(2.8255e-09 -5.31652e-09 0)
(8.17162e-10 1.19171e-09 7.11865e-29)
(9.45804e-10 -1.01514e-09 8.1785e-27)
(7.20683e-10 -1.4576e-09 3.50614e-27)
(2.59275e-09 5.09931e-09 -1.53935e-28)
(-6.81318e-11 1.35002e-10 -3.1258e-27)
(3.08755e-09 2.03986e-09 -6.78667e-27)
(-3.69132e-11 -5.15894e-11 -2.22067e-27)
(7.86074e-10 8.44905e-10 1.7476e-27)
(2.92952e-09 -5.39571e-09 0)
(2.5056e-09 -4.84298e-09 0)
(2.25013e-09 -4.19911e-09 0)
(4.7318e-10 8.79236e-10 0)
(2.50223e-09 -4.55629e-09 1.0794e-28)
(5.76781e-12 -3.28036e-10 0)
(1.74057e-09 4.25515e-09 -1.65692e-27)
(-2.38337e-11 -5.58859e-10 0)
(2.22305e-09 4.26236e-09 -4.2655e-29)
(-1.16628e-11 -1.92653e-11 0)
(-2.96053e-10 2.67179e-10 0)
(2.33061e-09 -3.99199e-09 6.78244e-27)
(1.0483e-09 -1.90952e-09 0)
(1.21939e-09 2.12747e-09 0)
(7.08781e-10 1.41213e-09 -5.85595e-29)
(1.87228e-09 3.52713e-09 0)
(-1.70502e-10 3.13694e-11 0)
(-2.18986e-10 3.33494e-12 2.69915e-27)
(4.2404e-09 3.00252e-09 -5.546e-28)
(1.34391e-09 -2.32362e-09 -6.39717e-27)
(3.87127e-10 -3.03668e-10 0)
(1.03905e-09 1.91065e-09 4.57126e-29)
(2.62515e-09 3.48558e-09 9.45354e-27)
(1.25961e-09 3.45389e-09 0)
(-1.78872e-10 -3.66404e-11 -4.83212e-27)
(2.66917e-09 4.52782e-09 0)
(-4.33911e-12 1.3853e-12 2.37519e-27)
(1.41734e-09 -1.75181e-09 1.67683e-27)
(2.47585e-09 5.07057e-09 4.9505e-27)
(2.6917e-09 5.22636e-09 0)
(1.31935e-10 -3.03173e-10 0)
(2.68015e-09 -5.21841e-09 0)
(2.10999e-09 -3.88527e-09 7.5664e-27)
(2.28938e-09 -3.05385e-09 7.60043e-28)
(1.98812e-09 3.72694e-09 4.18411e-29)
(1.54306e-09 2.25068e-09 8.34879e-27)
(-4.06983e-10 7.51977e-11 4.75914e-27)
(-2.35863e-11 -6.52058e-11 1.71171e-27)
(-2.43593e-11 6.71558e-11 -3.48973e-27)
(2.08579e-09 3.85497e-09 0)
(2.00214e-09 -3.73248e-09 0)
(-4.65985e-12 -1.68707e-12 0)
(-1.92421e-10 -8.20769e-11 2.3974e-27)
(9.92689e-10 -1.36774e-09 7.66605e-27)
(-3.4461e-10 1.50923e-10 -4.81376e-27)
(-2.84305e-10 1.49469e-11 -1.36519e-27)
(2.28783e-09 -4.3012e-09 -1.5163e-26)
(2.47414e-09 4.56397e-09 0)
(2.05276e-09 2.67725e-09 1.80488e-28)
(2.7208e-09 -5.35134e-09 0)
(1.26563e-09 1.47338e-09 -2.69371e-29)
(1.10252e-09 2.48216e-09 -1.36126e-27)
(2.7345e-09 5.35449e-09 0)
(2.23946e-09 4.65963e-09 0)
(-3.21077e-10 -5.73864e-11 1.27209e-27)
(1.88637e-09 3.7661e-09 0)
(-1.69346e-10 -5.20076e-10 2.42818e-27)
(2.34612e-09 4.44923e-09 0)
(2.35364e-09 -4.45438e-09 -2.92405e-29)
(2.65734e-09 5.27128e-09 5.48936e-27)
(5.73214e-10 1.21008e-09 0)
(2.64407e-09 -5.25326e-09 8.06414e-27)
(2.11664e-09 4.05674e-09 5.21244e-27)
(1.34716e-09 -2.84851e-09 -6.99593e-27)
(1.16438e-09 -2.15986e-09 -7.45568e-27)
(1.09742e-09 2.01388e-09 0)
(1.3366e-09 2.79754e-09 3.38389e-29)
(-4.8281e-10 -2.98442e-11 -2.52779e-27)
(-9.66706e-12 -1.62298e-11 0)
(-9.61811e-12 1.80443e-11 2.58413e-27)
(4.87004e-11 -2.66307e-10 5.348e-27)
(6.61966e-10 9.97072e-10 0)
(3.47722e-10 -3.9902e-10 6.51781e-27)
(3.79806e-10 7.47844e-10 4.67624e-29)
(1.48938e-09 -4.10213e-09 0)
(1.49469e-09 4.10492e-09 0)
(7.84376e-10 -1.28487e-09 -4.03793e-27)
(5.82486e-10 -1.07589e-09 -6.21281e-27)
(5.84976e-10 1.07011e-09 -4.38081e-27)
(-8.67418e-11 -5.4268e-11 2.62204e-27)
(1.10543e-09 -2.50249e-09 0)
(5.1567e-10 9.5697e-10 -4.50526e-27)
(5.3572e-10 -9.05354e-10 -6.54753e-27)
(-4.54356e-10 1.22813e-10 6.61126e-28)
(9.71592e-10 1.79807e-09 -8.97687e-29)
(-1.51771e-11 5.17326e-11 5.21735e-27)
(4.30995e-10 -8.85491e-10 -5.02067e-27)
(4.39632e-10 8.31315e-10 0)
(3.79246e-10 2.86772e-10 0)
(6.44561e-10 1.06509e-09 0)
(-3.44594e-10 5.77872e-10 -1.24614e-27)
(-3.88195e-10 -5.92283e-11 0)
(2.1383e-09 4.90572e-09 4.76211e-29)
(9.56164e-10 -6.59617e-10 3.05008e-27)
(3.84775e-10 -1.02574e-09 0)
(4.1459e-11 2.69533e-10 0)
(1.71698e-09 -4.78404e-09 -1.1486e-27)
(3.51953e-11 -5.25542e-10 -6.9918e-27)
(2.91333e-09 5.41256e-09 -2.46527e-27)
(6.22246e-10 -1.14326e-09 -5.36949e-27)
(3.6845e-10 -2.68573e-10 -8.48572e-27)
(5.75816e-10 -1.22132e-09 1.86009e-27)
(5.49613e-10 1.00882e-09 -3.66177e-29)
(-1.74888e-11 -5.20991e-11 -2.93554e-27)
(-4.00432e-11 -1.42971e-10 3.75631e-27)
(2.7441e-09 3.16186e-09 -1.37461e-26)
(1.69799e-09 -3.64782e-09 2.89866e-27)
(8.14407e-10 -2.25489e-09 0)
(2.21838e-10 -5.19468e-10 -1.50174e-27)
(1.35946e-10 -6.79142e-11 -1.25901e-28)
(9.52211e-11 -4.69878e-10 0)
(9.70874e-11 4.71085e-10 0)
(1.9479e-09 4.69424e-09 0)
(1.13839e-09 -2.97619e-09 0)
(-4.98806e-10 1.62131e-12 1.24626e-27)
(-2.66855e-10 -1.19519e-10 1.28834e-27)
(-4.70395e-10 2.66312e-10 -2.45714e-27)
(-2.62589e-10 5.44616e-10 -1.47962e-27)
(2.23465e-10 5.17193e-10 -5.07397e-32)
(1.15653e-09 2.10939e-09 0)
(-3.50354e-10 6.10334e-10 -2.27501e-27)
(1.09701e-09 -2.02287e-09 6.10627e-29)
(-4.29046e-10 4.03714e-10 1.25565e-27)
(-4.69412e-10 -2.29635e-10 0)
(-3.96447e-10 -1.85809e-10 -1.26434e-27)
(-4.27819e-10 3.45628e-10 -1.16081e-27)
(8.21743e-10 1.5712e-09 0)
(3.11586e-10 -6.6223e-10 1.75087e-29)
(3.12615e-10 6.53041e-10 -2.15267e-27)
(-6.76695e-12 2.38406e-10 -6.37071e-28)
(-4.71479e-11 4.79731e-10 -1.24157e-27)
(1.43501e-09 -4.04383e-09 5.17152e-28)
(2.20036e-09 4.83791e-09 0)
(-3.22792e-10 3.5274e-10 2.41419e-27)
(6.25182e-10 1.1125e-09 -3.68114e-27)
(-2.60362e-11 -1.57516e-10 -7.6291e-28)
(-4.74201e-11 -2.43221e-10 1.18762e-27)
(5.51474e-10 -1.02147e-09 0)
(1.71545e-09 -4.8593e-09 2.1721e-27)
(-5.4732e-11 -5.03438e-10 -5.45786e-27)
(-5.81642e-11 -3.79396e-10 4.95897e-28)
(-3.22238e-10 6.81933e-10 2.31806e-27)
(1.44185e-09 4.03434e-09 0)
(-3.23646e-11 -2.67322e-10 2.15084e-27)
(-1.81678e-11 -2.9312e-10 2.58798e-27)
(-2.37377e-11 -1.06593e-10 -1.40845e-27)
(-3.61619e-11 2.80659e-10 1.52297e-27)
(1.64446e-09 -4.51266e-09 -8.0083e-28)
(4.02931e-10 -5.7536e-10 0)
(-2.58201e-10 1.66668e-10 5.68359e-28)
(-3.9026e-10 1.08671e-10 1.79964e-27)
(1.4319e-09 -3.28857e-09 0)
(3.68762e-10 -3.20751e-10 0)
(1.54349e-10 -5.95916e-11 1.10164e-27)
(1.13969e-09 2.96245e-09 1.61627e-31)
(-1.74262e-10 4.98176e-10 2.42036e-27)
(-4.33677e-10 -4.32815e-10 2.66806e-27)
(2.01848e-09 4.49395e-09 0)
(3.8572e-10 1.02334e-09 6.36728e-32)
(8.16747e-10 2.25095e-09 0)
(-2.53427e-10 6.90581e-10 -2.81095e-27)
(1.68138e-09 3.54467e-09 0)
(-4.26198e-10 -2.16589e-10 2.66398e-27)
(-4.1891e-10 3.07312e-10 -2.75053e-27)
(9.05611e-11 7.59473e-10 -1.93876e-28)
(-2.89039e-10 9.78347e-11 3.47357e-27)
(-3.23469e-10 -4.97816e-10 -2.45464e-27)
(2.82398e-09 5.32679e-09 0)
(1.77874e-09 3.34368e-09 0)
(2.60425e-09 -5.06029e-09 7.41542e-27)
(-1.8618e-10 -4.71312e-10 4.138e-27)
(-1.68093e-10 7.09647e-11 7.2168e-28)
(3.08404e-09 5.33235e-09 0)
(-1.20599e-10 -1.17081e-10 -1.33114e-27)
(-3.18756e-10 -6.90479e-10 6.34188e-28)
(1.53516e-09 3.04063e-09 0)
(3.2653e-11 5.36853e-10 -4.40706e-28)
(-3.13e-10 -2.7074e-10 1.42497e-29)
(-3.57727e-10 -6.21672e-10 -2.00927e-27)
(7.75347e-11 -8.76335e-10 0)
(-2.52251e-10 4.24186e-10 0)
(-4.14522e-10 -3.82529e-10 0)
(-4.4871e-10 -2.11822e-10 2.52152e-27)
(7.74295e-10 -2.38207e-10 -4.4266e-27)
(1.51343e-10 -7.42953e-10 1.69585e-28)
(2.58516e-10 2.64797e-10 -2.14114e-28)
(3.19517e-09 -4.10609e-09 0)
(4.34537e-09 -2.0151e-09 -5.78615e-28)
(3.75311e-10 8.46369e-10 -1.58391e-27)
(3.67784e-10 -8.11926e-10 2.21339e-27)
(4.17389e-10 9.01976e-10 -2.00024e-27)
(4.27797e-10 -9.1199e-10 -3.79342e-27)
(4.54962e-10 -9.11626e-10 0)
(4.64958e-10 9.23615e-10 1.28054e-27)
(6.59329e-10 -5.50107e-10 0)
(5.05765e-10 -1.11911e-09 0)
(5.05352e-10 1.16016e-09 0)
(6.30658e-10 2.53817e-10 9.86496e-28)
(5.75309e-10 1.20971e-09 -1.91767e-27)
(6.96208e-10 -1.30453e-09 -6.37189e-27)
(6.84529e-10 1.28612e-09 -1.05918e-27)
(2.66542e-09 3.94571e-11 6.50502e-28)
(7.68322e-10 1.79107e-10 0)
(1.55054e-09 6.29581e-12 -1.37169e-27)
(3.37063e-10 -8.47079e-10 0)
(9.87645e-10 1.59104e-11 -6.33148e-28)
(4.39047e-09 -8.85245e-11 0)
(1.97002e-09 -1.25614e-11 -6.26442e-28)
(3.99612e-09 -3.30068e-09 5.01696e-27)
(-2.51642e-10 -2.10853e-10 -1.13945e-27)
(1.2273e-09 1.26976e-09 0)
(2.16684e-09 -4.54499e-09 5.93986e-27)
(1.16373e-09 8.19884e-10 -2.67633e-27)
(2.31236e-09 2.69226e-09 -6.01793e-28)
(4.166e-09 -2.58173e-09 -1.41466e-27)
(4.06075e-09 4.98591e-09 -2.17205e-28)
(1.20597e-09 -7.51084e-10 2.48719e-27)
(-2.19129e-10 1.15084e-10 -3.49578e-27)
(7.80354e-10 1.72442e-09 0)
(7.7972e-10 -1.69607e-09 -2.97919e-27)
(3.44877e-09 9.93582e-10 -2.96436e-27)
(-1.73978e-11 2.15431e-12 4.48714e-27)
(8.42996e-10 -1.83608e-09 1.67908e-27)
(8.53669e-10 1.83754e-09 0)
(3.55545e-09 -4.14991e-10 -1.31158e-27)
(2.91214e-09 -2.16613e-10 8.01886e-28)
(3.9599e-09 1.25041e-11 2.88212e-27)
(1.53086e-09 -2.24021e-11 -1.32859e-28)
(1.05938e-09 2.29603e-09 0)
(1.16012e-09 2.31601e-09 -7.91804e-28)
(7.00407e-10 -1.61473e-09 0)
(-8.99841e-12 -4.0742e-12 0)
(4.45224e-09 -1.14969e-09 0)
(4.40072e-09 -9.22711e-10 1.76175e-28)
(1.72357e-09 -4.27111e-09 0)
(4.15168e-09 4.49933e-09 1.70138e-27)
(3.57629e-09 -4.82262e-10 -3.95714e-28)
(2.51579e-09 -2.01395e-09 0)
(-4.95481e-11 -8.42882e-10 1.93012e-27)
(4.27303e-09 -3.76195e-10 2.8944e-28)
(-1.78637e-11 5.11747e-10 0)
(3.78408e-09 4.4409e-09 -1.35193e-27)
(1.49122e-11 5.16052e-10 0)
(2.90474e-09 1.7353e-10 -1.68323e-27)
(1.57545e-09 1.15912e-09 0)
(-1.25648e-11 7.20589e-12 1.46519e-27)
(4.48632e-09 6.34072e-10 6.53563e-28)
(3.74872e-09 -3.18585e-09 -8.68543e-28)
(4.19337e-09 1.29454e-09 -1.75266e-27)
(3.53924e-09 -9.87904e-10 -2.9086e-28)
(3.81729e-09 -2.18437e-09 0)
(4.42176e-09 5.4028e-10 -6.56969e-28)
(3.61125e-09 3.28669e-09 2.02252e-27)
(7.5725e-10 -4.39385e-10 0)
(1.54377e-09 3.99774e-09 -1.35679e-27)
(4.3383e-09 2.23723e-09 1.77498e-27)
(4.01447e-09 -1.4048e-09 -1.6754e-28)
(1.92562e-09 -4.02103e-09 -3.35962e-27)
(1.90981e-09 4.04363e-09 -2.71443e-27)
(2.531e-09 -5.09835e-09 5.44569e-27)
(-2.03253e-10 2.33613e-10 0)
(2.2974e-09 4.78086e-09 5.49529e-27)
(-6.752e-13 3.20569e-10 0)
(2.48411e-09 -4.95048e-09 -2.30553e-28)
(2.34507e-09 4.76815e-09 2.54209e-27)
(2.11414e-09 4.70838e-09 0)
(1.86771e-09 -4.71652e-09 1.18113e-27)
(7.50269e-10 -1.85414e-09 0)
(1.31734e-09 2.30012e-10 0)
(3.37772e-10 -9.58604e-10 -2.28034e-28)
(1.89031e-09 -4.89876e-09 -1.45865e-27)
(3.52436e-09 5.20979e-09 1.34676e-27)
(1.69759e-09 1.08171e-11 1.37377e-27)
(2.14857e-09 -2.63913e-09 -1.30857e-27)
(-1.07372e-11 -6.82812e-12 0)
(3.72404e-10 9.09432e-10 0)
(2.17696e-09 -4.88064e-09 3.44485e-27)
(1.82678e-09 -3.83447e-09 -6.50355e-27)
(3.72779e-09 2.60051e-09 -2.42342e-27)
(1.25485e-09 -3.45799e-09 -1.37603e-29)
(4.27859e-09 1.37731e-09 4.12837e-27)
(4.23047e-09 2.16021e-09 -1.62005e-27)
(-2.73986e-10 -3.71851e-10 0)
(-7.13164e-11 -9.83812e-11 6.40249e-28)
(-1.7885e-10 -7.89628e-10 -1.185e-27)
(3.28282e-09 5.38443e-09 3.7339e-27)
(3.00402e-09 3.42438e-10 2.74596e-27)
(-1.01488e-10 -7.50862e-10 3.0878e-27)
(2.93952e-09 4.22909e-09 1.63309e-27)
(2.37508e-09 3.72853e-09 -3.01673e-27)
(-3.4194e-11 1.56303e-10 0)
(2.51119e-09 4.99017e-09 0)
(-6.32234e-13 2.51681e-12 0)
(2.14838e-09 4.60848e-09 -2.80212e-27)
(3.55031e-13 -2.00371e-12 -9.79438e-28)
(2.56421e-09 5.16143e-09 -5.24369e-27)
(-1.27735e-10 6.03045e-10 0)
(7.43153e-10 5.60712e-10 4.14316e-27)
(4.05637e-09 -2.01626e-09 1.16018e-28)
(6.83043e-10 4.43437e-10 0)
(4.11069e-09 4.10077e-09 0)
(1.6006e-09 -1.91128e-09 -4.63795e-27)
(1.29469e-09 1.57518e-09 -5.16384e-27)
(3.21971e-09 1.42213e-09 -6.79886e-28)
(6.5695e-10 -1.79029e-09 2.23088e-27)
(1.62119e-09 -7.57165e-11 2.89446e-27)
(2.79005e-09 -4.66154e-09 3.73121e-27)
(7.06837e-10 1.86075e-09 1.64196e-27)
(1.31932e-09 -1.55245e-09 0)
(3.80365e-09 1.15801e-09 -3.66916e-27)
(2.00694e-09 -4.54622e-09 1.84226e-28)
(-1.27667e-10 -8.89756e-10 4.3461e-28)
(-1.59118e-11 8.88021e-11 1.38279e-27)
(5.96047e-10 8.42075e-10 -1.95532e-27)
(-3.61119e-11 5.6044e-11 3.95671e-28)
(3.33794e-10 -6.87175e-10 -6.0603e-27)
(2.16229e-09 -4.60703e-09 -3.6928e-28)
(2.07024e-09 -4.86126e-09 -3.83895e-27)
(4.94084e-10 -6.90607e-10 -4.6145e-27)
(8.42793e-10 -1.18046e-09 8.57628e-28)
(2.67067e-09 -3.37413e-09 -6.73849e-28)
(-6.24078e-11 8.82225e-10 0)
(2.33143e-09 -2.52475e-10 -8.52044e-28)
(4.31583e-09 4.80614e-09 0)
(-3.8602e-11 -6.45583e-10 -4.00255e-27)
(-7.7255e-11 1.10778e-10 2.91153e-27)
(1.49315e-09 -3.95372e-09 1.79457e-27)
(1.13337e-10 -8.33889e-10 2.02842e-27)
(1.44742e-13 -1.63627e-12 -3.3944e-27)
(-3.50118e-11 2.02841e-11 -1.53115e-27)
(2.84133e-09 4.8264e-09 -3.51689e-27)
(4.15588e-14 1.53706e-12 0)
(3.84356e-09 5.22845e-09 -3.16013e-28)
(1.92224e-09 -4.71325e-09 -1.83483e-28)
(-4.25349e-11 -4.01704e-11 2.47373e-27)
(-1.82702e-10 1.60454e-10 0)
(7.42847e-10 1.7063e-09 4.32213e-27)
(-1.61437e-10 5.47172e-10 1.45817e-27)
(2.31281e-09 4.9179e-09 4.16477e-27)
(1.49844e-12 -3.72038e-13 2.32571e-27)
(1.49894e-12 4.44487e-13 -4.72879e-28)
(2.48458e-09 -5.0295e-09 -3.41628e-27)
(3.67033e-09 5.17383e-10 1.5166e-27)
(1.2665e-09 -3.24162e-09 -3.89524e-27)
(-3.30238e-10 -4.60638e-10 0)
(4.29548e-09 4.23262e-09 -1.18313e-27)
(-4.62383e-11 4.70417e-11 -1.31214e-27)
(1.47824e-09 3.19781e-09 -1.98884e-27)
(-1.78569e-10 -1.94569e-10 5.90633e-28)
(1.34815e-09 3.34981e-09 -1.69539e-27)
(-2.61207e-11 2.51034e-11 1.23352e-27)
(-1.88713e-10 -7.26544e-10 -3.75266e-28)
(2.95297e-09 -3.3079e-09 0)
(-1.12964e-10 -5.68022e-10 -5.61814e-28)
(1.57609e-09 3.61757e-09 1.00151e-27)
(1.89734e-09 4.01955e-09 -6.19625e-27)
(-6.89262e-11 3.8122e-10 0)
(2.40816e-09 -4.82297e-09 3.20581e-27)
(1.60164e-09 -3.59306e-09 4.23882e-27)
(3.44469e-10 5.60518e-10 1.07146e-27)
(-2.13042e-11 -1.95773e-11 1.22715e-27)
(3.41695e-10 6.92114e-10 1.90767e-28)
(3.34919e-09 -1.16298e-09 5.95656e-29)
(1.02423e-09 -3.04102e-10 4.24465e-27)
(1.32048e-09 -3.04606e-09 -3.26746e-28)
(2.05725e-09 -4.38055e-09 3.01456e-27)
(-2.74233e-10 -5.61727e-10 0)
(-8.8189e-11 -8.80598e-10 -4.80848e-28)
(-5.90418e-11 -1.26281e-10 1.35608e-28)
(2.71899e-09 -4.15592e-09 -2.17442e-27)
(7.67774e-10 7.43693e-11 -4.41247e-27)
(1.52552e-09 -2.39833e-09 -1.21648e-27)
(2.57805e-09 -5.13601e-09 -3.53032e-27)
(-2.89401e-11 1.30156e-10 -5.58529e-27)
(-2.29559e-10 -8.31454e-10 -1.57664e-27)
(3.14433e-09 -2.19472e-09 1.58296e-27)
(1.25749e-09 1.95416e-09 0)
(9.64077e-11 6.90383e-10 -6.91349e-28)
(1.77996e-09 3.80345e-09 2.31305e-27)
(2.68634e-09 3.41046e-09 2.44935e-27)
(-1.63522e-12 -8.91514e-14 -1.64834e-27)
(-1.8274e-12 3.48985e-13 1.2709e-27)
(2.51125e-09 -1.50207e-09 0)
(1.27539e-09 -2.00655e-09 7.04289e-27)
(1.5922e-09 -3.48945e-09 3.39895e-27)
(1.67966e-09 -1.31093e-09 0)
(-1.78308e-10 8.5145e-10 9.83412e-28)
(9.60282e-11 8.49586e-10 -2.7741e-29)
(3.52783e-09 4.15821e-09 -3.0962e-27)
(3.20396e-09 -4.27388e-09 2.58029e-27)
(1.55124e-09 -3.69245e-09 1.31495e-28)
(3.91421e-09 -3.13122e-09 8.19084e-28)
(2.44741e-09 4.79654e-09 -5.99048e-27)
(1.99629e-09 -4.57189e-09 0)
(2.61993e-09 4.18997e-09 0)
(4.04409e-09 -2.55579e-09 0)
(2.50555e-09 4.5902e-10 -1.93207e-27)
(3.09366e-09 -5.3643e-09 0)
(2.1466e-10 -5.57996e-10 2.82375e-27)
(-2.93069e-10 -6.63383e-10 -1.42296e-27)
(-1.21104e-10 1.22417e-10 4.35788e-28)
(-9.46428e-11 7.72394e-11 1.69576e-27)
(1.47795e-09 2.42593e-09 1.60676e-27)
(1.37513e-09 -2.99114e-09 3.94127e-28)
(-6.42066e-12 8.7512e-12 3.97951e-28)
(-5.71951e-12 -6.8041e-12 -3.93743e-27)
(5.51425e-10 5.51624e-10 -3.51264e-28)
(-2.9669e-11 -1.67486e-11 -2.96258e-29)
(2.54567e-09 9.34778e-10 6.60074e-28)
(5.63551e-13 1.41662e-12 -4.35163e-28)
(1.23841e-12 -3.409e-13 2.34964e-27)
(2.23109e-09 4.68277e-09 0)
(3.72398e-09 4.36294e-09 0)
(3.51559e-09 -2.271e-09 -1.72998e-27)
(1.91474e-09 8.17722e-10 0)
(4.26855e-09 4.64126e-09 1.27613e-27)
(3.16585e-10 7.55346e-10 0)
(3.77442e-09 4.86028e-09 1.49106e-28)
(3.2576e-09 3.96419e-09 8.80178e-28)
)
;

boundaryField
{
    front
    {
        type            empty;
    }
    back
    {
        type            empty;
    }
    bottom
    {
        type            zeroGradient;
    }
    left
    {
        type            noSlip;
    }
    top
    {
        type            uniformFixedValue;
        uniformValue    
        {
            type            scale;
            scale           
            {
                type            squarePulse;
                start           0.3;
                duration        0.3;
            }
            xScale          
            {
                type            constant;
                value           1;
            }
            value           
            {
                type            constant;
                value           (0 -0.7 0);
            }
        }
        value           uniform (0 -0 0);
    }
    right
    {
        type            noSlip;
    }
    inner_arc
    {
        type            noSlip;
    }
}


// ************************************************************************* //
