/*--------------------------------*- C++ -*----------------------------------*\
  =========                 |
  \\      /  F ield         | OpenFOAM: The Open Source CFD Toolbox
   \\    /   O peration     | Website:  https://openfoam.org
    \\  /    A nd           | Version:  9
     \\/     M anipulation  |
\*---------------------------------------------------------------------------*/
FoamFile
{
    format      ascii;
    class       volScalarField;
    location    "0.63";
    object      p;
}
// * * * * * * * * * * * * * * * * * * * * * * * * * * * * * * * * * * * * * //

dimensions      [0 2 -2 0 0 0 0];

internalField   nonuniform List<scalar> 
464
(
9.63231e-06
-2.73376e-06
-1.67015e-05
-1.17331e-05
-8.56876e-06
-1.66608e-05
3.20429e-06
-1.10183e-05
-6.29011e-06
-1.03522e-06
7.12129e-06
2.45377e-05
2.12706e-06
2.22879e-05
2.04549e-05
2.21127e-05
1.00905e-05
9.30203e-06
-2.76095e-06
-9.15211e-06
-1.03526e-05
-1.93559e-05
-1.60342e-05
-1.32484e-05
-1.2708e-05
-1.42462e-05
2.60726e-05
-3.87919e-06
2.6399e-05
-2.00453e-05
-1.93167e-05
1.01304e-05
1.17329e-05
8.36592e-06
5.61842e-06
7.4536e-06
4.20423e-06
5.44436e-08
-2.5592e-06
1.76786e-05
-7.52815e-06
-1.62352e-05
-1.67505e-05
1.84169e-05
1.2952e-05
1.79036e-05
-7.65528e-06
-5.06129e-06
3.23882e-06
-4.76593e-06
-4.71305e-06
-2.24834e-06
1.57544e-06
-1.13551e-05
-1.14596e-05
-2.45315e-06
-5.41826e-06
-1.45431e-05
-1.59376e-05
2.96414e-07
3.58442e-06
-1.47022e-05
-1.05475e-05
-1.18411e-05
-8.52725e-06
-1.17358e-05
-1.84579e-05
4.54206e-06
9.20016e-06
-1.29894e-05
-1.82538e-05
-1.22467e-05
1.51174e-05
-3.99262e-06
-2.30796e-05
-2.49461e-06
-1.62098e-05
5.20758e-06
-1.15043e-05
2.08948e-05
-1.95409e-05
-1.93264e-05
-2.71973e-05
-2.52383e-05
-1.97766e-05
-1.4541e-05
-1.26177e-05
-2.035e-05
-1.0985e-05
-1.77954e-05
-1.9478e-05
-1.29363e-05
-1.5282e-05
1.05083e-05
-1.77684e-05
-1.42772e-05
-1.38033e-05
-1.64673e-05
-3.46912e-05
-4.24222e-06
-1.11698e-05
-6.34554e-06
-1.45041e-05
7.08885e-06
1.07024e-05
-2.4906e-05
-2.25782e-05
-1.57703e-05
-2.14971e-05
-9.99798e-06
-1.75841e-05
-6.12301e-06
-1.80691e-05
-2.39783e-05
-8.29253e-06
-1.1018e-05
-3.10111e-05
-2.8184e-05
-3.28333e-05
-2.16398e-05
-8.22732e-06
1.25319e-06
-8.97624e-06
8.59245e-06
-1.62843e-05
-1.46947e-05
-4.54479e-06
-2.18617e-05
5.02035e-06
-2.86152e-05
-2.59818e-05
2.44827e-05
1.23986e-06
-1.36836e-05
-2.2012e-05
-3.12342e-05
-2.87536e-05
-6.49137e-06
-4.45511e-06
-2.20128e-05
-2.84938e-05
-1.48309e-05
-2.15093e-05
-1.11015e-05
-3.02595e-05
-2.40032e-05
-1.11325e-05
-2.18979e-05
-1.31722e-05
-1.91659e-05
-1.48085e-05
-1.32604e-05
2.8069e-06
-1.76512e-05
-3.36372e-05
-2.39783e-05
1.06162e-05
-1.11086e-05
-3.53856e-06
-2.16237e-05
-4.50139e-06
-1.32567e-05
-2.35339e-05
-1.46874e-05
-1.21445e-05
-2.81413e-05
1.3693e-06
-1.14804e-05
1.27102e-05
-3.03361e-05
-3.03881e-05
-1.64512e-05
-3.41418e-05
-2.08959e-05
-3.242e-05
-2.24354e-05
-1.13888e-05
-1.22886e-05
9.19523e-06
9.50486e-06
-1.15648e-05
-2.2702e-05
1.7074e-05
1.65614e-05
2.19004e-05
1.95608e-05
-2.94528e-05
-2.79806e-05
-3.19966e-05
-2.90774e-05
-9.6929e-06
-2.88749e-05
-2.8081e-06
-7.6692e-06
-1.71129e-05
-1.97148e-05
-9.52557e-06
-1.03082e-05
1.97029e-05
-1.34508e-05
-1.16357e-05
-1.87255e-05
-1.14036e-05
-1.69128e-05
-2.80949e-05
-5.05759e-06
-1.45092e-05
-2.02287e-05
-2.34261e-05
-3.31694e-05
-2.52632e-05
-2.88327e-05
3.59662e-06
7.92085e-06
-7.81805e-06
-2.87701e-05
2.32473e-05
-8.35826e-06
2.76006e-05
-2.47795e-05
1.48939e-05
-1.78133e-05
-1.53859e-05
-1.13844e-05
-1.16012e-05
-1.28462e-05
-1.14262e-05
-8.81337e-06
-9.27717e-06
-1.13401e-05
-9.27719e-06
-4.77919e-06
-6.55789e-06
-1.11163e-05
-2.67838e-06
-1.10168e-05
-1.52857e-06
-5.04602e-06
-7.33981e-06
5.14101e-07
-1.06223e-05
-3.97213e-06
-2.75032e-06
-6.22284e-06
-9.84452e-06
4.33547e-06
-5.06552e-06
-6.36318e-06
6.14342e-07
-4.34931e-06
-3.39298e-06
2.96974e-06
-9.1795e-06
-1.45887e-05
-9.07219e-06
-4.14819e-06
-1.11062e-05
-3.93744e-06
-8.1351e-06
-2.15663e-06
-2.70647e-06
-7.72629e-06
-7.33659e-06
7.53917e-06
-2.35301e-06
2.72535e-06
-6.47943e-06
-7.4357e-06
1.56718e-05
1.07528e-06
-1.82861e-05
-2.98594e-07
-5.3276e-06
1.12792e-05
2.88376e-06
-5.70676e-06
5.68103e-07
-2.11218e-05
-2.77046e-05
-2.33332e-05
-6.49713e-06
-8.0241e-06
-2.7461e-05
-2.35478e-06
1.10553e-05
-1.16644e-05
-2.95773e-05
-1.08619e-05
-6.92927e-06
-5.84008e-06
-1.12548e-05
-5.67249e-06
-8.37701e-06
-1.0386e-05
-1.3662e-05
-2.25604e-05
-2.99145e-05
-2.17041e-05
-2.19237e-05
-1.3635e-05
7.71448e-06
1.36855e-06
9.19072e-06
1.33984e-05
4.22455e-06
-1.30941e-05
-1.24798e-05
8.24058e-07
-2.3233e-05
-2.27976e-05
-1.35563e-05
-1.11117e-05
-9.94672e-06
2.35131e-06
-1.23354e-05
-1.18573e-05
-2.88935e-05
-1.74159e-05
-9.85766e-06
3.92279e-06
-2.04155e-05
-2.224e-05
-2.29209e-05
-2.24124e-05
-4.66068e-06
-5.78434e-10
3.72991e-06
7.62956e-06
-5.35351e-06
-1.42551e-05
-1.19568e-05
-3.95753e-06
-1.29114e-05
-8.46023e-06
-1.52452e-05
-1.13779e-05
-1.87199e-05
-1.18841e-05
-2.23853e-05
-1.4066e-05
-1.11803e-05
2.17434e-06
-1.4605e-05
-1.78498e-05
-6.8197e-06
-8.36451e-06
1.14882e-06
-1.86053e-05
-1.12533e-05
-1.48096e-05
-9.05092e-06
-1.30113e-05
-2.28559e-05
-2.22886e-05
-8.09423e-06
1.5813e-06
-1.89473e-05
-1.26474e-05
-1.96026e-05
-1.0564e-05
-1.44543e-05
-3.84129e-06
-1.88318e-05
-2.06361e-05
7.8779e-06
-3.48357e-06
-8.80702e-06
6.42685e-06
2.06215e-05
-2.2065e-05
-1.09019e-05
3.07458e-05
1.36245e-05
9.92339e-06
2.66442e-05
-1.43138e-05
1.38152e-05
-1.714e-05
3.07007e-05
-2.1977e-05
2.50697e-05
1.21612e-05
1.01624e-05
2.37802e-06
6.88287e-07
4.71496e-06
1.48019e-06
-1.70718e-05
1.53281e-05
1.2884e-05
-2.38493e-06
1.63627e-06
5.45887e-06
5.53229e-06
-9.29312e-06
-1.43662e-05
-1.18374e-05
-1.67424e-05
-1.41228e-05
1.15533e-05
-3.72417e-06
-1.26107e-05
1.26865e-05
-8.52119e-06
4.71439e-06
2.21766e-06
6.88195e-06
-5.15968e-06
-2.66484e-06
-6.11887e-06
9.23143e-07
-7.51938e-06
-1.6472e-05
-1.55787e-05
-1.40374e-05
-8.99556e-06
2.71926e-05
-5.8942e-06
-1.46275e-05
-1.36362e-05
-8.99561e-06
-1.23446e-05
1.01076e-05
2.93567e-05
1.12215e-06
1.26529e-05
2.76232e-05
2.97447e-05
2.78307e-05
-2.15377e-05
-2.1659e-05
5.6165e-07
1.36736e-05
-2.04213e-05
-1.69457e-06
1.4968e-05
1.37608e-05
-1.66548e-05
1.34558e-05
-2.48509e-05
-3.25497e-07
7.17678e-06
-8.34355e-06
-9.67347e-06
-1.49934e-05
-1.27456e-05
-1.44884e-05
-1.67921e-05
-1.282e-05
-5.45059e-06
1.46345e-05
9.57981e-08
1.19099e-05
-1.62958e-05
-2.75319e-06
7.877e-06
3.85172e-06
-5.10781e-06
-8.45711e-06
-7.18291e-06
-7.54943e-06
2.57762e-05
9.65798e-06
-1.62224e-05
)
;

boundaryField
{
    back
    {
        type            empty;
    }
    front
    {
        type            empty;
    }
    left
    {
        type            zeroGradient;
    }
    top
    {
        type            zeroGradient;
    }
    right
    {
        type            zeroGradient;
    }
    bottom
    {
        type            uniformFixedValue;
        uniformValue    
        {
            type            scale;
            scale           
            {
                type            squarePulse;
                start           0.3;
                duration        0.3;
            }
            xScale          
            {
                type            constant;
                value           1;
            }
            value           
            {
                type            constant;
                value           15.1;
            }
        }
        value           uniform 0;
    }
}


// ************************************************************************* //
