/*--------------------------------*- C++ -*----------------------------------*\
  =========                 |
  \\      /  F ield         | OpenFOAM: The Open Source CFD Toolbox
   \\    /   O peration     | Website:  https://openfoam.org
    \\  /    A nd           | Version:  9
     \\/     M anipulation  |
\*---------------------------------------------------------------------------*/
FoamFile
{
    format      ascii;
    class       surfaceScalarField;
    location    "0.63";
    object      phi;
}
// * * * * * * * * * * * * * * * * * * * * * * * * * * * * * * * * * * * * * //

dimensions      [0 3 -1 0 0 0 0];

internalField   nonuniform List<scalar> 
663
(
-4.83452e-11
1.3063e-11
3.52822e-11
3.69555e-11
3.31494e-11
-6.50218e-13
6.50218e-13
8.98573e-12
-4.57358e-12
-4.41215e-12
-1.51763e-11
5.21318e-11
9.71342e-15
-6.59931e-13
-1.92114e-11
-2.91338e-11
2.98948e-12
5.99626e-12
-1.88005e-11
4.76627e-12
1.40342e-11
2.91859e-11
-4.79864e-11
-5.71115e-11
7.01745e-11
4.07809e-11
-4.89556e-11
8.17468e-12
-1.44452e-11
4.74411e-11
-6.66023e-12
-1.31635e-11
2.47089e-11
-1.15454e-11
-1.58409e-11
2.67736e-12
9.52445e-12
-4.63608e-12
-4.88837e-12
9.05284e-12
4.71617e-13
4.55039e-13
-4.55039e-13
2.35114e-11
-2.55904e-11
2.07897e-12
-3.44867e-12
2.69601e-11
-1.06033e-11
-1.01989e-11
2.08023e-11
-2.25328e-11
1.19294e-11
-1.11168e-11
9.19094e-12
1.92586e-12
9.71408e-13
-5.54499e-12
-6.23966e-12
-4.87713e-12
-3.27584e-11
3.53005e-11
-2.54209e-12
9.24748e-12
-3.46244e-12
-5.78504e-12
-3.54164e-11
2.65798e-12
1.62286e-11
-1.40278e-11
-2.20078e-12
7.27607e-12
8.95251e-12
1.8564e-11
-1.0693e-11
-7.871e-12
2.61136e-12
1.59527e-11
-1.03527e-11
5.8187e-12
4.53396e-12
-1.26852e-12
-9.08415e-12
5.36712e-12
3.68572e-12
1.61621e-11
-1.0795e-11
-1.46338e-12
1.91842e-12
2.21386e-12
7.03362e-12
1.11972e-11
4.87884e-13
-1.16851e-11
-1.21126e-11
-1.34777e-11
2.25738e-11
-2.69632e-11
4.38942e-12
4.10272e-14
2.65485e-11
8.75197e-12
-2.2407e-11
-4.64365e-12
-1.36708e-11
2.56481e-11
-1.19773e-11
-2.37549e-11
2.21799e-11
1.57503e-12
-4.13228e-12
4.13228e-12
-4.92582e-12
9.85561e-12
-2.19682e-11
1.21874e-11
2.10456e-12
-1.42919e-11
-2.27268e-11
4.28085e-12
1.8446e-11
9.37546e-14
-1.68925e-11
1.67988e-11
2.74883e-11
-2.73946e-11
-6.50134e-12
1.86887e-11
-2.01721e-11
-1.18169e-11
-6.21396e-12
1.80308e-11
1.36256e-11
-2.54425e-11
-1.78692e-11
-4.85762e-12
-1.91842e-12
-4.71475e-11
5.57339e-11
-8.58645e-12
-1.53189e-11
-7.15957e-13
1.60349e-11
1.03402e-11
-1.86065e-11
8.26629e-12
-1.21967e-11
4.13827e-11
-3.60077e-12
-1.32917e-11
-2.80989e-12
9.5878e-12
-6.77791e-12
6.23684e-12
-4.89368e-11
-1.2655e-12
2.87538e-11
2.10082e-11
-7.38262e-12
-5.93442e-11
-1.90818e-11
-1.63346e-11
-7.29798e-12
-1.64569e-11
9.56536e-12
-2.42434e-11
1.4678e-11
-7.25832e-12
1.25747e-11
-1.53846e-11
-1.34805e-11
4.87627e-11
-1.91548e-11
1.29409e-11
5.62714e-12
5.00332e-11
3.09206e-13
-5.03424e-11
-3.90169e-12
3.72016e-12
1.81531e-13
2.14585e-12
-2.16971e-11
1.95512e-11
1.421e-12
4.68686e-13
-1.88969e-12
5.21791e-11
-1.29067e-11
-2.41219e-12
1.55846e-11
4.01493e-11
-2.48069e-12
-1.33827e-11
1.04323e-11
2.95048e-12
2.59179e-11
-1.63526e-11
4.35926e-11
-5.9035e-11
-6.55321e-12
-4.09571e-12
1.06489e-11
-4.01166e-11
-5.67153e-12
4.57881e-11
-6.64136e-13
-5.88907e-12
1.18588e-11
-8.81468e-12
-9.53774e-13
4.67393e-12
3.23802e-12
-1.37881e-11
1.055e-11
5.60328e-12
-2.00484e-11
-8.60397e-12
-4.77878e-12
-3.01616e-12
2.5196e-11
6.30688e-12
-1.49108e-11
2.31628e-12
-1.30093e-11
8.13499e-12
-2.16971e-11
4.68686e-13
-2.00551e-12
1.15933e-11
-2.61675e-12
4.62094e-11
-2.41098e-11
2.91255e-11
-5.01571e-12
-5.24407e-12
-6.53711e-12
1.17812e-11
1.83501e-11
-6.10121e-12
3.19259e-11
-2.86878e-11
-1.06527e-12
1.14975e-11
-8.82579e-12
1.51327e-11
-1.95512e-11
1.69345e-11
1.6916e-12
1.88969e-12
-3.58129e-12
-1.37881e-11
9.10845e-12
-7.41684e-12
-2.71259e-11
-1.55454e-11
2.11487e-11
3.69189e-11
-2.13343e-11
-4.48854e-11
1.57517e-11
8.10151e-12
-1.82241e-11
1.298e-11
2.18466e-11
1.50723e-11
4.77086e-12
-1.1308e-11
7.83559e-12
-9.10411e-12
1.87892e-11
-1.87892e-11
5.81879e-12
-1.46446e-11
-2.81164e-12
-1.29731e-11
1.57847e-11
1.69345e-11
-3.58129e-12
3.44675e-12
-9.23179e-12
-9.3581e-12
9.3581e-12
5.68837e-12
-8.5e-12
1.1117e-11
-1.9247e-11
1.18644e-11
1.40674e-11
-5.68837e-12
2.10708e-12
-3.0356e-12
-2.12078e-11
-9.52338e-12
1.53422e-11
6.62776e-12
-1.40779e-11
-4.52859e-12
-1.02113e-11
8.53218e-13
4.13225e-12
-1.36556e-11
-1.87697e-11
4.12507e-12
3.46534e-11
-1.10681e-11
-2.35853e-11
-1.03295e-11
-7.89461e-12
3.14643e-12
8.5e-12
8.58099e-13
-5.63832e-12
1.00224e-12
-8.94759e-12
1.30798e-11
6.30112e-12
9.8613e-12
3.63481e-11
7.77363e-12
-2.34406e-11
1.56669e-11
2.32332e-12
-1.12709e-11
-2.55083e-12
1.72288e-11
-1.02113e-11
1.24522e-12
-1.14565e-11
2.18235e-11
-1.40499e-11
-2.26173e-11
2.38625e-11
1.59832e-12
-1.06721e-11
9.07376e-12
4.96361e-12
-4.96361e-12
2.98987e-12
1.97375e-12
5.00106e-11
7.51444e-12
-1.055e-11
-2.3172e-11
-7.51444e-12
-1.64734e-12
6.4182e-12
-6.73399e-12
9.05731e-12
-6.32872e-12
-4.05271e-13
1.81679e-11
1.64855e-11
1.65029e-12
-4.20808e-13
-1.22948e-12
1.66771e-11
-2.30058e-11
-1.81644e-12
3.95639e-12
-2.13995e-12
-6.12537e-13
6.12537e-13
1.03775e-12
-2.18859e-12
3.78691e-12
2.18859e-12
-1.57606e-12
2.73174e-13
-2.08961e-12
2.73174e-13
1.34252e-12
-2.98987e-12
-2.4358e-11
-1.73088e-12
2.60889e-11
-1.34252e-12
1.6157e-12
1.00437e-11
-1.00437e-11
8.38028e-13
-6.08214e-12
-1.93603e-11
-2.32012e-11
1.7119e-11
-2.60659e-11
-2.6018e-11
2.47525e-11
7.08371e-14
-2.16127e-11
-1.58843e-12
1.09526e-11
-1.08817e-11
-2.55625e-11
3.94974e-12
1.08817e-11
1.09526e-11
1.01426e-11
-1.01426e-11
8.55415e-12
-2.08961e-12
6.23684e-12
-6.19733e-12
6.19733e-12
-1.14565e-11
3.78691e-12
1.25793e-11
-1.25793e-11
8.55415e-12
1.03775e-12
8.09971e-13
2.72088e-12
-4.00604e-12
-3.84433e-12
-1.61712e-13
-1.12345e-12
-1.07667e-11
-1.21731e-11
2.29399e-11
-5.96186e-12
4.83841e-12
2.30443e-12
-8.4623e-12
-2.04461e-11
8.27295e-12
-1.37053e-11
-6.74082e-12
1.56186e-11
-1.85529e-11
2.68258e-11
4.47859e-12
2.38123e-12
1.18334e-11
-1.42146e-11
1.75747e-11
-1.51935e-11
-9.22666e-12
-7.1304e-12
1.89638e-11
6.39197e-12
-1.4956e-11
7.41401e-13
1.08339e-11
-8.80151e-12
7.23335e-12
-1.20188e-11
-7.72267e-12
2.23563e-12
-2.83016e-11
-1.03096e-11
1.1051e-11
-9.2209e-12
-1.38483e-11
3.53869e-12
-9.67787e-13
1.38676e-11
-8.33081e-12
-5.53684e-12
1.55884e-11
7.39859e-12
-1.51213e-11
-6.44969e-12
-4.9461e-12
1.8026e-11
-9.2209e-12
7.41796e-12
-1.38403e-11
1.2218e-11
1.6223e-12
-5.6093e-12
1.30273e-11
1.50764e-11
-2.56325e-12
-1.25132e-11
8.05657e-12
-1.36659e-11
9.10062e-12
-2.5857e-11
1.67564e-11
-5.78374e-12
3.09241e-11
9.2927e-12
1.49443e-11
-2.80654e-11
1.652e-11
-1.87383e-11
-7.11875e-12
-2.23139e-11
-6.48833e-12
1.5781e-11
7.24712e-12
-2.1297e-11
-1.1309e-11
-2.37367e-11
1.14912e-11
-1.79795e-11
-2.12795e-12
-6.42621e-12
6.42621e-12
1.07181e-11
-2.32212e-11
1.92423e-12
1.24862e-11
1.58122e-12
2.23182e-12
-1.98561e-11
3.63761e-11
-5.26563e-12
-1.79556e-11
2.26818e-12
4.15802e-12
3.33568e-11
-1.82845e-11
-7.68595e-12
-2.87062e-11
-9.76348e-12
-1.89427e-11
2.35933e-11
-1.69234e-11
-1.83075e-11
3.2625e-12
1.41326e-11
-4.15802e-12
2.06841e-12
5.29127e-13
-2.14482e-12
3.17261e-11
-7.9184e-12
-1.64072e-11
5.55922e-11
-3.9185e-11
7.32451e-12
1.66119e-11
-4.49787e-13
5.11208e-12
8.55379e-12
-1.25728e-12
3.94945e-11
-9.33422e-12
2.42253e-11
2.1976e-11
-1.56749e-11
4.66843e-13
1.75127e-11
-1.08067e-11
4.25328e-11
-1.67038e-12
4.65986e-12
4.01439e-11
-5.75363e-12
-8.27417e-12
-8.91786e-12
-8.46866e-12
8.46866e-12
2.35901e-11
2.0172e-11
6.78806e-12
1.78887e-11
8.19764e-12
1.70503e-12
-1.70503e-12
2.8175e-11
-9.25015e-12
1.50486e-11
-2.67643e-12
2.67643e-12
-6.79122e-12
-1.00605e-12
1.00605e-12
-2.72019e-11
-3.95402e-11
-3.43082e-11
-8.94674e-12
-2.85052e-13
-7.2831e-12
8.7758e-12
-6.84945e-12
1.99077e-11
9.71346e-15
1.99077e-11
9.71347e-15
-3.25163e-11
6.56658e-11
9.29023e-13
-2.78804e-13
5.53676e-13
-4.784e-13
1.78938e-12
6.4503e-11
4.33587e-14
-4.98397e-13
3.86295e-12
3.97264e-12
1.21289e-11
-9.61762e-12
2.00469e-13
8.05586e-13
-1.00372e-11
2.00415e-11
-2.63346e-12
-3.00486e-12
1.00372e-11
3.31851e-11
-1.79245e-11
-6.95215e-12
7.51054e-12
4.2748e-12
-2.53709e-12
4.11315e-12
-7.9129e-13
-5.56542e-12
-1.49897e-11
-7.46184e-12
-7.19343e-12
2.03999e-12
-2.51161e-12
-1.90027e-11
8.16879e-12
4.94005e-12
-4.94005e-12
9.46212e-12
1.67181e-11
-1.62178e-11
-3.72103e-12
1.70713e-11
-3.6527e-11
3.3158e-11
9.29023e-13
3.73011e-11
2.00469e-13
1.84424e-11
9.22249e-12
1.94535e-11
-1.94535e-11
4.33593e-14
-1.48207e-11
4.33593e-14
-6.63078e-12
-4.13556e-11
3.29364e-12
-3.5787e-12
3.61913e-12
-4.39513e-12
7.76002e-13
-1.14011e-11
-3.5097e-12
1.21289e-11
-1.63218e-12
1.08116e-12
-3.09674e-11
-6.95216e-12
-4.2748e-12
-5.65675e-13
2.03999e-12
2.51161e-12
1.43005e-11
1.63795e-11
-1.73767e-11
-5.44723e-12
-8.38683e-12
-2.54569e-13
-2.43828e-13
1.88674e-12
)
;

boundaryField
{
    back
    {
        type            empty;
        value           nonuniform List<scalar> 0();
    }
    front
    {
        type            empty;
        value           nonuniform List<scalar> 0();
    }
    left
    {
        type            calculated;
        value           uniform 0;
    }
    top
    {
        type            calculated;
        value           uniform 0;
    }
    right
    {
        type            calculated;
        value           uniform 0;
    }
    bottom
    {
        type            calculated;
        value           nonuniform List<scalar> 8(-7.0105e-11 -2.60864e-11 6.67421e-11 -3.5084e-11 -6.56743e-11 3.42742e-11 6.82685e-11 2.76649e-11);
    }
}


// ************************************************************************* //
