/*--------------------------------*- C++ -*----------------------------------*\
  =========                 |
  \\      /  F ield         | OpenFOAM: The Open Source CFD Toolbox
   \\    /   O peration     | Website:  https://openfoam.org
    \\  /    A nd           | Version:  9
     \\/     M anipulation  |
\*---------------------------------------------------------------------------*/
FoamFile
{
    format      ascii;
    class       volVectorField;
    location    "0.63";
    object      U;
}
// * * * * * * * * * * * * * * * * * * * * * * * * * * * * * * * * * * * * * //

dimensions      [0 1 -1 0 0 0 0];

internalField   nonuniform List<vector> 
464
(
(-0.000375339 -0.00138082 2.04813e-23)
(-0.000256548 0.00187636 0)
(7.67086e-06 9.00196e-06 0)
(0.000212373 -1.09312e-05 7.3494e-22)
(-0.00017712 0.00158243 0)
(6.5545e-06 8.87708e-06 -2.6733e-22)
(-0.000418269 -0.0010311 3.78368e-22)
(0.000200698 -4.34584e-05 0)
(-0.000459042 0.00010075 -1.66029e-22)
(-0.000444793 0.000911101 -2.76813e-22)
(-0.000303139 -0.00175067 2.85067e-23)
(-0.000147435 -0.00149256 -3.2298e-23)
(-0.000460517 -0.000321623 -1.78594e-22)
(-0.000117015 -0.00128969 0)
(-0.000148755 -0.000677303 7.44892e-22)
(-8.84619e-05 -0.000483019 -1.24676e-21)
(-9.31761e-05 0.0002278 0)
(-6.03159e-05 0.00023578 2.33226e-22)
(9.83729e-06 -7.77091e-06 -1.46166e-22)
(-6.20767e-05 0.00078008 5.6328e-22)
(-1.58154e-05 0.000839152 -8.61065e-22)
(0.000190997 0.000622303 2.80857e-22)
(0.000208992 0.000641866 -1.25549e-22)
(0.000239581 7.12332e-05 0)
(0.00015628 4.61136e-06 -7.55036e-22)
(0.000235671 0.000118603 4.4588e-22)
(-0.000114718 -0.00095694 -7.11115e-22)
(0.000118657 -0.000175399 -1.94931e-22)
(-0.000166172 -0.00107595 0)
(0.000198957 0.000366611 0)
(0.000246702 0.00031085 6.19659e-23)
(-0.000275763 -0.000375361 -3.91562e-24)
(-0.000230418 -0.000431707 8.89692e-23)
(-0.000173493 -0.00011409 3.86296e-22)
(-0.000215876 -7.52594e-05 -3.89321e-22)
(-6.18828e-05 0.000320304 -3.80867e-22)
(-0.000115673 0.00043543 3.30253e-22)
(2.33161e-05 -4.3102e-05 -1.71784e-23)
(8.91611e-05 -0.000208934 4.12817e-23)
(-8.21198e-05 -0.000349442 0)
(-0.000107071 0.000760119 6.03748e-22)
(0.000116824 0.000779463 0)
(0.000168071 0.000711896 -3.1517e-22)
(-7.80943e-05 -0.00108413 -8.94699e-22)
(-0.000158971 -0.00136466 9.0811e-22)
(-0.000129311 -0.000477137 5.81782e-23)
(0.000260502 -0.000530165 3.99706e-22)
(7.02367e-05 -0.000598526 6.981e-23)
(1.9334e-05 -7.82187e-05 0)
(6.50427e-05 -9.87273e-05 1.66281e-23)
(-0.000102216 0.000778434 -3.57534e-22)
(9.7886e-05 -0.000344674 4.27619e-24)
(-4.20978e-05 0.000571972 -9.95537e-24)
(1.10205e-05 -0.000538209 -6.52279e-22)
(1.01738e-05 -0.000773391 -2.12338e-23)
(0.000139663 -0.000464601 1.41828e-22)
(0.000230023 -0.000490775 0)
(-0.000321928 -0.000399508 0)
(-0.000255127 -0.00055703 -1.0175e-21)
(-7.84465e-05 0.000604357 0)
(3.34055e-05 -0.000110128 -1.42322e-22)
(-0.000285552 0.00155561 1.63641e-21)
(-0.000382276 -0.000183253 1.48545e-21)
(-0.000199464 -0.000362656 -7.40157e-22)
(-0.000410805 0.00114898 -9.83113e-23)
(8.44902e-05 -0.000370068 -6.49724e-22)
(-0.000215219 -0.000187886 -1.01914e-21)
(3.59102e-05 -0.000192682 2.3744e-22)
(-0.000236095 -0.00168443 -2.93353e-22)
(-3.73355e-05 -0.000820195 7.88266e-22)
(-0.000226169 -0.000511552 1.01578e-21)
(-0.000322372 0.00157023 -8.29427e-22)
(-0.000182394 -0.000945083 0)
(0.000120751 -0.000609093 2.70525e-22)
(-0.00017839 0.000592656 -1.38581e-21)
(0.000143128 -0.00031472 1.50148e-22)
(-0.000272065 -0.000257704 -1.03758e-21)
(-0.000382282 -0.00113743 -4.36013e-22)
(-0.000309337 -0.0003168 -7.5048e-22)
(-0.000102114 -0.000722256 5.86196e-22)
(-0.000165907 0.00164177 0)
(5.99794e-05 6.0833e-05 2.60583e-22)
(-4.65763e-05 0.000789697 -1.70638e-21)
(2.09358e-05 4.33547e-05 1.56113e-21)
(-0.000120732 0.00138498 0)
(-0.000354724 -0.000299744 1.7553e-23)
(-0.000359937 0.00137151 -8.15025e-22)
(6.09222e-05 9.52235e-05 0)
(0.000310952 -9.01542e-05 0)
(-0.000303897 0.00063137 -9.62192e-22)
(-0.00017338 0.00147551 1.21938e-21)
(-0.00025432 0.00176516 0)
(-0.000230079 2.84714e-05 1.00094e-21)
(-0.000170474 -0.0016262 -5.98684e-22)
(-0.000188354 0.000106566 -9.85048e-22)
(-0.000346507 -0.000193855 -7.38361e-22)
(-0.000241698 -0.000479832 7.5222e-22)
(0.000107709 7.31325e-05 -2.38981e-22)
(-4.83679e-05 0.000461664 -2.00173e-21)
(-0.000494253 3.76831e-05 6.01155e-23)
(0.00032486 5.81175e-06 0)
(8.23193e-05 -0.000718815 1.04463e-22)
(0.000355023 7.14646e-05 0)
(-0.000246942 -0.00026866 3.83336e-24)
(-0.000187118 -0.000218763 0)
(-3.01579e-05 0.00045014 -1.05672e-21)
(8.15194e-06 7.65511e-06 0)
(-0.000247737 -0.000109612 9.99888e-22)
(-0.000121443 0.00122148 -1.22128e-21)
(0.00011528 -0.000737656 0)
(-0.000208628 0.000256035 0)
(0.000197852 -0.000633452 -4.08022e-22)
(-0.000194963 -3.64435e-05 0)
(-0.000137514 0.000823038 1.4011e-21)
(0.000326502 -0.000170304 1.49746e-23)
(0.000387356 8.52446e-06 -1.05954e-23)
(-4.21906e-05 0.000694171 1.86778e-21)
(2.84238e-05 0.000108021 1.81522e-21)
(-2.72735e-05 0.000273778 1.61097e-21)
(8.40029e-05 0.000211719 -9.11159e-23)
(0.000135623 -0.000746757 4.61828e-22)
(-0.000521783 -0.00031847 -3.86858e-24)
(-0.000459831 0.000971963 4.00791e-22)
(-0.000404009 -0.00123111 -3.27858e-22)
(-0.000279844 -0.000411045 0)
(-0.00027808 0.000316863 9.62805e-22)
(-0.000526996 0.000634791 -4.04273e-22)
(-0.000118472 0.000241668 0)
(-0.000215905 1.44775e-05 0)
(-2.41182e-05 0.000393548 1.32267e-21)
(1.45865e-05 3.64229e-05 -1.21246e-21)
(-2.44847e-05 -0.000405806 -1.28342e-21)
(1.53224e-05 -3.45887e-05 1.15742e-22)
(0.000391613 0.000101435 0)
(8.39034e-05 0.000464126 0)
(-2.52606e-05 0.000337371 -1.48203e-21)
(1.67132e-05 7.36435e-05 -2.76819e-21)
(0.000198998 -0.000194029 -4.52349e-22)
(-0.000468135 0.000761101 3.80661e-22)
(9.2908e-06 0.00019609 9.83398e-22)
(3.20784e-05 0.000274632 0)
(-0.000237579 0.000165659 0)
(-0.000135886 -0.000480942 -4.29814e-23)
(0.000369614 -0.000150114 5.84549e-22)
(3.22663e-05 0.00018535 1.71972e-21)
(-0.000128226 0.0006174 -1.41546e-21)
(0.000388237 5.7662e-06 0)
(0.000112802 0.000175392 0)
(-0.000123334 -0.0005313 1.37949e-23)
(1.49678e-05 0.0003896 -2.18874e-21)
(0.000360791 0.000138335 2.76719e-23)
(0.000350022 0.000285418 8.63286e-22)
(-0.000538331 -0.000640913 3.24459e-22)
(-0.000252896 0.000427806 -9.67069e-22)
(-4.6786e-05 0.000583143 -1.65773e-24)
(2.31138e-05 0.000347909 -1.56531e-21)
(-6.49747e-05 0.000126554 0)
(0.000331964 1.46988e-05 0)
(-0.000560337 5.63234e-06 -3.51361e-23)
(-0.000189849 0.00127567 1.34888e-21)
(-0.000597562 -9.53581e-06 0)
(0.000283957 0.000165413 -7.58849e-22)
(-0.000107948 0.000432773 2.75293e-21)
(6.32181e-06 0.000216189 1.66658e-22)
(3.5893e-06 0.000421829 7.98769e-22)
(1.85387e-05 0.000120091 0)
(-0.000567418 -0.000188097 -1.1791e-22)
(6.91595e-06 0.000706564 6.45826e-22)
(-8.60999e-05 -0.000247897 -6.99012e-22)
(-1.87362e-05 9.76451e-05 2.94867e-21)
(-2.74238e-05 0.000150338 -4.67449e-23)
(-0.000318285 0.00134529 -9.06996e-22)
(-4.46048e-05 0.000341572 -3.49571e-23)
(0.000122126 0.000606003 -2.78987e-22)
(-3.64277e-05 0.000235814 4.95692e-23)
(-7.24809e-05 0.000151311 -1.31908e-21)
(0.000230873 3.9415e-06 7.51236e-22)
(0.000163788 0.000175345 -2.84312e-24)
(-0.000485858 -0.000890192 3.88496e-22)
(-7.10303e-05 7.59343e-08 -8.81035e-23)
(0.00014665 0.000520121 7.5405e-22)
(-7.85199e-05 -8.35049e-05 1.33032e-21)
(-1.31494e-05 -1.13564e-05 0)
(-2.06687e-05 4.04211e-06 1.00875e-21)
(-2.13316e-05 -0.000123089 1.26547e-22)
(-2.19496e-05 -5.77884e-05 2.99356e-23)
(-2.65095e-05 -4.36997e-05 0)
(-1.50185e-05 -5.31518e-06 -1.35755e-21)
(-2.35725e-05 0.000148017 -3.1159e-21)
(-2.23019e-05 8.20939e-05 3.00227e-24)
(3.22877e-05 -0.000779314 -5.81505e-25)
(-2.27131e-05 2.00596e-05 1.69796e-21)
(1.08173e-05 -0.000199821 -2.54487e-22)
(3.89564e-05 -0.000671576 -4.25404e-22)
(-0.000189607 -0.000657764 1.06888e-24)
(-0.000114885 -0.000624269 -1.07247e-24)
(-1.34976e-05 0.000803232 -5.93814e-22)
(5.34659e-05 -0.000812534 5.75184e-25)
(-1.35392e-05 -4.50824e-05 9.90248e-22)
(-2.28717e-05 -0.000785323 8.5868e-22)
(3.25722e-06 -0.00070414 0)
(-6.5153e-05 -0.000607083 0)
(1.10142e-06 -0.000413536 0)
(-7.48156e-05 -0.00073057 9.38259e-25)
(-1.34332e-05 2.63591e-05 0)
(1.45853e-05 -0.000394688 -1.59349e-22)
(-3.1432e-06 -0.00022008 0)
(-1.02385e-05 -0.00020354 -9.07618e-22)
(-2.42234e-05 -0.000354053 1.4375e-21)
(-2.6637e-05 0.000208688 1.60617e-21)
(1.65203e-05 0.000172842 1.16854e-21)
(-1.65517e-05 -4.15088e-05 0)
(1.86566e-05 -0.000122 -1.94445e-22)
(-1.6809e-05 0.00014277 3.06919e-22)
(-3.16293e-06 0.000233043 0)
(-1.48554e-05 5.87063e-05 -1.41246e-21)
(-1.34951e-05 -8.11389e-05 -1.06225e-21)
(4.22519e-06 -0.000218421 3.20173e-22)
(-3.01638e-05 -0.000270732 -9.65204e-23)
(-1.57512e-05 -0.000171532 -1.1505e-21)
(-1.49483e-05 1.951e-05 -7.47472e-22)
(-1.23469e-05 -0.000399453 1.13487e-21)
(-3.35007e-05 -0.000681106 -8.59745e-22)
(-6.16611e-05 -0.00037972 1.39817e-21)
(8.89965e-05 2.94413e-07 7.42179e-22)
(1.14573e-05 0.000188278 -7.03305e-22)
(-6.56252e-05 4.79843e-06 0)
(-0.000236431 0.000476198 2.58797e-22)
(-0.000135465 0.000172048 -1.56484e-23)
(-0.000209196 -1.53194e-05 -6.28558e-22)
(-0.000270484 0.000153542 6.22877e-22)
(-0.000251001 0.000540407 -2.65624e-23)
(-0.000318612 0.0003784 0)
(-0.000370579 -0.000254944 -7.4997e-22)
(-0.000188324 0.000662955 1.71281e-22)
(-0.000326297 -8.54955e-06 0)
(-0.000321352 0.000277492 -3.50647e-23)
(-0.000354777 0.000269643 -3.65292e-23)
(-0.000358143 0.000124788 5.31923e-22)
(-0.00023291 0.000357786 -1.40437e-22)
(-0.000390058 -1.69849e-05 -5.43549e-22)
(-0.000347393 0.000165718 -1.55364e-22)
(-0.000309768 0.000408181 2.26972e-22)
(-0.000396152 8.16965e-05 0)
(-0.000403781 -2.16524e-05 0)
(-0.000172066 0.000281694 -7.1163e-23)
(-0.000389449 4.05138e-05 -8.41516e-24)
(-2.84303e-05 0.000707831 0)
(-0.000296147 0.000144234 0)
(-1.71584e-05 0.000404167 0)
(-0.000318556 5.83841e-05 -6.60778e-23)
(-0.000213868 0.000187068 4.02148e-22)
(-0.000328915 -3.74576e-05 -6.75163e-22)
(-0.0003378 0.000493599 9.6516e-22)
(-0.000380875 -2.37365e-05 0)
(-0.000359388 1.84578e-06 0)
(0.000316433 -0.000281928 0)
(-1.89404e-05 0.000206063 4.70097e-23)
(-0.000348364 -2.37529e-05 -3.33489e-22)
(-0.000317985 -0.000133147 0)
(-0.000336517 -3.22016e-05 3.17233e-22)
(-0.000356561 0.000105708 1.19855e-21)
(-0.000344108 -2.42832e-05 2.93903e-22)
(-0.000422039 -0.000523157 2.38008e-22)
(-0.000356168 -6.18322e-05 -2.93906e-22)
(-0.000507897 -0.000506559 -6.29242e-22)
(-0.000380511 -1.69827e-05 -8.39586e-25)
(0.000263328 -0.000244064 -1.46325e-23)
(-0.00026931 -0.000754756 -5.21529e-22)
(-0.000437921 -0.00036255 -2.41226e-22)
(7.25445e-05 0.000608403 -9.4644e-22)
(-0.000408624 -9.3015e-05 0)
(-0.000540125 -1.6234e-05 1.14322e-22)
(-0.000309506 -0.000617368 -2.71618e-22)
(-0.000471428 -0.000927982 2.79956e-23)
(-0.000453483 -1.55488e-05 0)
(-0.000493437 -0.000138098 0)
(-8.60021e-05 -0.000492466 -1.26915e-21)
(-1.84651e-05 -0.000129021 0)
(-0.000201391 0.000814355 7.96708e-25)
(-0.000508183 0.000287865 2.76427e-24)
(0.000351728 -0.000267173 -1.17602e-24)
(-3.16139e-05 -0.000284027 0)
(8.79747e-05 -0.000476476 -1.44286e-22)
(-0.000358997 -0.00087055 -4.33564e-22)
(-0.000500544 0.000491722 -5.08775e-22)
(-3.34996e-05 -0.000200999 -1.76035e-21)
(-0.00051069 0.000818996 0)
(0.000283075 -0.000385364 0)
(-0.000562314 0.000402101 5.22422e-22)
(-0.000529757 0.000654549 2.97761e-24)
(-0.000567847 0.000521631 -2.40447e-24)
(0.000326914 -0.000363607 -5.83898e-22)
(0.00014386 -0.000511926 1.31402e-21)
(-0.000317671 -8.9507e-05 6.90685e-22)
(-9.26438e-05 -0.000354267 2.67278e-21)
(-3.06112e-05 -0.000118571 0)
(-0.000106737 0.000104039 6.78288e-25)
(-0.000111873 -2.83519e-05 -1.33304e-21)
(-0.000401967 0.00115885 8.98949e-22)
(-0.000478656 -0.000707834 3.75602e-22)
(-0.000599182 -0.000231605 -1.07231e-22)
(-0.000339376 -0.00133782 -1.25468e-21)
(-9.9161e-05 -0.00134943 7.23255e-22)
(-0.000117385 0.000529345 -3.02712e-23)
(-0.000297305 8.32073e-06 -6.61427e-22)
(-0.000308751 0.000106977 -1.23116e-21)
(-7.07136e-05 0.000477827 -9.07555e-23)
(-0.000132952 0.00103088 -2.70968e-21)
(-8.62438e-05 0.000279133 -1.3457e-21)
(-9.87315e-05 -0.000752765 -7.88442e-22)
(0.000370119 -0.000220975 1.09829e-23)
(-0.000359504 -0.00010908 0)
(-0.000578332 -0.000277463 -3.72224e-23)
(-0.00035849 0.000216183 -1.17205e-21)
(-0.000433376 0.0003419 0)
(-1.83051e-05 -8.339e-05 1.39582e-21)
(-0.000343128 0.00111001 0)
(0.000131001 -3.38096e-05 0)
(-0.000523897 -0.000796266 -3.94614e-22)
(0.000195493 0.000460306 8.97901e-22)
(-0.000125976 -0.000169871 -4.7397e-24)
(-0.000204322 0.00104944 1.37646e-21)
(-7.08933e-05 3.52588e-05 1.31571e-21)
(-0.000601293 6.18812e-06 1.73454e-22)
(2.54676e-05 -0.000346942 1.182e-22)
(3.34885e-05 -0.000275338 1.44165e-22)
(-0.000458974 -0.00107595 3.29045e-22)
(0.000233531 -0.000333258 0)
(-0.000416242 0.000930263 -9.62307e-22)
(4.39817e-05 0.000812643 -4.28824e-22)
(-0.000371097 0.000692152 6.10824e-23)
(3.59351e-05 3.21301e-06 -3.04694e-22)
(-0.000323101 3.10568e-05 1.26091e-21)
(-0.000123424 -0.00076477 -9.33421e-25)
(0.000218033 -0.000338696 -6.43039e-22)
(0.000238739 0.000511232 -8.71958e-22)
(4.84001e-05 -4.8945e-06 -5.51729e-22)
(-0.0001459 0.000400618 -2.19032e-23)
(6.44937e-05 0.000824915 8.18489e-22)
(2.1354e-05 -7.74336e-06 2.97973e-22)
(-0.000316604 -0.00178653 0)
(-0.000392291 0.000702228 -1.22303e-23)
(-0.00033919 0.000865233 9.56092e-22)
(-0.000426338 0.000189165 5.70073e-22)
(0.000199324 -0.00013113 2.11181e-22)
(1.64502e-05 -0.000167349 -1.43505e-22)
(-0.000231313 -0.000349164 1.03457e-21)
(8.59932e-05 -1.60333e-07 6.75324e-22)
(-0.000191694 -0.000676611 0)
(0.00025309 -0.000449066 -1.60619e-23)
(7.05892e-05 -1.33707e-05 -3.38869e-22)
(-8.83505e-05 -0.000214385 0)
(-0.000137182 -0.000323263 -1.33599e-21)
(0.00020386 -0.000647906 -4.75312e-22)
(-8.08062e-05 0.000963301 4.4819e-22)
(-2.1015e-06 1.0463e-06 0)
(-2.39574e-05 0.000443453 -2.41709e-22)
(7.31092e-07 -1.81046e-06 -4.66267e-22)
(-0.000319928 0.00190407 0)
(3.47579e-05 1.84635e-05 -4.72839e-22)
(-0.000421334 -0.000280171 3.03602e-22)
(2.42969e-05 2.48563e-05 2.85823e-22)
(-0.00014294 0.0015007 0)
(-0.000262874 -0.0018449 1.72856e-23)
(6.24301e-06 -3.86261e-06 2.00525e-22)
(0.000246598 -9.41115e-05 0)
(-0.000176055 5.94698e-05 0)
(-4.65704e-05 -0.000682205 0)
(0.000119445 0.000299674 7.57959e-22)
(2.69892e-05 -1.34421e-05 0)
(-2.53712e-05 -0.000609044 2.61641e-21)
(-0.000321622 -0.000999103 -2.08047e-23)
(-9.62544e-05 0.000100463 0)
(-5.24333e-05 -0.000501428 9.15901e-24)
(0.000276486 2.57266e-05 0)
(-0.000281858 -0.00145611 7.03946e-22)
(7.93213e-05 0.000703416 1.58682e-21)
(-4.07235e-05 -0.000406187 3.34279e-21)
(0.00011635 0.000437137 3.5824e-22)
(-2.23363e-05 -0.000184038 0)
(-0.000114618 -0.00021174 7.44623e-22)
(-0.000100841 -6.7833e-05 0)
(-0.000308291 -0.000202873 4.34584e-23)
(-0.000280514 2.00164e-05 3.52735e-23)
(-0.00036564 -0.000346198 0)
(-0.000279316 -9.87508e-05 -6.42929e-24)
(0.000168372 0.000121888 -5.15114e-22)
(-2.32777e-05 6.54176e-05 0)
(-2.56197e-05 0.000190004 0)
(-0.000182733 0.000602765 2.4492e-23)
(-0.000201545 0.000439711 0)
(-2.06806e-05 0.000256611 -3.03673e-22)
(-2.41654e-05 0.000314813 -3.08789e-22)
(-0.000169491 0.000585539 -2.70442e-22)
(0.000183671 0.000583183 -7.36392e-22)
(7.43409e-05 0.000645646 0)
(0.0003132 0.000402291 -1.92797e-21)
(3.33196e-05 0.000758356 0)
(-0.000281894 -0.00124877 6.54236e-22)
(-0.000376928 0.00175968 0)
(1.93785e-05 4.62141e-06 0)
(-0.000286259 -0.00191691 0)
(3.57547e-06 -5.33997e-06 -1.87639e-22)
(-0.00040928 -3.51694e-05 1.85514e-23)
(-0.000375646 -0.00134857 0)
(-3.84836e-05 -0.000456123 0)
(6.23224e-07 1.7624e-06 2.55217e-22)
(-0.000110877 -0.000936951 0)
(-1.82837e-06 1.12933e-07 -3.42398e-22)
(-0.00039298 0.00128239 1.01231e-22)
(0.000135961 -9.31444e-05 2.5572e-22)
(0.000121188 2.95144e-05 0)
(0.000326332 0.000170995 4.88636e-22)
(0.00017143 4.04017e-05 0)
(-0.000304228 0.00176254 0)
(-1.45955e-05 -0.000316186 0)
(7.77126e-05 -7.68816e-05 1.2841e-23)
(9.54544e-05 4.20379e-05 4.25266e-22)
(-0.000394979 0.00122929 -1.0054e-22)
(0.00011027 -5.20495e-05 2.95186e-22)
(5.97922e-05 6.28641e-06 4.42041e-22)
(-0.000318998 -0.00151361 3.1451e-22)
(-1.74169e-05 -0.000247008 -1.36313e-21)
(-0.000239282 -0.00183946 -2.70824e-22)
(-0.00037995 -0.00108182 4.34644e-22)
(-2.37554e-05 -0.00016992 -1.37465e-21)
(-3.26932e-05 -0.00026006 9.2828e-22)
(-1.4617e-05 -0.000106594 -6.70314e-22)
(-6.7873e-05 0.000854754 1.5379e-21)
(5.95127e-06 5.39841e-06 6.94708e-22)
(-0.000371901 -0.000215749 -4.67147e-23)
(-6.38788e-05 -0.00011208 -3.37323e-23)
(0.000167487 0.000192744 1.07483e-21)
(-0.000305823 -3.85046e-05 4.5337e-23)
(-1.1463e-05 4.64423e-05 0)
(-1.92466e-05 0.000113391 -2.00975e-22)
(0.000315694 0.000281341 -5.11648e-22)
(-1.09309e-05 6.90856e-05 0)
(7.66053e-05 0.000315127 -7.64924e-22)
(-0.000243041 0.000504963 0)
(-8.54123e-06 0.000130248 1.49446e-22)
(-0.000125343 0.000462432 2.66871e-23)
(-5.39293e-05 0.000607433 -3.15341e-22)
(0.000328007 0.00036803 1.4081e-21)
(1.10609e-05 0.000514148 -2.47466e-23)
(0.000275311 0.000488123 -4.97311e-22)
(3.5715e-05 0.000635446 -5.56233e-22)
(0.000257306 0.000420362 5.02449e-22)
(-5.83179e-05 0.000748048 6.87217e-23)
(-0.000137896 -0.000353319 0)
(-0.000413602 -0.000744791 -1.14026e-22)
(-0.000234148 -0.000531596 5.98002e-22)
(0.000279108 0.000170364 0)
(-0.000128773 0.000718699 -1.81724e-22)
(-0.000108036 4.69578e-05 0)
(-0.000168094 0.000134373 -2.41241e-22)
(1.44174e-05 -1.67147e-05 -1.94577e-22)
(5.94537e-05 -3.20089e-05 -2.93898e-23)
(4.31627e-05 -4.14069e-05 -5.44795e-23)
(1.30107e-06 -2.94415e-06 4.06482e-22)
(-3.93299e-05 -0.000736749 0)
(-0.000181492 -0.00150977 1.93797e-23)
(0.000228876 0.000240587 -1.35032e-21)
)
;

boundaryField
{
    back
    {
        type            empty;
    }
    front
    {
        type            empty;
    }
    left
    {
        type            noSlip;
    }
    top
    {
        type            uniformFixedValue;
        uniformValue    
        {
            type            scale;
            scale           
            {
                type            squarePulse;
                start           0.3;
                duration        0.3;
            }
            xScale          
            {
                type            constant;
                value           1;
            }
            value           
            {
                type            constant;
                value           (0 -0.7 0);
            }
        }
        value           uniform (0 -0 0);
    }
    right
    {
        type            noSlip;
    }
    bottom
    {
        type            zeroGradient;
    }
}


// ************************************************************************* //
