/*--------------------------------*- C++ -*----------------------------------*\
  =========                 |
  \\      /  F ield         | OpenFOAM: The Open Source CFD Toolbox
   \\    /   O peration     | Website:  https://openfoam.org
    \\  /    A nd           | Version:  9
     \\/     M anipulation  |
\*---------------------------------------------------------------------------*/
FoamFile
{
    format      ascii;
    class       volVectorField;
    location    "1.99";
    object      U;
}
// * * * * * * * * * * * * * * * * * * * * * * * * * * * * * * * * * * * * * //

dimensions      [0 1 -1 0 0 0 0];

internalField   nonuniform List<vector> 
1655
(
(-0.0133032 -0.00662637 -3.6257e-18)
(-0.000447303 0.000277743 2.39009e-17)
(-0.0971271 0.122933 1.92231e-17)
(0.0497403 -0.0144571 -1.15329e-17)
(0.0851955 0.0970445 0)
(-0.00667077 -0.0212738 7.27768e-18)
(-0.124348 0.102122 0)
(0.0364475 0.147699 -1.281e-17)
(0.0586073 0.212749 0)
(0.0863378 0.0858038 -6.26964e-18)
(0.0448053 -0.0476194 2.88827e-17)
(0.0418245 -0.0531698 -2.84541e-17)
(0.026604 0.0950809 -3.4112e-21)
(0.00286739 -0.0290823 -1.50175e-17)
(-0.0299374 -0.543047 1.41429e-17)
(0.00267672 -0.00649284 0)
(-0.0600561 -0.00409132 2.59181e-17)
(0.0631802 0.0986594 7.66123e-18)
(-0.0293357 -0.00206945 -2.90119e-17)
(0.00201649 -0.022239 -8.34162e-18)
(0.00353544 -0.0319213 3.39569e-18)
(0.0569405 0.219028 0)
(0.0606858 0.132871 -1.54626e-17)
(0.0570568 0.121014 7.17702e-18)
(0.000958419 -0.0361323 -4.55931e-18)
(-0.039903 -0.00695863 -3.07967e-17)
(-0.00089358 -0.00413362 -1.34543e-17)
(0.04823 0.20042 -1.53848e-17)
(0.0425767 0.191113 2.07549e-17)
(0.00277881 -0.0282105 -1.50127e-17)
(-0.177978 0.05023 3.72009e-17)
(-0.0434895 0.158085 -3.97211e-18)
(0.00660138 -0.0716908 -5.5154e-18)
(0.00187554 0.128145 0)
(0.0672598 0.0762722 0)
(0.0302761 0.106264 0)
(0.00840095 -0.0221794 -1.95777e-17)
(-0.00347243 0.00562868 0)
(0.00504447 -0.0696535 -7.54773e-18)
(-0.00645694 0.00130641 -2.58034e-17)
(0.000242751 -0.0199374 1.45679e-17)
(0.0678994 0.126431 1.24879e-17)
(0.0048159 -0.0629451 -7.89071e-18)
(-0.0150044 0.014603 2.3004e-17)
(-0.00185889 0.00567558 0)
(0.0727649 -0.0212728 0)
(0.0783867 -0.0168668 3.58677e-17)
(-0.0019743 0.00653392 0)
(0.0596965 0.011597 1.40295e-17)
(0.00485232 -0.0597769 1.92138e-18)
(-0.00674099 -0.0200417 2.16264e-17)
(-0.0750987 0.131796 -1.43267e-17)
(0.0879817 0.00112834 -1.57856e-17)
(0.058583 0.210556 1.3741e-17)
(0.0607575 0.169618 -1.77274e-17)
(-0.109742 -0.0968768 0)
(-0.00353772 0.00134705 -7.05784e-18)
(0.0325928 -0.0368548 0)
(0.0901125 -0.0368142 0)
(-0.0336455 0.0584522 1.52365e-17)
(-0.177626 0.0577876 -3.71791e-17)
(-0.0311521 -0.0146785 0)
(-0.0035163 -0.0170001 0)
(0.0455077 0.162603 -3.54122e-18)
(0.0310305 0.041101 0)
(-0.146929 0.0653143 0)
(0.123806 0.0243304 3.33108e-17)
(0.0584125 -0.0429048 -1.65655e-17)
(-0.0333032 -0.0896161 0)
(0.0635461 0.117281 -1.42885e-17)
(0.0387742 -0.0331821 1.84276e-17)
(-0.126023 0.0794327 -8.72961e-19)
(0.00636026 -0.0417983 -9.33836e-19)
(-0.0150028 -0.635665 1.24692e-17)
(-0.0375618 0.0590278 -1.73387e-17)
(0.0135266 -0.0037435 8.18863e-18)
(0.0390346 0.177842 -4.71209e-18)
(-0.0200234 -0.090991 0)
(-0.00059306 -0.0100993 0)
(0.00311759 -0.0287635 0)
(0.0446791 0.0327993 1.84597e-17)
(0.00817198 -0.00057325 -8.33417e-18)
(0.0542166 0.170344 1.81116e-17)
(-0.01003 0.0217914 9.27112e-18)
(0.00562792 -0.0458434 0)
(0.024038 -0.229675 0)
(-0.065561 0.0831846 -1.04639e-17)
(0.00485563 -0.0358256 0)
(0.0023034 0.0138331 -7.25402e-18)
(0.0257643 -0.188987 0)
(0.0892898 -0.1666 0)
(-0.0906148 0.138176 9.05905e-18)
(-0.0239018 0.00528091 1.77587e-17)
(0.038275 0.00808322 0)
(0.00328969 -0.0144867 0)
(-0.0269087 -0.00154535 2.95685e-17)
(0.103259 0.0193465 -2.82829e-17)
(0.0746018 -0.0340598 0)
(-0.0469245 0.175711 -8.49417e-18)
(0.00896895 -0.0790702 1.82135e-17)
(-0.0851894 0.119734 -5.69505e-17)
(0.0693374 0.00528129 -1.86952e-17)
(0.0613695 0.0252366 -1.83105e-17)
(0.0689156 0.0129419 1.96327e-17)
(0.06726 0.18142 0)
(-0.0255389 -0.0135452 -1.13481e-18)
(0.0647711 0.191189 -1.56059e-17)
(0.00134744 -0.0207859 0)
(0.00625346 -0.0787789 0)
(-0.0316131 -0.0568762 -1.61218e-17)
(0.00339504 -0.0794206 1.26966e-17)
(0.0117511 -0.026066 1.47279e-17)
(0.00470682 -0.0514236 9.78877e-18)
(0.00721235 -0.0533015 1.67183e-17)
(0.0731879 0.186222 1.48287e-17)
(0.0759917 -0.184659 -9.30254e-18)
(0.0659851 0.185877 -1.5868e-17)
(0.0886492 -0.0302989 0)
(0.00125927 0.0227439 1.43552e-17)
(0.0698923 0.173554 -3.13644e-17)
(0.00133919 0.00718666 -2.76989e-17)
(0.0172762 0.0633842 2.81899e-17)
(-0.123616 0.0720048 -2.2148e-17)
(0.146985 -0.00781361 2.07023e-17)
(0.0979135 0.0188404 7.25749e-18)
(0.0523308 0.148257 0)
(0.00354864 -0.0521152 -1.81529e-17)
(0.0044269 -0.0199087 1.63622e-17)
(0.00477076 0.000124264 -2.27397e-18)
(0.00432397 -0.0629441 -2.17509e-18)
(0.0402502 -0.0211077 4.15172e-18)
(0.00334701 -0.0802943 2.24064e-17)
(0.0507872 0.16917 1.37146e-17)
(0.0539251 0.143133 1.4436e-17)
(-0.000106239 -0.00732675 0)
(-0.001428 0.00525485 0)
(0.0830884 0.110761 -8.42222e-18)
(0.0898824 0.0210397 1.43158e-17)
(-0.00166107 -0.00206317 7.71374e-18)
(0.119928 0.0126136 -7.54845e-18)
(0.118343 0.1002 9.90368e-18)
(-0.00329567 0.00447046 1.38081e-17)
(-0.00458175 0.00310104 0)
(0.0632709 0.0315221 0)
(-0.125872 0.0181976 -8.51799e-18)
(0.022381 0.0357264 0)
(0.0600417 0.026738 -2.96808e-17)
(0.0241869 0.0289538 2.38656e-17)
(0.0385265 0.0261697 1.54162e-17)
(-0.233963 0.0364749 0)
(-0.21549 0.0326766 1.44951e-17)
(-0.202197 0.0327349 -7.81477e-18)
(-0.0508651 0.0437894 1.5305e-17)
(-0.147 0.0376392 1.32675e-17)
(0.0291861 -0.29535 0)
(0.0025819 -0.0493647 2.92845e-17)
(0.0200409 0.0289152 1.87128e-18)
(0.088024 0.0373478 7.85179e-18)
(0.0714486 0.191831 0)
(0.0508061 0.0132731 -1.99267e-17)
(0.0775632 0.0291551 2.24463e-17)
(0.05261 -0.03199 0)
(0.0624364 0.209446 -8.96502e-22)
(0.0783595 0.0489375 0)
(0.0630383 0.0451909 0)
(0.0754664 -0.040912 -7.66402e-18)
(0.0533325 0.204832 0)
(0.0685013 0.175303 -2.99106e-17)
(0.0733855 0.00624719 4.60368e-18)
(-0.0966276 -0.110631 0)
(-0.101954 -0.0260149 0)
(0.0691328 0.178284 0)
(0.0534798 0.0273124 9.25102e-18)
(0.0667363 0.202409 1.5759e-17)
(0.00477964 -0.0391296 9.76081e-19)
(0.0681134 0.198282 1.57057e-17)
(0.0477009 -0.0105125 4.17207e-18)
(-0.10988 -0.199796 0)
(0.0111829 -0.0651347 -1.73557e-17)
(0.00166473 -0.0223896 1.36391e-17)
(-0.0809445 -0.211666 1.93517e-17)
(0.0718288 0.165738 1.22709e-17)
(-0.0182323 -0.0218627 -2.6459e-17)
(0.133395 -0.00802388 -4.52555e-18)
(-0.00664973 0.00038058 -8.75272e-18)
(0.0158235 -0.0717363 0)
(0.00685582 0.00394459 0)
(0.0130004 -0.069995 0)
(0.103288 0.151524 0)
(0.0767535 0.161189 -1.1934e-17)
(-0.00414349 0.00625138 -1.57543e-17)
(-0.0265417 -0.00952525 0)
(0.101601 0.120248 -1.59762e-17)
(-0.0678668 0.108568 2.01616e-17)
(0.0210476 -0.077167 0)
(0.00068055 -0.0113422 -9.87058e-18)
(0.0916098 0.138231 0)
(0.0178929 -0.0755308 0)
(-0.00577393 0.0191196 1.88132e-17)
(0.0805605 0.145295 0)
(0.109412 -0.0183106 1.03457e-17)
(0.106181 -0.0147528 -4.63894e-18)
(-0.0910195 0.0998948 1.69198e-17)
(-0.142376 0.074178 3.77089e-17)
(0.099408 -0.0942886 -1.43182e-17)
(0.00557484 -0.0368404 1.14821e-17)
(0.0140788 -0.071106 0)
(0.113113 0.117034 0)
(0.00578392 -0.0674776 5.15216e-17)
(-0.00521026 0.115633 0)
(0.0297647 0.125351 2.71468e-17)
(-0.0274595 0.106166 -7.48766e-18)
(-0.00167944 0.000565962 0)
(0.0608811 0.165013 1.56594e-17)
(0.00325157 -0.0259519 -1.62177e-18)
(0.124032 0.00248717 3.5187e-17)
(0.0430274 0.0837266 -8.82618e-18)
(0.0288713 -0.00102458 0)
(0.0296563 0.0653264 1.55086e-17)
(0.0856708 0.138388 0)
(-0.0013934 0.00792525 0)
(0.00624232 -0.0396132 -3.31812e-17)
(0.00886988 -0.0696346 2.33341e-17)
(0.0876998 0.145843 1.59734e-17)
(0.0112532 -0.0723419 -1.68447e-17)
(0.0265919 -0.0812611 1.62008e-17)
(0.0272651 -0.0805881 -1.61441e-17)
(0.10818 -0.115118 0)
(0.0321475 0.000545382 1.97346e-17)
(0.0506621 -0.0353564 1.57752e-17)
(0.0364439 -0.0574229 0)
(0.0363281 -0.112779 -1.96873e-17)
(0.0588933 -0.137781 1.96446e-17)
(0.0233321 -0.0644779 -3.08131e-17)
(0.0167481 -0.0737549 -1.66382e-17)
(0.0320683 -0.0608809 1.62592e-17)
(0.0232486 -0.0798236 0)
(0.118648 0.0926133 0)
(0.0246944 -0.0775161 2.01169e-17)
(0.0433402 -0.169623 1.57316e-17)
(-0.095986 -0.250552 -1.48666e-17)
(-0.00709738 0.0059813 2.8844e-17)
(0.0568312 -0.156566 -1.97107e-17)
(9.51676e-06 -0.00891769 1.37867e-17)
(0.0908319 0.12533 4.00517e-18)
(0.00244369 -0.0249328 -2.04505e-17)
(-0.188782 0.0247802 1.19876e-17)
(0.0633415 0.20717 0)
(0.0214877 -0.0753926 -4.03364e-18)
(0.0837526 0.151496 0)
(-0.0183103 0.0159945 -1.31487e-17)
(0.00252037 -0.0211342 3.2763e-18)
(0.110299 -0.0714412 -1.57986e-17)
(-0.00658823 0.133243 -1.1343e-17)
(0.020045 -0.0723891 1.63559e-17)
(0.0470825 0.0928436 -1.94358e-17)
(0.0129355 -0.0779831 -1.67945e-17)
(0.0941248 0.119264 -3.98995e-18)
(-0.0865323 -0.334331 2.07077e-17)
(0.00896529 -0.0644785 1.53992e-17)
(0.0665452 -0.0592402 1.19728e-17)
(0.0112873 -0.0611452 1.66058e-17)
(0.0305912 -0.0824014 1.60799e-17)
(-0.011847 0.0735481 1.56463e-17)
(0.110315 -0.0709139 1.58315e-17)
(0.0812708 0.183264 1.58271e-17)
(0.0113051 -0.0624189 0)
(0.00282893 -0.0385786 -2.26669e-17)
(0.0109352 -0.0756695 8.79834e-18)
(0.00398589 -0.0401655 0)
(0.101963 0.111049 -1.70601e-17)
(0.095029 0.0517561 1.20677e-17)
(-0.00602231 0.00905718 8.45617e-18)
(0.0137917 -0.0633383 0)
(0.0151662 -0.127311 6.40818e-21)
(0.138945 0.0658628 -1.21439e-17)
(-0.184705 0.0169525 0)
(0.0974812 0.0950465 1.99553e-17)
(0.0701225 0.149534 -2.00426e-17)
(0.0730686 -0.0902525 3.92876e-18)
(0.0765424 0.140768 1.63019e-17)
(0.0894295 0.176092 3.97213e-18)
(0.137521 0.00540861 1.61066e-17)
(0.0554199 0.185344 1.41525e-17)
(-0.0635918 -0.442049 -2.60907e-17)
(0.147871 0.105242 -1.61111e-17)
(0.090325 0.117692 1.61024e-17)
(0.0091817 -0.079577 1.46201e-17)
(0.0141418 -0.0660856 0)
(0.101903 0.116585 0)
(0.141342 0.123811 1.57637e-17)
(0.000983872 -0.0180156 1.57044e-17)
(0.00830812 -0.0515217 3.39604e-17)
(0.0705924 0.187039 0)
(0.103415 0.0895929 -1.60825e-17)
(0.023886 -0.0796338 4.096e-18)
(0.0219061 0.0964223 0)
(0.0482514 0.0278713 -2.74951e-17)
(-0.000621262 -0.00493327 -1.59941e-17)
(0.00970186 -0.071763 -4.04879e-17)
(0.013977 -0.0800128 -1.70225e-17)
(0.023555 0.00475919 0)
(0.00222056 -0.00537876 2.47159e-17)
(0.029298 -0.0811979 -4.06915e-18)
(0.0309408 -0.0818419 -3.21434e-17)
(0.0782493 0.139908 -1.70938e-17)
(0.0190268 -0.0805429 -4.12481e-18)
(0.0189743 -0.0710963 4.02802e-18)
(0.117767 0.0522798 -4.00855e-18)
(0.0343287 -0.0839552 -1.60122e-17)
(0.171236 0.0503944 0)
(-0.150333 0.00151881 8.55641e-18)
(0.0160626 -0.0688366 -4.05534e-18)
(0.0742487 -0.0743078 -3.99105e-18)
(0.0791722 0.189055 0)
(0.107324 0.0743658 0)
(-0.000596387 -0.00344651 -1.59826e-17)
(0.0706381 0.1544 -1.60366e-17)
(0.0344482 -0.0835987 2.46179e-22)
(0.0144003 -0.0796321 1.78112e-17)
(0.0824209 0.133495 0)
(0.00695445 -0.0436519 -1.70981e-17)
(0.0121476 -0.0793686 2.25004e-18)
(0.0274473 -0.0795284 -4.0847e-18)
(0.0171949 -0.0800419 -1.65661e-17)
(0.058861 -0.0227532 2.2935e-17)
(0.0279307 -0.0139878 7.86678e-18)
(0.0865634 0.181929 -2.00026e-17)
(0.0140159 -0.0761935 0)
(0.131026 -0.0733417 -1.5753e-17)
(0.0202669 -0.0674771 0)
(0.0946357 0.106093 1.60719e-17)
(0.00104543 -0.00847328 7.28281e-18)
(0.0187889 -0.0684807 -1.62277e-17)
(0.144494 0.054708 1.59997e-17)
(0.0247473 -0.0759268 -1.20995e-17)
(0.125616 -0.0658781 1.1846e-17)
(0.0109875 -0.0560463 -1.69932e-17)
(0.0330451 -0.0839999 0)
(0.135525 0.0864972 0)
(0.0128498 -0.0803373 1.75567e-17)
(0.0341886 -0.0832283 1.61656e-17)
(0.102626 -0.0848641 0)
(0.033987 -0.0606847 -1.96419e-17)
(0.00815788 0.214128 0)
(0.0327326 -0.081574 -2.83899e-17)
(0.004154 -0.0378796 0)
(0.0224503 -0.0808233 4.10719e-18)
(0.0175485 -0.0802545 0)
(0.0133191 -0.0596954 0)
(0.02958 0.0787479 0)
(0.108975 -0.0878782 1.56834e-17)
(0.0549186 -0.0918892 0)
(0.0183319 -0.0784938 1.65229e-17)
(0.0659842 0.197149 0)
(0.038081 -0.0858785 0)
(0.0321158 -0.0835402 0)
(0.0362341 -0.0853444 -2.69324e-22)
(0.105507 0.0505448 -1.59655e-17)
(0.0306591 -0.0791853 2.00502e-17)
(-0.0484355 0.0751163 -1.36402e-17)
(0.0170408 -0.06382 0)
(0.0645897 0.203229 -4.25912e-18)
(0.0680565 -0.0990438 1.58009e-17)
(0.0054453 -0.00730887 1.66595e-17)
(-0.128844 -0.289765 -1.3648e-17)
(0.0123829 -0.0729002 4.25215e-18)
(0.032742 0.072472 -1.57477e-17)
(0.0902157 0.118897 0)
(0.0402445 -0.0761743 0)
(-0.00386918 0.00442443 0)
(0.0161531 -0.0769039 1.65359e-17)
(-0.000266642 0.00274103 0)
(0.0401053 -0.0871881 0)
(0.037426 0.0647409 0)
(0.113329 0.0352219 3.99584e-18)
(0.167147 -0.0759952 1.17791e-17)
(0.0609133 0.17152 -6.22358e-22)
(0.0403559 -0.0652078 4.02492e-18)
(0.0287773 -0.0824659 -1.62211e-17)
(0.0359532 -0.0469944 -4.13532e-18)
(0.0753934 -0.0993328 0)
(0.0769587 0.177149 -1.64322e-17)
(0.0649191 -0.0956337 -1.97262e-17)
(0.0240461 -0.081296 -4.07915e-18)
(0.0686476 0.195588 0)
(0.0407881 -0.0877013 0)
(0.101257 0.0783963 1.60228e-21)
(0.178902 -2.73378e-05 0)
(0.0280474 -0.0784912 -4.0216e-18)
(-0.000414564 -0.011233 1.52028e-17)
(0.105682 -0.0784754 -1.57222e-17)
(0.163464 -0.0730513 -1.57182e-17)
(0.0740684 0.18408 0)
(0.0373295 -0.083984 0)
(0.0442573 -0.0889516 -1.59027e-17)
(0.0381178 -0.085883 1.59247e-17)
(0.156089 0.0862514 0)
(0.0655943 0.206272 0)
(0.115808 -0.0501487 0)
(0.0369291 -0.0857854 -1.60112e-17)
(0.0207315 -0.0391347 3.38018e-17)
(0.0791402 -0.1037 3.93622e-18)
(0.0944968 0.170672 -1.9844e-17)
(0.142599 -0.071186 -3.93012e-18)
(0.0227095 -0.0750714 -1.64042e-17)
(0.0766727 0.172049 1.60455e-17)
(0.103014 -0.0712953 -1.9763e-17)
(-0.00227033 0.00268545 0)
(0.159267 -0.0731251 0)
(0.041012 0.0482718 0)
(0.0775233 -0.109611 3.93434e-18)
(0.0584076 -0.0951509 3.96377e-18)
(0.151773 -0.0757501 0)
(0.026376 -0.0739961 0)
(0.0745458 -0.113767 -1.57379e-17)
(0.0806453 0.167632 0)
(0.0419198 -0.151778 0)
(0.0561449 -0.092838 -1.19116e-17)
(0.0451973 -0.0897457 1.58866e-17)
(0.0868782 -0.0438641 1.58175e-17)
(0.0741766 -0.105962 -3.93585e-18)
(0.0687732 0.0911798 3.98516e-18)
(0.0423114 -0.0882395 0)
(0.0512072 -0.0902889 1.58882e-17)
(-0.161072 -0.0208374 -1.00035e-17)
(0.0616252 -0.167947 0)
(0.0384222 -0.0854282 1.20599e-17)
(0.0218175 -0.0713114 1.6185e-17)
(0.0501395 0.161033 1.96083e-17)
(0.0222191 -0.080547 0)
(0.0651614 0.100706 8.47525e-22)
(0.0493851 -0.090733 0)
(0.0729188 0.0599056 -5.17347e-18)
(0.0709189 -0.110751 1.18063e-17)
(0.0961002 -0.115986 -1.17799e-17)
(0.0429438 -0.0760935 1.60891e-17)
(0.0840459 -0.0840317 6.79347e-18)
(0.0325005 0.028856 0)
(0.0838889 -0.116456 0)
(-0.00342329 0.00533375 1.39318e-17)
(0.0502435 -0.0964482 0)
(0.115771 -0.0658864 1.9717e-17)
(0.0424766 -0.0888622 0)
(0.0545901 -0.0952623 0)
(0.0896804 -0.114736 -1.96537e-17)
(0.061763 0.0998567 1.57841e-17)
(0.144965 -0.0742249 0)
(0.0544783 0.125953 3.51411e-22)
(0.112975 -0.0769913 1.57298e-17)
(0.0462771 0.184806 -3.91705e-18)
(0.154864 -0.100318 -1.56461e-17)
(0.0390472 0.218951 -3.89725e-18)
(0.0635095 -0.100305 3.94383e-18)
(0.0479215 0.210573 -3.12291e-17)
(0.0595154 -0.10352 1.97168e-17)
(0.108742 -0.0395437 0)
(0.0481828 -0.0927925 0)
(0.0513419 0.134158 0)
(0.0756126 0.0833911 0)
(0.0836144 -0.0915333 -3.93665e-18)
(0.0504824 -0.0989384 -3.94922e-18)
(0.0781535 -0.0952001 3.93986e-18)
(0.149242 -0.0867078 -1.5668e-17)
(0.0742053 -0.0426156 -1.58224e-17)
(0.0705262 0.169715 3.16259e-17)
(0.0558471 -0.0978289 -3.949e-18)
(0.0476209 -0.0912777 0)
(0.052481 -0.103868 3.9787e-18)
(0.0892234 -0.0983067 0)
(0.0911122 -0.0929853 -1.57498e-17)
(0.0415499 -0.0616869 1.20382e-17)
(0.0658296 -0.103695 3.943e-18)
(0.127051 -0.0718587 3.93598e-18)
(0.18215 -0.093717 1.56171e-17)
(0.0964214 -0.100776 -3.93388e-18)
(0.0903194 -0.0921897 -2.7537e-17)
(0.102781 -0.117172 -1.17727e-17)
(0.049756 -0.119577 1.18957e-17)
(0.0369747 0.137375 -7.55873e-18)
(0.0345856 -0.0824641 -2.00117e-17)
(0.157843 -0.0631063 0)
(0.0546722 -0.107233 -3.94073e-18)
(0.0302291 0.215265 3.90203e-18)
(0.098848 -0.10976 -3.92694e-18)
(0.0610849 -0.106709 -1.18266e-17)
(0.049478 0.130695 -1.56359e-17)
(0.0154683 0.182795 0)
(0.148585 -0.0628913 0)
(0.0462033 -0.0872871 -3.99672e-18)
(0.193636 -0.0852722 -3.5131e-17)
(0.0643185 0.103239 -1.57795e-17)
(0.0662462 -0.112876 3.9353e-18)
(0.106565 0.160664 -3.91593e-18)
(0.13419 -0.0781096 -1.56979e-17)
(0.0996104 -0.11293 3.92831e-18)
(-0.137601 -0.0189749 -2.22968e-19)
(0.0194755 0.164044 0)
(0.100371 -0.117849 1.17787e-17)
(0.0985974 0.183488 1.95793e-17)
(0.163088 -0.0462972 0)
(0.0942355 -0.0994579 1.57331e-17)
(0.0466849 0.116419 7.93829e-18)
(0.175942 -0.0669203 1.95671e-17)
(-0.116745 -0.0628341 0)
(0.149666 -0.0564366 1.17719e-17)
(0.0136774 0.213196 -1.56462e-17)
(0.163565 -0.0544609 -3.92363e-18)
(0.137117 -0.084771 -1.03121e-21)
(0.0327791 0.178573 -1.17513e-17)
(0.15858 0.029796 1.18555e-17)
(0.136879 -0.0682211 -1.96213e-17)
(0.0309398 0.0823 -3.95275e-18)
(0.102471 -0.113319 -3.92674e-18)
(0.00618616 0.203382 0)
(0.122808 0.144161 1.56856e-17)
(0.155066 -0.0763821 0)
(0.119278 -0.108927 1.1764e-17)
(-0.134249 -0.00679983 1.41477e-17)
(-0.132098 0.0332662 0)
(0.112858 -0.0797706 -1.5698e-17)
(0.109117 -0.16297 0)
(0.0864389 -0.0792333 3.16633e-17)
(0.171652 -0.0775705 0)
(-0.149421 0.0221933 -1.51158e-17)
(0.0752244 -0.127966 1.96687e-17)
(0.14117 -0.0486459 -1.18549e-17)
(0.147995 -0.0658594 5.6418e-22)
(0.120406 -0.104746 3.92163e-18)
(0.105563 0.0428608 -1.96268e-17)
(0.150717 -0.0380517 1.58147e-17)
(0.0532987 0.13299 1.57217e-17)
(-0.0253763 0.024527 -8.81463e-18)
(0.0543822 -0.00237109 1.49434e-17)
(-0.0268214 -0.0203277 9.91144e-19)
(0.00218898 -0.000519775 1.89061e-18)
(0.0151835 0.00944074 -3.17896e-22)
(-0.022266 0.0013035 -3.22634e-17)
(0.0355513 0.00640912 0)
(0.0382631 -0.0142538 -1.39371e-17)
(-0.0216246 -0.00583891 -2.33475e-17)
(-0.0902157 0.0844165 -4.09697e-17)
(-0.0297075 -0.0149908 -1.58288e-17)
(0.04456 -0.0087521 0)
(-0.00514283 0.0141597 2.32332e-17)
(-0.0144174 -0.0172363 1.59481e-17)
(-0.0372767 0.0227981 1.72578e-17)
(0.0436356 0.00568186 0)
(0.103266 -0.113024 1.1777e-17)
(0.0179677 0.0125687 -2.46235e-17)
(-0.000577752 -0.00362634 0)
(0.122426 -0.0909562 -3.92494e-18)
(-0.0692417 0.00718831 0)
(0.130154 -0.0613527 -1.17909e-17)
(0.125862 -0.09706 3.92195e-18)
(-0.115454 -0.0493684 0)
(0.0275075 0.0211118 0)
(0.0935611 -0.106264 3.92928e-18)
(0.125863 0.120745 -1.56892e-17)
(0.0333359 0.191593 -3.91566e-18)
(0.171133 -0.105491 1.17179e-17)
(0.109841 0.0995255 -2.75167e-17)
(0.0624617 -0.120382 3.96345e-18)
(0.0470471 0.151002 -1.16441e-17)
(0.0459416 -0.0309364 0)
(-0.0955042 0.0296631 -6.793e-22)
(0.143405 -0.109808 1.95616e-17)
(0.0508596 -0.0921214 -3.96019e-18)
(0.0156321 0.216593 5.41901e-21)
(0.0864476 0.0799062 -1.17155e-17)
(0.0785037 -0.0730566 -3.98589e-18)
(0.0454401 0.225259 3.1179e-17)
(0.0466073 0.0215798 1.4483e-17)
(0.026011 0.0770275 3.55733e-17)
(0.0796405 0.139092 -1.94915e-17)
(0.131306 -0.101283 -1.17558e-17)
(0.1261 -0.0822413 1.96248e-17)
(0.122392 -0.053531 -3.15882e-17)
(-0.0940172 -0.0240288 1.57782e-17)
(0.0864312 -0.103806 -1.96675e-17)
(0.130476 -0.0524327 1.57674e-17)
(0.139497 -0.0411838 1.46096e-22)
(0.125535 -0.050065 0)
(-0.0755434 0.0532647 2.67071e-17)
(0.108339 0.122806 1.17946e-17)
(0.146578 -0.0327933 1.60016e-17)
(-0.00503594 0.20092 3.08492e-17)
(0.126752 -0.155776 1.56391e-17)
(0.175714 0.0379011 3.91773e-18)
(0.103259 -0.14704 -1.1764e-17)
(0.0962508 -0.10757 -1.57183e-17)
(0.142453 -0.13232 3.90848e-18)
(0.148345 -0.0880345 0)
(0.148493 -0.0323405 -3.92575e-18)
(0.0858487 -0.124828 -3.92888e-18)
(-0.0786141 -0.00196668 -1.57973e-17)
(0.0745821 -0.0644835 3.1587e-17)
(0.024872 0.0172183 -1.47265e-17)
(0.143099 0.0289237 -1.17685e-17)
(0.0337204 0.215058 -1.55992e-17)
(0.132093 0.0894637 -1.17466e-17)
(-0.160193 0.025627 3.91589e-18)
(-0.0191499 0.160118 1.13765e-17)
(0.0431871 0.147998 1.57336e-17)
(-0.158029 0.029241 7.70914e-18)
(-0.11824 0.0201891 0)
(-0.0178359 0.00802253 -8.49441e-18)
(0.0590046 0.0267931 -2.7031e-17)
(-0.00249775 0.00299829 3.21697e-17)
(-0.067693 0.0189683 3.67807e-18)
(0.116235 -0.10645 -1.56935e-17)
(0.113878 -0.09266 3.92737e-18)
(-0.00273838 0.00127332 0)
(-0.125334 0.0207122 -3.24258e-17)
(0.030039 0.0153096 0)
(0.116066 0.142587 -1.95818e-17)
(-0.0796796 -0.0700672 1.57873e-17)
(0.119517 -0.0654053 1.57235e-17)
(0.0716288 -0.11619 -1.57339e-17)
(-0.0323353 0.0461704 1.96737e-17)
(-0.0729748 -0.0541126 -1.57796e-17)
(0.124872 -0.146332 0)
(-0.0624656 -0.110342 -3.15599e-17)
(0.00372902 0.184055 -1.87881e-17)
(0.0997378 -0.126051 1.96593e-17)
(0.0869892 0.0858832 1.57808e-17)
(0.149626 -0.147211 -1.17281e-17)
(0.161727 -0.115415 0)
(0.164065 -0.0665127 3.9164e-18)
(0.182038 0.0113085 -7.83255e-18)
(0.0890505 -0.118225 -3.92904e-18)
(0.176272 0.0533415 1.17364e-17)
(0.160269 -0.00845001 0)
(0.126605 -0.0250713 1.73411e-17)
(0.117832 -0.0742775 -1.96534e-17)
(0.150497 0.0528876 3.52352e-17)
(0.119324 -0.0448822 0)
(0.0915821 -0.0545851 7.85685e-18)
(0.110204 -0.0995568 0)
(0.122666 -0.109218 3.91902e-18)
(0.0867154 -0.0781765 -1.96846e-17)
(-0.00557407 0.153369 -1.35484e-17)
(0.0856753 -0.111585 1.17926e-17)
(0.107156 -0.0552918 0)
(0.103356 -0.082559 -2.07277e-17)
(0.0476703 -0.0387482 1.58708e-17)
(0.106901 -0.110501 -3.92563e-18)
(0.132489 -0.0281194 -1.72143e-17)
(0.124507 0.151753 -1.5667e-17)
(-0.0948376 -0.0411374 -3.9932e-18)
(0.134641 0.110311 0)
(0.0793167 -0.0864686 0)
(0.106995 -0.120284 -3.92206e-18)
(0.112026 -0.115194 0)
(0.106856 -0.117071 1.96231e-17)
(0.0565736 -0.0735947 0)
(0.107016 -0.116853 3.92561e-18)
(0.0622346 0.217028 0)
(0.156591 -0.133457 1.17059e-17)
(-0.0286247 -0.0705852 0)
(0.1115 -0.111672 1.56935e-17)
(0.0884026 0.159584 3.90986e-18)
(0.139406 0.0948852 2.74516e-17)
(0.112195 -0.114513 -1.96081e-17)
(0.0825587 -0.118783 0)
(0.0456802 0.198322 0)
(0.130239 0.0285116 1.54128e-17)
(0.105882 -0.0751815 2.42947e-17)
(0.106881 -0.0475636 0)
(0.0802957 -0.0950601 0)
(0.0983355 0.105998 2.73783e-17)
(0.188008 -0.018814 1.56586e-17)
(0.131541 0.0539582 -3.99507e-18)
(0.0555934 0.0929716 0)
(0.124049 0.0878458 1.57213e-17)
(0.170913 0.00421891 7.84603e-18)
(0.0518642 0.164777 -3.9212e-18)
(0.00486744 0.0416203 0)
(0.0317213 0.178653 3.89339e-18)
(0.109942 0.0358497 -7.07207e-18)
(0.0560984 0.209302 0)
(0.076235 0.202359 0)
(0.161482 0.0485473 -7.83601e-18)
(0.0903315 -0.119621 3.92908e-18)
(0.14926 0.0976121 -7.83264e-18)
(-0.0561581 -0.097282 3.94767e-18)
(0.0914364 -0.0629498 7.83772e-18)
(0.0873916 -0.067434 7.3764e-18)
(0.0967769 0.185486 0)
(0.114335 0.158087 7.83093e-18)
(0.134564 0.128915 -2.52067e-21)
(0.136338 0.0773852 3.92574e-18)
(0.0331032 0.0101627 0)
(0.13394 0.137247 3.9138e-17)
(0.0963728 -0.102128 1.96517e-17)
(0.0655247 0.220135 -3.90122e-18)
(0.12838 0.0436071 -1.17002e-17)
(0.0711288 0.186988 0)
(0.082561 -0.0940469 -2.04415e-17)
(0.0837327 -0.0840584 2.7759e-17)
(0.0989073 -0.119404 -3.92493e-18)
(0.0992262 -0.0972408 3.93073e-18)
(0.0603743 -0.0616764 1.68234e-17)
(0.151059 0.0780924 -2.35191e-17)
(0.0734192 0.0629186 0)
(0.087542 0.03018 -1.9766e-17)
(0.1223 0.0688798 0)
(0.128211 -0.13154 -1.56461e-17)
(0.0786663 0.207263 3.51086e-17)
(0.0496861 0.146106 -1.77613e-22)
(-0.0392155 -0.132932 1.5736e-17)
(0.202046 -0.00735482 1.95599e-17)
(-0.0956418 -0.0889382 0)
(0.118959 -0.116006 -3.92206e-18)
(0.145761 -0.125331 1.17336e-17)
(0.148627 -0.0541861 0)
(0.065654 0.0571395 4.16582e-18)
(0.0429288 0.111988 1.57636e-17)
(0.0965532 -0.119396 -1.1775e-17)
(-0.0561215 -0.0348685 0)
(0.158838 0.09052 0)
(0.107754 0.176964 0)
(0.192114 0.0233338 0)
(0.102365 -0.118987 1.57025e-17)
(0.0978865 0.164354 1.98063e-17)
(-0.0201916 -0.142414 -1.58127e-17)
(0.0568136 0.189798 -3.91185e-18)
(0.037293 0.0927331 -1.57965e-17)
(0.131728 -0.0944252 1.17628e-17)
(0.0845701 0.0631534 0)
(-0.0940964 -0.0706458 3.94152e-18)
(-0.010128 0.0104267 3.57925e-17)
(0.0511039 0.113669 0)
(0.150924 0.105679 -1.95676e-17)
(0.00369609 -0.000699501 -3.98051e-18)
(0.0329412 0.0864642 -1.18532e-17)
(0.0630254 0.0859541 0)
(0.159369 0.0127951 -1.60953e-21)
(0.0832477 0.184915 -3.12786e-17)
(0.137663 0.040645 -4.00039e-18)
(-0.00532305 -0.149712 0)
(0.0338233 -0.0338126 0)
(0.057142 -0.0731467 -1.30393e-17)
(-0.0181205 -0.127094 -3.97256e-21)
(0.0937563 0.1978 -1.56332e-17)
(0.163107 0.0847791 -1.17389e-17)
(0.0493317 0.137712 -1.57212e-17)
(0.0813142 -0.0924752 0)
(0.0956855 0.0372328 1.84304e-17)
(0.154579 0.0355744 7.92564e-18)
(0.0475543 0.116951 3.52739e-22)
(0.100895 0.0584586 -4.01478e-18)
(0.112341 0.0164984 0)
(-0.0450107 -0.0344121 -2.76675e-17)
(-0.115317 -0.0734178 -3.17555e-17)
(0.00198721 0.0335301 0)
(0.0205009 0.0622168 1.58431e-17)
(0.0495884 0.137459 1.57236e-17)
(0.0955281 -0.108039 0)
(0.0161052 0.0122568 -1.59024e-17)
(-0.0715834 -0.114421 -1.57324e-17)
(-0.0930448 -0.0980414 1.62316e-17)
(0.0731588 0.0533024 1.18568e-17)
(0.00721566 0.0409211 0)
(0.106785 -0.0110904 -1.55586e-17)
(0.0419305 0.108526 -1.57649e-17)
(0.14462 0.0494993 4.00036e-18)
(-0.0439311 -0.138451 0)
(0.0533061 0.081134 0)
(0.0444259 0.176525 -1.17469e-17)
(-0.0599838 -0.109709 1.57883e-17)
(0.0303327 0.0804351 -3.95107e-18)
(0.0176497 0.0557538 0)
(0.113913 0.00356269 0)
(0.174945 -0.122521 -2.73107e-17)
(0.191189 0.00125779 -3.91143e-18)
(0.0591875 -0.0559 4.23543e-18)
(0.063242 0.185217 1.95626e-17)
(0.187332 0.0393894 1.1732e-17)
(0.196508 0.00787181 -2.7371e-17)
(0.0384494 0.0977584 -1.97272e-17)
(0.0446983 0.0842041 -1.58044e-17)
(0.0621299 0.0617497 1.97744e-17)
(0.0430708 0.0991304 3.551e-17)
(0.177863 0.0368063 1.17341e-17)
(0.175005 0.0558193 -1.17258e-17)
(-0.0112708 0.0122881 -4.04882e-18)
(0.106484 -0.11815 0)
(0.0562127 0.158335 -3.13939e-17)
(0.197314 -0.051186 -1.56254e-17)
(0.0176861 0.0588923 -1.5838e-17)
(-0.0754073 -0.0788969 1.57833e-17)
(0.0742062 0.200032 -1.5635e-17)
(0.0812538 0.062323 0)
(0.0976742 -0.0130099 0)
(0.0217681 -0.0780073 0)
(0.178068 -0.111184 1.56051e-17)
(0.137944 -0.0517846 0)
(-0.00444909 0.00144659 -1.19409e-17)
(0.0348639 0.0862824 0)
(-0.0139757 -0.00853624 0)
(0.0715705 -0.0360529 0)
(0.0673553 -0.0133432 -3.96062e-18)
(0.0225587 0.0653152 0)
(0.0905111 -0.108782 1.57278e-17)
(0.188097 -0.0702832 -3.905e-18)
(0.0852664 0.0199856 0)
(0.0374594 -0.0338337 -2.0048e-17)
(-0.0188023 -0.0790112 -1.59083e-17)
(0.0140791 -0.0145597 0)
(0.192582 -0.0949581 3.90133e-18)
(0.0508262 -0.0636855 0)
(0.0180479 -0.063548 1.2037e-17)
(0.0323665 -0.0175081 0)
(0.125399 0.00170989 0)
(-0.00498149 -0.0702096 -1.59489e-17)
(0.0771899 -0.00280995 0)
(0.057644 0.0508649 -1.58286e-17)
(0.0446757 -0.0075416 3.96888e-18)
(-0.0448109 -0.0635894 0)
(0.192619 0.000296282 1.1753e-17)
(0.044225 0.0234339 3.9653e-18)
(0.116836 0.0140109 0)
(0.0205118 -0.0314311 -1.08056e-17)
(0.19023 -0.0600507 -1.95666e-17)
(-0.0379085 -0.106336 2.51479e-21)
(0.148374 -0.0488242 -1.57364e-17)
(0.129293 -0.0215961 1.57818e-17)
(0.0700719 0.0299971 -1.5828e-17)
(0.06938 0.0938312 0)
(0.140608 -0.0353392 -1.184e-17)
(0.115744 -0.0331646 0)
(0.17563 -0.0403457 -1.57066e-17)
(0.0443141 0.0557439 0)
(0.0492625 0.118284 3.93649e-18)
(0.16375 -0.0682535 3.9271e-18)
(0.0287442 0.0713678 0)
(0.100533 0.0172283 3.94962e-18)
(-0.017456 -0.00190918 1.38905e-17)
(0.0625209 0.0175619 1.18782e-17)
(0.123315 0.146568 0)
(0.0923475 0.129765 -1.17873e-17)
(-0.0311956 -0.0584219 0)
(-0.00498387 -0.0180731 0)
(-0.0159888 -0.00722931 -1.43126e-17)
(0.102366 -0.00329365 0)
(-0.00469543 -0.0327942 0)
(0.0480653 0.0666803 -4.12472e-18)
(0.0431321 -0.0342259 1.99597e-17)
(0.137802 -0.0402956 -1.57564e-17)
(0.0592356 0.15168 -1.56982e-17)
(0.0159754 -0.0626893 1.65738e-17)
(0.118968 -0.0277428 1.605e-17)
(0.133214 -0.0252255 0)
(0.035182 0.041779 -3.96587e-18)
(0.0159542 -0.0302804 0)
(0.0138857 0.00844779 -8.24075e-18)
(0.119404 -0.0174665 -9.52779e-22)
(0.083616 0.051892 0)
(0.156229 -0.0282491 -1.99877e-17)
(0.00291276 -0.0205336 0)
(0.1187 0.00587182 -3.94887e-18)
(0.110439 -0.0416395 1.25105e-17)
(0.00811213 -0.0521677 1.59763e-17)
(0.154199 -0.0560632 1.57345e-17)
(0.0582986 0.131129 1.18096e-17)
(0.00757828 -0.0287937 -6.65e-18)
(0.0701346 0.165872 3.13812e-17)
(0.118426 -0.00861821 1.58009e-17)
(0.131926 -0.0217106 -3.94536e-18)
(0.140489 -0.0327688 0)
(0.172446 -0.0614423 0)
(0.0947124 0.164922 1.58313e-17)
(0.0489222 0.125101 1.18102e-17)
(0.171401 -0.0333635 1.99689e-17)
(0.03671 -0.0158923 -3.95736e-18)
(0.0382721 0.072335 0)
(0.0185683 -0.00937985 0)
(0.204291 -0.0506377 0)
(0.00915711 -0.0146744 -1.59582e-17)
(0.122084 -0.0753241 0)
(0.0873175 0.165471 -1.60908e-17)
(-0.0150177 -0.0167681 2.81216e-17)
(0.0724678 0.0884403 3.15526e-17)
(0.00065075 0.027137 -1.58921e-17)
(0.190345 -0.0493042 0)
(0.00173924 0.0365844 -1.58843e-17)
(0.0743304 0.150284 0)
(0.127576 -0.0158008 0)
(0.160027 -0.0573312 0)
(0.135591 0.00746589 1.19198e-17)
(0.0993214 0.0866195 0)
(0.0170618 -0.0773844 0)
(0.0710483 0.116816 0)
(0.0959207 0.00776206 0)
(0.0448596 -0.0880884 -3.99769e-18)
(0.105979 0.04449 0)
(0.200518 -0.0712161 1.95214e-17)
(0.167855 -0.0697012 -3.92763e-18)
(0.0947735 0.110464 0)
(0.0133427 0.0543362 -1.58483e-17)
(0.0888034 0.152357 -3.929e-18)
(0.0135368 -0.0147222 4.12208e-18)
(0.0831517 -0.0302883 0)
(0.0739678 0.0029171 -1.54287e-17)
(0.169175 -0.0682251 -1.57424e-17)
(0.0497142 0.0873054 4.03153e-18)
(0.112343 -0.000356365 -1.19198e-17)
(0.00259896 0.0345039 2.02308e-17)
(0.0327174 -0.031058 -1.59121e-17)
(0.171147 -0.0673792 0)
(0.00486732 -0.0443699 0)
(0.00507166 -0.0165765 0)
(0.0858653 0.173487 0)
(0.145628 0.0415546 -1.18726e-17)
(0.128075 -0.0402313 -3.96351e-18)
(0.162803 -0.0543018 1.57751e-17)
(-0.00162971 -0.0149147 9.55426e-18)
(0.00370773 0.0390724 -4.00569e-18)
(0.0122651 -0.00483216 1.66265e-17)
(0.0911034 0.048928 0)
(0.123238 0.0677135 -1.25819e-17)
(0.0191605 0.0567066 3.96347e-18)
(0.20523 -0.0354482 0)
(0.137489 -0.0467182 -1.57607e-17)
(0.0207064 0.0432106 3.96622e-18)
(0.100142 0.0893897 -1.99324e-17)
(0.03867 -0.0468246 0)