/*--------------------------------*- C++ -*----------------------------------*\
  =========                 |
  \\      /  F ield         | OpenFOAM: The Open Source CFD Toolbox
   \\    /   O peration     | Website:  https://openfoam.org
    \\  /    A nd           | Version:  9
     \\/     M anipulation  |
\*---------------------------------------------------------------------------*/
FoamFile
{
    format      ascii;
    class       volScalarField;
    location    "0.3";
    object      p;
}
// * * * * * * * * * * * * * * * * * * * * * * * * * * * * * * * * * * * * * //

dimensions      [0 2 -2 0 0 0 0];

internalField   nonuniform List<scalar> 
464
(
15.1148
15.2406
19.7416
19.4248
15.3182
19.6887
15.2867
19.3869
15.2222
15.3154
15.102
15.287
15.3202
15.2011
16.0075
16.089
17.1862
17.2693
19.1984
18.0751
18.1768
18.8271
18.6965
19.4161
19.5339
19.3566
15.6269
19.0312
15.7136
19.1047
19.1556
16.3916
16.3198
16.6704
16.7625
17.3755
17.4643
19.106
18.9376
16.2334
17.9879
18.5043
18.5713
15.5074
15.4253
16.1485
18.657
18.419
18.8351
19.1091
17.9425
18.7727
17.8949
18.1034
18.0901
18.6973
18.7329
17.5722
17.5732
17.788
18.9259
15.5553
17.3235
17.8383
15.4379
18.2092
17.1585
18.756
15.2433
17.9982
17.4905
15.4931
15.8169
18.5211
16.2689
18.8686
17.2431
15.0336
17.6626
15.8936
15.4822
19.4814
15.4613
19.3769
15.4989
17.4056
15.6116
19.3786
19.1959
16.2507
15.5563
15.4954
16.898
15.0264
16.8197
17.2375
17.7463
19.4779
16.0044
15.4679
19.2417
18.3337
19.1683
16.4821
16.5509
15.3368
19.4748
17.0699
15.6233
18.2714
16.6414
18.5411
16.9864
15.989
19.07
19.0445
15.6247
19.2144
15.9121
19.2096
18.3563
15.5624
15.6025
15.4085
17.4101
16.5354
15.6779
16.6545
16.8835
15.528
19.2872
15.3638
19.0109
18.9811
18.9081
15.7168
19.1426
19.0723
15.4915
18.5826
18.8898
16.7247
17.492
19.0059
19.0627
16.1818
18.8693
19.2954
17.9237
18.4617
18.7921
19.0171
15.9134
16.4462
15.8092
18.6889
17.0686
18.6617
15.6662
15.7035
16.0146
18.5626
16.3685
18.3439
18.2385
18.9746
16.1026
18.2495
16.3857
16.468
16.5642
15.6985
16.1943
18.798
16.376
16.7503
18.4323
18.3473
15.8093
16.799
18.3708
17.0828
16.6789
16.788
16.3646
16.5717
17.087
17.0083
16.2858
16.7546
18.1604
16.9279
18.3204
18.2424
17.6578
17.6583
18.1444
18.1706
16.4536
17.9924
18.0718
17.743
18.0687
17.8284
16.8457
18.2353
17.987
17.8255
17.742
16.1075
18.7933
17.1651
18.6712
17.5212
18.1383
16.66
16.2691
18.1502
15.7562
17.6579
16.8795
17.9071
17.9087
18.0228
18.2333
18.1568
18.0452
17.8006
17.9559
17.8455
17.7682
17.7259
17.6123
17.4905
17.7547
17.6699
17.3309
17.4136
17.5892
17.3225
17.4938
17.2415
17.5195
17.4103
17.3232
17.2475
17.2374
18.0658
17.1472
18.0482
17.0493
17.1534
16.9642
16.338
17.1457
17.0509
18.6205
17.9635
16.9588
16.6418
16.8504
16.6024
16.7595
16.1948
16.6577
16.1046
16.5799
19.0136
16.0801
16.281
18.6924
16.474
16.1994
16.1865
15.5471
16.3819
16.2814
17.5741
17.4908
16.0803
16.2139
18.8935
17.575
18.5969
15.9819
16.1277
17.4096
15.7701
18.8421
16.0283
15.9443
15.8501
18.7004
18.2925
17.0584
17.411
17.2472
16.836
17.0006
15.777
16.0043
15.9199
15.6062
15.1005
17.5918
16.8795
16.7024
17.6792
15.7945
16.5618
17.9181
18.8222
17.1483
15.7453
16.5136
16.3177
17.3262
15.87
19.4248
15.7249
19.0415
17.1653
15.8836
16.921
15.8369
18.4108
18.5884
15.6302
18.9068
15.9587
18.2776
15.1118
19.7227
16.782
17.8291
18.4065
18.9384
19.6452
16.4624
18.3883
19.5593
15.0707
16.1464
16.0606
16.4056
19.1875
18.4974
17.3274
19.632
17.7456
18.4962
19.5529
17.2477
17.3306
18.4625
15.1766
19.8096
15.214
19.7128
15.2967
19.6788
15.0982
19.5529
15.3929
15.0411
19.3031
19.2494
16.9461
15.2689
19.1538
19.4695
15.4548
15.8738
16.9979
15.6753
19.3562
15.4918
18.5735
15.8448
18.9974
16.167
16.4912
16.7053
16.5433
16.9414
16.3591
16.7223
19.4058
16.9901
17.4301
17.6405
17.4166
17.6242
17.8418
17.9071
18.4903
18.291
18.9467
18.3472
15.6847
15.159
19.7349
15.0369
19.4963
15.071
15.017
15.0769
19.438
15.089
19.5396
15.3155
19.2389
19.5741
19.182
19.5045
15.4124
15.1866
19.1991
19.5677
15.1869
19.3582
19.6849
15.3901
15.5608
15.0988
15.7892
15.9236
15.9999
16.0762
15.2838
19.5744
16.4617
16.5854
19.3049
16.841
17.0944
17.1978
19.1059
17.3124
19.0722
17.525
17.7266
17.9838
18.0996
18.8121
18.1687
18.7246
18.4635
18.5852
17.9845
16.3189
15.0856
16.2659
19.2766
17.8689
16.8988
17.0512
19.3099
19.3604
19.2896
19.4446
15.0833
15.0766
19.2308
)
;

boundaryField
{
    back
    {
        type            empty;
    }
    front
    {
        type            empty;
    }
    left
    {
        type            zeroGradient;
    }
    top
    {
        type            zeroGradient;
    }
    right
    {
        type            zeroGradient;
    }
    bottom
    {
        type            uniformFixedValue;
        uniformValue    
        {
            type            scale;
            scale           
            {
                type            squarePulse;
                start           0.3;
                duration        0.3;
            }
            xScale          
            {
                type            constant;
                value           1;
            }
            value           
            {
                type            constant;
                value           15.1;
            }
        }
        value           uniform 15.1;
    }
}


// ************************************************************************* //
