/*--------------------------------*- C++ -*----------------------------------*\
  =========                 |
  \\      /  F ield         | OpenFOAM: The Open Source CFD Toolbox
   \\    /   O peration     | Website:  https://openfoam.org
    \\  /    A nd           | Version:  9
     \\/     M anipulation  |
\*---------------------------------------------------------------------------*/
FoamFile
{
    format      ascii;
    class       surfaceScalarField;
    location    "0.3";
    object      phi;
}
// * * * * * * * * * * * * * * * * * * * * * * * * * * * * * * * * * * * * * //

dimensions      [0 3 -1 0 0 0 0];

internalField   nonuniform List<scalar> 
663
(
-2.63716e-08
-5.82209e-10
2.69538e-08
-2.38455e-08
-9.0037e-09
1.60751e-08
1.01749e-08
4.17933e-09
-2.40904e-08
1.99111e-08
6.9547e-10
-2.4541e-08
-8.18614e-09
2.42612e-08
-1.8539e-09
-2.45177e-08
-2.29494e-08
2.71287e-08
-3.39966e-09
-2.50945e-08
2.84941e-08
-2.67263e-08
2.33267e-08
-2.56171e-08
2.5035e-08
1.79231e-08
-2.42161e-08
6.293e-09
-2.69484e-08
2.50434e-08
-7.12039e-09
-2.11087e-08
2.32743e-08
-2.16566e-09
-2.19261e-08
8.17411e-10
-1.93578e-08
2.01416e-08
-7.83821e-10
-2.19723e-08
2.61448e-09
2.43526e-08
-2.43526e-08
-1.86549e-08
2.19452e-08
-3.29035e-09
3.28691e-09
-2.19418e-08
1.82848e-08
3.554e-09
-2.18388e-08
2.21127e-08
-3.828e-09
1.4143e-08
7.9944e-09
-2.21374e-08
-2.63077e-08
2.21729e-09
-6.91663e-09
2.10597e-08
-1.88716e-08
2.34475e-08
-4.5759e-09
2.79465e-08
-2.84422e-08
4.95695e-10
-2.45351e-08
5.66352e-09
-1.42551e-08
2.17817e-08
-7.52662e-09
7.12632e-09
-2.13814e-08
1.44117e-08
-2.20102e-08
7.59841e-09
-4.89009e-09
1.93018e-08
-1.83329e-08
2.34742e-08
-5.14125e-09
-2.22704e-08
3.93749e-09
-1.69185e-08
-5.05381e-09
-2.33359e-08
6.4173e-09
2.25449e-09
2.20981e-08
-2.00189e-10
2.81466e-08
2.66125e-08
-5.50212e-09
-2.11103e-08
1.2784e-08
9.16123e-09
-1.47674e-08
2.24546e-08
-7.68715e-09
7.34538e-09
1.83242e-08
5.12342e-09
-5.89177e-09
4.68642e-09
-2.84118e-08
2.86355e-08
-2.23718e-10
-2.82874e-08
2.85053e-08
-2.17923e-10
-2.18979e-08
2.18979e-08
-2.61879e-08
-5.96877e-09
1.87527e-08
2.85881e-08
-1.15785e-09
-2.74302e-08
2.74099e-08
-6.54192e-09
-2.0868e-08
-4.77663e-10
-2.74825e-08
2.79601e-08
2.72845e-08
-2.77621e-08
1.94126e-09
2.66468e-08
-2.64705e-08
-2.25739e-10
-2.72626e-08
2.74884e-08
2.6846e-08
-2.70717e-08
2.27116e-08
4.6983e-09
-2.20981e-08
2.46381e-08
-2.52318e-08
5.93751e-10
-2.71601e-08
2.70749e-08
8.52103e-11
2.70872e-08
-2.76708e-08
5.83628e-10
-1.56769e-09
-2.51587e-08
-5.04256e-10
-2.69783e-08
-2.71046e-08
2.68762e-08
2.28421e-10
2.074e-08
-1.93243e-08
-1.32613e-10
2.7417e-08
2.72278e-08
-3.81756e-10
2.30705e-08
-1.9072e-08
-5.46306e-09
-1.78031e-09
-2.65071e-08
2.50252e-10
2.66913e-08
-2.69415e-08
7.16297e-10
-1.5732e-10
-2.69473e-08
-1.8085e-09
2.87623e-08
-2.75077e-08
2.45127e-10
4.20223e-09
-2.66801e-08
5.79656e-09
2.08835e-08
2.46125e-08
-2.53499e-09
-2.20775e-08
-7.36802e-10
2.1141e-08
-2.04042e-08
-2.07052e-10
-2.02477e-08
2.04547e-08
-2.74169e-08
2.33734e-11
-2.71836e-08
7.48748e-10
-2.59804e-08
2.44054e-08
-2.803e-09
2.58358e-08
-2.30328e-08
-2.6616e-08
2.68661e-08
-2.6823e-08
2.88672e-08
2.71305e-08
-2.72577e-08
1.27212e-10
-2.19225e-08
1.69925e-09
2.02233e-08
2.70993e-08
3.10611e-11
2.69175e-08
-4.20395e-10
2.35438e-08
-2.60788e-08
6.36841e-11
2.03949e-08
-2.04586e-08
-2.52048e-08
-1.74365e-09
2.51024e-08
-2.79054e-08
1.81427e-09
2.6691e-08
2.46189e-08
4.83476e-10
-1.69043e-08
-5.10592e-09
6.56993e-09
2.11409e-08
-2.02477e-08
2.75846e-08
-7.0841e-10
-1.01583e-10
-2.67214e-08
-2.8032e-08
2.7708e-08
3.2397e-10
2.71109e-08
5.79084e-11
-2.71688e-08
2.68552e-08
3.26833e-10
-2.66009e-08
2.66645e-08
2.58632e-08
-2.74445e-11
2.46763e-08
-5.73742e-11
2.04042e-08
-2.05058e-08
1.73209e-09
-2.04547e-08
1.87226e-08
2.03949e-08
-2.33779e-08
2.51099e-08
-2.62177e-08
-2.59825e-08
7.77624e-10
-2.61538e-08
2.69024e-08
-2.48921e-08
3.74569e-10
2.72512e-08
2.67698e-08
3.41133e-10
3.22918e-10
-2.64769e-08
-2.70028e-08
2.70608e-08
-1.36655e-08
-8.60479e-09
1.73757e-08
-1.73757e-08
2.44148e-08
2.61471e-10
1.6964e-09
2.06111e-08
-2.23075e-08
-2.05058e-08
1.87226e-08
2.64705e-08
-2.59749e-08
1.8458e-08
-1.8458e-08
-1.80519e-08
1.97483e-08
-6.96299e-11
-2.68889e-08
2.65072e-08
2.58058e-08
1.80519e-08
6.70703e-10
5.709e-11
2.66341e-08
2.41584e-08
2.56342e-10
1.02749e-09
-2.75482e-08
-1.22566e-10
1.83984e-08
5.9546e-11
2.53695e-08
-1.21106e-09
2.52042e-08
-2.49428e-08
2.44427e-08
-2.38494e-08
-5.93242e-10
2.69619e-08
-1.92039e-10
-1.10892e-10
-1.97483e-08
1.29029e-09
1.36111e-08
6.53061e-09
2.54248e-08
-5.52659e-11
-2.56596e-08
-1.24096e-10
-2.65973e-08
-2.60975e-08
-1.71844e-10
2.62693e-08
2.4041e-08
1.38382e-09
-2.02771e-11
-2.69213e-08
1.83984e-08
-1.45877e-09
1.98572e-08
2.01527e-10
-2.62991e-08
2.07437e-08
-2.22025e-08
-2.78136e-10
-2.57223e-08
2.60004e-08
-2.04217e-08
2.04217e-08
-2.04744e-08
5.26162e-11
-2.61043e-08
-2.04014e-08
2.04586e-08
2.41651e-08
2.04014e-08
1.14085e-10
-2.71169e-08
2.44962e-08
-4.55181e-10
-1.04248e-10
2.46005e-08
2.44756e-08
-3.28952e-11
-1.42043e-09
2.35264e-08
-2.2106e-08
-2.47839e-08
2.46796e-08
2.11648e-10
2.69096e-08
-2.71213e-08
-1.83559e-08
1.83559e-08
-1.97764e-08
-1.75889e-08
1.73108e-08
1.75889e-08
7.67058e-10
2.02099e-08
-1.99982e-08
2.02099e-08
-2.03604e-08
2.04744e-08
-2.70219e-08
5.40164e-11
2.69678e-08
2.03606e-08
-1.50665e-10
2.06619e-08
-2.06619e-08
-3.3088e-10
-1.2792e-10
-2.69438e-08
-2.68807e-08
2.67528e-08
2.40306e-08
-2.70375e-08
2.69049e-08
-6.96232e-11
-2.68425e-08
-3.81846e-11
2.02613e-08
-2.03309e-08
-2.69121e-08
6.96663e-11
2.0331e-08
2.02614e-08
2.02545e-08
-2.02545e-08
2.02163e-08
-1.99982e-08
2.074e-08
1.56854e-08
-1.56854e-08
1.98572e-08
1.73108e-08
1.68283e-08
-1.68283e-08
2.02163e-08
-1.97764e-08
7.04463e-12
4.11932e-10
2.40962e-08
2.55952e-08
-1.49893e-09
2.60071e-08
8.98899e-10
2.54055e-08
-2.63044e-08
2.48922e-08
1.11489e-09
2.54758e-08
2.63747e-08
2.44856e-08
9.19941e-10
5.0722e-11
2.44349e-08
3.04811e-10
2.43709e-08
-2.3451e-08
2.66198e-08
-2.4395e-08
-1.72552e-09
2.61205e-08
-2.39999e-08
-3.9504e-10
2.66705e-08
2.36968e-08
-2.54223e-08
2.69753e-08
-1.61568e-11
2.61367e-08
4.35039e-10
2.65803e-08
2.66654e-08
2.2913e-08
2.66493e-08
-2.80618e-09
2.68368e-08
2.68893e-08
-7.5269e-10
1.7051e-08
-9.23234e-10
2.78126e-08
2.21603e-08
-4.68786e-10
-2.64455e-08
2.69143e-08
3.45993e-10
2.64129e-08
2.36443e-10
2.54896e-08
-2.65272e-08
2.64719e-08
1.7051e-08
2.50208e-08
-4.9222e-10
2.3883e-08
-2.33907e-08
2.47756e-08
2.45226e-10
-1.55836e-13
-2.65929e-08
2.65931e-08
2.51547e-08
-3.79072e-10
2.60229e-08
-2.59216e-08
-1.01325e-10
2.46627e-08
2.62243e-08
2.46626e-08
2.64429e-08
-2.38868e-08
2.17212e-08
4.32872e-10
-2.63544e-08
2.54554e-08
2.46839e-08
-2.13568e-11
-2.58105e-08
-4.88655e-10
-2.39881e-08
-2.41145e-08
2.53777e-08
-6.93764e-10
-1.3615e-10
-2.00801e-08
2.00801e-08
3.34169e-11
2.60979e-08
-2.65866e-08
-6.88708e-10
2.64945e-08
1.39752e-10
-2.37483e-09
2.4096e-08
2.64329e-08
-3.34959e-10
1.80081e-10
1.99e-08
-2.62273e-08
-2.49425e-10
-2.71592e-08
2.62612e-08
2.64281e-08
-1.66888e-10
2.00654e-10
-2.67509e-08
-2.66544e-08
-2.7154e-08
2.66872e-08
-1.98999e-08
-9.82474e-11
-2.70858e-08
2.72365e-08
-2.63539e-08
2.56762e-08
-5.78295e-10
2.48417e-08
-2.42635e-08
3.12078e-09
-1.75351e-08
-5.8009e-09
2.70414e-08
-2.66625e-08
5.17652e-09
-2.67083e-08
2.71133e-08
2.72944e-08
2.17247e-10
-2.58768e-08
2.69343e-08
-2.62406e-08
4.36824e-11
-2.63976e-08
-3.00158e-08
7.06635e-09
2.46928e-08
1.77282e-08
4.05351e-09
-2.68929e-08
-2.08797e-08
2.08797e-08
-2.65645e-08
-1.80799e-08
-3.86202e-09
-1.31248e-08
-1.40899e-08
1.66763e-08
9.57367e-09
2.73641e-08
-2.71095e-08
-4.11055e-09
9.63121e-09
1.66188e-08
4.37474e-09
1.33968e-08
1.28532e-08
-1.63905e-08
-1.23597e-08
2.65311e-08
-4.09586e-09
-2.1879e-08
3.03882e-10
-6.37588e-10
-2.69911e-08
-1.74834e-08
1.80639e-08
-1.74834e-08
1.80639e-08
1.49464e-08
-2.39501e-08
-1.36468e-08
2.38217e-08
2.66856e-08
2.1838e-09
-3.6575e-09
2.67342e-08
-1.60076e-08
-8.34513e-09
4.14196e-09
-1.78074e-08
1.02553e-08
1.75833e-08
-1.43711e-08
2.72244e-08
-1.22523e-08
1.8633e-08
1.7964e-08
-4.35289e-09
1.22523e-08
1.89498e-08
1.77683e-08
-1.2626e-08
-1.8254e-08
1.18086e-08
-1.91523e-08
1.83853e-08
1.87773e-08
1.92078e-08
-1.8756e-08
-1.94531e-08
1.66272e-08
-1.32459e-08
1.06315e-08
1.857e-08
-1.9005e-08
-1.0509e-08
1.0509e-08
-1.71432e-08
-1.74385e-08
2.08176e-08
2.10937e-08
-1.78278e-08
-1.86e-08
-1.41537e-08
1.26032e-08
1.03437e-08
1.18789e-08
1.35608e-08
1.64025e-08
1.33762e-08
-1.33762e-08
-1.60076e-08
-8.62351e-10
1.02424e-08
-4.91696e-09
2.82437e-08
3.50179e-11
-2.19141e-08
1.992e-08
2.25692e-09
-2.2177e-08
1.78164e-08
-1.7333e-08
1.02553e-08
-2.61528e-08
-1.48477e-08
-1.93609e-08
-1.2626e-08
-1.18086e-08
1.76547e-08
-1.32459e-08
-1.06315e-08
-1.60283e-08
-1.93187e-08
1.98827e-08
1.60547e-08
3.72673e-09
1.37761e-08
-2.21213e-08
1.23767e-08
)
;

boundaryField
{
    back
    {
        type            empty;
        value           nonuniform List<scalar> 0();
    }
    front
    {
        type            empty;
        value           nonuniform List<scalar> 0();
    }
    left
    {
        type            calculated;
        value           uniform 0;
    }
    top
    {
        type            calculated;
        value           nonuniform List<scalar> 8(-2.625e-08 -2.625e-08 -2.625e-08 -2.625e-08 -2.625e-08 -2.625e-08 -2.625e-08 -2.625e-08);
    }
    right
    {
        type            calculated;
        value           uniform 0;
    }
    bottom
    {
        type            calculated;
        value           nonuniform List<scalar> 8(3.28492e-08 2.72147e-08 2.87503e-08 1.8179e-08 2.91002e-08 1.42384e-08 2.97046e-08 2.99633e-08);
    }
}


// ************************************************************************* //
