/*--------------------------------*- C++ -*----------------------------------*\
  =========                 |
  \\      /  F ield         | OpenFOAM: The Open Source CFD Toolbox
   \\    /   O peration     | Website:  https://openfoam.org
    \\  /    A nd           | Version:  9
     \\/     M anipulation  |
\*---------------------------------------------------------------------------*/
FoamFile
{
    format      ascii;
    class       volVectorField;
    location    "0.3";
    object      U;
}
// * * * * * * * * * * * * * * * * * * * * * * * * * * * * * * * * * * * * * //

dimensions      [0 1 -1 0 0 0 0];

internalField   nonuniform List<vector> 
464
(
(-0.00603022 -0.682338 -6.03415e-17)
(-0.294845 -0.780783 0)
(0.0499969 -0.624741 0)
(0.0609145 -0.753321 -1.17156e-15)
(-0.0438444 -0.648404 0)
(0.0825489 -0.666095 2.95447e-16)
(-0.0445272 -0.783602 9.23536e-16)
(-0.00474168 -0.743162 0)
(-0.0618465 -0.789727 -6.73339e-18)
(-0.00699805 -0.68343 8.69145e-16)
(-0.00434014 -0.611716 5.1568e-17)
(-0.0436036 -0.685526 -2.66075e-17)
(-0.0120102 -0.709746 1.83351e-15)
(-0.0467943 -0.690815 0)
(-0.00799579 -0.728805 5.66829e-16)
(-0.00512564 -0.688485 -9.38426e-16)
(0.00147229 -0.709166 0)
(-0.0186749 -0.694099 3.77531e-16)
(0.0142236 -0.561473 8.82976e-16)
(0.0143289 -0.705413 -1.0468e-15)
(0.0179989 -0.721881 1.53928e-15)
(0.0402241 -0.712897 -2.63294e-16)
(0.0059468 -0.713832 1.43238e-16)
(0.0137143 -0.704835 0)
(-0.00964459 -0.796295 1.20326e-15)
(0.0165842 -0.685232 -5.50731e-16)
(-0.0411624 -0.709799 -4.21099e-16)
(0.000569885 -0.758656 1.14468e-15)
(-0.0504509 -0.718004 0)
(0.00556298 -0.704771 0)
(0.0222648 -0.709961 -6.80339e-17)
(-0.0218787 -0.688386 -7.44599e-18)
(-0.0366889 -0.650181 1.22774e-16)
(-0.0622639 -0.69431 9.28486e-16)
(-0.0758367 -0.717795 -9.35761e-16)
(-0.0400811 -0.681084 -1.07951e-15)
(-0.0501663 -0.722504 9.91359e-16)
(-0.012742 -0.735395 1.37932e-16)
(-0.0370456 -0.780235 -1.35188e-17)
(0.0286915 -0.722454 0)
(-0.00458071 -0.66805 -1.5787e-15)
(-0.0414187 -0.659309 0)
(-0.0317272 -0.681076 3.83781e-16)
(0.0636372 -0.695528 -8.78367e-16)
(0.0229268 -0.733208 8.92749e-16)
(0.0139756 -0.673015 6.35225e-17)
(0.00247803 -0.775069 -1.08348e-15)
(-0.0128224 -0.791002 5.57195e-18)
(-0.0132741 -0.494524 0)
(-0.0126173 -0.765274 -1.33544e-16)
(-0.0246079 -0.646359 1.07071e-15)
(-0.0278809 -0.79184 6.93288e-17)
(0.0298943 -0.688147 7.27022e-16)
(-0.00123525 -0.792682 1.03779e-15)
(-0.00266987 -0.773755 3.37629e-17)
(0.0163665 -0.773137 -1.10215e-15)
(-0.0171251 -0.78409 0)
(-0.00551912 -0.784213 0)
(-0.00781581 -0.773402 1.04571e-15)
(0.0364139 -0.697194 0)
(0.000211334 -0.712013 -1.1133e-15)
(0.0572716 -0.778223 -1.88461e-15)
(0.0074677 -0.76913 -2.06532e-15)
(-0.0118742 -0.774498 1.05996e-15)
(0.0327243 -0.833799 5.15189e-18)
(-0.00160223 -0.764059 1.07418e-15)
(0.00335657 -0.782338 1.02011e-15)
(0.0129856 -0.707674 1.04322e-15)
(0.0472579 -0.759393 -4.66201e-16)
(-0.00838107 -0.79113 -1.06911e-15)
(-0.00216498 -0.783358 -1.04354e-15)
(-0.0503631 -0.698578 9.61128e-16)
(-0.0172278 -0.717241 0)
(0.00698709 -0.767216 -1.10833e-15)
(-0.0163699 -0.774747 9.72294e-16)
(-0.00188811 -0.763883 -1.12468e-15)
(0.00521003 -0.771305 1.03179e-15)
(0.016479 -0.740059 -9.23046e-16)
(-0.00460774 -0.767154 1.05143e-15)
(0.00815118 -0.724432 4.53093e-16)
(0.0220603 -0.95059 0)
(0.0662169 -0.769265 -2.82419e-16)
(0.021346 -0.782451 9.49774e-16)
(0.0216081 -0.720162 -1.17917e-15)
(0.0961012 -0.740621 0)
(-0.0079285 -0.783412 -4.96645e-18)
(-0.0156385 -0.72738 9.33255e-16)
(0.0206475 -0.770016 0)
(0.00732715 -0.77163 0)
(0.00529204 -0.777693 9.707e-16)
(-0.0320862 -0.795959 -9.32106e-16)
(0.0583002 -0.842204 0)
(0.00303657 -0.777395 -1.02453e-15)
(0.116768 -0.517937 -7.30633e-16)
(-0.00172075 -0.784769 1.0057e-15)
(-0.00224841 -0.778476 1.02899e-15)
(-0.0169574 -0.780153 -1.05387e-15)
(0.00957237 -0.748442 2.59016e-16)
(-0.00281163 -0.696361 9.46813e-16)
(-0.0322228 -0.807241 -9.03225e-16)
(0.0517722 -0.785758 0)
(0.000869216 -0.766705 -6.32765e-17)
(-0.00827846 -0.729157 0)
(0.0383957 -0.678624 7.28605e-18)
(0.0281446 -0.700382 0)
(-0.133225 -0.45935 7.0548e-16)
(-0.0370748 -0.482659 0)
(0.000939725 -0.775564 -9.98097e-16)
(0.0288634 -0.752647 9.33106e-16)
(-0.00765726 -0.771939 0)
(-0.00377486 -0.786547 0)
(-0.0250797 -0.786447 1.10607e-15)
(0.00913529 -0.792776 0)
(0.00052144 -0.771069 -9.53208e-16)
(0.0210504 -0.772781 -3.62641e-17)
(0.0116305 -0.756703 1.82513e-17)
(-0.00314173 -0.733123 -9.4203e-16)
(0.0276109 -0.724798 -1.2322e-15)
(0.0194065 -0.479725 -7.62209e-16)
(0.0200207 -0.789582 7.02165e-17)
(-0.00613021 -0.781061 -1.03715e-15)
(0.010662 -0.753306 -2.90341e-17)
(-0.00449775 -0.795841 -9.33633e-16)
(0.0181111 -0.728235 -8.92681e-16)
(0.00112498 -0.777951 0)
(-0.00102288 -0.771984 -9.82962e-16)
(-0.00784945 -0.763036 9.41769e-16)
(-0.00956224 -0.780711 0)
(0.023981 -0.648694 0)
(-0.0163142 -0.442868 -7.35784e-16)
(-0.00400824 -0.477226 9.15777e-16)
(0.00193524 -0.45964 -7.11746e-16)
(-0.0229376 -0.495255 9.10779e-16)
(0.00595871 -0.75948 0)
(0.00725463 -0.74892 0)
(0.0171525 -0.46535 7.47085e-16)
(0.0237055 -0.468273 1.82816e-15)
(-0.00394214 -0.758615 1.16138e-15)
(-0.0231102 -0.706255 -9.02343e-16)
(0.00156467 -0.45783 -8.8533e-16)
(-0.0371573 -0.675325 0)
(0.00415024 -0.785849 0)
(-0.00413728 -0.779119 -4.87685e-18)
(-0.00680837 -0.762648 -1.15536e-15)
(-0.0071719 -0.684503 -1.11384e-15)
(0.00148111 -0.782229 9.6668e-16)
(0.00179064 -0.748915 0)
(0.0198603 -0.734743 0)
(-0.0135923 -0.794278 4.96802e-18)
(-0.00310542 -0.667153 2.15654e-15)
(-0.00709519 -0.736618 -3.49463e-17)
(0.0165279 -0.732069 -1.0997e-15)
(0.00650015 -0.767761 1.03862e-15)
(0.00314307 -0.776223 9.87322e-16)
(0.00307653 -0.707055 9.2282e-19)
(-0.0124187 -0.675615 1.20241e-15)
(0.00926625 -0.651236 0)
(0.00578279 -0.776658 0)
(-0.0193147 -0.768828 9.46038e-16)
(-0.0063258 -0.780651 -9.52116e-16)
(0.000526667 -0.763317 0)
(-0.0106575 -0.715061 1.13739e-15)
(0.00733708 -0.784631 -1.95068e-15)
(-0.0152829 -0.461232 -5.29571e-18)
(-0.0074672 -0.686699 -1.08862e-15)
(0.0130511 -0.460249 0)
(0.00548043 -0.751613 9.68583e-16)
(-0.0173515 -0.741889 -1.11307e-15)
(0.00595118 -0.747376 -9.20212e-16)
(-0.00448662 -0.482605 -1.57369e-15)
(-0.00953829 -0.702077 -5.73408e-18)
(0.0102367 -0.767281 9.50996e-16)
(-0.00312468 -0.701034 -5.32037e-18)
(-0.0331867 -0.720792 2.61587e-16)
(-0.0106395 -0.697383 5.43903e-18)
(-0.000861407 -0.773092 1.00392e-15)
(0.00595237 -0.755737 -1.12926e-15)
(-0.00811216 -0.756029 4.37335e-18)
(-0.0125923 -0.718694 9.33688e-16)
(-0.0507599 -0.728774 -1.13255e-16)
(0.0300099 -0.744266 -1.06414e-15)
(0.00719249 -0.784976 -1.01638e-15)
(0.0316303 -0.447688 0)
(-0.00820927 -0.685671 1.10087e-15)
(-0.00360562 -0.662501 1.03312e-17)
(-0.00252934 -0.649621 3.04164e-17)
(-0.0048103 -0.695905 0)
(0.00354183 -0.473792 8.10318e-16)
(0.00654137 -0.481656 1.55547e-15)
(-0.000727771 -0.710574 -1.95305e-18)
(-0.00414779 -0.774891 1.05891e-18)
(0.00343481 -0.70752 -1.01363e-15)
(-0.00200677 -0.47739 1.74814e-15)
(-0.00700422 -0.779156 1.11378e-15)
(-0.00505619 -0.775969 -1.02698e-18)
(-0.0052557 -0.772002 1.03024e-18)
(-0.00689538 -0.730247 1.02343e-15)
(-0.00685894 -0.791699 -1.04764e-18)
(0.00503095 -0.444341 7.80539e-16)
(0.000813139 -0.776525 -1.07122e-15)
(-0.00323307 -0.785289 0)
(-0.00502153 -0.777098 0)
(0.000127954 -0.702828 0)
(0.0029788 -0.77438 -1.04236e-18)
(-0.000192332 -0.468386 0)
(0.00235305 -0.701887 -2.20793e-17)
(-0.000615489 -0.469559 0)
(-0.00436015 -0.470046 8.53131e-16)
(0.00160533 -0.696375 -1.05653e-15)
(0.00780864 -0.481148 -7.71319e-16)
(0.00593506 -0.469757 -8.90247e-16)
(-0.00271317 -0.470922 0)
(-0.0157055 -0.476114 -8.95111e-16)
(0.00205676 -0.43781 8.1508e-16)
(-0.00868044 -0.469149 0)
(-0.00726717 -0.473266 7.93426e-16)
(0.0247892 -0.454874 -7.68326e-16)
(0.000323889 -0.471439 -8.68944e-16)
(0.0159766 -0.435831 -4.1081e-18)
(0.000540214 -0.468951 8.45356e-16)
(0.0136432 -0.478824 -8.00596e-16)
(0.0018885 -0.701787 -1.06699e-15)
(-0.00524345 -0.782899 1.07251e-15)
(0.00882445 -0.779052 -2.13345e-15)
(0.0119586 -0.755289 -1.10516e-15)
(-0.0112564 -0.748982 1.0489e-15)
(-0.0006383 -0.78497 0)
(-0.000596947 -0.764428 -5.10036e-16)
(0.00525113 -0.732242 3.2229e-17)
(-0.0193587 -0.772106 1.08529e-15)
(0.00527949 -0.763881 -1.0757e-15)
(0.00461269 -0.722012 1.26625e-16)
(-0.00432015 -0.77221 0)
(-0.00246231 -0.772209 1.01862e-15)
(0.0559127 -0.771234 -1.07824e-15)
(-0.0120886 -0.774143 0)
(-0.0104117 -0.758546 5.19938e-18)
(0.00813233 -0.76571 5.7091e-18)
(0.00820995 -0.749557 -1.04074e-15)
(0.0202464 -0.736038 -9.98694e-16)
(-0.00315654 -0.786128 1.06017e-15)
(0.0108205 -0.758476 1.00519e-15)
(-0.0123557 -0.709683 -1.0152e-15)
(-0.00535799 -0.758453 0)
(-0.00740815 -0.771093 0)
(-0.0593813 -0.705798 4.92907e-18)
(0.01412 -0.758651 3.21425e-17)
(0.00529744 -0.723754 0)
(0.0226328 -0.750091 0)
(-0.0136511 -0.679819 0)
(-0.00723074 -0.796443 9.73319e-16)
(-0.0622957 -0.75101 1.92158e-15)
(0.0120259 -0.768065 1.00673e-15)
(-0.00617449 -0.771647 -9.73701e-16)
(0.00278711 -0.774927 0)
(0.0139375 -0.769818 0)
(0.00471931 -0.758353 0)
(0.0347308 -0.438597 8.44437e-16)
(0.00470196 -0.785091 1.03656e-15)
(-0.0163248 -0.760013 0)
(-0.00539799 -0.738956 -9.90446e-16)
(0.00782185 -0.778316 -1.98035e-15)
(-0.00245248 -0.785363 -1.01461e-15)
(-0.00527979 -0.75619 9.17011e-16)
(-0.0048394 -0.765147 1.01463e-15)
(-0.013993 -0.759838 -1.94456e-15)
(-0.00869621 -0.767524 1.96697e-18)
(-0.00102231 -0.751306 3.54452e-17)
(-0.0464944 -0.743374 -5.84376e-16)
(-0.00439898 -0.746435 -9.29438e-16)
(0.00591061 -0.745818 1.0132e-15)
(0.00262008 -0.744714 0)
(-0.00981952 -0.755479 -9.5407e-16)
(0.0415151 -0.739527 -4.52962e-16)
(-0.0319438 -0.763237 2.25151e-17)
(-0.0102674 -0.752849 0)
(-0.0075181 -0.778096 0)
(0.00344499 -0.777494 1.04561e-15)
(-0.00271275 -0.462916 0)
(0.00250121 -0.768815 -5.75995e-18)
(-0.0118878 -0.761375 -7.59034e-18)
(0.00185158 -0.764466 5.52433e-18)
(-0.0018117 -0.702008 0)
(-0.0211432 -0.78016 1.12685e-15)
(-0.0112387 -0.761613 -5.83199e-16)
(-0.00773292 -0.773393 9.44815e-16)
(-0.0019775 -0.701713 1.04723e-15)
(-0.00549751 -0.764332 0)
(-0.0012598 -0.757405 0)
(0.00718744 -0.76262 -9.6294e-16)
(0.00250482 -0.759765 -3.73267e-18)
(-0.00260272 -0.778775 7.40071e-18)
(-0.00495939 -0.780602 1.12587e-15)
(-0.00234542 -0.779777 -2.19579e-15)
(0.00467515 -0.786885 -1.02707e-15)
(-0.00215059 -0.770699 -2.09437e-15)
(-0.00649029 -0.693808 0)
(-0.00162482 -0.788317 5.09396e-18)
(-0.00610897 -0.780187 1.01866e-15)
(-0.017984 -0.769082 -9.44519e-16)
(-0.0209346 -0.752219 1.06572e-15)
(-0.00309282 -0.763931 8.84637e-16)
(-0.017728 -0.766337 -1.77946e-15)
(-0.0372316 -0.762832 9.19082e-16)
(0.0436233 -0.685406 -5.46438e-16)
(0.00214968 -0.794684 1.0279e-15)
(-0.00900651 -0.779981 2.00012e-15)
(0.0510232 -0.680907 -4.89278e-16)
(0.00906358 -0.767967 1.88762e-15)
(-0.0011136 -0.786082 9.84531e-16)
(-0.00127529 -0.777561 1.06934e-15)
(0.00829618 -0.759854 5.73257e-18)
(0.0110147 -0.766217 0)
(-0.0171456 -0.765911 -9.63777e-18)
(-0.0222124 -0.774503 1.9762e-15)
(-0.015236 -0.767873 0)
(-0.00959276 -0.463076 -8.29444e-16)
(0.00471841 -0.759481 0)
(-0.0111484 -0.775772 0)
(-0.00348995 -0.770262 -9.41135e-16)
(0.019635 -0.704694 -8.92477e-16)
(-0.00406599 -0.771637 4.00043e-18)
(-0.00220958 -0.772555 -9.47923e-16)
(0.003168 -0.786873 -1.00694e-15)
(0.00165503 -0.770129 -1.92332e-15)
(0.00738616 -0.698918 5.29057e-18)
(0.0128328 -0.703628 1.09427e-15)
(-0.0014335 -0.767632 9.66507e-16)
(-0.0191096 -0.772141 0)
(-0.00608189 -0.775503 9.64431e-16)
(0.0491344 -0.714446 5.2634e-16)
(-0.200326 -0.751484 1.11391e-15)
(0.0142926 -0.671372 4.7671e-16)
(-0.00576191 -0.778442 -1.99332e-15)
(-0.00915942 -0.786303 1.03721e-18)
(-0.0157562 -0.761597 1.08598e-15)
(0.0238754 -0.729137 8.18919e-16)
(0.0293234 -0.656486 9.37735e-16)
(-0.0187461 -0.76649 -5.76376e-18)
(-0.0113854 -0.730927 -1.14757e-15)
(0.010435 -0.643151 -4.86012e-16)
(0.0287208 -0.73578 0)
(0.00193647 -0.781716 1.50708e-17)
(-0.00429554 -0.767131 -9.5677e-16)
(-0.0203567 -0.778102 -9.81498e-16)
(-0.00970571 -0.749466 -5.72427e-16)
(-0.0088956 -0.481264 -1.76544e-15)
(-0.00373928 -0.779546 -1.02879e-15)
(0.021606 -0.627579 -1.14785e-15)
(-0.00341737 -0.772656 0)
(-0.00657742 -0.782171 3.46814e-17)
(0.0265798 -0.687529 5.52797e-16)
(0.00135828 -0.780076 0)
(-0.00140088 -0.775445 1.03611e-15)
(-0.00021118 -0.752715 1.07639e-15)
(0.0746979 -0.45437 -1.26657e-15)
(0.0196277 -0.655584 0)
(-0.389818 -0.548968 6.83924e-16)
(-0.0428536 -0.419165 4.41945e-16)
(0.272491 -0.44023 0)
(0.0823784 -0.637659 6.38567e-16)
(-0.0458531 -0.757204 -9.36041e-16)
(0.0601804 -0.769834 -3.15887e-16)
(-0.0876546 -0.661911 0)
(-0.0876925 -0.753287 2.8008e-17)
(-0.0290532 -0.739614 -1.21138e-15)
(0.0170623 -0.762133 0)
(-0.0147266 -0.65987 0)
(0.0563165 -0.61282 0)
(0.0332274 -0.74092 -6.16534e-16)
(-0.0451917 -0.717704 0)
(-0.0292966 -0.652793 1.41783e-15)
(-0.0132138 -0.72227 3.0071e-18)
(-0.0315294 -0.656716 0)
(0.0175028 -0.646995 -4.94071e-18)
(0.0358397 -0.746501 0)
(-0.00175797 -0.744294 9.45177e-16)
(0.0492833 -0.735107 -1.69592e-15)
(-0.0529932 -0.643389 1.82323e-15)
(-0.00753547 -0.719012 -3.2124e-16)
(-0.0508726 -0.62667 0)
(-0.0131324 -0.733035 9.867e-16)
(0.00309373 -0.717249 0)
(-0.0297264 -0.729146 5.08058e-16)
(-0.0407935 -0.751599 -6.30042e-18)
(0.00866675 -0.73804 0)
(0.00928937 -0.719284 5.19834e-16)
(0.0601771 -0.702607 6.36103e-16)
(-0.0800855 -0.67971 0)
(0.0109869 -0.636459 0)
(-0.0336701 -0.711428 5.57951e-16)
(0.0217369 -0.731934 0)
(-0.0417237 -0.622254 -5.33713e-16)
(-0.0508227 -0.62693 -1.88649e-15)
(0.016153 -0.742604 5.53007e-16)
(0.0377717 -0.722701 1.124e-15)
(-0.0121219 -0.73994 0)
(0.00615335 -0.73706 2.3403e-15)
(0.0065219 -0.710486 0)
(0.017091 -0.715297 9.80248e-16)
(-0.125282 -0.840743 0)
(0.035037 -0.658405 0)
(-0.141204 -0.779051 0)
(-0.0276014 -0.621106 4.58849e-16)
(0.24606 -0.684274 -4.81629e-16)
(0.121575 -0.835586 0)
(0.0123812 -0.521421 0)
(0.0301727 -0.404526 -8.7892e-16)
(0.0693766 -0.377204 0)
(-0.0176693 -0.659721 1.12979e-15)
(-0.0370715 -0.820944 -2.39161e-16)
(-0.0169387 -0.710419 -6.17796e-16)
(0.0684406 -0.757999 0)
(0.0737083 -0.712268 -5.81357e-16)
(0.0750165 -0.670319 0)
(0.00949988 -0.872939 0)
(0.0158984 -0.35249 0)
(-0.0227411 -0.770569 -3.64546e-17)
(0.0604416 -0.780367 -5.74495e-16)
(0.321927 -0.751282 2.37394e-16)
(-0.00932086 -0.731117 -6.55863e-16)
(0.0450163 -0.633347 -6.91633e-16)
(-0.0254759 -0.712189 4.99613e-16)
(0.00112465 -0.360575 -7.30811e-16)
(0.242546 -0.70986 -7.41275e-16)
(-0.00716924 -0.734263 5.25889e-16)
(0.0135026 -0.363521 -7.52908e-16)
(-0.0662639 -0.608955 5.17383e-16)
(0.00727666 -0.35789 -3.73471e-16)
(0.0736342 -0.678034 -1.02739e-15)
(0.0316501 -0.724582 -6.58499e-16)
(0.000245922 -0.734987 -5.46314e-16)
(-0.00560742 -0.687652 -3.4281e-17)
(0.06636 -0.759794 -1.1486e-15)
(-0.0145596 -0.76304 -1.67384e-15)
(0.00144519 -0.394245 0)
(-0.0245635 -0.624591 -2.93687e-16)
(0.00200892 -0.724817 6.0858e-16)
(0.0095363 -0.33724 0)
(0.0287751 -0.793361 6.22204e-16)
(0.0245243 -0.738969 0)
(-0.00673691 -0.327616 4.13837e-16)
(0.0191689 -0.728592 -4.0589e-17)
(0.00213827 -0.690841 6.31398e-16)
(-0.0126619 -0.73247 -1.72198e-15)
(0.00536752 -0.727666 3.51842e-17)
(-0.00491858 -0.675647 6.35226e-16)
(5.65704e-05 -0.713116 6.08515e-16)
(0.0261206 -0.708084 -6.93356e-16)
(0.0332443 -0.72319 -5.63869e-16)
(0.0194878 -0.678698 0)
(-0.0373772 -0.743901 -7.71531e-16)
(-0.0505484 -0.66158 8.53556e-16)
(0.036853 -0.700134 0)
(-0.0521563 -0.658937 1.19201e-15)
(-0.0205994 -0.665376 0)
(-0.0303415 -0.661454 -1.16838e-15)
(-0.042841 -0.760647 6.1019e-16)
(-0.0866351 -0.735382 1.10806e-18)
(-0.0459952 -0.707465 8.68875e-19)
(-0.0904143 -0.704175 -1.04082e-15)
(0.0300341 -0.469997 0)
(-0.165918 -0.827936 2.71911e-16)
(0.0405908 -0.665958 1.44562e-15)
)
;

boundaryField
{
    back
    {
        type            empty;
    }
    front
    {
        type            empty;
    }
    left
    {
        type            noSlip;
    }
    top
    {
        type            uniformFixedValue;
        uniformValue    
        {
            type            scale;
            scale           
            {
                type            squarePulse;
                start           0.3;
                duration        0.3;
            }
            xScale          
            {
                type            constant;
                value           1;
            }
            value           
            {
                type            constant;
                value           (0 -0.7 0);
            }
        }
        value           uniform (0 -0.7 0);
    }
    right
    {
        type            noSlip;
    }
    bottom
    {
        type            zeroGradient;
    }
}


// ************************************************************************* //
