/*--------------------------------*- C++ -*----------------------------------*\
  =========                 |
  \\      /  F ield         | OpenFOAM: The Open Source CFD Toolbox
   \\    /   O peration     | Website:  https://openfoam.org
    \\  /    A nd           | Version:  9
     \\/     M anipulation  |
\*---------------------------------------------------------------------------*/
FoamFile
{
    format      ascii;
    class       volScalarField;
    location    "0.95";
    object      p;
}
// * * * * * * * * * * * * * * * * * * * * * * * * * * * * * * * * * * * * * //

dimensions      [0 2 -2 0 0 0 0];

internalField   nonuniform List<scalar> 
578
(
3.53937e-22
-3.48892e-21
1.54365e-21
3.65194e-21
-6.25481e-21
6.96178e-21
7.62497e-21
-4.60218e-21
-3.55118e-21
-7.02228e-21
5.05826e-21
-4.38975e-21
3.45025e-21
-5.40158e-21
6.95898e-21
2.35493e-21
7.97128e-23
4.57419e-22
-3.38025e-21
-2.24416e-21
3.67673e-21
2.74892e-21
3.87085e-21
4.76985e-21
4.71196e-21
-3.26294e-21
2.99442e-21
2.46953e-21
-1.77702e-21
2.16969e-21
2.79623e-21
7.4447e-21
-1.54186e-22
3.64875e-21
6.90873e-21
-6.92186e-22
-5.2341e-21
-4.3518e-21
2.8527e-21
-7.34311e-21
-5.63061e-21
-4.14924e-21
-5.12656e-21
7.01792e-21
3.38134e-22
8.46365e-21
7.59969e-21
-3.61748e-21
3.41384e-21
2.89672e-21
9.08647e-21
3.46345e-21
8.85385e-21
3.64733e-21
3.34409e-21
6.26326e-22
4.02552e-21
3.15973e-21
1.84641e-21
-1.92804e-21
8.76376e-22
-9.28738e-22
-1.43216e-21
-5.8213e-21
3.27661e-21
6.28531e-21
1.05506e-22
5.6663e-21
4.65765e-21
-2.96851e-21
3.83176e-21
7.36649e-21
3.3176e-21
-3.26922e-21
5.12258e-21
-6.13091e-21
-4.89975e-21
-3.87208e-21
3.35137e-21
6.94427e-21
7.62415e-21
-2.30947e-21
1.03034e-20
9.97574e-21
3.01156e-21
3.59187e-21
1.003e-20
1.44389e-21
-3.67129e-21
2.99161e-21
2.98525e-21
4.90268e-21
4.95337e-21
3.53374e-21
5.22337e-21
6.99702e-21
3.319e-21
3.36382e-21
-6.23705e-21
7.51206e-21
6.34584e-21
-3.43849e-21
3.09485e-21
6.32172e-21
3.19002e-21
-6.33651e-21
5.34361e-21
-6.46799e-21
4.02154e-21
-5.19613e-21
-9.93526e-22
-3.37865e-21
-2.53104e-21
6.07388e-21
6.67135e-21
3.17486e-21
3.62434e-21
4.25121e-22
2.9193e-21
3.24833e-21
-2.84196e-21
1.27404e-20
-4.14707e-21
3.55968e-21
8.6118e-21
1.79069e-21
7.01287e-21
2.23919e-21
4.60193e-21
3.4664e-22
4.11947e-21
1.5211e-21
3.5601e-21
-3.07179e-21
3.58885e-21
5.35693e-21
-5.76641e-21
3.20016e-21
4.69229e-21
4.4679e-21
4.68925e-21
8.2865e-22
4.16231e-21
1.89977e-21
-3.6095e-21
3.93856e-21
1.22255e-21
2.79642e-21
-3.98166e-21
-4.23976e-22
-4.16284e-21
4.07716e-21
-5.37971e-21
-2.87594e-21
6.96948e-21
2.89375e-21
-5.81397e-22
3.64108e-21
7.96277e-21
-4.01189e-21
-4.40827e-21
-4.22235e-21
5.34452e-21
-4.08579e-21
9.05962e-22
8.97395e-22
1.78654e-21
6.73671e-21
3.80885e-21
3.21164e-21
-3.47724e-21
-6.18901e-21
5.70977e-21
2.76272e-21
6.29136e-21
3.22851e-21
3.32456e-21
-4.5323e-23
-4.13408e-21
-8.71925e-22
6.80218e-21
-1.7361e-21
2.56582e-21
3.34593e-21
5.61371e-21
2.90953e-21
1.7575e-21
6.9113e-21
6.73682e-21
-2.64917e-21
-5.35242e-21
-4.81998e-21
4.6592e-21
6.72106e-21
-4.92933e-21
3.28589e-21
4.00728e-21
2.63173e-21
6.49131e-21
-5.29415e-21
3.71916e-21
3.41444e-21
1.32425e-20
3.13504e-21
3.2584e-21
-5.48968e-21
6.06892e-21
1.12478e-21
-4.85407e-21
3.48396e-21
4.96369e-22
6.06789e-21
3.3625e-21
3.3671e-21
3.58207e-21
3.49406e-21
6.73618e-21
-5.28553e-21
7.0997e-21
1.60061e-21
-5.51127e-21
5.88491e-21
-1.92352e-21
-5.16843e-21
7.32734e-21
1.91845e-21
3.29752e-21
3.90242e-21
2.74719e-21
-1.34823e-21
-6.07347e-21
1.26136e-20
3.17472e-21
-2.0082e-21
1.97114e-21
-3.17311e-21
-5.47485e-21
7.34819e-21
3.52443e-21
-4.06134e-22
6.34268e-21
-6.07708e-21
3.20332e-21
5.95008e-21
2.64007e-21
-3.6092e-21
4.16401e-21
-5.66481e-21
4.57067e-21
3.33259e-21
3.31599e-21
2.61494e-21
7.99653e-21
9.82259e-22
7.69682e-21
-8.11914e-22
-1.86377e-22
6.0844e-21
-4.0346e-21
1.1454e-20
-1.54796e-21
6.91478e-21
4.00172e-21
4.06855e-21
-2.01174e-21
-2.47648e-21
1.79153e-21
-5.99348e-22
-4.02187e-21
2.04841e-21
-1.98492e-21
1.34524e-21
1.21634e-21
3.23662e-21
3.43466e-21
3.35526e-21
3.05486e-21
7.23152e-22
7.19565e-21
3.52218e-21
-5.87103e-21
3.22875e-21
3.23485e-21
3.35157e-21
3.35049e-21
3.77415e-21
-2.02037e-21
2.05435e-21
3.87168e-21
3.679e-21
1.05939e-21
2.59502e-21
3.07114e-21
6.6163e-21
3.89047e-21
4.00443e-21
-5.72851e-21
-3.03919e-22
3.07118e-21
3.90164e-21
3.38144e-21
-9.98301e-22
3.38629e-21
2.49873e-21
3.98371e-21
3.25652e-21
4.95964e-22
-5.14052e-23
3.39902e-21
3.36537e-21
-1.12649e-21
2.87559e-21
3.25871e-21
-1.1628e-21
3.63968e-21
3.26536e-21
2.22546e-21
-9.10029e-22
-1.73078e-21
3.64551e-21
2.45938e-21
3.20286e-21
3.29092e-21
4.24102e-21
3.24959e-21
2.99925e-21
5.83637e-21
5.42065e-21
-5.58854e-21
2.88135e-21
3.21413e-21
5.74763e-21
3.14224e-21
3.08483e-21
3.08433e-21
3.91173e-21
3.44665e-21
3.15026e-21
1.46091e-21
3.06907e-21
3.28914e-21
3.32452e-21
2.79766e-21
6.65841e-22
3.53104e-21
7.65493e-21
5.13027e-21
3.83286e-21
-3.54472e-21
5.07472e-21
-4.24332e-21
-5.09974e-21
6.01775e-21
1.51264e-21
-6.42017e-21
8.78148e-21
3.88352e-21
7.19941e-21
-5.92915e-21
8.24868e-21
3.0525e-21
7.36762e-22
3.65452e-21
-2.62085e-21
3.21501e-21
3.1289e-21
2.71465e-21
6.79753e-21
3.44381e-21
1.4246e-21
-4.42301e-21
-1.15723e-21
3.42316e-21
5.3744e-21
3.94562e-21
1.00899e-20
3.08485e-21
4.83631e-21
-4.52029e-21
1.63357e-21
3.26591e-21
-4.72117e-21
5.64932e-21
4.00396e-21
3.66255e-21
2.92178e-21
3.01041e-21
8.17649e-21
6.34484e-21
-3.16509e-21
3.41778e-21
3.69771e-21
3.96096e-21
-8.15632e-22
2.00947e-21
3.25224e-21
7.3213e-21
2.39253e-21
3.71126e-21
4.73095e-21
1.72797e-21
6.63562e-21
2.8893e-21
-3.1432e-22
3.16827e-21
2.25138e-21
6.05077e-21
1.47948e-21
4.4955e-21
5.84053e-21
2.49696e-21
-1.1338e-21
8.81923e-22
2.10731e-21
1.22075e-21
4.72503e-21
-4.25298e-21
5.07129e-21
-5.04366e-21
2.94349e-21
4.69373e-21
5.69964e-21
-4.11582e-21
6.97238e-21
2.95323e-21
-1.52831e-21
-3.57033e-21
-3.28986e-22
-4.07028e-21
-1.47563e-21
4.73753e-21
4.09815e-21
3.02763e-21
3.44264e-21
2.54742e-21
-2.28453e-21
-4.70422e-21
7.99672e-23
-2.53736e-21
1.57053e-21
3.69897e-22
3.50426e-21
3.69383e-21
2.92236e-21
5.81015e-21
2.086e-21
2.84676e-21
4.84215e-21
4.44701e-21
2.8892e-21
4.73602e-21
3.09853e-21
5.67735e-21
3.53439e-21
6.20864e-21
3.16959e-21
-3.3179e-21
3.71259e-21
4.27528e-21
5.29344e-22
1.0748e-20
5.9176e-21
1.41975e-22
-2.38823e-21
2.15312e-21
-2.85376e-21
2.63221e-21
-5.28162e-21
1.18659e-21
-2.23751e-21
2.47683e-21
2.4409e-21
4.16094e-21
2.93152e-21
2.11874e-21
-4.90575e-21
-2.52093e-21
-2.90549e-21
-4.02389e-22
-2.46687e-21
4.32795e-21
4.83582e-21
2.06692e-21
2.5139e-21
2.9434e-21
-2.02959e-21
1.68671e-21
3.00251e-21
3.09544e-21
6.65681e-21
3.63605e-21
4.95255e-21
-1.22093e-21
3.62739e-21
3.10647e-21
3.20577e-21
3.12052e-21
3.69441e-21
3.02684e-21
3.62449e-21
-5.79973e-21
2.22722e-21
-2.09018e-21
3.43607e-21
1.13902e-21
3.01232e-21
4.19435e-21
3.71922e-21
2.23782e-21
3.07929e-21
2.89706e-21
8.02251e-21
3.57036e-21
8.63203e-21
5.03574e-21
2.83943e-21
-4.64402e-21
-7.29233e-21
6.31334e-21
3.56488e-21
4.77398e-21
4.97754e-21
1.83834e-21
-3.01552e-21
-3.56688e-21
3.36394e-21
2.37841e-21
3.7996e-21
-3.55211e-21
-1.4646e-21
-3.71045e-21
-4.87417e-21
2.57592e-21
2.80405e-21
7.34076e-21
4.29569e-21
6.03312e-21
3.61035e-21
5.27038e-21
2.95193e-21
3.6861e-21
7.00629e-21
-1.7132e-21
-2.95019e-21
8.17085e-21
3.83536e-21
5.17142e-21
6.99813e-22
-1.22667e-21
-2.63866e-21
5.65201e-21
5.84253e-21
-2.49916e-21
7.26728e-21
5.63697e-21
1.30596e-21
-4.1936e-21
2.61078e-21
3.34702e-21
2.97922e-21
3.07809e-21
7.86866e-21
-3.98899e-21
3.00828e-21
3.62934e-21
5.91442e-21
3.52562e-21
2.95711e-22
3.06383e-21
3.57254e-21
3.94573e-21
4.78204e-22
5.89001e-21
-1.38043e-21
2.14486e-21
4.99169e-21
4.59824e-21
3.97773e-21
)
;

boundaryField
{
    front
    {
        type            empty;
    }
    back
    {
        type            empty;
    }
    bottom
    {
        type            uniformFixedValue;
        uniformValue    
        {
            type            scale;
            scale           
            {
                type            squarePulse;
                start           0.3;
                duration        0.3;
            }
            xScale          
            {
                type            constant;
                value           1;
            }
            value           
            {
                type            constant;
                value           15.1;
            }
        }
        value           uniform 0;
    }
    left
    {
        type            zeroGradient;
    }
    top
    {
        type            zeroGradient;
    }
    right
    {
        type            zeroGradient;
    }
    inner_arc
    {
        type            zeroGradient;
    }
}


// ************************************************************************* //
