/*--------------------------------*- C++ -*----------------------------------*\
  =========                 |
  \\      /  F ield         | OpenFOAM: The Open Source CFD Toolbox
   \\    /   O peration     | Website:  https://openfoam.org
    \\  /    A nd           | Version:  9
     \\/     M anipulation  |
\*---------------------------------------------------------------------------*/
FoamFile
{
    format      ascii;
    class       volScalarField;
    location    "0.64";
    object      p;
}
// * * * * * * * * * * * * * * * * * * * * * * * * * * * * * * * * * * * * * //

dimensions      [0 2 -2 0 0 0 0];

internalField   nonuniform List<scalar> 
1655
(
12.141
12.1526
12.1368
12.1327
12.1449
12.1441
12.1365
12.1366
12.1249
12.1448
12.1351
12.1359
12.1381
12.1428
12.1299
12.1415
12.1292
12.1254
12.1421
12.1428
12.139
12.1248
12.1425
12.1432
12.1394
12.1345
12.141
12.1284
12.1301
12.137
12.1334
12.1366
12.1409
12.1343
12.1262
12.1341
12.1441
12.1515
12.1412
12.1536
12.1393
12.1438
12.1419
12.1412
12.1451
12.1326
12.1326
12.145
12.1446
12.142
12.1439
12.1372
12.1291
12.1272
12.1247
12.1326
12.1401
12.1352
12.1324
12.1332
12.1332
12.1431
12.1414
12.1359
12.1398
12.135
12.136
12.1335
12.1263
12.1439
12.1341
12.1362
12.1374
12.1285
12.134
12.1418
12.1311
12.1275
12.14
12.1372
12.1393
12.1427
12.1236
12.141
12.1369
12.132
12.1348
12.1379
12.15
12.1328
12.1344
12.1366
12.1419
12.1448
12.1414
12.1423
12.1365
12.1326
12.1367
12.1383
12.136
12.138
12.145
12.1384
12.123
12.1431
12.1353
12.1371
12.1384
12.134
12.1397
12.1373
12.1362
12.1369
12.138
12.1336
12.1367
12.1324
12.1483
12.1234
12.1378
12.1338
12.1341
12.1348
12.137
12.1399
12.1423
12.1409
12.1415
12.1371
12.1441
12.1395
12.1363
12.1406
12.1375
12.1536
12.1446
12.1284
12.1397
12.1353
12.1317
12.1411
12.1413
12.1339
12.1255
12.1329
12.1367
12.1387
12.1394
12.1284
12.131
12.1257
12.1327
12.1324
12.1317
12.1425
12.14
12.1352
12.1367
12.1392
12.137
12.1394
12.1276
12.1343
12.1344
12.1326
12.1284
12.1391
12.1376
12.1262
12.1268
12.1275
12.1397
12.1325
12.1371
12.134
12.1444
12.1267
12.137
12.1429
12.1323
12.1281
12.1438
12.1347
12.1493
12.1372
12.1434
12.1372
12.1279
12.1296
12.1468
12.1429
12.1312
12.1372
12.137
12.1373
12.1287
12.1372
12.1516
12.1305
12.1337
12.1339
12.1345
12.1355
12.1398
12.1396
12.1405
12.1324
12.1372
12.1342
12.1366
12.1371
12.1531
12.1391
12.143
12.1349
12.1343
12.1435
12.1365
12.132
12.1443
12.1384
12.1411
12.1349
12.1406
12.1365
12.1358
12.1386
12.1347
12.1324
12.1411
12.1224
12.1175
12.1287
12.1401
12.1407
12.1371
12.1339
12.1364
12.1024
12.1307
12.1492
12.0987
12.1378
12.1354
12.1381
12.1287
12.1292
12.1368
12.1333
12.1414
12.1376
12.1431
12.1369
12.1401
12.1363
12.1379
12.137
12.1261
12.1413
12.1365
12.1371
12.135
12.1367
12.1426
12.1392
12.1413
12.1428
12.1403
12.1428
12.1276
12.1296
12.1474
12.1372
12.129
12.1316
12.1275
12.1376
12.1245
12.1238
12.1277
12.1403
12.1314
12.129
12.1291
12.1324
12.1316
12.1395
12.1408
12.1289
12.132
12.1388
12.1419
12.1294
12.1342
12.1389
12.136
12.1354
12.1386
12.1374
12.1391
12.1449
12.1448
12.138
12.1335
12.1267
12.1386
12.137
12.1356
12.1332
12.1338
12.1253
12.1371
12.1307
12.1381
12.1352
12.1391
12.1265
12.1326
12.1383
12.1296
12.142
12.1395
12.1387
12.139
12.1328
12.1331
12.1394
12.1376
12.142
12.1403
12.1326
12.1426
12.1371
12.1353
12.136
12.1428
12.1414
12.1344
12.1345
12.1387
12.1364
12.1306
12.1302
12.13
12.1376
12.1426
12.1384
12.1382
12.1375
12.1414
12.1413
12.1265
12.1394
12.1279
12.1316
12.1359
12.1341
12.1374
12.1331
12.1305
12.1407
12.1277
12.1154
12.1413
12.1305
12.1373
12.1434
12.1328
12.1395
12.1463
12.1398
12.1434
12.1325
12.1445
12.1372
12.1408
12.1379
12.1411
12.1367
12.1413
12.1161
12.1401
12.1191
12.1379
12.1293
12.1318
12.1369
12.133
12.1361
12.1403
12.1419
12.1415
12.1309
12.1359
12.1318
12.1305
12.134
12.1293
12.1425
12.1325
12.1403
12.1134
12.1405
12.1406
12.1397
12.1313
12.1408
12.1506
12.1405
12.1453
12.107
12.1197
12.1408
12.1397
12.1012
12.1329
12.1123
12.1241
12.1302
12.1428
12.1094
12.134
12.1283
12.1325
12.1254
12.1071
12.1338
12.1372
12.1357
12.1376
12.1342
12.1291
12.1452
12.103
12.1127
12.1401
12.139
12.1453
12.1043
12.1411
12.1101
12.1408
12.1257
12.1166
12.1084
12.1357
12.1417
12.1353
12.1422
12.1353
12.1267
12.1351
12.1121
12.1353
12.1055
12.1415
12.1187
12.1359
12.1341
12.1221
12.1063
12.1203
12.1279
12.1432
12.14
12.1126
12.1227
12.0991
12.1198
12.1232
12.1417
12.1089
12.141
12.1293
12.1224
12.1273
12.1197
12.095
12.1342
12.1305
12.1396
12.0968
12.1347
12.1228
12.1024
12.1338
12.1344
12.1396
12.1371
12.1302
12.1348
12.0979
12.1376
12.1291
12.1172
12.1268
12.1341
12.1135
12.1372
12.1318
12.1275
12.1338
12.1308
12.1215
12.1308
12.1352
12.131
12.128
12.1343
12.1436
12.1301
12.1395
12.1238
12.1347
12.1373
12.1293
12.1216
12.13
12.134
12.1297
12.114
12.1288
12.1296
12.132
12.0989
12.1311
12.1299
12.1253
12.1353
12.132
12.1345
12.1466
12.1342
12.1437
12.154
12.1451
12.1387
12.1388
12.1327
12.142
12.1368
12.1429
12.1331
12.1504
12.1442
12.1435
12.1357
12.1269
12.1403
12.1354
12.1289
12.1266
12.1307
12.1271
12.1245
12.1327
12.1294
12.1375
12.1346
12.1274
12.1382
12.0964
12.1362
12.1427
12.1345
12.1242
12.1256
12.1353
12.1361
12.1325
12.1353
12.1348
12.1401
12.1361
12.1239
12.1298
12.1395
12.1302
12.1152
12.1313
12.1317
12.142
12.1361
12.1381
12.1326
12.136
12.1163
12.1354
12.1082
12.1302
12.1241
12.1299
12.1333
12.1027
12.1329
12.1329
12.1403
12.135
12.1355
12.1357
12.1286
12.1368
12.1342
12.1258
12.124
12.1318
12.1364
12.1405
12.1315
12.127
12.1302
12.14
12.1301
12.1389
12.1359
12.1237
12.1312
12.0979
12.1361
12.1272
12.1136
12.1161
12.1361
12.1071
12.1387
12.1211
12.1274
12.1315
12.1348
12.1046
12.1354
12.1339
12.1333
12.1307
12.1351
12.1316
12.1322
12.1296
12.1209
12.1329
12.1348
12.1094
12.1317
12.1314
12.1434
12.1279
12.1328
12.1365
12.1258
12.1356
12.1325
12.1121
12.1206
12.1213
12.137
12.1128
12.1357
12.1232
12.127
12.1254
12.1359
12.1371
12.1186
12.1015
12.1357
12.1362
12.1315
12.1319
12.1337
12.1358
12.1336
12.137
12.1369
12.1377
12.1348
12.1364
12.141
12.1361
12.1374
12.1358
12.1358
12.136
12.1038
12.1364
12.1195
12.1322
12.14
12.1361
12.136
12.1368
12.1372
12.1414
12.1362
12.1312
12.1359
12.1369
12.1358
12.1334
12.1332
12.1094
12.1317
12.1359
12.1365
12.1369
12.1382
12.1376
12.1174
12.1364
12.1348
12.1112
12.1338
12.1184
12.1166
12.1216
12.1392
12.1391
12.1385
12.1098
12.1293
12.1356
12.1367
12.135
12.1118
12.1413
12.1049
12.1363
12.14
12.1263
12.1387
12.1203
12.1423
12.1366
12.1358
12.1423
12.1398
12.1364
12.1354
12.1374
12.1365
12.1089
12.1432
12.1369
12.1053
12.1363
12.1359
12.137
12.1331
12.1379
12.136
12.1372
12.1381
12.136
12.1267
12.12
12.1414
12.1408
12.1377
12.1173
12.1418
12.1133
12.1166
12.1377
12.1414
12.1372
12.1391
12.1366
12.1093
12.1377
12.1347
12.1133
12.1403
12.141
12.1364
12.1263
12.1341
12.1365
12.1369
12.135
12.1343
12.1387
12.1384
12.1382
12.1381
12.1348
12.1351
12.1423
12.1182
12.1376
12.1325
12.1408
12.1179
12.1368
12.1358
12.1404
12.1393
12.1281
12.1391
12.1426
12.1403
12.1429
12.1424
12.1414
12.1407
12.1136
12.1315
12.1391
12.1437
12.112
12.1426
12.13
12.1427
12.1213
12.1424
12.1363
12.1095
12.1408
12.139
12.1418
12.1197
12.1342
12.1408
12.1358
12.1439
12.1313
12.1101
12.1395
12.1373
12.1395
12.1392
12.1379
12.1409
12.1323
12.1396
12.1394
12.1407
12.1398
12.1379
12.1426
12.1403
12.1294
12.1385
12.117
12.143
12.143
12.1397
12.1202
12.1397
12.1454
12.1401
12.1382
12.1376
12.1377
12.1386
12.1404
12.1433
12.1498
12.1394
12.1365
12.133
12.143
12.1366
12.1387
12.113
12.14
12.1391
12.1437
12.138
12.1387
12.1375
12.1381
12.1421
12.142
12.1389
12.133
12.1467
12.1392
12.1514
12.1323
12.1366
12.142
12.142
12.1304
12.1347
12.1418
12.1322
12.1416
12.1385
12.1379
12.1422
12.144
12.1349
12.1375
12.1391
12.1444
12.1347
12.1394
12.1314
12.1411
12.1344
12.1411
12.1382
12.1524
12.1419
12.1445
12.1417
12.1397
12.1441
12.1416
12.1482
12.1417
12.1183
12.1312
12.1411
12.1439
12.1428
12.1422
12.1371
12.1415
12.1517
12.1357
12.1444
12.1405
12.133
12.1407
12.1409
12.139
12.1473
12.1422
12.1427
12.1425
12.1421
12.142
12.1438
12.1441
12.1518
12.1395
12.14
12.1349
12.1389
12.141
12.1222
12.1418
12.1352
12.1329
12.1413
12.1341
12.1415
12.1414
12.1443
12.1441
12.1407
12.1353
12.1414
12.1006
12.1399
12.1364
12.1335
12.1372
12.1428
12.1424
12.1336
12.1425
12.1371
12.1386
12.1375
12.136
12.1342
12.1274
12.1403
12.134
12.1418
12.1369
12.1404
12.1432
12.1445
12.1412
12.1432
12.1401
12.1422
12.1436
12.1421
12.1393
12.1294
12.1444
12.1439
12.1349
12.1425
12.1347
12.1417
12.1479
12.1418
12.1448
12.1351
12.1492
12.1425
12.1327
12.1423
12.1423
12.1424
12.1437
12.1436
12.1482
12.1431
12.1419
12.1432
12.1537
12.1399
12.1385
12.1422
12.1391
12.1436
12.1427
12.1406
12.1425
12.141
12.1414
12.1463
12.1405
12.147
12.1399
12.1123
12.1363
12.1415
12.1401
12.14
12.1422
12.1434
12.1407
12.1486
12.098
12.137
12.1371
12.1376
12.1406
12.1407
12.1329
12.1402
12.1432
12.1448
12.1452
12.1071
12.1419
12.1376
12.1423
12.1403
12.1378
12.1408
12.1358
12.1393
12.1333
12.1402
12.1446
12.1384
12.1386
12.1298
12.1439
12.1397
12.1385
12.1259
12.1223
12.1385
12.1423
12.1402
12.1417
12.1347
12.1424
12.1408
12.1434
12.1391
12.1372
12.1423
12.1433
12.1432
12.138
12.1415
12.141
12.1391
12.1204
12.1427
12.1317
12.135
12.1428
12.1375
12.131
12.139
12.1362
12.1355
12.1222
12.1408
12.143
12.1386
12.1411
12.1405
12.1422
12.142
12.1309
12.1434
12.1239
12.1474
12.1369
12.1439
12.1344
12.1404
12.1307
12.1358
12.1435
12.139
12.1327
12.1467
12.1396
12.1305
12.1428
12.1377
12.1438
12.1404
12.136
12.1429
12.1344
12.1342
12.1402
12.1344
12.1287
12.1237
12.1341
12.1305
12.1427
12.1324
12.1352
12.1423
12.1418
12.1371
12.1339
12.141
12.1325
12.1425
12.1423
12.1383
12.1348
12.1377
12.1425
12.1303
12.1378
12.1409
12.1386
12.1436
12.1414
12.1429
12.123
12.1182
12.1268
12.1432
12.1383
12.1383
12.1429
12.1425
12.1426
12.1404
12.137
12.137
12.1423
12.1227
12.113
12.1341
12.1425
12.1356
12.1
12.1081
12.1353
12.1435
12.1431
12.1427
12.1399
12.1036
12.1369
12.1393
12.1371
12.1428
12.1022
12.1426
12.1428
12.1405
12.1433
12.1231
12.1404
12.1369
12.1277
12.1349
12.141
12.1429
12.1114
12.1419
12.1281
12.1356
12.138
12.1366
12.1237
12.1355
12.1403
12.1433
12.143
12.1274
12.1352
12.1401
12.1444
12.1241
12.1394
12.1251
12.1381
12.1429
12.1387
12.097
12.1344
12.1371
12.1071
12.136
12.1377
12.123
12.1335
12.1424
12.1434
12.1427
12.1406
12.133
12.1369
12.1446
12.1456
12.123
12.0961
12.1378
12.1431
12.1396
12.1439
12.1443
12.1184
12.1441
12.1261
12.1403
12.1367
12.1435
12.0998
12.1355
12.1049
12.1436
12.1446
12.1197
12.1445
12.137
12.1387
12.1339
12.1321
12.1113
12.1014
12.1411
12.1365
12.1243
12.0951
12.1047
12.1353
12.137
12.1327
12.1044
12.1157
12.1166
12.1252
12.1325
12.1447
12.1323
12.1409
12.1367
12.1352
12.1314
12.1321
12.1325
12.1285
12.1429
12.1332
12.1381
12.1334
12.1524
12.1331
12.1399
12.1283
12.1342
12.1444
12.1452
12.1377
12.0978
12.1154
12.1034
12.1513
12.127
12.1241
12.1492
12.1255
12.1331
12.125
12.1369
12.1233
12.1239
12.1385
12.1408
12.1441
12.1433
12.1446
12.1444
12.1403
12.145
12.1262
12.1426
12.139
12.1369
12.1449
12.1321
12.1339
12.1349
12.1351
12.1271
12.1337
12.1391
12.1297
12.1342
12.1229
12.139
12.1298
12.1358
12.1354
12.134
12.1281
12.1247
12.1412
12.1403
12.1231
12.1419
12.1257
12.122
12.1418
12.1406
12.1394
12.1434
12.1439
12.1393
12.1375
12.1421
12.143
12.1441
12.1427
12.1426
12.1399
12.1358
12.1414
12.1409
12.1406
12.1432
12.144
12.1396
12.1421
12.1368
12.1424
12.1361
12.1363
12.1311
12.1371
12.1437
12.1442
12.1369
12.1505
12.1369
12.1382
12.1425
12.1375
12.1232
12.137
12.1455
12.1441
12.1303
12.1417
12.1434
12.1334
12.153
12.144
12.1483
12.1418
12.1307
12.1371
12.1377
12.1381
12.1437
12.1487
12.1235
12.1451
12.1407
12.1374
12.14
12.1265
12.1428
12.1417
12.1278
12.1425
12.1429
12.1324
12.1465
12.1248
12.1447
12.1448
12.1412
12.1408
12.1267
12.1424
12.1398
12.1426
12.1337
12.136
12.1374
12.1377
12.1434
12.1416
12.1405
12.1442
12.1249
12.1343
12.1406
12.1419
12.1387
12.1399
12.1448
12.1455
12.144
12.145
12.1416
12.1392
12.1476
12.1491
12.1415
12.1427
12.1353
12.1337
12.133
12.1542
12.123
12.122
12.133
12.1412
12.1401
12.1405
12.1359
12.1225
12.1324
12.1369
12.138
12.1385
12.1379
12.14
12.1373
12.1425
12.1238
12.1443
12.1384
12.1425
12.144
12.1304
12.1419
12.1443
12.1428
12.1444
12.1316
12.1372
12.1222
12.1409
12.1338
12.1429
12.1457
12.1405
12.138
12.1347
12.135
12.1429
12.1473
12.1332
12.129
12.1495
12.1451
12.1372
12.1243
12.145
12.1286
12.1413
12.1244
12.1377
12.1355
12.1301
12.1428
12.1426
12.1421
12.1453
12.1428
12.1452
12.1446
12.1453
12.1454
12.1449
12.1452
12.1346
12.1354
12.1267
12.1517
12.144
12.1454
12.1339
12.1333
12.1313
12.1237
12.1339
12.1446
12.122
12.1399
12.1423
12.1372
12.1431
12.1336
12.1422
12.1449
12.1373
12.153
12.1486
12.1448
12.1393
12.126
12.1408
12.1377
12.1359
12.1539
12.1231
12.1421
12.1355
12.1261
12.1272
12.1327
12.142
12.1267
12.1444
12.1417
12.1514
12.1368
12.1448
12.1442
12.1387
12.1405
12.1414
12.1376
12.1379
12.1417
12.1446
12.1451
12.1404
12.1318
12.1336
12.1445
12.1424
12.1401
12.1379
12.1426
12.1368
12.1249
12.1391
12.14
12.1238
12.1325
12.1395
12.1418
12.1429
12.1383
12.1442
12.1431
12.1433
12.1321
12.1446
12.1259
12.1485
12.1342
12.1226
12.1511
12.1272
12.1345
12.141
12.1427
12.124
12.1406
12.1452
12.1533
12.1342
12.1358
12.1392
12.1342
12.1192
12.1335
12.1345
12.1372
12.1347
12.124
12.1342
12.1436
12.1232
12.1452
12.1387
12.1407
12.1298
12.1406
12.1434
12.1404
12.1302
12.1503
12.1422
12.1234
12.1331
12.1429
12.13
12.1417
12.1452
12.1383
12.139
12.1525
12.1368
12.1427
12.1379
12.1425
12.1448
12.1429
12.144
12.1336
12.1327
12.1352
12.145
12.1362
12.1431
12.1403
12.147
12.1429
12.1437
12.1321
12.1429
12.1451
12.1284
12.1421
12.1444
12.1467
12.1379
12.1405
12.1366
12.1233
12.1387
12.1371
12.1391
12.1448
12.1236
)
;

boundaryField
{
    back
    {
        type            empty;
    }
    front
    {
        type            empty;
    }
    top
    {
        type            zeroGradient;
    }
    outer_arc
    {
        type            zeroGradient;
    }
    bottom
    {
        type            uniformFixedValue;
        uniformValue    
        {
            type            table;
            format          csv;
            file            "outlet_p.csv";
            nHeaderLine     1;
            refColumn       0;
            componentColumns List<label> 1(1);
            separator       ",";
            mergeSeparators 0;
        }
        value           uniform 12.1226;
    }
    inner_arc
    {
        type            zeroGradient;
    }
}


// ************************************************************************* //
