/*--------------------------------*- C++ -*----------------------------------*\
  =========                 |
  \\      /  F ield         | OpenFOAM: The Open Source CFD Toolbox
   \\    /   O peration     | Website:  https://openfoam.org
    \\  /    A nd           | Version:  9
     \\/     M anipulation  |
\*---------------------------------------------------------------------------*/
FoamFile
{
    format      ascii;
    class       volScalarField;
    location    "0.64";
    object      p;
}
// * * * * * * * * * * * * * * * * * * * * * * * * * * * * * * * * * * * * * //

dimensions      [0 2 -2 0 0 0 0];

internalField   nonuniform List<scalar> 
578
(
-1.79514e-06
-5.57692e-06
-1.28881e-06
1.54987e-07
-5.378e-06
3.8279e-06
5.18405e-06
-4.56834e-06
-3.82487e-06
-8.17867e-06
2.01759e-06
-4.51238e-06
-1.30554e-09
-5.07929e-06
4.85517e-06
-2.86282e-07
-3.03193e-06
-2.84544e-06
-3.53554e-06
-2.54893e-06
1.72819e-07
-3.26512e-08
1.77383e-06
1.93254e-06
2.09951e-06
-3.35833e-06
-4.16303e-07
-7.70912e-07
-4.11932e-06
-2.19799e-10
-4.43364e-07
4.39898e-06
-1.69065e-06
7.18393e-07
4.359e-06
-1.95315e-06
-4.55331e-06
-4.35788e-06
-1.57839e-08
-6.26926e-06
-4.90687e-06
-3.98804e-06
-5.06844e-06
5.08524e-06
-1.06e-06
6.31344e-06
4.84009e-06
-4.08916e-06
-3.28049e-08
-6.05532e-07
6.43266e-06
-4.05423e-08
5.66723e-06
5.72458e-07
-1.65547e-07
-2.61656e-06
1.64838e-06
1.18644e-06
-1.53559e-06
-2.98549e-06
-2.66233e-06
-4.41722e-06
-4.23309e-06
-5.62875e-06
-1.71261e-07
4.69549e-06
-9.28424e-07
2.62949e-06
1.80107e-06
-3.23442e-06
1.0737e-06
4.32715e-06
-1.54182e-07
-3.78044e-06
2.01516e-06
-6.00308e-06
-4.83972e-06
-3.97911e-06
-1.55166e-07
3.68241e-06
4.36187e-06
-3.75844e-06
5.82715e-06
5.51871e-06
1.05103e-06
3.32402e-06
7.06012e-06
-1.77084e-06
-3.59824e-06
3.20408e-06
-3.30035e-07
2.27461e-06
4.12969e-06
1.15162e-07
2.21621e-06
3.69969e-06
-1.65944e-07
-2.18656e-07
-8.10479e-06
4.84283e-06
4.52434e-06
-3.68616e-06
-4.30892e-07
3.00534e-06
-2.15789e-07
-5.1422e-06
2.3166e-06
-6.08684e-06
3.91261e-06
-5.35061e-06
-1.72315e-06
-3.51494e-06
-2.86206e-06
3.01583e-06
3.15788e-06
-2.94345e-07
1.49319e-07
-2.82878e-06
3.14645e-06
-1.54965e-07
-2.9828e-06
7.98981e-06
-4.1083e-06
-2.77264e-08
4.18193e-06
2.10311e-06
3.57206e-06
7.44399e-08
3.96518e-06
5.45654e-07
4.01166e-06
1.86487e-06
9.95759e-08
-3.32625e-06
3.56621e-06
3.85614e-06
-5.31473e-06
-2.95587e-07
2.19195e-06
4.04039e-06
4.36611e-06
1.14037e-06
3.88388e-06
-2.07493e-06
-3.79905e-06
1.46903e-06
1.47634e-06
-9.10393e-07
-4.11219e-06
-6.04965e-10
-4.37722e-06
1.74233e-06
-5.3768e-06
-3.09704e-06
4.73767e-06
-6.22104e-07
-3.15996e-06
2.08164e-07
5.18994e-06
-4.45259e-06
-4.65894e-06
-4.54018e-06
4.62414e-06
-4.26395e-06
-3.43079e-06
1.26965e-06
-2.74043e-06
4.78469e-06
5.00163e-07
-1.87589e-07
-3.87917e-06
-5.45327e-06
3.9661e-06
2.92165e-06
4.6429e-06
-2.5999e-07
-1.3628e-07
-2.66018e-06
-4.25877e-06
-4.15052e-06
5.09226e-06
-4.18176e-06
2.60909e-06
-1.47969e-07
4.03232e-06
-7.08937e-07
-4.88172e-07
5.24491e-06
4.69458e-06
-6.11468e-06
-4.76417e-06
-4.60549e-06
1.37271e-06
4.7102e-06
-6.02798e-06
-1.43081e-07
7.60107e-07
-1.06379e-06
4.54251e-06
-4.78401e-06
3.38251e-07
-5.14365e-08
8.50411e-06
-3.04863e-07
-2.13921e-07
-4.90049e-06
4.41386e-06
-3.53101e-07
-4.60083e-06
1.02095e-06
8.10413e-07
4.39957e-06
3.38527e-06
-8.98682e-08
3.49537e-06
-1.79432e-07
4.68158e-06
-4.73133e-06
4.68931e-06
1.82263e-06
-4.70517e-06
4.59421e-06
-2.18311e-06
-4.7673e-06
5.13033e-06
2.11284e-06
-1.29613e-07
5.89088e-07
-9.24458e-07
-5.09396e-06
-7.08484e-06
8.39259e-06
3.28744e-06
-1.95421e-06
1.94786e-06
-3.51956e-06
-4.9025e-06
4.9367e-06
2.63653e-08
-8.26119e-07
4.92189e-06
-5.51665e-06
-2.0807e-07
4.93803e-06
-9.63535e-07
-3.78872e-06
4.04736e-06
-7.99475e-06
3.42696e-06
7.40053e-08
-1.37157e-07
2.84484e-06
4.83013e-06
4.64893e-07
5.1335e-06
-1.14917e-06
-4.39632e-06
4.46123e-06
-3.97911e-06
7.9373e-06
-1.90937e-06
5.11258e-06
6.54371e-07
7.10073e-07
-4.30365e-06
-2.61379e-06
1.32555e-06
-9.8674e-07
-6.88264e-06
1.55927e-06
-1.60209e-06
1.65564e-06
6.78536e-07
-1.45873e-07
-2.0084e-08
-1.67251e-08
-1.65734e-07
9.35228e-07
4.79899e-06
2.77657e-07
-5.07123e-06
-7.80465e-08
-2.00197e-07
-9.986e-08
7.09863e-08
3.82136e-06
-2.32336e-06
2.23431e-06
1.64427e-06
1.23508e-06
6.30317e-07
2.70387e-06
-3.31632e-07
4.36594e-06
9.08541e-08
4.00855e-07
-5.06405e-06
-5.53357e-07
-1.37039e-06
-1.22635e-07
2.51465e-07
-6.70981e-07
-7.82746e-07
-1.94935e-06
5.13476e-07
5.25177e-07
-8.22692e-09
-3.50845e-06
1.53883e-07
-2.57148e-08
-1.45174e-06
-6.09005e-07
-5.24612e-08
-7.33882e-07
4.04003e-07
-2.17997e-07
2.47132e-06
-5.33379e-07
-1.37051e-06
5.45888e-07
2.60311e-06
-1.94575e-07
-1.07129e-07
1.17847e-06
-1.99265e-07
-5.34993e-07
4.37138e-06
4.53804e-06
-4.75636e-06
-4.84416e-07
-2.52379e-07
3.81845e-06
-2.38324e-07
-6.3174e-07
3.1732e-06
7.67751e-07
-2.20859e-08
-4.56039e-07
-2.41239e-06
-3.23682e-07
-1.78834e-07
-1.27176e-07
-4.82233e-07
-2.97617e-06
2.39059e-07
3.89074e-06
2.35971e-06
3.67699e-06
-3.7153e-06
4.28408e-06
-4.15256e-06
-4.59834e-06
4.5907e-06
-1.82846e-06
-5.85498e-06
5.92304e-06
7.77844e-07
5.62832e-06
-6.11603e-06
5.9265e-06
-1.28071e-07
-2.35763e-06
4.12284e-07
-2.90629e-06
-3.48992e-08
2.02659e-07
-4.90928e-07
3.66015e-06
-3.01681e-08
-8.35207e-07
-4.39849e-06
-4.66971e-06
1.47367e-06
2.52529e-06
1.70902e-06
6.80549e-06
-4.09328e-07
4.18756e-06
-4.38596e-06
-1.17919e-06
-2.00457e-07
-4.46532e-06
4.60674e-06
8.92941e-07
5.50166e-07
-7.46166e-08
-8.21143e-08
5.64788e-06
5.27535e-06
-3.3902e-06
-1.2832e-07
9.5387e-07
1.13958e-06
-1.25439e-06
-5.48935e-07
4.66386e-07
4.58129e-06
-1.28157e-06
7.53699e-07
2.56405e-06
-1.60913e-07
4.48961e-06
-2.95474e-08
-3.0055e-06
-2.17647e-07
-6.28387e-07
2.98564e-06
-1.26871e-06
1.57155e-06
2.82597e-06
-4.28371e-07
-3.73006e-06
-2.56521e-06
2.33073e-06
-1.41335e-06
1.79195e-06
-3.82663e-06
3.78192e-06
-5.12857e-06
-5.40024e-07
4.15028e-06
3.45426e-06
-4.1757e-06
4.99585e-06
3.16769e-06
-1.9683e-06
-3.18213e-06
-3.41732e-06
-3.85649e-06
-1.88349e-06
3.03093e-06
9.23651e-07
1.27041e-06
-1.54193e-07
2.7693e-06
-2.58658e-06
-4.45673e-06
-2.5431e-06
-2.59222e-06
-1.21422e-06
-2.13111e-06
2.62121e-08
2.51631e-07
-8.22722e-07
3.73977e-06
-1.02271e-06
-1.2268e-06
3.29979e-06
3.25464e-06
-3.15311e-08
4.26523e-06
-3.47393e-07
3.35592e-06
-4.35339e-09
4.27485e-06
2.10015e-07
-5.76676e-06
1.43027e-06
1.18452e-06
-2.96968e-06
6.50727e-06
3.87308e-06
-2.61424e-06
-2.57319e-06
-1.07862e-06
-3.31388e-06
2.76475e-06
-5.16898e-06
-1.69937e-06
-2.52896e-06
-1.27223e-06
-1.044e-06
2.93514e-06
-6.3986e-07
-1.3329e-06
-3.94024e-06
-2.90983e-06
-3.19304e-06
-1.53006e-06
-2.77997e-06
1.34644e-06
1.64053e-06
-1.32938e-06
-9.81053e-07
-5.78736e-07
-2.34543e-06
-2.15103e-06
-5.39913e-07
-4.02099e-07
4.07578e-06
1.96328e-07
3.00517e-06
-1.56845e-06
1.74921e-07
-3.40399e-07
3.29309e-06
-5.76258e-08
3.7945e-06
-4.85979e-07
1.44441e-07
-4.94685e-06
-7.57535e-07
-2.52895e-06
-5.7096e-08
-2.62429e-06
-5.02404e-07
3.76242e-06
3.11631e-07
2.51449e-06
-3.9069e-07
-7.47006e-07
4.43479e-06
-2.92038e-07
6.1651e-06
4.23726e-06
5.94943e-08
-4.45466e-06
-6.02282e-06
3.51686e-06
8.68707e-08
1.84057e-06
2.14078e-06
-1.39357e-06
-3.47113e-06
-3.80495e-06
-2.01062e-07
-1.50736e-06
3.89884e-07
-4.07322e-06
-4.31861e-06
-4.28638e-06
-4.32656e-06
-9.9108e-07
-8.2677e-07
3.8831e-06
3.19022e-06
3.47748e-06
3.54954e-06
3.18941e-06
-6.66308e-07
2.94526e-07
3.84151e-06
-2.269e-06
-3.29113e-06
4.7071e-06
7.98294e-07
2.24821e-06
-2.47098e-06
-2.0249e-06
-3.06474e-06
2.67055e-06
4.58911e-06
-2.98186e-06
4.21054e-06
2.64802e-06
-1.75248e-06
-4.49114e-06
-1.01131e-06
-3.91349e-07
-5.41421e-07
-4.45671e-07
4.54826e-06
-3.98053e-06
-5.46129e-07
2.0264e-07
3.02379e-06
-9.74406e-10
-2.6422e-06
-3.92674e-07
5.82259e-08
3.9329e-06
-2.6454e-06
3.16534e-06
-3.95098e-06
-1.45264e-06
2.22396e-06
2.24423e-06
1.65308e-06
)
;

boundaryField
{
    front
    {
        type            empty;
    }
    back
    {
        type            empty;
    }
    bottom
    {
        type            uniformFixedValue;
        uniformValue    
        {
            type            scale;
            scale           
            {
                type            squarePulse;
                start           0.3;
                duration        0.3;
            }
            xScale          
            {
                type            constant;
                value           1;
            }
            value           
            {
                type            constant;
                value           15.1;
            }
        }
        value           uniform 0;
    }
    left
    {
        type            zeroGradient;
    }
    top
    {
        type            zeroGradient;
    }
    right
    {
        type            zeroGradient;
    }
    inner_arc
    {
        type            zeroGradient;
    }
}


// ************************************************************************* //
