/*--------------------------------*- C++ -*----------------------------------*\
  =========                 |
  \\      /  F ield         | OpenFOAM: The Open Source CFD Toolbox
   \\    /   O peration     | Website:  https://openfoam.org
    \\  /    A nd           | Version:  9
     \\/     M anipulation  |
\*---------------------------------------------------------------------------*/
FoamFile
{
    format      ascii;
    class       volVectorField;
    location    "0.64";
    object      U;
}
// * * * * * * * * * * * * * * * * * * * * * * * * * * * * * * * * * * * * * //

dimensions      [0 1 -1 0 0 0 0];

internalField   nonuniform List<vector> 
578
(
(0.000100396 0.000125382 0)
(7.90423e-05 0.000124406 -3.04515e-22)
(0.000155281 0.000189645 0)
(-8.22752e-06 -2.33578e-05 9.1424e-24)
(2.9093e-05 -6.22361e-05 0)
(7.74107e-05 -3.81395e-05 -1.55642e-22)
(3.00681e-05 6.40011e-05 -2.94656e-23)
(3.02994e-05 -5.52798e-05 -2.54291e-22)
(0.000154926 -0.00025172 0)
(4.10542e-05 7.65833e-05 3.79216e-22)
(0.000112853 -5.44374e-05 1.08973e-22)
(0.000105912 -0.000203145 -1.58701e-23)
(-8.71034e-06 -2.45106e-06 0)
(0.000109758 -0.000224237 3.14495e-22)
(0.000110612 0.000224385 0)
(0.00019502 -0.000226265 1.55736e-23)
(0.000127423 7.24164e-05 9.0542e-23)
(0.000164297 0.000155754 -2.78907e-22)
(9.48196e-05 -0.000182292 7.61096e-23)
(0.000168769 -0.0002474 1.58937e-22)
(-1.19111e-05 -3.10357e-05 -9.41311e-24)
(0.000162582 -0.000207442 3.67081e-23)
(7.49642e-05 -4.13321e-05 -1.2786e-22)
(1.08908e-05 4.10057e-05 -1.3346e-23)
(4.18059e-06 4.02283e-05 0)
(9.19609e-05 -0.000187354 1.59704e-23)
(-7.4426e-06 2.42597e-05 0)
(-2.74546e-06 1.95304e-05 -1.94783e-24)
(9.39725e-05 0.000111572 1.99953e-22)
(0.000195254 -0.000228753 0)
(-5.45822e-06 3.14658e-05 2.36826e-23)
(5.24437e-05 -3.77948e-05 -1.44005e-23)
(0.000197309 -0.000235884 1.08166e-23)
(-6.24541e-07 5.09322e-05 -9.23196e-24)
(9.62409e-05 0.000198899 -2.67192e-22)
(0.000168055 -0.000191146 -5.1764e-23)
(9.54741e-05 -0.000197133 -2.77242e-22)
(8.81279e-05 -0.000170057 0)
(0.000187249 0.000217031 1.38316e-24)
(4.80975e-05 -0.000100574 0)
(5.04489e-05 -0.000110888 2.66897e-22)
(5.45149e-05 -9.50861e-05 1.396e-22)
(4.85607e-05 -9.41754e-05 3.21727e-22)
(9.48024e-05 0.000194373 -9.30467e-24)
(0.00011673 -0.000127744 0)
(4.91695e-05 0.00010333 1.14926e-23)
(5.10114e-05 0.000113349 2.95482e-22)
(0.000136164 -0.000224367 1.18539e-22)
(0.00018964 0.000221616 -1.41129e-24)
(-1.0914e-05 2.22027e-05 0)
(8.67658e-06 1.31234e-06 9.83315e-24)
(-7.82759e-06 -3.71398e-06 3.63629e-25)
(8.98643e-05 -5.82096e-05 2.18734e-22)
(-4.76328e-06 5.05272e-05 9.13043e-24)
(-2.70365e-06 -2.61259e-07 0)
(7.59096e-05 2.30758e-05 -6.84182e-23)
(3.07937e-05 -1.21131e-05 -1.78489e-23)
(6.56179e-05 -6.2898e-05 0)
(0.00016792 0.000135759 1.44906e-22)
(0.000107403 -0.00012024 -5.99712e-23)
(0.000179374 0.000169921 7.79547e-23)
(6.94647e-05 4.14639e-05 1.55364e-22)
(0.00010015 9.27998e-05 2.08791e-22)
(9.52676e-05 -0.000196657 -1.46912e-22)
(-1.26096e-05 1.66927e-06 -9.28579e-24)
(0.000118008 0.000226826 1.47016e-22)
(0.000185831 -0.000237598 -9.87859e-23)
(0.000130205 -7.88216e-05 0)
(0.000194526 -0.000204805 1.66556e-23)
(0.000111098 -0.000234713 -1.04973e-22)
(-5.26728e-08 4.54578e-05 0)
(2.54065e-05 -7.60214e-06 -2.72527e-22)
(-1.08268e-05 -2.86358e-07 1.91286e-23)
(0.000115605 -0.000235406 -2.7772e-22)
(7.72154e-05 -4.91754e-06 0)
(2.8379e-05 -5.97183e-05 -1.47238e-22)
(0.000137615 -0.000210718 -3.83323e-22)
(0.000109924 -0.000167945 2.14375e-22)
(-1.29452e-05 -2.69055e-06 -9.08096e-24)
(9.34983e-05 0.000103373 7.04649e-23)
(0.000145713 -0.000171572 -3.05062e-22)
(5.14905e-05 7.16633e-05 -4.20627e-22)
(3.70436e-05 -5.98201e-05 -4.63617e-22)
(5.04234e-05 -7.12253e-05 0)
(0.00017514 0.000233857 5.78656e-23)
(3.51832e-05 8.90133e-05 -2.89661e-22)
(7.35348e-06 -5.49557e-06 0)
(0.000101944 2.60962e-05 -2.07932e-23)
(7.76768e-05 -0.000164654 2.2581e-22)
(7.9734e-05 0.000182772 1.34275e-24)
(-9.95647e-06 3.1078e-05 -2.32912e-23)
(0.000145757 0.000205815 5.04061e-25)
(7.76855e-05 0.000167569 2.25831e-22)
(-1.36531e-05 -9.33541e-06 1.77239e-24)
(0.000200941 -0.00022106 -1.81447e-23)
(0.000164097 -0.000204541 0)
(-5.47358e-06 -1.80847e-09 -1.09494e-23)
(-4.27781e-06 -8.46023e-07 0)
(1.77614e-05 3.18532e-05 9.74009e-23)
(0.00011174 0.000227082 -2.67748e-22)
(0.000105573 0.000197431 -1.65266e-23)
(0.00010227 -0.00022392 -1.16639e-22)
(-1.17419e-05 6.83635e-06 0)
(0.000146662 0.000161901 0)
(-1.51436e-06 4.82484e-07 -5.30292e-24)
(0.00011113 -0.000227263 -2.74501e-22)
(6.575e-05 -1.03302e-05 0)
(5.08206e-05 -0.000107916 -1.768e-22)
(1.6504e-05 4.5818e-05 1.79739e-22)
(5.58337e-05 -0.000112232 3.4636e-22)
(0.000163867 -0.000205026 -6.53557e-23)
(0.000105597 -0.000224672 -8.45294e-23)
(0.000183251 -0.000243574 -1.10187e-23)
(0.000186653 -0.00018824 2.28629e-23)
(0.000188311 -0.000212407 -2.27336e-23)
(-8.3745e-06 3.81012e-06 -1.83071e-23)
(-1.02993e-05 -2.05228e-05 0)
(0.000179724 0.000187136 5.02063e-23)
(6.8472e-05 0.00015251 0)
(-4.24861e-06 7.91155e-07 -1.15683e-23)
(7.34301e-05 -0.000149118 2.14083e-22)
(8.33035e-05 -0.000121175 0)
(0.000106915 -0.000210949 2.85562e-23)
(-7.19351e-06 -3.28845e-05 -5.27287e-24)
(7.62311e-05 -0.000109586 0)
(8.9192e-05 0.00022351 6.54339e-23)
(0.000119692 -0.000149339 3.06271e-22)
(0.000181284 -0.000204166 -1.18372e-23)
(0.000115775 0.000235808 -2.48276e-22)
(7.95313e-05 0.000228256 0)
(0.000112643 0.000225019 2.95617e-22)
(8.88923e-05 0.000230548 0)
(-1.24705e-05 -1.31618e-05 6.17756e-24)
(1.81733e-05 -3.69866e-05 -1.70343e-22)
(0.000112066 0.000232695 -2.65226e-22)
(0.000103627 0.000182861 0)
(9.03717e-05 -0.000166523 3.35682e-22)
(-8.47386e-06 2.03098e-06 1.84944e-23)
(0.000183036 -0.000173342 -6.74114e-25)
(9.46146e-05 0.000182635 -2.46945e-22)
(4.25872e-05 7.90878e-05 0)
(7.98063e-05 0.00022544 0)
(7.8972e-05 0.000151165 0)
(6.27427e-06 -3.91069e-05 0)
(3.97821e-05 -7.85461e-05 2.14049e-22)
(0.000192042 0.00023671 0)
(6.60393e-05 0.000152177 1.51243e-22)
(-1.53497e-06 2.95238e-06 -5.76839e-23)
(0.000115861 -0.000234233 0)
(7.61285e-05 0.000210661 0)
(0.000132662 -0.000249101 0)
(3.86469e-05 5.62449e-05 -1.69606e-23)
(4.40811e-05 -4.72207e-05 3.04339e-22)
(3.33707e-05 -6.81403e-05 1.55511e-22)
(0.000121673 0.000239163 -8.24603e-24)
(-6.24963e-06 1.42722e-05 -3.67321e-23)
(0.00013763 0.000124937 -2.25201e-22)
(-3.98836e-06 -6.03123e-06 1.06823e-23)
(3.64765e-05 3.91936e-05 1.08653e-22)
(0.000137639 -0.00025278 0)
(0.000117799 -0.000227025 0)
(0.0001059 -0.000197028 0)
(2.2186e-05 4.12203e-05 0)
(0.000117463 -0.000213479 3.91974e-24)
(1.99433e-06 -1.38564e-05 0)
(8.01838e-05 0.000199089 -8.35662e-23)
(1.67529e-06 -2.68131e-05 0)
(0.000104294 0.000199912 -2.29578e-24)
(-1.41217e-06 -2.64794e-06 0)
(-2.22079e-05 2.41297e-05 0)
(0.00010939 -0.000186964 2.44679e-22)
(4.94181e-05 -8.98601e-05 0)
(5.71303e-05 9.94984e-05 0)
(3.2878e-05 6.58668e-05 -2.94748e-24)
(8.78617e-05 0.000165398 0)
(-1.75909e-05 3.22081e-06 0)
(-2.12741e-05 1.32415e-07 8.66704e-24)
(0.000179894 0.00015332 -1.63787e-23)
(6.31266e-05 -0.000108873 -2.3088e-22)
(2.48754e-05 7.75147e-06 0)
(4.87269e-05 8.95592e-05 2.41102e-24)
(0.00012041 0.000175354 3.12183e-22)
(5.82876e-05 0.000163609 0)
(-1.81104e-05 -4.02614e-06 -1.33198e-23)
(0.000125311 0.000212023 0)
(-6.04215e-07 5.03829e-07 3.15639e-23)
(6.57604e-05 -8.1703e-05 2.27603e-23)
(0.00011617 0.000237864 2.60861e-22)
(0.000126364 0.000245111 0)
(9.04498e-06 -2.99517e-07 0)
(0.000125823 -0.000244546 0)
(9.90675e-05 -0.000182189 2.86865e-22)
(0.000106322 -0.000143558 -3.95225e-23)
(9.32959e-05 0.00017474 2.252e-24)
(7.15217e-05 0.000112023 2.77619e-22)
(-2.90516e-05 6.17486e-06 2.42487e-23)
(-2.30216e-06 -7.26479e-06 -3.93053e-23)
(-2.36571e-06 7.67088e-06 -6.31457e-23)
(9.78849e-05 0.000180664 0)
(9.41013e-05 -0.00017513 0)
(-6.06141e-07 -5.07046e-07 0)
(-1.85116e-05 -8.65079e-06 5.49957e-24)
(4.72499e-05 -8.0396e-05 4.23018e-22)
(-2.67786e-05 1.35997e-05 -2.35038e-23)
(-2.53172e-05 1.21129e-06 -6.26065e-24)
(0.000107586 -0.000201766 -6.03187e-22)
(0.000116124 0.000213901 0)
(9.69864e-05 0.000126267 8.0701e-24)
(0.000127724 -0.000250738 0)
(5.85765e-05 6.86047e-05 -1.07533e-22)
(5.07248e-05 0.000115337 -6.95411e-23)
(0.000128382 0.000251124 0)
(0.000104607 0.000218614 0)
(-2.67459e-05 -5.78499e-06 1.64841e-24)
(8.81768e-05 0.000176636 0)
(-8.45354e-06 -4.01724e-05 6.85473e-24)
(0.000110084 0.000208627 0)
(0.00011055 -0.000208827 -1.1146e-24)
(0.000124681 0.000247255 2.97146e-22)
(2.63876e-05 5.60745e-05 0)
(0.000124162 -0.000246105 3.15488e-22)
(9.9323e-05 0.000190294 2.72868e-22)
(6.21539e-05 -0.000133161 -3.06201e-22)
(5.47328e-05 -0.000101373 -2.82765e-22)
(5.14455e-05 9.43716e-05 0)
(6.19475e-05 0.000130683 1.71039e-24)
(-2.64577e-05 -3.01269e-06 -7.68351e-24)
(-9.88167e-07 -2.1689e-06 0)
(-1.0317e-06 2.42239e-06 4.3724e-23)
(3.99628e-06 -6.73223e-06 2.25763e-22)
(3.09875e-05 5.28522e-05 0)
(1.72622e-05 -2.87624e-05 3.91953e-22)
(1.76634e-05 3.49494e-05 2.35377e-24)
(6.79213e-05 -0.000194715 0)
(6.89629e-05 0.000194304 0)
(3.68291e-05 -6.01823e-05 -1.30029e-22)
(2.74055e-05 -5.05722e-05 -2.39857e-22)
(2.74201e-05 5.00976e-05 -2.38916e-22)
(-9.36307e-06 -6.15226e-06 -1.81648e-24)
(5.04122e-05 -0.000116063 0)
(2.41793e-05 4.48371e-05 -2.34688e-22)
(2.52972e-05 -4.2702e-05 -2.70898e-22)
(-2.80459e-05 9.68607e-06 2.63106e-24)
(4.55814e-05 8.43081e-05 -4.64827e-24)
(-1.32923e-06 5.66297e-06 9.24992e-23)
(2.02665e-05 -4.17917e-05 -2.14748e-22)
(2.05654e-05 3.89568e-05 0)
(1.96061e-05 3.25238e-05 0)
(3.01526e-05 4.97188e-05 0)
(-1.47013e-05 4.25151e-05 -2.57866e-26)
(-2.90055e-05 -5.74645e-06 0)
(9.95816e-05 0.000230509 2.37477e-24)
(4.84007e-05 -5.95656e-05 2.53195e-22)
(1.7398e-05 -4.67479e-05 0)
(3.63162e-06 7.50062e-06 0)
(7.81566e-05 -0.000225581 -4.97801e-23)
(4.97368e-06 -1.78346e-05 -2.94557e-22)
(0.000136929 0.000253815 -1.40397e-22)
(2.92322e-05 -5.36663e-05 -1.94706e-22)
(1.93622e-05 -3.07913e-05 -5.1028e-22)
(2.63114e-05 -5.65193e-05 8.69606e-23)
(2.57663e-05 4.72499e-05 -1.93141e-24)
(-1.49199e-06 -5.53419e-06 6.59589e-23)
(-3.07252e-06 -1.38208e-05 -8.06417e-23)
(0.000123641 0.000168902 -4.67141e-22)
(7.85821e-05 -0.000171031 1.25352e-22)
(3.69336e-05 -0.0001034 0)
(1.00532e-05 -2.38732e-05 -7.0195e-23)
(7.6614e-06 6.08452e-06 -5.19172e-24)
(4.17003e-06 -2.11933e-05 0)
(4.32765e-06 2.14663e-05 0)
(9.00465e-05 0.000220191 0)
(5.15439e-05 -0.000137609 0)
(-2.1566e-05 -5.28582e-07 2.42741e-24)
(-2.31737e-05 -1.1871e-05 -1.71976e-25)
(-1.79934e-05 1.85053e-05 -1.62184e-24)
(-1.32101e-05 4.25192e-05 -3.68501e-24)
(1.02154e-05 2.38419e-05 -4.75584e-27)
(5.42014e-05 9.87842e-05 0)
(-5.27359e-06 3.8673e-05 1.60081e-23)
(5.16294e-05 -9.50412e-05 2.37814e-24)
(-2.01547e-05 3.02195e-05 2.59844e-26)
(-1.61579e-05 -1.67717e-05 0)
(-2.72753e-05 -1.65776e-05 -1.93994e-24)
(-9.4987e-06 2.22735e-05 5.43356e-25)
(3.83761e-05 7.35777e-05 0)
(1.43268e-05 -3.08314e-05 8.02464e-25)
(1.44056e-05 3.03378e-05 -1.084e-22)
(6.41763e-07 1.34256e-05 3.45874e-23)
(-4.02925e-07 2.94008e-05 1.19064e-23)
(6.49444e-05 -0.000187896 2.48668e-23)
(0.000102483 0.000227087 0)
(-2.12499e-05 3.01822e-05 1.12483e-23)
(2.92898e-05 5.20269e-05 -2.10565e-22)
(-1.19517e-06 -1.24057e-05 5.92069e-24)
(-2.77155e-06 -2.05127e-05 -8.56769e-24)
(2.60048e-05 -4.80803e-05 0)
(7.78616e-05 -0.000228309 9.34243e-23)
(-6.98712e-07 -3.01347e-05 -1.51953e-22)
(-2.26416e-06 -2.72475e-05 3.0154e-24)
(-9.2999e-06 4.63751e-05 -1.63105e-23)
(6.60755e-05 0.000187875 0)
(-7.81494e-07 -1.77339e-05 5.11713e-23)
(3.93651e-07 -1.58959e-05 8.08891e-23)
(-1.56205e-06 -9.72821e-06 2.88812e-23)
(-8.97301e-07 1.89101e-05 -4.16135e-23)
(7.45778e-05 -0.000210946 -3.60567e-23)
(3.08175e-05 -8.0626e-06 0)
(1.04322e-05 8.61029e-06 -9.55099e-25)
(-2.44916e-06 6.01506e-06 -3.9659e-25)
(6.54767e-05 -0.000153403 0)
(4.8058e-05 -1.24584e-05 0)
(3.80289e-05 -3.45177e-06 -2.76884e-24)
(5.22475e-05 0.000137442 -9.02177e-27)
(1.45031e-05 2.60076e-05 -3.78294e-23)
(-1.74079e-05 -3.18714e-05 2.09478e-23)
(9.37031e-05 0.000210742 0)
(1.76762e-05 4.69579e-05 5.96792e-27)
(3.75085e-05 0.000103829 0)
(4.42453e-06 3.97587e-05 4.81439e-23)
(7.81294e-05 0.000166013 0)
(-7.18007e-06 -1.45755e-05 2.15428e-23)
(-2.43244e-05 2.46097e-05 -1.28154e-23)
(2.70282e-05 3.30923e-05 2.32676e-23)
(-2.49332e-05 9.28383e-06 2.08139e-23)
(1.06902e-06 -3.02083e-05 -1.98491e-23)
(0.000132653 0.00024973 0)
(8.34581e-05 0.000156825 0)
(0.000122346 -0.000237162 2.92562e-22)
(1.4199e-05 -2.58105e-05 5.39101e-23)
(-1.68921e-05 7.47388e-06 5.03775e-24)
(0.000145003 0.000249875 0)
(2.08742e-05 -6.89415e-06 -1.07459e-23)
(-3.17684e-06 -4.33026e-05 7.63029e-24)
(7.16302e-05 0.000142458 0)
(2.78751e-05 2.44371e-05 8.84966e-24)
(-2.27492e-05 -2.44521e-05 1.05867e-24)
(-1.10608e-05 -4.29886e-05 -1.60618e-23)
(1.63018e-05 -3.47939e-05 0)
(-1.5792e-05 3.5908e-05 0)
(-2.16039e-05 -3.03245e-05 0)
(-2.64616e-05 -1.78185e-05 7.66413e-24)
(6.76961e-05 -6.71468e-06 -6.33339e-23)
(1.61166e-05 -2.31725e-05 6.60797e-24)
(4.29225e-05 1.00383e-05 -1.24558e-23)
(0.00014682 -0.000198603 0)
(0.000179664 -0.000107766 -7.72707e-23)
(1.7527e-05 3.96087e-05 -8.0085e-23)
(1.71892e-05 -3.79719e-05 9.13043e-23)
(1.95183e-05 4.2195e-05 -1.04089e-22)
(2.00565e-05 -4.2667e-05 -1.54536e-22)
(2.13678e-05 -4.27384e-05 0)
(2.17695e-05 4.32035e-05 6.69245e-23)
(5.43523e-05 -1.20027e-05 0)
(2.37314e-05 -5.2533e-05 0)
(2.37205e-05 5.43728e-05 0)
(6.0819e-05 6.54211e-06 -6.33431e-24)
(2.70541e-05 5.67483e-05 -1.04297e-22)
(3.28753e-05 -6.14442e-05 -2.46752e-22)
(3.22998e-05 6.0443e-05 -6.02386e-23)
(0.000138083 5.28121e-06 4.80949e-24)
(2.74985e-05 8.6691e-06 0)
(9.97562e-05 -3.35601e-06 3.99002e-23)
(1.57099e-05 -3.98025e-05 0)
(7.77186e-05 -1.113e-06 3.01334e-23)
(0.000187004 -5.59545e-06 0)
(0.000114567 3.84009e-06 -4.63216e-24)
(0.000173079 -0.000173514 4.21297e-22)
(-2.0504e-05 -2.00626e-05 -6.29733e-25)
(5.73741e-05 6.02124e-05 0)
(0.000101467 -0.000212714 2.43307e-22)
(5.04044e-05 3.90411e-05 -1.09644e-22)
(0.000109118 0.000127168 5.29426e-23)
(0.000177219 -0.000141002 -1.1489e-22)
(0.00019084 0.000234203 -4.38674e-23)
(5.24637e-05 -3.56423e-05 1.65516e-22)
(-2.02351e-05 1.15435e-05 -2.31901e-23)
(3.65167e-05 8.07462e-05 0)
(3.64678e-05 -7.92929e-05 -1.23117e-22)
(0.000135626 5.00817e-05 -1.07927e-22)
(-2.4445e-06 2.57403e-07 1.78157e-23)
(3.95138e-05 -8.59367e-05 6.83249e-23)
(3.9978e-05 8.60322e-05 0)
(0.000164871 -2.97135e-05 -1.28965e-23)
(0.000145459 -1.86579e-05 -6.42729e-23)
(0.000176837 7.62505e-07 -1.15434e-23)
(5.44244e-05 -6.32617e-07 2.44249e-23)
(4.97355e-05 0.000107679 0)
(5.45746e-05 0.000108734 -4.36729e-23)
(3.26967e-05 -7.56047e-05 0)
(-1.40745e-06 -5.10575e-07 0)
(0.00018239 -6.3389e-05 0)
(0.000185501 -5.40297e-05 -8.88269e-23)
(7.86429e-05 -0.000199795 0)
(0.000192805 0.000212924 2.00029e-23)
(0.000139038 -2.43787e-05 4.95482e-23)
(0.000114474 -9.57154e-05 0)
(1.64734e-05 -4.14974e-05 5.20395e-23)
(0.000170611 -2.01628e-05 -9.47855e-24)
(1.61505e-06 2.55e-05 0)
(0.000177385 0.000209197 -5.73975e-23)
(3.89372e-06 1.85636e-05 0)
(0.000110468 8.84458e-06 -1.91412e-23)
(7.58357e-05 8.60958e-05 0)
(-1.96048e-06 9.28437e-07 6.78579e-24)
(0.000186796 3.62646e-05 8.07991e-24)
(0.00016951 -0.000152251 -1.06759e-22)
(0.000168853 6.79054e-05 -4.01874e-23)
(0.000160637 -6.68129e-05 1.21078e-23)
(0.000165562 -0.000126464 0)
(0.000178516 2.92632e-05 -8.12175e-24)
(0.000158279 0.00017563 7.01036e-23)
(5.31121e-05 -4.16128e-07 0)
(7.17194e-05 0.00018851 -6.66484e-23)
(0.000179797 0.000118436 4.06911e-23)
(0.000174349 -8.55404e-05 1.14843e-22)
(9.02813e-05 -0.000188 -1.33299e-22)
(8.96203e-05 0.00018961 -1.44382e-22)
(0.000118682 -0.000238764 2.21892e-22)
(-1.67223e-05 2.23698e-05 0)
(0.000107754 0.000224257 2.86883e-22)
(1.62272e-06 1.41633e-05 0)
(0.000116704 -0.000232001 -1.33304e-23)
(0.000110036 0.000223684 1.35234e-22)
(9.87648e-05 0.000221169 0)
(8.59902e-05 -0.0002221 5.04991e-23)
(3.45896e-05 -8.92698e-05 0)
(7.1366e-05 4.03818e-05 0)
(1.57566e-05 -4.57527e-05 -9.78782e-24)
(8.65619e-05 -0.000230524 -6.22987e-23)
(0.000165649 0.000243976 9.12184e-23)
(0.000102342 -1.26473e-05 -3.99606e-23)
(0.000101535 -0.000124693 -8.34027e-24)
(-1.70136e-06 -8.73436e-07 0)
(1.73684e-05 4.27127e-05 0)
(0.000100872 -0.000229237 1.45264e-22)
(8.55734e-05 -0.00017934 -2.62712e-22)
(0.000161551 0.000146902 -6.94419e-23)
(5.74785e-05 -0.000164231 -5.99802e-25)
(0.000181765 8.06251e-05 1.02344e-22)
(0.000178618 0.000120436 -3.05381e-23)
(-1.81595e-05 -3.21082e-05 0)
(-6.99408e-06 -1.06355e-05 -2.89102e-24)
(-2.70868e-06 -4.95369e-05 -3.13395e-23)
(0.000154425 0.00025239 2.27125e-22)
(0.0001467 2.90285e-05 5.63521e-23)
(-3.40235e-07 -4.3883e-05 6.28787e-23)
(0.000137922 0.00019773 1.06452e-22)
(0.000111417 0.000174367 -2.00311e-22)
(-1.89077e-06 1.24551e-05 0)
(0.000117771 0.000234087 0)
(-3.2277e-07 3.64596e-07 0)
(0.000100804 0.000216169 -1.49465e-22)
(-1.94159e-07 -2.93398e-07 7.28329e-25)
(0.000120331 0.000242077 -2.76109e-22)
(-4.26158e-06 4.31511e-05 0)
(3.80853e-05 5.38434e-05 1.54922e-22)
(0.000166512 -0.000103432 5.24819e-23)
(5.92699e-05 9.80335e-06 0)
(0.00018347 0.000203994 0)
(7.4815e-05 -0.000114341 -3.0816e-22)
(6.04225e-05 7.32673e-05 -3.37594e-22)
(0.000145897 9.38825e-05 -2.03751e-23)
(3.0587e-05 -8.44372e-05 9.33973e-23)
(9.91328e-05 9.29296e-06 6.82845e-23)
(0.000130992 -0.000218135 1.33108e-22)
(3.30087e-05 8.76671e-05 8.0106e-23)
(6.1704e-05 -7.22726e-05 0)
(0.00016803 7.34813e-05 -7.6077e-23)
(9.26266e-05 -0.000213369 7.86189e-24)
(7.9336e-06 -4.76811e-05 1.05961e-23)
(-9.91004e-07 8.44672e-06 2.44066e-23)
(2.77951e-05 3.91886e-05 -1.40522e-22)
(-3.94665e-06 6.63297e-06 5.73933e-24)
(3.9167e-05 -2.35142e-05 -1.50049e-22)
(0.000101409 -0.000215647 -1.70952e-23)
(9.58684e-05 -0.000228525 -1.61762e-22)
(2.31246e-05 -3.2207e-05 -1.53109e-22)
(3.98656e-05 -5.58277e-05 5.14317e-24)
(0.000125142 -0.000157479 -1.99969e-23)
(1.36792e-05 4.33564e-05 0)
(0.000123678 -2.86782e-05 1.24654e-22)
(0.000200098 0.000227772 0)
(2.17843e-05 -3.19216e-05 -6.39584e-23)
(-7.56494e-06 1.21112e-05 3.4474e-23)
(6.88518e-05 -0.000186682 7.61816e-23)
(2.37704e-05 -3.37531e-05 5.25974e-23)
(-4.46649e-08 -1.16002e-07 -3.67602e-23)
(-4.53218e-06 2.47915e-06 -1.24967e-23)
(0.000133837 0.00022653 -2.14571e-22)
(-4.25152e-08 9.83946e-08 0)
(0.000180714 0.000244953 -2.73051e-23)
(8.8073e-05 -0.000221188 -7.83018e-24)
(-4.85685e-06 -4.77773e-06 -1.18996e-23)
(-1.65522e-05 1.62078e-05 0)
(3.47387e-05 7.99955e-05 2.19643e-22)
(-7.48694e-06 4.21655e-05 3.63153e-24)
(0.000108237 0.000230801 2.12394e-22)
(1.0968e-07 7.62508e-09 2.38953e-23)
(1.08442e-07 7.84075e-09 1.13614e-24)
(0.000116574 -0.000235469 -1.34211e-22)
(0.000167256 3.57156e-05 4.95024e-23)
(5.88e-05 -0.000152637 -1.63799e-22)
(-1.83924e-05 -3.7126e-05 0)
(0.000193327 0.000205882 -3.3429e-23)
(-5.29245e-06 5.62401e-06 -1.26262e-23)
(6.92744e-05 0.000149946 -1.02815e-22)
(-1.52108e-05 -1.90883e-05 -3.10247e-24)
(6.29284e-05 0.000157726 -8.27138e-23)
(-3.342e-06 3.20411e-06 9.89265e-24)
(-5.18447e-06 -4.84706e-05 -5.98747e-24)
(0.000134791 -0.000169819 0)
(-4.31585e-06 -4.02754e-05 -3.41609e-24)
(7.39255e-05 0.000169629 5.67605e-23)
(8.89614e-05 0.000188484 -3.24006e-22)
(-2.68302e-06 2.76362e-05 0)
(0.000113005 -0.000225673 1.27057e-22)
(7.50571e-05 -0.000168119 1.69637e-22)
(2.58822e-05 8.27579e-06 1.67729e-22)
(-2.73668e-06 -2.48815e-06 -7.86709e-24)
(3.92016e-05 2.37853e-05 -2.28939e-23)
(0.000132404 -5.75521e-05 -6.96479e-23)
(7.52681e-05 -3.15495e-06 7.70422e-23)
(6.16139e-05 -0.000142684 -1.34653e-23)
(9.6147e-05 -0.000205125 1.25294e-22)
(-1.32248e-05 -4.29987e-05 0)
(4.362e-06 -4.62167e-05 -1.17236e-23)
(-5.41876e-06 -1.30212e-05 -2.219e-24)
(0.000128249 -0.000195207 -8.11328e-23)
(4.30002e-05 3.13065e-05 -1.64991e-22)
(7.21233e-05 -0.000112988 -4.53189e-23)
(0.000121117 -0.000240608 -1.39551e-22)
(-2.28632e-06 1.3056e-05 -9.7525e-23)
(6.32084e-07 -4.9228e-05 -2.63429e-23)
(0.000140224 -0.000131287 1.26807e-22)
(5.88572e-05 9.11879e-05 0)
(1.11974e-05 2.2782e-05 -1.10268e-22)
(8.33802e-05 0.000178435 1.19661e-22)
(0.000125754 0.000159234 1.47374e-22)
(-4.17354e-07 3.06811e-07 -2.40883e-23)
(-4.21854e-07 -2.54337e-07 -8.04111e-24)
(0.00011647 -0.000101568 0)
(5.98271e-05 -9.38066e-05 2.28112e-22)
(7.43972e-05 -0.000163318 1.3937e-22)
(7.9756e-05 -9.22279e-05 0)
(5.68389e-06 4.7473e-05 -2.21046e-23)
(1.5781e-05 3.31697e-05 1.6497e-23)
(0.000160768 0.000204532 -9.66023e-23)
(0.000151189 -0.000200783 5.02862e-23)
(7.21709e-05 -0.000173375 5.50469e-24)
(0.000172505 -0.000152347 9.74908e-23)
(0.000114843 0.000224995 -3.13577e-22)
(9.28114e-05 -0.000214636 0)
(0.000123536 0.000196893 0)
(0.000169959 -0.000128649 0)
(0.000126175 4.36281e-05 -4.26422e-23)
(0.000145372 -0.000251154 0)
(3.74114e-05 -2.29902e-05 5.7213e-23)
(-1.05042e-05 -4.68116e-05 -1.39657e-23)
(-1.17293e-05 1.30144e-05 4.84492e-24)
(-9.96244e-06 8.60988e-06 1.62147e-23)
(6.97216e-05 0.000114191 9.13717e-23)
(6.43388e-05 -0.000139818 1.73148e-23)
(-1.07081e-06 1.28688e-06 3.73572e-24)
(-9.58857e-07 -9.95572e-07 1.75269e-23)
(4.15982e-05 7.26129e-06 -5.28981e-23)
(-3.84032e-06 -2.03631e-06 -2.0425e-24)
(0.000122344 7.23642e-05 1.97842e-23)
(-1.89334e-07 3.02165e-07 -4.08504e-24)
(-1.03973e-07 -1.69554e-07 -3.35308e-24)
(0.000104532 0.000219703 0)
(0.000171477 0.000210495 0)
(0.000150111 -0.000111265 -1.47801e-22)
(9.4704e-05 6.98827e-05 0)
(0.000195452 0.000222974 3.60481e-23)
(3.27918e-05 2.39447e-05 0)
(0.000177132 0.000227476 1.18607e-23)
(0.000152595 0.000185104 7.95409e-23)
)
;

boundaryField
{
    front
    {
        type            empty;
    }
    back
    {
        type            empty;
    }
    bottom
    {
        type            zeroGradient;
    }
    left
    {
        type            noSlip;
    }
    top
    {
        type            uniformFixedValue;
        uniformValue    
        {
            type            scale;
            scale           
            {
                type            squarePulse;
                start           0.3;
                duration        0.3;
            }
            xScale          
            {
                type            constant;
                value           1;
            }
            value           
            {
                type            constant;
                value           (0 -0.7 0);
            }
        }
        value           uniform (0 -0 0);
    }
    right
    {
        type            noSlip;
    }
    inner_arc
    {
        type            noSlip;
    }
}


// ************************************************************************* //
