/*--------------------------------*- C++ -*----------------------------------*\
  =========                 |
  \\      /  F ield         | OpenFOAM: The Open Source CFD Toolbox
   \\    /   O peration     | Website:  https://openfoam.org
    \\  /    A nd           | Version:  9
     \\/     M anipulation  |
\*---------------------------------------------------------------------------*/
FoamFile
{
    format      ascii;
    class       volVectorField;
    location    "0.03";
    object      U;
}
// * * * * * * * * * * * * * * * * * * * * * * * * * * * * * * * * * * * * * //

dimensions      [0 1 -1 0 0 0 0];

internalField   nonuniform List<vector> 
578
(
(-0.0662 -0.0801 0)
(-0.034 -0.128 2.73e-16)
(-0.0972 -0.117 -9.82e-17)
(0.00845 -0.151 -2.21e-17)
(0.0242 -0.0541 -4.47e-17)
(0.0123 -0.191 -8.07e-17)
(-0.0234 -0.052 4.51e-17)
(0.0289 -0.0533 -6.14e-20)
(0.133 -0.19 -1.75e-16)
(-0.0216 -0.0829 4.24e-16)
(0.0147 -0.203 -1.16e-16)
(0.0822 -0.162 0)
(0.0128 -0.171 9.09e-17)
(0.0853 -0.174 -6.73e-16)
(-0.076 -0.156 3.54e-16)
(0.14 -0.156 -8.07e-17)
(-0.0852 -0.0846 4e-16)
(-0.141 -0.121 0)
(0.0756 -0.148 0)
(0.142 -0.184 1.2e-16)
(0.00848 -0.167 0)
(0.11 -0.143 0)
(0.0681 -0.0622 -4.64e-16)
(0.000416 -0.155 0)
(-0.00183 -0.125 0)
(0.0718 -0.147 3.48e-16)
(-0.00754 -0.146 -4.48e-17)
(-0.000691 -0.0758 2.68e-17)
(-0.0292 -0.153 -4.35e-16)
(0.147 -0.163 3.28e-16)
(-0.00265 -0.126 -4.35e-16)
(0.0111 -0.163 8.88e-17)
(0.163 -0.175 -3.07e-16)
(-0.00269 -0.166 1.72e-16)
(-0.0663 -0.141 -3.5e-16)
(0.125 -0.135 -5.11e-16)
(0.0734 -0.154 6.61e-16)
(0.069 -0.136 0)
(-0.128 -0.138 -3.41e-16)
(0.0386 -0.0829 0)
(0.0391 -0.0907 -3.61e-16)
(0.0479 -0.087 4.27e-16)
(0.0411 -0.0812 0)
(-0.0689 -0.138 0)
(0.125 -0.118 4.37e-17)
(-0.0369 -0.0785 0)
(-0.037 -0.0856 3.66e-16)
(0.122 -0.177 -4.32e-17)
(-0.126 -0.138 5.08e-16)
(-0.012 -0.17 -9.48e-17)
(0.00255 -0.0809 1.43e-17)
(0.0204 -0.177 -3.83e-16)
(0.103 -0.0772 -1.91e-16)
(-0.00327 -0.167 0)
(0.00177 -0.162 3.19e-16)
(-0.00587 -0.191 7.46e-16)
(0.0272 -0.0219 8.2e-16)
(0.0883 -0.0704 -3.74e-16)
(-0.109 -0.115 -6.63e-16)
(0.078 -0.0873 2e-16)
(-0.131 -0.129 3.5e-16)
(-0.0801 -0.0582 0)
(-0.122 -0.0915 5.21e-17)
(0.0778 -0.154 3.15e-16)
(-0.00645 -0.173 8.61e-17)
(-0.0863 -0.158 1.93e-16)
(0.159 -0.183 -3.72e-17)
(0.0236 -0.199 2.73e-16)
(0.164 -0.156 -1.57e-16)
(0.0831 -0.18 3.67e-16)
(0.00071 -0.133 0)
(0.00391 -0.136 -1.26e-17)
(0.000256 -0.169 -9.4e-17)
(0.0843 -0.183 0)
(0.00604 -0.215 1.69e-16)
(0.0251 -0.0513 0)
(0.113 -0.158 2.25e-16)
(0.0912 -0.127 -1.92e-16)
(0.00816 -0.174 0)
(-0.0651 -0.0711 -1.09e-16)
(0.0726 -0.16 -3.18e-16)
(-0.0328 -0.05 -3.86e-16)
(0.0223 -0.0587 -1.72e-16)
(0.037 -0.0547 1.75e-16)
(-0.136 -0.163 -4.66e-17)
(-0.0281 -0.0792 0)
(0.00158 -0.0488 0)
(-0.00441 -0.207 -2.71e-16)
(0.0583 -0.133 2.85e-20)
(-0.0576 -0.133 3.21e-18)
(-0.0062 -0.157 0)
(-0.12 -0.15 9.48e-17)
(-0.054 -0.122 0)
(0.0228 -0.191 1.66e-16)
(0.148 -0.16 5.01e-16)
(0.105 -0.149 -4.4e-16)
(0.00025 -0.163 9.28e-17)
(0.00638 -0.164 -6.65e-16)
(-0.00681 -0.0524 -7.63e-16)
(-0.0746 -0.156 0)
(-0.0822 -0.142 0)
(0.0773 -0.173 -5.91e-16)
(-0.0226 -0.186 0)
(-0.0989 -0.105 0)
(-0.00542 -0.163 0)
(0.083 -0.174 -5.01e-16)
(0.00673 -0.198 -1.77e-16)
(0.0412 -0.0878 0)
(-0.0175 -0.0451 0)
(0.0485 -0.0939 -4.5e-16)
(0.127 -0.147 -1.36e-16)
(0.0802 -0.171 0)
(0.15 -0.177 3.6e-16)
(0.12 -0.154 -3.02e-16)
(0.126 -0.158 3.23e-16)
(-0.0207 -0.177 3.74e-16)
(0.013 -0.169 1.93e-16)
(-0.0858 -0.146 -2.94e-16)
(-0.051 -0.116 5.16e-17)
(-0.00647 -0.164 3.27e-16)
(0.0601 -0.12 -3.37e-16)
(0.0583 -0.0918 1.62e-20)
(0.081 -0.166 -3.56e-16)
(0.00471 -0.139 -5.02e-17)
(0.048 -0.0902 0)
(-0.0615 -0.153 3.88e-16)
(0.0491 -0.161 -3.49e-16)
(0.162 -0.164 -1.73e-16)
(-0.0751 -0.162 1.96e-16)
(-0.0515 -0.153 0)
(-0.0749 -0.154 0)
(-0.0608 -0.155 0)
(0.0212 -0.189 0)
(0.0178 -0.0351 3.96e-16)
(-0.0735 -0.158 -3.63e-16)
(-0.0783 -0.13 0)
(0.073 -0.138 0)
(-0.0115 -0.17 -3.21e-16)
(0.0971 -0.155 3.5e-16)
(-0.0658 -0.13 0)
(-0.035 -0.0663 4.81e-16)
(-0.0531 -0.153 0)
(-0.0573 -0.111 0)
(-0.00014 -0.129 0)
(0.034 -0.0663 0)
(-0.136 -0.152 3.58e-20)
(-0.0476 -0.109 4.21e-16)
(-0.0134 -0.114 0)
(0.0852 -0.18 3.7e-16)
(-0.0513 -0.143 0)
(0.108 -0.192 0)
(-0.0392 -0.0548 0)
(0.0369 -0.0364 0)
(0.0304 -0.0607 4.68e-16)
(-0.082 -0.166 -3.59e-16)
(-0.0122 -0.151 -2e-16)
(-0.0317 -0.17 3.86e-16)
(0.0226 -0.167 -8.88e-17)
(-0.0299 -0.0288 -9.69e-17)
(0.114 -0.193 -2.92e-16)
(0.0987 -0.177 4.17e-16)
(0.0934 -0.157 4.34e-16)
(-0.0198 -0.0373 -6.09e-18)
(0.0976 -0.17 0)
(-0.000189 -0.0425 9.15e-20)
(-0.0556 -0.136 1.94e-20)
(-0.000248 -0.0755 -4.74e-16)
(-0.0738 -0.144 0)
(0.0154 -0.117 -1.01e-16)
(-0.012 -0.202 -1.53e-16)
(0.0935 -0.149 0)
(0.044 -0.0801 0)
(-0.0475 -0.0801 0)
(-0.0272 -0.055 -4.78e-16)
(-0.0649 -0.123 0)
(-0.00797 -0.182 -8.81e-17)
(-0.000286 -0.187 -8.89e-17)
(-0.0816 -0.14 3.42e-16)
(0.0569 -0.0952 5.14e-17)
(-0.00341 -0.13 2.1e-16)
(-0.0405 -0.0731 0)
(-0.0649 -0.121 0)
(-0.042 -0.125 0)
(0.00818 -0.183 6.63e-16)
(-0.093 -0.145 2.47e-16)
(-0.00948 -0.0847 -3.45e-16)
(0.0507 -0.0634 -1.74e-16)
(-0.0774 -0.163 8.96e-17)
(-0.0871 -0.17 3.74e-16)
(-0.00203 -0.0772 -4.78e-16)
(0.098 -0.19 -3.54e-16)
(0.0831 -0.15 0)
(0.0779 -0.103 4.29e-16)
(-0.069 -0.13 0)
(-0.0454 -0.0803 0)
(-0.00253 -0.211 1.67e-16)
(0.00647 -0.0943 8.87e-16)
(-0.00629 -0.0929 -7.06e-16)
(-0.0732 -0.134 0)
(0.077 -0.145 0)
(0.0113 -0.0882 -3.38e-16)
(0.0154 -0.191 -8.37e-16)
(0.0306 -0.097 -2.15e-16)
(-0.00811 -0.206 0)
(-0.00147 -0.195 -2.68e-16)
(0.0839 -0.163 0)
(-0.0846 -0.151 0)
(-0.0926 -0.107 0)
(0.101 -0.194 3.62e-16)
(-0.0415 -0.048 0)
(-0.0388 -0.0876 4.29e-16)
(-0.0895 -0.173 -3.66e-16)
(-0.0699 -0.149 -1.21e-17)
(0.00511 -0.201 8.66e-17)
(-0.0616 -0.125 -2.11e-16)
(0.00426 -0.152 0)
(-0.0793 -0.151 -3.94e-16)
(0.0894 -0.17 3.79e-16)
(-0.084 -0.171 3.78e-16)
(-0.022 -0.0469 -4.94e-16)
(0.0942 -0.192 1.83e-16)
(-0.0701 -0.137 0)
(0.0528 -0.108 -4.06e-16)
(0.0496 -0.0923 0)
(-0.043 -0.0806 0)
(-0.0463 -0.0958 8.46e-16)
(0.000992 -0.219 -8.36e-17)
(0.00586 -0.0588 1.14e-19)
(-0.00448 -0.0578 1.86e-16)
(-0.000484 -0.0424 3.82e-16)
(-0.0172 -0.047 -3.87e-16)
(0.0101 -0.0535 -1.92e-16)
(-0.0161 -0.0322 -3.98e-16)
(0.0527 -0.149 0)
(-0.0453 -0.138 0)
(0.0349 -0.0546 1.33e-16)
(0.0276 -0.052 0)
(-0.0254 -0.0476 0)
(0.0263 -0.186 1.37e-16)
(0.0452 -0.099 0)
(-0.0224 -0.0406 0)
(0.0246 -0.0427 0)
(-0.00266 -0.216 -3.41e-16)
(-0.0367 -0.0692 0)
(-0.0031 -0.0508 7.35e-16)
(0.0196 -0.0391 0)
(-0.0192 -0.0358 -3.84e-16)
(-0.00706 -0.0845 8.83e-16)
(-0.0269 -0.0422 0)
(-0.00469 -0.2 -8.57e-17)
(0.00346 -0.208 8.52e-17)
(-0.0673 -0.156 0)
(0.0152 -0.145 0)
(0.0169 -0.0464 -3.82e-18)
(0.00167 -0.0429 0)
(0.0627 -0.17 3.67e-16)
(-0.000644 -0.0768 4.72e-16)
(-0.0997 -0.172 -5.82e-16)
(0.0297 -0.0517 0)
(0.00985 -0.0917 4.66e-16)
(0.0252 -0.0523 4.84e-16)
(-0.0237 -0.0424 3.87e-16)
(0.00188 -0.0506 -7.51e-16)
(0.00273 -0.0872 4.98e-16)
(-0.0577 -0.137 3.04e-16)
(0.0637 -0.135 7.23e-16)
(0.0339 -0.0918 0)
(0.0121 -0.0262 -3.96e-16)
(-0.00138 -0.044 -3.9e-16)
(0.00597 -0.0221 0)
(-0.00507 -0.0191 0)
(-0.0615 -0.149 -3.76e-16)
(0.0451 -0.114 0)
(0.000447 -0.223 -2.46e-16)
(0.0121 -0.199 -1.82e-16)
(-0.00201 -0.222 -4.95e-16)
(-0.00577 -0.182 1.96e-16)
(-0.0105 -0.0237 0)
(-0.0448 -0.0817 0)
(-0.00187 -0.212 -4.33e-16)
(0.0469 -0.0892 0)
(-0.00437 -0.215 7.5e-16)
(0.00221 -0.222 0)
(0.00694 -0.211 -8.43e-17)
(-0.00135 -0.223 1.67e-16)
(-0.0308 -0.0605 -4.64e-16)
(0.0154 -0.03 -7.81e-16)
(-0.0138 -0.0274 3.98e-16)
(-0.000985 -0.0347 0)
(2.22e-05 -0.0769 -4.61e-16)
(0.0543 -0.148 0)
(-0.0686 -0.154 1.2e-17)
(-0.00904 -0.203 1.53e-16)
(-0.0266 -0.0455 0)
(0.00103 -0.0413 0)
(0.00245 -0.0805 5.76e-17)
(0.0256 -0.0464 -3.82e-16)
(0.0617 -0.171 -8.65e-16)
(0.000157 -0.0793 1.07e-16)
(0.000691 -0.081 -4.19e-16)
(-0.00301 -0.197 4.47e-16)
(-0.0452 -0.131 0)
(7.66e-05 -0.0478 3.76e-16)
(-8.15e-05 -0.0406 0)
(0.00159 -0.0483 0)
(9.88e-05 -0.0509 7.08e-16)
(0.0615 -0.161 3.65e-16)
(-0.00236 -0.154 -9.05e-16)
(0.000351 -0.229 -3.24e-16)
(5e-05 -0.227 0)
(0.0553 -0.123 2.05e-16)
(0.000708 -0.225 2.44e-16)
(0.00132 -0.23 -5.14e-16)
(-0.0373 -0.1 0)
(-0.000411 -0.222 3.36e-16)
(0.00447 -0.215 3.5e-16)
(-0.0643 -0.144 0)
(-0.014 -0.0407 0)
(-0.0281 -0.0797 0)
(-0.00141 -0.211 -4.19e-16)
(-0.0556 -0.118 -4.23e-16)
(0.00165 -0.226 6.71e-16)
(-0.00583 -0.213 8.62e-17)
(0.00186 -0.206 -2.71e-16)
(-0.00911 -0.199 3.48e-16)
(0.00268 -0.219 -1.59e-16)
(-0.0948 -0.171 3.5e-16)
(-0.0606 -0.116 0)
(0.0923 -0.186 0)
(0.00226 -0.222 6.24e-16)
(-0.0163 -0.188 8.99e-17)
(-0.108 -0.169 -1.39e-16)
(0.00116 -0.229 1.65e-16)
(0.00339 -0.205 -3.45e-16)
(-0.0527 -0.105 6.3e-16)
(0.000984 -0.222 1.7e-16)
(0.0119 -0.204 -1.57e-16)
(0.00388 -0.203 -3.57e-16)
(-7.45e-05 -0.155 0)
(-0.00611 -0.185 0)
(0.00595 -0.211 -1.73e-16)
(0.0051 -0.216 2.55e-16)
(0.000893 -0.226 2.44e-16)
(-0.000871 -0.135 3.68e-16)
(0.00133 -0.228 2.46e-16)
(0.1 -0.14 -1.02e-16)
(0.0556 -0.16 2.02e-16)
(-0.0159 -0.0371 -3.93e-16)
(0.0163 -0.0378 9.92e-17)
(-0.0172 -0.0397 3.87e-16)
(0.0185 -0.0421 0)
(0.0188 -0.0399 3.92e-16)
(-0.0179 -0.0381 1.98e-16)
(-0.00094 -0.202 -1.72e-16)
(0.0204 -0.0455 0)
(-0.0197 -0.045 0)
(0.00243 -0.227 -2.46e-16)
(-0.023 -0.0471 -3.78e-16)
(0.0326 -0.057 0)
(-0.0291 -0.0529 0)
(0.00176 -0.22 -2.68e-16)
(-0.0255 -0.0234 0)
(0.00323 -0.227 8.33e-17)
(0.017 -0.041 4.35e-16)
(0.00199 -0.228 -8.57e-17)
(0.00692 -0.189 -3.66e-16)
(0.00119 -0.223 8.67e-17)
(0.0781 -0.165 3.68e-16)
(0.0153 -0.199 1.52e-16)
(-0.0722 -0.0625 0)
(0.0742 -0.167 0)
(-0.0723 -0.0455 -4.65e-17)
(-0.108 -0.108 3.69e-16)
(0.0609 -0.172 -1.83e-16)
(-0.147 -0.159 -1.91e-16)
(0.0773 -0.0469 3.47e-16)
(-0.0156 -0.195 -8.89e-17)
(-0.03 -0.0691 -4.91e-16)
(0.0319 -0.0727 3.48e-16)
(-0.0445 -0.103 -4.28e-16)
(-0.00152 -0.162 -3.28e-16)
(0.0326 -0.0753 -2.42e-16)
(-0.0309 -0.0703 0)
(0.0116 -0.21 -4.21e-16)
(0.00727 -0.218 2.49e-16)
(0.00372 -0.203 5.22e-16)
(-0.00184 -0.0436 -4.97e-16)
(-0.038 -0.0825 4.52e-16)
(-0.0436 -0.0854 0)
(0.0297 -0.0711 -2.99e-16)
(0.00508 -0.162 1.63e-16)
(0.0334 -0.165 0)
(0.0235 -0.183 3.68e-16)
(0.0651 -0.154 -1.77e-16)
(-0.151 -0.145 3.22e-16)
(0.0245 -0.113 1.97e-16)
(0.142 -0.102 3.24e-18)
(0.00171 -0.196 4.73e-16)
(0.0159 -0.146 4.08e-16)
(-0.00155 -0.0708 4.91e-16)
(-0.145 -0.15 -6.37e-16)
(0.00272 -0.076 -4.47e-16)
(-0.00786 -0.0777 2.33e-16)
(-0.0172 -0.154 2.89e-16)
(-0.0178 -0.168 0)
(-0.00841 -0.176 0)
(0.154 -0.131 0)
(-0.0369 -0.135 6.14e-16)
(0.0211 -0.203 -4.36e-16)
(0.0456 -0.183 -3.59e-16)
(-0.00883 -0.155 -7.55e-16)
(-0.0628 -0.152 9.62e-17)
(-0.00354 -0.186 2.21e-20)
(-0.053 -0.138 -7.99e-16)
(-0.0553 -0.148 -9.58e-17)
(0.0317 -0.192 8.75e-17)
(0.0657 -0.149 -4.08e-16)
(-0.0599 -0.135 -2.1e-16)
(0.0856 -0.185 0)
(-0.0162 -0.193 8.83e-17)
(-0.0694 -0.156 4.94e-17)
(0.000574 -0.0413 -8.84e-20)
(0.0875 -0.182 0)
(-0.0744 -0.153 5.26e-16)
(-0.0668 -0.152 0)
(0.0693 -0.169 -1.89e-16)
(0.0306 -0.0818 5.7e-16)
(-0.00949 -0.175 -4.24e-16)
(0.0176 -0.0465 -3.58e-16)
(0.0697 -0.173 0)
(-0.124 -0.162 0)
(0.00581 -0.222 -1.67e-16)
(0.109 -0.119 -9.52e-17)
(0.0155 -0.166 0)
(-0.0176 -0.0407 -1.91e-16)
(0.0783 -0.174 -1.82e-16)
(0.065 -0.145 0)
(-0.0461 -0.165 -3.72e-16)
(0.0473 -0.134 0)
(-0.022 -0.18 3.74e-16)
(-0.0403 -0.166 -2.93e-16)
(0.00917 -0.193 0)
(0.0201 -0.174 1.99e-16)
(0.00195 -0.16 0)
(-0.116 -0.17 0)
(-0.00372 -0.211 3.59e-16)
(-0.000324 -0.13 -3.22e-16)
(-0.102 -0.132 -3.76e-16)
(-0.085 -0.121 5.35e-16)
(0.00186 -0.0398 0)
(-0.0782 -0.161 1e-16)
(-0.0154 -0.164 0)
(-0.0688 -0.152 1.26e-20)
(0.0135 -0.163 1.58e-16)
(-0.0804 -0.167 -3.59e-16)
(-0.00332 -0.137 0)
(-0.0101 -0.128 -6.73e-18)
(0.0725 -0.138 1.87e-16)
(0.00293 -0.217 5.35e-16)
(-0.102 -0.141 0)
(0.0362 -0.141 4.06e-16)
(-0.047 -0.0525 2.28e-16)
(-0.0216 -0.187 -1.4e-16)
(0.031 -0.0807 -2.69e-16)
(-0.000974 -0.219 8.73e-17)
(0.111 -0.167 -5.75e-20)
(-0.0306 -0.0777 0)
(0.05 -0.0543 -2.28e-16)
(-0.0159 -0.191 1.86e-16)
(0.0737 -0.162 -5.61e-16)
(0.00256 -0.183 -4.12e-16)
(-0.00281 -0.0417 0)
(-0.0243 -0.0314 0)
(-0.0198 -0.16 2e-16)
(0.00088 -0.2 -3.72e-16)
(0.076 -0.168 1.76e-16)
(0.0751 -0.173 3.78e-16)
(0.0214 -0.0268 1.92e-16)
(0.0466 -0.0604 9.16e-17)
(0.101 -0.116 1.64e-16)
(0.00138 -0.19 0)
(0.0101 -0.218 1.74e-16)
(-0.138 -0.145 -2.82e-16)
(0.000372 -0.215 -8.54e-16)
(-0.0181 -0.172 1.58e-16)
(0.0579 -0.149 2e-16)
(0.00149 -0.185 2.94e-16)
(-0.00296 -0.0868 0)
(-0.0251 -0.176 0)
(-0.105 -0.16 -1.87e-16)
(0.0032 -0.0876 -1.71e-16)
(-0.134 -0.161 4.45e-17)
(0.071 -0.168 2.24e-17)
(0.0315 -0.186 4.77e-17)
(-0.0193 -0.196 -1.83e-16)
(-0.0294 -0.0691 4.77e-16)
(-0.00357 -0.151 2.05e-16)
(-0.0714 -0.158 1.91e-16)
(-0.0106 -0.161 1.57e-16)
(0.0101 -0.162 0)
(0.0846 -0.181 -1.9e-16)
(-0.00523 -0.204 -3.62e-16)
(0.0517 -0.127 0)
(0.00731 -0.198 5.38e-16)
(-0.124 -0.137 1.09e-16)
(-0.0292 -0.185 0)
(-0.05 -0.114 2.25e-16)
(0.0187 -0.19 0)
(-0.0488 -0.119 4.18e-16)
(-0.0351 -0.182 0)
(0.00351 -0.159 3.72e-16)
(0.0791 -0.141 0)
(0.00345 -0.131 -4.24e-16)
(-0.0518 -0.121 -2.35e-16)
(-0.0611 -0.136 -5.29e-17)
(0.00072 -0.081 -4.38e-16)
(0.0823 -0.175 1.93e-16)
(0.0567 -0.133 0)
(0.00334 -0.15 0)
(0.0366 -0.181 3.79e-16)
(0.0028 -0.203 -2.66e-16)
(0.0572 -0.108 -3.38e-16)
(4.72e-05 -0.217 8.77e-17)
(0.0516 -0.12 0)
(0.0725 -0.162 2.09e-16)
(0.00458 -0.182 -5.18e-16)
(0.000644 -0.149 2.72e-16)
(0.0123 -0.148 -2.14e-16)
(0.12 -0.16 9.2e-17)
(-0.00789 -0.147 2.17e-16)
(0.0711 -0.104 0)
(0.0906 -0.188 0)
(-0.00519 -0.0811 -4.29e-16)
(0.00206 -0.188 0)
(0.045 -0.18 4.32e-16)
(-0.0477 -0.0705 -2.41e-16)
(0.00263 -0.125 0)
(-0.0575 -0.13 -2.71e-16)
(-0.091 -0.106 -2.63e-17)
(-0.0212 -0.141 4.45e-16)
(0.0229 -0.143 1.76e-19)
(0.0316 -0.184 -2.41e-17)
(0.0546 -0.0786 0)
(0.0587 -0.135 2.26e-16)
(0.0267 -0.161 0)
(-0.00166 -0.192 -1.93e-16)
(0.00161 -0.152 0)
(-0.0898 -0.132 0)
(0.14 -0.165 -9.14e-17)
(0.0602 -0.142 2.09e-16)
(0.138 -0.132 2.58e-17)
(-0.0772 -0.156 -1.11e-16)
(0.0727 -0.167 -1.82e-16)
(-0.102 -0.145 9.81e-17)
(0.0956 -0.136 -1.06e-16)
(-0.00774 -0.205 -9.04e-17)
(0.122 -0.19 -2.34e-16)
(0.000322 -0.216 1.03e-16)
(0.004 -0.186 1.03e-16)
(-0.0231 -0.189 5.44e-17)
(-0.0264 -0.19 0)
(-0.0605 -0.0953 0)
(0.0513 -0.117 -4.86e-16)
(-0.0376 -0.177 0)
(0.0384 -0.177 -2.03e-16)
(0.00358 -0.179 0)
(0.0239 -0.173 2.03e-16)
(-0.0145 -0.191 1.37e-16)
(-0.0382 -0.176 -2.2e-16)
(0.037 -0.176 -2.19e-16)
(-0.0695 -0.153 2.06e-16)
(-0.104 -0.132 0)
(0.118 -0.11 -1.52e-16)
(-0.0157 -0.177 -4.34e-16)
(-0.127 -0.141 1.07e-16)
(0.00301 -0.182 0)
(-0.126 -0.147 2.23e-16)
(-0.108 -0.12 0)
)
;

boundaryField
{
    front
    {
        type            empty;
    }
    back
    {
        type            empty;
    }
    bottom
    {
        type            zeroGradient;
    }
    left
    {
        type            noSlip;
    }
    top
    {
        type            uniformFixedValue;
        uniformValue    
        {
            type            table;
            format          csv;
            file            "inlet_v.csv";
            nHeaderLine     1;
            refColumn       0;
            componentColumns List<label> 3(1 2 3);
            separator       ",";
            mergeSeparators 0;
        }
        value           uniform (0 -0.161 0);
    }
    right
    {
        type            noSlip;
    }
    inner_arc
    {
        type            noSlip;
    }
}


// ************************************************************************* //
