/*--------------------------------*- C++ -*----------------------------------*\
  =========                 |
  \\      /  F ield         | OpenFOAM: The Open Source CFD Toolbox
   \\    /   O peration     | Website:  https://openfoam.org
    \\  /    A nd           | Version:  9
     \\/     M anipulation  |
\*---------------------------------------------------------------------------*/
FoamFile
{
    format      ascii;
    class       volScalarField;
    location    "0.87";
    object      p;
}
// * * * * * * * * * * * * * * * * * * * * * * * * * * * * * * * * * * * * * //

dimensions      [0 2 -2 0 0 0 0];

internalField   nonuniform List<scalar> 
578
(
-2.53916e-18
-6.61268e-18
-1.87227e-18
3.06947e-19
-6.15226e-18
4.13634e-18
6.02025e-18
-5.21039e-18
-4.35682e-18
-1.00082e-17
2.19922e-18
-5.14572e-18
8.77128e-20
-5.81041e-18
5.63665e-18
-1.57057e-19
-3.08078e-18
-2.8018e-18
-4.01482e-18
-2.88921e-18
3.33103e-19
1.9395e-19
1.37106e-18
1.65179e-18
1.59416e-18
-3.82511e-18
-3.31348e-19
-8.11688e-19
-4.72933e-18
7.32327e-20
-4.88855e-19
4.66492e-18
-1.90849e-18
4.40287e-19
5.06468e-18
-2.13015e-18
-5.19483e-18
-4.97467e-18
-7.48213e-20
-7.18719e-18
-5.59887e-18
-4.5478e-18
-5.77398e-18
5.90432e-18
-1.45637e-18
7.32784e-18
5.61677e-18
-4.70486e-18
-1.50013e-19
-4.31957e-19
6.37035e-18
7.15954e-20
6.12964e-18
3.85844e-19
-1.01388e-20
-2.66019e-18
1.26375e-18
9.66029e-19
-1.5078e-18
-3.28917e-18
-2.99309e-18
-4.24923e-18
-4.15888e-18
-6.4414e-18
-4.4544e-20
5.45897e-18
-1.05675e-18
2.95825e-18
2.00299e-18
-3.70512e-18
6.39975e-19
4.47913e-18
-2.43858e-20
-4.31644e-18
2.10398e-18
-6.86419e-18
-5.55231e-18
-4.55285e-18
-9.55484e-21
4.11616e-18
5.09798e-18
-4.99075e-18
7.54488e-18
7.06958e-18
1.26083e-18
3.87536e-18
7.37926e-18
-1.78119e-18
-4.12212e-18
3.74637e-18
-3.30201e-19
2.70541e-18
4.80315e-18
1.72094e-19
2.50983e-18
4.46542e-18
-2.58292e-20
-1.87433e-20
-9.43414e-18
5.6167e-18
5.26469e-18
-4.23137e-18
-2.24035e-19
3.36622e-18
-9.97883e-20
-5.88298e-18
2.3629e-18
-6.95825e-18
4.6492e-18
-6.10957e-18
-1.91532e-18
-4.01437e-18
-3.25437e-18
3.51361e-18
3.88278e-18
-1.35953e-19
2.47071e-19
-3.21406e-18
3.68442e-18
-5.55125e-20
-3.38598e-18
9.77847e-18
-4.68587e-18
2.25758e-19
5.77537e-18
2.46502e-18
4.23493e-18
-3.68018e-20
4.59834e-18
6.44033e-19
4.64413e-18
2.16887e-18
1.82039e-19
-3.73946e-18
4.14091e-18
4.46617e-18
-6.08384e-18
-1.25588e-19
2.34106e-18
4.67898e-18
5.03421e-18
1.36127e-18
4.49245e-18
-1.55747e-18
-4.28381e-18
1.69016e-18
1.69056e-18
-5.13124e-19
-4.69525e-18
-8.28308e-21
-5.0052e-18
2.18259e-18
-6.14617e-18
-3.45945e-18
5.48971e-18
-4.11276e-19
-3.61637e-18
2.4039e-19
5.93766e-18
-5.08028e-18
-5.3294e-18
-5.19376e-18
5.34271e-18
-4.87534e-18
-2.58527e-18
1.46325e-18
-1.73098e-18
5.5424e-18
3.99061e-19
-1.10927e-19
-4.44192e-18
-6.25539e-18
4.59249e-18
3.32873e-18
5.37888e-18
-1.04431e-19
-1.10906e-20
-2.99045e-18
-4.88839e-18
-4.13647e-18
5.89517e-18
-5.17751e-18
3.11277e-18
-7.56217e-21
4.65739e-18
-3.89215e-19
-2.49518e-19
6.07801e-18
5.44409e-18
-5.92291e-18
-5.45078e-18
-5.27623e-18
2.03345e-18
5.45888e-18
-7.79387e-18
-3.91103e-20
6.32388e-19
-6.90374e-19
5.26511e-18
-5.47756e-18
3.05275e-19
5.68989e-20
1.03436e-17
-1.9451e-19
-7.74321e-20
-5.60501e-18
5.11148e-18
-1.81616e-19
-5.25366e-18
8.79589e-19
9.21311e-19
5.10229e-18
3.91965e-18
2.47001e-20
4.04281e-18
1.43655e-19
5.42385e-18
-5.41312e-18
5.43731e-18
2.05659e-18
-5.37484e-18
5.32022e-18
-2.46319e-18
-5.47151e-18
5.94386e-18
2.43341e-18
-1.73077e-20
4.85969e-19
-5.60872e-19
-4.63656e-18
-8.90433e-18
9.8634e-18
3.76659e-18
-2.31311e-18
2.29067e-18
-4.02733e-18
-5.62567e-18
5.72263e-18
1.27544e-19
-9.02287e-19
5.69735e-18
-6.31937e-18
-1.24313e-19
5.7117e-18
-6.82746e-19
-4.29082e-18
4.66025e-18
-8.8179e-18
3.96299e-18
3.96568e-20
-2.27772e-20
3.30824e-18
5.34111e-18
6.84371e-19
4.804e-18
-1.37621e-18
-3.61411e-18
5.16802e-18
-4.56298e-18
8.81547e-18
-2.09966e-18
5.92235e-18
6.37648e-19
7.25083e-19
-5.18007e-18
-2.96403e-18
1.58534e-18
-1.04925e-18
-7.22743e-18
1.89572e-18
-1.91278e-18
1.92123e-18
8.63971e-19
-6.8531e-20
8.53421e-20
4.19272e-20
-2.40482e-19
1.03254e-18
5.56321e-18
2.35035e-19
-5.81806e-18
-8.98385e-20
-6.70267e-20
2.25237e-20
4.32259e-20
4.38552e-18
-2.58144e-18
2.54218e-18
8.08981e-19
5.3576e-19
7.71221e-19
3.14289e-18
-2.65102e-19
5.06056e-18
5.18223e-19
6.55151e-19
-5.80713e-18
-6.49889e-19
-4.16874e-19
4.70772e-19
9.92262e-20
-7.97325e-19
-6.05856e-20
-1.01907e-18
6.56857e-19
7.17698e-20
1.80739e-20
-3.33264e-18
1.36536e-19
5.90786e-20
-1.62161e-18
-4.28078e-19
5.2606e-21
-8.91163e-19
3.82707e-19
-3.6988e-20
2.85901e-18
-7.20389e-19
-1.60784e-18
3.84742e-19
3.00346e-18
-9.20252e-20
-3.81773e-20
1.06201e-18
-8.0146e-20
-3.00807e-19
5.07044e-18
5.25388e-18
-5.43883e-18
-3.78998e-19
-1.13392e-19
4.42879e-18
-1.50917e-19
-2.44716e-19
3.66449e-18
6.77683e-19
1.15845e-19
-1.73003e-19
-1.96151e-18
-2.74348e-19
-1.63004e-20
-1.49862e-21
-4.46784e-19
-2.70048e-18
3.03791e-19
4.88662e-18
2.72843e-18
4.30709e-18
-4.30306e-18
4.98945e-18
-4.76486e-18
-5.25941e-18
5.34113e-18
-1.79878e-18
-6.68943e-18
6.87171e-18
7.32091e-19
6.53483e-18
-7.00199e-18
6.89992e-18
-1.07326e-19
-2.25469e-18
4.89166e-19
-3.43561e-18
1.30522e-21
2.66143e-19
-4.74845e-19
4.28971e-18
9.74938e-20
-4.1298e-19
-5.03725e-18
-4.58301e-18
1.98862e-18
2.88345e-18
2.02488e-18
7.28854e-18
-2.36566e-19
4.88279e-18
-5.05147e-18
-1.13959e-18
-5.91673e-20
-5.10725e-18
5.35772e-18
1.06161e-18
6.04204e-19
-1.03542e-19
8.70628e-20
6.55237e-18
6.12936e-18
-3.95976e-18
3.72693e-20
1.11787e-18
1.30039e-18
-1.41429e-18
-5.14264e-19
5.84162e-19
4.71279e-18
-9.65295e-19
8.75262e-19
1.68769e-18
-1.35465e-20
3.7566e-18
7.07631e-20
-3.36978e-18
-1.1739e-19
-6.83211e-19
3.18911e-18
-1.36753e-18
1.74995e-18
3.28584e-18
-4.09147e-19
-4.38089e-18
-2.39701e-18
2.73873e-18
-1.57242e-18
2.07838e-18
-4.38316e-18
4.39665e-18
-5.8621e-18
-3.77641e-19
4.81701e-18
2.72249e-18
-4.7493e-18
5.79435e-18
3.69912e-18
-2.2927e-18
-3.74089e-18
-3.54629e-18
-4.62807e-18
-2.16997e-18
3.50823e-18
1.01893e-18
1.32087e-18
4.05726e-20
3.28864e-18
-2.96672e-18
-5.1159e-18
-2.94217e-18
-3.10856e-18
-1.34683e-18
-2.43754e-18
1.7527e-19
2.8629e-19
-4.44178e-19
4.33353e-18
-1.11516e-18
-5.95276e-19
3.79272e-18
3.74909e-18
-3.41277e-19
4.94382e-18
-1.84062e-19
3.90751e-18
1.18962e-19
4.95436e-18
-6.17621e-20
-6.35382e-18
1.56675e-18
1.15223e-18
-3.5152e-18
7.7766e-18
4.4396e-18
-2.9532e-18
-3.0898e-18
-1.08434e-18
-3.78561e-18
3.29825e-18
-5.92386e-18
-1.8783e-18
-2.88298e-18
-8.8395e-19
-8.89115e-19
3.36258e-18
-3.65132e-19
-1.21794e-18
-4.48739e-18
-3.34622e-18
-3.64508e-18
-1.83429e-18
-3.16624e-18
1.11688e-18
1.78119e-18
-1.4744e-18
-7.82094e-19
-3.55416e-19
-2.73961e-18
-1.7326e-18
-2.84199e-19
-2.04452e-19
4.75743e-18
2.19409e-19
3.48653e-18
-1.79131e-18
2.13733e-19
-2.02421e-19
3.87383e-18
-1.51479e-19
4.40757e-18
-2.55739e-19
1.94376e-19
-5.65586e-18
-8.55132e-19
-2.98374e-18
1.29563e-19
-2.94496e-18
-2.84075e-19
4.38506e-18
3.55943e-19
2.97233e-18
-2.11495e-19
-4.40259e-19
5.45158e-18
1.69298e-19
7.14738e-18
4.92641e-18
-3.65056e-19
-5.06444e-18
-6.90058e-18
3.40914e-18
1.61763e-19
1.68952e-18
2.3718e-18
-1.3892e-18
-4.0231e-18
-4.37636e-18
4.84444e-20
-1.0266e-18
3.95193e-19
-4.68882e-18
-4.58015e-18
-4.91585e-18
-4.93283e-18
-7.58881e-19
-5.09402e-19
4.56908e-18
3.68087e-18
3.05391e-18
4.1365e-18
3.63787e-18
-3.475e-19
2.67649e-19
4.33873e-18
-2.58898e-18
-3.78752e-18
5.38803e-18
5.95904e-19
2.05096e-18
-3.01818e-18
-2.33992e-18
-3.55674e-18
2.91964e-18
5.31377e-18
-3.45335e-18
4.93344e-18
3.16487e-18
-1.91386e-18
-5.13642e-18
-7.17759e-19
-4.03015e-21
-3.23123e-19
-2.35491e-19
5.3303e-18
-4.58133e-18
-2.84099e-19
2.19074e-19
3.00113e-18
1.10713e-19
-2.89479e-18
-2.15213e-19
1.56805e-19
4.57202e-18
-3.14078e-18
3.29585e-18
-4.43548e-18
-1.74982e-18
1.96947e-18
2.56868e-18
1.84897e-18
)
;

boundaryField
{
    front
    {
        type            empty;
    }
    back
    {
        type            empty;
    }
    bottom
    {
        type            uniformFixedValue;
        uniformValue    
        {
            type            scale;
            scale           
            {
                type            squarePulse;
                start           0.3;
                duration        0.3;
            }
            xScale          
            {
                type            constant;
                value           1;
            }
            value           
            {
                type            constant;
                value           15.1;
            }
        }
        value           uniform 0;
    }
    left
    {
        type            zeroGradient;
    }
    top
    {
        type            zeroGradient;
    }
    right
    {
        type            zeroGradient;
    }
    inner_arc
    {
        type            zeroGradient;
    }
}


// ************************************************************************* //
