/*--------------------------------*- C++ -*----------------------------------*\
  =========                 |
  \\      /  F ield         | OpenFOAM: The Open Source CFD Toolbox
   \\    /   O peration     | Website:  https://openfoam.org
    \\  /    A nd           | Version:  9
     \\/     M anipulation  |
\*---------------------------------------------------------------------------*/
FoamFile
{
    format      ascii;
    class       volVectorField;
    location    "0.87";
    object      U;
}
// * * * * * * * * * * * * * * * * * * * * * * * * * * * * * * * * * * * * * //

dimensions      [0 1 -1 0 0 0 0];

internalField   nonuniform List<vector> 
578
(
(1.17628e-16 1.44834e-16 0)
(9.28366e-17 1.15741e-16 -3.69188e-34)
(1.81436e-16 2.17723e-16 0)
(-5.88574e-18 -1.32963e-17 1.78509e-35)
(3.37491e-17 -7.22504e-17 0)
(7.64211e-17 -1.06374e-17 -1.68745e-34)
(3.48455e-17 7.42255e-17 -3.42153e-35)
(3.4964e-17 -6.37555e-17 -2.90039e-34)
(1.78893e-16 -2.92083e-16 0)
(4.72002e-17 7.00952e-17 4.58475e-34)
(1.20846e-16 -3.09515e-17 1.17967e-34)
(1.22438e-16 -2.35201e-16 -1.81507e-35)
(-3.83278e-18 -1.12213e-18 0)
(1.27071e-16 -2.60097e-16 3.60087e-34)
(1.28032e-16 2.60103e-16 0)
(2.28116e-16 -2.60485e-16 1.86797e-35)
(1.69229e-16 8.07227e-17 8.82043e-35)
(1.9607e-16 1.7833e-16 -2.79859e-34)
(1.09649e-16 -2.10898e-16 8.66871e-35)
(1.95108e-16 -2.8728e-16 1.80609e-34)
(-9.50957e-18 -1.89552e-17 -1.83798e-35)
(1.906e-16 -2.38049e-16 6.16868e-35)
(1.04645e-16 -4.7261e-17 -1.28693e-34)
(-4.08164e-19 4.90382e-17 -1.18891e-35)
(-1.95547e-18 4.34996e-17 0)
(1.07015e-16 -2.16769e-16 1.88739e-35)
(-5.23404e-18 1.35991e-17 0)
(-2.47278e-18 1.21695e-17 -2.08952e-36)
(1.10558e-16 9.31942e-17 2.29322e-34)
(2.2712e-16 -2.64989e-16 0)
(-5.11898e-18 2.02113e-17 2.509e-35)
(5.21106e-17 -1.00984e-17 -2.4819e-35)
(2.28731e-16 -2.72835e-16 1.31535e-35)
(-9.60528e-18 4.54415e-17 -5.90049e-36)
(1.11471e-16 2.30584e-16 -3.10479e-34)
(1.95209e-16 -2.22497e-16 -5.70565e-35)
(1.10613e-16 -2.28721e-16 -3.16565e-34)
(1.02185e-16 -1.9667e-16 0)
(2.1776e-16 2.51993e-16 6.41044e-36)
(5.57762e-17 -1.16837e-16 0)
(5.84581e-17 -1.28686e-16 3.04611e-34)
(6.29065e-17 -1.09808e-16 1.59501e-34)
(5.61389e-17 -1.08744e-16 3.65902e-34)
(1.09689e-16 2.25233e-16 -1.08177e-35)
(1.34854e-16 -1.46908e-16 0)
(5.69736e-17 1.1985e-16 1.31763e-35)
(5.90976e-17 1.3141e-16 3.43198e-34)
(1.57e-16 -2.60003e-16 1.36508e-34)
(2.21093e-16 2.56387e-16 -6.54093e-36)
(-7.05752e-18 1.20176e-17 0)
(7.11095e-18 1.67291e-17 9.9202e-36)
(-3.47063e-18 -1.66661e-18 2.02769e-37)
(1.17577e-16 -6.56947e-17 2.27269e-34)
(-1.1451e-17 4.12104e-17 5.83559e-36)
(-9.93828e-19 -1.09786e-19 0)
(7.05276e-17 -3.21095e-18 -6.92812e-35)
(4.62082e-17 -1.43934e-17 -1.55796e-35)
(7.647e-17 -7.20258e-17 0)
(2.13617e-16 1.49619e-16 1.46792e-34)
(1.25266e-16 -1.40565e-16 -6.77554e-35)
(2.19948e-16 1.91041e-16 8.21627e-35)
(9.37747e-17 4.70414e-17 1.49933e-34)
(1.19379e-16 1.06264e-16 2.05363e-34)
(1.10266e-16 -2.28019e-16 -1.68289e-34)
(-5.84869e-18 8.09154e-19 -1.95043e-36)
(1.36412e-16 2.62859e-16 1.70746e-34)
(2.14709e-16 -2.75334e-16 -1.13649e-34)
(1.5014e-16 -5.75112e-17 0)
(2.29742e-16 -2.34123e-16 1.80423e-35)
(1.29268e-16 -2.71879e-16 -1.20157e-34)
(-5.62405e-18 4.24639e-17 0)
(2.20755e-17 1.62562e-17 -2.84886e-34)
(-4.84473e-18 -1.20159e-19 3.09562e-36)
(1.34031e-16 -2.73103e-16 -3.17839e-34)
(6.16862e-17 1.39569e-17 0)
(3.28132e-17 -6.9177e-17 -1.68396e-34)
(1.59309e-16 -2.44834e-16 -4.39466e-34)
(1.27421e-16 -1.95314e-16 2.45913e-34)
(-6.12076e-18 -1.2747e-18 -1.00978e-36)
(1.09095e-16 1.20966e-16 7.51637e-35)
(1.77151e-16 -1.74199e-16 -3.57994e-34)
(6.05651e-17 8.12561e-17 -5.53703e-34)
(4.28794e-17 -6.13399e-17 -5.84534e-34)
(5.9015e-17 -8.09972e-17 0)
(2.02244e-16 2.71002e-16 6.86182e-35)
(4.12209e-17 1.01337e-16 -3.41316e-34)
(7.11112e-18 4.18812e-18 0)
(9.92157e-17 5.15777e-18 -2.04591e-35)
(9.0157e-17 -1.91336e-16 2.59143e-34)
(9.27773e-17 2.11501e-16 1.57837e-36)
(-7.95208e-18 1.86007e-17 -2.46453e-35)
(1.67919e-16 2.38161e-16 6.53818e-37)
(9.00751e-17 1.94387e-16 2.62742e-34)
(-7.19593e-18 -4.54754e-18 4.0354e-36)
(2.37781e-16 -2.51614e-16 -2.17601e-35)
(1.96362e-16 -2.24901e-16 0)
(-2.1874e-18 -3.21273e-22 -2.56022e-36)
(-1.65498e-18 -3.63863e-19 0)
(1.97868e-17 2.35183e-17 1.13388e-34)
(1.2943e-16 2.63301e-16 -3.10709e-34)
(1.21931e-16 2.28652e-16 -1.92721e-35)
(1.19113e-16 -2.59513e-16 -1.34124e-34)
(-5.76303e-18 3.24694e-18 0)
(1.70532e-16 1.88719e-16 0)
(-4.87977e-19 2.04884e-19 -2.66304e-36)
(1.28727e-16 -2.63733e-16 -3.14028e-34)
(5.51717e-17 1.46293e-17 0)
(5.88263e-17 -1.25116e-16 -2.02269e-34)
(1.91734e-17 5.24497e-17 2.11827e-34)
(6.44609e-17 -1.29926e-16 3.96181e-34)
(1.90025e-16 -2.38667e-16 -7.50797e-35)
(1.2317e-16 -2.60041e-16 -9.60891e-35)
(2.1188e-16 -2.82918e-16 -1.3604e-35)
(2.29851e-16 -2.06083e-16 2.73827e-35)
(2.27157e-16 -2.36201e-16 -2.72235e-35)
(-3.69677e-18 1.72116e-18 -8.13549e-36)
(-6.66333e-18 -1.11809e-17 0)
(2.24156e-16 1.98371e-16 5.81101e-35)
(7.95367e-17 1.76701e-16 0)
(-1.62059e-18 3.50826e-19 -3.79717e-36)
(8.5634e-17 -1.72652e-16 2.43511e-34)
(9.81486e-17 -1.34782e-16 0)
(1.23854e-16 -2.44171e-16 3.2532e-35)
(-6.65265e-18 -2.14109e-17 1.42577e-35)
(8.95896e-17 -1.17408e-16 0)
(1.04455e-16 2.58284e-16 7.68643e-35)
(1.4424e-16 -1.43072e-16 3.64817e-34)
(2.11148e-16 -2.35056e-16 -1.43934e-35)
(1.34211e-16 2.73405e-16 -2.88225e-34)
(9.40559e-17 2.64217e-16 0)
(1.3067e-16 2.60734e-16 3.42596e-34)
(1.04526e-16 2.66564e-16 0)
(-7.04583e-18 -6.61101e-18 8.1765e-36)
(2.12328e-17 -4.28624e-17 -1.91849e-34)
(1.30192e-16 2.69612e-16 -3.08115e-34)
(1.2007e-16 2.12291e-16 0)
(1.04405e-16 -1.92723e-16 3.84308e-34)
(-3.64701e-18 9.44147e-19 8.18278e-36)
(2.30951e-16 -1.84689e-16 -7.60948e-37)
(1.097e-16 2.11576e-16 -2.86073e-34)
(4.93445e-17 9.15772e-17 0)
(9.41707e-17 2.60242e-16 0)
(9.16258e-17 1.75123e-16 0)
(-1.32295e-18 -4.53215e-17 0)
(4.62313e-17 -9.0866e-17 2.41072e-34)
(2.22638e-16 2.74733e-16 0)
(7.7848e-17 1.77225e-16 1.73342e-34)
(-6.35482e-19 1.06965e-18 -3.37054e-35)
(1.34446e-16 -2.71405e-16 0)
(9.01178e-17 2.44803e-16 0)
(1.53522e-16 -2.88939e-16 0)
(4.44028e-17 6.46883e-17 -2.4008e-35)
(5.14541e-17 -5.52385e-17 3.47271e-34)
(3.91959e-17 -7.93064e-17 1.74479e-34)
(1.40912e-16 2.7726e-16 -9.56325e-36)
(-3.64712e-18 7.11213e-18 -2.33627e-35)
(1.68033e-16 1.10397e-16 -2.58304e-34)
(-1.92557e-18 -2.67466e-18 1.27082e-35)
(4.26263e-17 4.58584e-17 1.24426e-34)
(1.59189e-16 -2.93238e-16 0)
(1.3617e-16 -2.63223e-16 0)
(1.2229e-16 -2.28242e-16 0)
(2.5679e-17 4.76997e-17 0)
(1.35977e-16 -2.47593e-16 4.48776e-36)
(2.78743e-19 -1.79701e-17 0)
(9.46007e-17 2.31284e-16 -9.60394e-35)
(-1.35934e-18 -3.05222e-17 0)
(1.2077e-16 2.31717e-16 -2.66161e-36)
(-6.07989e-19 -9.67516e-19 0)
(-1.59961e-17 1.42379e-17 0)
(1.26656e-16 -2.16976e-16 2.80681e-34)
(5.7036e-17 -1.0387e-16 0)
(6.62378e-17 1.15573e-16 0)
(3.85077e-17 7.67117e-17 -3.36874e-36)
(1.01719e-16 1.91658e-16 0)
(-8.99389e-18 1.65129e-18 0)
(-1.15973e-17 1.69496e-19 5.7926e-37)
(2.30881e-16 1.62997e-16 -1.76541e-35)
(7.31236e-17 -1.26365e-16 -2.64757e-34)
(2.09752e-17 -1.7014e-17 0)
(5.63875e-17 1.03744e-16 2.79264e-36)
(1.42769e-16 1.89332e-16 3.81845e-34)
(6.84969e-17 1.87843e-16 0)
(-9.45198e-18 -1.91424e-18 8.49569e-37)
(1.45135e-16 2.46226e-16 0)
(-2.23203e-19 4.37226e-20 1.6839e-35)
(7.70792e-17 -9.52833e-17 1.16373e-35)
(1.3461e-16 2.7581e-16 3.02477e-34)
(1.4632e-16 2.84198e-16 0)
(7.14481e-18 -1.68432e-17 0)
(1.45613e-16 -2.83579e-16 0)
(1.14663e-16 -2.11201e-16 3.29145e-34)
(1.24522e-16 -1.66033e-16 -6.64039e-35)
(1.08034e-16 2.02571e-16 2.61082e-36)
(8.38734e-17 1.22235e-16 3.62922e-34)
(-2.20414e-17 4.01741e-18 1.27903e-35)
(-1.26294e-18 -3.39122e-18 -3.52543e-35)
(-1.28496e-18 3.50319e-18 -4.26686e-35)
(1.13384e-16 2.09551e-16 0)
(1.08809e-16 -2.02869e-16 0)
(-2.28482e-19 -7.08552e-20 0)
(-1.02048e-17 -4.32617e-18 -1.37409e-36)
(5.39681e-17 -7.41066e-17 5.27531e-34)
(-1.8603e-17 8.0359e-18 -1.21673e-35)
(-1.52109e-17 7.89837e-19 -2.38752e-36)
(1.24369e-16 -2.33726e-16 -6.90425e-34)
(1.34497e-16 2.48164e-16 0)
(1.11504e-16 1.45421e-16 7.62566e-36)
(1.47839e-16 -2.90809e-16 0)
(6.87296e-17 8.00482e-17 -1.04609e-34)
(5.99126e-17 1.34894e-16 -7.94668e-35)
(1.48645e-16 2.91177e-16 0)
(1.21766e-16 2.53262e-16 0)
(-1.72313e-17 -3.04783e-18 -1.65987e-36)
(1.02556e-16 2.04687e-16 0)
(-9.27735e-18 -2.79971e-17 -1.13564e-35)
(1.27495e-16 2.41916e-16 0)
(1.27917e-16 -2.42048e-16 -1.27686e-36)
(1.44417e-16 2.86677e-16 3.44859e-34)
(3.11423e-17 6.5737e-17 0)
(1.43701e-16 -2.8545e-16 3.60944e-34)
(1.15023e-16 2.20488e-16 3.16133e-34)
(7.32208e-17 -1.54838e-16 -3.4505e-34)
(6.33566e-17 -1.17469e-16 -3.24324e-34)
(5.95693e-17 1.09391e-16 0)
(7.26469e-17 1.52029e-16 1.96613e-36)
(-2.63917e-17 -1.59652e-18 -5.61504e-37)
(-5.02966e-19 -8.24079e-19 0)
(-5.12431e-19 9.09785e-19 2.56271e-35)
(2.62809e-18 -1.46791e-17 1.96309e-34)
(3.59728e-17 5.40779e-17 0)
(1.89021e-17 -2.15533e-17 4.48197e-34)
(2.06191e-17 4.05962e-17 2.69009e-36)
(8.09107e-17 -2.22997e-16 0)
(8.12378e-17 2.23197e-16 0)
(4.2681e-17 -6.99329e-17 -1.48627e-34)
(3.1688e-17 -5.85662e-17 -2.7529e-34)
(3.17599e-17 5.80908e-17 -2.77002e-34)
(-4.53056e-18 -2.83821e-18 -7.78335e-36)
(6.00715e-17 -1.36025e-16 0)
(2.79749e-17 5.19099e-17 -2.7171e-34)
(2.91686e-17 -4.93005e-17 -3.10368e-34)
(-2.47607e-17 6.59123e-18 1.22351e-36)
(5.27466e-17 9.761e-17 -5.37969e-36)
(-8.2099e-19 2.70823e-18 6.54334e-35)
(2.34758e-17 -4.82246e-17 -2.44038e-34)
(2.38647e-17 4.51147e-17 0)
(2.06094e-17 1.51975e-17 0)
(3.50026e-17 5.78084e-17 0)
(-1.89228e-17 3.11765e-17 -7.1487e-37)
(-2.09987e-17 -3.1551e-18 0)
(1.16262e-16 2.66703e-16 2.77266e-36)
(5.20002e-17 -3.5299e-17 2.74675e-34)
(2.08959e-17 -5.57942e-17 0)
(2.24683e-18 1.47791e-17 0)
(9.32583e-17 -2.59991e-16 -5.93523e-35)
(1.86107e-18 -2.88414e-17 -2.5603e-34)
(1.58398e-16 2.94337e-16 -1.63067e-34)
(3.38415e-17 -6.22359e-17 -2.23322e-34)
(2.00126e-17 -1.42915e-17 -5.8352e-34)
(3.12995e-17 -6.64521e-17 9.45443e-35)
(2.98211e-17 5.47426e-17 -2.23702e-36)
(-9.30336e-19 -2.7338e-18 6.24863e-35)
(-2.1642e-18 -7.57166e-18 -8.53348e-35)
(1.49268e-16 1.71558e-16 -5.6447e-34)
(9.2259e-17 -1.98261e-16 1.41833e-34)
(4.42446e-17 -1.22577e-16 0)
(1.20897e-17 -2.8283e-17 -7.63277e-35)
(7.38629e-18 -3.92613e-18 -5.45191e-36)
(5.20342e-18 -2.55663e-17 0)
(5.26317e-18 2.55871e-17 0)
(1.05898e-16 2.55186e-16 0)
(6.18272e-17 -1.61758e-16 0)
(-2.74e-17 1.03934e-19 3.93422e-37)
(-1.43048e-17 -6.32232e-18 -4.00329e-36)
(-2.58863e-17 1.43909e-17 8.83446e-37)
(-1.4404e-17 2.9325e-17 -6.42478e-36)
(1.21203e-17 2.8084e-17 -3.69343e-39)
(6.28033e-17 1.14602e-16 0)
(-1.9435e-17 3.30984e-17 1.00983e-35)
(5.96845e-17 -1.10017e-16 2.72928e-36)
(-2.35332e-17 2.1759e-17 7.20322e-37)
(-2.58722e-17 -1.23983e-17 0)
(-2.15048e-17 -9.9281e-18 2.01782e-36)
(-2.3668e-17 1.87358e-17 1.78285e-36)
(4.46398e-17 8.53363e-17 0)
(1.69776e-17 -3.60622e-17 8.87558e-37)
(1.69663e-17 3.54575e-17 -1.2335e-34)
(-3.81865e-19 1.29786e-17 1.62176e-35)
(-2.64581e-18 2.6052e-17 -5.94132e-37)
(7.79483e-17 -2.19762e-16 3.16132e-35)
(1.19651e-16 2.63005e-16 0)
(-1.75551e-17 1.88707e-17 7.60796e-36)
(3.39562e-17 6.03975e-17 -2.44112e-34)
(-1.42815e-18 -8.48392e-18 1.41875e-35)
(-2.58032e-18 -1.30322e-17 -2.05574e-35)
(3.00197e-17 -5.56069e-17 0)
(9.31794e-17 -2.64087e-16 1.0979e-34)
(-3.04115e-18 -2.73641e-17 -5.37931e-35)
(-3.20834e-18 -2.04982e-17 -4.05853e-36)
(-1.7782e-17 3.69128e-17 -1.02894e-35)
(7.83491e-17 2.19268e-16 0)
(-1.78627e-18 -1.45085e-17 1.13428e-35)
(-1.02177e-18 -1.5993e-17 3.55039e-35)
(-1.29443e-18 -5.68246e-18 3.24437e-35)
(-1.99697e-18 1.51862e-17 -1.49414e-35)
(8.93115e-17 -2.45231e-16 -4.33221e-35)
(2.17588e-17 -3.17781e-17 0)
(-1.45831e-17 9.09068e-18 -1.45711e-36)
(-2.17198e-17 5.90989e-18 -1.60086e-36)
(7.77876e-17 -1.78743e-16 0)
(1.95304e-17 -1.75588e-17 0)
(7.83405e-18 -3.23641e-18 -4.65698e-36)
(6.19434e-17 1.61016e-16 -3.49995e-39)
(-9.99821e-18 2.71488e-17 -3.1455e-35)
(-2.38449e-17 -2.33325e-17 6.56266e-36)
(1.09732e-16 2.44262e-16 0)
(2.09575e-17 5.5599e-17 4.63486e-39)
(4.43736e-17 1.22319e-16 0)
(-1.41926e-17 3.75553e-17 3.73759e-35)
(9.14046e-17 1.92664e-16 0)
(-2.36245e-17 -1.17148e-17 1.15565e-35)
(-2.28614e-17 1.65048e-17 -8.66787e-36)
(4.52178e-18 4.15475e-17 2.12105e-35)
(-1.54774e-17 5.18183e-18 9.89418e-36)
(-1.80508e-17 -2.70238e-17 -1.06484e-35)
(1.53543e-16 2.8963e-16 0)
(9.66658e-17 1.81664e-16 0)
(1.41518e-16 -2.74967e-16 3.34813e-34)
(-1.06405e-17 -2.56484e-17 4.21315e-35)
(-8.87594e-18 3.72234e-18 2.66022e-36)
(1.67734e-16 2.89948e-16 0)
(-7.13333e-18 -6.35378e-18 -7.85425e-36)
(-1.76937e-17 -3.74287e-17 2.92836e-36)
(8.34477e-17 1.65225e-16 0)
(1.27831e-18 2.93335e-17 8.009e-36)
(-1.69532e-17 -1.44414e-17 1.14949e-36)
(-1.97422e-17 -3.36247e-17 -7.21656e-36)
(3.98914e-18 -4.79687e-17 0)
(-1.37111e-17 2.27443e-17 0)
(-2.26908e-17 -2.0568e-17 0)
(-2.44854e-17 -1.13515e-17 5.60111e-37)
(4.16541e-17 -1.30815e-17 -6.1146e-35)
(8.0918e-18 -4.07892e-17 5.64631e-36)
(1.35145e-17 1.45231e-17 -1.09226e-35)
(1.73748e-16 -2.23111e-16 0)
(2.36627e-16 -1.09281e-16 -8.88391e-35)
(2.03676e-17 4.59691e-17 -9.42244e-35)
(2.00307e-17 -4.42073e-17 1.05762e-34)
(2.26471e-17 4.89776e-17 -1.21244e-34)
(2.33134e-17 -4.96592e-17 -1.77247e-34)
(2.47991e-17 -4.96725e-17 0)
(2.52335e-17 5.01337e-17 7.77754e-35)
(3.55202e-17 -3.02931e-17 0)
(2.75116e-17 -6.09322e-17 0)
(2.74687e-17 6.30189e-17 0)
(3.38237e-17 1.39848e-17 -5.83029e-36)
(3.12606e-17 6.57014e-17 -1.21106e-34)
(3.78672e-17 -7.098e-17 -2.82155e-34)
(3.72002e-17 6.98116e-17 -7.03917e-35)
(1.44851e-16 2.06055e-18 4.52017e-36)
(4.18675e-17 9.71493e-18 0)
(8.39951e-17 4.3305e-19 4.50668e-35)
(1.83609e-17 -4.61335e-17 0)
(5.3269e-17 9.23588e-19 2.88008e-35)
(2.39046e-16 -4.81724e-18 0)
(1.069e-16 -7.63777e-19 -4.35298e-36)
(2.17474e-16 -1.7905e-16 4.91313e-34)
(-1.3525e-17 -1.12108e-17 2.02902e-36)
(6.66508e-17 6.891e-17 0)
(1.17745e-16 -2.46975e-16 2.78447e-34)
(6.32576e-17 4.45e-17 -1.05547e-34)
(1.25614e-16 1.46304e-16 8.17646e-35)
(2.26766e-16 -1.39999e-16 -1.34014e-34)
(2.20801e-16 2.71128e-16 -5.22738e-35)
(6.56435e-17 -4.08084e-17 1.77302e-34)
(-1.16918e-17 6.07839e-18 -1.21216e-35)
(4.23847e-17 9.37151e-17 0)
(4.24202e-17 -9.22692e-17 -1.41768e-34)
(1.87914e-16 5.39068e-17 -1.10222e-34)
(-8.89718e-19 1.16256e-19 4.94257e-36)
(4.59e-17 -9.99096e-17 7.82836e-35)
(4.63569e-17 9.98298e-17 0)
(1.93427e-16 -2.23869e-17 -1.39821e-35)
(1.58334e-16 -1.15898e-17 -7.00103e-35)
(2.15544e-16 6.84143e-19 -1.37782e-35)
(8.3491e-17 -1.23094e-18 1.92753e-35)
(5.7552e-17 1.24758e-16 0)
(6.30052e-17 1.2583e-16 -5.07392e-35)
(3.8093e-17 -8.78462e-17 0)
(-4.51824e-19 -2.09987e-19 0)
(2.42483e-16 -6.23548e-17 0)
(2.39643e-16 -4.99651e-17 -1.02441e-34)
(9.36417e-17 -2.32104e-16 0)
(2.25761e-16 2.44563e-16 1.50065e-35)
(1.94889e-16 -2.62116e-17 5.66832e-35)
(1.36791e-16 -1.09473e-16 0)
(-3.07233e-18 -4.59575e-17 4.08893e-35)
(2.32794e-16 -2.04272e-17 -1.13382e-35)
(-1.0016e-18 2.79248e-17 0)
(2.05716e-16 2.41379e-16 -7.10764e-35)
(7.62386e-19 2.82602e-17 0)
(1.58309e-16 9.38495e-18 -1.49695e-35)
(8.56902e-17 6.24212e-17 0)
(-6.31818e-19 3.68439e-19 3.40772e-36)
(2.44334e-16 3.4347e-17 8.35638e-36)
(2.0388e-16 -1.73145e-16 -1.15574e-34)
(2.28433e-16 7.02325e-17 -4.40775e-35)
(1.92612e-16 -5.33072e-17 1.38852e-35)
(2.07782e-16 -1.18272e-16 0)
(2.40876e-16 2.92649e-17 -8.39992e-36)
(1.96546e-16 1.7836e-16 8.50893e-35)
(4.09564e-17 -2.43732e-17 0)
(8.39188e-17 2.17385e-16 -7.82621e-35)
(2.3625e-16 1.21351e-16 4.46387e-35)
(2.18518e-16 -7.60262e-17 1.32082e-34)
(1.04665e-16 -2.18489e-16 -1.5216e-34)
(1.03895e-16 2.19945e-16 -1.67737e-34)
(1.37501e-16 -2.77055e-16 2.53449e-34)
(-1.09445e-17 1.24049e-17 0)
(1.24966e-16 2.60033e-16 3.33097e-34)
(-6.18312e-20 1.74945e-17 0)
(1.35003e-16 -2.68932e-16 -1.54565e-35)
(1.27505e-16 2.59418e-16 1.57087e-34)
(1.14978e-16 2.56038e-16 0)
(1.0146e-16 -2.56337e-16 5.85809e-35)
(4.08163e-17 -1.0097e-16 0)
(7.15567e-17 1.19215e-17 0)
(1.83916e-17 -5.22002e-17 -1.17508e-35)
(1.02702e-16 -2.66234e-16 -7.2269e-35)
(1.91627e-16 2.83314e-16 1.05273e-34)
(9.20648e-17 9.15489e-19 -4.5135e-35)
(1.16818e-16 -1.43506e-16 -1.31918e-35)
(-5.35497e-19 -3.52561e-19 0)
(2.02128e-17 4.94205e-17 0)
(1.18267e-16 -2.65233e-16 1.67076e-34)
(9.93229e-17 -2.08397e-16 -3.01528e-34)
(2.0291e-16 1.40941e-16 -7.99695e-35)
(6.81552e-17 -1.87971e-16 -7.10713e-37)
(2.3296e-16 7.4569e-17 1.15823e-34)
(2.30363e-16 1.17113e-16 -3.31474e-35)
(-1.48896e-17 -1.98925e-17 0)
(-3.77667e-18 -5.1512e-18 -3.8462e-36)
(-9.93043e-18 -4.28313e-17 -1.37876e-35)
(1.78485e-16 2.92826e-16 2.64422e-34)
(1.63375e-16 1.83811e-17 6.17417e-35)
(-5.64139e-18 -4.07758e-17 3.19308e-35)
(1.59847e-16 2.29965e-16 1.22322e-34)
(1.2919e-16 2.02688e-16 -2.3063e-34)
(-1.89286e-18 8.39681e-18 0)
(1.36519e-16 2.71322e-16 0)
(-2.08048e-20 1.3141e-19 0)
(1.16826e-16 2.50669e-16 -1.73666e-34)
(2.72243e-20 -1.00869e-19 3.32013e-36)
(1.394e-16 2.80658e-16 -3.20231e-34)
(-7.05215e-18 3.25951e-17 0)
(4.04029e-17 2.9977e-17 1.67821e-34)
(2.20877e-16 -1.09456e-16 5.79202e-35)
(3.67614e-17 2.44633e-17 0)
(2.23687e-16 2.22812e-16 0)
(8.70642e-17 -1.03453e-16 -3.67379e-34)
(7.0304e-17 8.55294e-17 -3.86306e-34)
(1.75206e-16 7.68156e-17 -2.2678e-35)
(3.57375e-17 -9.7422e-17 1.11322e-34)
(8.79066e-17 -4.40194e-18 6.87873e-35)
(1.5163e-16 -2.53268e-16 1.52545e-34)
(3.84104e-17 1.0115e-16 9.51654e-35)
(7.17763e-17 -8.44092e-17 0)
(2.07048e-16 6.26162e-17 -8.4689e-35)
(1.09057e-16 -2.47069e-16 8.97514e-36)
(-7.25159e-18 -4.84367e-17 7.28107e-36)
(-8.6733e-19 4.72101e-18 1.97204e-35)
(3.23511e-17 4.56911e-17 -1.61013e-34)
(-1.895e-18 2.91538e-18 3.25378e-36)
(1.77821e-17 -3.76836e-17 -1.26438e-34)
(1.1751e-16 -2.50369e-16 -1.97918e-35)
(1.12497e-16 -2.64204e-16 -1.85861e-34)
(2.68996e-17 -3.75935e-17 -1.74808e-34)
(4.58106e-17 -6.42005e-17 8.36425e-36)
(1.45187e-16 -1.83395e-16 -2.26079e-35)
(-3.71769e-18 4.81365e-17 0)
(1.26651e-16 -1.33851e-17 1.35729e-34)
(2.34741e-16 2.61312e-16 0)
(-2.59847e-18 -3.5197e-17 -5.00358e-35)
(-4.08658e-18 5.81989e-18 2.20666e-35)
(8.11402e-17 -2.14925e-16 8.95187e-35)
(5.82892e-18 -4.55902e-17 4.81067e-35)
(1.04491e-20 -9.2079e-20 -1.93111e-35)
(-1.79942e-18 1.05799e-18 -6.54994e-36)
(1.54436e-16 2.62436e-16 -2.49739e-34)
(9.24119e-21 8.0773e-20 0)
(2.08996e-16 2.84381e-16 -3.17908e-35)
(1.04419e-16 -2.56145e-16 -8.93891e-36)
(-2.21352e-18 -2.07614e-18 -1.41564e-35)
(-9.74359e-18 8.4759e-18 0)
(4.03676e-17 9.27319e-17 2.57852e-34)
(-8.85203e-18 2.94675e-17 6.33167e-36)
(1.25768e-16 2.674e-16 2.46817e-34)
(8.21054e-20 -2.05286e-20 1.25763e-35)
(7.84376e-20 2.74201e-20 2.02416e-36)
(1.35003e-16 -2.7327e-16 -1.53316e-34)
(1.99729e-16 2.78922e-17 5.46757e-35)
(6.88204e-17 -1.76218e-16 -1.93714e-34)
(-1.80391e-17 -2.47296e-17 0)
(2.337e-16 2.30035e-16 -3.86331e-35)
(-2.40817e-18 2.45003e-18 -6.8743e-36)
(8.03679e-17 1.73919e-16 -1.19903e-34)
(-9.55927e-18 -1.02811e-17 -4.08779e-36)
(7.33045e-17 1.82186e-16 -9.82755e-35)
(-1.33666e-18 1.29155e-18 5.13352e-36)
(-1.04218e-17 -3.93444e-17 -3.37578e-36)
(1.60578e-16 -1.7958e-16 0)
(-6.22791e-18 -3.06518e-17 4.59801e-36)
(8.57023e-17 1.96728e-16 6.60546e-35)
(1.03163e-16 2.18624e-16 -3.76984e-34)
(-3.76164e-18 2.05875e-17 0)
(1.30912e-16 -2.6203e-16 1.45061e-34)
(8.7068e-17 -1.95282e-16 1.94018e-34)
(1.86221e-17 3.09585e-17 1.58114e-34)
(-1.07965e-18 -1.01311e-18 -7.74862e-36)
(1.8223e-17 3.7976e-17 -2.08703e-35)
(1.82465e-16 -6.31748e-17 -8.21536e-35)
(5.53301e-17 -1.68149e-17 7.58767e-35)
(7.17704e-17 -1.65554e-16 -1.55537e-35)
(1.11798e-16 -2.38045e-16 1.44071e-34)
(-1.50425e-17 -3.02488e-17 0)
(-5.01228e-18 -4.79752e-17 -8.05569e-36)
(-3.1354e-18 -6.63079e-18 -2.00236e-36)
(1.47762e-16 -2.25888e-16 -9.33573e-35)
(4.17061e-17 3.46556e-18 -1.78729e-34)
(8.29616e-17 -1.30422e-16 -5.19437e-35)
(1.40128e-16 -2.79058e-16 -1.59033e-34)
(-1.55941e-18 6.8861e-18 -7.44551e-35)
(-1.28199e-17 -4.51574e-17 -1.52384e-35)
(1.71083e-16 -1.18783e-16 1.49768e-34)
(6.83208e-17 1.0613e-16 0)
(5.16208e-18 3.79061e-17 -1.02014e-34)
(9.67874e-17 2.06856e-16 1.39528e-34)
(1.46021e-16 1.85433e-16 1.69481e-34)
(-6.44858e-20 -2.36375e-20 -1.30382e-35)
(-8.90137e-20 3.22934e-20 -7.88195e-36)
(1.36628e-16 -8.10223e-17 0)
(6.93979e-17 -1.09131e-16 2.60775e-34)
(8.65323e-17 -1.89667e-16 1.60523e-34)
(9.13254e-17 -7.0681e-17 0)
(-1.00358e-17 4.63394e-17 -1.61606e-35)
(5.04762e-18 4.64984e-17 1.46965e-35)
(1.91918e-16 2.25953e-16 -1.18936e-34)
(1.74137e-16 -2.32293e-16 5.81627e-35)
(8.42974e-17 -2.00708e-16 6.43898e-36)
(2.12899e-16 -1.70062e-16 1.05537e-34)
(1.33043e-16 2.60772e-16 -3.63321e-34)
(1.0846e-16 -2.48464e-16 0)
(1.42376e-16 2.27832e-16 0)
(2.20133e-16 -1.38718e-16 0)
(1.36216e-16 2.45184e-17 -4.65621e-35)
(1.68109e-16 -2.91476e-16 0)
(1.12131e-17 -3.049e-17 4.56823e-35)
(-1.61346e-17 -3.58133e-17 -2.62025e-36)
(-6.44057e-18 6.4492e-18 2.93267e-36)
(-4.9695e-18 4.04503e-18 8.84995e-36)
(8.02474e-17 1.31807e-16 1.06783e-34)
(7.47493e-17 -1.62508e-16 1.99903e-35)
(-3.13245e-19 4.48387e-19 1.9906e-36)
(-2.73962e-19 -3.36313e-19 2.04619e-35)
(2.97912e-17 3.05077e-17 -5.18437e-35)
(-1.51128e-18 -8.69148e-19 -1.4348e-36)
(1.38461e-16 5.02928e-17 2.20171e-35)
(4.46941e-20 6.68285e-20 -2.17673e-36)
(7.58538e-20 -1.81957e-20 -8.81674e-36)
(1.21325e-16 2.54674e-16 0)
(2.02535e-16 2.37166e-16 0)
(1.91317e-16 -1.23391e-16 -1.5705e-34)
(1.04126e-16 4.38861e-17 0)
(2.3223e-16 2.52305e-16 4.167e-35)
(1.69578e-17 4.15062e-17 0)
(2.05248e-16 2.64415e-16 1.36808e-35)
(1.7715e-16 2.15622e-16 9.00604e-35)
)
;

boundaryField
{
    front
    {
        type            empty;
    }
    back
    {
        type            empty;
    }
    bottom
    {
        type            zeroGradient;
    }
    left
    {
        type            noSlip;
    }
    top
    {
        type            uniformFixedValue;
        uniformValue    
        {
            type            scale;
            scale           
            {
                type            squarePulse;
                start           0.3;
                duration        0.3;
            }
            xScale          
            {
                type            constant;
                value           1;
            }
            value           
            {
                type            constant;
                value           (0 -0.7 0);
            }
        }
        value           uniform (0 -0 0);
    }
    right
    {
        type            noSlip;
    }
    inner_arc
    {
        type            noSlip;
    }
}


// ************************************************************************* //
