/*--------------------------------*- C++ -*----------------------------------*\
  =========                 |
  \\      /  F ield         | OpenFOAM: The Open Source CFD Toolbox
   \\    /   O peration     | Website:  https://openfoam.org
    \\  /    A nd           | Version:  9
     \\/     M anipulation  |
\*---------------------------------------------------------------------------*/
FoamFile
{
    format      ascii;
    class       volScalarField;
    location    "0.33";
    object      p;
}
// * * * * * * * * * * * * * * * * * * * * * * * * * * * * * * * * * * * * * //

dimensions      [0 2 -2 0 0 0 0];

internalField   nonuniform List<scalar> 
464
(
15.1067
15.0919
15.4334
15.3897
15.095
15.4457
15.1131
15.3893
15.1085
15.1108
15.108
15.1205
15.1133
15.1158
15.1488
15.1553
15.1971
15.2019
15.397
15.2578
15.2633
15.3108
15.305
15.3856
15.3944
15.3812
15.1349
15.3762
15.1399
15.343
15.3504
15.1702
15.1672
15.1834
15.1893
15.219
15.2264
15.387
15.3607
15.1541
15.2548
15.2865
15.2961
15.1157
15.107
15.153
15.321
15.296
15.3476
15.3762
15.2492
15.3343
15.2347
15.2701
15.27
15.3296
15.3278
15.2309
15.2313
15.2341
15.3639
15.118
15.2145
15.2505
15.1131
15.2787
15.2025
15.3354
15.1111
15.2605
15.224
15.1136
15.1302
15.3097
15.154
15.3529
15.2088
15.1001
15.2375
15.1397
15.1096
15.4043
15.1136
15.3895
15.1157
15.2194
15.1226
15.3813
15.3727
15.1536
15.1183
15.1046
15.1879
15.0927
15.1825
15.2083
15.243
15.4049
15.1398
15.1175
15.3715
15.2907
15.3628
15.1642
15.1712
15.1092
15.4067
15.1983
15.1222
15.2854
15.1726
15.3087
15.1923
15.14
15.3637
15.3528
15.122
15.3593
15.1353
15.3539
15.2897
15.1215
15.1219
15.1165
15.2199
15.1683
15.1267
15.173
15.1812
15.1178
15.3759
15.1189
15.376
15.3423
15.3163
15.1266
15.344
15.3718
15.1178
15.2844
15.3132
15.1782
15.2248
15.3534
15.3335
15.1492
15.3333
15.3767
15.2563
15.2777
15.3235
15.3408
15.1395
15.1629
15.1309
15.2916
15.201
15.3133
15.1262
15.1268
15.1439
15.3035
15.1587
15.2707
15.2666
15.3209
15.1478
15.2693
15.1675
15.1631
15.1677
15.1267
15.149
15.3073
15.1583
15.1778
15.2953
15.2868
15.1339
15.1944
15.2851
15.1979
15.1843
15.1894
15.1675
15.1767
15.1973
15.1924
15.1537
15.1774
15.2762
15.1872
15.2866
15.2808
15.2357
15.2364
15.2627
15.2753
15.1721
15.2613
15.2664
15.2415
15.2646
15.2485
15.1824
15.2787
15.2583
15.2463
15.2402
15.1446
15.3036
15.2025
15.3238
15.2317
15.2606
15.1726
15.1637
15.2716
15.1376
15.2348
15.1958
15.252
15.2535
15.2638
15.2789
15.271
15.2635
15.2422
15.2564
15.2502
15.2432
15.2331
15.231
15.2257
15.2311
15.2372
15.2138
15.2216
15.2306
15.2122
15.2258
15.2087
15.2268
15.2205
15.2142
15.2048
15.2082
15.2488
15.2015
15.2499
15.1956
15.2045
15.1928
15.1587
15.2033
15.1977
15.3133
15.2472
15.1925
15.1772
15.1878
15.1729
15.1834
15.1493
15.178
15.149
15.1724
15.3623
15.1505
15.1563
15.2921
15.1675
15.153
15.1455
15.1212
15.1634
15.1578
15.2299
15.2236
15.1446
15.1535
15.3432
15.2288
15.3151
15.1465
15.1487
15.2178
15.1308
15.3417
15.1445
15.1398
15.1357
15.3223
15.2859
15.1976
15.2187
15.2075
15.1829
15.1929
15.1314
15.1472
15.1398
15.1234
15.0966
15.2269
15.1875
15.1776
15.2419
15.1311
15.168
15.2562
15.3329
15.2035
15.1313
15.1679
15.158
15.2128
15.1354
15.3965
15.1319
15.3337
15.2031
15.1357
15.1877
15.1358
15.2947
15.3142
15.1271
15.3503
15.1402
15.2713
15.0963
15.4005
15.1834
15.2477
15.2954
15.3275
15.3998
15.1633
15.2781
15.411
15.0947
15.1493
15.1443
15.1637
15.3823
15.3036
15.2133
15.3972
15.2432
15.3036
15.4006
15.2082
15.214
15.3023
15.0923
15.5629
15.0969
15.5058
15.1039
15.4165
15.1029
15.4018
15.1121
15.1036
15.4222
15.3824
15.1885
15.1088
15.3489
15.4165
15.1223
15.1425
15.1897
15.1283
15.3811
15.1214
15.2873
15.1411
15.3313
15.1535
15.1765
15.1818
15.1728
15.1933
15.1626
15.1846
15.3873
15.2019
15.2146
15.2369
15.2173
15.2372
15.2326
15.2495
15.2934
15.2748
15.3306
15.2795
15.1286
15.0979
15.4122
15.0967
15.4348
15.1009
15.1022
15.0972
15.5096
15.0939
15.5709
15.1063
15.3964
15.3991
15.3627
15.3928
15.101
15.1024
15.4004
15.4044
15.0994
15.3998
15.4024
15.1191
15.1219
15.0949
15.1366
15.1441
15.1502
15.1499
15.1029
15.4221
15.1701
15.1757
15.3762
15.1905
15.1989
15.2058
15.3508
15.2092
15.3353
15.2299
15.2275
15.2582
15.2636
15.322
15.2705
15.3105
15.2803
15.3036
15.246
15.1606
15.0996
15.147
15.3693
15.2321
15.2046
15.2085
15.421
15.41
15.4159
15.4546
15.1035
15.0987
15.364
)
;

boundaryField
{
    back
    {
        type            empty;
    }
    front
    {
        type            empty;
    }
    left
    {
        type            zeroGradient;
    }
    top
    {
        type            zeroGradient;
    }
    right
    {
        type            zeroGradient;
    }
    bottom
    {
        type            uniformFixedValue;
        uniformValue    
        {
            type            scale;
            scale           
            {
                type            squarePulse;
                start           0.3;
                duration        0.3;
            }
            xScale          
            {
                type            constant;
                value           1;
            }
            value           
            {
                type            constant;
                value           15.1;
            }
        }
        value           uniform 15.1;
    }
}


// ************************************************************************* //
