/*--------------------------------*- C++ -*----------------------------------*\
  =========                 |
  \\      /  F ield         | OpenFOAM: The Open Source CFD Toolbox
   \\    /   O peration     | Website:  https://openfoam.org
    \\  /    A nd           | Version:  9
     \\/     M anipulation  |
\*---------------------------------------------------------------------------*/
FoamFile
{
    format      ascii;
    class       surfaceScalarField;
    location    "0.33";
    object      phi;
}
// * * * * * * * * * * * * * * * * * * * * * * * * * * * * * * * * * * * * * //

dimensions      [0 3 -1 0 0 0 0];

internalField   nonuniform List<scalar> 
663
(
-3.25651e-08
-1.51118e-09
3.40763e-08
-1.55797e-08
-8.81384e-09
1.7371e-08
8.87896e-09
2.46446e-09
-2.22408e-08
1.97764e-08
3.3824e-09
-1.89621e-08
-8.47522e-09
2.58463e-08
-1.03287e-09
-3.15323e-08
-2.27738e-08
2.52383e-08
-2.20734e-09
-3.38368e-08
3.60441e-08
-3.41774e-08
3.19701e-08
-2.96314e-08
2.81202e-08
1.46929e-08
-2.19635e-08
7.27065e-09
-3.48697e-08
1.8293e-08
-3.60015e-09
-1.68058e-08
1.89619e-08
-2.15607e-09
-1.77226e-08
9.1676e-10
-1.65976e-08
1.76065e-08
-1.00893e-09
-1.79963e-08
1.39874e-09
2.20881e-08
-2.20881e-08
-2.41931e-08
2.88453e-08
-4.65219e-09
2.94449e-09
-2.71376e-08
2.39963e-08
1.97514e-09
-2.59714e-08
2.7762e-08
-3.76577e-09
1.62554e-08
7.62949e-09
-2.38849e-08
-2.67e-08
4.45922e-09
-7.78283e-09
2.40382e-08
-1.5353e-08
1.81968e-08
-2.84376e-09
2.7062e-08
-2.99274e-08
2.86542e-09
-2.26015e-08
7.24848e-09
-1.64834e-08
2.66699e-08
-1.01864e-08
9.11064e-09
-2.55941e-08
1.83394e-08
-2.85195e-08
1.01801e-08
-6.25637e-09
2.45958e-08
-2.07447e-08
2.77296e-08
-6.98487e-09
-2.85809e-08
7.83616e-09
-1.44372e-08
-3.55912e-09
-2.24639e-08
8.02672e-09
4.11976e-09
1.79683e-08
-1.97954e-09
2.90415e-08
1.93335e-08
-2.28955e-09
-1.70439e-08
1.71244e-08
1.1721e-08
-1.75039e-08
2.73082e-08
-9.80427e-09
1.02581e-08
1.5134e-08
3.06281e-09
-6.82957e-09
1.61085e-09
-3.05362e-08
2.95223e-08
1.01392e-09
-2.63017e-08
2.73204e-08
-1.01875e-09
-1.59888e-08
1.59888e-08
-2.58077e-08
-7.42085e-09
2.45452e-08
2.87069e-08
-2.30473e-09
-2.64021e-08
2.18112e-08
-3.41571e-09
-1.83954e-08
-1.17935e-09
-3.03855e-08
3.15648e-08
2.95085e-08
-3.06878e-08
3.42411e-09
2.52827e-08
-2.71121e-08
-6.00309e-10
-3.18049e-08
3.24052e-08
2.97209e-08
-3.03212e-08
1.96831e-08
2.12811e-09
-1.79683e-08
2.90816e-08
-2.87173e-08
-3.64317e-10
-3.24622e-08
3.21858e-08
2.76452e-10
3.1335e-08
-3.13848e-08
4.97704e-11
-1.79911e-09
-3.23783e-08
5.69093e-11
-3.04424e-08
-2.98086e-08
3.00922e-08
-2.83569e-10
1.3684e-08
-2.23608e-08
-8.7637e-10
3.03849e-08
3.04286e-08
-7.07716e-10
2.72825e-08
-1.70792e-08
-5.52229e-09
1.83462e-10
-2.64851e-08
2.93977e-10
2.18299e-08
-2.21239e-08
2.63941e-09
4.44292e-10
-3.02529e-08
-6.54089e-10
3.47304e-08
-3.20076e-08
2.02737e-10
1.8827e-09
-2.14349e-08
4.08164e-09
1.73533e-08
2.47939e-08
1.68502e-11
-2.48108e-08
2.4999e-10
8.06842e-09
-8.31841e-09
1.96178e-09
-1.88103e-08
1.68485e-08
-2.11849e-08
-4.34689e-10
-3.20275e-08
9.41471e-10
-2.96588e-08
2.67557e-08
-1.43641e-09
2.48306e-08
-2.33942e-08
-2.96634e-08
2.99574e-08
-2.15492e-08
3.13641e-08
2.97786e-08
-3.03147e-08
5.36128e-10
-1.62877e-08
3.27546e-10
1.59602e-08
3.0039e-08
-2.60406e-10
3.26301e-08
-6.72598e-10
2.62681e-08
-2.62513e-08
1.06254e-10
8.5566e-09
-8.66286e-09
-3.31945e-08
-1.67518e-09
2.59694e-08
-2.74058e-08
2.61657e-09
2.47039e-08
2.52984e-08
6.71085e-10
-2.11435e-08
-7.37603e-09
6.5861e-09
8.06842e-09
-1.88103e-08
3.00726e-08
1.95679e-11
-1.70218e-10
-2.1379e-08
-3.08217e-08
2.96841e-08
1.13761e-09
3.00073e-08
-2.03695e-10
-2.98036e-08
2.97057e-08
-2.42085e-10
-2.1661e-08
2.17673e-08
2.64707e-08
-1.64008e-09
2.5704e-08
-4.0565e-10
8.31841e-09
-8.48863e-09
3.15728e-09
-1.68485e-08
1.36912e-08
8.5566e-09
-2.46413e-08
2.77986e-08
-2.82052e-08
-3.39955e-08
8.00983e-10
-3.3112e-08
3.40535e-08
-3.19177e-08
3.85382e-10
2.99939e-08
2.97624e-08
2.44905e-10
1.73838e-10
-3.32859e-08
-2.24189e-08
2.22152e-08
-1.89765e-08
-9.60433e-09
8.31052e-09
-8.31052e-09
2.59623e-08
-2.58345e-10
6.42818e-11
2.29679e-08
-2.30322e-08
-8.48863e-09
1.36912e-08
2.80419e-08
-2.51765e-08
1.01993e-08
-1.01993e-08
-1.19414e-08
1.20057e-08
2.35387e-10
-2.36309e-08
2.29232e-08
2.6065e-08
1.19414e-08
1.74977e-09
-6.79503e-11
2.18979e-08
2.62886e-08
-3.2622e-10
2.11443e-09
-3.07435e-08
-6.41284e-10
9.4785e-09
7.20848e-10
2.75885e-08
-1.29995e-09
2.85673e-08
-2.88256e-08
3.12356e-08
-3.03161e-08
-9.19453e-10
2.99877e-08
-2.25291e-10
6.79752e-11
-1.20057e-08
1.80636e-09
1.46233e-08
2.98321e-09
2.81076e-08
-5.19097e-10
-3.38216e-08
2.47724e-10
-2.16268e-08
-3.38148e-08
-3.15263e-10
3.413e-08
2.76099e-08
4.97742e-10
-4.68435e-11
-2.20771e-08
9.4785e-09
-6.80995e-10
1.01595e-08
1.81832e-10
-3.39966e-08
2.10747e-08
-2.17557e-08
-3.10597e-10
-2.29897e-08
2.33003e-08
-8.77765e-09
8.77765e-09
-8.8648e-09
8.71477e-11
-2.9411e-08
-8.73081e-09
8.66286e-09
2.4943e-08
8.73081e-09
-7.42462e-11
-2.23447e-08
2.79684e-08
-3.58562e-10
-5.39002e-10
2.85074e-08
3.14448e-08
-2.09263e-10
-9.3626e-10
2.28884e-08
-2.19521e-08
-3.12856e-08
3.07466e-08
-4.98022e-11
2.2753e-08
-2.27032e-08
-8.39225e-09
8.39225e-09
-9.32851e-09
-7.89216e-09
7.58156e-09
7.89216e-09
5.00088e-10
9.03321e-09
-9.08301e-09
9.03321e-09
-8.93905e-09
8.8648e-09
-2.5478e-08
1.00372e-09
2.44743e-08
8.93905e-09
9.41594e-11
1.14629e-08
-1.14629e-08
-7.74128e-10
-5.66915e-10
-2.97543e-08
-2.39459e-08
2.3379e-08
2.40191e-08
-2.49346e-08
2.40582e-08
-4.60301e-10
-2.36986e-08
-2.47333e-10
1.02285e-08
-1.06888e-08
-2.4382e-08
6.83334e-10
1.06888e-08
1.02285e-08
9.90473e-09
-9.90473e-09
9.6574e-09
-9.08301e-09
1.3684e-08
8.50567e-09
-8.50567e-09
1.01595e-08
7.58156e-09
8.09147e-09
-8.09147e-09
9.6574e-09
-9.32851e-09
3.23756e-10
8.21336e-10
2.85643e-08
2.9596e-08
-1.03165e-09
3.04173e-08
1.70346e-09
3.16287e-08
-3.33322e-08
2.99497e-08
4.67583e-10
2.99995e-08
3.1703e-08
3.00583e-08
1.57041e-09
6.27438e-11
2.99956e-08
3.77667e-10
2.82437e-08
-2.66733e-08
3.19057e-08
-2.98243e-08
-1.92543e-09
3.17497e-08
-2.99542e-08
1.29901e-10
3.19685e-08
2.80465e-08
-2.9972e-08
3.23461e-08
-2.40079e-10
3.19898e-08
4.1406e-11
3.2476e-08
3.27525e-08
2.70376e-08
3.25124e-08
-1.79715e-09
2.58163e-08
3.2722e-08
-7.32253e-10
8.36234e-09
-1.42377e-09
3.41458e-08
2.63054e-08
2.39206e-10
-3.23868e-08
3.21476e-08
3.24288e-10
3.27752e-08
-2.62798e-10
3.13514e-08
-2.86819e-08
2.81628e-08
8.36234e-09
3.15906e-08
1.20489e-10
3.2264e-08
-3.23845e-08
3.15838e-08
6.87217e-12
1.39828e-10
-3.27227e-08
3.25828e-08
3.17802e-08
-1.96465e-10
3.24945e-08
-3.33661e-08
8.71628e-10
3.19007e-08
3.26763e-08
3.20405e-08
2.64019e-08
-2.70783e-08
2.49222e-08
1.45513e-09
-3.48212e-08
2.67494e-08
3.22874e-08
-2.46834e-10
-3.37463e-08
-2.50245e-10
-2.62066e-08
-3.11167e-08
3.22912e-08
-3.83724e-12
-2.51877e-10
-9.40552e-09
9.40552e-09
2.36877e-10
3.28979e-08
-3.31482e-08
-1.92919e-09
2.79942e-08
-1.20239e-09
-2.36021e-09
2.72824e-08
3.33512e-08
-4.53242e-10
2.35842e-10
9.16968e-09
-3.30513e-08
-2.34594e-10
-2.90413e-08
3.30359e-08
3.33398e-08
-3.0384e-10
2.88503e-10
-2.7668e-08
-2.93048e-08
-3.23673e-08
2.3159e-08
-9.16968e-09
8.66709e-11
-2.26051e-08
2.25109e-08
-2.96456e-08
3.32106e-08
-5.6042e-12
2.88049e-08
-2.87993e-08
2.00535e-09
-1.6124e-08
-6.33988e-09
3.26837e-08
-3.24873e-08
3.55903e-09
-2.15588e-08
2.23024e-08
2.97436e-08
-3.22552e-10
-3.34991e-08
3.28277e-08
-3.28239e-08
-2.0848e-10
-2.94372e-08
-2.93016e-08
6.5278e-09
3.11223e-08
2.29996e-08
3.67026e-09
-2.29868e-08
-1.24817e-08
1.24817e-08
-2.9741e-08
-2.32185e-08
-3.91912e-09
-1.61589e-08
-2.10461e-08
1.5702e-08
1.0548e-08
3.04269e-08
-2.96634e-08
-2.97179e-09
1.0998e-08
1.5252e-08
4.0897e-09
1.40496e-08
1.22004e-08
-1.65541e-08
-1.66689e-08
2.95041e-08
-1.84409e-09
-2.33324e-08
-2.58958e-10
-1.50055e-09
-2.29001e-08
-6.45956e-09
1.77748e-08
-6.45956e-09
1.77748e-08
1.99173e-08
-2.87312e-08
-1.44251e-08
2.33041e-08
3.539e-08
1.03548e-09
-1.60887e-09
2.84478e-08
-1.59113e-08
-6.17674e-09
3.5306e-09
-2.25071e-08
4.71037e-09
1.76121e-08
-1.36891e-08
2.58895e-08
-5.24771e-09
2.17601e-08
1.84215e-08
-3.79823e-09
5.24771e-09
2.19754e-08
1.69451e-08
-6.20877e-09
-1.93619e-08
5.29201e-09
-1.64036e-08
1.59035e-08
2.4888e-08
2.45415e-08
-2.46411e-08
-2.45483e-08
1.84853e-08
-6.34529e-09
4.94655e-09
2.19038e-08
-2.19453e-08
-4.94664e-09
4.94664e-09
-2.16112e-08
-2.10275e-08
2.68275e-08
2.55955e-08
-1.7666e-08
-2.15509e-08
-1.35569e-08
1.18249e-08
1.18936e-08
1.25609e-08
1.92312e-08
1.80615e-08
6.71572e-09
-6.71572e-09
-1.59113e-08
-3.50671e-09
1.03387e-08
-2.63298e-09
3.46031e-08
-2.24714e-09
-2.10853e-08
1.94257e-08
2.94717e-09
-2.23729e-08
1.9715e-08
-1.90439e-08
4.71037e-09
-2.80548e-08
-1.45575e-08
-1.24534e-08
-6.20877e-09
-5.29201e-09
2.05997e-08
-6.34529e-09
-4.94655e-09
-2.11437e-08
-2.57959e-08
2.42955e-08
2.05298e-08
4.99436e-09
1.67228e-08
-2.28995e-08
1.1332e-08
)
;

boundaryField
{
    back
    {
        type            empty;
        value           nonuniform List<scalar> 0();
    }
    front
    {
        type            empty;
        value           nonuniform List<scalar> 0();
    }
    left
    {
        type            calculated;
        value           uniform 0;
    }
    top
    {
        type            calculated;
        value           nonuniform List<scalar> 8(-2.625e-08 -2.625e-08 -2.625e-08 -2.625e-08 -2.625e-08 -2.625e-08 -2.625e-08 -2.625e-08);
    }
    right
    {
        type            calculated;
        value           uniform 0;
    }
    bottom
    {
        type            calculated;
        value           nonuniform List<scalar> 8(2.43936e-08 3.7205e-08 3.32231e-08 9.84196e-09 3.34742e-08 1.02224e-08 2.43471e-08 3.72927e-08);
    }
}


// ************************************************************************* //
