/*--------------------------------*- C++ -*----------------------------------*\
  =========                 |
  \\      /  F ield         | OpenFOAM: The Open Source CFD Toolbox
   \\    /   O peration     | Website:  https://openfoam.org
    \\  /    A nd           | Version:  9
     \\/     M anipulation  |
\*---------------------------------------------------------------------------*/
FoamFile
{
    format      ascii;
    class       volVectorField;
    location    "0.33";
    object      U;
}
// * * * * * * * * * * * * * * * * * * * * * * * * * * * * * * * * * * * * * //

dimensions      [0 1 -1 0 0 0 0];

internalField   nonuniform List<vector> 
464
(
(0.00368408 -0.940249 -1.60966e-17)
(0.00163629 -0.657979 0)
(0.0153794 -0.698769 0)
(-0.00264563 -0.716176 -3.53719e-16)
(-0.00701041 -0.537605 0)
(0.0773344 -0.755234 8.05858e-17)
(0.00108303 -0.97032 2.70629e-16)
(-0.0110608 -0.718667 0)
(-0.00259778 -1.00374 -9.12692e-20)
(-0.00337576 -0.982736 2.56081e-16)
(0.00591385 -0.840817 1.74421e-17)
(0.00482823 -0.644046 -1.05926e-17)
(-0.000395668 -0.998627 5.13351e-16)
(-0.00802767 -0.525763 0)
(0.00424639 -0.613485 2.32716e-16)
(0.00276291 -0.505006 -3.9326e-16)
(0.00248719 -0.62303 0)
(0.00571065 -0.518764 1.46589e-16)
(-0.0289074 -0.475583 3.17667e-16)
(0.0215389 -0.863605 -2.79944e-16)
(0.0252971 -0.837485 4.53343e-16)
(0.0428149 -0.831858 -7.76944e-17)
(0.037131 -0.843124 3.83847e-17)
(0.0174492 -0.726385 0)
(0.00352312 -0.708715 3.17573e-16)
(0.0288754 -0.740251 -1.64866e-16)
(-0.00542294 -0.532472 -1.83204e-16)
(-0.0621348 -0.804521 2.9126e-16)
(0.0096562 -0.647585 0)
(0.0521251 -0.811264 0)
(0.0465805 -0.79722 -1.97594e-17)
(0.0109725 -0.863407 -2.29096e-18)
(0.00103737 -0.80781 4.09005e-17)
(0.00408595 -0.803875 2.94721e-16)
(0.0117136 -0.86706 -2.89721e-16)
(0.000413096 -0.554518 -4.29195e-16)
(0.0163623 -0.672063 3.46692e-16)
(-0.0493217 -0.661308 4.36787e-17)
(-0.057846 -0.759025 -2.52754e-18)
(0.00152552 -0.527686 0)
(0.0211368 -0.86938 -4.52651e-16)
(0.0251447 -0.827953 0)
(0.0317815 -0.855208 1.1107e-16)
(0.00858835 -0.519019 -3.84812e-16)
(0.0017299 -0.640304 3.5087e-16)
(0.00597671 -0.606858 2.40813e-17)
(-0.0350142 -0.831616 -2.8318e-16)
(-0.0288472 -0.704901 1.92816e-19)
(-0.0217805 -0.342626 0)
(-0.0656945 -0.776356 -3.55625e-17)
(0.0110648 -0.833251 3.28344e-16)
(-0.047992 -0.743066 1.85668e-17)
(0.00691304 -0.565721 2.54811e-16)
(-0.0138373 -0.875717 2.68807e-16)
(-0.0216063 -0.87032 8.86162e-18)
(-0.0469464 -0.80092 -2.96813e-16)
(-0.042499 -0.81857 0)
(-0.00940464 -0.909361 0)
(-0.0131532 -0.883444 2.85047e-16)
(0.0079473 -0.636281 0)
(-0.0417801 -0.577714 -3.94794e-16)
(-0.00482748 -0.828243 -5.85248e-16)
(-0.00546343 -0.931323 -5.43179e-16)
(-0.0080429 -0.899001 2.78289e-16)
(-0.00295724 -0.957969 5.87709e-20)
(-0.0103106 -0.868194 2.84093e-16)
(-0.00927976 -0.842777 2.85192e-16)
(-0.0323624 -0.517509 3.97619e-16)
(0.00380345 -0.787515 -1.44629e-16)
(-0.020719 -0.846258 -2.85042e-16)
(-0.0122927 -0.845022 -2.84171e-16)
(-0.00304382 -0.885557 2.94599e-16)
(0.00447489 -0.644189 0)
(-0.0376398 -0.791751 -3.14332e-16)
(-0.00411012 -0.686819 3.48184e-16)
(-0.0566625 -0.809165 -2.95799e-16)
(-0.00999927 -0.886567 2.85246e-16)
(0.00306626 -0.96648 -2.59003e-16)
(-0.00710871 -0.911553 2.74434e-16)
(0.0102026 -0.536452 1.86851e-16)
(-0.00974858 -0.647582 0)
(0.0802232 -0.789501 -8.15263e-17)
(0.00178053 -0.3125 5.73239e-16)
(0.0477908 -0.634663 -3.93063e-16)
(-0.00067137 -0.568884 0)
(-0.00823832 -0.917246 -1.00028e-19)
(-0.0046442 -0.887154 2.87714e-16)
(0.0751511 -0.767623 0)
(-0.0129823 -0.742035 0)
(-0.00548271 -0.836677 2.8595e-16)
(-0.00346852 -0.670349 -3.53469e-16)
(-0.00688547 -0.812536 0)
(-0.00792296 -0.88884 -2.89022e-16)
(-0.00578915 -0.602203 -3.2942e-16)
(-0.00737831 -0.840466 2.86091e-16)
(-0.00726581 -0.924402 2.70468e-16)
(-0.0105173 -0.899925 -2.74627e-16)
(0.0453638 -0.736382 7.61729e-17)
(-0.00119599 -0.323848 5.53118e-16)
(-0.00139397 -0.999188 -2.55337e-16)
(0.00235754 -0.740333 0)
(-0.0298961 -0.780321 -1.90527e-17)
(0.0107166 -0.75495 0)
(0.0080441 -0.8603 2.27432e-18)
(0.0111171 -0.8006 0)
(-0.000383749 -0.168028 4.80308e-16)
(0.0240502 -0.446243 0)
(-0.00880074 -0.888061 -2.80946e-16)
(-0.00175927 -0.571369 3.53618e-16)
(-0.0252025 -0.861385 0)
(-0.00656557 -0.83941 0)
(-0.0367596 -0.831979 2.90456e-16)
(-0.00824939 -0.842042 0)
(-0.00266805 -0.57917 -3.50192e-16)
(-0.0215333 -0.760919 -9.91719e-18)
(0.00231048 -0.767699 5.06509e-18)
(-0.000985906 -0.317347 -5.62322e-16)
(0.0439811 -0.555073 -4.41956e-16)
(-0.000498538 -0.172775 -4.83932e-16)
(0.0587818 -0.750001 1.89281e-17)
(-0.0301119 -0.840576 -2.66027e-16)
(-8.54639e-06 -0.994628 -8.16981e-18)
(-0.00403963 -0.959321 -2.6112e-16)
(0.00233441 -0.938967 -2.70339e-16)
(-0.0113209 -0.8848 0)
(-0.00635141 -0.889915 -2.85857e-16)
(-0.00326082 -0.980708 2.66048e-16)
(-0.00476105 -0.694761 0)
(0.0123922 -0.858824 0)
(-0.000529795 -0.168751 -4.85827e-16)
(0.0273429 -0.382723 3.70851e-16)
(0.00808146 -0.181939 -4.76988e-16)
(-0.0283887 -0.390868 3.6123e-16)
(0.00899298 -0.783122 0)
(0.0366602 -0.701942 0)
(-0.000552318 -0.171413 4.84182e-16)
(0.0227113 -0.317042 8.186e-16)
(-0.0482531 -0.772033 3.05261e-16)
(-0.00352277 -0.982888 -2.59242e-16)
(0.00834373 -0.222752 -4.59561e-16)
(0.0165863 -0.449771 0)
(-0.00706594 -0.889198 0)
(-0.00953488 -0.72318 -1.23468e-19)
(-0.0138738 -0.770229 -3.20347e-16)
(0.0289189 -0.486716 -4.55129e-16)
(-0.00288612 -0.583397 3.50948e-16)
(0.00133594 -0.794576 0)
(0.0682528 -0.803315 0)
(-0.0122431 -0.888596 -1.5165e-20)
(0.00857605 -0.38403 1.03744e-15)
(0.00831618 -0.80949 -9.54495e-18)
(0.0255618 -0.793488 -2.94298e-16)
(0.00291068 -0.959164 2.97494e-16)
(-0.00588067 -0.838305 2.86385e-16)
(-0.000839608 -0.320942 5.45944e-19)
(0.0165012 -0.415664 5.23095e-16)
(0.012988 -0.549771 0)
(0.00140835 -0.821397 0)
(-0.000634772 -0.995568 2.62197e-16)
(-0.0029814 -0.676143 -3.56118e-16)
(-0.000765948 -0.98633 0)
(0.00699447 -0.834137 3.17105e-16)
(-0.00303562 -0.587373 -6.96518e-16)
(0.00237943 -0.203067 -1.70459e-19)
(0.00179291 -0.377664 -5.24971e-16)
(0.0125447 -0.268665 0)
(0.000665877 -0.980462 2.62234e-16)
(0.0139248 -0.641743 -3.57914e-16)
(0.00543924 -0.577158 -3.32717e-16)
(-0.000590365 -0.177403 -9.61461e-16)
(-0.00121808 -0.331548 -1.74192e-19)
(-0.00444892 -0.831764 2.9024e-16)
(-0.000986695 -0.326592 -1.65655e-19)
(0.0373233 -0.782115 7.95128e-17)
(-0.000856354 -0.329124 1.71948e-19)
(-0.00365732 -0.595759 3.46763e-16)
(0.000830022 -0.844112 -3.0482e-16)
(0.00580326 -0.856035 1.17399e-18)
(0.00327204 -0.93414 2.75635e-16)
(0.00451898 -0.596231 -4.10991e-17)
(0.0192154 -0.865166 -2.77996e-16)
(-0.00458826 -0.606233 -3.43215e-16)
(-0.00102773 -0.178238 0)
(-0.00357664 -0.335523 6.00211e-16)
(0.00453182 -0.309256 9.12875e-18)
(0.00343822 -0.322356 1.74492e-17)
(-0.00130939 -0.341252 0)
(-0.000634585 -0.183218 4.76761e-16)
(-0.000321109 -0.176145 9.62323e-16)
(-0.00122578 -0.334638 -1.07563e-18)
(-0.0231471 -0.764771 3.13702e-19)
(-0.00134641 -0.337871 -5.49156e-16)
(-0.0078348 -0.238562 8.78063e-16)
(-0.0221027 -0.683386 3.26993e-16)
(-0.0144751 -0.846485 -2.78386e-19)
(-0.0114975 -0.732646 3.25672e-19)
(0.0168042 -0.745025 3.2605e-16)
(-0.0249396 -0.843744 -2.76089e-19)
(0.00238418 -0.169888 4.96347e-16)
(-0.0178772 -0.7534 -3.2531e-16)
(-0.0161828 -0.667275 0)
(-0.00961874 -0.641176 0)
(-0.00692903 -0.387979 0)
(-0.0141633 -0.742247 -3.22455e-19)
(-0.000667877 -0.181067 0)
(-0.01061 -0.406418 -8.04328e-18)
(-0.00316639 -0.209939 0)
(-0.00220279 -0.20215 4.63273e-16)
(-0.00337345 -0.365221 -5.30427e-16)
(-0.000644382 -0.174743 -4.82205e-16)
(0.00874237 -0.257193 -4.30129e-16)
(-0.000686824 -0.184787 0)
(-0.0166843 -0.293429 -4.09345e-16)
(-0.00310747 -0.194326 4.78392e-16)
(0.00237225 -0.212255 0)
(-0.000598596 -0.179331 4.79253e-16)
(0.00657903 -0.170255 -4.98817e-16)
(-0.00497298 -0.221101 -4.51148e-16)
(0.00443232 -0.178091 -2.16587e-19)
(-0.00169292 -0.196726 4.67224e-16)
(0.000329233 -0.191146 -4.70294e-16)
(-0.00467796 -0.374939 -5.23846e-16)
(-0.0122928 -0.653253 3.30154e-16)
(-0.00930462 -0.884933 -5.54526e-16)
(0.000471907 -0.864906 -2.99532e-16)
(0.00505847 -0.875207 2.81406e-16)
(0.000237615 -0.883327 0)
(0.0130356 -0.906179 -1.31877e-16)
(0.00473807 -0.891724 8.79716e-18)
(0.000717721 -0.898712 2.89448e-16)
(0.0043593 -0.906126 -2.77815e-16)
(0.0103006 -0.895763 3.41529e-17)
(0.00720649 -0.912629 0)
(-0.00637446 -0.922014 2.6741e-16)
(0.0104281 -0.837138 -3.24954e-16)
(0.000450538 -0.913157 0)
(0.00961745 -0.903923 1.17444e-19)
(0.0088304 -0.92048 1.21763e-19)
(0.00285689 -0.918142 -2.74369e-16)
(0.0138853 -0.840151 -2.84051e-16)
(-0.000328295 -0.924218 2.76635e-16)
(0.00714982 -0.926765 2.66306e-16)
(0.00994043 -0.900642 -2.84739e-16)
(0.00353681 -0.928267 0)
(0.000732414 -0.935484 0)
(0.00405968 -0.783199 7.54157e-20)
(0.00313996 -0.938719 8.4332e-18)
(0.0132283 -0.638115 0)
(0.00949157 -0.90672 0)
(0.011968 -0.353838 0)
(0.0089378 -0.929529 2.58689e-16)
(0.0093557 -0.829889 6.01845e-16)
(-0.00490216 -0.947317 2.69613e-16)
(-0.00578211 -0.890098 -2.86032e-16)
(0.000518828 -0.945205 0)
(0.00207371 -0.947279 0)
(-0.0129705 -0.825234 0)
(0.0137119 -0.193743 4.86779e-16)
(-0.000727589 -0.953717 2.80242e-16)
(0.0080659 -0.943276 0)
(0.00197166 -0.95608 -2.74892e-16)
(-0.00388808 -0.959488 -5.39088e-16)
(0.000255599 -0.96136 -2.76575e-16)
(0.00215742 -0.923058 2.6105e-16)
(0.00248097 -0.962663 2.75845e-16)
(0.000977613 -0.951189 -5.40852e-16)
(0.000118331 -0.968828 5.36762e-19)
(-0.0394464 -0.777142 9.47137e-18)
(0.0043122 -0.771224 -1.89465e-16)
(0.00654607 -0.951297 -2.54379e-16)
(0.0280438 -0.692139 2.89159e-16)
(0.00222918 -0.970706 0)
(-0.00029235 -0.981956 -2.59641e-16)
(0.00236739 -0.831491 -1.49158e-16)
(0.00163718 -0.965411 8.45581e-18)
(0.000598853 -0.975864 0)
(0.00182171 -0.97552 0)
(-0.00771858 -0.630505 3.35877e-16)
(-0.00139147 -0.191834 0)
(-0.0037889 -0.683041 -1.06226e-19)
(-0.00334442 -0.970082 -2.08589e-18)
(-0.0218663 -0.790331 2.03351e-19)
(-0.00273902 -0.357138 0)
(-0.0376824 -0.719585 3.16307e-16)
(0.00545229 -0.836167 -1.89082e-16)
(-0.00441998 -0.952691 2.61258e-16)
(-0.00224112 -0.349599 5.45995e-16)
(-0.00411173 -0.95762 0)
(-0.0386993 -0.807755 0)
(-0.00362059 -0.973751 -2.65655e-16)
(-0.00451524 -0.955165 -1.03758e-18)
(-0.00339743 -0.977152 2.07342e-18)
(-0.0201597 -0.817181 2.98561e-16)
(-0.0160513 -0.859667 -5.71766e-16)
(-0.00652986 -0.930982 -2.75703e-16)
(-0.00629116 -0.619518 -6.8377e-16)
(-0.00157592 -0.344443 0)
(-0.0053915 -0.698924 1.12047e-19)
(-0.00613209 -0.703835 3.43506e-16)
(-0.00493264 -0.888585 -2.88163e-16)
(0.0031398 -0.925529 3.01518e-16)
(0.000328812 -0.985309 2.44324e-16)
(0.00867787 -0.838565 -5.79274e-16)
(-0.00192339 -0.50027 3.92041e-16)
(0.0146769 -0.661585 -1.82745e-16)
(-0.00624801 -0.936027 2.74704e-16)
(-0.00525452 -0.940931 5.39605e-16)
(0.010635 -0.549739 -1.8215e-16)
(-0.00232258 -0.575503 7.05547e-16)
(-0.00323974 -0.591341 3.46777e-16)
(-0.0179968 -0.876264 2.85158e-16)
(-0.0139571 -0.799167 2.06557e-19)
(-0.00486805 -0.939641 0)
(0.000528542 -0.989618 -4.02501e-18)
(-0.00508884 -0.945202 5.37932e-16)
(-0.00434554 -0.949571 0)
(-0.00103909 -0.187129 -4.75114e-16)
(-0.0047763 -0.833083 0)
(-0.0158708 -0.711419 0)
(0.00274877 -0.96194 -2.73294e-16)
(0.0524114 -0.814029 -2.38552e-16)
(-0.00681586 -0.708931 1.33311e-18)
(-0.00341647 -0.679289 -3.51742e-16)
(-0.00415611 -0.600863 -3.44417e-16)
(-0.00111732 -0.990784 -5.32886e-16)
(-0.0158503 -0.432913 2.66743e-19)
(-0.0228667 -0.468116 4.56259e-16)
(0.00301761 -0.933529 2.82892e-16)
(-0.0472578 -0.79856 0)
(-0.00520148 -0.889058 2.88894e-16)
(0.025017 -0.854458 1.51815e-16)
(-0.00181355 -0.995162 2.57986e-16)
(0.00216705 -0.700627 1.46966e-16)
(-0.00405797 -0.95319 -5.38833e-16)
(-0.0170839 -0.84687 2.77967e-19)
(-0.0118916 -0.848371 2.89829e-16)
(0.0457608 -0.828453 2.35579e-16)
(-0.0016862 -0.700466 2.9232e-16)
(-0.00437263 -0.690528 -1.05731e-19)
(0.0267076 -0.820022 -3.11774e-16)
(-0.00576158 -0.701088 -1.48557e-16)
(-0.0032017 -0.890319 0)
(-0.00554047 -0.889667 4.47058e-18)
(-0.00513255 -0.834778 -2.87397e-16)
(-0.00331426 -0.964895 -2.68629e-16)
(-0.0369863 -0.743091 -1.63194e-16)
(-0.011009 -0.262744 -8.49154e-16)
(-0.010632 -0.843727 -2.84985e-16)
(-0.000337442 -0.702498 -3.1179e-16)
(-0.015267 -0.880468 0)
(-0.0182976 -0.840321 9.10686e-18)
(-0.007212 -0.704775 1.45037e-16)
(-0.00514765 -0.612143 0)
(-0.0078501 -0.714732 3.39931e-16)
(-0.0303619 -0.850046 2.82359e-16)
(-0.00445325 -0.273575 -6.31711e-16)
(0.0245641 -0.73109 0)
(0.00110722 -0.141303 5.02717e-16)
(-0.00339557 -0.459187 1.76869e-16)
(-0.00177821 -0.822556 0)
(0.0208741 -0.703642 1.76969e-16)
(-0.00400237 -1.00124 -2.52753e-16)
(0.0902355 -0.773114 -8.24366e-17)
(-0.00331443 -0.548671 0)
(-0.00277641 -0.776183 9.2213e-18)
(-0.0535556 -0.710512 -3.61761e-16)
(-0.0198172 -0.733034 0)
(0.0168277 -0.806865 0)
(-0.00144657 -0.274886 0)
(0.0592459 -0.79323 -1.56213e-16)
(-0.017804 -0.702279 0)
(0.00744954 -0.297294 8.59588e-16)
(0.000319644 -0.800024 4.92881e-20)
(0.00348563 -0.638654 0)
(-0.00489745 -0.281882 -1.74327e-19)
(0.00829089 -0.727923 0)
(0.000309973 -0.798048 2.94952e-16)
(0.0281033 -0.748278 -4.70089e-16)
(0.00283096 -0.306248 1.11488e-15)
(0.046398 -0.768429 -8.98843e-17)
(0.00965652 -0.277328 0)
(0.00593163 -0.666371 3.41287e-16)
(0.00489557 -0.665734 0)
(0.00423079 -0.931679 1.37314e-16)
(0.00473571 -0.922691 -4.38906e-20)
(0.00795124 -0.927386 0)
(0.00789083 -0.92365 1.37333e-16)
(0.0442404 -0.745626 1.63694e-16)
(0.000637414 -0.328252 0)
(-0.000562124 -0.300157 0)
(0.00940046 -0.8027 1.52528e-16)
(0.0141583 -0.797239 0)
(-0.0125737 -0.309004 -2.85437e-16)
(0.0156602 -0.292229 -9.99436e-16)
(0.0162042 -0.892043 1.35043e-16)
(0.0240749 -0.855302 2.81979e-16)
(0.0187775 -0.871691 0)
(0.0305083 -0.81206 6.54108e-16)
(0.0205896 -0.720373 0)
(0.00853875 -0.790655 2.97873e-16)
(-0.00379397 -0.895331 0)
(0.00462293 -0.70107 0)
(-0.0021992 -0.801248 0)
(-0.017181 -0.701724 1.45866e-16)
(-0.00351918 -1.00941 -1.29125e-16)
(0.00179956 -0.961709 0)
(0.00121289 -0.147369 0)
(0.000682581 -0.440416 -3.75294e-16)
(-0.0040397 -0.281522 0)
(-0.0217674 -0.730779 3.64335e-16)
(-0.0011923 -0.954106 -6.53525e-17)
(-0.0438329 -0.738096 -1.68599e-16)
(0.0183241 -0.710183 0)
(0.0234613 -0.761556 -1.90535e-16)
(0.016681 -0.715477 0)
(-0.00553845 -0.860199 0)
(-0.00414155 -0.12228 0)
(-0.0710585 -0.788576 -9.54889e-18)
(0.0262385 -0.709304 -1.5784e-16)
(-0.00182972 -0.967235 6.52185e-17)
(-0.0253064 -0.70927 -1.91371e-16)
(0.00700479 -0.704034 -1.86506e-16)
(-0.00135507 -0.862989 1.78388e-16)
(-0.00511488 -0.129939 -5.47178e-16)
(-0.00332487 -0.65385 -1.90572e-16)
(9.45846e-05 -0.862232 1.8303e-16)
(-0.00599097 -0.145371 -5.29323e-16)
(-0.00927474 -0.269187 3.29281e-16)
(0.00167599 -0.131941 -2.7181e-16)
(0.00627565 -0.290509 -6.12759e-16)
(0.0441011 -0.702687 -2.0531e-16)
(0.00165337 -0.957182 -1.67866e-16)
(0.00211862 -0.551242 -1.35719e-17)
(0.0567449 -0.777128 -3.68796e-16)
(0.00228569 -0.945102 -5.08829e-16)
(-0.00168564 -0.151455 0)
(0.00532194 -0.281715 -1.70165e-16)
(0.0324513 -0.78508 1.51817e-16)
(-0.00031292 -0.137043 0)
(0.0462728 -0.707372 1.97882e-16)
(0.00842242 -0.856695 0)
(-0.0019506 -0.128033 2.77297e-16)
(0.0094851 -0.894513 -1.16764e-17)
(0.0134808 -0.884232 1.67799e-16)
(0.0229069 -0.819418 -4.78731e-16)
(0.0140825 -0.880699 9.82625e-18)
(0.0239943 -0.834416 1.73486e-16)
(0.0182718 -0.635246 2.08966e-16)
(0.016996 -0.840558 -2.12668e-16)
(0.00892688 -0.71453 -1.61721e-16)
(0.000987288 -0.661062 0)
(-0.000214783 -0.995364 -1.37633e-16)
(0.003395 -0.775021 2.61092e-16)
(0.0320244 -0.75746 0)
(0.00933091 -0.797613 3.22706e-16)
(0.0115491 -0.680157 0)
(0.00104959 -0.797923 -3.27546e-16)
(-0.0928378 -0.790394 1.7723e-16)
(-0.0305265 -0.712871 -8.41059e-20)
(-0.076874 -0.770109 -5.67494e-20)
(-0.0806643 -0.765065 -2.7807e-16)
(0.00109646 -0.271578 0)
(-0.00633986 -0.522708 1.137e-16)
(0.0514988 -0.781323 3.62094e-16)
)
;

boundaryField
{
    back
    {
        type            empty;
    }
    front
    {
        type            empty;
    }
    left
    {
        type            noSlip;
    }
    top
    {
        type            uniformFixedValue;
        uniformValue    
        {
            type            scale;
            scale           
            {
                type            squarePulse;
                start           0.3;
                duration        0.3;
            }
            xScale          
            {
                type            constant;
                value           1;
            }
            value           
            {
                type            constant;
                value           (0 -0.7 0);
            }
        }
        value           uniform (0 -0.7 0);
    }
    right
    {
        type            noSlip;
    }
    bottom
    {
        type            zeroGradient;
    }
}


// ************************************************************************* //
