/*--------------------------------*- C++ -*----------------------------------*\
  =========                 |
  \\      /  F ield         | OpenFOAM: The Open Source CFD Toolbox
   \\    /   O peration     | Website:  https://openfoam.org
    \\  /    A nd           | Version:  9
     \\/     M anipulation  |
\*---------------------------------------------------------------------------*/
FoamFile
{
    format      ascii;
    class       volScalarField;
    location    "0.92";
    object      p;
}
// * * * * * * * * * * * * * * * * * * * * * * * * * * * * * * * * * * * * * //

dimensions      [0 2 -2 0 0 0 0];

internalField   nonuniform List<scalar> 
90
(
-5.88044e-23
-1.02808e-23
5.09069e-22
1.44079e-21
5.22438e-22
-1.06985e-21
1.44851e-23
-1.34621e-22
-2.19908e-22
-1.14282e-22
7.83535e-23
-1.56952e-22
-1.51029e-22
6.22198e-22
-3.75053e-22
-2.76292e-21
3.03285e-21
-5.32598e-22
-6.11577e-22
-6.57363e-23
-1.07598e-23
-3.72896e-23
4.55438e-23
1.48866e-22
-5.95965e-24
3.25049e-22
-2.7846e-22
1.62405e-22
4.43795e-22
-1.83199e-22
-1.14174e-22
5.39464e-22
3.85897e-22
2.38404e-22
3.34135e-22
-2.71171e-21
-9.57317e-23
4.43057e-21
4.16918e-22
-1.66089e-22
-2.43925e-22
-3.2373e-22
5.91661e-22
-2.69185e-23
-5.62431e-24
6.04222e-22
-2.25415e-22
-1.03716e-21
-5.45775e-22
7.76577e-22
-6.39761e-23
-1.63059e-22
-2.20331e-22
4.94612e-22
-2.56303e-22
-7.12283e-22
5.10529e-24
-1.01128e-23
-4.84114e-23
6.51658e-22
-2.19672e-22
6.91815e-22
9.41014e-22
3.87539e-23
-4.36288e-22
-1.86733e-22
5.80958e-22
6.79524e-22
3.73472e-21
1.85629e-22
-1.3023e-21
-1.236e-22
5.41495e-22
-1.18337e-21
-2.54241e-21
-2.42124e-22
-1.28157e-22
4.38273e-22
9.51532e-23
1.66886e-23
4.38804e-21
-1.53149e-23
-2.88612e-23
-2.35002e-21
1.24857e-22
9.31412e-22
-5.97228e-23
-1.05028e-22
-1.59698e-21
-2.41419e-22
)
;

boundaryField
{
    back
    {
        type            empty;
    }
    front
    {
        type            empty;
    }
    bottom
    {
        type            zeroGradient;
    }
    outer_arc
    {
        type            zeroGradient;
    }
    right
    {
        type            uniformFixedValue;
        uniformValue    
        {
            type            scale;
            scale           
            {
                type            squarePulse;
                start           0.3;
                duration        0.3;
            }
            xScale          
            {
                type            constant;
                value           1;
            }
            value           
            {
                type            constant;
                value           15.1;
            }
        }
        value           uniform 0;
    }
    inner_arc
    {
        type            zeroGradient;
    }
}


// ************************************************************************* //
