/*--------------------------------*- C++ -*----------------------------------*\
  =========                 |
  \\      /  F ield         | OpenFOAM: The Open Source CFD Toolbox
   \\    /   O peration     | Website:  https://openfoam.org
    \\  /    A nd           | Version:  9
     \\/     M anipulation  |
\*---------------------------------------------------------------------------*/
FoamFile
{
    format      ascii;
    class       surfaceScalarField;
    location    "0.92";
    object      phi;
}
// * * * * * * * * * * * * * * * * * * * * * * * * * * * * * * * * * * * * * //

dimensions      [0 3 -1 0 0 0 0];

internalField   nonuniform List<scalar> 
122
(
-1.13152e-29
2.81472e-30
-4.87083e-30
1.7431e-28
-4.1586e-29
-9.68906e-29
-1.48444e-28
1.67793e-28
1.27658e-28
-1.8144e-28
2.04624e-28
4.43489e-28
-4.49291e-28
5.66766e-31
-1.69461e-29
-7.6517e-30
6.3976e-30
7.03665e-29
-6.1456e-29
-2.40051e-31
-6.23731e-30
2.99416e-29
2.94904e-29
-6.56742e-29
-1.10144e-28
1.88028e-28
-6.77062e-29
1.90233e-28
-8.16351e-29
2.83296e-29
-2.17511e-28
-1.19795e-28
5.3381e-29
-3.53143e-29
-2.86033e-29
1.02259e-30
5.86166e-30
3.93132e-29
-4.77312e-29
-3.57174e-29
2.05437e-29
-4.4946e-29
2.43625e-29
-1.58616e-29
-4.37097e-29
2.0526e-29
1.64055e-29
-2.46381e-29
-3.74593e-29
1.61405e-29
-5.09906e-31
-4.50216e-29
3.94132e-29
-3.61086e-28
1.90251e-28
-1.20888e-29
-3.95777e-30
-2.22386e-29
-3.39558e-30
-9.96768e-30
-1.39128e-29
1.8007e-29
-2.5102e-29
-6.49759e-29
1.08577e-28
1.16566e-28
-6.45166e-30
7.05445e-30
-7.57367e-30
1.03348e-29
3.08387e-29
-1.74054e-30
2.70387e-29
1.854e-29
-4.33728e-30
6.8415e-30
5.35136e-30
-4.96771e-32
6.03705e-29
-3.53912e-29
4.77147e-31
-3.09819e-29
-1.1009e-28
2.86595e-29
-1.37162e-29
-4.10153e-29
4.52921e-30
1.21598e-29
6.33272e-29
-8.77974e-29
-3.63892e-29
-5.08114e-30
-1.85761e-30
-7.74728e-29
6.96678e-29
6.88446e-31
6.57322e-30
8.40983e-30
-4.97139e-30
-2.56458e-29
-3.10469e-29
4.62847e-29
4.64854e-29
-3.22243e-29
1.05459e-31
8.4648e-29
-2.09284e-29
4.75931e-29
-2.44472e-29
-5.15216e-29
2.61367e-28
-2.59265e-28
-1.59733e-28
1.27682e-28
1.19681e-29
4.49883e-29
2.26451e-29
-1.16758e-29
5.51291e-30
2.89134e-30
-6.86893e-29
3.10157e-30
)
;

boundaryField
{
    back
    {
        type            empty;
        value           nonuniform List<scalar> 0();
    }
    front
    {
        type            empty;
        value           nonuniform List<scalar> 0();
    }
    bottom
    {
        type            calculated;
        value           uniform 0;
    }
    outer_arc
    {
        type            calculated;
        value           uniform 0;
    }
    right
    {
        type            calculated;
        value           nonuniform List<scalar> 4(-8.15584e-31 6.71431e-31 2.33246e-30 9.27596e-31);
    }
    inner_arc
    {
        type            calculated;
        value           uniform 0;
    }
}


// ************************************************************************* //
