/*--------------------------------*- C++ -*----------------------------------*\
  =========                 |
  \\      /  F ield         | OpenFOAM: The Open Source CFD Toolbox
   \\    /   O peration     | Website:  https://openfoam.org
    \\  /    A nd           | Version:  9
     \\/     M anipulation  |
\*---------------------------------------------------------------------------*/
FoamFile
{
    format      ascii;
    class       volVectorField;
    location    "0.92";
    object      U;
}
// * * * * * * * * * * * * * * * * * * * * * * * * * * * * * * * * * * * * * //

dimensions      [0 1 -1 0 0 0 0];

internalField   nonuniform List<vector> 
90
(
(-2.66589e-22 3.2042e-23 1.7734e-39)
(-2.701e-21 -2.9461e-21 -5.76508e-38)
(4.76023e-21 8.9317e-22 5.05919e-38)
(4.13879e-21 -4.66044e-21 -5.01043e-38)
(-6.03791e-21 -8.8056e-21 -1.27803e-37)
(-1.65102e-21 -1.55889e-21 4.5802e-38)
(-1.16136e-22 -8.75694e-23 -1.9126e-39)
(2.8083e-22 1.03144e-22 -7.5016e-39)
(-2.73347e-22 2.1761e-21 0)
(-1.12806e-22 -1.07808e-22 0)
(1.43525e-21 -2.653e-22 8.53479e-39)
(-5.78397e-22 5.82112e-21 -9.13356e-39)
(3.23941e-22 1.96946e-22 -1.88662e-39)
(4.98442e-22 9.73733e-22 2.11609e-39)
(-2.0294e-21 4.18983e-21 0)
(-5.30019e-21 -2.57582e-21 0)
(-2.4565e-21 -8.43534e-21 1.66836e-37)
(4.27539e-21 1.72953e-21 2.2881e-38)
(4.42257e-22 -2.18206e-21 0)
(2.93147e-22 3.58987e-22 1.89191e-39)
(9.22654e-22 4.58234e-22 -4.6912e-39)
(-4.60455e-22 -5.81945e-22 -6.80832e-39)
(7.5326e-22 -2.82847e-22 1.15645e-38)
(9.5626e-22 -1.45697e-22 -3.13209e-39)
(7.8432e-22 -2.96698e-23 3.38746e-39)
(5.39942e-22 -1.27664e-21 -8.8916e-39)
(5.61668e-22 6.76852e-23 8.33538e-39)
(-1.1687e-21 -7.87585e-22 -4.75201e-39)
(9.7038e-21 1.60075e-21 0)
(3.44976e-22 -2.47283e-22 8.79897e-39)
(5.7208e-22 6.13287e-23 -5.59481e-39)
(1.19247e-21 -1.37909e-22 3.32094e-38)
(1.00519e-21 3.32253e-22 9.20223e-39)
(4.84884e-22 4.49712e-22 -1.80506e-38)
(9.58367e-22 2.81918e-22 5.43249e-39)
(-1.13925e-21 3.23322e-21 6.43146e-38)
(-1.48234e-21 -1.798e-21 0)
(1.51903e-21 -2.40744e-21 0)
(3.0063e-22 1.11071e-23 -9.45181e-39)
(1.65598e-23 1.378e-22 -2.42633e-39)
(-4.42013e-22 3.38415e-23 3.92019e-39)
(-1.09788e-22 4.88116e-22 2.41901e-38)
(-6.67327e-23 -6.54086e-24 3.29358e-39)
(-2.04668e-22 3.88879e-23 2.0107e-39)
(-2.21758e-23 -6.60611e-23 4.81131e-40)
(-1.02215e-21 -2.04297e-21 -2.28439e-38)
(3.27975e-22 -4.81468e-22 -4.95164e-39)
(-1.74235e-21 2.33412e-21 -2.6865e-38)
(1.39704e-21 -1.13017e-22 2.85028e-38)
(-7.73062e-22 3.88756e-21 -3.14655e-39)
(1.20274e-22 5.77749e-23 0)
(-1.25536e-22 -2.22737e-22 7.78709e-39)
(-1.56186e-21 2.08309e-21 5.40384e-41)
(-3.75576e-22 -5.77766e-22 0)
(-1.582e-22 -2.36934e-22 -1.56595e-38)
(-2.31129e-21 -6.61792e-22 2.7501e-40)
(-4.34075e-24 2.95421e-23 -2.80455e-40)
(4.67244e-22 -9.6674e-22 0)
(-2.22842e-22 -1.12339e-22 0)
(9.16737e-22 -6.54356e-22 -3.69413e-38)
(-6.59262e-22 2.3106e-22 -1.58786e-38)
(-1.15919e-21 -1.81118e-21 0)
(1.54078e-22 -4.82296e-22 -4.39761e-38)
(-2.29772e-21 3.34466e-22 3.12762e-39)
(-1.31681e-21 -8.09049e-22 -2.93761e-38)
(2.77457e-21 -3.49222e-22 -6.71807e-39)
(9.78802e-22 9.00824e-22 0)
(9.69468e-22 -7.81146e-22 0)
(8.44515e-21 -1.03579e-21 -1.61065e-38)
(1.00553e-20 -2.18931e-21 -3.90813e-38)
(-4.7705e-21 2.53686e-21 0)
(-2.88076e-22 -2.54882e-22 -5.97239e-39)
(-2.89596e-21 1.93335e-21 0)
(5.58631e-22 -2.63789e-21 -8.79947e-38)
(6.9202e-21 -2.92277e-22 3.94581e-38)
(1.59784e-22 -7.08561e-22 8.33078e-39)
(-2.38687e-22 -8.35666e-23 1.15594e-39)
(-6.36294e-22 -5.75082e-22 0)
(-2.26625e-22 8.32118e-22 1.08864e-38)
(-2.60135e-22 -1.39525e-22 -2.70827e-39)
(5.51843e-21 -5.40659e-22 -1.82876e-37)
(-2.63546e-23 -2.47104e-23 -1.69866e-40)
(8.07719e-22 -1.41754e-21 7.63145e-39)
(-2.68453e-21 4.36441e-22 -6.20784e-38)
(-7.09454e-22 -2.35682e-21 -3.67134e-39)
(1.7804e-22 -3.0461e-22 2.67596e-38)
(-1.87413e-22 -2.86934e-23 -2.67247e-39)
(-2.85502e-22 -1.88445e-23 3.68778e-40)
(-2.01462e-21 -2.17088e-21 1.52404e-37)
(-2.55001e-22 -1.65221e-22 5.78383e-39)
)
;

boundaryField
{
    back
    {
        type            empty;
    }
    front
    {
        type            empty;
    }
    bottom
    {
        type            uniformFixedValue;
        uniformValue    
        {
            type            scale;
            scale           
            {
                type            squarePulse;
                start           0.3;
                duration        0.3;
            }
            xScale          
            {
                type            constant;
                value           1;
            }
            value           
            {
                type            constant;
                value           (0 0.7 0);
            }
        }
        value           uniform (0 0 0);
    }
    outer_arc
    {
        type            noSlip;
    }
    right
    {
        type            zeroGradient;
    }
    inner_arc
    {
        type            noSlip;
    }
}


// ************************************************************************* //
