/*--------------------------------*- C++ -*----------------------------------*\
  =========                 |
  \\      /  F ield         | OpenFOAM: The Open Source CFD Toolbox
   \\    /   O peration     | Website:  https://openfoam.org
    \\  /    A nd           | Version:  9
     \\/     M anipulation  |
\*---------------------------------------------------------------------------*/
FoamFile
{
    format      ascii;
    class       volScalarField;
    location    "0.67";
    object      p;
}
// * * * * * * * * * * * * * * * * * * * * * * * * * * * * * * * * * * * * * //

dimensions      [0 2 -2 0 0 0 0];

internalField   nonuniform List<scalar> 
578
(
-9.20802e-08
-1.94414e-07
-7.59716e-08
-4.29789e-08
-1.72086e-07
5.71983e-08
1.2749e-07
-1.4047e-07
-1.38266e-07
-2.74051e-07
1.02021e-08
-1.43212e-07
-4.87944e-08
-1.67673e-07
1.16056e-07
-4.22451e-08
-1.1149e-07
-1.02158e-07
-1.14135e-07
-1.03832e-07
-4.22582e-08
-3.49481e-08
-2.09609e-09
-1.89237e-09
-2.11149e-09
-1.02949e-07
-5.74127e-08
-6.6594e-08
-1.51271e-07
-3.53895e-08
-5.91257e-08
6.99623e-08
-8.25835e-08
-3.29317e-08
1.03461e-07
-8.78439e-08
-1.51305e-07
-1.32509e-07
-3.23873e-08
-1.9513e-07
-1.60602e-07
-1.26504e-07
-1.52096e-07
1.21493e-07
-7.09519e-08
1.59912e-07
1.16844e-07
-1.46221e-07
-3.4892e-08
-6.10841e-08
1.14025e-07
-4.92542e-08
1.1106e-07
-3.55818e-08
-5.20561e-08
-1.07612e-07
-3.74324e-09
-1.24586e-08
-7.2584e-08
-1.16027e-07
-1.05954e-07
-1.4114e-07
-1.35919e-07
-1.84197e-07
-5.24638e-08
1.09504e-07
-6.09732e-08
2.87916e-08
1.0559e-08
-1.01306e-07
-2.61455e-08
6.55625e-08
-5.19898e-08
-1.20041e-07
7.95435e-09
-1.95539e-07
-1.66554e-07
-1.43103e-07
-5.16789e-08
6.85875e-08
8.12977e-08
-1.50781e-07
1.35252e-07
1.27026e-07
2.83294e-09
9.26598e-08
1.33889e-07
-8.62831e-08
-1.16767e-07
8.35194e-08
-5.61341e-08
3.816e-08
1.02536e-07
-4.5928e-08
2.23339e-08
6.59979e-08
-5.2229e-08
-5.27821e-08
-2.63511e-07
1.17695e-07
1.03841e-07
-1.13242e-07
-5.75432e-08
5.09561e-08
-5.37409e-08
-1.66591e-07
1.41217e-08
-1.96396e-07
1.09059e-07
-1.78837e-07
-8.16694e-08
-1.06974e-07
-1.13409e-07
4.49682e-08
5.34473e-08
-5.51008e-08
-4.40509e-08
-1.13456e-07
8.09005e-08
-5.2439e-08
-9.04479e-08
1.92769e-07
-1.27783e-07
-4.53475e-08
9.29053e-08
5.55468e-08
5.92903e-08
-3.72582e-08
9.87321e-08
1.50408e-08
1.0179e-07
4.95001e-08
-4.57316e-08
-9.73002e-08
9.10252e-08
8.52945e-08
-1.67763e-07
-5.49617e-08
1.75502e-08
1.02334e-07
1.12052e-07
3.14325e-08
9.90931e-08
-8.74982e-08
-1.12294e-07
1.10831e-08
3.80941e-08
-6.64681e-08
-1.27462e-07
-1.00043e-09
-1.50064e-07
2.47835e-08
-1.83262e-07
-8.89051e-08
1.16082e-07
-6.13596e-08
-1.25483e-07
-4.3867e-08
1.13946e-07
-1.53196e-07
-1.58977e-07
-1.56964e-07
1.17984e-07
-1.4693e-07
-1.13957e-07
3.3097e-08
-9.51607e-08
1.17348e-07
-3.84856e-08
-5.23401e-08
-1.37754e-07
-1.71702e-07
8.83451e-08
7.60052e-08
1.14811e-07
-5.4035e-08
-5.13386e-08
-1.08197e-07
-1.4839e-07
-1.4286e-07
1.27225e-07
-1.57834e-07
7.2586e-08
-5.13817e-08
8.88823e-08
-6.28683e-08
-4.46955e-08
1.32134e-07
1.12408e-07
-1.88234e-07
-1.57873e-07
-1.55115e-07
8.60572e-09
1.13978e-07
-2.183e-07
-5.07701e-08
-3.26715e-08
-6.95731e-08
1.06784e-07
-1.56876e-07
-4.16431e-08
-4.92319e-08
2.02826e-07
-5.48299e-08
-5.27428e-08
-1.58256e-07
1.02003e-07
-3.35404e-08
-1.54617e-07
-9.66648e-09
2.03381e-08
1.03147e-07
8.70349e-08
-4.97698e-08
8.97342e-08
-4.78166e-08
1.11874e-07
-1.56988e-07
1.13448e-07
4.73978e-08
-1.54539e-07
1.1484e-07
-6.46006e-08
-1.59814e-07
1.25632e-07
5.4608e-08
-4.9591e-08
-3.63703e-08
-6.68859e-08
-1.59687e-07
-2.45796e-07
1.92532e-07
8.52514e-08
-5.62809e-08
5.44532e-08
-1.28945e-07
-1.62082e-07
1.1892e-07
-4.7674e-08
-2.40828e-08
1.23759e-07
-1.71179e-07
-5.22594e-08
1.25537e-07
-6.80024e-08
-1.14308e-07
1.04288e-07
-2.53283e-07
7.19023e-08
-4.62683e-08
-5.05917e-08
7.41238e-08
8.54184e-08
1.47345e-08
7.64827e-08
-3.44482e-08
-1.37772e-07
1.02422e-07
-1.39351e-07
1.70148e-07
-5.32955e-08
1.26434e-07
-3.3779e-08
-3.18893e-08
-1.59543e-07
-7.83292e-08
3.81111e-08
-2.71799e-08
-2.14109e-07
4.52955e-08
-4.60521e-08
4.31066e-08
1.97438e-08
-5.01031e-08
-4.82654e-08
-4.69558e-08
-5.30052e-08
2.36927e-08
1.13909e-07
-4.04119e-08
-1.65016e-07
-4.99465e-08
-5.02466e-08
-4.9222e-08
-4.56994e-08
9.90496e-08
-6.61726e-08
5.79413e-08
-1.91548e-08
-2.70217e-08
1.79201e-08
6.98224e-08
-5.56313e-08
1.00636e-07
-3.98731e-08
-3.55458e-08
-1.62883e-07
-1.62408e-08
-6.4859e-08
-4.20942e-08
-4.33964e-08
-1.93835e-08
-5.51931e-08
-7.83747e-08
-3.45627e-08
-4.06697e-08
-9.03713e-10
-1.26422e-07
-4.25758e-08
-4.58281e-08
-4.26677e-08
-5.661e-08
-4.53265e-08
-2.20786e-08
-3.59797e-08
-5.01628e-08
6.4198e-08
-1.68333e-08
-3.92935e-08
-3.52198e-08
6.73213e-08
-5.00201e-08
-4.98357e-08
-1.75489e-08
-5.25703e-08
-5.5952e-08
1.01125e-07
1.14652e-07
-1.54435e-07
-5.62383e-08
-5.405e-08
8.33341e-08
-5.02042e-08
-5.61053e-08
8.18227e-08
-2.75065e-08
-4.72701e-08
-5.4342e-08
-9.5995e-08
-5.53037e-08
-4.9986e-08
-4.9486e-08
-5.55112e-08
-1.12057e-07
-3.75155e-08
7.54368e-08
2.57121e-08
9.43193e-08
-1.15701e-07
1.07894e-07
-1.30621e-07
-1.46669e-07
1.13603e-07
-8.81143e-08
-1.88305e-07
1.45924e-07
-2.60411e-08
1.35644e-07
-2.01335e-07
1.41894e-07
-4.49581e-08
-9.2217e-08
-3.17484e-08
-9.04531e-08
-4.42883e-08
-3.40458e-08
-5.4826e-08
6.23728e-08
-4.78851e-08
-4.33534e-08
-1.36302e-07
-1.47704e-07
1.73278e-08
2.90429e-08
1.91356e-08
1.39194e-07
-5.70091e-08
1.06686e-07
-1.35576e-07
-6.52814e-08
-5.30593e-08
-1.40979e-07
1.15489e-07
-1.64536e-08
-2.76739e-08
-4.33323e-08
-3.54566e-08
1.37177e-07
1.24715e-07
-1.0538e-07
-5.10223e-08
-1.29148e-08
-9.07263e-09
-3.72136e-08
-4.41322e-08
-2.42931e-08
7.782e-08
-7.18642e-08
-1.77731e-08
2.49532e-09
-3.13414e-08
5.26702e-08
-3.59231e-08
-1.18531e-07
-5.39576e-08
-5.58826e-08
3.9285e-08
-7.07314e-08
5.11984e-10
3.7612e-08
-4.88383e-08
-1.41411e-07
-1.03433e-07
6.22176e-08
-7.53422e-08
8.78233e-09
-1.24942e-07
9.17082e-08
-1.59283e-07
-5.97626e-08
1.047e-07
2.6877e-08
-1.33939e-07
1.24735e-07
8.23605e-08
-6.04323e-08
-9.12212e-08
-1.2814e-07
-1.13695e-07
-5.59131e-08
5.89991e-08
-1.89463e-08
-3.29939e-09
-5.12757e-08
7.28674e-08
-7.96742e-08
-1.38816e-07
-1.08374e-07
-7.58992e-08
-7.17444e-08
-9.65628e-08
-4.56766e-08
-4.27589e-08
-6.11629e-08
8.0087e-08
-6.85759e-08
-6.65886e-08
6.58771e-08
6.5901e-08
-5.28644e-08
1.07456e-07
-5.63405e-08
7.77438e-08
-4.84796e-08
1.04525e-07
-4.64395e-08
-1.94677e-07
-1.22838e-09
-1.56321e-08
-1.18883e-07
1.42804e-07
7.94796e-08
-1.11013e-07
-7.9811e-08
-6.9631e-08
-1.22995e-07
7.45389e-08
-1.77277e-07
-8.53271e-08
-7.59317e-08
-7.07738e-08
-7.05658e-08
5.49274e-08
-6.16125e-08
-7.54865e-08
-1.31097e-07
-8.80677e-08
-1.21807e-07
-7.90568e-08
-1.10763e-07
-1.53188e-08
3.82169e-10
-6.77076e-08
-6.66693e-08
-6.05235e-08
-7.00798e-08
-9.04561e-08
-5.98653e-08
-5.72079e-08
9.00696e-08
-4.45826e-08
5.72161e-08
-4.76481e-08
-4.4802e-08
-5.57939e-08
8.52921e-08
-5.06623e-08
9.77227e-08
-5.88775e-08
-4.56054e-08
-1.57633e-07
-6.14249e-08
-7.78387e-08
-4.67729e-08
-1.05163e-07
-5.91534e-08
9.48712e-08
-4.10913e-08
6.67225e-08
-5.71567e-08
-6.11382e-08
8.8366e-08
-4.80231e-08
1.5612e-07
1.0666e-07
-5.18184e-08
-1.41674e-07
-1.87814e-07
4.0643e-08
-4.66103e-08
-1.42485e-09
1.91004e-08
-7.8106e-08
-1.0705e-07
-1.18078e-07
-4.92015e-08
-7.51749e-08
-3.97519e-08
-1.46896e-07
-1.52578e-07
-1.52382e-07
-1.40789e-07
-6.88354e-08
-6.22576e-08
6.74879e-08
6.38782e-08
3.35016e-08
9.01791e-08
6.0699e-08
-6.20348e-08
-4.26796e-08
6.17886e-08
-9.53243e-08
-1.03433e-07
8.62281e-08
-2.91156e-08
7.47458e-09
-1.06475e-07
-9.14445e-08
-9.41685e-08
3.19407e-08
1.14856e-07
-9.2279e-08
9.32391e-08
3.62135e-08
-8.77235e-08
-1.5584e-07
-6.47328e-08
-5.11063e-08
-5.96448e-08
-5.79042e-08
1.02617e-07
-1.24075e-07
-5.98741e-08
-4.45148e-08
3.02853e-08
-4.84557e-08
-1.10675e-07
-5.72488e-08
-4.71803e-08
1.00634e-07
-1.08693e-07
4.17941e-08
-1.46776e-07
-7.47282e-08
6.23837e-09
3.38187e-08
1.64092e-08
)
;

boundaryField
{
    front
    {
        type            empty;
    }
    back
    {
        type            empty;
    }
    bottom
    {
        type            uniformFixedValue;
        uniformValue    
        {
            type            scale;
            scale           
            {
                type            squarePulse;
                start           0.3;
                duration        0.3;
            }
            xScale          
            {
                type            constant;
                value           1;
            }
            value           
            {
                type            constant;
                value           15.1;
            }
        }
        value           uniform 0;
    }
    left
    {
        type            zeroGradient;
    }
    top
    {
        type            zeroGradient;
    }
    right
    {
        type            zeroGradient;
    }
    inner_arc
    {
        type            zeroGradient;
    }
}


// ************************************************************************* //
