/*--------------------------------*- C++ -*----------------------------------*\
  =========                 |
  \\      /  F ield         | OpenFOAM: The Open Source CFD Toolbox
   \\    /   O peration     | Website:  https://openfoam.org
    \\  /    A nd           | Version:  9
     \\/     M anipulation  |
\*---------------------------------------------------------------------------*/
FoamFile
{
    format      ascii;
    class       surfaceScalarField;
    location    "0.67";
    object      phi;
}
// * * * * * * * * * * * * * * * * * * * * * * * * * * * * * * * * * * * * * //

dimensions      [0 3 -1 0 0 0 0];

internalField   nonuniform List<scalar> 
816
(
-1.31e-10
-1.38e-09
1.51e-09
-1.05e-10
-2.41e-09
2.52e-09
2.23e-09
-2.36e-09
2.93e-09
-2.94e-09
1.33e-11
1.55e-09
-1.55e-09
3.03e-09
5.7e-10
-3.6e-09
1.6e-09
-1.6e-09
-1.52e-09
1.52e-09
-2.86e-09
-2.36e-10
3.1e-09
-1.18e-09
1.07e-09
4.46e-09
-1.43e-09
3.58e-09
-2.54e-09
-1.04e-09
6.48e-10
2.43e-09
-3.08e-09
3.51e-09
-3.14e-09
-3.66e-10
3.52e-09
-2.97e-09
-5.44e-10
-2.41e-09
4.02e-09
-1.61e-09
9.98e-10
1.04e-09
-2.03e-09
-3.35e-09
2.02e-10
3.15e-09
4.24e-10
3.16e-09
1.46e-09
-4.32e-09
2.2e-09
7.28e-10
3.56e-10
-2.77e-09
1.98e-09
-3.83e-10
-1.59e-09
-2.08e-09
-9.97e-10
3.08e-09
-2.25e-09
1.74e-10
-2.99e-09
6.74e-10
2.32e-09
-2.63e-09
2.89e-09
-2.59e-10
-6.17e-12
8.14e-10
-8.08e-10
8.45e-10
-3.26e-09
1.28e-09
2.74e-09
-1.78e-09
1.77e-09
-2.15e-09
2.72e-09
4.58e-09
-3.3e-09
-3.42e-09
1.7e-09
1.72e-09
3.03e-10
3.21e-09
-6.62e-10
3.4e-09
3.1e-10
3.2e-09
-5.16e-10
-2.48e-09
-4.27e-09
1.56e-09
2.71e-09
9.99e-10
5.49e-10
-1.24e-09
-1.1e-09
1e-09
-2.97e-09
1.03e-12
-2.1e-09
-6.3e-10
2.73e-09
1.01e-09
5.92e-10
-1.3e-09
2.85e-09
-3.09e-09
-2.04e-09
-2.47e-09
-1.56e-10
-8.02e-11
9.62e-10
-8.82e-10
2.9e-09
-2.26e-09
1.86e-09
1.16e-10
-1.29e-09
-2.14e-09
1.62e-09
1.39e-09
9.6e-10
-3.27e-09
2.31e-09
-3.83e-10
-2.1e-09
3.58e-09
-2.59e-09
1.21e-09
-1.87e-09
2.36e-10
-5.86e-10
1.62e-09
1.82e-09
-1.62e-09
-9.28e-11
-3.05e-09
-1.68e-09
-2.07e-09
3.74e-09
-3.07e-09
9.58e-11
3e-09
1.57e-09
1.98e-09
2.49e-09
-1.19e-09
3.92e-09
-2.73e-09
6.77e-10
2.46e-09
-3.14e-09
-5.51e-10
-2.23e-09
1.48e-09
-3.16e-09
2.46e-09
1.32e-09
-3.77e-09
1.4e-09
2.52e-09
-3.92e-09
1.33e-09
-1.33e-09
-1.68e-09
3.14e-09
-2.43e-09
7.5e-10
3.91e-09
5.26e-10
9.84e-10
-1.51e-09
-3.39e-09
3.17e-10
3.07e-09
-1.38e-09
1.39e-09
-1.39e-09
-1.52e-09
1.52e-09
1.59e-09
-3.38e-09
1.79e-09
-1.13e-09
-3.23e-10
9.62e-10
-2.66e-09
3.62e-09
-3e-11
-2.47e-09
2.5e-09
-2.19e-09
-7.18e-11
2.26e-09
1.11e-09
-1.53e-09
3.12e-09
-1.19e-11
-2.67e-09
2.68e-09
2.29e-09
1.55e-09
-3.83e-09
-2.8e-09
1.73e-10
2.5e-09
-2.68e-09
-1.54e-09
-1.69e-09
-1.18e-09
-2.29e-10
3.44e-09
2.87e-11
-3.1e-09
-2.08e-09
2.75e-09
-3.29e-09
2.35e-09
9.38e-10
2.09e-09
1.79e-09
1.22e-09
-3.19e-10
3.52e-09
-2.2e-09
1.24e-09
-1.13e-09
-1.17e-10
-1.21e-09
1.31e-09
2.09e-09
3.13e-09
2.63e-09
-3.61e-09
9.86e-10
-1.18e-09
-2.11e-09
-8.29e-10
-2.11e-09
-3.63e-10
-2.72e-09
3.09e-09
1.03e-10
-2.29e-09
3.24e-09
-1.45e-09
-1.45e-10
2.46e-09
-1.78e-09
2.63e-10
6.78e-10
2.39e-09
-1.86e-10
-3.93e-10
2.6e-09
-2.96e-09
3.63e-10
-1.81e-09
-1.58e-09
-2.81e-09
2.05e-09
7.59e-10
-2.58e-09
-5.31e-10
3.14e-09
-6.94e-11
-3.07e-09
3.17e-09
-5.69e-10
-9.37e-10
3.22e-09
-8.59e-10
8.59e-10
2.9e-09
2.35e-10
4.66e-11
-2.9e-09
2.85e-09
1.73e-11
-2.55e-09
-2.95e-09
-6.65e-10
2.22e-09
-2.29e-09
2.03e-11
-1e-09
9.84e-10
5.89e-10
2.24e-09
5.34e-11
2.19e-09
-2.25e-09
-1e-09
-1.8e-10
2.89e-09
2.74e-10
1.77e-09
-2.04e-09
-1.69e-09
1.16e-09
5.33e-10
-2.81e-09
2.28e-09
-3.33e-09
-1.16e-10
3.44e-09
-1.21e-09
1.21e-09
1.21e-09
1.44e-10
7.15e-10
-3.11e-10
-3.21e-09
3.52e-09
-9.06e-11
-2.38e-09
3.24e-09
-2.39e-09
-6.74e-10
2.95e-09
-2.28e-09
9.84e-10
3.18e-10
-3.64e-09
-2.73e-09
-1e-09
-2.87e-09
2.75e-09
-9.59e-10
9.59e-10
-2.53e-09
-9.05e-10
2.42e-09
-2.73e-09
-1.84e-09
1.17e-09
-1.34e-09
4.68e-09
-3.34e-09
-2.75e-10
-2.59e-09
1.1e-09
-1.08e-09
-1.19e-09
1.23e-09
1.4e-10
-8.55e-10
7.15e-10
2.66e-11
2.4e-09
2.35e-09
1.4e-09
-1.56e-09
3.91e-09
-2.95e-09
-1.62e-09
1.34e-09
1.5e-11
-2.23e-09
2.21e-09
1.13e-09
-1.1e-09
3.05e-10
-2.72e-09
2.41e-09
2.17e-09
-2.5e-09
2.35e-09
-5.86e-11
-2.84e-09
-1.69e-09
-1.87e-09
-1.36e-09
-1.44e-09
-3.13e-09
-3.03e-10
3.44e-09
-9.44e-10
9.59e-10
-3.08e-09
-3.1e-10
3.39e-09
2.85e-09
-9.82e-11
-2.58e-09
-1.56e-10
-1.07e-09
-2.78e-09
4.38e-09
-1.61e-09
-1.17e-09
1.07e-09
1.01e-10
-1.16e-09
1.07e-09
-2.9e-09
2.88e-09
2.36e-11
2.7e-09
-2.54e-09
-1.64e-10
-1.84e-09
3.9e-09
-1.03e-09
-3.57e-10
-4.11e-09
2.55e-09
1.36e-09
1.49e-10
-5.27e-11
-2.74e-09
-1.01e-10
1.87e-09
-3.68e-09
-1.4e-10
3.04e-09
4.22e-09
-1.67e-09
2.1e-09
1.88e-09
5.11e-10
6.14e-10
-7.15e-10
3.07e-09
2.16e-09
2.32e-10
-1.92e-09
2.06e-09
1.24e-09
-1.34e-09
-1.26e-09
1.1e-09
-1.9e-09
-2.84e-09
4.55e-09
-1.72e-09
-9.44e-10
-1.03e-09
-8.55e-10
-6.23e-10
-2.1e-09
-1.62e-09
1.24e-09
-1.26e-09
-9.3e-10
-1.05e-10
1.85e-09
-1.75e-09
1.13e-09
1.54e-09
1.22e-10
1.07e-09
9.84e-10
-9.59e-10
-2.2e-10
-1.19e-09
-2.29e-09
-1.49e-09
3.77e-09
2.61e-09
-2.64e-10
-2.7e-09
6.92e-11
2.65e-09
2.26e-10
-6.1e-10
3.85e-10
-8.82e-10
2.5e-09
-3.12e-09
1.48e-11
3.73e-09
-3.64e-09
6.1e-10
-7.15e-10
1.07e-09
1.08e-09
-1.98e-10
5.48e-10
-1.35e-09
-3.9e-10
-3.1e-09
5.01e-10
1.67e-09
2.88e-09
2.22e-09
-2.8e-09
4.47e-09
-3.05e-09
7.59e-10
6.14e-10
-1.23e-09
-1.58e-09
-2.49e-09
4.07e-09
1.08e-09
-4.29e-09
-1.69e-09
4.57e-09
-1.75e-09
4.36e-09
2.9e-09
1.29e-10
-6.54e-10
6.54e-10
-1.2e-09
-2.08e-09
2.78e-09
2.75e-09
1.93e-09
-8.96e-10
8.96e-10
-1.08e-09
-7.19e-10
-1.11e-09
9.05e-10
2.09e-10
1.11e-09
-2.18e-10
-5e-10
-1.2e-09
-2.8e-09
-2.75e-09
5.23e-10
-4.61e-09
1.66e-09
2.95e-09
-1.72e-09
3.15e-10
-2.75e-09
4.55e-09
-1.81e-09
-4.44e-09
1.69e-09
1.37e-09
-2.61e-09
4.27e-09
2.32e-09
-4.01e-09
-3.26e-10
2.24e-10
1.46e-09
-2.23e-09
2.85e-09
-1.43e-09
-2.18e-09
3.62e-09
-2.75e-09
4.64e-09
-1.79e-09
3.22e-09
1.49e-09
3.15e-09
3.74e-09
-3.69e-09
-3.7e-09
1.91e-09
2.83e-09
-4.62e-09
2.87e-09
-1.38e-09
2.74e-09
-5.42e-10
-2.64e-09
-1.36e-09
1.53e-09
3.02e-09
4.52e-09
-7.68e-10
-1.93e-09
2.7e-09
-9.03e-10
9.03e-10
-8.15e-10
8.15e-10
9.98e-10
-9.98e-10
9.69e-10
-9.69e-10
9.99e-10
1.01e-09
2.75e-09
-3.7e-09
9.58e-10
-1.3e-09
2.82e-09
1.71e-09
1.3e-09
-1.3e-09
-1.21e-09
1.27e-09
-1.27e-09
-4.01e-09
1.52e-09
2.49e-09
-5.86e-10
-4.35e-09
2.69e-09
1.66e-09
-9.01e-10
9.01e-10
-3.7e-09
1.49e-09
2.21e-09
-1.32e-09
-2.63e-09
-2.4e-09
1.82e-09
-1.15e-09
2.47e-09
-9.13e-10
-3.4e-09
-3.56e-09
1.86e-09
9.9e-10
9.48e-11
1.54e-10
3.75e-11
-2.07e-09
-4.26e-09
2.39e-09
1.86e-09
-2.74e-09
-1.31e-09
-9.69e-10
-8.54e-11
1.31e-09
-3.33e-09
1.4e-09
-1.84e-09
-2.49e-09
4.47e-09
-1.33e-09
-2.36e-09
9.32e-10
1.43e-09
-2.35e-10
-2.9e-09
7.11e-11
2.83e-09
-9.63e-10
8.28e-10
-8.28e-10
-5.42e-11
-1.74e-09
-1.52e-09
-1.93e-09
3.14e-09
3.1e-09
-8.85e-10
-2.97e-09
-2.14e-09
6.39e-11
3.84e-09
-2.01e-09
-1.4e-09
-2.92e-09
-2.13e-09
-2.89e-09
-5.29e-10
-1.94e-09
-8.19e-10
-1.85e-09
-1.33e-09
-2.44e-09
-3.49e-09
-7.63e-10
2.81e-09
-2.37e-09
-2.18e-09
-2.77e-09
2.47e-09
-2.95e-09
4.74e-10
-1.09e-09
-3.47e-10
-2.57e-10
2.57e-09
-1.09e-09
-6.46e-10
3.73e-09
5.49e-10
-4.28e-09
4.17e-09
1.16e-09
1.56e-09
-1.75e-09
3.06e-09
1.01e-09
-1.01e-09
2.59e-09
5.48e-10
1.35e-09
3.17e-10
-2.44e-09
2.57e-09
-3.45e-09
3.6e-09
2.01e-09
1.73e-09
-3.03e-09
1.3e-09
3.82e-11
3.68e-09
-1.19e-09
1.94e-09
2.95e-09
-2.4e-09
1.14e-10
8.14e-10
-2.31e-09
1.06e-09
1.26e-09
1.26e-09
2.07e-09
-2.53e-09
3.91e-10
-1.96e-09
1.68e-10
2.53e-09
-2.21e-09
2.38e-09
7.08e-10
-2.17e-09
1.07e-09
-8.7e-11
1.08e-09
-3.47e-09
-1.88e-10
-3.98e-09
5.48e-10
-1.28e-10
8.66e-10
3.45e-10
-2.37e-09
3.13e-09
3.04e-10
-3.21e-09
-8.08e-10
1.07e-09
2.34e-09
-1.8e-09
-2.29e-09
-1.41e-09
2.13e-09
1.39e-09
-2.4e-09
8.66e-10
1.16e-09
-3.18e-09
-3.37e-09
3.22e-09
-4.82e-11
-1.97e-09
-1.58e-09
1.58e-09
1.04e-09
-3.06e-09
-1.61e-09
1.61e-09
-2.49e-09
-3.21e-09
-2.5e-09
-2.53e-09
1.43e-09
1.38e-09
2.97e-09
-8.43e-10
-2.16e-09
2.24e-09
2.62e-09
-3.42e-09
1.61e-09
-1.92e-09
2.01e-09
-2.38e-09
-1.66e-09
-1.37e-09
-1.66e-09
-5.75e-10
-2.41e-09
-8.01e-10
1.41e-09
-1.89e-09
1.8e-09
3.91e-10
2.75e-09
5.03e-11
-3.14e-09
-2.97e-09
-1.71e-09
-2.78e-10
-2.49e-09
-1.13e-10
-2.35e-10
-4.86e-10
-1.5e-09
1.36e-09
3.12e-09
-3.52e-10
-1.98e-09
5.74e-11
1.86e-09
2.43e-09
-2.55e-09
-2.49e-09
-2.64e-09
-2.78e-09
-1.04e-09
7.55e-10
4.02e-10
)
;

boundaryField
{
    front
    {
        type            empty;
        value           nonuniform List<scalar> 0();
    }
    back
    {
        type            empty;
        value           nonuniform List<scalar> 0();
    }
    bottom
    {
        type            calculated;
        value           nonuniform List<scalar> 
12
(
1.46e-09
3.11e-09
2.72e-09
2.76e-09
1.57e-09
3.85e-10
3.9e-10
2.59e-09
3.22e-09
2.78e-09
1.59e-09
1.44e-09
)
;
    }
    left
    {
        type            calculated;
        value           uniform 0;
    }
    top
    {
        type            calculated;
        value           nonuniform List<scalar> 8(-3.01e-09 -3.01e-09 -2.99e-09 -2.99e-09 -2.99e-09 -3.01e-09 -3.01e-09 -2.99e-09);
    }
    right
    {
        type            calculated;
        value           uniform 0;
    }
    inner_arc
    {
        type            calculated;
        value           uniform 0;
    }
}


// ************************************************************************* //
