/*--------------------------------*- C++ -*----------------------------------*\
  =========                 |
  \\      /  F ield         | OpenFOAM: The Open Source CFD Toolbox
   \\    /   O peration     | Website:  https://openfoam.org
    \\  /    A nd           | Version:  9
     \\/     M anipulation  |
\*---------------------------------------------------------------------------*/
FoamFile
{
    format      ascii;
    class       surfaceScalarField;
    location    "0.67";
    object      phi;
}
// * * * * * * * * * * * * * * * * * * * * * * * * * * * * * * * * * * * * * //

dimensions      [0 3 -1 0 0 0 0];

internalField   nonuniform List<scalar> 
816
(
2.94284e-15
1.10511e-13
-1.13453e-13
-3.6434e-14
1.57546e-13
-1.21112e-13
-1.92091e-13
1.95034e-13
1.39876e-14
-1.80848e-14
4.09715e-15
1.08066e-13
-1.08066e-13
-5.5095e-14
7.7561e-14
-2.2466e-14
-1.12978e-13
1.12978e-13
-1.01474e-13
1.01474e-13
-2.29784e-13
5.86783e-16
2.29197e-13
3.14977e-14
-6.79317e-14
6.54055e-14
-1.20501e-13
2.69018e-13
-1.94773e-13
-7.42441e-14
6.65937e-15
-5.24045e-15
-1.41892e-15
2.60021e-13
-2.35616e-13
-2.44047e-14
-2.5677e-13
2.26661e-13
3.01088e-14
-1.97916e-13
3.24877e-13
-1.26961e-13
-1.18984e-13
-3.61811e-14
1.55165e-13
2.35475e-13
-1.99118e-14
-2.15563e-13
3.15869e-14
2.37431e-13
1.07994e-13
-3.37778e-13
2.28186e-14
-8.83095e-15
2.40655e-14
-2.21982e-13
1.25785e-13
-5.16025e-14
-7.41827e-14
3.44728e-14
1.1081e-14
-4.55539e-14
3.86831e-14
-4.21025e-15
-2.21112e-13
5.41036e-14
1.67008e-13
1.97502e-14
-1.81946e-14
-1.55557e-15
4.66028e-15
-1.11483e-14
6.48805e-15
6.92238e-14
8.83224e-14
1.13201e-13
2.11676e-13
2.00486e-14
-1.53883e-14
1.75776e-14
5.99834e-14
3.43519e-13
-2.30318e-13
4.84987e-14
-3.09954e-14
-1.75033e-14
-2.53591e-14
-2.31411e-13
-5.55455e-14
2.67221e-13
2.38329e-14
2.36188e-13
-3.23613e-14
-1.8875e-13
3.34204e-13
-1.21689e-13
-2.12515e-13
6.71702e-14
4.08959e-14
-8.42333e-14
-6.98872e-14
6.91128e-14
2.28219e-13
-1.55769e-15
-1.16326e-13
-5.59031e-14
1.72229e-13
-6.78852e-14
-4.50926e-14
8.76187e-14
2.12808e-13
-2.12221e-13
1.42113e-13
7.35914e-15
1.2391e-14
-1.34686e-14
-2.76571e-16
1.37452e-14
5.47053e-15
1.18885e-15
9.32594e-14
3.25258e-14
2.57134e-14
2.27853e-14
-2.66976e-15
2.66976e-15
7.37102e-14
-1.69595e-14
-5.67507e-14
-5.16025e-14
-1.16326e-13
-2.64818e-13
1.45834e-13
9.16456e-14
-1.47191e-13
-2.93433e-14
4.18105e-14
-7.79916e-14
-9.79034e-14
7.79916e-14
-7.6542e-15
-2.27962e-13
8.20369e-15
-5.32411e-15
-2.87959e-15
2.30322e-13
-2.10316e-15
2.20114e-13
1.23405e-13
-9.0263e-14
1.55669e-13
-9.90921e-14
2.86221e-13
-1.87129e-13
5.20152e-14
1.90832e-13
-2.42847e-13
7.68765e-15
4.10901e-15
7.79388e-15
4.09811e-16
1.94167e-13
9.36159e-14
-2.87782e-13
5.98844e-14
-6.40844e-14
4.19994e-15
9.18875e-14
-9.18875e-14
-1.36308e-13
2.44302e-13
-1.84321e-13
4.80127e-14
2.55343e-15
-4.17051e-14
-7.17483e-14
1.13453e-13
-1.91245e-13
-6.86623e-14
2.59908e-13
1.10511e-13
8.5546e-14
-8.5546e-14
-1.23126e-13
1.23126e-13
-1.32531e-13
2.58476e-13
-1.25945e-13
6.61693e-14
2.02331e-14
-2.76576e-16
7.33221e-14
3.88088e-16
-5.77569e-15
-1.80757e-13
1.86533e-13
1.58242e-13
6.84407e-15
-1.65086e-13
1.85404e-15
9.47681e-14
-2.27299e-13
6.32607e-15
1.94647e-13
-2.00973e-13
1.25648e-14
-1.0456e-14
-2.10881e-15
-2.26053e-13
3.46582e-16
2.0434e-13
-2.04686e-13
-2.25995e-15
1.25084e-15
3.14977e-14
1.81232e-14
-2.49534e-13
-2.83154e-15
2.33154e-13
-1.61074e-13
2.13089e-13
4.01615e-15
4.65059e-15
-8.66674e-15
-1.63394e-13
1.28711e-15
-1.28711e-15
-3.21563e-14
2.68345e-13
3.74184e-14
8.42333e-14
6.61693e-14
-8.47457e-15
-8.34129e-14
1.17664e-13
1.49557e-13
2.44935e-13
2.25706e-13
-2.8199e-13
5.62832e-14
6.29697e-15
-2.28082e-15
-1.27553e-14
-5.32948e-15
9.91033e-14
1.53988e-13
-2.53091e-13
-3.07894e-15
1.61321e-13
-9.72849e-16
2.25995e-15
-1.04954e-14
1.77503e-13
-1.40767e-13
1.76417e-14
4.86802e-14
2.02692e-14
2.54942e-15
-5.52213e-14
-2.08162e-13
2.26043e-13
-1.78811e-14
-4.0451e-14
-1.50794e-13
2.06182e-13
-1.44815e-13
-6.13672e-14
1.98119e-13
4.31857e-14
-2.35845e-13
1.3517e-15
2.34494e-13
-2.42674e-13
3.45114e-14
4.43081e-15
8.13401e-15
-5.86174e-14
5.86174e-14
-2.13301e-13
-2.25446e-14
-1.68438e-15
2.14689e-13
-2.13004e-13
-3.26549e-15
-1.91508e-13
-1.75708e-13
-1.06282e-13
-1.67926e-13
1.69278e-13
-2.91133e-15
6.34956e-14
-6.05843e-14
-4.45544e-14
-1.70838e-13
8.01247e-16
3.60989e-14
-3.69001e-14
-6.91128e-14
-2.40817e-15
-2.10107e-13
-2.4346e-14
-1.26176e-13
1.50522e-13
5.03862e-16
-2.18295e-15
1.67909e-15
2.15992e-13
-1.72806e-13
-2.6323e-13
-6.92054e-15
2.7015e-13
7.61216e-14
-7.61216e-14
9.16456e-14
1.02672e-14
4.83502e-14
2.54021e-14
2.40755e-13
-2.66157e-13
-2.74954e-15
1.01087e-14
-1.05767e-13
1.74991e-13
1.46641e-15
3.8669e-15
-5.33331e-15
-7.17483e-14
2.36293e-14
-2.86859e-13
-2.04333e-13
6.34956e-14
-2.06296e-13
1.99375e-13
-1.95868e-14
1.95868e-14
1.91646e-13
-1.87855e-14
-1.73004e-13
1.98406e-13
-4.68092e-16
1.9345e-15
2.29601e-14
-2.62244e-14
3.26427e-15
-1.9655e-14
-1.86641e-13
6.98872e-14
-7.31527e-14
7.86768e-14
-8.03612e-14
-7.06422e-15
5.43315e-14
-4.72673e-14
3.72141e-15
-1.76725e-13
1.00982e-14
-1.29778e-14
1.30797e-14
-2.98151e-15
2.44937e-13
-1.04895e-13
8.52399e-14
-1.28161e-14
1.16886e-15
1.16472e-14
-6.92201e-14
7.29415e-14
-4.25788e-14
2.10782e-13
-1.68204e-13
-1.56104e-13
1.76337e-13
1.56332e-14
7.89948e-15
2.06789e-13
5.03862e-16
-1.47191e-13
9.99797e-14
1.06203e-13
2.47144e-13
1.17345e-14
-2.58879e-13
-1.39285e-14
1.11239e-15
-2.45745e-13
-1.17859e-14
2.57531e-13
2.07198e-13
-7.823e-15
1.94251e-13
4.15469e-15
6.79317e-14
-1.18578e-14
-9.46453e-15
2.13223e-14
-1.9345e-15
4.90273e-15
-2.96823e-15
2.18295e-15
-4.93249e-15
2.02721e-13
-2.05986e-13
3.26498e-15
1.99676e-13
-1.95412e-13
-4.26417e-15
-4.68094e-16
5.17715e-15
-2.82345e-14
-5.73115e-14
1.11023e-14
1.55058e-14
-1.84873e-14
8.16841e-15
-1.02835e-14
1.7089e-13
8.90876e-15
-1.35084e-13
2.77253e-13
1.36659e-14
-2.26967e-13
8.28315e-16
1.46775e-14
-1.57172e-13
2.52597e-14
-4.99048e-15
-3.83585e-14
4.72673e-14
2.25375e-13
-1.63554e-13
-1.31718e-14
-1.43195e-13
1.53463e-13
7.74169e-14
-8.52399e-14
7.70962e-14
-7.29415e-14
1.43457e-13
-1.68474e-14
-2.51357e-15
1.9361e-14
-1.39285e-14
-2.82345e-14
5.43315e-14
-4.19428e-14
-1.58459e-13
-1.04895e-13
7.74169e-14
7.70962e-14
3.36172e-15
-9.75382e-15
1.36547e-13
-1.26793e-13
-6.92201e-14
-2.6312e-14
-5.72446e-15
-4.93248e-15
-6.05843e-14
-1.11237e-15
3.261e-14
7.86768e-14
8.99489e-15
2.8047e-14
-3.70419e-14
2.21507e-14
2.07763e-14
2.05267e-13
2.85111e-14
3.14723e-14
1.19432e-14
-3.85964e-14
2.66532e-14
1.37452e-14
1.97854e-13
-2.39797e-13
5.65831e-15
-2.66969e-13
2.64866e-13
3.85964e-14
-4.83502e-14
4.90273e-15
8.99989e-15
8.96703e-14
3.4308e-14
-1.04705e-13
2.67154e-14
2.26157e-13
3.1842e-14
-2.38256e-14
2.1312e-14
1.98546e-14
-3.87993e-15
-1.99457e-14
2.65152e-14
-1.75203e-14
-3.83585e-14
8.03612e-14
2.44614e-14
1.13285e-14
-3.57899e-14
7.31527e-14
2.41671e-14
1.16202e-14
9.69187e-15
1.305e-14
9.10068e-15
4.51569e-15
-6.25279e-15
1.3584e-14
-1.3584e-14
2.12717e-14
-1.71659e-13
-2.0619e-13
2.14488e-15
-2.83692e-14
-1.15493e-14
1.15493e-14
-8.99989e-15
-4.34048e-14
-1.93437e-14
1.87855e-14
5.58167e-16
1.93437e-14
-7.7944e-15
3.02742e-14
2.12717e-14
-2.15064e-13
-3.80894e-14
3.92583e-14
8.90322e-15
-1.01643e-14
1.26108e-15
1.34189e-14
2.66697e-14
1.01814e-14
1.82509e-14
-2.84322e-14
-5.67158e-15
1.5853e-14
-1.0481e-13
1.47236e-14
-2.48879e-14
3.04233e-14
-1.88031e-14
1.9967e-14
-1.16431e-14
-2.10662e-14
1.63424e-13
2.31108e-14
1.68182e-15
2.74885e-14
-2.91703e-14
-7.38501e-15
2.45391e-14
-1.42836e-15
2.33543e-13
4.4105e-15
2.01286e-14
-8.32723e-15
2.72766e-13
-3.06873e-14
2.92589e-14
-2.32061e-14
-1.52333e-14
2.82833e-14
-2.6396e-16
3.24311e-14
3.66777e-15
-2.84617e-14
9.65854e-15
5.05263e-14
-3.22754e-14
-7.35312e-15
9.78033e-14
-2.27265e-13
1.29461e-13
5.64604e-14
-5.64604e-14
-5.16919e-14
5.16919e-14
-6.15592e-14
6.15592e-14
6.13945e-14
-6.13945e-14
6.71702e-14
-6.78852e-14
-2.22988e-14
-2.96028e-14
5.19016e-14
8.76187e-14
-4.03991e-14
3.30459e-14
-8.6061e-14
8.6061e-14
-8.34129e-14
-8.32295e-14
8.32295e-14
-1.76271e-14
1.35067e-13
-1.1744e-13
4.18105e-14
-1.01272e-14
-7.53212e-14
8.54484e-14
-5.28052e-14
5.28052e-14
-3.37498e-14
2.09126e-13
-1.75376e-13
-9.29483e-14
-2.4437e-13
4.62129e-15
-9.79034e-14
-9.32262e-14
1.86842e-13
7.29863e-14
-1.46567e-13
2.56068e-13
9.32594e-14
-1.57122e-14
-5.09876e-15
9.7026e-15
1.31336e-13
2.38286e-14
-3.59309e-14
-1.38114e-13
1.74045e-13
9.91365e-14
-1.71864e-13
-9.79196e-15
-1.11331e-15
1.25084e-15
-8.49254e-14
-1.42339e-13
1.24201e-13
-1.88395e-13
-3.29054e-13
1.13491e-13
-5.0845e-14
-1.21544e-13
1.72389e-13
-2.30665e-14
-3.42387e-14
4.55576e-15
2.96829e-14
-1.93184e-13
-1.77943e-14
1.77943e-14
-4.0491e-15
4.71341e-16
8.78511e-14
-2.8088e-16
-1.00623e-15
3.94475e-15
-1.79321e-13
-2.10195e-13
1.8924e-13
-1.65411e-13
8.37821e-14
-2.07983e-13
6.14161e-14
2.43658e-13
1.58456e-13
7.95264e-14
-3.59189e-14
-1.44839e-13
6.01649e-14
1.34482e-13
-1.04857e-13
-1.82925e-13
1.56553e-14
6.11974e-14
-2.06013e-13
-1.79101e-13
1.60145e-13
2.12111e-13
1.94576e-13
-2.3077e-13
3.61949e-14
-6.50267e-14
-2.11243e-14
-4.47286e-14
-1.20221e-14
-6.50267e-14
-4.52214e-14
-2.85728e-13
-2.56105e-14
3.11338e-13
2.1364e-14
7.30767e-14
9.91523e-14
1.9341e-16
1.05743e-15
-5.95394e-14
5.95394e-14
1.99308e-13
4.56272e-14
9.33069e-14
1.37891e-13
-1.79584e-13
-2.17418e-13
3.80964e-14
1.94524e-14
8.29771e-15
2.98817e-14
-4.13217e-14
1.14399e-14
-1.29621e-14
6.26405e-15
-1.23704e-13
3.04399e-14
-2.15659e-13
1.90049e-13
-8.8697e-15
-1.11483e-14
1.73126e-13
-2.80883e-16
-8.93896e-14
1.93412e-16
-1.59955e-13
3.29086e-14
-1.01234e-14
3.30814e-14
-9.82067e-14
2.27668e-13
3.72459e-14
-1.772e-13
-7.58912e-14
-9.77625e-14
-6.98071e-14
-1.9412e-15
1.27503e-13
4.74872e-14
-1.22215e-14
-1.96262e-14
5.76615e-14
6.62991e-15
5.68822e-14
3.47635e-14
1.656e-13
2.33616e-13
6.46021e-15
-4.06989e-14
6.48805e-15
-6.98071e-14
-3.5008e-15
5.17989e-15
-3.33507e-14
3.74783e-15
1.64402e-13
1.03943e-13
-1.85143e-13
5.68822e-14
7.30767e-14
3.85695e-14
2.55604e-13
2.46844e-14
6.60789e-15
-1.43389e-13
-5.07306e-17
5.07306e-17
-3.28706e-15
2.20191e-13
5.1855e-17
-5.1855e-17
1.85394e-13
-1.97159e-15
-5.6942e-17
1.89567e-13
-5.07331e-17
5.18545e-17
2.18844e-13
-5.44424e-14
-1.5561e-13
2.91109e-14
-2.06543e-13
3.06409e-15
2.1158e-15
1.39776e-13
-1.44875e-13
-2.22974e-16
-1.74653e-14
-2.38565e-14
2.35402e-14
-1.94312e-14
2.74683e-16
-2.24628e-15
8.07554e-15
-1.28778e-13
1.27664e-13
2.57681e-14
2.41204e-14
1.03362e-14
-2.22557e-13
-8.93784e-14
1.94911e-14
1.6446e-14
1.88107e-13
5.5459e-16
-5.19952e-16
6.62901e-14
-1.03009e-13
-2.60628e-14
-2.44095e-13
-2.79459e-14
-1.53912e-13
-7.10786e-15
1.21386e-13
-1.23316e-13
6.55094e-15
3.31616e-16
-2.45267e-16
1.79872e-14
-7.5829e-14
-4.9061e-14
-2.47132e-14
)
;

boundaryField
{
    front
    {
        type            empty;
        value           nonuniform List<scalar> 0();
    }
    back
    {
        type            empty;
        value           nonuniform List<scalar> 0();
    }
    bottom
    {
        type            calculated;
        value           nonuniform List<scalar> 
12
(
-8.64023e-14
-2.41305e-13
2.00402e-13
-2.00658e-13
1.16648e-13
2.66532e-14
-2.67154e-14
2.03501e-13
2.41259e-13
-2.03081e-13
-1.16453e-13
8.6151e-14
)
;
    }
    left
    {
        type            calculated;
        value           uniform 0;
    }
    top
    {
        type            calculated;
        value           uniform 0;
    }
    right
    {
        type            calculated;
        value           uniform 0;
    }
    inner_arc
    {
        type            calculated;
        value           uniform 0;
    }
}


// ************************************************************************* //
