/*--------------------------------*- C++ -*----------------------------------*\
  =========                 |
  \\      /  F ield         | OpenFOAM: The Open Source CFD Toolbox
   \\    /   O peration     | Website:  https://openfoam.org
    \\  /    A nd           | Version:  9
     \\/     M anipulation  |
\*---------------------------------------------------------------------------*/
FoamFile
{
    format      ascii;
    class       volVectorField;
    location    "1.79";
    object      U;
}
// * * * * * * * * * * * * * * * * * * * * * * * * * * * * * * * * * * * * * //

dimensions      [0 1 -1 0 0 0 0];

internalField   nonuniform List<vector> 
942
(
(0.0228477 -0.0699996 0)
(-0.0246255 -0.00441371 2.70137e-17)
(0.0402237 0.112189 0)
(0.00964363 -0.0788753 -1.4282e-17)
(0.0421208 0.123313 8.56637e-18)
(0.038983 -0.0549327 1.50904e-17)
(0.00529028 -0.00775806 3.97295e-17)
(0.0489661 -0.0761704 0)
(0.0041875 -0.0484474 -3.12808e-17)
(0.00501081 -0.0530567 3.18847e-17)
(0.0523537 0.0391448 0)
(0.152219 -0.00191654 0)
(0.00918105 -0.0802294 1.33196e-17)
(0.0491877 0.0443413 0)
(0.155101 0.0113258 0)
(-0.0357884 -0.00506147 -2.93564e-17)
(-0.0163495 -0.0304357 -1.15845e-17)
(0.0195778 -0.0700024 0)
(-0.0153381 -0.0191578 -3.46774e-18)
(-0.0201532 -0.016159 5.30527e-18)
(0.00106791 -0.0141524 1.97537e-17)
(0.166132 -0.0114449 1.57846e-17)
(0.0195395 -0.0258903 0)
(-0.0198319 -0.0379562 -3.13461e-17)
(0.0629545 0.0449828 0)
(-0.0252629 -0.0468375 2.35557e-17)
(0.0445045 0.12506 0)
(0.0205136 -0.0329105 2.00225e-17)
(-0.0377359 -0.0427308 0)
(0.0154739 -0.0510828 1.26463e-17)
(-0.0289655 -0.0331955 1.58792e-17)
(0.037796 0.116362 0)
(-0.0333769 -0.0401265 1.49386e-17)
(-0.00125074 0.0513838 1.75709e-17)
(0.0530705 0.109132 -1.7202e-17)
(0.00940671 -0.0282776 3.30104e-17)
(0.026405 -0.0560666 1.11599e-18)
(0.00509664 -0.0414191 0)
(0.0329967 -0.0523974 -5.69943e-19)
(-0.021602 -0.033869 2.23719e-17)
(-0.0500461 0.0675344 -3.12973e-17)
(0.000967562 -0.139885 0)
(-0.013028 -0.0166455 -1.54734e-17)
(0.00720168 -0.0154361 -1.32453e-17)
(0.00794509 -0.0135094 -3.35098e-17)
(-0.0309932 -0.0391647 7.5551e-18)
(-0.0152815 -0.00949331 -1.53797e-17)
(-0.0178823 0.0381881 -1.4506e-17)
(-0.0905852 0.0633268 1.61068e-17)
(0.05991 0.0529441 1.88612e-17)
(-0.0195296 -0.0159644 0)
(0.0120375 -0.0159311 0)
(0.00366173 -0.0186087 -2.22777e-17)
(-0.000276931 -0.0391582 1.77551e-17)
(0.00513392 -0.0656226 0)
(-0.0890673 -0.0199317 -1.17654e-17)
(0.0243977 0.00481813 -2.98022e-17)
(0.00650901 -0.0687268 -2.13627e-18)
(0.0122324 0.0119545 3.81705e-17)
(0.128895 0.0248634 1.64751e-17)
(0.0116566 -0.0376123 -1.57202e-17)
(0.0485926 0.116335 -4.04795e-17)
(0.0297427 0.0615526 1.88881e-17)
(0.0238303 -0.0635748 -1.54074e-17)
(0.00735245 -0.0421789 1.461e-17)
(-0.0219945 0.0216234 1.12401e-17)
(0.0413512 0.108087 3.16513e-17)
(0.0107574 0.00100732 -1.45709e-17)
(-0.111943 0.00353305 1.48765e-17)
(0.0203574 -0.0412786 4.107e-18)
(-0.0321016 -0.0102845 0)
(0.00605839 -0.0329698 0)
(-0.0402142 -0.00464402 -1.94347e-18)
(0.0143998 -0.0575039 3.79159e-18)
(-0.00636463 -0.0410845 -1.68245e-17)
(-0.00632334 -0.0162766 2.46051e-22)
(-0.0300048 -0.0168894 1.95502e-18)
(0.0449871 0.0996213 1.74829e-17)
(-0.0191065 -0.0214494 -1.90025e-17)
(-0.0238579 0.00668065 -3.84809e-18)
(0.0172779 -0.0212825 2.27854e-17)
(-0.0301324 -0.0430198 -8.19468e-18)
(0.0508917 0.0258545 -2.06899e-18)
(-0.0304788 0.00813795 8.47209e-18)
(-0.0235238 0.0244803 0)
(0.0328336 0.134186 0)
(0.11021 0.0182046 -1.72877e-17)
(0.0852616 -0.00413833 4.75074e-18)
(0.0573329 0.0529219 0)
(0.0603957 0.0269232 2.36617e-17)
(0.015206 -0.106416 -1.20343e-17)
(0.0297666 0.0524518 5.459e-19)
(0.00650322 -0.0749016 2.40394e-18)
(-0.0603084 -0.00187915 0)
(-0.0813062 -0.0556772 -4.63799e-18)
(0.0430702 -0.0126334 8.59625e-18)
(-0.0257253 -0.135612 1.47137e-17)
(0.0607351 -0.0100915 -1.38434e-17)
(0.0261802 -0.0319125 -2.05492e-17)
(0.0071973 -0.0333836 -2.93465e-17)
(0.0110344 -0.0313015 -8.82018e-18)
(0.00554312 -0.0769613 9.9531e-18)
(-0.0118179 -0.0071536 0)
(0.0179693 -0.0357824 1.1299e-17)
(-0.0539695 -0.0834906 -1.77896e-17)
(0.012152 -0.0306153 -2.88039e-17)
(-0.0287808 -0.0387023 -1.01522e-17)
(-0.0334261 -0.040537 0)
(0.00563675 0.0151233 1.57015e-17)
(-0.00468589 -0.000769508 0)
(-0.100979 -0.00428217 0)
(-0.117118 0.0386651 -1.5695e-17)
(0.0864943 0.00781074 3.14629e-17)
(0.00579657 -0.0373303 0)
(0.0611772 0.0481788 0)
(0.0168204 0.0299473 2.12926e-18)
(0.123051 -0.0144428 -1.69131e-17)
(0.0127604 -0.0776656 1.80483e-17)
(0.0041311 -0.0159273 -2.66514e-24)
(0.115994 0.107597 -2.05895e-18)
(0.0077389 -0.0164457 6.87273e-18)
(-0.0529837 -0.0318923 -1.77029e-17)
(-0.00309808 -0.00142405 0)
(-0.0558946 -0.0035157 1.55975e-17)
(-0.0546897 0.00290616 1.263e-17)
(-0.0181176 -0.0374384 -3.37356e-17)
(0.00627404 -0.00902089 1.78151e-17)
(-0.0214939 -0.0250314 -1.70109e-17)
(-0.0238567 -0.0298971 3.11111e-17)
(-0.00582166 -0.0171085 1.62862e-17)
(0.004874 -0.00270927 -8.38913e-18)
(-0.00369374 -0.0125257 -1.94059e-17)
(0.00537322 0.00529849 0)
(-0.046538 0.0275818 0)
(-0.0125765 0.0256612 -1.74359e-17)
(-0.015655 -0.0216313 -1.21176e-17)
(-0.0983368 0.0211848 1.05222e-18)
(0.00364619 0.00995792 0)
(-0.144617 0.0468236 2.1482e-17)
(-0.136889 0.0555994 -7.35947e-18)
(-0.0928272 0.0440717 1.7334e-17)
(-0.0220128 -0.0268045 0)
(0.0950924 -0.00932733 -1.73059e-17)
(-0.00556712 -0.0246441 1.87317e-17)
(0.0565139 -0.0694851 -4.35531e-18)
(-0.0334412 -0.0392526 -7.91397e-18)
(0.0150712 -0.0304451 0)
(0.0078672 -0.0381699 -1.04884e-17)
(0.00811137 -0.0507223 2.64561e-17)
(0.0378377 0.138869 0)
(0.0741432 -0.0830389 4.70586e-18)
(0.143451 0.0981103 5.18783e-18)
(0.050113 0.0812345 0)
(0.022986 -0.0374478 9.82334e-18)
(0.0481918 0.0911026 -1.7107e-17)
(0.0328431 -0.0465733 0)
(-0.0146967 0.026132 1.93092e-17)
(0.00179644 -0.016023 0)
(0.140043 -0.000276606 0)
(0.0187949 -0.0168174 7.13928e-18)
(0.000376306 0.0356852 -2.49379e-17)
(0.0292392 -0.0401444 0)
(0.00649633 -0.0768509 0)
(0.125001 -0.0446088 8.74643e-18)
(0.128769 0.0905339 0)
(0.0482185 0.050746 -2.61411e-17)
(0.0139629 -0.0357249 0)
(0.0231724 -0.0456462 0)
(-0.0331544 -0.0431919 1.5429e-17)
(-0.00417924 0.00110993 1.84484e-17)
(0.0303059 0.0324718 -1.5343e-17)
(-0.0961253 0.0381779 -2.02417e-18)
(-0.091315 -0.0279578 5.47424e-21)
(0.018058 -0.0352906 9.87622e-18)
(0.0356886 0.148695 0)
(0.0241323 -0.0614832 -1.91713e-17)
(0.0326242 -0.00562404 -1.81793e-17)
(0.0221492 -0.0625185 0)
(-0.0305988 -0.0222111 6.31702e-19)
(0.028769 -0.0649729 0)
(0.0176912 -0.031361 -1.1534e-17)
(-0.0375871 -0.0433866 0)
(0.00979081 -0.0575814 -2.26069e-17)
(0.0270509 -0.0663804 2.1153e-22)
(0.0166419 -0.0659451 -1.14182e-17)
(-0.0369504 -0.046344 0)
(0.0970149 -0.0383776 -8.99039e-18)
(0.0315492 0.0803529 1.80513e-17)
(0.0454825 0.15181 2.56105e-17)
(0.0319535 -0.0685919 8.63365e-18)
(0.0706679 0.134976 3.45747e-17)
(0.0331847 -0.0669467 -8.65263e-18)
(0.0210072 -0.0477024 -1.09639e-17)
(-0.0173799 -0.0167068 -1.66138e-17)
(0.0266874 0.065396 9.14099e-18)
(0.0114781 -0.0787419 -8.21917e-18)
(0.0304023 0.0665078 0)
(0.0196233 -0.0536591 2.93792e-17)
(-0.0432885 0.0719353 -2.12298e-17)
(7.45805e-05 -0.00632711 1.60074e-17)
(0.000798968 -0.00930433 0)
(0.0145779 -0.0785567 8.34383e-18)
(0.0104289 0.0274368 0)
(-0.0241086 -0.0348588 -1.94e-17)
(0.0598867 -0.00101916 1.83682e-17)
(-0.0546411 0.0357974 0)
(-0.0853417 -0.0650487 1.82075e-17)
(0.0434685 0.113638 -3.97715e-17)
(-0.0038756 -0.0114585 -1.54647e-17)
(-0.00772462 -0.0326419 1.52921e-17)
(0.0340129 0.0825826 -8.86508e-18)
(0.0159526 -0.0754842 3.50126e-22)
(0.00832676 -0.0585991 1.41647e-17)
(0.0586147 0.135507 8.41967e-18)
(-0.00047809 0.00265817 0)
(0.0264323 -0.0769536 -8.83236e-23)
(0.0465311 0.156132 -2.10337e-17)
(0.0957648 0.116559 1.76726e-17)
(0.0408231 0.0864717 1.75617e-17)
(0.0390301 0.0725916 -2.79535e-22)
(0.0315347 -0.0750603 0)
(0.0246522 -0.0768178 -1.69719e-17)
(0.0360684 -0.0690109 0)
(0.0212725 -0.077015 0)
(0.00202319 -0.00971841 -1.77209e-17)
(0.0142553 0.0504274 1.7604e-17)
(0.0644492 0.137083 -1.2403e-17)
(0.0363698 -0.0715513 -1.74392e-17)
(0.00256953 -0.00648128 2.59767e-17)
(0.0319019 0.0455191 0)
(-0.0311965 -0.0361866 -1.61915e-17)
(0.0490969 0.1255 -3.11054e-17)
(0.0159783 0.0400311 1.70524e-17)
(0.00346435 -0.00712554 -9.33978e-18)
(0.0295655 -0.0764181 -8.77042e-18)
(0.0137168 -0.0722353 2.8147e-22)
(0.0913267 0.119722 -1.8335e-17)
(0.0345649 -0.0742908 1.7518e-17)
(0.0126334 0.0271232 -1.68366e-17)
(0.0532428 0.0916239 1.73638e-17)
(0.0527084 0.0795035 0)
(0.0233543 -0.04268 -4.27342e-18)
(0.039086 -0.0714485 8.64027e-18)
(0.0231711 -0.0534819 -9.76412e-18)
(0.0272226 -0.0573487 -1.7277e-17)
(0.00616364 0.0223535 -1.75109e-17)
(0.0397081 -0.0669142 8.69603e-18)
(0.0244963 -0.0768375 -9.42088e-18)
(0.0387332 -0.0708145 -1.74459e-17)
(0.0132139 0.0313145 4.30726e-18)
(0.066966 0.139924 -4.36754e-18)
(-0.0211139 0.0458089 -1.60847e-17)
(0.0761115 0.134939 0)
(-0.00228387 0.0146751 1.30088e-17)
(0.0309298 -0.0605139 1.71653e-17)
(0.0190971 -0.0750898 1.90794e-17)
(0.0372445 -0.0719854 0)
(0.0369881 -0.0666384 0)
(0.101353 0.112046 -8.64017e-18)
(0.0234273 -0.0502951 9.72649e-18)
(0.0294904 -0.0734687 -8.58253e-18)
(0.105207 0.112035 8.49516e-18)
(0.0649969 0.128384 -2.13307e-17)
(0.0339005 -0.0616306 -4.53772e-18)
(0.0378276 -0.0632561 9.03305e-18)
(0.00706952 -0.0494892 0)
(0.0270875 -0.055068 0)
(0.0413796 -0.0646446 0)
(-0.0194261 -0.0175864 1.64717e-17)
(0.0422206 -0.0667293 8.79436e-18)
(0.0392071 -0.0644167 1.66416e-17)
(0.0532832 0.149009 -1.5913e-17)
(-0.015829 0.073206 1.87673e-17)
(0.0577792 0.143242 -8.39193e-18)
(0.0475672 0.112897 1.76602e-17)
(0.0969335 0.107127 -1.75962e-17)
(-0.0131434 -0.015782 0)
(0.0407947 -0.0607097 0)
(0.0657129 0.124164 -8.70037e-18)
(0.0134692 -0.0175846 -1.80934e-17)
(0.0299987 -0.0582579 0)
(-0.0116302 -0.0368638 -1.48623e-18)
(0.0203986 -0.0251755 1.83661e-17)
(0.0435833 -0.062291 0)
(0.0681953 0.0332307 3.43138e-17)
(0.149652 0.00112607 -1.69509e-17)
(0.0420405 -0.0581081 2.58196e-17)
(0.0458387 -0.0634246 1.71629e-17)
(0.0334362 -0.0581403 4.4453e-18)
(0.0380357 -0.0602926 4.41978e-18)
(0.0621761 0.0365397 -1.74022e-17)
(0.0356799 0.0873607 2.03498e-17)
(0.0894349 0.0950284 -7.87633e-18)
(5.94288e-05 -0.110757 1.92726e-17)
(0.0359566 -0.0501012 4.89229e-18)
(-0.00539672 -0.0273066 -1.57604e-17)
(0.148498 0.0498698 0)
(0.151695 0.0235739 8.80118e-18)
(0.148174 0.0695369 8.17854e-18)
(0.154868 -0.0205106 0)
(0.133217 -0.0493714 0)
(0.0411293 -0.0541786 -8.83367e-18)
(0.159993 0.116699 -3.94306e-18)
(0.134016 0.0577465 -2.74895e-17)
(0.104851 -0.0435996 -2.73944e-17)
(0.0413078 -0.0700224 8.61653e-18)
(0.0713614 -0.0613643 -2.7415e-17)
(0.0280519 -0.0052841 0)
(-0.0114037 -0.00636711 -7.96728e-18)
(0.0165637 0.0246813 1.66549e-17)
(4.08812e-06 -0.00342319 1.3508e-17)
(0.0116415 0.00563639 2.67597e-22)
(0.0487411 -0.0310144 -2.38079e-18)
(-0.041029 -0.00695513 -1.66032e-17)
(0.0020328 -0.149361 3.0408e-21)
(0.0107854 0.0101723 2.68169e-17)
(0.00455568 -0.00800565 -1.82449e-17)
(0.00106926 0.00917278 -1.32047e-21)
(0.00569738 0.00114488 -4.72267e-18)
(0.0537688 -0.0115615 0)
(-0.0257653 -0.0138491 -4.87412e-18)
(0.0126991 0.0142935 0)
(0.000953731 -0.00307907 1.91448e-17)
(-0.0351737 0.00153518 -3.41411e-17)
(0.0430526 0.0883717 -2.14689e-17)
(0.106608 0.104964 -1.74861e-17)
(0.0110659 0.0077126 0)
(0.0118669 -0.110365 -8.86285e-18)
(0.022158 -0.154295 0)
(0.0119981 -0.0169099 0)
(0.0427532 0.00647826 -3.44757e-17)
(0.0317601 -0.0748175 -1.51725e-17)
(0.0464173 -0.123688 8.61039e-18)
(0.163357 0.110879 -1.54836e-17)
(0.0456737 -0.0995029 0)
(0.0549449 0.00387918 1.72483e-17)
(0.113988 0.0187397 9.84737e-18)
(-0.0108249 -0.0317409 -5.08653e-19)
(0.00795368 -0.0249492 0)
(-0.0340149 -0.00604552 -1.70587e-17)
(0.0655012 -0.0352824 2.52737e-17)
(0.0785125 -0.0291679 -1.72411e-17)
(0.0500844 -0.100501 -4.48267e-18)
(0.0523334 -0.0218051 -4.3023e-17)
(0.146352 -0.0233477 -1.74141e-17)
(0.0192269 -0.00729095 0)
(0.151157 -0.0520653 1.76896e-17)
(0.0196824 -0.163047 1.71156e-17)
(0.0441196 -0.0659678 1.71599e-17)
(0.141518 0.0178574 -8.58001e-18)
(0.0328229 -0.0183157 1.72547e-17)
(0.140777 0.060146 6.02988e-23)
(0.0168254 -0.132044 -4.3633e-17)
(0.146548 0.0942056 -8.99508e-18)
(0.000359169 -0.0309032 -1.54037e-17)
(0.0417628 -0.0765555 0)
(0.147447 -0.0541506 1.74039e-17)
(0.0309638 -0.0899491 0)
(0.139993 -0.0312118 8.5519e-18)
(0.10607 -0.035587 1.72318e-17)
(0.161232 0.107946 2.18696e-17)
(0.127414 -0.103936 0)
(0.110083 0.0286553 -2.4284e-18)
(0.0413563 -0.068503 1.46501e-17)
(0.164686 0.070938 -1.73385e-17)
(0.0937839 0.0525235 9.1025e-18)
(0.155356 -0.0588351 -8.71794e-18)
(0.00602867 0.000486328 3.98662e-17)
(0.108818 -0.0485352 2.59138e-17)
(0.0544524 -0.0320524 -4.49884e-18)
(0.0936774 0.100228 0)
(0.0371476 -0.0329891 1.70427e-17)
(0.0130972 0.00379248 -8.65876e-18)
(0.0499774 -0.153263 -1.65906e-17)
(0.0918976 -0.020068 8.67386e-18)
(0.137424 -0.00318831 8.58708e-18)
(0.115011 -0.0308652 8.67525e-18)
(0.147367 -0.0384508 1.77573e-17)
(0.0437642 -0.0701562 8.46311e-18)
(0.131937 0.0379092 8.56319e-18)
(-0.00631266 -0.00616929 1.94653e-17)
(0.004134 -0.00749038 0)
(-0.0190178 0.00413953 1.74195e-17)
(-0.0481937 0.000246668 0)
(-0.00524057 -0.00845719 4.32721e-18)
(0.131574 0.0757974 2.70219e-17)
(0.168923 0.0947202 3.40891e-17)
(0.149545 0.0435547 2.64201e-18)
(0.155227 -0.055425 -3.53615e-17)
(0.14073 0.0982702 -3.61213e-17)
(0.0151075 0.000167626 -8.85499e-18)
(-0.100035 0.0453316 -4.38093e-18)
(0.0508004 -0.097497 0)
(0.0599793 0.0612868 1.77743e-17)
(-0.0553414 0.0157087 4.63721e-18)
(0.0658739 -0.13769 0)
(0.165945 -0.051017 1.69039e-17)
(0.00689047 -0.00409056 4.54218e-18)
(-0.0122298 -0.0143166 8.94504e-18)
(-0.0890137 0.0291336 -1.12212e-18)
(-0.0830367 0.038369 -7.7408e-18)
(0.0323256 -0.155587 -2.54573e-17)
(0.0887511 0.0315917 0)
(0.136978 -0.0822731 8.10159e-18)
(0.130578 -0.00607106 0)
(0.090145 0.0128753 0)
(0.0244199 -0.0391961 0)
(0.152681 -0.0442669 0)
(0.0691349 -0.124903 8.53677e-18)
(0.00718772 -0.01142 2.61055e-17)
(-0.0130601 -0.0164039 -1.86427e-17)
(0.126669 0.0689884 8.592e-18)
(0.130625 -0.104554 0)
(0.157365 0.098645 2.5678e-17)
(0.17194 0.0455149 0)
(0.0456584 -0.0734947 -8.63692e-18)
(0.03726 -0.0868189 8.63137e-18)
(0.0853054 -0.146578 8.50081e-18)
(0.0968038 0.0465544 1.72026e-17)
(0.063487 -0.155142 8.49527e-18)
(0.101417 -0.121127 1.78757e-17)
(0.124822 -0.0739164 -3.43226e-17)
(0.0645295 -0.113614 0)
(0.0411724 -0.119239 -8.49113e-18)
(0.160941 0.00966558 1.71355e-17)
(0.178182 0.0944861 -1.70942e-17)
(0.105883 0.00220696 0)
(0.0704838 -0.0181865 1.80094e-17)
(0.107544 0.0811701 1.72908e-17)
(0.0289015 0.0486288 -3.21299e-17)
(0.0552637 0.0201967 0)
(0.115428 0.0839048 1.72689e-17)
(0.0725063 0.059394 0)
(0.115095 -0.00998395 0)
(0.0179328 -0.031865 0)
(0.0880974 -0.13505 0)
(0.105124 0.029348 2.57749e-17)
(0.0544833 -0.141541 0)
(0.100406 -0.111935 8.60686e-18)
(0.0803797 0.0687185 -1.8134e-17)
(0.0491812 -0.160431 8.47896e-18)
(0.178595 -0.0234583 -1.56551e-17)
(0.125733 -0.0393669 -1.72223e-17)
(0.0698062 0.0593285 0)
(0.0458218 -0.0698559 -1.71734e-17)
(0.130013 0.0837391 -2.5754e-17)
(0.145567 -0.0120738 0)
(0.14244 0.00783227 0)
(0.11121 -0.12286 0)
(0.0274421 -0.123388 1.70854e-17)
(0.146877 -0.0424879 9.04881e-22)
(0.115257 0.0206358 6.80368e-23)
(0.0895043 -0.00572976 -1.77879e-17)
(0.0351414 -0.136814 0)
(0.147284 -0.0094623 0)
(0.105927 0.0367804 0)
(0.134689 0.00578518 0)
(0.00404632 -0.00264942 0)
(0.0391249 -0.0989001 -8.58971e-18)
(0.125441 0.00899754 -1.74911e-17)
(0.106991 0.0630865 2.58243e-17)
(0.112027 -0.00750628 -8.60627e-18)
(-0.0353531 -0.0414939 1.73244e-17)
(0.14481 -0.0280566 -8.54151e-18)
(0.0819912 0.0654301 8.729e-18)
(0.123034 -0.0235718 -8.58856e-18)
(0.0418651 -0.0780514 0)
(0.096347 0.0713538 -1.72815e-17)
(0.0907265 0.0442522 -3.43404e-17)
(0.125928 0.0812542 0)
(0.093315 0.0108538 -1.72087e-17)
(0.0766628 -0.023161 -1.74791e-17)
(0.105184 -0.0222331 0)
(0.175373 0.0726909 0)
(0.110211 0.0670014 8.62267e-22)
(0.0939064 0.093501 7.81559e-18)
(0.151437 -0.0552376 0)
(0.11243 -0.0448789 -2.57522e-17)
(0.186919 0.0550902 0)
(0.0839858 0.0608715 0)
(0.0423307 -0.0691174 -1.70802e-17)
(0.106121 0.0742788 -1.71625e-17)
(0.139748 -0.0545091 0)
(0.128364 0.0728254 -1.71249e-17)
(0.169077 -0.0181425 -8.55565e-18)
(0.131324 0.0433414 1.71382e-17)
(0.153493 0.066243 -1.75742e-17)
(0.122597 -0.046073 1.721e-17)
(0.154755 -0.0737345 0)
(0.124169 0.0904157 -8.55265e-18)
(0.108875 0.0739812 -3.02821e-17)
(0.142824 0.0284527 0)
(0.124618 0.0778849 0)
(0.138601 -0.0498597 2.56509e-17)
(0.0451824 -0.0680693 -1.67871e-17)
(0.107122 0.107799 0)
(0.132416 0.059757 1.71229e-17)
(0.0940148 0.11014 3.60655e-17)
(0.138414 0.0266421 -1.71322e-17)
(0.0426806 -0.0885086 0)
(0.122097 0.0386211 3.65028e-17)
(0.114865 0.0879589 8.5491e-18)
(0.0437497 -0.0936741 0)
(0.107402 0.100639 1.71098e-17)
(0.0618303 -0.0379168 -9.44485e-18)
(0.0966832 0.103995 0)
(0.0945461 -0.0432934 0)
(0.0265783 -0.010421 0)
(0.0599316 0.0483187 1.51606e-17)
(0.0169461 0.00809411 -8.35941e-18)
(0.182092 -0.00189515 -2.08443e-17)
(0.113248 0.0942774 0)
(0.107282 0.101594 8.79269e-18)
(0.098581 0.084362 -1.71342e-17)
(0.106459 0.0811733 2.89003e-17)
(0.046319 -0.070866 0)
(0.0992974 0.0910403 -7.43341e-18)
(0.113942 0.103959 0)
(0.0532661 -0.00889533 0)
(0.042737 0.0302553 0)
(0.168568 0.032903 0)
(0.0879326 -0.0429159 8.63726e-18)
(0.0648678 0.00486207 0)
(0.114774 0.0991171 0)
(0.0473926 0.0172023 -8.72319e-18)
(0.051185 0.0424204 -8.56021e-18)
(0.135188 0.0585179 0)
(0.0967961 0.097275 0)
(0.135248 0.0416036 0)
(0.0629129 0.0331678 3.43894e-17)
(0.068152 -0.0314161 2.61355e-17)
(0.123815 0.0656924 0)
(0.181472 0.024866 1.47455e-17)
(0.0673712 0.114826 -1.73146e-17)
(0.098497 0.0893237 1.71391e-17)
(0.0844077 0.0920199 -1.71796e-17)
(-0.00128557 -0.00648123 -3.95283e-22)
(0.102405 0.0879657 0)
(0.0399044 -0.0676975 0)
(0.0715073 0.130028 1.66086e-17)
(0.0278236 -0.0639919 0)
(0.115979 0.0915179 0)
(0.0603492 0.0455595 -1.53231e-17)
(0.0380087 -0.0556627 -2.17921e-17)
(0.045112 0.0373364 0)
(0.0322321 0.0364763 -1.72299e-17)
(0.116037 0.0974337 0)
(0.0827421 0.0741054 -1.71733e-17)
(0.0482545 0.0493052 -8.62247e-18)
(0.0490994 0.0586366 3.44975e-17)
(0.0837856 0.0797988 0)
(0.106983 0.105963 -1.70962e-17)
(0.0803031 0.114717 8.62175e-18)
(0.0663926 0.0633972 0)
(0.0620595 0.138274 2.16069e-17)
(0.0668983 0.0695325 -8.61402e-18)
(0.0688236 0.0958521 -1.72556e-17)
(0.106532 0.0426855 -1.60692e-17)
(0.0591399 0.143966 -8.69624e-18)
(0.107765 0.0566853 0)
(0.0992026 0.117718 -1.72922e-17)
(0.0351408 -0.073404 0)
(0.0259123 -0.0737293 2.55959e-17)
(0.0842467 0.100384 2.57985e-17)
(0.0805594 0.130378 1.72407e-17)
(0.00195064 0.00452402 3.48968e-17)
(0.0259169 0.018796 -9.2145e-18)
(-0.0252701 -0.0268816 -1.75356e-17)
(0.0849752 0.128217 0)
(0.011142 -0.0579474 0)
(0.078084 0.123351 -1.72785e-17)
(0.0556775 0.141378 3.59776e-17)
(0.0220587 0.0151206 0)
(0.069116 0.0863324 -2.58384e-17)
(0.0249953 -0.0731068 -3.11775e-22)
(0.055796 0.113765 8.72705e-18)
(0.0895178 0.124212 0)
(0.0896986 0.121152 8.74247e-18)
(0.0776821 0.121003 -2.59515e-17)
(0.0567349 0.0996412 0)
(0.0193351 -0.0765611 1.98067e-17)
(0.0428225 0.126711 -3.72848e-17)
(0.00160725 -0.0729378 0)
(0.0919811 0.113879 0)
(0.0325837 -0.0729694 -1.72841e-17)
(0.0302212 -0.0741462 0)
(0.0709555 0.119696 1.72807e-17)
(0.0270571 0.066551 5.03813e-19)
(0.0142452 -0.0658021 -1.89327e-17)
(0.0556965 0.124412 -1.75344e-17)
(-0.0452121 -0.112033 -1.40924e-17)
(0.0275505 -0.072184 1.73575e-17)
(0.00191431 -0.0794177 0)
(0.00552407 0.00858035 0)
(-0.00586955 -0.0241663 5.99047e-17)
(0.00140628 -0.0600707 -3.85451e-17)
(0.000246931 -0.0479128 -3.79951e-17)
(0.0988705 -0.0194357 0)
(0.0479039 0.162055 1.8484e-17)
(0.019234 -0.0702661 -2.70918e-17)
(0.0220084 -0.0693306 2.72528e-17)
(0.000822682 -0.040601 0)
(0.00558948 -0.038131 -1.90614e-17)
(0.0414956 0.170044 -5.71543e-17)
(0.00109793 -0.0408279 -1.80596e-17)
(-0.00798623 -0.018086 -5.35037e-23)
(0.03823 0.112789 1.61222e-17)
(0.0166061 -0.0654541 -1.8595e-17)
(-0.0245701 -0.0295631 8.96835e-18)
(0.0221922 0.0501623 0)
(0.0166794 -0.000786886 -2.05979e-17)
(0.0473277 0.152453 4.17756e-17)
(0.00213529 -0.00713354 -2.02178e-17)
(0.00102119 -0.0419011 7.82418e-22)
(0.110845 -0.0219751 2.8084e-17)
(0.010407 0.0336155 3.10723e-22)
(0.111994 0.105606 3.37311e-17)
(0.00384162 0.0143273 1.24249e-17)
(0.0308534 -0.069231 0)
(0.00239666 -0.0511295 1.93594e-17)
(0.000559043 -0.0468671 0)
(0.0286368 -0.0249649 -1.14223e-17)
(0.0448712 0.165445 -5.98195e-19)
(0.0024011 -0.0283817 0)
(0.043161 0.159609 5.50366e-19)
(0.0458157 0.128474 1.92973e-17)
(0.00358885 -0.026921 -2.2516e-17)
(0.0020699 -0.0303247 -5.46092e-18)
(0.0104327 -0.0535714 4.60902e-18)
(0.0304411 0.00389596 2.67938e-17)
(0.0096381 -0.0248944 2.0179e-17)
(0.0853393 0.0349979 -2.12983e-17)
(-0.0518115 0.0544406 1.66137e-17)
(0.0351524 -0.0637919 0)
(0.0199311 0.0267817 1.0066e-17)
(0.000898457 -0.0172318 0)
(-0.0178704 -0.045942 1.60516e-17)
(0.0186379 -0.0555642 0)
(-0.0367096 -0.0418917 -3.81792e-17)
(0.023193 -0.0238979 -2.07206e-17)
(0.0203369 0.0305422 -1.6897e-17)
(0.00492536 -0.0118296 -1.44987e-17)
(0.115261 0.0101605 0)
(0.0840911 0.0435464 9.44361e-19)
(-0.0161553 -0.0142588 0)
(0.155745 -0.0289955 -2.95821e-17)
(0.137727 -0.0221005 -1.40642e-17)
(0.109763 -0.0121857 -4.95945e-18)
(-0.000674764 -0.00248317 3.68668e-17)
(0.0172852 -0.0334393 0)
(0.0161934 -0.0572112 1.58808e-17)
(0.0108772 -0.00505709 0)
(0.136164 -0.0407506 -2.67923e-17)
(0.00212473 -0.0678271 -2.05382e-17)
(0.12899 -0.0309107 1.90089e-17)
(0.0163657 -0.0198238 0)
(0.0356456 -0.0318128 -4.9881e-18)
(0.0527858 0.141574 0)
(-0.0358931 -0.043953 1.89138e-17)
(0.00594648 -0.0676212 6.07194e-19)
(0.00132877 -0.0507384 4.05762e-17)
(0.0343192 -0.0688006 0)
(0.00340314 -0.0770222 1.76228e-17)
(0.00295407 -0.0674665 1.88272e-17)
(0.0056313 -0.0797247 9.93946e-18)
(0.01819 -0.036639 -3.53977e-23)
(0.0764964 0.0789668 -2.61346e-17)
(0.0500375 0.145149 0)
(-0.0258692 -0.126609 0)
(0.0223747 0.092267 -9.56143e-18)
(0.0978649 -0.0304081 1.95458e-17)
(0.0247219 0.0840001 0)
(0.0050859 -0.0168518 9.44331e-18)
(0.0267236 0.0766605 -1.59377e-17)
(0.00568547 -0.0142763 0)
(0.00991242 -0.0765939 0)
(0.0133078 0.0576272 -2.40196e-22)
(0.0165532 0.0467249 1.65657e-17)
(0.00317656 -0.00896137 9.22617e-18)
(0.00887045 -0.0668556 -9.67793e-18)
(0.0780313 0.00654433 0)
(0.0813738 0.109988 1.87624e-17)
(0.0263362 -0.0732184 -9.68317e-18)
(0.0211048 0.0208992 -9.45223e-18)
(0.0191828 0.0192964 0)
(0.0213437 0.0103087 0)
(0.00578106 -0.00726023 8.4773e-18)
(0.0289595 0.0435688 -1.81394e-17)
(0.00901242 0.00691889 0)
(0.0208186 0.0160518 1.58528e-17)
(0.0726984 -0.0505588 0)
(0.0230928 0.0242398 9.34686e-18)
(0.0113495 -0.016221 -1.81052e-17)
(0.0167191 0.00738022 2.41894e-18)
(0.012996 0.000451276 1.4541e-17)
(0.0261565 0.0351245 -1.9208e-17)
(0.0236287 0.0289249 -1.9413e-17)
(0.00890294 -0.0127992 0)
(0.0221919 0.0158229 1.77245e-17)
(0.00948958 0.00867057 0)
(0.0100132 0.00347946 -2.28375e-18)
(-4.08933e-05 -0.0014695 0)
(0.0143043 0.0182058 0)
(0.0111211 0.0114259 -9.38904e-18)
(0.0350102 -0.0311503 -9.25308e-23)
(0.00305226 -0.00620489 0)
(0.0116047 0.0075018 -1.49435e-17)
(0.14292 0.116852 -1.00257e-17)
(0.0890457 0.0751593 -1.84616e-17)
(0.0255871 -0.00888074 0)
(0.000640204 -0.0601127 -1.73671e-22)
(0.0822764 0.0985036 -3.00887e-17)
(-0.0312633 -0.040855 -2.19416e-17)
(0.00518815 -0.0521841 0)
(0.0360088 -0.0362718 -3.6748e-17)
(0.0748969 0.108871 -9.16271e-18)
(0.0518404 0.14905 0)
(0.0924101 0.0617837 1.86696e-17)
(0.0156738 -0.0783348 -1.05352e-17)
(0.0587886 0.0892053 2.08997e-17)
(0.021102 -0.0219989 1.86181e-17)
(0.0110814 -0.00270777 1.00959e-17)
(0.0389278 0.020039 2.9378e-17)
(-0.0234591 -0.0283003 1.04903e-17)
(0.0750866 -0.105386 0)
(0.0854972 -0.0416042 -3.65285e-17)
(0.0838757 -0.0240406 -4.46802e-18)
(0.026515 -0.0364541 2.81023e-17)
(0.00152651 -0.0729596 -1.95727e-17)
(0.133138 0.0995318 -3.14659e-17)
(-0.0194107 -0.0299379 1.56605e-17)
(0.0319215 0.0820804 -2.56666e-17)
(0.00812216 -0.0721907 4.97246e-18)
(0.145316 -0.0358309 1.8964e-17)
(0.127791 -0.04987 -2.85216e-17)
(0.0921516 0.0190373 3.98353e-17)
(-0.0458352 -0.0397511 0)
(0.0214524 -0.0769548 -2.04875e-17)
(0.0296119 0.0606355 3.20075e-17)
(0.0285203 -0.0349978 -1.86856e-17)
(0.0167444 -0.078901 1.1093e-17)
(-0.0203954 -0.0343282 -4.96616e-18)
(0.0113194 0.0667509 0)
(0.0434959 -0.0289762 -9.65032e-18)
(0.0357444 -0.0597991 -2.04459e-17)
(0.0331239 -0.0433427 1.89586e-17)
(0.0193352 -0.0742349 1.23152e-17)
(0.017395 0.0360391 -2.0676e-17)
(0.0178037 -0.0483575 1.09882e-17)
(0.138139 0.0494308 -1.53355e-17)
(0.0103631 -0.0508576 0)
(0.056847 0.0579149 3.53512e-17)
(0.0410296 0.0349604 -1.94713e-17)
(0.026297 0.0501424 2.47108e-17)
(0.0545518 -0.0246365 2.33186e-17)
(0.158719 0.114803 4.86317e-18)
(0.152157 0.0919641 -1.04828e-17)
(-0.0143519 0.0182791 -2.18117e-17)
(-0.0428169 0.00981358 2.07068e-17)
(0.0147782 -0.00299045 0)
(0.0199044 0.0175208 0)
(0.00246451 -0.0765698 -2.15489e-17)
(0.000940909 -0.00681252 -1.05236e-17)
(0.000287313 -0.00904374 -2.1037e-17)
(0.00312601 -0.0799597 1.11273e-22)
(0.0210065 -0.0313859 9.61666e-18)
(0.0511027 -0.04681 -1.93345e-17)
(0.00068991 -0.0158731 0)
(0.00142038 -0.0197494 0)
(-0.0325634 -0.0725912 3.51867e-17)
(0.00377789 0.0763286 -3.47869e-17)
(0.00655814 -0.0111844 -9.82632e-18)
(0.0543313 0.0591444 1.13838e-17)
(0.00042773 -0.00853803 1.98721e-17)
(0.032894 0.121529 2.26629e-17)
(0.0511416 0.00316321 0)
(0.0911332 0.0708115 0)
(0.0388888 0.00660523 -1.01754e-17)
(0.0190342 0.12913 1.18704e-17)
(0.0825981 0.0800754 -9.22942e-18)
(0.00623215 -0.0105284 -1.52203e-17)
(0.0112752 -0.0370949 1.01423e-17)
(-0.0425024 -0.00938653 -2.51393e-18)
(-0.0360179 -0.0167431 -3.46806e-17)
(0.0483558 0.154072 -2.42871e-17)
(0.0358483 -0.0554125 5.88082e-18)
(0.0733866 0.0832239 2.49476e-17)
(0.0228825 -0.00308128 1.104e-22)
(-0.0139571 -0.145961 1.74353e-17)
(0.0374779 -0.0107815 2.04838e-17)
(0.0614254 0.0352598 -9.84556e-18)
(0.0401437 0.129793 -3.30395e-17)
(0.00217257 -0.0357278 2.14966e-17)
(0.0459104 -0.00886153 -1.00974e-17)
(0.0602881 -0.0143854 -2.01394e-17)
(0.0321956 -0.0480123 1.75386e-17)
(0.049279 0.069974 -2.3947e-18)
(0.00504614 -0.00804983 4.95182e-18)
(0.0280067 0.0678254 4.41231e-18)
(-0.0521782 -0.00656089 0)
(-0.0476643 -0.0127492 6.72995e-18)
(0.0484774 0.145866 1.08274e-17)
(-0.0513376 -0.0725078 2.37545e-17)
(0.00609835 0.000331285 0)
(0.0561406 0.00104598 -4.2006e-18)
(0.0495731 -0.036795 2.40393e-17)
(0.0499486 0.0663918 1.33435e-17)
(-0.00596631 -0.0475984 0)
(0.000621009 -0.00776134 -2.08247e-17)
(0.00374018 -0.0872796 1.09326e-17)
(-0.018814 0.00634158 -2.78735e-18)
(0.0119969 0.025029 -1.45429e-18)
(-0.0173949 -0.0265727 5.31369e-18)
(-4.28166e-05 -0.00667836 2.28375e-17)
(-0.00263233 -0.0507849 0)
(0.00455795 -0.0120859 0)
(-0.0363847 -0.112686 0)
(-0.0224504 -0.0330525 -1.17663e-17)
(0.085116 0.0773081 0)
(-0.0156025 -0.0334347 1.94528e-17)
(0.0109919 -0.0721812 -1.13597e-17)
(0.000123457 -0.0153664 -1.1658e-17)
(-0.00108015 -0.0496688 0)
(0.0771879 0.057453 -5.90076e-18)
(0.0428232 0.0348222 0)
(-0.0208196 -0.0365585 6.63607e-19)
(0.00170641 -0.013981 1.12221e-17)
(0.0011331 -0.0166073 1.64474e-17)
(0.0253422 -0.0498049 0)
(0.0137085 -0.0261871 2.12601e-17)
(-0.00330304 -0.0344679 0)
(0.000892306 -0.0449327 0)
(0.0101381 -0.0617826 1.42145e-18)
(0.0653156 0.0897924 -2.06708e-17)
(0.00520271 -0.00855715 -1.21428e-18)
(0.0818026 -0.0725066 0)
(-0.000579821 -0.0238799 4.08992e-17)
(-0.0103111 -0.0481977 1.15767e-18)
(0.0209072 0.103269 -1.02772e-17)
(0.024536 -0.0279725 0)
(0.0929786 0.0528899 -9.07518e-18)
(0.0255212 -0.0421843 -2.47704e-17)
(0.101879 -0.074332 2.26243e-17)
(0.0758881 0.0808935 1.08418e-17)
(0.0290565 -0.0422106 1.00274e-17)
(0.0437881 0.02419 -1.08599e-17)
(0.00267041 -0.017266 -2.18938e-17)
(0.0962264 -0.103636 -2.05892e-17)
(0.0430369 0.0269606 0)
(0.152981 -0.0429746 1.44574e-17)
(0.0286801 -0.0578448 5.02822e-18)
(0.115106 0.0741769 1.94025e-17)
(0.0480734 0.146155 5.24084e-18)
(0.0499524 0.151539 0)
(-0.0299037 -0.0727544 1.91938e-17)
(-0.00231899 -0.073877 3.09884e-17)
(0.128727 0.0730345 0)
(0.0349189 -0.0507309 3.19959e-18)
(0.00202772 -0.00427342 -1.43469e-17)
(0.0966839 0.0925707 0)
(0.00698648 -0.0602888 -1.35543e-18)
(0.0630698 -0.0347134 -1.95123e-17)
(0.0804661 0.00342215 -3.08563e-22)
(0.151116 -0.0478323 -5.57435e-22)
(0.0319062 -0.0579166 -5.18056e-18)
(0.0287061 -0.0391307 -2.33503e-17)
(-0.0220234 -0.0191386 2.58864e-17)
(0.00994863 0.00501517 4.62924e-17)
(0.0817353 0.0228163 -2.36778e-17)
(0.0238412 -0.00674863 3.43302e-17)
(0.0934572 0.0626751 4.88247e-18)
(0.00698757 -0.0293969 1.1483e-17)
(0.02291 0.0566287 2.28738e-17)
(0.0321349 -0.0480506 0)
(0.10684 -0.0901298 -3.18061e-17)
(0.0240763 -0.0318788 -2.00397e-17)
(0.0422725 0.0396815 5.55047e-18)
(-0.0596751 -0.111304 0)
(0.0166917 0.0386965 -2.45352e-17)
(0.0314529 -0.0438323 -2.34873e-17)
(0.0533695 -0.0141616 0)
(0.0114879 -0.0249873 1.2796e-17)
(0.0135202 -0.0744084 1.43812e-17)
(0.0382448 -0.0580182 -1.18379e-17)
(0.0356354 -0.0467177 1.43402e-18)
(0.0135324 -0.0499287 0)
(0.000954708 -0.0793682 2.19361e-22)
(0.0757489 0.0969274 0)
(0.0141566 -0.0165455 2.06111e-17)
(0.0282468 -0.0462685 -2.92447e-18)
(-0.0314051 -0.0384435 1.1963e-17)
(0.00175235 -0.0323997 0)
(0.0038226 -0.0323441 2.54529e-17)
(0.0167166 0.0774183 2.35653e-17)
(0.0383811 -0.0609944 -5.91317e-18)
(-0.0696045 -0.0787238 -1.92209e-17)
(0.0227332 -0.0291551 -4.03755e-17)
(0.0271853 0.0714569 0)
(0.0477867 0.0505148 0)
(0.0542596 0.0649876 -2.46668e-17)
(0.0466764 0.058696 3.19806e-17)
(0.0568398 0.0222076 1.01871e-17)
(0.153333 0.101036 1.15102e-17)
(0.0291028 -0.0491329 8.37688e-18)
(0.000842801 -0.0316285 -1.26946e-17)
(0.0467558 0.158731 0)
(0.0578585 0.077068 0)
(-0.00486214 -0.080632 0)
(0.0203292 -0.0783179 -8.44143e-19)