/*--------------------------------*- C++ -*----------------------------------*\
  =========                 |
  \\      /  F ield         | OpenFOAM: The Open Source CFD Toolbox
   \\    /   O peration     | Website:  https://openfoam.org
    \\  /    A nd           | Version:  9
     \\/     M anipulation  |
\*---------------------------------------------------------------------------*/
FoamFile
{
    format      ascii;
    class       volScalarField;
    location    "0.6";
    object      p;
}
// * * * * * * * * * * * * * * * * * * * * * * * * * * * * * * * * * * * * * //

dimensions      [0 2 -2 0 0 0 0];

internalField   nonuniform List<scalar> 
90
(
-0.538617
-1.68077
-1.20782
-1.33939
-1.35186
-1.69009
-0.205218
-0.361081
-1.32253
-0.0974029
-0.50685
-1.50398
-0.571413
-1.58983
-1.3342
-1.37348
-1.30994
-1.21148
-1.21159
-1.19443
-0.137596
-0.685832
-0.512977
-1.31503
-0.368961
-0.527128
-0.0848187
-0.676318
-1.28401
-0.445681
-0.376806
-0.485374
-0.295564
-0.443976
-0.48533
-1.44253
-0.801551
-1.32915
-0.371651
-1.00794
-0.865339
-1.05434
-0.752297
-0.365163
0.09523
-1.69968
-1.49681
-1.10485
-1.09453
-1.49039
-1.20584
-1.36599
-0.731076
-0.486669
-1.3763
-0.787518
-0.0671555
-1.66698
0.180823
-0.483133
-1.19454
-0.698647
-0.608123
-0.956061
-0.945381
-1.05893
-1.27736
-1.44878
-1.33422
-1.18287
-1.04006
-0.113592
-0.904342
-0.930229
-1.18171
-1.41116
0.048964
-0.857692
-0.563765
0.0427616
-1.29831
0.179907
-1.55184
-1.071
-0.668971
-1.51911
-0.0978413
-0.314008
-0.91879
0.0196725
)
;

boundaryField
{
    back
    {
        type            empty;
    }
    front
    {
        type            empty;
    }
    bottom
    {
        type            zeroGradient;
    }
    outer_arc
    {
        type            zeroGradient;
    }
    right
    {
        type            uniformFixedValue;
        uniformValue    
        {
            type            scale;
            scale           
            {
                type            squarePulse;
                start           0.3;
                duration        0.3;
            }
            xScale          
            {
                type            constant;
                value           1;
            }
            value           
            {
                type            constant;
                value           15.1;
            }
        }
        value           uniform 0;
    }
    inner_arc
    {
        type            zeroGradient;
    }
}


// ************************************************************************* //
