/*--------------------------------*- C++ -*----------------------------------*\
  =========                 |
  \\      /  F ield         | OpenFOAM: The Open Source CFD Toolbox
   \\    /   O peration     | Website:  https://openfoam.org
    \\  /    A nd           | Version:  9
     \\/     M anipulation  |
\*---------------------------------------------------------------------------*/
FoamFile
{
    format      ascii;
    class       surfaceScalarField;
    location    "0.6";
    object      phi;
}
// * * * * * * * * * * * * * * * * * * * * * * * * * * * * * * * * * * * * * //

dimensions      [0 3 -1 0 0 0 0];

internalField   nonuniform List<scalar> 
122
(
-3.97271e-09
5.7997e-09
-1.82696e-09
-6.13945e-17
6.1144e-11
-6.1148e-11
-7.47242e-09
7.49399e-09
-2.15797e-11
-8.32099e-10
-6.64029e-09
8.67973e-10
-8.67973e-10
9.59742e-09
-7.80045e-09
-1.79697e-09
-3.80224e-09
6.29689e-09
-2.49465e-09
-8.59753e-10
1.04571e-08
-5.7997e-09
-1.45794e-09
7.25764e-09
-6.11385e-11
-1.48304e-09
1.54418e-09
6.15052e-10
-4.41733e-09
1.48304e-09
-1.70008e-09
1.25403e-10
7.36857e-09
-3.4339e-10
1.69931e-09
-3.26281e-09
1.5635e-09
-1.49222e-08
1.49222e-08
-9.51809e-09
9.51809e-09
-4.10781e-09
1.34128e-08
-9.305e-09
2.9102e-09
-1.21095e-09
9.66658e-10
-8.76707e-09
2.67676e-11
-4.1346e-09
-1.39556e-08
-1.05233e-08
1.0053e-09
-1.00407e-09
1.12948e-09
-1.16158e-08
1.01578e-08
7.25767e-09
3.65007e-09
1.12722e-08
-8.51319e-09
-2.53845e-10
-4.86312e-09
-7.98091e-09
7.98091e-09
-1.70009e-09
1.12722e-08
-6.99241e-09
6.99241e-09
2.52566e-09
3.74578e-09
-1.22012e-09
3.86964e-10
-5.25009e-09
8.74562e-09
-1.05726e-08
-3.86734e-09
-8.26647e-10
-1.70201e-09
1.64084e-09
-2.5187e-09
2.5187e-09
-2.28208e-10
7.59676e-09
3.72414e-09
-2.87311e-09
3.72964e-09
3.72964e-09
-8.02331e-10
-8.75662e-09
9.55895e-09
7.48844e-10
3.72964e-09
4.83105e-09
-5.63343e-09
-9.21577e-09
-1.702e-09
4.7801e-09
-8.64742e-09
7.28444e-09
-7.28443e-09
-6.96456e-10
-4.72946e-09
4.50125e-09
5.92781e-09
-5.92782e-09
4.15539e-10
-8.16734e-10
1.23227e-09
-2.70417e-09
3.22366e-09
2.70418e-09
8.36962e-09
-7.72848e-10
3.92031e-09
2.05317e-09
4.35313e-09
-1.00352e-08
1.00352e-08
-1.00424e-08
3.58026e-09
4.1475e-10
)
;

boundaryField
{
    back
    {
        type            empty;
        value           nonuniform List<scalar> 0();
    }
    front
    {
        type            empty;
        value           nonuniform List<scalar> 0();
    }
    bottom
    {
        type            calculated;
        value           uniform 0;
    }
    outer_arc
    {
        type            calculated;
        value           uniform 0;
    }
    right
    {
        type            calculated;
        value           nonuniform List<scalar> 4(-3.97266e-09 4.69402e-09 1.79614e-08 -1.86827e-08);
    }
    inner_arc
    {
        type            calculated;
        value           uniform 0;
    }
}


// ************************************************************************* //
