/*--------------------------------*- C++ -*----------------------------------*\
  =========                 |
  \\      /  F ield         | OpenFOAM: The Open Source CFD Toolbox
   \\    /   O peration     | Website:  https://openfoam.org
    \\  /    A nd           | Version:  9
     \\/     M anipulation  |
\*---------------------------------------------------------------------------*/
FoamFile
{
    format      ascii;
    class       volVectorField;
    location    "0.6";
    object      U;
}
// * * * * * * * * * * * * * * * * * * * * * * * * * * * * * * * * * * * * * //

dimensions      [0 1 -1 0 0 0 0];

internalField   nonuniform List<vector> 
90
(
(-0.131898 -0.110153 1.33001e-17)
(0.0267483 0.184661 -6.50541e-17)
(0.132397 0.133854 -1.99125e-17)
(0.147393 0.108392 1.98554e-17)
(0.0268061 -0.139753 2.55097e-17)
(-0.0286795 -0.189024 5.91244e-17)
(-0.138096 0.135321 -1.44448e-17)
(0.236979 0.114772 -9.20091e-18)
(0.12267 0.0853276 0)
(0.364571 0.0462031 0)
(-0.0978569 0.0460454 -5.92849e-18)
(0.0464936 0.0463707 3.13128e-17)
(-0.235722 -0.0238739 -3.31329e-18)
(-0.0123864 -0.108036 -2.41349e-17)
(0.127501 0.0724099 0)
(0.0398746 0.059269 0)
(0.0488633 0.0400857 -5.38936e-17)
(0.162287 0.135969 9.48208e-18)
(0.108618 0.134451 0)
(-0.0596056 0.0341525 -2.88518e-17)
(-0.365592 -0.195337 -3.60053e-18)
(-0.144445 -0.282569 -1.69302e-17)
(0.291025 0.125709 -6.48723e-18)
(-0.0493981 -0.00240614 2.64299e-17)
(0.212732 0.135563 8.43109e-18)
(0.161871 0.0262827 8.4489e-18)
(-0.328246 -0.0133636 2.58862e-18)
(-0.155024 -0.153274 -8.42466e-18)
(0.039926 0.0414266 0)
(0.235673 0.0777764 7.61289e-18)
(0.344145 0.180172 -5.43463e-18)
(-0.216633 -0.195312 -1.0653e-17)
(-0.285764 -0.0410117 -2.75311e-18)
(0.275011 0.184573 1.36039e-17)
(0.0789821 0.146187 -3.18875e-18)
(-0.00983756 -0.102912 1.77971e-17)
(-0.26832 -0.182335 0)
(0.00205347 -0.0789209 0)
(-0.355145 -0.232447 3.77101e-18)
(-0.181435 -0.264198 -5.39444e-18)
(-0.121004 -0.153186 1.36067e-17)
(0.00048786 0.0661486 2.93969e-17)
(0.172092 0.142759 -1.39287e-18)
(0.26605 0.186381 3.19795e-18)
(0.124083 0.226958 -1.53453e-18)
(-0.0388033 0.100252 1.80049e-17)
(-0.0666625 -0.0979958 -2.8639e-17)
(0.191047 0.162362 -1.15754e-17)
(0.0704692 0.113886 1.81618e-17)
(0.107044 0.0776216 4.4747e-18)
(-0.0385804 -0.123228 0)
(-0.0989233 -0.103423 2.38249e-17)
(0.238206 0.150567 2.05593e-19)
(-0.165673 -0.140233 0)
(-0.033067 -0.0945604 -3.90541e-17)
(0.176214 0.117056 8.03228e-20)
(0.454962 0.187252 5.9911e-19)
(-0.0615074 -0.100774 0)
(0.131192 0.111098 0)
(-0.109186 -0.0270737 1.21854e-17)
(0.0399473 0.0344729 -1.82012e-17)
(-0.210045 -0.108995 0)
(-0.29276 -0.148589 1.84556e-17)
(0.183828 0.209654 5.18894e-18)
(0.0636246 0.0742087 -1.5722e-17)
(-0.200971 -0.215593 -3.00148e-17)
(-0.0235351 0.0505409 0)
(0.0108012 -0.0251425 0)
(-0.00584063 -0.109924 2.16492e-18)
(-0.126288 -0.156491 -2.23448e-17)
(0.224796 0.158043 0)
(-0.253259 0.193193 -5.94758e-19)
(0.208124 0.180743 0)
(-0.18563 -0.147045 -3.23008e-17)
(0.0979599 -0.0279388 1.55546e-17)
(-0.115901 0.105244 1.60955e-17)
(-0.479727 0.153592 -7.53258e-19)
(0.0632359 0.133418 0)
(0.268268 0.22226 -1.10214e-17)
(-0.473521 -0.0952865 9.64559e-19)
(-0.125758 -0.114179 3.88369e-17)
(0.440005 0.0311158 7.48358e-19)
(-0.0729173 0.0714925 4.0946e-17)
(0.116129 0.0808749 -1.16226e-17)
(0.0950994 0.0362216 3.55822e-18)
(-0.0324867 0.108452 -1.90963e-17)
(0.316866 0.172626 -2.01143e-18)
(0.336302 0.107449 -1.29666e-18)
(0.0901481 0.0182625 3.33309e-17)
(-0.378011 -0.156733 6.19641e-19)
)
;

boundaryField
{
    back
    {
        type            empty;
    }
    front
    {
        type            empty;
    }
    bottom
    {
        type            uniformFixedValue;
        uniformValue    
        {
            type            scale;
            scale           
            {
                type            squarePulse;
                start           0.3;
                duration        0.3;
            }
            xScale          
            {
                type            constant;
                value           1;
            }
            value           
            {
                type            constant;
                value           (0 0.7 0);
            }
        }
        value           uniform (0 0 0);
    }
    outer_arc
    {
        type            noSlip;
    }
    right
    {
        type            zeroGradient;
    }
    inner_arc
    {
        type            noSlip;
    }
}


// ************************************************************************* //
