/*--------------------------------*- C++ -*----------------------------------*\
  =========                 |
  \\      /  F ield         | OpenFOAM: The Open Source CFD Toolbox
   \\    /   O peration     | Website:  https://openfoam.org
    \\  /    A nd           | Version:  9
     \\/     M anipulation  |
\*---------------------------------------------------------------------------*/
FoamFile
{
    format      ascii;
    class       volVectorField;
    location    "0.56";
    object      U;
}
// * * * * * * * * * * * * * * * * * * * * * * * * * * * * * * * * * * * * * //

dimensions      [0 1 -1 0 0 0 0];

internalField   nonuniform List<vector> 
942
(
(-0.0345996 -0.0476361 0)
(0.0493549 -0.00390328 3.12323e-17)
(0.0673752 0.145356 0)
(0.011625 -0.0651788 -1.65496e-17)
(0.0656294 0.159216 9.86066e-18)
(0.0718143 -0.0335654 1.74068e-17)
(0.0178682 -0.0382003 4.58386e-17)
(0.0805503 -0.0283673 0)
(0.00491588 -0.0426492 -3.62244e-17)
(0.00405991 -0.0462548 3.69313e-17)
(0.0412747 0.0227406 0)
(0.0686968 -0.0185526 0)
(0.00973729 -0.0677136 1.54306e-17)
(0.0483908 0.0352681 0)
(0.0840259 -0.0246983 0)
(0.0232816 -0.0053617 -3.39656e-17)
(-0.0321221 -0.0434535 -1.33752e-17)
(0.000830212 -0.0411675 0)
(-0.100312 -0.0278913 -3.98983e-18)
(-0.0087063 0.000462107 6.14503e-18)
(0.00745709 -0.00542967 2.28452e-17)
(0.0851646 -0.0202626 1.83597e-17)
(-0.0892463 0.00172969 0)
(-0.0470305 -0.0987825 -3.6052e-17)
(0.053417 0.0274775 0)
(-0.0440089 -0.0873268 2.71588e-17)
(0.0544804 0.13919 0)
(-0.0928418 -0.00915247 2.30159e-17)
(-0.0465562 -0.0939908 0)
(0.00694919 -0.0406003 1.46479e-17)
(-0.00568875 -0.0232742 1.83917e-17)
(0.0469831 0.135112 0)
(-0.0559325 -0.109961 1.71981e-17)
(-0.110953 0.016017 2.02237e-17)
(0.0614203 0.115154 -1.98699e-17)
(-0.151399 0.0995902 3.77518e-17)
(-0.0635629 -0.0105387 1.28931e-18)
(0.0217653 -0.0376742 0)
(-0.0807485 -0.0342588 -6.5804e-19)
(-0.0546538 -0.108158 2.57375e-17)
(-0.081206 0.035749 -3.62319e-17)
(0.15587 -0.00699994 0)
(-0.0528348 -0.11664 -1.77764e-17)
(0.0196723 -0.0561157 -1.52824e-17)
(0.0305132 -0.0575173 -3.86276e-17)
(-0.0721259 -0.0654723 8.71767e-18)
(-0.117582 -0.0217249 -1.76557e-17)
(-0.126602 0.0145545 -1.66693e-17)
(-0.12281 0.058249 1.86383e-17)
(0.0598236 0.0415325 2.18244e-17)
(-0.0953716 -0.025127 0)
(-0.0319568 -0.0123319 0)
(-0.150005 0.10707 -2.54521e-17)
(-0.0312559 -0.104892 2.03875e-17)
(0.00455924 -0.0570498 0)
(-0.0440688 0.059932 -1.36539e-17)
(-0.0342193 0.000888474 -3.44187e-17)
(0.00620076 -0.0583209 -2.47509e-18)
(-0.0376738 0.000923029 4.40935e-17)
(0.0510823 0.00647464 1.91656e-17)
(0.00651516 -0.0376511 -1.81934e-17)
(0.0581509 0.125901 -4.67401e-17)
(-0.0549725 0.00649312 2.19077e-17)
(-0.0559685 -0.0507072 -1.78235e-17)
(0.0234293 -0.0346827 1.69181e-17)
(0.0362854 -0.00862546 1.30122e-17)
(0.0504586 0.122185 3.65476e-17)
(-0.100725 -0.00582006 -1.6711e-17)
(-0.105863 0.0821792 1.71737e-17)
(0.0173885 -0.0963271 4.7294e-18)
(0.031505 -0.00161063 0)
(0.0103306 -0.026336 0)
(-0.0264363 -0.00287715 -2.2526e-18)
(0.0141677 -0.0385339 4.39448e-18)
(-0.0369121 -0.100299 -1.93285e-17)
(-0.0130774 -0.000724965 -5.68972e-23)
(-0.00858001 -0.00174794 2.2654e-18)
(0.0533861 0.109743 2.01939e-17)
(0.000386638 -0.0274748 -2.1978e-17)
(0.0481606 -0.00356829 -4.45095e-18)
(0.0351523 -0.027539 2.632e-17)
(-0.0348733 -0.0675178 -9.46008e-18)
(0.0273925 0.0113006 -2.39777e-18)
(0.0150552 -0.005409 9.80498e-18)
(-0.00840518 0.000261289 0)
(0.0399647 0.16066 0)
(-0.0129206 0.0059073 -2.00934e-17)
(0.00383649 0.00422669 5.53488e-18)
(0.058773 0.0449187 0)
(0.0398615 0.0154316 2.74372e-17)
(0.148633 -0.00441819 -1.38757e-17)
(0.0357072 0.0599687 6.30844e-19)
(0.00632845 -0.0636048 2.78578e-18)
(0.00331833 0.0365013 0)
(-0.0121565 0.0531752 -5.38142e-18)
(0.0402702 0.0165021 9.9447e-18)
(0.108524 0.00494736 1.70761e-17)
(0.00341308 -0.00416994 -1.60813e-17)
(0.0722799 -0.0554537 -2.36647e-17)
(0.0215042 -0.0377243 -3.39437e-17)
(0.00803851 -0.0298421 -1.02097e-17)
(0.00625919 -0.0660274 1.15346e-17)
(-0.0939574 -0.0183797 0)
(0.0262078 -0.0919685 1.30172e-17)
(0.0403812 0.0315404 -2.06661e-17)
(-0.000984559 -0.0413366 -3.33104e-17)
(-0.0754593 -0.0534106 -1.17022e-17)
(-0.0544265 -0.0857969 0)
(-0.127046 0.000548735 1.80307e-17)
(-0.122462 -0.0101111 0)
(-0.136601 0.107065 0)
(-0.130922 0.0842495 -1.81442e-17)
(-0.0387137 0.00802845 3.65356e-17)
(0.0104875 -0.0344193 0)
(0.0555286 0.0321815 0)
(0.0211871 0.0363684 2.46052e-18)
(0.0435483 0.0173769 -1.96793e-17)
(0.012088 -0.060764 2.09193e-17)
(0.0172489 -0.0401076 3.4082e-22)
(0.10878 -0.0179271 -2.38705e-18)
(0.00469106 -0.0440738 7.94179e-18)
(-0.142349 0.112262 -2.02913e-17)
(-0.0268989 -0.0739732 0)
(-0.0272781 -0.00500551 1.80783e-17)
(-0.0317248 -0.00259531 1.46358e-17)
(-0.0142614 -0.0444558 -3.89828e-17)
(-0.0467028 0.0133836 2.05626e-17)
(-0.0575229 -0.115047 -1.95595e-17)
(-0.0527782 -0.0967436 3.57708e-17)
(-0.113547 0.0908686 1.85647e-17)
(-0.0963958 -0.0301631 -9.64348e-18)
(-0.0753319 -0.0343616 -2.2359e-17)
(-0.120771 -0.0277141 0)
(-0.153927 0.01177 0)
(-0.146903 -0.00385652 -2.00001e-17)
(-0.0595706 -0.0433397 -1.39803e-17)
(-0.177445 0.116299 1.20922e-18)
(-0.135017 -0.0181395 0)
(-0.171454 0.0918311 2.479e-17)
(-0.165138 0.0636062 -8.49867e-18)
(-0.156996 0.0363185 1.99965e-17)
(-0.049286 -0.0615162 0)
(-0.0103712 0.0117669 -2.01078e-17)
(0.00414565 -0.0394588 2.16164e-17)
(0.0499764 -0.0161437 -5.05201e-18)
(-0.0511597 -0.0983867 -9.10828e-18)
(0.0116263 -0.0707021 0)
(0.0133045 -0.036424 -1.21421e-17)
(-0.107032 0.0380758 3.03842e-17)
(0.0462453 0.161602 0)
(0.0553166 -0.0100286 5.461e-18)
(0.116742 -0.0141887 6.03459e-18)
(0.0561187 0.0861846 0)
(0.0732876 -0.107513 1.12929e-17)
(0.0554339 0.0981444 -1.97665e-17)
(-0.132932 -0.015291 0)
(0.00693155 -0.00202993 2.23955e-17)
(0.00462559 -0.00824037 0)
(0.068984 0.0146402 0)
(0.025994 0.0107883 8.25685e-18)
(0.013264 0.00453905 -2.8958e-17)
(-0.145045 0.012873 0)
(0.01097 -0.0647777 0)
(0.0108845 0.00829028 1.02168e-17)
(0.0893347 -0.00761119 0)
(0.0511279 0.048207 -3.02316e-17)
(0.00911495 -0.0445566 0)
(0.0349798 -0.118672 0)
(-0.0597631 -0.0787399 1.77764e-17)
(-0.0966456 -0.0114244 2.11426e-17)
(-0.100043 0.00444982 -1.76492e-17)
(-0.0944281 0.0607192 -2.33629e-18)
(-0.120501 0.0961996 4.49735e-22)
(-0.0519759 -0.0253135 1.14011e-17)
(0.0426426 0.175414 0)
(0.00130088 -0.0883937 -2.21572e-17)
(0.0208189 0.0093006 -2.10488e-17)
(0.00158073 -0.0787958 0)
(0.0461329 0.0216345 7.30853e-19)
(-0.00492464 -0.109507 0)
(0.0549396 -0.0924309 -1.32534e-17)
(-0.048364 -0.0989746 0)
(-0.0806065 0.0146094 -2.60671e-17)
(-0.00989019 -0.0954446 1.47163e-22)
(0.0106542 -0.0401496 -1.32389e-17)
(-0.0396235 -0.0750645 0)
(0.0583837 0.0274364 -1.04555e-17)
(0.0669079 0.1075 2.07871e-17)
(0.0551593 0.169398 2.95546e-17)
(-0.0194634 -0.123096 9.94212e-18)
(0.0848005 0.137628 3.9935e-17)
(-0.00311371 -0.139967 -9.9633e-18)
(-0.074595 -0.0405842 -1.26685e-17)
(0.0203494 -0.00303955 -1.92145e-17)
(0.0632117 0.0857403 1.05268e-17)
(0.0093566 -0.0651555 -9.52718e-18)
(0.0641824 0.0821678 0)
(-0.0429525 -0.0391294 3.39716e-17)
(-0.0946661 0.0299455 -2.44566e-17)
(-0.0116023 -0.0650638 1.83959e-17)
(0.0100133 -0.0212693 0)
(0.00693393 -0.0651731 9.67145e-18)
(0.0419241 0.0398984 0)
(-0.0442519 -0.0613278 -2.23956e-17)
(-0.0366265 0.00984442 2.13017e-17)
(-0.0227417 0.0451802 0)
(-0.0626552 0.0703 2.10867e-17)
(0.0713836 0.136947 -4.58247e-17)
(-0.0373474 -0.105419 -1.77674e-17)
(-0.043119 -0.103891 1.7586e-17)
(0.0677656 0.103711 -1.02139e-17)
(0.00554156 -0.0643252 2.86828e-22)
(0.00981324 -0.0528329 1.64012e-17)
(0.0689618 0.140705 9.72585e-18)
(0.028693 0.0121555 0)
(-0.0257633 -0.0715223 -3.20518e-22)
(0.0573316 0.175565 -2.42645e-17)
(0.0999845 0.11354 2.04381e-17)
(0.0707138 0.100677 2.02509e-17)
(0.0672792 0.0845635 3.89069e-23)
(-0.0685851 -0.0926254 0)
(-0.0238683 -0.0630161 -1.96768e-17)
(-0.0122201 -0.154219 0)
(-0.00402617 -0.0658236 0)
(0.00352787 -0.00179515 -2.05333e-17)
(0.0198867 0.0683209 2.03156e-17)
(0.0752406 0.139622 -1.43279e-17)
(-0.0984752 -0.118969 -2.00386e-17)
(0.011869 -0.0319696 2.99991e-17)
(0.0567559 0.0589082 0)
(-0.0170426 -0.0556592 -1.87078e-17)
(0.0741269 0.143557 -3.58604e-17)
(0.0215579 0.0519022 1.96934e-17)
(-0.00232144 0.00676208 -1.08155e-17)
(-0.0429279 -0.0872938 -1.01415e-17)
(0.006947 -0.0632071 2.26339e-22)
(0.0953931 0.116869 -2.12031e-17)
(-0.0730336 -0.116044 2.01737e-17)
(0.0430119 0.0367378 -1.94148e-17)
(0.0758693 0.100136 2.00403e-17)
(0.0734808 0.0877047 0)
(0.0485425 -0.115704 -4.90814e-18)
(-0.0483829 -0.154304 9.92025e-18)
(0.00531258 -0.0865376 -1.1266e-17)
(0.00414324 -0.107274 -1.99036e-17)
(0.0431518 0.0402296 -2.01785e-17)
(-0.085231 -0.123633 9.99047e-18)
(-0.0126754 -0.0728856 -1.09185e-17)
(-0.0753178 -0.13748 -2.00504e-17)
(0.0499893 0.0519481 4.96462e-18)
(0.0809019 0.143554 -5.04484e-18)
(0.0186577 0.021036 -1.86757e-17)
(0.0863698 0.135308 0)
(0.0338183 0.025418 1.5003e-17)
(0.0124801 -0.134034 1.97275e-17)
(0.000894787 -0.0670687 2.21103e-17)
(-0.0346106 -0.150719 0)
(0.0187494 -0.166523 0)
(0.108654 0.1099 -9.99013e-18)
(0.00884957 -0.0934826 1.12225e-17)
(-0.0739905 -0.0771267 -9.90477e-18)
(0.110621 0.106609 9.82515e-18)
(0.0733572 0.130198 -2.46508e-17)
(0.0362106 -0.157293 -5.20288e-18)
(-0.110237 -0.0954097 1.03606e-17)
(0.011149 -0.0454767 0)
(0.0150736 -0.114962 0)
(0.0606789 -0.177796 0)
(0.0173617 -0.01063 1.9072e-17)
(-0.0372022 -0.135392 1.01226e-17)
(-0.0417362 -0.104588 1.91765e-17)
(0.0697943 0.163533 -1.83771e-17)
(-0.0196651 0.0272458 2.18483e-17)
(0.0701909 0.14996 -9.68991e-18)
(0.0748478 0.128862 2.03603e-17)
(0.100282 0.10176 -2.03537e-17)
(-0.037875 -0.0764302 0)
(0.162932 -0.114158 0)
(0.0838866 0.129764 -1.00455e-17)
(-0.0912451 0.0513384 -2.07521e-17)
(0.0291183 -0.140764 0)
(-0.148235 0.0942791 -1.69473e-18)
(-0.129866 0.0549337 2.10229e-17)
(0.166404 -0.134933 0)
(0.0985916 0.0511448 3.95799e-17)
(0.1111 0.0138679 -1.96761e-17)
(0.126758 -0.157844 2.95715e-17)
(0.114031 -0.167034 1.96376e-17)
(0.0597483 -0.157386 5.09787e-18)
(0.0793641 -0.167286 5.06025e-18)
(0.0942426 0.0506756 -2.00716e-17)
(0.0480121 -0.000475649 2.37245e-17)
(0.091601 0.0886985 -9.11245e-18)
(0.0547587 -0.0236125 2.23449e-17)
(0.137015 -0.0946105 5.60524e-18)
(-0.000524802 -0.00965208 -1.82487e-17)
(0.121073 0.000338429 0)
(0.13053 0.00795047 1.01866e-17)
(0.14205 -0.00757797 9.47845e-18)
(0.122112 0.0213815 0)
(0.112944 0.0385997 0)
(0.139279 -0.142456 -1.01035e-17)
(0.161421 -0.0314382 -4.57691e-18)
(0.165045 -0.0324273 -3.17951e-17)
(0.0985405 0.0374244 -3.17404e-17)
(-0.00761852 -0.169347 9.88636e-18)
(0.177364 -0.0229659 -3.14988e-17)
(-0.0333166 0.00493038 0)
(-0.0134623 -0.00364814 -9.20974e-18)
(0.0200564 0.0289619 1.92515e-17)
(0.00257508 -0.0183503 1.56079e-17)
(-0.0092228 -0.00779471 -7.37156e-23)
(-0.00808718 0.0100778 -2.76652e-18)
(-0.0227182 -0.00681896 -1.92502e-17)
(0.154662 -0.0390194 -5.20561e-22)
(0.00819694 0.00632394 3.10284e-17)
(0.0285815 -0.0300776 -2.10488e-17)
(-0.0326685 0.00520675 3.7211e-22)
(-0.0162757 -0.00857126 -5.45829e-18)
(-0.024383 0.0125416 0)
(-0.00799836 -0.00412975 -5.65211e-18)
(0.0138128 0.0145119 0)
(0.0161873 -0.0288366 2.20872e-17)
(-0.0304091 -0.00436353 -3.95296e-17)
(0.0141702 -0.00184764 -2.49841e-17)
(0.110927 0.0950591 -2.02314e-17)
(-0.00182671 -0.00298685 0)
(0.093922 -0.0543348 -1.0246e-17)
(0.192223 -0.0330215 0)
(0.0206675 -0.00951487 0)
(0.0741637 0.0359739 -3.97548e-17)
(0.0241422 -0.0763756 -1.75193e-17)
(0.197825 -0.0772607 9.87948e-18)
(0.159157 -0.033591 -1.79571e-17)
(0.169273 -0.0719318 0)
(0.0818536 0.0393869 1.98867e-17)
(0.167064 -0.0295452 1.13437e-17)
(-0.0303449 -0.00781135 -5.8944e-19)
(0.0226448 0.0119515 0)
(-0.171667 0.126186 -1.95031e-17)
(0.0599148 0.028484 2.92876e-17)
(0.101279 0.0327298 -1.99167e-17)
(0.182638 -0.0211217 -5.15915e-18)
(0.0698413 0.0308068 -4.97116e-17)
(0.145536 0.0208851 -2.01751e-17)
(0.0400253 0.0136453 0)
(0.140043 0.0327246 2.05231e-17)
(0.192246 -0.0430144 1.97225e-17)
(0.0779508 -0.171966 1.96325e-17)
(0.152067 0.00710353 -9.91814e-18)
(0.0572689 0.0264017 1.99225e-17)
(0.15825 -0.00766711 -3.39179e-22)
(0.149301 -0.0586603 -5.02397e-17)
(0.164254 -0.0208453 -1.04189e-17)
(-0.0049949 0.00624296 -1.78307e-17)
(0.160028 -0.0804529 0)
(0.136211 0.0421197 2.01836e-17)
(0.0863552 -0.0807781 0)
(0.135852 0.0499268 9.89628e-18)
(0.130004 0.0402198 1.9907e-17)
(0.165518 -0.0320542 2.53791e-17)
(0.139294 -0.0356889 0)
(0.0833837 -0.0205647 -2.81391e-18)
(0.0169191 -0.1068 1.68822e-17)
(0.17056 -0.0386842 -2.0067e-17)
(0.108402 -0.0252485 1.05205e-17)
(0.0974345 -0.020657 -1.01372e-17)
(-0.0472845 -0.0242111 4.58603e-17)
(0.186002 -0.0326161 2.9842e-17)
(0.0886301 0.0250653 -5.19013e-18)
(0.0668826 -0.0147218 0)
(0.0416143 0.0184504 1.9714e-17)
(-0.0694842 -0.0225804 -9.94939e-18)
(0.206465 -0.0379597 -1.91186e-17)
(0.103142 0.0434621 1.00228e-17)
(0.155819 0.0146502 9.92499e-18)
(0.113139 0.0449472 1.00401e-17)
(0.150025 0.027931 2.05759e-17)
(0.0610557 -0.139475 9.71293e-18)
(0.162202 -0.000290372 9.88352e-18)
(-0.0360348 -0.0797839 2.23456e-17)
(-0.00854158 -0.0307956 0)
(-0.103125 -0.00159062 1.99719e-17)
(-0.124199 0.0870387 0)
(-0.0349685 -0.0240213 4.98738e-18)
(0.166419 -0.0141866 3.12296e-17)
(0.170476 -0.0377682 3.95479e-17)
(0.123094 -0.0343616 3.06826e-18)
(0.145033 0.0391087 -4.10134e-17)
(0.167138 -0.0263808 -4.18214e-17)
(-0.0835838 -0.0202325 -1.016e-17)
(-0.119481 0.0473271 -5.05961e-18)
(0.134476 -0.0519687 0)
(0.123463 -0.0178384 2.05032e-17)
(-0.107982 0.00800319 5.33306e-18)
(0.176829 -0.0540539 0)
(0.131435 -0.0321595 1.96318e-17)
(-0.0950836 -0.0124584 5.2034e-18)
(-0.0293369 -0.0334975 1.03188e-17)
(-0.124295 0.0678532 -1.29098e-18)
(-0.113101 0.0269167 -8.9276e-18)
(0.214552 -0.0667439 -2.92783e-17)
(0.0746387 -0.0183095 0)
(0.103352 -0.0225943 9.41683e-18)
(0.181344 -0.0351106 0)
(0.112275 0.0512234 0)
(-0.140785 0.0402054 0)
(0.142071 0.0480034 0)
(0.203594 -0.0351277 9.81313e-18)
(-0.0850184 0.060158 2.99508e-17)
(-0.031103 -0.0553538 -2.14818e-17)
(0.138079 -0.0324121 9.94558e-18)
(0.166182 -0.0407752 0)
(0.164984 -0.0355286 2.97754e-17)
(0.174944 -0.0420804 0)
(0.110798 -0.138227 -9.90708e-18)
(0.127007 -0.114424 9.91886e-18)
(0.197259 -0.0486925 9.80014e-18)
(0.120915 0.0625243 1.98503e-17)
(0.215441 -0.0536747 9.77677e-18)
(0.142462 -0.0358496 2.06731e-17)
(0.194625 -0.0407461 -3.95254e-17)
(0.140115 -0.0467071 0)
(0.210167 -0.0938668 -9.73171e-18)
(0.177674 -0.0408707 1.97799e-17)
(0.165113 -0.0392759 -1.98217e-17)
(0.118864 0.052246 0)
(0.0814071 0.0280426 2.08153e-17)
(0.15232 -0.0273367 1.99792e-17)
(0.0875089 -0.0111534 -3.70709e-17)
(0.0383253 -0.0113898 0)
(0.161371 -0.0239532 1.99492e-17)
(0.104045 -0.0206984 0)
(0.122582 0.0444556 0)
(-0.15757 0.0731419 0)
(0.176695 -0.0495843 0)
(0.165351 0.000272466 2.96859e-17)
(0.204915 -0.0686419 0)
(0.199293 -0.0396251 9.91101e-18)
(0.129238 -0.0215388 -2.09341e-17)
(0.214264 -0.0605203 9.75377e-18)
(0.12428 -0.0327157 -1.81761e-17)
(0.158377 0.0276812 -1.99143e-17)
(0.141524 -0.0152196 0)
(0.138369 -0.152665 -1.96772e-17)
(0.153063 -0.0320078 -2.9786e-17)
(0.141475 0.0552943 0)
(0.141571 0.0565152 0)
(0.194614 -0.0463534 0)
(0.183758 -0.0885474 1.96229e-17)
(0.150872 0.0486055 7.53272e-23)
(0.112816 0.0454415 -1.75463e-23)
(0.0929675 0.0347206 -2.05592e-17)
(0.205976 -0.0808333 0)
(0.147511 0.0561096 0)
(0.125111 0.0601463 0)
(0.137434 0.0577832 0)
(0.0951999 -7.69085e-05 0)
(0.168351 -0.10924 -9.83203e-18)
(0.129192 0.0508247 -2.01927e-17)
(0.165086 -0.0129368 2.9786e-17)
(0.16248 0.0143974 -9.92385e-18)
(-0.0190437 -0.0544094 2.00372e-17)
(0.146944 0.0511171 -9.8818e-18)
(0.108063 0.0692757 1.0078e-17)
(0.137176 0.0472821 -9.92167e-18)
(0.181616 -0.104276 0)
(0.160164 -0.0179752 -1.99317e-17)
(0.164061 -0.00675168 -3.95319e-17)
(0.131962 0.0724353 0)
(0.163607 0.00666478 -1.9795e-17)
(0.151181 0.0188325 -2.01326e-17)
(0.160247 0.0204532 0)
(0.159656 -0.0398289 0)
(0.12888 0.0704754 2.20662e-23)
(0.0967803 0.0854553 9.0426e-18)
(0.178385 -0.0414293 0)
(0.143225 0.0403367 -2.97504e-17)
(0.161208 -0.0411597 0)
(0.110566 0.0644026 0)
(-0.00315433 -0.157724 -1.9589e-17)
(0.126814 0.0739729 -1.98269e-17)
(0.154252 0.0391278 0)
(0.137051 0.0730631 -1.97965e-17)
(0.174796 -0.0430579 -9.89414e-18)
(0.138321 0.0655694 1.97887e-17)
(0.141422 -0.0365272 -2.0345e-17)
(0.155843 0.032963 1.98919e-17)
(0.162593 -0.0407892 0)
(0.131482 0.0783638 -9.89541e-18)
(0.105778 0.056613 -3.50692e-17)
(0.142813 0.0615881 0)
(0.124189 0.0665135 0)
(0.1514 0.0432804 2.96801e-17)
(0.0461793 -0.163604 -1.92524e-17)
(0.113942 0.101032 0)
(0.138182 0.0683459 1.97942e-17)
(0.09692 0.105735 4.17169e-17)
(0.140487 0.0621125 -1.97818e-17)
(0.187473 -0.123808 0)
(0.118906 0.0512724 4.2185e-17)
(0.130285 0.0795925 9.88394e-18)
(0.195049 -0.10811 0)
(0.120434 0.0941902 1.97808e-17)
(0.109772 0.026618 -1.09023e-17)
(0.107763 0.10471 0)
(0.147932 0.0303646 0)
(0.11232 0.00745606 0)
(0.0870713 0.0556758 1.7498e-17)
(0.110135 -0.000740865 -9.60446e-18)
(0.146946 -0.039777 -2.41648e-17)
(0.128598 0.0857306 0)
(0.112565 0.0897136 1.01734e-17)
(0.119039 0.0808836 -1.9797e-17)
(0.103645 0.062199 3.34672e-17)
(0.164415 -0.140376 0)
(0.100844 0.0769238 -8.60455e-18)
(0.122846 0.0928219 0)
(0.142829 0.0104413 0)
(0.0651787 0.039935 0)
(0.122153 -0.0344961 0)
(0.136088 0.0324816 9.96483e-18)
(0.152039 0.00629179 0)
(0.12476 0.0864294 0)
(0.14163 -0.000876 -1.00157e-17)
(0.1348 -0.0105529 -9.85051e-18)
(0.135751 0.0649372 0)
(0.109954 0.09739 0)
(0.134049 0.0593323 0)
(0.149283 -0.00507197 3.95548e-17)
(0.140691 0.0221674 3.01031e-17)
(0.121907 0.0605011 0)
(0.144114 -0.0389039 1.70949e-17)
(0.084791 0.119622 -1.99926e-17)
(0.117295 0.087169 1.98026e-17)
(0.0967664 0.096796 -1.98488e-17)
(0.028798 0.0153678 -2.33856e-22)
(0.104597 0.0720276 0)
(0.0226121 -0.17323 0)
(0.0796809 0.12976 1.91941e-17)
(-0.0978612 -0.0600915 0)
(0.120079 0.0752383 0)
(0.0887061 0.0508169 -1.76867e-17)
(0.100375 -0.159267 -2.49512e-17)
(0.0656394 0.0498756 0)
(0.0520264 0.0479109 -1.98819e-17)
(0.120159 0.081313 0)
(0.103975 0.076345 -1.98332e-17)
(0.064736 0.0603025 -9.95516e-18)
(0.0663517 0.0684069 3.983e-17)
(0.102604 0.0843871 0)
(0.118161 0.101177 -1.97652e-17)
(0.0921138 0.117469 9.96161e-18)
(0.0852555 0.0720288 0)
(0.0797211 0.145379 2.49418e-17)
(0.0836137 0.079128 -9.94591e-18)
(0.0838558 0.102193 -1.99293e-17)
(0.0972378 0.041404 -1.8603e-17)
(0.07555 0.152514 -1.00385e-17)
(0.0985724 0.0470959 0)
(0.105518 0.115903 -1.99932e-17)
(-0.056939 -0.128775 0)
(-0.0428131 -0.0615174 2.9654e-17)
(0.0959218 0.104847 2.98065e-17)
(0.0904168 0.130342 1.99246e-17)
(0.0234945 0.0057165 4.02904e-17)
(0.0379778 0.0266629 -1.06411e-17)
(-0.00317894 -0.0329633 -2.02724e-17)
(0.0915226 0.126667 0)
(0.0110736 -0.057638 0)
(0.0906145 0.125706 -1.99627e-17)
(0.0749611 0.154592 4.15081e-17)
(0.0374419 0.0282339 0)
(0.0831726 0.0928431 -2.98433e-17)
(-0.0116475 -0.0770225 -2.23543e-22)
(0.0794642 0.123058 1.0068e-17)
(0.0957929 0.122642 0)
(0.0983039 0.121687 1.01047e-17)
(0.0831632 0.119255 -3.00021e-17)
(0.0635667 0.103261 0)
(-0.000110489 -0.0548535 2.29439e-17)
(0.0581127 0.169129 -4.29191e-17)
(0.00153594 -0.0618817 0)
(0.100697 0.114782 0)
(-0.033776 -0.118878 -1.99654e-17)
(-0.0365151 -0.0971206 0)
(0.076935 0.119413 1.99778e-17)
(0.0489386 0.107663 5.80312e-19)
(0.0086787 -0.061737 -2.19221e-17)
(0.0789575 0.135403 -2.02294e-17)
(0.0603392 0.024394 -1.63738e-17)
(-0.0165923 -0.0904898 2.00864e-17)
(0.00313046 -0.0673655 0)
(0.0203194 0.0144575 0)
(-0.00285396 -0.059828 6.92336e-17)
(0.00403117 -0.0507449 -4.46557e-17)
(-0.00937634 -0.158458 -4.39161e-17)
(-0.0194442 0.00939496 0)
(0.0571677 0.192792 2.13024e-17)
(0.0014917 -0.0687991 -3.13653e-17)
(-0.00195675 -0.0755907 3.15515e-17)
(0.00471423 -0.0346146 0)
(-0.0194175 -0.0912599 -2.20318e-17)
(0.0473003 0.198784 -6.58742e-17)
(0.0011124 -0.0342753 -2.09173e-17)
(-8.66811e-05 -0.0149765 6.743e-23)
(0.0588562 0.153899 1.85756e-17)
(0.00613507 -0.0673452 -2.15305e-17)
(-0.0120597 -0.0315048 1.03827e-17)
(0.0428524 0.0850695 0)
(0.0342236 0.00653884 -2.38021e-17)
(0.0604157 0.184154 4.81486e-17)
(0.00745245 -0.0116201 -2.33353e-17)
(0.00189051 -0.119068 5.30585e-21)
(-0.00477683 0.00381742 3.27289e-17)
(0.0745989 -0.00814462 -4.30132e-22)
(0.115165 -0.0189075 3.92605e-17)
(0.0883474 -0.00540877 1.4285e-17)
(-0.0998001 -0.0814327 0)
(0.00978993 -0.0437734 2.24281e-17)
(-0.0224684 -0.133741 0)
(0.0465109 0.0163352 -1.32013e-17)
(0.052109 0.190619 -6.89783e-19)
(0.00603746 -0.021498 0)
(0.0512447 0.183463 6.34763e-19)
(0.0701628 0.154621 2.22273e-17)
(-0.0178912 -0.085874 -2.58865e-17)
(0.0166053 -0.0294252 -6.3219e-18)
(0.0217753 -0.0402521 5.3433e-18)
(-0.0434919 0.00812459 3.0935e-17)
(0.0399562 0.0124177 2.32802e-17)
(0.0679104 0.0288518 -2.46625e-17)
(-0.130861 0.0335008 1.91405e-17)
(-0.131739 -0.086536 0)
(0.00741411 -0.00789619 1.16511e-17)
(0.0590685 0.00470659 0)
(-0.0290688 -0.0781739 1.84932e-17)
(0.00891234 -0.0748193 0)
(-0.0551353 -0.102514 -4.39302e-17)
(-0.00854296 0.00480138 -2.39908e-17)
(0.101982 -0.00689044 -1.94562e-17)
(0.0045777 -0.038629 -1.67499e-17)
(0.0554526 -0.0121309 0)
(-0.0226973 0.0125625 1.0999e-18)
(0.00871948 0.0060636 0)
(0.0591227 -0.00953692 -3.46528e-17)
(0.00643736 0.0138575 -1.64576e-17)
(0.0180545 -0.0140304 -5.77875e-18)
(-0.00797158 -0.00157568 4.26645e-17)
(0.0475479 -0.0978145 0)
(0.0103795 -0.0664442 1.83639e-17)
(0.0235533 -0.00931548 0)
(0.01539 0.000405075 -3.14705e-17)
(0.00158226 -0.0580192 -2.37993e-17)
(0.0642878 0.0242872 2.21375e-17)
(0.0977064 0.00906066 0)
(0.0969568 0.0185577 -5.74537e-18)
(0.0642464 0.151503 0)
(-0.052846 -0.0984942 2.17883e-17)
(0.0140251 -0.0562662 7.03633e-19)
(0.00117757 -0.0437653 4.7007e-17)
(-0.112308 -0.0957001 0)
(0.00663652 -0.0657133 2.04224e-17)
(0.00799833 -0.0571869 2.18176e-17)
(0.00728963 -0.0683834 1.15194e-17)
(0.00879164 -0.0745494 3.96694e-25)
(0.00464911 0.00372702 -3.05023e-17)
(0.0679944 0.16564 0)
(0.0522573 0.000997032 0)
(0.0297008 0.120227 -1.10299e-17)
(0.0404093 0.0234233 2.27381e-17)
(0.0329879 0.107808 0)
(0.00451375 0.00422308 1.0938e-17)
(0.034798 0.0960265 -1.84006e-17)
(-0.000481966 0.00448583 0)
(0.00766689 -0.0647157 0)
(0.0183231 0.0783271 -5.70868e-22)
(0.0225323 0.0616163 1.91246e-17)
(-0.00282072 0.00519889 1.06862e-17)
(0.00683139 -0.0573457 -1.12145e-17)
(0.150374 -0.0180843 0)
(0.0850307 0.107561 2.16962e-17)
(-0.00581011 -0.0392138 -1.12131e-17)
(0.0195739 0.0147617 -1.09369e-17)
(0.00738852 0.00591312 0)
(-0.00565295 -0.00768451 0)
(-0.0158975 -0.00463174 9.79995e-18)
(0.0336551 0.0483205 -2.09668e-17)
(0.00330193 -0.000409957 0)
(-0.00143452 -0.00307991 1.83523e-17)
(-0.00374064 0.00709344 0)
(0.0224775 0.0216692 1.0812e-17)
(0.0443677 -0.0488048 -2.08878e-17)
(-0.0137215 -0.0085589 2.79691e-18)
(-0.0161502 -0.00793648 1.68041e-17)
(0.0296775 0.0372459 -2.2208e-17)
(0.0255911 0.0282813 -2.24507e-17)
(0.0408064 -0.0516253 0)
(0.00694315 -0.000385654 2.05254e-17)
(0.00197268 -0.00242601 0)
(-0.0115465 -0.00980139 -2.64136e-18)
(-0.0158591 -0.00660182 0)
(0.0166738 0.0205117 0)
(0.0106443 0.0100158 -1.08608e-17)
(0.00293225 0.00598516 1.52796e-22)
(0.0266648 -0.0313933 0)
(-0.00390928 -0.0076331 -1.73067e-17)
(0.127959 -0.0197861 -1.16531e-17)
(0.0885788 0.0589451 -2.1376e-17)
(-0.0370201 0.00845572 0)
(0.000473625 -0.0516546 -1.09029e-22)
(0.0850685 0.0953416 -3.47979e-17)
(-0.042769 -0.0855422 -2.53082e-17)
(0.017895 -0.0431572 0)
(0.016663 -0.00402371 -4.25681e-17)
(0.0789124 0.107582 -1.05951e-17)
(0.0639308 0.161001 0)
(0.0837589 0.0432186 2.16255e-17)
(0.00739468 -0.0609123 -1.22136e-17)
(0.0642004 0.091384 2.41553e-17)
(0.00768622 -0.00084422 2.15956e-17)
(0.0336903 0.0108144 1.16562e-17)
(0.0685003 0.0285401 3.38874e-17)
(-0.0978092 -0.0463487 1.20805e-17)
(0.105431 -0.0297716 0)
(-0.0150515 0.0168882 -4.24198e-17)
(-0.0253158 0.0146509 -5.18271e-18)
(0.092181 -0.0969636 3.23137e-17)
(0.00315096 -0.062098 -2.26806e-17)
(0.142229 -0.0278728 -3.6564e-17)
(-0.0905482 -0.0319425 1.797e-17)
(0.0628187 0.119062 -2.95287e-17)
(0.0154112 -0.0584244 5.76378e-18)
(0.105123 0.0246996 2.20399e-17)
(0.100253 0.0316108 -3.31298e-17)
(0.0832897 0.0340079 4.60446e-17)
(-0.133776 0.103229 0)
(-0.00639977 -0.0557253 -2.37857e-17)
(0.0366392 0.0715235 3.69757e-17)
(0.0951541 -0.0771795 -2.14662e-17)
(0.00561724 -0.0644337 1.2856e-17)
(-0.0511367 -0.0415737 -5.73591e-18)
(0.0149 0.089811 0)
(0.114407 0.0184725 -1.11227e-17)
(-0.0790425 -0.0709364 -2.34881e-17)
(0.121545 -0.102351 2.17061e-17)
(0.00163978 -0.0501152 1.42783e-17)
(0.0225758 0.0448893 -2.38859e-17)
(0.00891 -0.0690703 1.26964e-17)
(0.0816893 0.000293008 -1.78087e-17)
(0.01368 -0.0529695 0)
(0.0601351 0.0533164 4.08822e-17)
(0.0293668 -0.0102195 -2.25506e-17)
(0.0571382 -0.00854948 2.85776e-17)
(-0.0173106 0.00878806 2.70739e-17)
(0.152186 -0.0247827 5.67865e-18)
(0.138266 -0.0142587 -1.21312e-17)
(-0.0371978 0.000486318 -2.51892e-17)
(-0.040068 0.00101999 2.39775e-17)
(0.0412846 0.00562803 0)
(0.0144486 0.00766308 0)
(0.00298203 -0.0656002 -2.49753e-17)
(0.00185915 -0.00943215 -1.21796e-17)
(-0.0102986 -0.0566712 -2.41947e-17)
(0.00440963 -0.0679406 3.63118e-22)
(0.06992 -0.088756 1.10558e-17)
(0.00462951 -0.00109419 -2.24625e-17)
(0.00216461 -0.0149675 0)
(-0.0112732 -0.0761651 0)
(-0.0742135 0.0497898 4.05957e-17)
(0.00469503 0.102545 -4.01085e-17)
(0.0190639 -0.0160189 -1.13586e-17)
(0.0582075 0.0581504 1.31683e-17)
(0.000632994 -0.00422169 2.30178e-17)
(0.0406145 0.145534 2.61424e-17)
(0.0346137 0.0139252 0)
(0.0885848 0.0529297 0)
(0.017591 0.00648824 -1.1791e-17)
(0.0215069 0.16372 1.36628e-17)
(0.0847273 0.0717624 -1.06798e-17)
(-0.0022554 0.00289234 -1.76259e-17)
(0.0115216 -0.0405989 1.17382e-17)
(0.0137264 -0.01054 -2.91303e-18)
(0.00288818 -0.00500295 -4.02634e-17)
(0.0615595 0.181345 -2.79804e-17)
(0.0906407 -0.0447048 6.78581e-18)
(0.0762732 0.0807518 2.88547e-17)
(-0.0333193 0.0112638 3.90307e-23)
(0.114151 -0.0107605 2.01807e-17)
(-0.0387354 0.00685606 2.36764e-17)
(0.0449839 0.0176532 -1.14157e-17)
(0.0494835 0.149119 -3.81218e-17)
(0.00437483 -0.0311476 2.48935e-17)
(-0.0426325 0.0146029 -1.16706e-17)
(-0.0319702 0.0171481 -2.33573e-17)
(0.122629 -0.0766481 2.01321e-17)
(0.0544184 0.0736166 -2.76813e-18)
(0.0263647 -0.0201107 5.71699e-18)
(0.0359727 0.0826122 5.09561e-18)
(-0.017259 -0.0121976 0)
(-0.0124563 -0.0048833 7.80893e-18)
(0.0649881 0.173376 1.24773e-17)
(-0.0852019 0.0715212 2.73798e-17)
(0.0331321 -0.00114691 0)
(-0.0141169 0.00834754 -4.87558e-18)
(0.154208 -0.0133197 2.76301e-17)
(0.0957609 -0.00890591 1.54579e-17)
(-0.00795339 -0.0966054 0)
(0.00220504 -0.00809411 -2.41107e-17)
(-0.00613357 -0.0115244 1.27284e-17)
(-0.0343348 0.00463912 -3.22142e-18)
(0.0397156 0.04471 -1.67487e-18)
(-0.0240372 -0.0578563 6.12761e-18)
(4.34953e-06 -0.00666322 2.64396e-17)
(-0.0266474 -0.126724 0)
(0.0951773 0.00657071 0)
(0.0151812 0.0205272 0)
(-0.0293407 -0.0667718 -1.35616e-17)
(0.0869739 0.0662474 0)
(-0.0394995 -0.0229538 2.24777e-17)
(0.00799384 -0.061563 -1.31668e-17)
(-0.000361953 -0.0129953 -1.3499e-17)
(-0.00771037 -0.113417 0)
(0.123565 -0.0160883 -6.82219e-18)
(0.036979 0.0224302 0)
(-0.063179 -0.0158005 7.66325e-19)
(-0.0191204 -0.0962667 1.28648e-17)
(0.0147555 -0.0233063 1.90067e-17)
(-0.111828 -0.0373029 0)
(0.00651868 -0.0467283 2.45642e-17)
(0.00621491 -0.0614048 0)
(0.00813246 -0.11174 0)
(0.0212169 -0.0460744 1.64785e-18)
(0.0863022 -0.00712003 -2.39938e-17)
(-0.00248248 -0.0145708 -1.40495e-18)
(0.0301496 -0.000326236 0)
(-0.0365821 -0.00396403 4.72389e-17)
(-0.027176 -0.0965485 1.33329e-18)
(0.0268921 0.135049 -1.18514e-17)
(0.0306206 -0.0135585 0)
(0.0824621 0.0377446 -1.05121e-17)
(-0.123717 -0.0277723 -2.85223e-17)
(0.0319117 -0.000378477 2.63356e-17)
(0.0787071 0.076886 1.25402e-17)
(-0.145855 -0.0142962 1.14875e-17)
(0.0725497 0.0376715 -1.25294e-17)
(0.00395493 -0.00404579 -2.53682e-17)
(0.106719 -0.0257532 -2.37917e-17)
(0.0259969 0.0092178 0)
(0.0726097 -0.0187981 1.6875e-17)
(-0.120212 -0.0574804 5.78173e-18)
(0.145245 -0.0260713 2.24756e-17)
(0.0593009 0.161518 6.04844e-18)
(0.0656309 0.172937 0)
(0.0718429 0.0274606 2.22786e-17)
(0.125724 0.00507661 3.5688e-17)
(0.0678088 -0.00628616 0)
(-0.139582 -0.0421283 3.66632e-18)
(-0.00987714 0.00469509 -1.66132e-17)
(0.0533479 -0.00907769 0)
(0.0198449 -0.0485702 -1.57121e-18)
(0.0349049 0.0212385 -2.2633e-17)
(0.0743602 0.0280304 2.10673e-22)
(0.117071 0.0319613 5.89866e-22)
(-0.140128 -0.0576703 -5.93385e-18)
(0.0856081 -0.0559082 -2.68891e-17)
(0.0237623 0.000707424 3.00107e-17)
(0.0447645 0.00847981 5.33255e-17)
(0.0670136 0.0261785 -2.74211e-17)
(-0.029592 0.0129609 3.96911e-17)
(-0.0138828 0.00491665 5.70785e-18)
(0.0108546 -0.0195012 1.32935e-17)
(0.0488224 0.0888139 2.6314e-17)
(0.0983206 -0.135956 0)
(0.0771857 -0.0144553 -3.69762e-17)
(0.0800058 -0.0785118 -2.3013e-17)
(0.0438173 0.0345842 6.42005e-18)
(0.000292635 0.0456042 0)
(0.0551737 0.0572228 -2.82797e-17)
(0.104331 -0.122127 -2.69311e-17)
(-0.00979288 0.0142988 0)
(0.00556078 -0.0281198 1.48055e-17)
(0.0143692 -0.0565086 1.66759e-17)
(-0.113515 -0.0746748 -1.3588e-17)
(0.128328 -0.121285 1.64459e-18)
(0.0149287 -0.0584783 0)
(0.00124261 -0.0681537 2.5827e-22)
(0.0788307 0.0951182 0)
(0.0431673 -0.0394558 2.37677e-17)
(0.0769468 -0.130384 -3.35454e-18)
(-0.0357317 -0.0768216 1.37952e-17)
(0.00803897 -0.0293022 0)
(-0.00509434 -0.0853469 2.92368e-17)
(-0.0267995 0.0140598 2.74429e-17)
(0.128866 -0.064646 -6.78232e-18)
(-0.0437874 0.0609859 -2.2275e-17)
(-0.136934 0.0353616 -4.61666e-17)
(0.0618311 0.101364 0)
(0.0732217 -0.0154272 0)
(0.058452 0.0655449 -2.85152e-17)
(0.0513342 0.0611232 3.69731e-17)
(0.126418 -0.0116324 1.17318e-17)
(0.158138 -0.0192517 1.33535e-17)
(0.0666526 -0.135305 9.61318e-18)
(6.92081e-05 -0.0273411 -1.47029e-17)
(0.0566225 0.180466 0)
(0.0624163 0.0784761 0)
(-0.0347156 0.0151279 0)
(-0.00233459 -0.0643626 -9.78621e-19)
(-0.0190945 -0.00130339 1.52781e-17)
(0.0639065 0.0126656 7.24554e-18)