/*--------------------------------*- C++ -*----------------------------------*\
  =========                 |
  \\      /  F ield         | OpenFOAM: The Open Source CFD Toolbox
   \\    /   O peration     | Website:  https://openfoam.org
    \\  /    A nd           | Version:  9
     \\/     M anipulation  |
\*---------------------------------------------------------------------------*/
FoamFile
{
    format      ascii;
    class       volScalarField;
    location    "0.61";
    object      p;
}
// * * * * * * * * * * * * * * * * * * * * * * * * * * * * * * * * * * * * * //

dimensions      [0 2 -2 0 0 0 0];

internalField   nonuniform List<scalar> 
464
(
-0.000205509
0.00020578
-0.00205125
-0.00197661
-4.47265e-05
-0.00203543
-0.000438346
-0.00196617
-0.000639981
-0.000566991
-0.000170755
0.000187646
-0.000570813
0.000222217
0.000258673
0.000269389
-0.000519595
-0.000582476
-0.00188443
-0.00167743
-0.0017119
-0.00206854
-0.00196705
-0.00196331
-0.0020072
-0.00200578
0.000394359
-0.00184655
0.000349223
-0.00210361
-0.00209144
-0.000117509
-5.33243e-05
-0.000234472
-0.000341203
-0.000677755
-0.000817565
-0.00183616
-0.00184656
7.80212e-05
-0.00150864
-0.0018337
-0.00190702
7.88884e-05
-1.27337e-05
6.60933e-05
-0.00181717
-0.00171825
-0.00177633
-0.00189737
-0.00135783
-0.00180602
-0.00112747
-0.00173963
-0.00169064
-0.001772
-0.00182926
-0.00139039
-0.0013837
-0.00114395
-0.00178034
-0.00091927
-0.00105714
-0.00159101
-0.000856317
-0.00179618
-0.00112616
-0.00173705
-0.000129904
-0.00165446
-0.00137253
-0.000888899
0.000148214
-0.00171974
-0.000735495
-0.00179913
-0.00111683
-0.000261253
-0.00140978
0.000263598
-0.000759002
-0.00212535
-0.000829388
-0.00232775
-0.00079692
-0.00123513
-0.000941657
-0.00214661
-0.0019478
-0.000583121
-0.000864342
-0.000764506
-0.000872903
-6.87306e-05
-0.000866538
-0.00108942
-0.00153548
-0.00205576
-0.00120479
-0.000785905
-0.00195523
-0.00170431
-0.00201896
-0.000295768
-0.000274974
-0.000692305
-0.00224868
-0.000996709
-0.000928211
-0.00174285
-0.000736326
-0.00176793
-0.000998145
-0.000841195
-0.00190998
-0.00192616
-0.00113737
-0.00236862
-0.0011853
-0.00216715
-0.00175407
-0.000615468
-0.000911964
-0.000288852
-0.00124488
-0.0005991
-0.000754245
-0.000822785
-0.000496728
-0.000983737
-0.00232817
0.000229977
-0.00182297
-0.00199643
-0.00208724
-0.00116972
-0.00234535
-0.001912
-0.000868138
-0.00199774
-0.00222293
-0.000730696
-0.00143573
-0.00193513
-0.00234141
-0.000772128
-0.00192216
-0.00216965
-0.00166926
-0.00191288
-0.00200802
-0.00196224
-0.000230864
-0.000629346
-0.00125807
-0.00205965
-0.000463166
-0.00188969
-0.00067956
-0.00093292
-0.00037902
-0.00190383
-0.000757053
-0.00178501
-0.00169948
-0.00224659
-0.000222677
-0.00168632
-0.000141926
-0.000933063
-0.000950367
-0.000928952
-0.00107826
-0.00202571
-0.000975538
-0.000898516
-0.00184634
-0.0018505
-0.000122274
-0.000329116
-0.00182717
-0.00115264
-0.000187265
-0.00021459
-7.9869e-06
-0.00013002
-0.0013221
-0.00121968
-0.000982603
-0.00101927
-0.00166079
-0.00115799
-0.00162384
-0.00167165
-0.00148179
-0.00152605
-0.00162542
-0.00169916
-8.53512e-05
-0.00163615
-0.0016498
-0.00156661
-0.00162945
-0.00159332
-0.00107058
-0.00160593
-0.00164812
-0.00167384
-0.00169779
-0.00109542
-0.00211716
-0.00137483
-0.00171732
-0.000778513
-0.00153134
-0.000962608
8.55564e-05
-0.00162315
0.000432499
-0.00166723
-0.000278954
-0.00167239
-0.00161555
-0.00171042
-0.00182829
-0.00184174
-0.00175852
-0.00147752
-0.00165617
-0.00161666
-0.00149889
-0.00128559
-0.00122638
-0.00122039
-0.00122869
-0.00142803
-0.00085659
-0.00100074
-0.00124619
-0.000791989
-0.00123315
-0.000827826
-0.0010286
-0.00103359
-0.00104956
-0.00064499
-0.000862164
-0.00149705
-0.000665049
-0.00140884
-0.000691439
-0.000586193
-0.000797305
-0.000511022
-0.000892806
-0.000725102
-0.0018824
-0.00134521
-0.000757758
-0.000479059
-0.000591956
-0.000524478
-0.000627997
-0.000133817
-0.000478146
-0.000217403
-0.000525732
-0.00187458
0.00011012
-0.000285417
-0.00194888
-0.000344759
-0.00035245
-6.59683e-05
-0.000448566
-0.000409172
-0.000253551
-0.00149131
-0.00160584
-0.000780426
-0.000333533
-0.00187846
-0.00167344
-0.00175224
1.81365e-05
-0.000462274
-0.0015947
-0.000782504
-0.00183867
-0.000372621
-0.000578011
-0.000546499
-0.00184383
-0.00178745
-0.000949594
-0.0013929
-0.00147336
-0.000938227
-0.00106899
-0.000780394
-7.79098e-05
-0.000289863
-0.000144388
-1.04696e-05
-0.000874401
-0.00082542
-0.00069206
-0.00104561
-0.000920565
-0.000801407
-0.00162172
-0.0019163
-0.000923649
-0.000444969
-0.000565162
-0.000469119
-0.00151071
-0.000778326
-0.00198446
-0.000317235
-0.00212064
-0.00119895
-0.000865602
-0.00102125
-0.000522389
-0.00162962
-0.00167585
-0.000261324
-0.00185967
-0.00059936
-0.00178819
-0.000331205
-0.00202313
-0.000661846
-0.00157918
-0.00183526
-0.00204779
-0.00202004
-0.000749551
-0.00184419
-0.00203779
-0.000238142
-0.000503561
-0.000638029
-0.000392715
-0.00191414
-0.0016686
-0.00124518
-0.00200053
-0.00151109
-0.00181555
-0.00207866
-0.00127775
-0.00131727
-0.00177919
0.000344888
-0.00212829
3.88047e-05
-0.00214991
-0.000143235
-0.00199743
-0.000473476
-0.00211691
-0.000621359
-2.3923e-05
-0.00188535
-0.00193299
-0.000551802
0.000132625
-0.00216033
-0.00203074
0.000364926
7.32325e-05
-0.000411049
0.000400708
-0.00204247
-1.61327e-05
-0.00193161
0.000535298
-0.00209488
0.000219426
-0.000161547
-0.000317655
-0.000317546
-0.000515315
-0.000284532
-0.000488904
-0.00206258
-0.000306979
-0.000597475
-0.00108361
-0.000851286
-0.000894588
-0.00100515
-0.00162514
-0.00193846
-0.0017791
-0.00202759
-0.00176431
-5.46981e-05
-9.94334e-05
-0.0019538
-5.8302e-05
-0.00198192
-0.000222945
-0.000261808
-9.8704e-06
-0.00191873
-0.000131028
-0.00193581
-0.000293409
-0.00195269
-0.00208322
-0.00201936
-0.00202446
-0.000605603
0.000255127
-0.00189777
-0.00198878
-0.000463608
-0.00195535
-0.0019763
-0.00016445
0.000397434
-8.92112e-05
2.63829e-05
0.000462848
0.000472188
0.000359584
-0.000458197
-0.00222693
-0.000353213
-0.00020219
-0.00215446
-0.000557958
-0.000346545
-0.00046429
-0.00210655
-0.000545258
-0.00220294
-0.000955504
-0.000903781
-0.00163268
-0.00168208
-0.00197879
-0.00183065
-0.00192648
-0.00185519
-0.00187999
-0.00144822
-7.89631e-05
-0.000212567
-9.39309e-05
-0.0020523
-0.00131405
-0.000377218
-0.000491418
-0.00191466
-0.00196535
-0.00194004
-0.00196143
0.000249974
1.85744e-05
-0.00202641
)
;

boundaryField
{
    back
    {
        type            empty;
    }
    front
    {
        type            empty;
    }
    left
    {
        type            zeroGradient;
    }
    top
    {
        type            zeroGradient;
    }
    right
    {
        type            zeroGradient;
    }
    bottom
    {
        type            uniformFixedValue;
        uniformValue    
        {
            type            scale;
            scale           
            {
                type            squarePulse;
                start           0.3;
                duration        0.3;
            }
            xScale          
            {
                type            constant;
                value           1;
            }
            value           
            {
                type            constant;
                value           15.1;
            }
        }
        value           uniform 0;
    }
}


// ************************************************************************* //
