/*--------------------------------*- C++ -*----------------------------------*\
  =========                 |
  \\      /  F ield         | OpenFOAM: The Open Source CFD Toolbox
   \\    /   O peration     | Website:  https://openfoam.org
    \\  /    A nd           | Version:  9
     \\/     M anipulation  |
\*---------------------------------------------------------------------------*/
FoamFile
{
    format      ascii;
    class       surfaceScalarField;
    location    "0.61";
    object      phi;
}
// * * * * * * * * * * * * * * * * * * * * * * * * * * * * * * * * * * * * * //

dimensions      [0 3 -1 0 0 0 0];

internalField   nonuniform List<scalar> 
663
(
-1.15306e-09
8.52111e-11
1.06785e-09
1.16474e-09
4.54793e-10
-3.77675e-11
3.77675e-11
2.5071e-10
-1.64693e-10
-8.60177e-11
-3.21491e-10
1.48623e-09
-2.77461e-12
-3.49929e-11
-2.15385e-10
-9.37674e-10
5.66545e-11
1.94056e-10
-5.49517e-11
-4.87969e-10
5.42921e-10
3.62921e-10
-4.17873e-10
-1.20345e-09
1.28866e-09
7.15395e-10
-9.24934e-10
2.09539e-10
-7.03354e-10
8.3728e-10
-1.21885e-10
-6.24636e-11
3.64719e-10
-3.02255e-10
-1.31024e-10
6.85601e-11
3.40808e-10
-2.2916e-10
-1.11647e-10
3.45783e-10
-4.97515e-12
1.02149e-11
-1.02149e-11
5.41651e-10
-5.85971e-10
4.432e-11
-1.11773e-10
6.53424e-10
-2.77869e-10
-2.29545e-10
5.07414e-10
-5.05289e-10
2.2742e-10
-3.27215e-10
2.94628e-10
3.25874e-11
1.84123e-11
-1.83105e-10
-2.24683e-10
-1.02532e-10
-6.18589e-10
6.40797e-10
-2.22084e-11
1.50951e-10
-7.9101e-11
-7.18501e-11
-6.23177e-10
4.58837e-12
4.55909e-10
-4.10539e-10
-4.53693e-11
2.0916e-10
2.46748e-10
2.76732e-10
-1.91006e-10
-8.5726e-11
7.71429e-11
1.99589e-10
-1.44332e-10
4.73486e-11
9.69838e-11
-3.85349e-11
-1.05797e-10
2.35553e-10
1.1023e-10
4.96502e-10
-2.60949e-10
-1.56701e-11
2.5885e-11
1.43203e-11
1.36631e-10
1.18149e-11
4.1522e-11
-5.33369e-11
-2.91422e-10
-2.94548e-10
5.33937e-10
-6.72893e-10
1.38956e-10
2.86475e-11
4.90094e-10
1.50703e-10
-4.3484e-10
-1.19209e-10
-3.71591e-10
5.47697e-10
-1.76106e-10
-3.44089e-10
3.15817e-10
2.82714e-11
-4.02053e-11
4.02053e-11
-9.4771e-11
2.75534e-10
-5.66956e-10
1.95821e-10
1.05636e-11
-2.06385e-10
-6.67863e-10
1.31753e-10
5.3611e-10
2.7715e-11
-6.01868e-10
5.74153e-10
6.27749e-10
-6.00034e-10
-5.99495e-11
2.55771e-10
-4.31541e-10
-3.26207e-10
-3.22401e-10
6.48607e-10
2.56329e-10
-5.82536e-10
-5.37097e-10
-1.30766e-10
-2.5885e-11
-1.13654e-09
1.31831e-09
-1.81763e-10
-5.93381e-10
1.89439e-10
4.03942e-10
4.25249e-10
-6.34797e-10
2.09548e-10
-8.09989e-11
4.4392e-10
-1.18352e-10
-4.83516e-10
8.31024e-12
1.80309e-10
-1.88619e-10
5.07689e-11
-9.93911e-10
-2.0332e-11
6.48081e-10
4.6567e-10
-2.09341e-10
-1.21754e-09
-2.36694e-10
-3.86483e-10
-1.0998e-10
-2.34109e-10
2.27243e-10
-7.80454e-10
5.53211e-10
-6.97539e-11
3.33368e-10
-3.25057e-10
-2.84624e-11
1.09631e-09
-6.66671e-10
3.4427e-10
1.28025e-10
1.56182e-09
-2.07763e-10
-1.35405e-09
-1.7031e-10
1.62965e-10
7.34552e-12
2.73013e-11
-7.47224e-10
7.19923e-10
6.42789e-11
3.0422e-11
-9.47009e-11
1.58912e-09
-3.49343e-10
-2.44038e-10
3.87579e-10
9.30728e-10
-1.06031e-10
-3.13507e-10
3.21657e-10
-8.14962e-12
5.45767e-10
-3.18524e-10
1.40735e-09
-1.42531e-09
-1.67748e-10
-4.48048e-11
2.12553e-10
-7.20945e-10
-6.41154e-11
7.8506e-10
-6.20695e-11
-1.05679e-10
5.22807e-10
-2.41422e-10
-1.66385e-11
1.79603e-10
1.1152e-10
-4.91555e-10
3.80036e-10
-3.71623e-10
-3.31731e-10
-1.04897e-10
-2.0861e-10
-6.99966e-11
3.85814e-10
2.69501e-10
-3.74398e-10
5.81755e-12
-1.96824e-10
5.31662e-11
-7.47224e-10
3.0422e-11
-1.03552e-10
2.83861e-10
-9.83045e-11
1.50566e-09
-5.28098e-10
6.58266e-10
-1.30168e-10
-1.37951e-10
-9.66383e-11
2.34589e-10
4.37717e-10
-1.48357e-10
1.02758e-09
-9.16057e-10
1.39307e-10
1.8235e-10
-1.99838e-11
2.89484e-10
-7.19923e-10
6.21618e-10
6.03863e-11
9.47009e-11
-1.55087e-10
-4.91555e-10
3.45604e-10
-2.85217e-10
-5.98095e-10
-8.06109e-10
4.34486e-10
4.99768e-10
-1.12189e-10
-1.18788e-09
2.50202e-10
1.16327e-10
-3.50637e-10
2.12686e-10
5.64825e-10
-6.5057e-11
3.86269e-10
-4.82907e-10
1.94873e-10
-2.33407e-10
3.29631e-10
-3.29631e-10
2.86034e-10
-3.06017e-10
-6.79172e-11
-4.26123e-10
4.9404e-10
6.21618e-10
-1.55087e-10
1.5099e-10
-2.2284e-10
-2.87645e-10
2.87645e-10
2.10849e-10
-2.78766e-10
1.72519e-10
-2.34911e-10
2.55702e-11
4.28791e-10
-2.10849e-10
5.57613e-11
-7.74772e-11
-7.02977e-10
2.62774e-11
2.59756e-10
2.39572e-10
-5.27682e-10
-1.07114e-10
-3.11827e-10
2.41826e-11
2.85455e-10
-2.59178e-10
-3.28788e-10
2.27709e-11
9.94513e-10
-3.20444e-10
-6.74069e-10
-2.10808e-10
-1.39829e-10
1.30063e-10
2.78766e-10
8.87872e-12
-2.2983e-10
6.69812e-13
5.60986e-11
2.29357e-10
-2.41284e-10
3.38399e-10
1.16726e-09
-1.25012e-10
-6.68412e-10
7.93424e-10
2.76152e-10
-2.20054e-10
-4.53173e-11
5.98528e-10
-3.11827e-10
4.62276e-11
-3.58055e-10
5.84274e-10
-7.09286e-10
-6.33365e-10
6.79593e-10
1.48911e-11
8.91504e-12
-2.38061e-11
2.57241e-10
-2.57241e-10
2.33033e-10
2.42083e-11
1.26913e-09
3.02558e-10
-3.80036e-10
-6.55668e-10
-3.02558e-10
-2.30269e-11
4.09296e-10
7.59351e-11
2.00217e-10
-1.67025e-10
2.4296e-10
5.48971e-10
4.45542e-10
4.32665e-11
-1.43826e-10
1.0056e-10
2.35863e-10
-4.02887e-10
-5.29673e-11
-1.91134e-10
2.44102e-10
6.71002e-11
-6.71002e-11
1.10367e-10
5.18612e-11
-3.69702e-11
-5.18613e-11
-1.52389e-11
-1.74132e-10
1.21165e-10
-1.74132e-10
2.10006e-10
-2.33033e-10
-3.60123e-10
-5.82316e-11
4.18354e-10
-2.10006e-10
3.58741e-11
1.00702e-10
-1.00702e-10
2.56912e-11
-1.75069e-10
-4.07467e-10
-3.48298e-10
1.73229e-10
-7.45138e-10
-4.09871e-10
3.89539e-10
8.48298e-12
-3.0192e-10
-4.63782e-11
1.34877e-10
-1.26394e-10
-4.09842e-10
1.07923e-10
1.26394e-10
1.34876e-10
1.14574e-10
-1.14574e-10
6.81954e-11
1.21165e-10
5.07689e-11
-2.16291e-10
2.16291e-10
-3.58055e-10
-3.69702e-11
2.01137e-10
-2.01137e-10
6.81954e-11
1.10367e-10
2.03029e-11
4.6471e-11
1.24608e-10
1.68047e-10
-4.34391e-11
2.14518e-10
-2.69091e-10
-1.36557e-10
4.05648e-10
1.00084e-10
1.14434e-10
3.09632e-10
4.0541e-11
-3.57955e-10
2.21398e-10
-3.44022e-10
-1.3933e-11
4.04569e-10
-4.76325e-10
6.97723e-10
3.84811e-10
-1.00421e-10
2.62098e-10
-1.61677e-10
2.60748e-10
-3.6117e-10
4.07894e-11
-2.1246e-10
4.74558e-10
4.45359e-10
-3.58489e-10
1.96812e-10
2.46815e-10
8.41889e-11
4.88131e-10
-3.24107e-10
1.29642e-10
6.65061e-11
-8.11644e-10
-6.16928e-11
2.58505e-10
-2.91549e-10
-3.32733e-10
2.7104e-10
-6.5602e-11
2.99619e-10
-4.36273e-10
1.36654e-10
3.3496e-10
5.00036e-10
-3.70394e-10
1.67303e-10
-3.44487e-10
5.73844e-10
-2.91549e-10
4.66923e-10
-1.90163e-10
3.66072e-10
-1.75909e-10
2.22849e-10
2.44074e-10
2.21314e-10
-2.96649e-10
7.53352e-11
4.47926e-10
-2.25077e-10
2.8815e-10
-7.04037e-10
4.15888e-10
2.57763e-10
8.72424e-10
4.79077e-10
3.3334e-10
-4.96268e-10
1.94013e-10
-3.85689e-10
-3.18348e-10
-6.46789e-10
2.44251e-10
2.34825e-10
-1.90046e-10
-5.1924e-10
-8.03806e-11
-7.5339e-10
5.75736e-10
-3.31484e-10
-6.16822e-11
-6.51318e-12
6.51318e-12
3.246e-10
-2.27743e-10
-2.91497e-10
1.67954e-10
2.60837e-10
2.1662e-11
-5.51979e-10
7.45993e-10
2.60415e-10
-4.88159e-10
6.52443e-11
-5.87311e-11
5.12494e-10
-5.77551e-10
-2.63587e-10
-4.07997e-10
1.82763e-10
-5.90759e-10
6.95256e-10
-5.20593e-10
-6.13684e-10
-1.52412e-10
9.08144e-11
5.87311e-11
6.24336e-11
3.03617e-10
-3.39491e-10
6.91576e-10
1.19355e-10
-3.68909e-10
1.17855e-09
-8.0964e-10
1.16335e-10
4.80601e-10
1.59004e-11
3.49207e-10
-1.2413e-10
-5.64958e-11
1.29732e-09
-4.58699e-10
5.40967e-10
5.73328e-10
-8.14612e-10
2.88022e-10
4.34629e-11
-3.81266e-10
1.07284e-09
-5.86573e-11
1.15312e-10
1.1223e-09
-1.91325e-10
-2.19215e-10
5.54822e-11
-7.24309e-11
7.24309e-11
4.82083e-10
4.7695e-10
1.76473e-10
-2.02105e-10
2.96612e-10
6.68532e-11
-6.68532e-11
6.48889e-10
-4.13466e-10
3.16089e-10
-8.52655e-11
8.52655e-11
-1.95943e-10
-2.66081e-11
2.66081e-11
-6.12672e-10
-6.30086e-10
-8.06683e-10
-1.85906e-10
-3.6934e-11
-2.0873e-10
1.60378e-10
1.17916e-10
6.15049e-10
-2.77461e-12
6.15049e-10
-2.77461e-12
-8.2566e-10
1.28045e-09
4.28951e-11
-5.1276e-12
5.14458e-10
-2.76474e-11
1.32175e-10
1.22455e-09
3.371e-13
-1.0552e-11
6.63616e-11
1.28511e-10
2.07746e-10
-3.30587e-10
5.58179e-12
2.10263e-11
-1.78928e-10
3.59509e-10
-1.66921e-10
-6.2909e-11
1.78928e-10
7.43709e-10
-5.07833e-10
-7.3112e-11
2.74825e-10
4.5519e-12
6.20812e-11
-4.68423e-11
1.69248e-10
3.76328e-11
-4.04074e-10
-2.81707e-10
-2.41322e-10
1.11036e-10
-1.06061e-10
-4.60424e-10
2.13609e-10
1.59795e-10
-1.59795e-10
1.11099e-10
2.6451e-10
-2.26414e-10
-1.26988e-11
4.8365e-10
-8.05051e-10
2.66114e-10
4.28951e-11
6.11874e-10
5.5818e-12
3.12353e-10
4.66224e-10
3.24082e-10
-3.24082e-10
3.37105e-13
-2.35772e-10
3.37105e-13
1.44852e-10
-5.62725e-10
5.78099e-11
-9.47439e-11
1.50518e-10
-1.74476e-10
2.39581e-11
-2.31931e-10
-1.42467e-10
2.07746e-10
-3.69611e-11
2.05679e-11
-5.49288e-10
-7.3112e-11
-4.5519e-12
-1.74943e-12
1.11036e-10
1.06061e-10
2.25533e-10
2.69853e-10
-2.71877e-10
-4.44564e-11
-2.44999e-10
-4.63307e-12
-5.9189e-12
4.15942e-11
)
;

boundaryField
{
    back
    {
        type            empty;
        value           nonuniform List<scalar> 0();
    }
    front
    {
        type            empty;
        value           nonuniform List<scalar> 0();
    }
    left
    {
        type            calculated;
        value           uniform 0;
    }
    top
    {
        type            calculated;
        value           uniform 0;
    }
    right
    {
        type            calculated;
        value           uniform 0;
    }
    bottom
    {
        type            calculated;
        value           nonuniform List<scalar> 8(-1.61953e-09 -9.45065e-11 1.24276e-09 -9.3654e-10 -1.09177e-09 5.59854e-10 1.16116e-09 7.78577e-10);
    }
}


// ************************************************************************* //
