/*--------------------------------*- C++ -*----------------------------------*\
  =========                 |
  \\      /  F ield         | OpenFOAM: The Open Source CFD Toolbox
   \\    /   O peration     | Website:  https://openfoam.org
    \\  /    A nd           | Version:  9
     \\/     M anipulation  |
\*---------------------------------------------------------------------------*/
FoamFile
{
    format      ascii;
    class       volVectorField;
    location    "0.61";
    object      U;
}
// * * * * * * * * * * * * * * * * * * * * * * * * * * * * * * * * * * * * * //

dimensions      [0 1 -1 0 0 0 0];

internalField   nonuniform List<vector> 
464
(
(-0.0028957 -0.033491 5.25658e-21)
(0.0010271 0.0439921 0)
(0.000549987 0.000407851 0)
(0.00613441 -0.00140205 1.17297e-19)
(0.000290111 0.0420137 0)
(0.000502334 0.000506824 -3.11607e-20)
(-0.00436024 -0.0304759 -1.80924e-20)
(0.00522556 -0.00215528 0)
(-0.0013402 -0.0115928 3.09089e-21)
(-0.000717945 0.00696214 -3.95936e-20)
(-0.00286735 -0.0355644 -5.85562e-22)
(-0.00192369 -0.0279732 -1.40768e-22)
(-0.00446795 -0.020079 -7.18378e-20)
(-0.00167482 -0.0230373 0)
(-0.00459993 -0.00854076 8.60023e-21)
(-0.0026764 -0.00399614 -1.53414e-20)
(-0.00231633 0.00932699 0)
(-0.0013768 0.00959951 -1.17475e-20)
(0.000130814 -0.000163165 -8.63563e-20)
(-0.0012548 0.0175992 9.33624e-20)
(9.54387e-05 0.0207396 -1.379e-19)
(0.003788 0.0157674 2.75527e-20)
(0.00407202 0.0143631 -1.42825e-20)
(0.00774379 0.00102392 0)
(0.00508055 -0.00040288 -1.21066e-19)
(0.00768391 0.00256611 5.63124e-20)
(-0.00262389 -0.0170054 -1.03464e-20)
(0.00131084 -0.00354549 -1.10083e-19)
(-0.00411367 -0.0194828 0)
(0.00538471 0.011108 0)
(0.00701526 0.00832815 7.01246e-21)
(-0.00393907 -0.00662838 9.05191e-23)
(-0.00392559 -0.00503269 -5.4878e-22)
(-0.00236974 -0.000411684 -1.58934e-20)
(-0.00327627 -0.00198986 1.60166e-20)
(-0.00109968 0.0114408 4.41816e-20)
(-0.00224012 0.0137023 -4.09891e-20)
(0.000243321 -0.000730448 -1.34555e-20)
(0.000708903 -0.00336207 2.20788e-21)
(-0.00168101 -0.000804219 0)
(-0.00258358 0.0175477 1.24248e-19)
(0.0026823 0.0195342 0)
(0.00386257 0.0159626 -3.82229e-20)
(-0.00140769 -0.019714 -1.97562e-21)
(-0.00280102 -0.0258616 1.88508e-21)
(-0.00317851 -0.00339385 -5.82655e-23)
(0.00357296 -0.0132224 9.98898e-20)
(0.00124549 -0.00798077 -4.47105e-22)
(7.50671e-05 -0.000654789 0)
(0.00082403 -0.00189885 1.29592e-20)
(-0.00284513 0.0199429 -8.11253e-20)
(0.000700552 -0.00479655 -6.44902e-21)
(-0.00122528 0.0171791 -4.70535e-20)
(0.00105231 -0.017284 -9.40795e-20)
(0.000832774 -0.0184169 -3.0361e-21)
(0.00127844 -0.0072745 1.02258e-19)
(0.0026806 -0.0108495 0)
(-0.00873899 -0.014231 0)
(-0.00714837 -0.0131894 -7.82671e-20)
(-0.00206907 0.0177454 0)
(0.000153995 -0.00131181 1.0552e-19)
(-0.00549426 0.0387926 9.99425e-20)
(-0.00979964 -0.0115898 1.25536e-19)
(-0.00510457 -0.0148716 -9.14925e-20)
(-0.00333136 0.0151119 -8.5453e-21)
(0.00280282 -0.0147212 -1.00121e-19)
(-0.00582678 -0.0013438 -6.22254e-20)
(0.000134394 -0.00180727 -9.59174e-20)
(-0.00289531 -0.0338268 4.10654e-21)
(-0.000551861 -0.0174308 9.24165e-20)
(-0.00637696 -0.00946367 7.88455e-20)
(-0.00286009 0.0330901 -5.0716e-20)
(-0.00523569 -0.015932 0)
(0.00171869 -0.00927425 1.00512e-19)
(-0.00413867 0.0192361 -4.15636e-20)
(0.00119645 -0.00553331 1.06845e-19)
(-0.00735683 -0.00582931 -6.85113e-20)
(-0.00124698 -0.029663 1.32513e-20)
(-0.00831506 -0.0139256 -8.25807e-20)
(-0.0032148 -0.0105415 7.22527e-21)
(-0.000756829 0.0466378 0)
(0.00277236 0.00267049 2.98923e-20)
(-0.00103541 0.0279701 -5.17529e-20)
(0.00100493 0.00228881 1.4072e-19)
(-0.00177535 0.0439644 0)
(-0.00940399 -0.0121238 4.62363e-21)
(-0.00934212 0.0306282 -5.01647e-20)
(0.00260255 0.00420548 0)
(0.00666932 -0.00481709 0)
(-0.00735108 0.0147339 -3.12184e-20)
(-0.00419381 0.0452053 4.68863e-20)
(0.000149142 0.0413456 0)
(-0.00465971 0.000287971 5.18913e-20)
(-0.00227934 -0.0286049 2.1439e-21)
(-0.00333437 0.0048114 -5.12314e-20)
(-0.00900118 -0.0100248 -6.09579e-20)
(-0.00652011 -0.0160849 8.27616e-20)
(0.00448027 0.00259535 -2.74383e-20)
(-0.00166026 0.0163116 -6.79089e-20)
(-0.00766616 -0.0133877 3.7297e-20)
(0.00806961 -0.00257088 0)
(0.00178633 -0.01125 4.92254e-21)
(0.00856125 -0.00156681 0)
(-0.00296217 -0.00506579 -8.91285e-23)
(-0.00183412 -0.00197589 0)
(-0.000350524 0.0157652 -2.43615e-20)
(0.000417564 0.000579021 0)
(-0.0062214 -0.00247339 6.05382e-20)
(-0.00396732 0.040819 -4.72417e-20)
(0.00302651 -0.0173724 0)
(-0.00312054 0.00717273 0)
(0.00298278 -0.01335 -1.01881e-19)
(-0.00460186 0.0020655 0)
(-0.00471169 0.027403 4.41106e-20)
(0.00579911 -0.00716607 3.50394e-21)
(0.00792218 -0.00452166 -1.80599e-21)
(-0.00187882 0.0253774 6.49864e-20)
(0.00109334 0.00488136 1.48915e-19)
(-0.00106912 0.00992688 5.51038e-20)
(0.00290197 0.00834965 -8.04726e-21)
(0.00297804 -0.0155097 9.47815e-20)
(-0.010762 -0.0202124 9.22476e-22)
(-0.0108079 0.0124356 4.79931e-20)
(-0.00628732 -0.032678 1.94066e-20)
(-0.00770537 -0.00949078 0)
(-0.00450284 0.00489674 3.56437e-20)
(-0.0141326 0.00271079 -4.77515e-20)
(-0.00165174 0.0122567 0)
(-0.00479993 -0.000158396 0)
(-0.000722792 0.0147478 4.08026e-20)
(0.000615027 0.00191726 -1.09505e-19)
(-0.000359443 -0.0070319 -1.36707e-20)
(9.71029e-05 -0.000408171 -8.63892e-20)
(0.00781264 -0.00270611 0)
(0.0017484 0.0148702 0)
(-0.00108221 0.0126145 -5.26033e-20)
(0.000539061 0.00328884 -2.21917e-19)
(0.00290082 -0.00517482 -1.13985e-19)
(-0.00754046 0.00430294 4.8925e-20)
(0.000209698 0.00612439 9.15829e-20)
(0.000659751 0.00942202 0)
(-0.00368695 0.00254099 0)
(-0.00393845 -0.00477307 2.88905e-21)
(0.00659267 -0.00790793 1.12021e-19)
(0.000865215 0.00728135 1.34114e-19)
(-0.00343105 0.0211395 -4.34681e-20)
(0.00691486 -0.00614275 0)
(0.00422684 0.00679884 0)
(-0.00284446 -0.0172309 -3.32102e-21)
(0.000468948 0.011814 -2.16316e-19)
(0.00655199 -0.0031235 3.60572e-21)
(0.00767247 0.00378339 1.12664e-19)
(-0.0153 -0.020177 -9.76017e-21)
(-0.00460335 0.0101629 -3.57976e-20)
(-0.00210451 0.0209134 -6.01759e-23)
(0.000449674 0.0108836 -1.30312e-19)
(-0.00171863 0.0070459 0)
(0.00602138 -0.00673161 0)
(-0.0141178 -0.0130357 -3.14685e-20)
(-0.00695901 0.040361 4.93355e-20)
(-0.016889 -0.0111585 0)
(0.00564695 -0.00308373 -1.12432e-19)
(-0.00210254 0.0166156 8.47662e-20)
(0.000224641 0.00669948 4.95649e-21)
(0.000300236 0.0129216 1.00542e-19)
(0.000443887 0.00453353 0)
(-0.0151051 -0.0140796 -1.61828e-20)
(0.000493906 0.0203782 9.56107e-20)
(-0.000927474 0.000962508 8.41649e-21)
(-0.000265756 0.00529066 8.88209e-20)
(-0.000239256 0.00906639 8.60993e-22)
(-0.0102385 0.0345869 -4.66853e-20)
(-0.00104042 0.0126999 -3.25167e-21)
(0.00246582 0.0176316 -2.70327e-20)
(-0.000527096 0.0103763 1.43841e-21)
(-0.00106529 0.0117179 -5.28719e-20)
(0.00516574 -0.00719758 1.11448e-19)
(0.00431626 -0.00293832 -4.2778e-22)
(-0.0132277 -0.0240555 -1.19643e-20)
(-0.0014149 0.00409381 1.80673e-21)
(0.0038785 0.00736479 1.05664e-19)
(-0.00216285 0.00671395 6.46745e-20)
(-0.000178008 0.00154439 0)
(-0.000496882 0.0031239 -1.61728e-20)
(-0.000116655 0.00165583 5.17595e-21)
(-0.000112346 0.00218069 -3.09367e-22)
(-0.000786002 0.00540268 0)
(-0.00037671 0.00372135 -5.59824e-20)
(-0.000503714 0.00613575 -9.38314e-20)
(-0.000262904 0.00818924 1.09297e-22)
(0.00111547 -0.0127087 -9.47877e-23)
(-0.000509462 0.00708584 6.95635e-20)
(0.000247858 -0.00182973 -1.53883e-19)
(0.00106869 -0.00945467 -9.97533e-20)
(-0.00538438 -0.0133533 8.32927e-23)
(-0.00335922 -0.00884426 -8.5428e-23)
(1.40111e-05 0.0223559 -8.78834e-20)
(0.00181171 -0.0170091 9.17586e-23)
(-8.30011e-05 0.00124748 -2.17938e-21)
(-0.000384501 -0.0131473 9.40012e-20)
(0.000339173 -0.010511 0)
(-0.00188319 -0.00811588 0)
(0.000142664 -0.00515845 0)
(-0.00210034 -0.0118125 8.98233e-23)
(-0.000235674 0.0044211 0)
(0.000439527 -0.00445395 1.53408e-21)
(-4.47864e-05 -0.00254104 0)
(-0.000289344 -0.00213137 -7.94011e-20)
(-0.00072565 -0.00367024 9.966e-20)
(-0.000801127 0.00765983 5.049e-20)
(0.000317227 0.00576354 9.72497e-20)
(-0.00049456 0.0026653 0)
(0.000108681 -0.000854078 8.24625e-20)
(-0.000319376 0.00507647 -3.83778e-20)
(-4.36711e-05 0.00737207 0)
(-0.000175674 0.00484868 -4.48628e-20)
(-0.000256062 0.000984632 -1.79187e-21)
(0.000168258 -0.00236845 7.65878e-20)
(-0.000834737 -0.00423279 -3.16595e-21)
(-0.000470212 -0.00119074 -8.01205e-20)
(-0.000347868 0.0023418 1.16537e-20)
(-0.000320194 -0.00494248 9.8981e-20)
(-0.000825911 -0.0101243 -9.40891e-20)
(-0.000893085 -0.0150934 1.92418e-19)
(0.00295386 -0.0073391 1.08828e-19)
(0.0012213 -0.0026358 -1.03985e-19)
(-0.000938622 -0.00727635 0)
(-0.00621673 0.00667565 4.31482e-20)
(-0.00304095 -0.00305047 -2.8877e-21)
(-0.00531762 -0.00783509 -9.22672e-20)
(-0.00706258 -0.00356135 9.14753e-20)
(-0.00649778 0.00976884 -8.72627e-21)
(-0.00786829 0.00393948 0)
(-0.00972514 -0.0127691 -6.77682e-20)
(-0.00491994 0.0162773 7.33931e-20)
(-0.00860527 -0.00783026 0)
(-0.00734083 0.00254772 -5.16758e-21)
(-0.00824351 0.000702478 -5.04453e-21)
(-0.00908366 -0.00456781 7.1073e-20)
(-0.00514948 0.00873374 3.99218e-20)
(-0.00986651 -0.00854643 -7.20223e-20)
(-0.00816381 -0.00213175 -4.75425e-20)
(-0.00716415 0.00603774 5.78033e-20)
(-0.00958666 -0.00630631 0)
(-0.00992704 -0.0094057 0)
(-0.00400664 0.00873955 -5.82846e-21)
(-0.00937362 -0.00796057 -1.50835e-21)
(-0.000846587 0.0206836 0)
(-0.0069662 -0.0006709 0)
(-0.000504726 0.0126302 0)
(-0.00737379 -0.00473261 -3.31715e-20)
(-0.00506678 0.00472076 -6.23095e-20)
(-0.00718314 -0.00908075 -4.96328e-20)
(-0.0071976 0.00840511 3.13108e-20)
(-0.00918586 -0.0100034 0)
(-0.00831105 -0.00919421 0)
(0.00544031 -0.012589 0)
(-0.000591159 0.00660316 -5.40067e-20)
(-0.00746207 -0.0102411 -3.96879e-20)
(-0.00415117 -0.00849649 0)
(-0.00631246 -0.01004 3.79376e-20)
(-0.00526824 -0.00719256 6.67499e-20)
(-0.00554335 -0.010423 3.22406e-20)
(-0.0103828 -0.0135634 -1.13049e-20)
(-0.00497332 -0.0107263 -3.22413e-20)
(-0.0136898 -0.0160779 1.66649e-20)
(-0.00536327 -0.0107526 -5.95976e-23)
(0.00380883 -0.00719138 -3.42794e-21)
(-0.00770088 -0.0117358 -1.9338e-21)
(-0.00918891 -0.0129076 1.14497e-20)
(0.00142277 0.0178241 -9.97292e-20)
(-0.00620817 -0.0117983 0)
(-0.0131236 -0.0112946 1.59234e-20)
(-0.00790994 -0.00999304 5.04096e-21)
(-0.00931227 -0.0288319 -1.7999e-21)
(-0.00825227 -0.0111978 0)
(-0.0105044 -0.0129251 0)
(-0.00251684 -0.00483416 -8.57943e-20)
(-0.000554342 6.09286e-05 0)
(-0.00610583 0.0254221 -1.88791e-21)
(-0.0123517 -0.004003 1.53833e-22)
(0.0053585 -0.0105032 -5.66559e-22)
(-0.000945735 -0.0016256 0)
(0.000940488 -0.00609615 -1.04505e-19)
(-0.0104391 -0.0168578 -1.15601e-21)
(-0.0134803 0.0025508 -2.34828e-20)
(-0.000994061 0.000782038 -9.29112e-20)
(-0.0155775 0.0101394 0)
(0.00355267 -0.0104724 0)
(-0.0161193 -0.00116919 2.36393e-20)
(-0.0161755 0.00667432 1.31015e-22)
(-0.0170977 0.00129156 -2.35503e-22)
(0.00503688 -0.0131854 -1.07799e-19)
(0.00378746 -0.0165378 2.04857e-19)
(-0.00768878 -0.0079951 5.0687e-20)
(-0.00270039 -0.000862339 1.65675e-19)
(-0.000941459 0.00321211 0)
(-0.00190494 0.0100247 -3.52599e-21)
(-0.00277558 0.00731901 -6.42948e-20)
(-0.0132146 0.0261098 4.63303e-20)
(-0.013502 -0.0184748 -7.80685e-21)
(-0.0171122 -0.0156718 -2.16902e-20)
(-0.0074629 -0.0291659 9.03404e-21)
(-0.00131537 -0.0235041 -2.31873e-21)
(-0.0026374 0.0159175 2.90322e-20)
(-0.00580563 -0.00623282 -4.40166e-20)
(-0.00469188 -0.00482835 -7.47249e-20)
(-0.00171469 0.0148419 2.56554e-20)
(-0.00515469 0.0345735 -9.74366e-20)
(-0.00122292 0.0137372 -4.4264e-20)
(-0.00237787 -0.0181213 -9.24383e-20)
(0.00589661 -0.010719 -9.74091e-22)
(-0.00894238 -0.0103293 0)
(-0.0155202 -0.0180408 4.6984e-21)
(-0.00580485 -0.00336496 -5.94845e-20)
(-0.00927439 -0.00107784 0)
(-0.000548395 0.00139462 7.37201e-20)
(-0.0117009 0.0281936 0)
(0.00339059 -0.00133095 0)
(-0.0135487 -0.0249527 1.17745e-20)
(0.00460915 0.0132758 9.43232e-20)
(-0.00357296 0.003779 -2.64546e-22)
(-0.00744822 0.0330043 4.78876e-20)
(-0.00152782 0.00958257 5.6603e-20)
(-0.0173826 -0.011582 5.03584e-20)
(0.00045653 -0.00338807 -1.32769e-21)
(0.000294127 -0.00241875 -9.83072e-20)
(-0.0105252 -0.0291959 -1.98657e-20)
(0.00269435 -0.00810974 0)
(-0.0132325 0.0200482 -3.41869e-20)
(0.00163089 0.0188889 -5.11382e-20)
(0.00363767 0.00203045 -1.95092e-20)
(0.00142506 1.11175e-05 -4.80899e-20)
(-0.00536578 -0.00801855 8.15886e-20)
(-0.00330393 -0.0161689 -8.74165e-23)
(0.00484293 -0.0139081 -1.01666e-19)
(0.00495595 0.0127375 -8.70578e-20)
(0.00157955 -0.000290853 -9.54093e-20)
(-0.00245876 0.0149816 1.25524e-21)
(0.0020081 0.0207124 1.07371e-19)
(0.000605734 -0.000248281 5.09941e-20)
(-0.00196785 -0.0336411 0)
(-0.010663 0.0136793 -4.22923e-22)
(-0.0102116 0.0210795 3.4669e-20)
(-0.00789392 -0.00608694 2.77256e-20)
(0.00372823 -0.00402205 5.57643e-20)
(0.000215811 -0.00126658 1.58011e-19)
(-0.00646407 -0.0052985 6.83176e-20)
(0.00296291 -0.000245263 1.16633e-19)
(-0.00533903 -0.0162729 0)
(0.00481559 -0.0151511 -3.20771e-21)
(0.002025 -0.00058469 -5.77087e-20)
(-0.00257749 0.00311173 0)
(-0.00395748 -0.000378715 -7.93912e-20)
(0.00372802 -0.015641 -9.81861e-20)
(-0.000242007 0.0262319 -1.62714e-20)
(-3.35604e-05 8.4038e-05 0)
(-0.000127641 0.013054 8.41844e-21)
(7.42865e-05 -9.07147e-06 -4.9314e-20)
(0.00117406 0.0395745 0)
(0.00173187 0.000723503 -6.45881e-20)
(0.000187616 -0.0172695 3.20869e-20)
(0.00127016 0.00124896 3.33181e-20)
(-0.000484317 0.043793 0)
(-0.00289651 -0.0344962 -8.19424e-23)
(0.000140652 -0.000125726 1.18444e-19)
(0.00537271 -0.00392704 0)
(-0.00393223 0.00269211 0)
(-0.000722679 -0.0118934 0)
(0.00352983 0.0107243 6.82194e-20)
(0.000672716 -0.000341606 0)
(-0.000268298 -0.0108682 2.93981e-20)
(-0.00911314 -0.019138 -5.93866e-24)
(-0.00254616 0.00612182 0)
(-0.00131619 -0.00863729 -1.04857e-21)
(0.00788132 -0.00108704 0)
(-0.00538613 -0.0303358 -4.24114e-21)
(0.00167855 0.0196934 1.65849e-19)
(-0.0013009 -0.0057551 5.55012e-20)
(0.0027153 0.0142641 3.39055e-20)
(-0.000601048 0.000502029 0)
(-0.000844895 0.00086597 -9.08037e-21)
(-0.00158481 0.00263059 0)
(-0.00385809 -0.00823577 -1.00403e-20)
(-0.00621031 -0.0041253 3.41387e-21)
(-0.00608738 -0.0107547 0)
(-0.00409155 -0.00644551 -1.58743e-20)
(0.00616985 0.00371686 -6.52709e-20)
(-0.000562542 0.00452829 0)
(-0.000524573 0.00709694 0)
(-0.00426033 0.0158045 -2.98498e-20)
(-0.00434141 0.0118812 0)
(-0.000387379 0.00847272 2.13572e-20)
(-0.000742416 0.00994956 1.12307e-19)
(-0.00428028 0.0102619 -4.48627e-20)
(0.00428336 0.00978341 -1.12184e-19)
(0.00250365 0.0116134 0)
(0.00642859 0.00713579 -2.41584e-19)
(0.00128118 0.0212377 0)
(-0.00695995 -0.0255214 -5.58862e-21)
(0.00209741 0.0292484 0)
(0.00093602 0.000149916 0)
(-0.00272192 -0.0350623 0)
(0.000117523 -0.000126522 -4.64179e-20)
(0.0018436 -0.0119684 9.86992e-21)
(-0.00131109 -0.0301881 0)
(-0.000586345 -0.0074446 0)
(1.68783e-05 2.20091e-05 8.69236e-20)
(-0.00167791 -0.0153645 0)
(-2.11078e-05 -3.28295e-06 -1.11994e-19)
(0.001755 0.0170277 5.7237e-21)
(0.00260941 -0.00261841 6.16968e-20)
(0.00471764 0.000709557 0)
(0.00855788 0.00212414 6.06466e-20)
(0.00602317 0.000648095 0)
(0.00186074 0.0355764 0)
(-0.000230165 -0.00535057 0)
(0.0012867 -0.00174472 3.6284e-21)
(0.00404384 0.00146417 5.74586e-20)
(0.00282106 0.0144092 -5.68306e-21)
(0.0025262 -0.00161136 6.57025e-20)
(0.00250613 0.000122142 6.96227e-20)
(-0.00487311 -0.0335936 -4.4417e-21)
(-0.000361791 -0.0043292 -1.81456e-20)
(-0.00284451 -0.0312819 1.40417e-21)
(-0.0103001 -0.0235818 1.52665e-21)
(-0.000707037 -0.0017972 -2.33991e-20)
(-0.0011087 -0.00185678 1.33408e-20)
(-0.000448195 -3.65414e-05 -9.68546e-21)
(-0.000629101 0.027628 3.467e-20)
(0.00040918 0.000455314 7.3261e-20)
(-0.00538907 -0.0108715 1.0733e-20)
(-0.000578648 0.00238628 3.48388e-22)
(0.00590664 0.00626253 1.21485e-19)
(-0.00569742 -0.00746379 5.16209e-20)
(-0.000229866 0.0027403 0)
(-0.000424643 0.00530012 8.69857e-21)
(0.00792504 0.00509239 -6.42756e-20)
(-0.000243771 0.00297675 0)
(0.00203166 0.0113489 -6.88271e-20)
(-0.00544502 0.0116171 0)
(-0.000207543 0.00429482 -2.1881e-20)
(-0.00286462 0.00571351 4.29547e-21)
(-0.000801726 0.0104683 -5.659e-20)
(0.0062638 0.00432762 1.77343e-19)
(0.00113788 0.00710073 -3.47849e-21)
(0.00521374 0.00783664 -6.44878e-20)
(0.00100616 0.0184342 -5.92383e-20)
(0.00513774 0.00471166 6.96128e-20)
(-0.00185441 0.0211912 3.80001e-20)
(-0.00222885 -0.00103873 0)
(0.000361166 -0.0211482 9.99731e-21)
(-0.00526326 -0.0063829 -4.62224e-21)
(0.00824431 0.00346304 0)
(-0.00359864 0.0189284 -8.02595e-20)
(-0.0022794 0.00475235 0)
(-0.00399821 0.00477741 3.54791e-20)
(0.000320344 -0.000361729 -6.08832e-20)
(0.00135157 -0.000822936 -2.44194e-22)
(0.000840299 -0.000883671 -8.27072e-22)
(6.12088e-05 -8.6308e-05 1.04866e-19)
(-0.0004493 -0.0124789 0)
(-0.00251566 -0.0256442 -7.5138e-22)
(0.007124 0.00672923 -1.5227e-19)
)
;

boundaryField
{
    back
    {
        type            empty;
    }
    front
    {
        type            empty;
    }
    left
    {
        type            noSlip;
    }
    top
    {
        type            uniformFixedValue;
        uniformValue    
        {
            type            scale;
            scale           
            {
                type            squarePulse;
                start           0.3;
                duration        0.3;
            }
            xScale          
            {
                type            constant;
                value           1;
            }
            value           
            {
                type            constant;
                value           (0 -0.7 0);
            }
        }
        value           uniform (0 -0 0);
    }
    right
    {
        type            noSlip;
    }
    bottom
    {
        type            zeroGradient;
    }
}


// ************************************************************************* //
