/*--------------------------------*- C++ -*----------------------------------*\
  =========                 |
  \\      /  F ield         | OpenFOAM: The Open Source CFD Toolbox
   \\    /   O peration     | Website:  https://openfoam.org
    \\  /    A nd           | Version:  9
     \\/     M anipulation  |
\*---------------------------------------------------------------------------*/
FoamFile
{
    format      ascii;
    class       volScalarField;
    location    "0.66";
    object      p;
}
// * * * * * * * * * * * * * * * * * * * * * * * * * * * * * * * * * * * * * //

dimensions      [0 2 -2 0 0 0 0];

internalField   nonuniform List<scalar> 
578
(
-1.82034e-07
-5.12919e-07
-1.31558e-07
1.85405e-08
-4.94202e-07
3.35919e-07
4.78023e-07
-4.18633e-07
-3.51752e-07
-7.71351e-07
1.77735e-07
-4.15202e-07
3.57108e-09
-4.6756e-07
4.48434e-07
-1.94865e-08
-2.52705e-07
-2.30796e-07
-3.25507e-07
-2.35068e-07
2.03737e-08
5.78838e-09
1.27017e-07
1.50852e-07
1.53758e-07
-3.07881e-07
-2.70782e-08
-5.82819e-08
-3.70876e-07
8.68526e-10
-3.32167e-08
3.79939e-07
-1.56211e-07
5.03778e-08
4.02716e-07
-1.75185e-07
-4.18909e-07
-3.99556e-07
1.89414e-09
-5.75769e-07
-4.50783e-07
-3.66437e-07
-4.63301e-07
4.69722e-07
-1.12682e-07
5.8143e-07
4.46571e-07
-3.77737e-07
-2.53972e-09
-3.94092e-08
5.33194e-07
8.80271e-10
4.9808e-07
4.30816e-08
-7.391e-09
-2.19426e-07
1.19649e-07
8.49951e-08
-1.23005e-07
-2.67702e-07
-2.35583e-07
-3.56934e-07
-3.46126e-07
-5.17393e-07
-7.37036e-09
4.34694e-07
-8.76787e-08
2.366e-07
1.58238e-07
-2.98995e-07
7.41766e-08
3.68084e-07
-6.35319e-09
-3.48925e-07
1.7537e-07
-5.50727e-07
-4.45727e-07
-3.66606e-07
-6.54389e-09
3.36417e-07
4.00392e-07
-3.71217e-07
5.71171e-07
5.37468e-07
1.0345e-07
3.08798e-07
5.96399e-07
-1.46998e-07
-3.32206e-07
2.97088e-07
-2.2658e-08
2.16452e-07
3.81394e-07
1.20315e-08
1.97449e-07
3.4492e-07
-7.01258e-09
-1.13064e-08
-7.4056e-07
4.46883e-07
4.19424e-07
-3.4067e-07
-2.4873e-08
2.75885e-07
-9.56186e-09
-4.73259e-07
1.96173e-07
-5.58486e-07
3.67378e-07
-4.90786e-07
-1.57376e-07
-3.23093e-07
-2.63493e-07
2.75805e-07
2.99995e-07
-1.5393e-08
1.61515e-08
-2.52383e-07
2.92427e-07
-5.56444e-09
-2.72128e-07
7.57777e-07
-3.77889e-07
7.97122e-09
4.27187e-07
1.95638e-07
3.29558e-07
-2.34491e-09
3.65352e-07
5.10637e-08
3.68702e-07
1.7215e-07
1.16815e-08
-2.99923e-07
3.28493e-07
3.56997e-07
-4.89266e-07
-1.54835e-08
1.89377e-07
3.71006e-07
3.99303e-07
1.07282e-07
3.56029e-07
-1.48672e-07
-3.44063e-07
1.39579e-07
1.33908e-07
-5.69417e-08
-3.78631e-07
-4.89863e-10
-4.03806e-07
1.71649e-07
-4.91892e-07
-2.77356e-07
4.3644e-07
-3.95419e-08
-2.83883e-07
1.83856e-08
4.78317e-07
-4.09843e-07
-4.29055e-07
-4.17717e-07
4.23694e-07
-3.93584e-07
-2.4558e-07
1.16167e-07
-1.82034e-07
4.4045e-07
3.835e-08
-9.79799e-09
-3.58772e-07
-5.02252e-07
3.67458e-07
2.64128e-07
4.2708e-07
-1.36363e-08
-5.25006e-09
-2.35602e-07
-3.94003e-07
-3.43095e-07
4.68255e-07
-3.94983e-07
2.44112e-07
-6.07904e-09
3.73198e-07
-4.29729e-08
-3.12029e-08
4.82763e-07
4.3312e-07
-4.98575e-07
-4.3911e-07
-4.25088e-07
1.46456e-07
4.33964e-07
-5.88794e-07
-5.64535e-09
5.77608e-08
-6.91239e-08
4.19306e-07
-4.41136e-07
2.67547e-08
7.61491e-10
8.00846e-07
-1.83826e-08
-1.08707e-08
-4.5143e-07
4.07727e-07
-1.72824e-08
-4.2371e-07
8.4528e-08
7.27111e-08
4.06313e-07
3.10846e-07
-1.60082e-09
3.20365e-07
-1.82244e-09
4.31653e-07
-4.3623e-07
4.32337e-07
1.63326e-07
-4.33248e-07
4.22312e-07
-1.97551e-07
-4.40516e-07
4.72561e-07
1.9245e-07
-4.08975e-09
4.51362e-08
-5.87011e-08
-4.01922e-07
-6.79006e-07
7.72986e-07
2.98543e-07
-1.83686e-07
1.81628e-07
-3.25869e-07
-4.52764e-07
4.55188e-07
5.64892e-09
-7.26466e-08
4.52126e-07
-5.07204e-07
-1.15858e-08
4.5311e-07
-6.37681e-08
-3.44755e-07
3.69446e-07
-7.07508e-07
3.18153e-07
7.9908e-09
-5.30033e-09
2.62377e-07
4.27765e-07
5.02375e-08
4.12768e-07
-1.09228e-07
-3.27885e-07
4.1251e-07
-3.68418e-07
7.07155e-07
-1.68334e-07
4.70474e-07
5.20891e-08
5.76219e-08
-3.99628e-07
-2.38048e-07
1.26654e-07
-8.50619e-08
-5.80319e-07
1.49823e-07
-1.5129e-07
1.52418e-07
6.77512e-08
-6.87994e-09
3.27089e-09
3.53816e-09
-1.30181e-08
8.27257e-08
4.43033e-07
2.42835e-08
-4.67992e-07
-4.3049e-09
-9.31694e-09
-1.70272e-09
6.89823e-09
3.47804e-07
-2.06685e-07
2.01399e-07
1.03195e-07
7.63725e-08
6.04516e-08
2.49176e-07
-2.18527e-08
4.03708e-07
2.28136e-08
4.08655e-08
-4.66988e-07
-5.18394e-08
-7.35296e-08
1.18087e-08
1.71976e-08
-6.28911e-08
-3.56746e-08
-1.21165e-07
4.63966e-08
2.92002e-08
5.30097e-10
-2.82844e-07
1.35918e-08
3.64157e-09
-1.30379e-07
-4.11797e-08
9.55818e-11
-7.05419e-08
3.50334e-08
-9.11495e-09
2.26689e-07
-5.3526e-08
-1.28799e-07
4.06248e-08
2.37865e-07
-1.00061e-08
-3.43075e-09
9.51493e-08
-9.88107e-09
-3.28762e-08
4.04212e-07
4.16695e-07
-4.38192e-07
-3.43031e-08
-1.32209e-08
3.54258e-07
-1.45694e-08
-3.47333e-08
2.90189e-07
6.2227e-08
4.61061e-09
-2.53308e-08
-1.79586e-07
-2.09726e-08
-6.84297e-09
-3.72591e-09
-3.76363e-08
-2.34374e-07
2.57576e-08
3.72782e-07
2.16286e-07
3.41775e-07
-3.4643e-07
3.96051e-07
-3.83574e-07
-4.22858e-07
4.23721e-07
-1.50197e-07
-5.3736e-07
5.45963e-07
6.30061e-08
5.19506e-07
-5.61041e-07
5.48057e-07
-8.4996e-09
-1.88865e-07
3.94211e-08
-2.75923e-07
-3.1475e-10
2.15081e-08
-3.8985e-08
3.36612e-07
3.39528e-09
-4.3778e-08
-4.05587e-07
-3.81863e-07
1.54332e-07
2.28971e-07
1.6367e-07
5.9218e-07
-2.44675e-08
3.87618e-07
-4.06146e-07
-9.37613e-08
-8.99942e-09
-4.11331e-07
4.25269e-07
8.40271e-08
4.97016e-08
-6.27481e-09
4.26301e-09
5.20938e-07
4.87615e-07
-3.18377e-07
-5.47341e-09
8.91379e-08
1.04314e-07
-1.14008e-07
-3.96143e-08
4.69348e-08
3.87467e-07
-9.1601e-08
7.11114e-08
1.75474e-07
-1.54396e-09
3.39051e-07
5.22158e-09
-2.62863e-07
-9.62532e-09
-5.30411e-08
2.57161e-07
-1.08216e-07
1.405e-07
2.58755e-07
-3.27108e-08
-3.40783e-07
-2.05143e-07
2.16462e-07
-1.2326e-07
1.64866e-07
-3.53086e-07
3.49511e-07
-4.71955e-07
-3.47602e-08
3.82564e-07
2.54394e-07
-3.84598e-07
4.60313e-07
2.9348e-07
-1.84429e-07
-2.98131e-07
-2.89792e-07
-3.66974e-07
-1.74062e-07
2.82772e-07
8.29025e-08
1.06107e-07
-7.55077e-09
2.60605e-07
-2.39029e-07
-4.11057e-07
-2.29719e-07
-2.4512e-07
-1.05879e-07
-1.90347e-07
9.03191e-09
2.19783e-08
-5.13001e-08
3.47316e-07
-8.83979e-08
-7.50075e-08
3.06229e-07
3.02066e-07
-9.5147e-09
3.92563e-07
-1.8315e-08
3.1059e-07
2.49481e-09
3.93779e-07
9.68463e-09
-5.10724e-07
1.26692e-07
9.64953e-08
-2.71968e-07
6.05757e-07
3.5857e-07
-2.33355e-07
-2.4698e-07
-8.90504e-08
-3.06218e-07
2.60822e-07
-4.74686e-07
-1.48476e-07
-2.31705e-07
-8.74291e-08
-7.35531e-08
2.72583e-07
-3.90319e-08
-1.05488e-07
-3.62868e-07
-2.68997e-07
-2.94457e-07
-1.47271e-07
-2.55895e-07
1.04198e-07
1.44803e-07
-1.12995e-07
-7.24401e-08
-3.59076e-08
-2.1885e-07
-1.59086e-07
-3.12289e-08
-2.22968e-08
3.79506e-07
1.63883e-08
2.80948e-07
-1.44362e-07
1.56173e-08
-2.00021e-08
3.07296e-07
-5.09004e-09
3.49755e-07
-2.74965e-08
1.26755e-08
-4.55401e-07
-6.66574e-08
-2.39337e-07
3.90803e-09
-2.3153e-07
-2.9432e-08
3.48116e-07
2.7261e-08
2.3552e-07
-2.17038e-08
-4.87021e-08
4.19227e-07
-5.87583e-09
5.67778e-07
3.91168e-07
-6.94005e-09
-4.10057e-07
-5.53461e-07
2.88477e-07
9.17384e-09
1.47271e-07
1.92522e-07
-1.15042e-07
-3.23899e-07
-3.52397e-07
-5.84954e-09
-1.04162e-07
3.21644e-08
-3.76243e-07
-3.72168e-07
-3.94934e-07
-3.98834e-07
-6.71114e-08
-5.55166e-08
3.58411e-07
2.96537e-07
2.70425e-07
3.28326e-07
2.9548e-07
-3.98755e-08
2.34992e-08
3.44253e-07
-2.10901e-07
-3.05774e-07
4.26e-07
6.07342e-08
1.80216e-07
-2.29276e-07
-1.89393e-07
-2.86043e-07
2.33849e-07
4.22028e-07
-2.7806e-07
3.93047e-07
2.47782e-07
-1.52823e-07
-4.14029e-07
-6.9522e-08
-1.55918e-08
-3.29496e-08
-2.62118e-08
4.23389e-07
-3.68554e-07
-3.17538e-08
1.69673e-08
2.52029e-07
3.13125e-09
-2.30882e-07
-2.14609e-08
6.78783e-09
3.63197e-07
-2.40661e-07
2.69706e-07
-3.51293e-07
-1.31855e-07
1.74727e-07
2.09946e-07
1.54146e-07
)
;

boundaryField
{
    front
    {
        type            empty;
    }
    back
    {
        type            empty;
    }
    bottom
    {
        type            uniformFixedValue;
        uniformValue    
        {
            type            scale;
            scale           
            {
                type            squarePulse;
                start           0.3;
                duration        0.3;
            }
            xScale          
            {
                type            constant;
                value           1;
            }
            value           
            {
                type            constant;
                value           15.1;
            }
        }
        value           uniform 0;
    }
    left
    {
        type            zeroGradient;
    }
    top
    {
        type            zeroGradient;
    }
    right
    {
        type            zeroGradient;
    }
    inner_arc
    {
        type            zeroGradient;
    }
}


// ************************************************************************* //
