/*--------------------------------*- C++ -*----------------------------------*\
  =========                 |
  \\      /  F ield         | OpenFOAM: The Open Source CFD Toolbox
   \\    /   O peration     | Website:  https://openfoam.org
    \\  /    A nd           | Version:  9
     \\/     M anipulation  |
\*---------------------------------------------------------------------------*/
FoamFile
{
    format      ascii;
    class       volVectorField;
    location    "0.66";
    object      U;
}
// * * * * * * * * * * * * * * * * * * * * * * * * * * * * * * * * * * * * * //

dimensions      [0 1 -1 0 0 0 0];

internalField   nonuniform List<vector> 
578
(
(9.26477e-06 1.14595e-05 0)
(7.27761e-06 9.94017e-06 -2.85156e-23)
(1.43048e-05 1.72628e-05 0)
(-5.67468e-07 -1.60606e-06 1.08534e-24)
(2.6671e-06 -5.71203e-06 0)
(6.32162e-06 -1.88577e-06 -1.36801e-23)
(2.75439e-06 5.86528e-06 -2.71846e-24)
(2.76647e-06 -5.04694e-06 -2.33247e-23)
(1.41602e-05 -2.30827e-05 0)
(3.72593e-06 6.06201e-06 3.54222e-23)
(9.70922e-06 -3.41702e-06 9.56421e-24)
(9.68301e-06 -1.85979e-05 -1.46159e-24)
(-6.06517e-07 -1.6767e-07 0)
(1.00483e-05 -2.05584e-05 2.89465e-23)
(1.01268e-05 2.05617e-05 0)
(1.79798e-05 -2.06352e-05 1.42561e-24)
(1.28084e-05 6.47353e-06 7.38545e-24)
(1.53601e-05 1.41569e-05 -2.29991e-23)
(8.67037e-06 -1.66802e-05 7.00262e-24)
(1.54375e-05 -2.26979e-05 1.46582e-23)
(-8.44858e-07 -2.14545e-06 -1.1175e-24)
(1.50076e-05 -1.88789e-05 4.19703e-24)
(7.79869e-06 -3.75415e-06 -1.07423e-23)
(3.72908e-07 3.68332e-06 -1.05943e-24)
(6.64793e-08 3.40568e-06 0)
(8.45901e-06 -1.71435e-05 1.53056e-24)
(-5.02965e-07 1.62673e-06 0)
(-2.00507e-07 1.31608e-06 -1.46735e-25)
(8.64324e-06 8.38999e-06 1.79914e-23)
(1.79347e-05 -2.09518e-05 0)
(-4.05836e-07 2.14923e-06 1.71622e-24)
(4.30252e-06 -1.84752e-06 -1.71621e-24)
(1.80839e-05 -2.15846e-05 1.07138e-24)
(-4.08074e-07 3.91736e-06 -6.67767e-25)
(8.81432e-06 1.82265e-05 -2.46847e-23)
(1.54222e-05 -1.75629e-05 -4.68986e-24)
(8.74453e-06 -1.80783e-05 -2.55048e-23)
(8.07831e-06 -1.55552e-05 0)
(1.71958e-05 1.99054e-05 1.35729e-26)
(4.41031e-06 -9.23464e-06 0)
(4.62266e-06 -1.0172e-05 2.45429e-23)
(4.97715e-06 -8.68903e-06 1.27902e-23)
(4.44138e-06 -8.60403e-06 2.93766e-23)
(8.67695e-06 1.78066e-05 -8.60939e-25)
(1.06734e-05 -1.16431e-05 0)
(4.50432e-06 9.47089e-06 1.05177e-24)
(4.67156e-06 1.03859e-05 2.72847e-23)
(1.24335e-05 -2.05553e-05 1.09558e-23)
(1.7445e-05 2.02756e-05 -1.38491e-26)
(-7.28874e-07 1.49372e-06 0)
(6.4394e-07 8.01934e-07 8.2392e-25)
(-5.45194e-07 -2.57803e-07 3.54779e-26)
(8.93821e-06 -5.24061e-06 1.8704e-23)
(-6.24781e-07 3.73776e-06 6.60423e-25)
(-1.89731e-07 -1.72986e-08 0)
(5.97668e-06 6.99939e-07 -5.71573e-24)
(3.37435e-06 -1.12536e-06 -1.42478e-24)
(6.03731e-06 -5.71802e-06 0)
(1.63851e-05 1.20404e-05 1.19818e-23)
(9.88245e-06 -1.10794e-05 -5.45221e-24)
(1.70741e-05 1.52624e-05 6.60973e-24)
(7.06637e-06 3.74872e-06 1.25853e-23)
(9.35997e-06 8.4371e-06 1.70245e-23)
(8.7201e-06 -1.80264e-05 -1.35472e-23)
(-8.6179e-07 1.22754e-07 -3.9129e-25)
(1.07949e-05 2.07817e-05 1.36102e-23)
(1.69937e-05 -2.17676e-05 -9.25437e-24)
(1.17828e-05 -5.54107e-06 0)
(1.80526e-05 -1.85971e-05 1.44493e-24)
(1.02153e-05 -2.14928e-05 -9.68284e-24)
(-2.34991e-07 3.56358e-06 0)
(1.92067e-06 4.52879e-07 -2.3327e-23)
(-7.46245e-07 -1.43477e-08 8.01756e-25)
(1.05944e-05 -2.15823e-05 -2.56271e-23)
(5.5757e-06 4.66128e-07 0)
(2.59577e-06 -5.47103e-06 -1.35105e-23)
(1.25982e-05 -1.934e-05 -3.53461e-23)
(1.00725e-05 -1.54246e-05 1.97416e-23)
(-8.91772e-07 -1.79141e-07 -3.78474e-25)
(8.60532e-06 9.5314e-06 6.3182e-24)
(1.37597e-05 -1.44547e-05 -2.8062e-23)
(4.7632e-06 6.46914e-06 -4.1399e-23)
(3.3853e-06 -5.06909e-06 -4.46738e-23)
(4.64939e-06 -6.44329e-06 0)
(1.60119e-05 2.14252e-05 5.57239e-24)
(3.24905e-06 8.01611e-06 -2.70699e-23)
(6.10981e-07 2.01125e-09 0)
(8.25784e-06 1.2039e-06 -1.67703e-24)
(7.12419e-06 -1.5119e-05 2.08444e-23)
(7.33114e-06 1.67174e-05 1.25116e-25)
(-6.9801e-07 2.10407e-06 -1.68141e-24)
(1.33043e-05 1.88381e-05 5.16847e-26)
(7.11858e-06 1.53613e-05 2.08616e-23)
(-9.31287e-07 -6.4171e-07 2.30713e-25)
(1.86702e-05 -2.0015e-05 -1.66072e-24)
(1.53562e-05 -1.81082e-05 0)
(-3.80703e-07 2.51382e-09 -4.78884e-25)
(-3.01127e-07 -5.8071e-08 0)
(1.5825e-06 2.24028e-06 8.90069e-24)
(1.02339e-05 2.08114e-05 -2.47114e-23)
(9.65234e-06 1.808e-05 -1.53618e-24)
(9.41222e-06 -2.05113e-05 -1.07986e-23)
(-7.88495e-07 4.72483e-07 0)
(1.3467e-05 1.48893e-05 0)
(-1.03356e-07 3.35942e-08 -2.34742e-25)
(1.01761e-05 -2.08423e-05 -2.52868e-23)
(4.87912e-06 2.86305e-07 0)
(4.65291e-06 -9.89163e-06 -1.624e-23)
(1.51555e-06 4.14838e-06 1.67998e-23)
(5.102e-06 -1.02759e-05 3.17793e-23)
(1.50205e-05 -1.88418e-05 -6.07067e-24)
(9.7325e-06 -2.05621e-05 -7.72011e-24)
(1.67646e-05 -2.23519e-05 -1.05916e-24)
(1.78024e-05 -1.66215e-05 2.13225e-24)
(1.77206e-05 -1.8942e-05 -2.11989e-24)
(-5.6749e-07 2.64809e-07 -9.58155e-25)
(-6.99815e-07 -1.40966e-06 0)
(1.72854e-05 1.61838e-05 4.53967e-24)
(6.28508e-06 1.39643e-05 0)
(-2.91718e-07 5.65063e-08 -4.7911e-25)
(6.76915e-06 -1.36547e-05 1.95825e-23)
(7.70909e-06 -1.08039e-05 0)
(9.7925e-06 -1.93078e-05 2.62936e-24)
(-5.36791e-07 -2.29581e-06 3.43163e-25)
(7.03819e-06 -9.5369e-06 0)
(8.2534e-06 2.04209e-05 6.0864e-24)
(1.12169e-05 -1.2158e-05 2.84067e-23)
(1.66677e-05 -1.8626e-05 -1.17238e-24)
(1.06093e-05 2.16109e-05 -2.2894e-23)
(7.42982e-06 2.08945e-05 0)
(1.03297e-05 2.06162e-05 2.71815e-23)
(8.25715e-06 2.10781e-05 0)
(-8.47085e-07 -9.05496e-07 5.89273e-25)
(1.67831e-06 -3.39005e-06 -1.53987e-23)
(1.02902e-05 2.13162e-05 -2.44462e-23)
(9.49497e-06 1.67735e-05 0)
(8.26089e-06 -1.52416e-05 3.09281e-23)
(-5.79047e-07 1.43558e-07 9.63158e-25)
(1.77381e-05 -1.50455e-05 -6.04482e-26)
(8.67299e-06 1.67313e-05 -2.26962e-23)
(3.90246e-06 7.24209e-06 0)
(7.43776e-06 2.05827e-05 0)
(7.24504e-06 1.38488e-05 0)
(1.66818e-07 -3.47949e-06 0)
(3.6573e-06 -7.18769e-06 1.93492e-23)
(1.76019e-05 2.17064e-05 0)
(6.14987e-06 1.40082e-05 1.37298e-23)
(-1.01101e-07 1.95249e-07 -3.62999e-24)
(1.06261e-05 -2.14555e-05 0)
(7.11768e-06 1.93528e-05 0)
(1.21414e-05 -2.28359e-05 0)
(3.52076e-06 5.12777e-06 -1.85635e-24)
(4.05907e-06 -4.35278e-06 2.78172e-23)
(3.09949e-06 -6.26962e-06 1.39904e-23)
(1.11441e-05 2.19194e-05 -7.6014e-25)
(-4.11757e-07 9.54472e-07 -2.30508e-24)
(1.29886e-05 9.70163e-06 -2.02651e-23)
(-2.7395e-07 -4.21462e-07 9.48831e-25)
(3.35978e-06 3.614e-06 1.00338e-23)
(1.2592e-05 -2.31754e-05 0)
(1.07743e-05 -2.08078e-05 0)
(9.67924e-06 -1.80493e-05 0)
(2.03107e-06 3.77265e-06 0)
(1.07526e-05 -1.95693e-05 3.62362e-25)
(8.24507e-08 -1.3227e-06 0)
(7.47233e-06 1.82849e-05 -7.6148e-24)
(-4.69436e-09 -2.36143e-06 0)
(9.55214e-06 1.83204e-05 -2.1154e-25)
(-9.71844e-08 -1.86398e-07 0)
(-1.5249e-06 1.66119e-06 0)
(1.00164e-05 -1.71454e-05 2.26461e-23)
(4.51397e-06 -8.21867e-06 0)
(5.23656e-06 9.12847e-06 0)
(3.04385e-06 6.06224e-06 -2.67142e-25)
(8.04649e-06 1.51549e-05 0)
(-1.18973e-06 2.33213e-07 0)
(-1.43901e-06 2.50779e-08 3.44569e-25)
(1.76424e-05 1.32902e-05 -1.40566e-24)
(5.78142e-06 -9.98539e-06 -2.13622e-23)
(1.8516e-06 -5.11299e-07 0)
(4.46114e-06 8.2035e-06 2.2183e-25)
(1.11922e-05 1.53364e-05 2.924e-23)
(5.4045e-06 1.48596e-05 0)
(-1.23287e-06 -2.66867e-07 -4.57006e-25)
(1.1478e-05 1.94529e-05 0)
(-3.95964e-08 3.22596e-08 1.89954e-24)
(6.07046e-06 -7.51552e-06 1.45524e-24)
(1.06413e-05 2.18011e-05 2.4031e-23)
(1.15735e-05 2.24663e-05 0)
(6.56254e-07 -7.88615e-07 0)
(1.15154e-05 -2.24134e-05 0)
(9.06856e-06 -1.66944e-05 2.65074e-23)
(9.80629e-06 -1.31319e-05 -4.51804e-24)
(8.54622e-06 1.60149e-05 2.07504e-25)
(6.60007e-06 9.86288e-06 2.72454e-23)
(-2.0303e-06 4.578e-07 1.31255e-24)
(-1.53261e-07 -4.99221e-07 -3.05009e-24)
(-1.54156e-07 5.05426e-07 -4.13727e-24)
(8.96797e-06 1.6563e-05 0)
(8.6086e-06 -1.6039e-05 0)
(-4.25071e-08 -3.65526e-08 0)
(-1.25796e-06 -5.85921e-07 1.46024e-25)
(4.27474e-06 -6.39883e-06 4.04773e-23)
(-1.83033e-06 9.55014e-07 -1.25136e-24)
(-1.70821e-06 1.0504e-07 -3.14467e-25)
(9.83856e-06 -1.84788e-05 -5.55869e-23)
(1.06372e-05 1.96133e-05 0)
(8.83988e-06 1.15199e-05 6.33275e-25)
(1.16902e-05 -2.29847e-05 0)
(5.41077e-06 6.3135e-06 -9.30423e-24)
(4.73562e-06 1.06571e-05 -6.28622e-24)
(1.17567e-05 2.30171e-05 0)
(9.62402e-06 2.00262e-05 0)
(-1.81831e-06 -3.72913e-07 -2.54939e-26)
(8.10658e-06 1.61858e-05 0)
(-6.8265e-07 -2.84655e-06 -1.68266e-25)
(1.0084e-05 1.9123e-05 0)
(1.01163e-05 -1.91335e-05 -1.0288e-25)
(1.14195e-05 2.26616e-05 2.74272e-23)
(2.46385e-06 5.19342e-06 0)
(1.13627e-05 -2.25594e-05 2.90645e-23)
(9.0966e-06 1.74356e-05 2.51007e-23)
(5.78609e-06 -1.22423e-05 -2.76795e-23)
(5.01016e-06 -9.28724e-06 -2.612e-23)
(4.71219e-06 8.64757e-06 0)
(5.74154e-06 1.20173e-05 1.55586e-25)
(-2.04076e-06 -1.69645e-07 -2.33848e-25)
(-6.6997e-08 -1.49925e-07 0)
(-6.71833e-08 1.57953e-07 2.75651e-24)
(2.62316e-07 -9.21737e-07 1.73631e-23)
(2.83811e-06 4.46932e-06 0)
(1.52017e-06 -2.04521e-06 3.55214e-23)
(1.62976e-06 3.20906e-06 2.13326e-25)
(6.38864e-06 -1.76433e-05 0)
(6.41793e-06 1.76601e-05 0)
(3.3754e-06 -5.52446e-06 -1.20637e-23)
(2.50745e-06 -4.63074e-06 -2.21554e-23)
(2.51179e-06 4.59145e-06 -2.20329e-23)
(-6.45355e-07 -4.26637e-07 -3.68411e-25)
(4.7471e-06 -1.07481e-05 0)
(2.21293e-06 4.1052e-06 -2.15619e-23)
(2.30877e-06 -3.90119e-06 -2.49103e-23)
(-2.0562e-06 7.10178e-07 1.29064e-25)
(4.17224e-06 7.71973e-06 -4.26836e-25)
(-8.70365e-08 3.69919e-07 6.12919e-24)
(1.85603e-06 -3.81619e-06 -1.95929e-23)
(1.88706e-06 3.5675e-06 0)
(1.68592e-06 1.84557e-06 0)
(2.76527e-06 4.56487e-06 0)
(-1.28499e-06 3.04572e-06 5.7401e-26)
(-2.0073e-06 -3.65055e-07 0)
(9.18708e-06 2.10872e-05 2.19951e-25)
(4.17561e-06 -3.79799e-06 2.21686e-23)
(1.65738e-06 -4.40017e-06 0)
(2.30755e-07 9.44838e-07 0)
(7.36153e-06 -2.05625e-05 -4.71648e-24)
(2.52501e-07 -1.96957e-06 -2.26494e-23)
(1.25325e-05 2.32661e-05 -1.29993e-23)
(2.67673e-06 -4.91874e-06 -1.80308e-23)
(1.64214e-06 -1.75555e-06 -4.62461e-23)
(2.47715e-06 -5.25136e-06 7.60842e-24)
(2.35923e-06 4.32838e-06 -1.77695e-25)
(-1.00874e-07 -3.76338e-07 5.21148e-24)
(-2.09689e-07 -9.43629e-07 -6.65311e-24)
(1.16204e-05 1.42186e-05 -4.34777e-23)
(7.29002e-06 -1.56781e-05 1.13813e-23)
(3.50654e-06 -9.6779e-06 0)
(9.57366e-07 -2.23597e-06 -6.14215e-24)
(6.39234e-07 2.09008e-08 -4.37756e-25)
(4.06446e-07 -2.01388e-06 0)
(4.12194e-07 2.01553e-06 0)
(8.36527e-06 2.01775e-05 0)
(4.88392e-06 -1.27779e-05 0)
(-1.87727e-06 8.27047e-09 4.95646e-26)
(-1.57204e-06 -7.99442e-07 -1.83669e-25)
(-1.67854e-06 1.37979e-06 1.06874e-25)
(-1.05612e-06 2.98023e-06 -2.9843e-25)
(9.60485e-07 2.2197e-06 -3.45545e-28)
(4.96632e-06 9.05599e-06 0)
(-9.56453e-07 2.94701e-06 1.25445e-24)
(4.72198e-06 -8.70069e-06 2.19591e-25)
(-1.67387e-06 2.17193e-06 -5.78389e-26)
(-1.61074e-06 -1.1778e-06 0)
(-1.93117e-06 -1.11845e-06 3.8005e-26)
(-1.27728e-06 1.70425e-06 1.58922e-25)
(3.52943e-06 6.7468e-06 0)
(1.3417e-06 -2.85068e-06 7.11047e-26)
(1.34095e-06 2.80158e-06 -9.7721e-24)
(7.57432e-09 1.06674e-06 2.15809e-24)
(-1.22528e-07 2.23892e-06 6.23378e-25)
(6.15425e-06 -1.7367e-05 2.44115e-24)
(9.45489e-06 2.07959e-05 0)
(-1.51516e-06 2.08903e-06 6.35408e-25)
(2.68413e-06 4.77128e-06 -1.94738e-23)
(-1.0011e-07 -8.7148e-07 7.68928e-25)
(-2.06221e-07 -1.42036e-06 -1.11699e-24)
(2.37631e-06 -4.39854e-06 0)
(7.35723e-06 -2.08834e-05 8.77169e-24)
(-1.52585e-07 -2.35305e-06 -8.46397e-24)
(-2.10896e-07 -1.97076e-06 -2.18491e-26)
(-1.03996e-06 3.41542e-06 -1.27818e-24)
(6.18859e-06 1.73286e-05 0)
(-1.00446e-07 -1.32136e-06 2.5953e-24)
(-2.90899e-08 -1.30688e-06 4.76414e-24)
(-1.11141e-07 -6.64946e-07 2.44904e-24)
(-1.12937e-07 1.37744e-06 -2.50807e-24)
(7.05027e-06 -1.93866e-05 -3.42281e-24)
(2.08577e-06 -1.74548e-06 0)
(-1.9376e-07 7.52136e-07 -1.28379e-25)
(-9.41502e-07 5.15456e-07 -1.86832e-25)
(6.14388e-06 -1.41292e-05 0)
(2.61299e-06 -1.22188e-06 0)
(1.7413e-06 -2.45848e-07 -3.89307e-25)
(4.89488e-06 1.27187e-05 -2.51231e-28)
(1.38226e-07 2.19465e-06 -3.0444e-24)
(-1.58454e-06 -2.26729e-06 1.07296e-24)
(8.67035e-06 1.93146e-05 0)
(1.66187e-06 4.38388e-06 4.33621e-28)
(3.51867e-06 9.6578e-06 0)
(-4.01736e-07 3.16775e-06 3.75196e-24)
(7.22274e-06 1.5233e-05 0)
(-1.19298e-06 -1.0507e-06 1.26139e-24)
(-1.82451e-06 1.74248e-06 -7.2393e-25)
(1.18327e-06 3.07435e-06 1.86846e-24)
(-1.68116e-06 6.54603e-07 1.13864e-24)
(-6.7352e-07 -2.32133e-06 -1.16226e-24)
(1.21462e-05 2.28934e-05 0)
(7.64468e-06 1.43663e-05 0)
(1.11929e-05 -2.17338e-05 2.69689e-23)
(9.86034e-08 -2.0843e-06 3.88049e-24)
(-1.13543e-06 5.21481e-07 2.86703e-25)
(1.32714e-05 2.29141e-05 0)
(4.91181e-07 -5.12921e-07 -7.25063e-25)
(-8.2058e-07 -3.29527e-06 4.21517e-25)
(6.59694e-06 1.30641e-05 0)
(1.08739e-06 2.22582e-06 7.34593e-25)
(-1.58716e-06 -1.67133e-06 7.81301e-26)
(-1.18554e-06 -3.14282e-06 -9.04639e-25)
(7.59543e-07 -3.44107e-06 0)
(-1.1464e-06 2.46977e-06 0)
(-1.70814e-06 -2.11412e-06 0)
(-1.98006e-06 -1.21091e-06 2.33267e-25)
(4.31063e-06 -8.1132e-07 -5.09732e-24)
(9.3502e-07 -2.70154e-06 5.0331e-25)
(2.16443e-06 1.03683e-06 -9.45323e-25)
(1.36344e-05 -1.78273e-05 0)
(1.79017e-05 -9.06939e-06 -7.04807e-24)
(1.60899e-06 3.63163e-06 -7.47436e-24)
(1.58297e-06 -3.49227e-06 8.51456e-24)
(1.78993e-06 3.87035e-06 -9.62397e-24)
(1.84339e-06 -3.92448e-06 -1.42695e-23)
(1.96125e-06 -3.92733e-06 0)
(1.99502e-06 3.96132e-06 6.17054e-24)
(3.55197e-06 -1.79732e-06 0)
(2.17403e-06 -4.81762e-06 0)
(2.17154e-06 4.98048e-06 0)
(3.70912e-06 8.85387e-07 -4.94591e-25)
(2.4738e-06 5.19458e-06 -9.62642e-24)
(2.9993e-06 -5.61777e-06 -2.26324e-23)
(2.94772e-06 5.52478e-06 -5.59112e-24)
(1.17241e-05 3.06699e-07 3.6857e-25)
(3.04533e-06 7.79536e-07 0)
(7.42099e-06 -8.0354e-08 3.65522e-24)
(1.45013e-06 -3.64433e-06 0)
(5.2021e-06 2.56303e-08 2.45965e-24)
(1.81924e-05 -4.15667e-07 0)
(9.04476e-06 1.28018e-07 -3.54942e-25)
(1.67106e-05 -1.47645e-05 3.86458e-23)
(-1.40047e-06 -1.36889e-06 7.15812e-26)
(5.26913e-06 5.47337e-06 0)
(9.30795e-06 -1.95149e-05 2.24553e-23)
(4.87662e-06 3.54084e-06 -8.8639e-24)
(9.95598e-06 1.15952e-05 6.28093e-24)
(1.73037e-05 -1.17173e-05 -1.05277e-23)
(1.7469e-05 2.14426e-05 -4.25034e-24)
(5.06384e-06 -3.24173e-06 1.44051e-23)
(-1.35469e-06 8.00364e-07 -1.3121e-24)
(3.34864e-06 7.40469e-06 0)
(3.3517e-06 -7.29061e-06 -1.14018e-23)
(1.4027e-05 4.38011e-06 -9.03676e-24)
(-1.69564e-07 1.87152e-08 7.55253e-25)
(3.62747e-06 -7.89767e-06 6.30331e-24)
(3.66377e-06 7.88875e-06 0)
(1.50881e-05 -2.10949e-06 -1.0779e-24)
(1.26501e-05 -1.20195e-06 -5.70806e-24)
(1.66218e-05 7.40042e-08 -1.19299e-24)
(6.05666e-06 -8.30731e-08 1.80276e-24)
(4.55118e-06 9.86221e-06 0)
(4.98682e-06 9.95119e-06 -4.03502e-24)
(3.01066e-06 -6.94004e-06 0)
(-1.00452e-07 -3.55558e-08 0)
(1.8277e-05 -5.23215e-06 0)
(1.81903e-05 -4.29838e-06 -8.16066e-24)
(7.39386e-06 -1.83502e-05 0)
(1.77926e-05 1.93905e-05 1.16955e-24)
(1.44875e-05 -2.12443e-06 4.5909e-24)
(1.07102e-05 -8.69501e-06 0)
(4.82963e-07 -3.58352e-06 3.80017e-24)
(1.74219e-05 -1.68879e-06 -9.17114e-25)
(1.09118e-08 2.17159e-06 0)
(1.62641e-05 1.91127e-05 -5.50767e-24)
(1.64048e-07 1.94868e-06 0)
(1.17e-05 7.71066e-07 -1.26785e-24)
(6.77275e-06 6.02656e-06 0)
(-1.32399e-07 6.4169e-08 3.00384e-25)
(1.84858e-05 2.94211e-06 6.55955e-25)
(1.5924e-05 -1.37779e-05 -9.27957e-24)
(1.71551e-05 5.79322e-06 -3.47017e-24)
(1.49296e-05 -4.90777e-06 1.11165e-24)
(1.59251e-05 -1.01474e-05 0)
(1.80814e-05 2.45164e-06 -6.5937e-25)
(1.51613e-05 1.47894e-05 6.55114e-24)
(3.76653e-06 -1.1189e-06 0)
(6.6286e-06 1.71854e-05 -6.19757e-24)
(1.79015e-05 1.00368e-05 3.5143e-24)
(1.67331e-05 -6.66168e-06 1.05248e-23)
(8.27364e-06 -1.72572e-05 -1.22902e-23)
(8.21044e-06 1.73809e-05 -1.33285e-23)
(1.0868e-05 -2.18909e-05 2.04478e-23)
(-1.12346e-06 1.52366e-06 0)
(9.8773e-06 2.05524e-05 2.64572e-23)
(5.25893e-08 1.29826e-06 0)
(1.06759e-05 -2.12573e-05 -1.21612e-24)
(1.00789e-05 2.05024e-05 1.24824e-23)
(9.0863e-06 2.02404e-05 0)
(8.01271e-06 -2.0266e-05 4.70483e-24)
(3.21845e-06 -7.98737e-06 0)
(5.88934e-06 2.01469e-06 0)
(1.45368e-06 -4.12861e-06 -9.34882e-25)
(8.10953e-06 -2.10512e-05 -5.80368e-24)
(1.51611e-05 2.23837e-05 8.49254e-24)
(7.89993e-06 -4.09486e-07 -3.66076e-24)
(9.25819e-06 -1.13709e-05 -1.06108e-24)
(-1.21892e-07 -6.17162e-08 0)
(1.59613e-06 3.90437e-06 0)
(9.34273e-06 -2.09719e-05 1.34426e-23)
(7.85034e-06 -1.64653e-05 -2.42536e-23)
(1.55705e-05 1.19593e-05 -6.24389e-24)
(5.3773e-06 -1.487e-05 -5.63857e-26)
(1.77333e-05 6.43571e-06 9.06608e-24)
(1.75296e-05 9.88928e-06 -2.61078e-24)
(-1.30136e-06 -2.21746e-06 0)
(-4.74963e-07 -7.36387e-07 -2.76693e-25)
(-4.97096e-07 -3.78711e-06 -1.84009e-24)
(1.41258e-05 2.31419e-05 2.11381e-23)
(1.29583e-05 1.92487e-06 4.90241e-24)
(-2.45579e-07 -3.4697e-06 3.87631e-24)
(1.26378e-05 1.81588e-05 9.86342e-24)
(1.0212e-05 1.60084e-05 -1.86012e-23)
(-1.47222e-07 8.53348e-07 0)
(1.07927e-05 2.14502e-05 0)
(-2.1159e-08 2.46584e-08 0)
(9.23405e-06 1.98128e-05 -1.37976e-23)
(-1.49388e-08 -2.08022e-08 1.16121e-25)
(1.10219e-05 2.21865e-05 -2.54406e-23)
(-4.31258e-07 3.09159e-06 0)
(3.25301e-06 3.33006e-06 1.35547e-23)
(1.66952e-05 -8.93859e-06 4.69411e-24)
(3.77676e-06 1.47549e-06 0)
(1.73845e-05 1.79765e-05 0)
(6.84087e-06 -9.00918e-06 -2.86065e-23)
(5.55062e-06 6.74451e-06 -3.1234e-23)
(1.35894e-05 6.99856e-06 -1.80025e-24)
(2.82334e-06 -7.69918e-06 8.90591e-24)
(7.59654e-06 1.61908e-07 5.66426e-24)
(1.19911e-05 -2.00113e-05 1.22855e-23)
(3.03388e-06 7.99457e-06 7.53263e-24)
(5.6678e-06 -6.65578e-06 0)
(1.59281e-05 5.60653e-06 -6.66477e-24)
(8.61379e-06 -1.95375e-05 7.22044e-25)
(-3.63283e-09 -3.9311e-06 7.30547e-25)
(-7.05445e-08 5.57165e-07 1.68561e-24)
(2.55283e-06 3.60485e-06 -1.30521e-23)
(-2.60974e-07 4.4514e-07 3.54829e-25)
(2.20436e-06 -2.54783e-06 -1.1354e-23)
(9.28794e-06 -1.97822e-05 -1.55902e-24)
(8.88649e-06 -2.0888e-05 -1.49562e-23)
(2.12364e-06 -2.96426e-06 -1.41212e-23)
(3.63168e-06 -5.08978e-06 6.70907e-25)
(1.14752e-05 -1.44748e-05 -1.83699e-24)
(3.44862e-07 3.74213e-06 0)
(1.03373e-05 -1.65494e-06 1.1037e-23)
(1.84873e-05 2.07254e-05 0)
(7.03312e-07 -2.73746e-06 -4.63911e-24)
(-4.99294e-07 8.14562e-07 2.16937e-24)
(6.40744e-06 -1.69908e-05 7.16604e-24)
(1.11719e-06 -3.28523e-06 4.16468e-24)
(-2.45403e-09 -8.23136e-09 -2.1275e-24)
(-3.06762e-07 1.70222e-07 -6.93569e-25)
(1.22282e-05 2.075e-05 -1.99688e-23)
(-3.2316e-09 6.75873e-09 0)
(1.65358e-05 2.24686e-05 -2.57537e-24)
(8.24503e-06 -2.02533e-05 -7.19129e-25)
(-3.36703e-07 -3.34849e-07 -1.05696e-24)
(-1.10468e-06 1.10655e-06 0)
(3.18885e-06 7.32661e-06 2.04575e-23)
(-6.23567e-07 2.94887e-06 2.94105e-25)
(9.93947e-06 2.11386e-05 1.95818e-23)
(7.58314e-09 5.99346e-11 1.36757e-24)
(7.35814e-09 3.6525e-10 1.10297e-25)
(1.06727e-05 -2.15936e-05 -1.23652e-23)
(1.54986e-05 2.61215e-06 4.34175e-24)
(5.43592e-06 -1.3927e-05 -1.5511e-23)
(-1.4112e-06 -2.59352e-06 0)
(1.82218e-05 1.84124e-05 -2.98488e-24)
(-3.53415e-07 3.81392e-07 -7.43566e-25)
(6.35101e-06 1.37438e-05 -9.51721e-24)
(-1.0341e-06 -1.30974e-06 -2.95073e-25)
(5.791e-06 1.43996e-05 -7.77878e-24)
(-2.24501e-07 2.17627e-07 5.46014e-25)
(-6.03205e-07 -3.61036e-06 -3.81596e-25)
(1.25682e-05 -1.46682e-05 0)
(-4.03337e-07 -2.93286e-06 2.47533e-26)
(6.77231e-06 1.55476e-05 5.25438e-24)
(8.15312e-06 1.72767e-05 -2.99321e-23)
(-2.50075e-07 1.95973e-06 0)
(1.03491e-05 -2.0701e-05 1.17171e-23)
(6.87974e-06 -1.54304e-05 1.5608e-23)
(1.76502e-06 1.69368e-06 1.35554e-23)
(-1.92757e-07 -1.75648e-07 -6.36182e-25)
(2.21385e-06 2.57503e-06 -1.8385e-24)
(1.36384e-05 -5.0908e-06 -6.54172e-24)
(5.21314e-06 -8.55125e-07 6.29662e-24)
(5.67149e-06 -1.30812e-05 -1.25402e-24)
(8.83464e-06 -1.88098e-05 1.15996e-23)
(-1.08905e-06 -3.04902e-06 0)
(-5.24436e-08 -3.86227e-06 -8.0827e-25)
(-3.65488e-07 -8.98415e-07 -1.74223e-25)
(1.17049e-05 -1.78673e-05 -7.48108e-24)
(3.47043e-06 1.27745e-06 -1.44358e-23)
(6.57461e-06 -1.03248e-05 -4.16737e-24)
(1.10809e-05 -2.20523e-05 -1.28675e-23)
(-1.51437e-07 8.6053e-07 -6.60521e-24)
(-4.89513e-07 -3.85781e-06 -1.70657e-24)
(1.3228e-05 -1.03387e-05 1.17076e-23)
(5.39843e-06 8.37743e-06 0)
(6.22337e-07 2.52886e-06 -8.81716e-24)
(7.64922e-06 1.63475e-05 1.10752e-23)
(1.15364e-05 1.46365e-05 1.36355e-23)
(-2.74804e-08 1.97411e-08 -1.47278e-24)
(-3.00946e-08 -1.90894e-08 -6.54724e-25)
(1.06764e-05 -7.47174e-06 0)
(5.4851e-06 -8.61735e-06 2.11491e-23)
(6.83875e-06 -1.49854e-05 1.29342e-23)
(7.1931e-06 -6.64604e-06 0)
(-1.95334e-07 3.8269e-06 -1.66829e-24)
(7.8142e-07 3.28602e-06 1.30959e-24)
(1.502e-05 1.81525e-05 -9.05489e-24)
(1.37972e-05 -1.83746e-05 4.79005e-24)
(6.66001e-06 -1.58615e-05 5.17211e-25)
(1.64847e-05 -1.36235e-05 8.47831e-24)
(1.05196e-05 2.06181e-05 -2.88473e-23)
(8.56822e-06 -1.96389e-05 0)
(1.12792e-05 1.80207e-05 0)
(1.67713e-05 -1.12516e-05 0)
(1.09196e-05 2.73516e-06 -3.70792e-24)
(1.32981e-05 -2.30332e-05 0)
(1.85728e-06 -2.19352e-06 4.19693e-24)
(-1.02579e-06 -3.40695e-06 -6.61843e-25)
(-7.79019e-07 8.84843e-07 2.97677e-25)
(-6.6529e-07 5.88572e-07 9.5193e-25)
(6.35908e-06 1.04341e-05 8.48156e-24)
(5.9085e-06 -1.28406e-05 1.58668e-24)
(-7.15594e-08 8.65585e-08 2.11289e-25)
(-6.87929e-08 -7.14898e-08 1.51246e-24)
(2.83355e-06 1.63732e-06 -4.37152e-24)
(-2.70693e-07 -1.42806e-07 -1.33263e-25)
(1.09357e-05 4.97248e-06 1.74781e-24)
(-1.1828e-08 2.06468e-08 -2.31047e-25)
(-8.39727e-09 -1.27023e-08 -3.90204e-25)
(9.58951e-06 2.01292e-05 0)
(1.59085e-05 1.89229e-05 0)
(1.466e-05 -9.90578e-06 -1.28037e-23)
(8.30485e-06 4.57771e-06 0)
(1.82097e-05 2.01036e-05 3.21945e-24)
(1.92472e-06 2.73477e-06 0)
(1.6228e-05 2.08821e-05 1.10995e-24)
(1.39963e-05 1.7016e-05 7.39297e-24)
)
;

boundaryField
{
    front
    {
        type            empty;
    }
    back
    {
        type            empty;
    }
    bottom
    {
        type            zeroGradient;
    }
    left
    {
        type            noSlip;
    }
    top
    {
        type            uniformFixedValue;
        uniformValue    
        {
            type            scale;
            scale           
            {
                type            squarePulse;
                start           0.3;
                duration        0.3;
            }
            xScale          
            {
                type            constant;
                value           1;
            }
            value           
            {
                type            constant;
                value           (0 -0.7 0);
            }
        }
        value           uniform (0 -0 0);
    }
    right
    {
        type            noSlip;
    }
    inner_arc
    {
        type            noSlip;
    }
}


// ************************************************************************* //
