/*--------------------------------*- C++ -*----------------------------------*\
  =========                 |
  \\      /  F ield         | OpenFOAM: The Open Source CFD Toolbox
   \\    /   O peration     | Website:  https://openfoam.org
    \\  /    A nd           | Version:  9
     \\/     M anipulation  |
\*---------------------------------------------------------------------------*/
FoamFile
{
    format      ascii;
    class       volScalarField;
    location    "1.72";
    object      p;
}
// * * * * * * * * * * * * * * * * * * * * * * * * * * * * * * * * * * * * * //

dimensions      [0 2 -2 0 0 0 0];

internalField   nonuniform List<scalar> 
1655
(
11.5024
11.4987
11.4979
11.4942
11.5033
11.501
11.4962
11.4995
11.4861
11.5031
11.5015
11.5013
11.5006
11.4987
11.4926
11.4972
11.4925
11.4865
11.4985
11.4986
11.4951
11.4858
11.5034
11.5037
11.501
11.4958
11.4968
11.4905
11.4925
11.4946
11.492
11.4977
11.4974
11.496
11.4873
11.4955
11.5011
11.4978
11.4976
11.4997
11.4952
11.5038
11.4982
11.4964
11.4966
11.4948
11.4929
11.4964
11.502
11.4982
11.5008
11.4978
11.4908
11.4884
11.4865
11.4946
11.4959
11.5014
11.4956
11.4949
11.493
11.4998
11.5024
11.4987
11.4933
11.4924
11.489
11.4998
11.487
11.5041
11.501
11.495
11.4945
11.4904
11.496
11.4957
11.4938
11.488
11.4959
11.4946
11.4925
11.4959
11.4858
11.496
11.4946
11.4934
11.4966
11.4945
11.5089
11.4943
11.4946
11.4972
11.4981
11.502
11.4975
11.4988
11.4894
11.4971
11.4976
11.4957
11.4971
11.491
11.5023
11.4913
11.4851
11.4999
11.4971
11.4947
11.4957
11.4951
11.4966
11.5027
11.4958
11.4946
11.4994
11.4941
11.4983
11.4947
11.5102
11.4858
11.496
11.496
11.4956
11.4871
11.49
11.502
11.4984
11.4973
11.4972
11.4949
11.5013
11.4965
11.4988
11.5025
11.4947
11.5003
11.5036
11.49
11.4956
11.4887
11.4935
11.497
11.4973
11.4964
11.4872
11.4958
11.4965
11.4961
11.4965
11.4869
11.491
11.4848
11.4951
11.494
11.493
11.4985
11.494
11.4958
11.4983
11.4921
11.4964
11.5045
11.4885
11.496
11.4966
11.4981
11.4905
11.5009
11.4907
11.487
11.4894
11.4883
11.4962
11.4936
11.4945
11.4952
11.5016
11.4883
11.4947
11.4988
11.4943
11.4886
11.5006
11.4875
11.4969
11.4948
11.4961
11.4948
11.4889
11.4909
11.4968
11.4995
11.4913
11.4964
11.4949
11.4947
11.4895
11.4949
11.5095
11.492
11.489
11.4895
11.4959
11.4957
11.4952
11.4956
11.4971
11.4923
11.495
11.4961
11.4954
11.4958
11.4987
11.5011
11.4988
11.4883
11.4957
11.5077
11.492
11.4947
11.4964
11.4947
11.4976
11.4975
11.4972
11.495
11.4948
11.4952
11.4854
11.4807
11.4958
11.4674
11.4636
11.4888
11.4967
11.4959
11.4951
11.4943
11.4948
11.4586
11.4932
11.497
11.4589
11.4946
11.4987
11.4946
11.4853
11.49
11.4948
11.4959
11.497
11.4945
11.4969
11.4963
11.4966
11.4931
11.4954
11.4994
11.489
11.4978
11.4985
11.4946
11.4947
11.493
11.4968
11.5004
11.4977
11.4987
11.497
11.4987
11.491
11.4895
11.497
11.4946
11.4899
11.4907
11.4836
11.4998
11.4872
11.4898
11.4888
11.5011
11.4913
11.4912
11.4915
11.4917
11.4924
11.4964
11.4973
11.4889
11.4913
11.4949
11.4982
11.4897
11.4956
11.4959
11.4991
11.4884
11.4949
11.495
11.4961
11.502
11.5018
11.4956
11.4945
11.4882
11.4958
11.4947
11.4972
11.4942
11.4932
11.4855
11.4947
11.4953
11.4995
11.4975
11.495
11.488
11.494
11.4956
11.4907
11.4983
11.4964
11.4958
11.4961
11.497
11.4983
11.5004
11.4952
11.4967
11.4967
11.4949
11.4985
11.4947
11.4959
11.4947
11.4974
11.4979
11.4947
11.4944
11.4959
11.4952
11.4905
11.4764
11.4922
11.4954
11.4986
11.4957
11.4956
11.4946
11.5032
11.496
11.4716
11.4963
11.488
11.4936
11.495
11.4944
11.4993
11.4947
11.493
11.4971
11.4882
11.4866
11.4963
11.4928
11.495
11.5041
11.496
11.4958
11.4969
11.4966
11.4962
11.4933
11.5041
11.4983
11.4966
11.5001
11.496
11.4951
11.4957
11.4867
11.5014
11.4872
11.4955
11.4896
11.4927
11.4995
11.4921
11.4947
11.4963
11.4958
11.4972
11.4918
11.4949
11.4917
11.4932
11.493
11.4898
11.4995
11.494
11.4957
11.4848
11.501
11.4955
11.4963
11.4924
11.4954
11.4979
11.4961
11.5035
11.4784
11.4878
11.4961
11.4961
11.4719
11.4947
11.461
11.4881
11.491
11.4999
11.4814
11.495
11.4924
11.4886
11.4822
11.4589
11.4945
11.4948
11.4949
11.4953
11.4944
11.4897
11.503
11.4748
11.4782
11.4957
11.4954
11.5029
11.4725
11.4971
11.4849
11.4952
11.4918
11.4876
11.4764
11.4946
11.4966
11.4946
11.4964
11.4949
11.4793
11.4953
11.4845
11.4948
11.4793
11.4985
11.4895
11.4949
11.4944
11.4915
11.4816
11.4897
11.4835
11.5003
11.5015
11.4861
11.4903
11.4728
11.4897
11.4915
11.4961
11.4821
11.4955
11.4814
11.4887
11.4909
11.4793
11.4627
11.4951
11.4945
11.4956
11.469
11.4954
11.4843
11.4756
11.4946
11.4956
11.4951
11.492
11.4817
11.4943
11.468
11.4921
11.4888
11.4819
11.4808
11.4953
11.4765
11.4926
11.4867
11.4885
11.495
11.4849
11.4769
11.488
11.496
11.4863
11.4848
11.4951
11.5011
11.4896
11.4969
11.483
11.4961
11.491
11.4849
11.4763
11.4834
11.4897
11.4764
11.4622
11.4959
11.4839
11.4868
11.4603
11.4894
11.4875
11.4821
11.4891
11.4878
11.4943
11.5113
11.4899
11.5004
11.5012
11.5023
11.5034
11.4923
11.4962
11.4979
11.4947
11.4994
11.4923
11.5116
11.5012
11.5072
11.4895
11.4834
11.4948
11.5013
11.4898
11.4896
11.4917
11.4843
11.4776
11.4963
11.4865
11.4906
11.4951
11.4792
11.4912
11.4619
11.495
11.4999
11.4887
11.4765
11.4892
11.4962
11.4919
11.4954
11.495
11.4972
11.497
11.4938
11.4773
11.4911
11.495
11.4811
11.4857
11.4915
11.4893
11.4989
11.4917
11.4914
11.4878
11.4971
11.4647
11.4871
11.4621
11.4867
11.4703
11.4774
11.4837
11.4628
11.4843
11.4982
11.4964
11.4881
11.4959
11.4906
11.4878
11.4976
11.4947
11.4844
11.4845
11.4951
11.4956
11.4965
11.4938
11.484
11.4919
11.4973
11.4913
11.4967
11.492
11.4741
11.4941
11.4653
11.4907
11.4762
11.4646
11.4699
11.4968
11.4636
11.4918
11.4687
11.4747
11.4808
11.4864
11.4704
11.4875
11.4855
11.4885
11.494
11.4886
11.4929
11.4976
11.4903
11.4745
11.4977
11.4962
11.4789
11.4955
11.4957
11.5006
11.4845
11.4888
11.491
11.4891
11.4905
11.4914
11.4673
11.4768
11.4791
11.4953
11.4698
11.4946
11.4721
11.4739
11.4821
11.4932
11.4896
11.4741
11.4667
11.4953
11.4887
11.4962
11.4948
11.4918
11.492
11.4851
11.4892
11.4953
11.4901
11.4865
11.495
11.4962
11.4962
11.49
11.4947
11.4938
11.4879
11.4658
11.4892
11.4698
11.498
11.4953
11.4929
11.4918
11.4904
11.4894
11.4987
11.4907
11.4908
11.4942
11.4893
11.4944
11.4927
11.4971
11.4691
11.4925
11.4956
11.4888
11.495
11.4957
11.49
11.4684
11.4937
11.4946
11.4672
11.4854
11.4747
11.4697
11.4719
11.4952
11.4922
11.4959
11.4729
11.4927
11.4892
11.4922
11.4944
11.4723
11.5015
11.4682
11.4947
11.4958
11.4828
11.4916
11.4838
11.4993
11.4952
11.4894
11.4995
11.4965
11.4949
11.4872
11.4935
11.4886
11.4626
11.5003
11.4949
11.4723
11.4929
11.4886
11.4953
11.4903
11.4907
11.4878
11.4956
11.4907
11.4947
11.4927
11.4809
11.497
11.497
11.4954
11.4844
11.499
11.4746
11.4763
11.4955
11.4973
11.4954
11.4959
11.4885
11.4696
11.4958
11.4948
11.4781
11.4965
11.4969
11.4955
11.4757
11.4858
11.4978
11.4945
11.487
11.4859
11.4963
11.4963
11.496
11.496
11.4875
11.4878
11.4993
11.4759
11.4949
11.4833
11.4959
11.4831
11.4939
11.4944
11.4974
11.4961
11.477
11.4951
11.4997
11.4956
11.5
11.4995
11.4986
11.4961
11.4829
11.4816
11.4963
11.5009
11.4817
11.4998
11.4799
11.4927
11.4939
11.4996
11.4949
11.4818
11.4979
11.4966
11.499
11.4869
11.4858
11.4981
11.4952
11.501
11.4842
11.4772
11.4957
11.4951
11.4969
11.4928
11.4947
11.4978
11.4857
11.4971
11.4952
11.4968
11.4972
11.4952
11.4995
11.4976
11.4895
11.4924
11.4865
11.5001
11.4999
11.4967
11.4904
11.4932
11.5001
11.4967
11.4948
11.4947
11.4952
11.4953
11.4978
11.5004
11.506
11.4962
11.4945
11.4868
11.5002
11.4944
11.4951
11.4863
11.4963
11.4944
11.5007
11.494
11.4956
11.4947
11.4948
11.4986
11.5021
11.4953
11.4861
11.5039
11.4969
11.5005
11.4837
11.497
11.4963
11.5024
11.4956
11.4942
11.4989
11.485
11.4985
11.4937
11.4949
11.499
11.5013
11.4985
11.4951
11.4931
11.5018
11.492
11.4997
11.4831
11.4975
11.498
11.4976
11.4928
11.4988
11.4989
11.5018
11.4978
11.4934
11.5015
11.4979
11.4985
11.498
11.491
11.4971
11.5019
11.5015
11.4984
11.4984
11.497
11.4981
11.5034
11.4942
11.5022
11.4978
11.4846
11.4973
11.4982
11.5002
11.495
11.4982
11.5025
11.4997
11.4959
11.5
11.5017
11.5017
11.4963
11.4941
11.4947
11.4894
11.4954
11.498
11.4941
11.4985
11.4944
11.4848
11.4978
11.4952
11.4987
11.4961
11.5025
11.5019
11.4976
11.4942
11.4968
11.4753
11.4966
11.4945
11.4857
11.4948
11.4974
11.5002
11.4855
11.4989
11.4946
11.4977
11.4954
11.4945
11.4863
11.4946
11.4964
11.4946
11.4986
11.4952
11.495
11.5031
11.5026
11.4976
11.5021
11.4944
11.4989
11.5019
11.4989
11.4959
11.4962
11.4941
11.5021
11.495
11.4988
11.4948
11.5004
11.4947
11.4971
11.5029
11.4943
11.4943
11.4994
11.4974
11.4993
11.4978
11.5029
11.5032
11.5023
11.4922
11.5032
11.4998
11.5024
11.5022
11.4999
11.4956
11.4961
11.4954
11.5029
11.5022
11.4956
11.4978
11.502
11.4997
11.4938
11.4949
11.4922
11.5004
11.4879
11.4945
11.5013
11.4939
11.496
11.5017
11.4963
11.5002
11.4929
11.4677
11.4948
11.497
11.4948
11.4959
11.4971
11.4927
11.496
11.4965
11.5023
11.4958
11.4823
11.4982
11.5001
11.4931
11.496
11.4953
11.5009
11.4957
11.4958
11.4931
11.4962
11.4965
11.4955
11.497
11.4909
11.4953
11.5001
11.4954
11.4867
11.4847
11.4958
11.4988
11.4959
11.4976
11.4953
11.4961
11.5024
11.5009
11.5002
11.4984
11.4956
11.4963
11.5011
11.4995
11.4981
11.5002
11.4964
11.4923
11.4984
11.492
11.4948
11.5017
11.4991
11.4913
11.4959
11.4983
11.4944
11.4856
11.4974
11.497
11.495
11.5007
11.5005
11.4984
11.5007
11.4914
11.5005
11.4852
11.4963
11.4954
11.501
11.4961
11.4971
11.4913
11.4974
11.5006
11.4954
11.4934
11.496
11.5004
11.498
11.5013
11.4933
11.501
11.4969
11.4942
11.5007
11.4938
11.4953
11.4973
11.4939
11.4923
11.4846
11.4951
11.492
11.4998
11.4804
11.4875
11.5014
11.501
11.4949
11.4908
11.4976
11.4931
11.4961
11.4913
11.4994
11.4865
11.4979
11.4991
11.4776
11.4949
11.4981
11.4996
11.5009
11.4993
11.4999
11.4837
11.4641
11.4718
11.5015
11.4965
11.4891
11.4979
11.5009
11.4993
11.4971
11.4968
11.4948
11.4984
11.4688
11.4629
11.4935
11.499
11.4974
11.4585
11.4594
11.4968
11.5013
11.5004
11.4994
11.4984
11.461
11.498
11.4907
11.4948
11.4997
11.4721
11.5005
11.5002
11.4963
11.4979
11.4853
11.4992
11.495
11.4881
11.4954
11.4959
11.4999
11.4869
11.4901
11.4877
11.4968
11.4956
11.4952
11.485
11.4966
11.4964
11.5004
11.5
11.4953
11.4977
11.4962
11.4908
11.4931
11.5018
11.4956
11.4952
11.4988
11.4937
11.469
11.4956
11.4886
11.4835
11.4955
11.496
11.4884
11.4839
11.4989
11.5007
11.4996
11.4966
11.4828
11.4948
11.5018
11.508
11.4684
11.4605
11.4954
11.5002
11.4884
11.5012
11.5016
11.4665
11.5013
11.4869
11.4966
11.4964
11.4894
11.4735
11.4968
11.4594
11.5008
11.5021
11.493
11.5023
11.4947
11.4952
11.4968
11.493
11.4873
11.4633
11.4954
11.502
11.4863
11.4663
11.4769
11.4973
11.4947
11.4956
11.4797
11.4908
11.49
11.4948
11.4891
11.4902
11.4877
11.4953
11.4878
11.4988
11.4964
11.4923
11.49
11.4942
11.4988
11.4914
11.4955
11.4894
11.4973
11.4993
11.4971
11.4954
11.4878
11.502
11.5031
11.5026
11.4636
11.4908
11.4775
11.4959
11.4896
11.4853
11.4952
11.4872
11.4909
11.4867
11.4946
11.4857
11.4864
11.4975
11.4958
11.5051
11.5004
11.5031
11.5033
11.5023
11.5036
11.4867
11.5037
11.4963
11.4948
11.5037
11.4904
11.4953
11.4979
11.4878
11.4891
11.4876
11.4987
11.4925
11.4867
11.4842
11.5021
11.488
11.4883
11.4874
11.4971
11.4897
11.487
11.4977
11.4946
11.4848
11.4982
11.4846
11.4836
11.4975
11.4953
11.5037
11.5002
11.5006
11.4926
11.5026
11.4983
11.4997
11.501
11.4991
11.5062
11.4939
11.5013
11.497
11.4959
11.5045
11.5
11.5008
11.4931
11.5055
11.5026
11.4988
11.4956
11.4896
11.4887
11.4945
11.5041
11.5042
11.4902
11.4945
11.4947
11.4947
11.4985
11.4952
11.4803
11.4951
11.5103
11.5083
11.4921
11.498
11.4963
11.4909
11.5045
11.5042
11.5119
11.4956
11.4922
11.4949
11.4953
11.499
11.5007
11.4967
11.4849
11.5092
11.5046
11.4951
11.4968
11.4846
11.4986
11.4979
11.4923
11.5038
11.4987
11.4938
11.4967
11.4858
11.4966
11.5076
11.4965
11.5043
11.4905
11.5032
11.4967
11.5042
11.4959
11.4965
11.4945
11.4953
11.5002
11.5028
11.4953
11.5012
11.4863
11.5009
11.4956
11.498
11.4959
11.5022
11.5027
11.4968
11.4962
11.5036
11.4979
11.4984
11.5124
11.5129
11.496
11.496
11.4967
11.4871
11.4902
11.503
11.485
11.4844
11.4996
11.4956
11.4962
11.4965
11.488
11.4849
11.4952
11.4948
11.4954
11.4913
11.4957
11.4937
11.4948
11.4985
11.4839
11.5028
11.4916
11.4993
11.5028
11.492
11.5034
11.5013
11.4987
11.5014
11.4924
11.4948
11.4813
11.4975
11.4955
11.4987
11.5042
11.5027
11.4955
11.4892
11.4889
11.4987
11.4969
11.499
11.4917
11.4973
11.5026
11.4949
11.4868
11.5024
11.4903
11.4971
11.4864
11.4946
11.4959
11.4922
11.4987
11.4991
11.5036
11.5038
11.5039
11.5032
11.5016
11.5028
11.5034
11.5023
11.503
11.4896
11.4894
11.4881
11.5106
11.5036
11.509
11.4901
11.4915
11.4943
11.4854
11.5
11.5017
11.4816
11.4968
11.4983
11.4906
11.5077
11.4899
11.4957
11.5026
11.4951
11.5064
11.5131
11.4966
11.4963
11.4868
11.5022
11.4956
11.497
11.5047
11.4855
11.4961
11.495
11.4876
11.49
11.4925
11.4983
11.4893
11.5014
11.4975
11.4974
11.4952
11.5024
11.5012
11.5024
11.4972
11.4979
11.4957
11.4912
11.4974
11.5037
11.4965
11.4961
11.4883
11.4961
11.5015
11.4985
11.5025
11.4954
11.4991
11.4989
11.4859
11.5015
11.4956
11.4855
11.4925
11.5028
11.5029
11.4987
11.4979
11.5036
11.5049
11.5002
11.4946
11.504
11.4882
11.4973
11.4954
11.4847
11.4968
11.4832
11.4889
11.4965
11.4986
11.4871
11.4951
11.5041
11.5068
11.4961
11.4971
11.4962
11.4881
11.4808
11.4996
11.4884
11.4948
11.4974
11.4847
11.497
11.5004
11.4852
11.5036
11.496
11.4973
11.4918
11.4952
11.5001
11.497
11.4913
11.4959
11.5043
11.486
11.4934
11.4987
11.4915
11.4983
11.5031
11.4972
11.4919
11.5088
11.496
11.4986
11.4954
11.5038
11.5025
11.4988
11.5027
11.491
11.4906
11.4896
11.5025
11.4974
11.5061
11.4946
11.5114
11.4987
11.5069
11.4951
11.4987
11.5092
11.4899
11.4983
11.5039
11.5111
11.4957
11.4972
11.4956
11.4862
11.4959
11.4957
11.4962
11.5038
11.486
)
;

boundaryField
{
    back
    {
        type            empty;
    }
    front
    {
        type            empty;
    }
    top
    {
        type            zeroGradient;
    }
    outer_arc
    {
        type            zeroGradient;
    }
    bottom
    {
        type            uniformFixedValue;
        uniformValue    
        {
            type            table;
            format          csv;
            file            "outlet_p.csv";
            nHeaderLine     1;
            refColumn       0;
            componentColumns List<label> 1(1);
            separator       ",";
            mergeSeparators 0;
        }
        value           uniform 11.4844;
    }
    inner_arc
    {
        type            zeroGradient;
    }
}


// ************************************************************************* //
