/*--------------------------------*- C++ -*----------------------------------*\
  =========                 |
  \\      /  F ield         | OpenFOAM: The Open Source CFD Toolbox
   \\    /   O peration     | Website:  https://openfoam.org
    \\  /    A nd           | Version:  9
     \\/     M anipulation  |
\*---------------------------------------------------------------------------*/
FoamFile
{
    format      ascii;
    class       surfaceScalarField;
    location    "1.72";
    object      phi;
}
// * * * * * * * * * * * * * * * * * * * * * * * * * * * * * * * * * * * * * //

dimensions      [0 3 -1 0 0 0 0];

internalField   nonuniform List<scalar> 
2420
(
1.36817e-06
-1.23571e-06
-1.3246e-07
2.57468e-07
-2.57468e-07
2.37798e-07
-2.28893e-07
-8.90543e-09
3.71779e-08
-3.71779e-08
-5.4079e-07
2.12496e-07
3.28293e-07
1.57775e-07
-1.80839e-07
2.30643e-08
9.53607e-08
1.42437e-07
-8.48061e-07
5.85104e-08
7.89551e-07
1.52148e-06
-1.69796e-06
1.76479e-07
-4.18969e-07
-1.21821e-07
-9.19793e-07
1.98967e-07
7.20826e-07
-8.8477e-07
-3.50229e-08
-8.48061e-07
-1.07819e-07
2.12928e-08
8.65262e-08
-9.02662e-08
1.95625e-07
-1.05358e-07
-1.82184e-07
2.30775e-07
-4.85918e-08
5.84344e-07
7.5475e-08
-6.59819e-07
1.23671e-07
-5.46198e-07
4.22527e-07
-2.10142e-08
-1.25801e-08
3.35943e-08
-1.05084e-07
-2.73514e-09
8.25477e-08
1.67493e-07
-2.50041e-07
-3.37255e-08
-4.73108e-07
6.68458e-07
-1.9535e-07
-6.14105e-07
1.40997e-07
6.1884e-07
7.49328e-07
1.183e-07
4.66044e-07
3.51645e-08
-2.17348e-07
-5.82676e-07
-1.08914e-06
1.67181e-06
-1.34521e-06
7.62536e-07
2.04806e-07
-1.23732e-07
-8.10745e-08
-5.89911e-07
-3.11567e-07
9.01477e-07
-1.56446e-07
4.49369e-07
-2.92923e-07
-4.65003e-07
4.31552e-07
3.34512e-08
-1.92695e-07
2.23992e-07
-3.12972e-08
-3.75543e-07
4.99214e-07
-1.06342e-07
-8.63521e-08
4.39086e-08
1.13866e-07
1.76902e-07
8.05656e-08
-6.37729e-08
-4.0123e-07
-7.84644e-08
-1.79003e-07
1.63879e-07
-8.13314e-08
5.77377e-07
5.56047e-08
-6.32981e-07
3.0916e-07
-3.72933e-07
6.19443e-08
-9.1534e-08
2.95897e-08
9.32961e-08
-3.76768e-08
-5.56194e-08
1.14101e-07
-7.69228e-08
-9.64257e-08
5.92478e-08
1.07864e-07
-1.45677e-08
-1.97881e-07
3.38296e-07
-1.40414e-07
-7.88442e-08
3.88004e-07
-8.75141e-08
-9.33248e-08
-3.85338e-07
-5.38914e-07
4.48648e-07
-1.05403e-06
-6.43926e-07
7.18287e-08
1.64647e-07
-2.36476e-07
1.71274e-07
-4.19582e-08
-1.29316e-07
-6.72641e-08
-1.31939e-08
8.0458e-08
4.62664e-07
-2.63697e-07
-2.83436e-07
7.72735e-08
2.06163e-07
4.05941e-07
-2.34667e-07
1.25579e-07
-7.15489e-07
5.24131e-08
-7.35556e-08
2.11425e-08
-1.05078e-06
-1.8493e-07
-1.03302e-06
1.09153e-06
1.24917e-07
-6.15166e-08
-6.34009e-08
-4.55689e-07
1.44122e-07
-2.39506e-07
2.52599e-07
-1.30925e-08
-4.69284e-07
3.27364e-07
1.4192e-07
-4.48674e-08
-3.30676e-07
-3.67278e-08
-6.6202e-09
-3.60328e-07
2.12396e-07
-2.66337e-07
5.39407e-08
1.29633e-07
6.59919e-08
3.30512e-07
1.57842e-07
-4.88353e-07
-1.00571e-07
-3.04649e-08
1.31036e-07
-1.28889e-06
-5.63254e-08
-2.15012e-07
1.70145e-07
9.6615e-08
1.04164e-07
1.00642e-07
1.46725e-07
-2.1807e-08
-1.11394e-07
1.08225e-08
2.84247e-07
-2.12418e-07
-4.94148e-08
1.11359e-07
1.3141e-07
1.62172e-07
-2.93583e-07
-2.05537e-08
-1.53759e-07
1.74313e-07
4.66244e-07
-1.35732e-07
2.24646e-07
-1.22495e-08
3.37416e-07
1.53717e-07
-4.91133e-07
-3.7771e-07
8.87814e-08
2.88929e-07
-1.94629e-07
-1.83081e-07
-5.48037e-09
-3.42505e-09
-7.03266e-08
4.93123e-08
4.01957e-08
-2.38077e-07
1.00179e-07
5.83402e-08
-1.58519e-07
-2.85627e-08
1.59826e-08
-2.57255e-07
1.77485e-08
-2.00312e-07
-8.31241e-08
3.0207e-07
1.47299e-07
-4.70543e-07
1.62631e-07
3.07912e-07
1.344e-07
-1.39881e-07
-2.20888e-07
2.78242e-07
-5.73542e-08
1.90481e-07
1.47814e-07
-2.07238e-07
-1.36497e-08
3.02618e-07
-3.70519e-07
6.79006e-08
4.04987e-09
4.83633e-08
-1.19843e-06
2.25884e-07
9.72548e-07
-2.04199e-08
-1.03312e-07
-1.89069e-07
-2.81474e-07
1.71397e-07
-2.13356e-07
-1.85636e-09
-3.35496e-07
3.37352e-07
1.46501e-08
-8.9942e-07
2.50525e-07
-7.91273e-08
3.39479e-07
-2.08068e-07
1.08379e-06
-1.46701e-07
-9.37084e-07
-2.15183e-07
-1.01455e-06
-1.83885e-07
1.91374e-07
-3.49948e-07
6.87364e-07
3.05998e-07
-3.38006e-09
1.58551e-07
9.19735e-08
8.71963e-08
-6.03926e-07
5.1673e-07
2.75922e-08
-6.00644e-07
5.73052e-07
-1.10143e-07
-2.04785e-07
3.14928e-07
-2.06827e-07
-5.04273e-08
-9.52282e-07
2.15361e-07
7.36921e-07
-3.33153e-07
2.54309e-07
-1.79507e-08
1.1813e-07
2.38449e-08
2.0693e-07
1.79372e-07
-3.73963e-07
1.94591e-07
3.91614e-07
-1.69972e-07
-2.21642e-07
-3.38629e-07
3.36773e-07
-1.25621e-06
2.23185e-07
-6.20781e-07
-3.31501e-07
-6.13295e-09
6.13295e-09
1.41508e-07
-1.82669e-07
4.11607e-08
-3.77914e-07
-1.82735e-07
5.60649e-07
-5.38914e-07
-1.31939e-08
1.34299e-07
1.18299e-07
4.05941e-07
1.15622e-07
-8.0458e-08
-1.15622e-07
3.98405e-08
7.5782e-08
-8.40023e-08
3.6403e-07
-2.80028e-07
4.57702e-08
6.59819e-07
-7.05589e-07
-3.6403e-07
4.51226e-07
-2.5396e-07
2.80028e-07
-2.60672e-08
-7.61157e-08
2.34667e-07
-1.02183e-07
7.61157e-08
2.60672e-08
-7.62239e-07
8.5559e-07
-9.33514e-08
7.62239e-07
-6.3666e-07
-8.5559e-07
7.05589e-07
1.50001e-07
-4.51226e-07
6.09068e-07
-6.09068e-07
6.3666e-07
-4.94305e-08
-1.04328e-07
-4.133e-08
-2.91823e-07
9.10383e-08
-1.52555e-07
-1.61837e-07
5.15041e-07
-3.53205e-07
6.92377e-08
-6.05137e-08
-4.15797e-07
3.50689e-07
-1.04625e-06
6.95561e-07
-1.30143e-06
2.47401e-07
4.5783e-07
5.72113e-08
3.73828e-07
1.91194e-07
-3.91506e-07
-1.73306e-06
8.26612e-07
-9.73313e-07
7.14148e-08
-9.95504e-08
-1.15462e-07
8.53578e-07
-7.78103e-07
-5.21274e-07
1.53911e-07
3.67363e-07
-2.87819e-07
1.85637e-07
-1.2236e-06
1.5721e-07
1.06639e-06
-9.97711e-07
1.01699e-07
2.89915e-07
-2.26156e-07
1.26606e-07
9.23237e-08
2.95511e-07
-3.87834e-07
-7.73899e-08
-2.7694e-08
-4.05341e-08
-2.30226e-07
-2.91048e-07
2.05015e-08
-1.08016e-07
-1.50793e-07
4.06497e-08
6.31158e-08
4.93152e-08
-1.12431e-07
-4.51253e-07
3.62332e-08
4.1502e-07
-6.0823e-08
-5.05709e-08
-3.5893e-07
5.73174e-07
-7.78603e-08
-4.95314e-07
-5.28032e-07
2.97806e-07
-5.18325e-08
1.41558e-08
-7.82851e-08
4.72955e-09
-4.46299e-07
-1.1756e-07
5.63859e-07
-4.64276e-07
7.89375e-08
-4.73122e-07
-4.0074e-08
5.13196e-07
-2.65529e-08
1.26875e-07
-4.36889e-07
2.44118e-07
-9.0401e-08
-7.86622e-08
-4.4937e-07
-1.42769e-07
1.31185e-07
1.15839e-08
6.54056e-08
-2.08175e-07
-1.14233e-07
-2.76929e-07
3.91162e-07
-1.20891e-07
2.88384e-07
-4.3303e-07
4.25663e-07
7.36629e-09
4.10377e-07
-5.27937e-07
-2.23821e-07
4.03193e-07
2.52368e-07
-2.83766e-08
4.94833e-07
-1.01947e-06
5.24639e-07
2.43403e-07
-7.07679e-07
6.30435e-08
1.04197e-06
3.07754e-08
-1.08165e-07
3.34617e-08
1.00838e-07
2.30099e-07
-3.36441e-07
-4.76825e-07
8.27514e-07
3.79936e-07
6.70509e-07
-1.05045e-06
3.72529e-07
-4.51191e-07
4.70408e-08
-2.53952e-08
3.75701e-07
5.58504e-08
-5.16418e-07
2.87728e-07
2.2869e-07
-5.73282e-08
5.88462e-07
-4.78099e-07
-1.10363e-07
1.2002e-07
4.68442e-07
-2.97313e-07
-1.00187e-06
2.39594e-07
7.62277e-07
-1.38713e-07
-8.63157e-07
-4.21547e-07
4.20679e-07
8.68116e-10
-6.10521e-07
8.64981e-08
5.24023e-07
-9.20277e-08
-5.18493e-07
3.07863e-07
-1.37718e-07
4.51345e-07
-2.56815e-08
-4.73552e-07
5.20053e-08
-5.18173e-07
4.51418e-07
-4.10417e-08
-4.63837e-07
5.83857e-07
3.41937e-08
1.2618e-07
-1.60373e-07
1.33779e-07
9.98023e-08
-3.66865e-08
2.14739e-07
-1.80546e-07
3.06115e-08
-2.44786e-08
-2.13628e-07
-3.02789e-07
-1.31253e-07
1.19004e-07
1.01093e-06
-4.31508e-07
-5.79423e-07
-9.72479e-07
-3.28951e-07
4.9359e-08
6.60256e-07
-2.53318e-08
-6.62022e-08
1.01523e-07
4.44377e-10
-1.01967e-07
7.38237e-07
-3.15392e-08
4.82884e-07
-6.39537e-07
1.09587e-07
3.83978e-07
-4.93565e-07
-4.05347e-07
1.91718e-07
-3.20828e-07
9.46723e-08
3.84148e-07
-3.28297e-07
-8.20561e-07
-1.80257e-07
1.00082e-06
3.88483e-07
-9.29723e-08
6.40428e-07
-1.71986e-07
-3.71699e-08
-1.04567e-07
2.0609e-07
9.27979e-07
-9.09762e-07
-1.82168e-08
3.95192e-07
-1.10447e-08
1.6383e-07
-2.05159e-07
3.82966e-07
-4.40294e-07
2.07428e-07
-1.91574e-08
-1.8827e-07
4.48648e-07
2.42596e-07
6.52673e-08
4.79697e-08
2.31417e-08
3.65341e-07
1.10404e-07
-2.48123e-07
-8.06918e-08
3.23287e-07
6.40189e-07
3.70742e-07
-1.57224e-07
-2.48123e-07
2.84046e-07
7.62712e-08
-3.60317e-07
3.51912e-07
9.14161e-07
-1.26607e-06
-4.10921e-07
2.56852e-07
1.54069e-07
8.26748e-07
-8.77724e-07
5.09766e-08
-2.29427e-07
1.48735e-07
-8.31351e-08
-4.55779e-07
-1.05893e-07
2.27578e-08
4.13156e-08
2.81972e-07
2.95301e-07
2.68558e-07
4.69712e-07
-3.36801e-07
-1.3291e-07
4.02559e-07
5.64482e-07
-4.86621e-07
3.76725e-08
-3.56535e-08
3.30512e-07
-2.94858e-07
7.58477e-07
-6.04566e-07
2.42064e-07
2.09354e-07
4.70143e-07
2.67658e-08
-4.96909e-07
7.89551e-07
-8.10852e-07
-2.44786e-08
4.43998e-07
-2.7906e-07
-1.64937e-07
-3.81243e-07
4.80411e-07
-9.91682e-08
6.08045e-09
3.41152e-08
6.08045e-09
-5.40971e-07
4.48242e-07
9.27295e-08
4.76076e-07
1.64352e-07
-4.52723e-07
4.82464e-07
-2.97415e-08
-4.38162e-07
4.87521e-07
6.50057e-08
-1.7158e-07
1.06575e-07
6.81205e-07
-2.05129e-07
-1.59762e-07
-8.91299e-09
1.68675e-07
-8.38062e-07
8.83833e-07
-1.16043e-06
3.39868e-07
-9.10501e-09
3.0707e-07
-3.41956e-08
5.18547e-07
1.62658e-07
-3.73411e-07
4.82998e-07
-2.2872e-07
1.93067e-07
8.84687e-08
-7.08281e-08
2.76884e-08
-1.60047e-07
7.69228e-08
-1.60047e-07
-8.30142e-08
-8.5068e-08
4.69046e-07
3.12448e-07
-3.59939e-07
4.74904e-08
-4.63807e-07
4.32268e-07
4.77913e-07
-2.01406e-08
2.01406e-08
4.1709e-07
7.04309e-08
-2.32017e-07
6.04369e-08
4.5789e-07
1.25967e-07
2.88289e-07
2.41594e-08
3.19467e-07
-6.17329e-07
4.45344e-07
-2.73059e-07
-4.72579e-07
-5.71678e-07
1.58493e-07
4.13186e-07
-1.19022e-07
-8.55726e-07
7.17013e-07
-4.55779e-07
-1.23437e-07
5.0923e-07
4.53256e-07
3.63538e-07
1.80303e-09
5.09259e-07
-5.09259e-07
-5.40869e-08
-2.22842e-07
-7.69228e-07
-4.45753e-07
4.73441e-07
7.78053e-07
-7.50085e-07
-2.7968e-08
-1.87884e-07
7.06431e-07
-4.58837e-07
6.61296e-07
-2.15952e-07
-4.76343e-08
1.26221e-07
-7.85871e-08
5.38996e-07
-6.3901e-07
1.00014e-07
-4.98381e-08
-6.12486e-08
-1.26277e-07
9.0433e-07
1.47348e-06
-3.88481e-07
-1.085e-06
-2.21331e-07
2.21331e-07
8.39404e-08
-3.7904e-07
3.7904e-07
2.6722e-08
3.45629e-07
1.17714e-07
-4.63343e-07
1.88185e-07
-1.88185e-07
-4.71434e-07
-2.20659e-07
2.20659e-07
7.19107e-07
-4.56167e-07
-2.6294e-07
2.74771e-07
-2.74771e-07
5.89402e-08
6.50403e-07
-1.57498e-07
-4.92904e-07
8.58088e-07
3.75944e-07
4.47352e-08
-5.692e-07
2.9362e-07
-2.92752e-07
4.30893e-07
1.04259e-06
8.20723e-07
-8.3894e-07
-1.28586e-06
8.97382e-07
3.27599e-08
4.7647e-07
8.39171e-09
5.31223e-07
-3.10025e-08
-1.10267e-08
6.22242e-07
-1.20733e-07
1.57279e-07
-2.11366e-07
1.76538e-07
4.73864e-07
-7.38954e-07
1.34388e-07
5.97324e-07
-1.84138e-07
7.19906e-07
-1.88683e-07
6.43581e-07
6.28501e-08
-1.09876e-06
-5.20815e-07
-3.20737e-07
8.41552e-07
3.52807e-07
-2.51323e-07
-1.01484e-07
-9.47854e-07
1.37875e-06
-7.59091e-07
-1.18633e-07
4.62773e-08
2.74661e-07
-3.20938e-07
4.59416e-07
2.34679e-08
-4.41148e-07
-9.12133e-08
2.48492e-07
1.76902e-07
3.94339e-07
-5.51837e-07
-1.63634e-07
1.63634e-07
-4.80804e-07
-7.00194e-07
1.181e-06
-4.7345e-07
-8.12414e-07
4.40616e-07
5.16814e-07
-5.73984e-08
-5.00703e-07
9.29018e-07
-4.28315e-07
2.19108e-07
-3.11066e-07
2.19038e-07
-9.86065e-07
5.12615e-07
3.37321e-09
7.16533e-07
3.06531e-07
-8.27346e-07
-1.42866e-06
-2.83255e-08
1.6816e-08
1.15095e-08
6.46954e-07
-1.00845e-07
-6.23694e-07
7.24538e-07
4.78715e-08
6.75238e-07
-7.23109e-07
-1.84886e-07
3.81371e-07
5.43057e-07
-7.29989e-07
8.65169e-07
-1.3518e-07
-4.85413e-07
1.22502e-07
-3.38459e-07
2.15957e-07
6.15688e-07
2.01879e-07
4.0914e-08
-2.42793e-07
-1.2009e-06
-8.68738e-07
-6.37824e-09
8.75116e-07
-9.2014e-08
4.37643e-07
7.61056e-08
3.15056e-07
-8.35762e-08
8.35762e-08
2.093e-07
7.19718e-07
2.90298e-07
1.06719e-06
-1.35748e-06
-1.1123e-07
2.00165e-08
8.809e-07
-2.33946e-07
-1.20998e-06
3.97561e-07
-6.59438e-07
-7.95025e-07
5.62568e-07
2.32457e-07
8.06775e-08
-1.82403e-07
-6.12622e-07
-2.10921e-07
-8.66856e-07
1.36867e-07
-7.91902e-07
1.77084e-06
-9.78936e-07
7.45991e-07
1.35786e-07
-8.81777e-07
-1.46475e-06
3.79745e-07
-1.20865e-07
-1.40617e-06
1.04891e-06
3.57256e-07
8.85132e-07
-3.62017e-07
-5.23115e-07
-5.10523e-07
-6.99452e-07
6.82766e-07
9.41769e-08
-1.3945e-06
4.84791e-07
9.09712e-07
-1.11587e-06
-1.65211e-06
8.6021e-07
-4.22458e-07
7.28989e-07
-1.52591e-07
3.70377e-07
3.04206e-07
8.43642e-07
-1.14785e-06
1.27153e-06
-7.86741e-07
7.24145e-07
5.47387e-07
3.60982e-07
1.49615e-08
1.63431e-07
1.66955e-06
-7.80054e-07
-8.895e-07
1.02255e-06
-2.98405e-07
9.96059e-07
2.64908e-08
-5.44467e-07
-5.31825e-07
1.07629e-06
6.22321e-07
-3.78571e-07
-2.4375e-07
2.06297e-07
-2.75833e-07
6.95361e-08
6.01846e-07
-1.36032e-07
-4.15805e-07
9.44191e-07
-6.39985e-07
-6.35919e-07
7.71705e-07
-8.08784e-07
-2.37407e-07
1.04619e-06
-1.32162e-07
9.6301e-08
4.47282e-07
-5.43583e-07
-3.0486e-07
-1.60775e-08
3.0021e-07
-5.71708e-07
2.71498e-07
8.71068e-07
7.98486e-07
-6.1107e-07
1.90117e-07
4.20953e-07
5.15876e-07
3.63375e-08
-6.84944e-07
6.48607e-07
6.47612e-07
7.47517e-07
-1.39513e-06
-8.15162e-07
-7.89218e-07
4.36851e-07
3.52367e-07
-1.79532e-07
3.30649e-07
-7.48183e-07
7.8452e-07
-4.76403e-07
-3.6844e-07
8.44843e-07
7.58652e-07
-5.59571e-07
-7.25434e-07
1.28501e-06
-6.93474e-07
6.21221e-07
7.22521e-08
1.03597e-06
-4.4639e-07
-5.89584e-07
1.24894e-07
-7.60813e-07
-1.0045e-06
-1.27096e-07
5.74377e-07
1.90971e-07
5.94211e-07
-7.85183e-07
1.23486e-06
-4.87345e-07
-2.06897e-07
-6.41116e-07
8.48013e-07
5.14367e-07
-4.18689e-07
-2.90737e-08
-6.5587e-07
1.50549e-06
-6.45278e-07
-4.10939e-07
1.49593e-06
-1.08499e-06
-3.87361e-07
-4.01857e-07
5.90166e-07
-4.46044e-07
-9.16599e-07
1.34383e-06
-4.27232e-07
-4.99847e-07
9.361e-07
-4.36254e-07
1.12838e-06
-5.80993e-07
2.02805e-07
-5.11465e-07
2.48118e-07
2.63347e-07
-7.62353e-07
3.15963e-07
1.13168e-06
-1.54262e-06
1.28472e-06
-7.28356e-07
-5.5636e-07
-6.18305e-07
2.49865e-07
-4.42215e-07
-1.68855e-07
5.98018e-07
-5.98018e-07
-2.29544e-07
2.29544e-07
8.96417e-08
-8.96417e-08
-1.79003e-07
3.41152e-08
-4.79856e-07
4.79856e-07
-2.89207e-07
2.89207e-07
1.80917e-07
-1.80917e-07
-2.8139e-07
-1.26611e-07
1.26611e-07
-9.64257e-08
2.78191e-07
-2.78191e-07
4.60758e-08
-4.60758e-08
6.94489e-07
-6.94489e-07
-3.21016e-07
3.21016e-07
-1.04007e-06
1.26755e-06
-2.27476e-07
-2.58683e-07
2.58683e-07
-2.30809e-07
2.30809e-07
5.37163e-07
9.3378e-07
-1.47094e-06
4.29129e-07
-9.16474e-07
1.66885e-06
-2.56623e-07
1.27602e-06
-7.61657e-07
5.35504e-07
-5.64577e-07
6.4461e-07
8.81338e-07
9.48276e-09
3.87343e-07
-3.96826e-07
1.10856e-07
-4.42906e-07
9.67545e-07
3.21541e-07
4.64971e-07
-7.86512e-07
-3.12261e-07
-1.33783e-07
-1.71205e-06
7.33115e-07
-5.65912e-07
-1.94902e-07
6.45179e-07
-8.88858e-07
9.15349e-07
-7.18358e-07
-1.63419e-07
-7.73905e-07
5.67008e-07
7.23151e-07
-1.16606e-06
-1.0477e-06
-6.64347e-07
-4.61349e-07
-1.37067e-07
1.57083e-07
-4.76291e-07
7.44335e-08
5.92007e-07
-3.33224e-07
-3.02342e-07
5.64395e-07
-5.93652e-07
5.44986e-07
-2.44181e-07
4.94046e-07
-7.72731e-07
2.06819e-07
-1.18709e-06
6.87244e-07
-7.12628e-07
1.9029e-07
5.22338e-07
7.15644e-07
-8.58697e-07
1.43053e-07
2.35952e-07
-1.45293e-06
6.74077e-07
7.78853e-07
-1.59488e-06
6.78283e-07
-1.58582e-06
6.99283e-07
8.86537e-07
7.4853e-07
-5.00412e-07
-6.10074e-07
2.39522e-07
-1.46162e-06
7.33261e-07
-9.1326e-07
-1.28984e-06
7.68967e-07
5.20878e-07
4.45314e-07
-3.2235e-07
-1.22027e-06
-1.11907e-06
-3.51872e-07
3.98405e-08
-1.12209e-06
3.26179e-07
7.95912e-07
-5.661e-07
3.09477e-07
-5.86396e-07
-3.30078e-07
6.26732e-07
-6.30822e-07
-4.91667e-07
-4.71447e-07
-5.61681e-07
5.39435e-07
2.22457e-08
-3.27418e-07
-1.10167e-07
7.0692e-09
3.80274e-07
-7.65685e-07
-9.20805e-07
-9.07538e-07
-1.86929e-07
-5.25699e-07
1.32823e-07
5.86896e-07
8.48728e-07
-6.58438e-07
-7.62334e-07
-3.85104e-08
-1.69967e-07
2.08477e-07
-1.04774e-06
-5.56583e-07
-5.07894e-07
1.74669e-07
6.31809e-07
-4.40615e-07
-1.44142e-06
4.48227e-07
1.09133e-06
-9.77486e-07
-1.13841e-07
-2.1083e-07
5.21561e-07
3.01731e-07
7.39456e-07
-6.75006e-07
2.52548e-07
1.31079e-06
-4.32426e-08
-2.82691e-07
-8.55383e-08
-7.57075e-07
8.42614e-07
6.21698e-07
2.3188e-07
-3.53124e-07
-5.02692e-07
1.26134e-06
-1.03103e-06
9.20862e-07
-9.05175e-08
1.18278e-06
-1.09226e-06
8.48816e-07
1.11252e-06
-1.67268e-06
5.60155e-07
-9.77879e-08
-9.33241e-07
-9.59963e-07
7.96544e-07
-1.63076e-06
8.65071e-07
-2.38394e-07
-2.53272e-07
1.04933e-06
-3.4263e-08
-5.30314e-07
7.59555e-07
-6.40128e-07
-2.73132e-07
1.21603e-08
-2.52529e-08
-3.08289e-07
1.34847e-06
7.65025e-07
-1.52736e-06
-7.79503e-10
2.22717e-07
-2.21937e-07
-8.72699e-07
2.54162e-07
6.18536e-07
-3.92329e-07
-4.49686e-09
3.78705e-07
-5.65634e-07
-8.78202e-07
7.43022e-07
2.6316e-07
-2.61432e-07
-1.72805e-09
-1.13808e-08
-3.90465e-08
-9.04517e-07
7.83652e-07
-1.83765e-07
-7.76197e-07
6.163e-07
-9.39621e-08
2.59142e-07
7.41409e-07
-8.59856e-08
-6.55423e-07
-2.52204e-07
-7.48905e-07
3.24597e-07
-9.88761e-07
8.04995e-07
-1.92849e-07
-4.26592e-07
-3.93261e-07
8.58913e-07
-4.65652e-07
-9.49925e-07
-1.31522e-06
1.27198e-06
-1.07973e-07
3.32558e-08
1.69446e-07
-1.14693e-06
-6.74099e-07
-1.12867e-06
6.25981e-07
-8.1673e-07
5.07505e-07
3.09225e-07
-8.45126e-07
4.54097e-07
3.91029e-07
2.1822e-07
-1.36909e-06
8.97641e-07
-8.99427e-07
7.91454e-07
-7.81477e-07
7.94597e-08
4.59976e-07
5.47425e-07
6.78151e-07
-1.22558e-06
6.43467e-07
-4.40892e-07
-1.94858e-07
1.50786e-07
4.40725e-08
-7.04852e-07
-1.34102e-07
8.38954e-07
9.17544e-07
9.56229e-07
-3.3453e-07
7.56619e-07
-1.10974e-06
9.44312e-08
5.22816e-08
1.16393e-07
2.43446e-07
8.21866e-08
-8.41278e-07
3.02694e-07
-7.41585e-07
4.38891e-07
-9.45496e-08
6.6811e-07
-8.12096e-08
-5.869e-07
-1.87789e-07
-7.03509e-07
9.35388e-07
-2.19385e-07
6.20725e-07
-4.0134e-07
-1.89933e-07
-1.93305e-07
-4.09118e-07
-3.10308e-07
7.19425e-07
-6.33624e-07
-1.40282e-07
4.77578e-07
-9.88727e-08
5.95911e-08
7.24929e-07
4.29768e-08
-2.64914e-07
-2.37585e-07
3.17045e-07
-3.53465e-07
-4.99686e-07
-1.17299e-06
-5.94969e-07
8.97663e-07
8.72948e-07
-1.29926e-07
-3.04307e-08
-8.61576e-09
3.83616e-07
6.83015e-07
1.23361e-07
7.3193e-08
-1.96554e-07
4.98472e-07
4.57757e-07
1.49711e-07
-8.53219e-07
4.80894e-08
2.15071e-07
-5.27828e-07
-1.18854e-07
6.46682e-07
-8.34778e-07
-1.11357e-06
-8.02379e-07
-7.93178e-07
2.8161e-07
5.11568e-07
-3.37621e-07
-3.75243e-07
4.23332e-07
3.37573e-07
-2.18953e-07
-1.1862e-07
-7.67725e-07
-2.6826e-07
8.86796e-07
-4.16484e-07
9.28053e-07
-4.94097e-07
9.78185e-09
3.27791e-07
1.74641e-06
1.31245e-06
-2.13324e-07
7.56495e-07
-8.51045e-07
-1.01231e-06
3.53877e-07
-3.34164e-07
1.97838e-07
-8.80854e-07
6.12594e-07
5.49175e-07
7.55866e-07
2.66125e-07
-4.8551e-07
-7.82832e-08
-7.89134e-07
-7.38225e-07
4.74258e-08
-3.08858e-07
5.18904e-07
3.96379e-07
2.57031e-07
-6.5341e-07
-4.86538e-07
8.92057e-07
-4.05519e-07
8.25604e-07
-1.53144e-07
3.10417e-07
4.46671e-07
-5.27881e-07
4.85077e-07
-1.7466e-07
-3.62375e-07
-4.2007e-07
-4.6542e-07
8.8549e-07
-1.69667e-06
-4.19876e-07
8.73974e-07
-2.81622e-07
5.3417e-07
1.04017e-06
-3.33083e-07
-7.07089e-07
3.93019e-07
3.26406e-07
4.16662e-07
-5.32793e-07
1.1613e-07
-7.59556e-07
-2.08232e-07
9.67788e-07
-3.93493e-07
1.39467e-07
-1.61066e-08
1.48343e-07
8.91829e-07
-9.06608e-07
9.02008e-07
-3.52833e-07
1.01738e-06
-8.59862e-07
4.24477e-07
-8.90129e-07
1.49249e-07
-5.21863e-07
2.40241e-07
6.20685e-07
6.64321e-07
-6.60416e-07
2.44611e-07
-5.39749e-08
3.78684e-08
4.82131e-07
1.19099e-08
3.68364e-07
-2.07119e-07
5.3004e-07
4.09592e-07
4.35251e-07
5.38913e-07
-8.91745e-07
-6.68165e-07
8.12647e-08
-7.36795e-07
2.43891e-07
2.79151e-07
5.68861e-07
7.62641e-07
-3.71612e-07
4.03258e-07
-1.37133e-07
5.26778e-07
1.82083e-08
3.10287e-07
2.7776e-07
2.07317e-07
2.28598e-07
4.68455e-07
9.88798e-07
-6.78511e-07
-1.84376e-08
1.69224e-07
6.42964e-07
-3.20347e-08
-6.10929e-07
-8.14169e-07
4.92184e-07
3.21985e-07
-7.64744e-07
6.86461e-07
4.33969e-07
-1.81085e-07
-4.16927e-07
-2.43489e-07
-3.51216e-07
-6.04166e-07
2.50701e-07
-4.39345e-07
-5.17879e-08
-3.45714e-07
7.05604e-07
2.70996e-07
2.2305e-07
3.20507e-07
-2.47314e-07
-2.40013e-08
-9.33481e-07
1.08182e-06
-6.27e-07
-4.11648e-08
-2.71162e-07
-3.98149e-08
1.13388e-07
-3.27504e-07
-5.86791e-07
-2.42579e-07
8.2937e-07
8.07253e-07
-7.25067e-07
6.80588e-07
2.03619e-07
6.66514e-08
-3.80756e-07
3.14105e-07
-1.46281e-06
7.24582e-07
4.30489e-07
-1.73066e-07
-2.57423e-07
7.63347e-07
4.39064e-08
7.96544e-07
-3.38788e-07
4.06074e-07
-7.12969e-07
3.11629e-07
1.05594e-06
-4.88721e-07
-2.24248e-07
-6.66815e-07
-5.70994e-07
-8.6383e-07
2.77039e-07
-4.65618e-07
6.76103e-07
-2.10485e-07
2.76067e-07
3.21572e-08
5.38688e-07
-3.46157e-07
-1.82062e-07
5.28219e-07
-3.85932e-07
6.86142e-07
7.84721e-08
-1.57059e-07
7.9648e-07
-5.52589e-07
4.51865e-07
1.94818e-07
-1.16017e-07
-4.86572e-07
-5.53901e-07
7.30439e-07
3.49927e-07
-6.4768e-07
1.32419e-07
2.90913e-07
-4.12791e-07
5.53175e-08
-1.18033e-07
5.48522e-07
8.14323e-07
-5.0899e-07
6.99962e-07
8.58696e-08
-4.5672e-07
3.7085e-07
5.37446e-07
1.92993e-07
2.89654e-07
-1.31514e-07
-1.5814e-07
5.84284e-07
2.62317e-07
4.84315e-07
-2.27284e-07
-1.54449e-07
5.67882e-07
-4.13432e-07
8.41966e-07
-2.73105e-07
-5.00994e-07
8.52025e-07
4.9075e-07
-4.05016e-07
1.56893e-07
3.87134e-09
6.59427e-07
-1.21981e-07
5.56163e-08
-7.80683e-07
7.02584e-07
-1.33057e-07
-5.69527e-07
2.31501e-07
6.21191e-08
-5.43532e-07
6.69344e-07
-1.25812e-07
-5.45512e-07
7.19246e-07
-1.73734e-07
1.67112e-07
-1.94289e-07
7.82721e-08
4.97523e-07
-3.03574e-08
-4.97459e-07
-1.26235e-07
3.00596e-07
-7.61826e-07
-7.04238e-07
-2.99435e-07
-1.77638e-08
-1.7879e-07
5.54941e-07
-2.6772e-07
2.7923e-07
2.68968e-07
-5.17768e-07
-1.68597e-07
6.86365e-07
2.17646e-07
-2.64289e-08
-1.91217e-07
-9.59791e-07
-1.88057e-07
2.37002e-07
3.04921e-07
3.75667e-07
3.33992e-07
1.86321e-07
1.59052e-07
5.04235e-07
1.55192e-07
7.0115e-08
-2.43181e-07
2.55871e-07
-1.63544e-07
-9.23276e-08
-1.89968e-07
5.0411e-07
-7.18417e-08
-4.76352e-07
3.60036e-07
3.36235e-07
-5.20372e-07
-3.19569e-07
1.07112e-08
-6.31472e-07
6.87089e-07
5.01135e-08
4.27053e-07
-1.07586e-07
-5.93712e-07
7.15911e-07
-1.22199e-07
-1.25474e-07
-5.50649e-07
6.97266e-07
-1.46617e-07
2.57412e-08
2.63069e-07
-2.88811e-07
4.45986e-07
-1.55716e-07
1.39488e-08
2.71798e-07
-2.85746e-07
-7.64131e-08
2.25662e-07
5.90104e-07
5.15822e-07
1.53522e-07
1.77539e-07
-1.05772e-07
-7.17676e-08
5.54542e-07
-3.68856e-07
-1.90418e-07
4.57047e-07
-4.02591e-07
2.46875e-07
5.22005e-07
-6.49574e-08
4.32561e-07
-7.42693e-07
7.866e-07
-6.69383e-07
3.7911e-08
1.03555e-07
-6.84661e-08
-1.21952e-07
3.96193e-07
4.48804e-08
6.7103e-07
-6.51078e-08
1.06269e-07
-3.26543e-07
-5.26095e-07
4.02659e-07
2.46463e-07
2.3657e-07
2.01074e-07
-6.24503e-07
-1.09653e-07
6.27608e-08
2.90046e-07
-2.46161e-08
4.59197e-07
-6.30043e-08
1.91488e-07
4.3722e-07
-2.00651e-07
3.62627e-08
1.55225e-07
-6.5027e-07
-1.65057e-07
8.15327e-07
-1.0084e-06
-3.49082e-07
4.06882e-08
-7.05504e-07
-1.35774e-07
1.3532e-07
3.019e-07
-4.98717e-07
8.0109e-08
4.18608e-07
-8.15157e-07
-4.85985e-08
-6.34068e-08
1.12005e-07
1.32653e-07
-3.22034e-08
-7.60124e-07
7.9657e-07
-3.64457e-08
-1.49579e-07
-2.38255e-07
-3.32476e-07
5.37308e-07
-4.10792e-07
3.65804e-07
-1.07149e-07
9.61224e-08
-5.57308e-08
2.73377e-07
1.97864e-07
-1.77425e-07
3.67907e-07
-1.72424e-07
1.62186e-07
1.02383e-08
-1.13879e-06
1.1212e-06
1.75875e-08
3.69455e-07
-7.85422e-08
-3.98118e-07
4.07118e-07
-4.46711e-07
-7.86044e-07
1.12719e-07
-6.48872e-07
-1.42621e-07
-2.98028e-08
-2.60233e-07
-7.22438e-08
2.22409e-07
-1.60991e-07
-6.14184e-08
-1.23561e-07
6.48206e-07
-4.91314e-07
-2.19274e-07
1.12077e-06
-8.73374e-07
1.45536e-07
-1.5425e-07
2.25278e-07
2.46189e-07
2.43981e-07
9.96269e-08
-4.20579e-08
3.24211e-07
-5.52431e-08
-7.73371e-07
7.85979e-07
-1.91768e-07
4.83149e-07
-1.35279e-07
-7.74462e-07
9.09741e-07
-1.70568e-07
7.82813e-07
-6.12245e-07
6.74868e-07
3.10021e-07
-1.16954e-07
6.48475e-07
-3.84354e-07
1.24122e-07
-4.87827e-07
-5.60707e-07
1.04853e-06
3.53768e-07
1.70824e-08
-1.03387e-07
-3.7622e-09
1.4589e-07
-7.92049e-07
6.69849e-07
5.14085e-07
1.60783e-07
9.41546e-07
-9.33155e-07
-2.46688e-07
-1.37666e-07
7.42775e-07
9.76783e-08
1.87148e-08
5.3464e-08
4.30072e-07
1.75546e-07
2.70321e-07
-1.30996e-07
3.67579e-07
-9.07242e-08
-2.76855e-07
-1.57162e-07
-6.28882e-07
9.81488e-08
-7.24076e-08
7.74189e-07
-6.20667e-07
7.76688e-07
-2.47973e-07
-5.28715e-07
4.92734e-07
-2.05634e-08
9.55333e-08
-5.47944e-08
-4.07389e-08
-1.21596e-07
3.64198e-07
-6.07496e-07
8.26604e-07
-1.48508e-07
-4.27093e-08
2.48275e-07
4.80714e-07
-7.55962e-07
8.9035e-07
6.96694e-07
-1.24958e-06
6.68586e-07
-6.36195e-07
-1.55853e-07
-2.69808e-07
6.12473e-07
-2.02436e-07
-1.65716e-07
3.68152e-07
2.67501e-07
6.17468e-07
-7.88036e-07
-1.14837e-07
2.25096e-08
7.06421e-08
-7.91186e-07
-2.46268e-07
-1.04255e-06
4.28049e-08
-1.04052e-06
-2.19525e-08
-7.41653e-07
1.72125e-07
4.80674e-07
-1.36721e-06
-1.45307e-07
1.66245e-07
1.77222e-07
-1.67519e-08
2.649e-07
1.42217e-07
-8.57477e-07
1.31455e-07
5.1587e-08
7.35324e-09
2.3666e-07
5.9271e-07
4.78619e-07
3.43245e-07
-5.03591e-08
5.66203e-07
2.00065e-07
2.79864e-07
5.61688e-07
9.49321e-08
2.13286e-07
4.17607e-07
-1.19646e-06
-1.64305e-07
-5.36398e-07
4.10164e-07
-2.03404e-07
-7.7652e-07
-5.86461e-07
4.66268e-10
-1.66182e-07
1.44607e-07
1.22059e-07
1.95417e-07
1.48049e-07
2.70751e-07
-1.85471e-08
5.08889e-07
4.78087e-07
-6.2114e-07
-9.02005e-08
-1.20629e-07
6.1591e-07
-8.07678e-07
1.99243e-07
-7.85704e-07
-4.30058e-08
1.56672e-07
9.00636e-07
1.04802e-07
6.79979e-08
-5.90754e-07
8.27414e-07
1.37539e-07
-4.82633e-07
4.13572e-07
1.29485e-07
-9.98228e-07
3.68692e-07
6.29536e-07
1.183e-07
2.56625e-07
-6.08435e-07
-5.69667e-08
-3.60556e-07
-1.72237e-07
-4.85613e-07
9.71279e-07
-4.7273e-07
3.35064e-07
5.59463e-07
2.25896e-07
5.05687e-07
1.16829e-07
7.60579e-07
-8.38727e-07
1.18195e-06
-1.1487e-06
1.67651e-07
2.97442e-07
-7.21772e-07
-4.44879e-07
-4.03182e-07
4.0963e-07
-6.17863e-07
8.22663e-08
9.05337e-08
-6.75056e-07
-8.71645e-08
8.83735e-07
-4.33651e-07
5.33665e-07
2.91787e-07
-6.52343e-07
-1.82725e-07
1.30393e-06
1.25812e-07
4.60876e-07
-2.18979e-07
3.10852e-07
-1.36378e-07
-8.26773e-07
-5.59117e-07
2.34085e-07
2.11782e-07
-3.25398e-09
4.13417e-07
-4.15816e-07
-2.31864e-07
-1.96656e-07
5.3201e-07
2.91773e-07
3.88632e-07
2.94188e-07
-1.04696e-06
3.50794e-07
-8.41013e-07
2.80306e-07
-5.17907e-07
1.04474e-07
2.26861e-07
1.76446e-08
3.70987e-07
2.06108e-07
-1.47333e-08
-1.19113e-06
5.95563e-07
-2.7065e-09
-3.77663e-07
1.02937e-06
1.19573e-06
1.45787e-07
5.51309e-07
9.10821e-07
-4.31383e-07
9.21323e-07
2.38926e-07
8.23235e-08
-8.503e-08
3.80777e-07
-7.84348e-08
-2.04256e-07
-1.19927e-07
1.57495e-07
6.33461e-09
4.59363e-07
-3.87816e-08
-5.3946e-08
1.16989e-07
-6.41416e-08
-3.67743e-08
-1.14019e-07
2.25864e-07
-2.39846e-08
9.35083e-07
2.43261e-08
1.49851e-06
-7.35976e-07
7.8224e-08
7.8773e-09
-7.96449e-08
-8.81028e-07
8.47302e-07
-1.98523e-07
1.26522e-07
7.20015e-08
5.35563e-07
-1.13036e-07
-1.47796e-07
-3.51239e-07
9.78243e-08
3.89281e-07
-5.11428e-08
-6.23155e-07
3.64486e-07
-1.57169e-07
4.92832e-07
-2.80335e-07
1.14918e-07
-1.10852e-06
8.95192e-07
3.53861e-07
-2.55675e-08
3.0956e-08
4.6172e-07
2.06738e-07
-2.39502e-07
-4.83171e-08
1.63056e-07
-1.71126e-07
3.09193e-07
-1.38067e-07
7.92301e-07
-2.75039e-09
7.41114e-08
7.90784e-07
1.71703e-07
1.35792e-06
-7.3194e-07
6.43391e-07
8.55122e-07
-3.94753e-07
-6.75752e-07
-5.2486e-07
4.88586e-08
2.16056e-07
7.92301e-07
-1.21517e-07
-2.70671e-07
-2.25684e-07
-1.05823e-07
1.16534e-07
3.44567e-07
-1.99031e-07
-1.77516e-07
-7.90191e-07
2.04898e-07
-2.39805e-08
-2.34487e-07
-2.41952e-08
-5.99651e-07
1.19795e-07
1.05468e-07
-1.58265e-08
-6.91401e-08
-3.49721e-07
4.94506e-07
-1.47323e-07
-1.05468e-07
6.91401e-08
1.47323e-07
-2.07121e-08
7.32111e-07
-3.76219e-08
3.49721e-07
-4.94506e-07
2.04898e-07
-2.34487e-07
-5.99651e-07
7.32111e-07
3.95263e-07
-6.74716e-08
-3.03268e-07
3.76618e-07
2.46506e-07
-2.38043e-07
2.38043e-07
-3.03268e-07
-3.57648e-07
-3.0225e-07
2.35151e-07
4.18241e-07
-2.06459e-07
7.4749e-07
3.11502e-07
-3.90629e-07
6.70684e-07
-7.26659e-08
-6.70684e-07
-2.38052e-08
-1.02451e-06
-7.08556e-07
5.9707e-08
-1.13978e-07
-1.83873e-08
-1.80136e-07
1.97209e-07
1.41514e-07
5.45851e-07
5.18586e-08
-1.35346e-06
-1.96741e-07
-4.64714e-07
1.85654e-07
1.179e-06
-5.47922e-09
-6.20214e-07
-5.55382e-08
-1.73433e-07
1.9442e-07
1.35971e-07
-2.28757e-08
-1.48869e-07
-2.69451e-07
1.90668e-07
7.87833e-08
5.82873e-07
-1.21153e-07
5.05697e-08
-5.05697e-08
-2.87072e-07
-2.65831e-08
-5.89258e-07
5.63859e-08
-1.02162e-06
9.48953e-07
1.02526e-07
-3.71978e-07
5.9125e-07
-4.59975e-07
1.23174e-07
-1.0884e-06
9.08661e-07
5.0493e-08
3.00447e-07
-2.70294e-07
2.32648e-07
-5.66633e-07
-4.46359e-08
-4.03941e-08
2.8415e-07
1.0573e-07
2.24189e-07
-1.41186e-07
9.65501e-08
5.83402e-08
-3.09947e-07
-6.43794e-08
8.013e-07
-3.27942e-07
1.73618e-07
-1.73618e-07
-4.19704e-07
-1.78314e-07
4.19704e-07
1.01498e-08
-2.31481e-07
2.31481e-07
1.16636e-07
8.77404e-08
-7.27348e-08
1.0082e-07
-2.5507e-07
-6.06984e-07
-1.41411e-07
1.41878e-07
-1.59362e-07
6.41194e-09
-4.23473e-07
-8.65414e-07
4.82404e-09
3.06678e-07
-2.22654e-08
1.868e-07
-3.0542e-07
-2.65529e-08
-1.43774e-07
5.27431e-07
-5.27431e-07
4.0603e-07
2.31853e-07
-2.15419e-07
-5.09585e-07
8.5581e-08
7.13831e-08
-1.56964e-07
2.51372e-07
1.92896e-08
9.45764e-08
-1.22893e-07
-2.67862e-08
8.18188e-08
3.53138e-08
-1.3371e-07
-1.50558e-07
-1.56248e-08
-3.49246e-08
3.49246e-08
1.65525e-07
1.43667e-07
4.44879e-07
-2.65392e-07
5.56202e-08
2.09772e-07
-1.47093e-07
2.69421e-08
-1.40216e-07
-2.24189e-07
8.53094e-08
1.40216e-07
-1.66858e-07
6.85049e-08
9.83535e-08
-1.944e-07
-1.9044e-08
-2.82508e-07
-1.58519e-07
-1.43417e-06
8.50941e-07
5.83233e-07
-2.28757e-08
-2.57887e-07
-1.38067e-07
2.57887e-07
1.04043e-07
2.07057e-08
-1.57084e-07
-1.50713e-08
-5.95916e-08
1.50713e-08
5.95916e-08
-1.73923e-07
1.73923e-07
1.97199e-07
-3.40732e-08
-4.29645e-07
-2.03336e-07
-5.18243e-07
-5.03376e-07
1.14731e-07
1.14813e-07
-1.14813e-07
-7.35976e-07
8.5216e-08
2.67862e-08
-1.22623e-07
7.84808e-08
-2.31853e-07
-6.91675e-07
-1.44439e-07
1.06808e-07
1.41371e-07
5.04042e-07
3.22697e-07
-1.05464e-06
-1.47529e-07
-2.32448e-08
-7.27348e-08