/*--------------------------------*- C++ -*----------------------------------*\
  =========                 |
  \\      /  F ield         | OpenFOAM: The Open Source CFD Toolbox
   \\    /   O peration     | Website:  https://openfoam.org
    \\  /    A nd           | Version:  9
     \\/     M anipulation  |
\*---------------------------------------------------------------------------*/
FoamFile
{
    format      ascii;
    class       volScalarField;
    location    "2.7";
    object      p;
}
// * * * * * * * * * * * * * * * * * * * * * * * * * * * * * * * * * * * * * //

dimensions      [0 2 -2 0 0 0 0];

internalField   nonuniform List<scalar> 
1655
(
11.6412
11.6409
11.6345
11.6324
11.6416
11.6397
11.6339
11.6379
11.6266
11.6415
11.6384
11.6389
11.6388
11.6379
11.6284
11.636
11.6332
11.6271
11.6377
11.6378
11.634
11.6265
11.6414
11.6416
11.6399
11.6351
11.6357
11.6302
11.6319
11.6331
11.6308
11.6347
11.6367
11.6326
11.6276
11.6322
11.6398
11.64
11.6369
11.6421
11.6341
11.6419
11.6374
11.6362
11.6365
11.6328
11.6316
11.6364
11.6405
11.6375
11.6396
11.6349
11.6279
11.6286
11.627
11.6323
11.6348
11.6383
11.6333
11.6327
11.6311
11.6388
11.6414
11.6372
11.6339
11.6315
11.6302
11.6366
11.6272
11.6422
11.6375
11.6331
11.6331
11.6274
11.6327
11.6358
11.633
11.6276
11.6347
11.6331
11.6334
11.6358
11.6263
11.6359
11.6331
11.6312
11.6332
11.6332
11.6477
11.6319
11.6325
11.6344
11.6374
11.6405
11.6373
11.6379
11.6306
11.6343
11.6345
11.6347
11.6341
11.6319
11.6408
11.6323
11.6256
11.6389
11.6359
11.6331
11.6347
11.6329
11.6357
11.6399
11.6343
11.6332
11.6377
11.6317
11.6369
11.6327
11.648
11.6263
11.6354
11.6325
11.6325
11.6287
11.6311
11.64
11.6375
11.6373
11.6362
11.6335
11.64
11.6355
11.6373
11.6404
11.6333
11.6433
11.6419
11.6272
11.6344
11.6299
11.6307
11.6357
11.636
11.6329
11.6298
11.6321
11.6352
11.6357
11.6366
11.6278
11.6298
11.6273
11.6318
11.6314
11.6304
11.6376
11.6344
11.6328
11.6367
11.633
11.6353
11.6429
11.6288
11.6325
11.6329
11.635
11.6303
11.639
11.6316
11.6271
11.6314
11.6287
11.6362
11.633
11.6331
11.6342
11.6402
11.6273
11.6334
11.6379
11.6313
11.6292
11.6393
11.629
11.6383
11.6336
11.6359
11.6336
11.629
11.6308
11.6373
11.6386
11.6312
11.6343
11.6338
11.6332
11.6297
11.6338
11.6484
11.6316
11.6297
11.63
11.6329
11.6332
11.6349
11.6345
11.6365
11.6321
11.6336
11.6327
11.634
11.6341
11.6416
11.6392
11.6379
11.6296
11.6323
11.6455
11.6321
11.6331
11.6362
11.6335
11.6369
11.635
11.6365
11.6339
11.6336
11.6343
11.6277
11.6242
11.6356
11.6135
11.6099
11.6285
11.6362
11.6357
11.634
11.6337
11.6335
11.6051
11.6303
11.6382
11.6049
11.6333
11.6356
11.6334
11.6269
11.63
11.6336
11.6338
11.6366
11.6332
11.6374
11.6343
11.6361
11.6326
11.6343
11.6365
11.6271
11.6371
11.6411
11.6333
11.6333
11.6325
11.6371
11.6385
11.6371
11.6378
11.6362
11.6378
11.6268
11.6294
11.6377
11.6333
11.6287
11.6306
11.6262
11.6369
11.6277
11.6326
11.6292
11.6391
11.6305
11.6288
11.629
11.6317
11.6319
11.6356
11.6368
11.629
11.6313
11.6338
11.6375
11.6297
11.6344
11.6352
11.6373
11.6297
11.6336
11.6338
11.6353
11.6406
11.6404
11.6348
11.633
11.6286
11.6349
11.6335
11.6359
11.6324
11.6328
11.6283
11.6334
11.6379
11.6376
11.6356
11.6339
11.6285
11.6319
11.6346
11.6308
11.6377
11.6356
11.6351
11.6352
11.6342
11.6351
11.6384
11.634
11.6371
11.6363
11.6336
11.6377
11.6335
11.6351
11.6334
11.6377
11.6373
11.6334
11.634
11.635
11.6342
11.6297
11.621
11.6292
11.6346
11.6378
11.6349
11.6346
11.6333
11.6409
11.6361
11.617
11.6355
11.6283
11.631
11.6339
11.6329
11.6371
11.6325
11.6303
11.6367
11.6283
11.6274
11.6366
11.63
11.6338
11.642
11.6341
11.6352
11.6373
11.6359
11.6362
11.6312
11.6422
11.6366
11.6365
11.6383
11.6355
11.6341
11.6355
11.6279
11.6395
11.6283
11.6346
11.6295
11.6301
11.6368
11.6316
11.6332
11.6352
11.6364
11.6372
11.6311
11.6339
11.6289
11.6304
11.6329
11.6299
11.6386
11.6322
11.6362
11.6255
11.639
11.6359
11.6357
11.6316
11.6358
11.6393
11.6361
11.6418
11.6194
11.6277
11.6362
11.6356
11.6141
11.633
11.6076
11.6277
11.6282
11.6389
11.6223
11.6317
11.6293
11.6277
11.6251
11.6054
11.6333
11.6335
11.6332
11.6343
11.6314
11.6275
11.6414
11.6165
11.6195
11.6352
11.6348
11.6413
11.6147
11.6358
11.6244
11.6358
11.6291
11.6267
11.6179
11.6328
11.637
11.6326
11.637
11.6329
11.6221
11.6331
11.6249
11.633
11.6201
11.6377
11.6277
11.6332
11.6313
11.6327
11.622
11.6313
11.6251
11.6393
11.6396
11.6258
11.628
11.6149
11.6299
11.6314
11.6356
11.6227
11.6361
11.6239
11.6287
11.6309
11.6214
11.6074
11.6319
11.6319
11.6354
11.6118
11.6328
11.6254
11.617
11.6315
11.6325
11.6351
11.6311
11.6243
11.6319
11.6112
11.6328
11.6288
11.6229
11.6237
11.632
11.6184
11.6329
11.6278
11.6293
11.6317
11.6265
11.6209
11.6283
11.6333
11.6273
11.6262
11.6321
11.64
11.6293
11.636
11.6248
11.6329
11.6321
11.6263
11.6195
11.6257
11.6298
11.6207
11.6079
11.6353
11.6256
11.6278
11.6055
11.6293
11.6279
11.6247
11.6302
11.6284
11.6318
11.6472
11.6302
11.6392
11.6433
11.6407
11.6404
11.633
11.6336
11.6373
11.6331
11.6384
11.6313
11.6487
11.6399
11.6441
11.6305
11.6264
11.6349
11.638
11.6299
11.6315
11.6307
11.6263
11.6215
11.6324
11.6288
11.6319
11.6325
11.6221
11.6323
11.6067
11.6336
11.6388
11.6292
11.6198
11.6275
11.6336
11.632
11.6349
11.6331
11.6338
11.6363
11.6331
11.6204
11.6306
11.6349
11.6241
11.6262
11.6306
11.6293
11.6381
11.6315
11.6324
11.6286
11.6342
11.6098
11.6292
11.607
11.6293
11.6152
11.6213
11.6264
11.6073
11.6266
11.6371
11.6365
11.6296
11.6336
11.6313
11.6281
11.6347
11.6319
11.627
11.6278
11.6314
11.6342
11.6352
11.6309
11.6266
11.6319
11.6359
11.6296
11.6372
11.6322
11.6189
11.6324
11.6091
11.6311
11.6207
11.6094
11.6155
11.6343
11.6081
11.6328
11.6134
11.6189
11.624
11.6285
11.6131
11.6295
11.6277
11.6292
11.6324
11.63
11.6315
11.6347
11.6311
11.6181
11.636
11.633
11.62
11.6333
11.6341
11.6394
11.6274
11.6292
11.6319
11.6313
11.6312
11.6324
11.6113
11.6199
11.6216
11.6367
11.6133
11.6332
11.6163
11.619
11.6252
11.6327
11.6311
11.6177
11.6102
11.6335
11.6301
11.6341
11.6327
11.6337
11.632
11.6274
11.6307
11.6339
11.6315
11.6285
11.6336
11.6361
11.6341
11.6312
11.6333
11.6329
11.6297
11.6096
11.6308
11.6157
11.6352
11.6353
11.6327
11.6321
11.6316
11.6309
11.6378
11.6316
11.6324
11.6331
11.6306
11.6333
11.6341
11.636
11.6124
11.6333
11.6359
11.6305
11.6336
11.6347
11.6313
11.6127
11.6332
11.6323
11.6131
11.6277
11.619
11.6135
11.6158
11.6349
11.6331
11.6351
11.6153
11.6338
11.6306
11.6326
11.634
11.6151
11.6396
11.6131
11.6335
11.6356
11.6248
11.6326
11.6266
11.6384
11.6337
11.6308
11.6385
11.6359
11.6333
11.629
11.6335
11.6301
11.6093
11.6392
11.6363
11.616
11.6328
11.6303
11.6341
11.6321
11.6318
11.6296
11.6343
11.6319
11.6325
11.6336
11.6243
11.6366
11.6366
11.6345
11.6249
11.6381
11.6186
11.6201
11.6343
11.6369
11.6337
11.6354
11.6302
11.6146
11.6346
11.6325
11.6213
11.6361
11.6365
11.6331
11.6194
11.628
11.6372
11.6338
11.629
11.6282
11.6354
11.6351
11.6348
11.6349
11.6293
11.6296
11.6383
11.6188
11.6342
11.6259
11.6358
11.626
11.6334
11.6326
11.6366
11.6355
11.6206
11.6347
11.6387
11.6356
11.6389
11.6386
11.6377
11.636
11.6234
11.6246
11.6355
11.6397
11.6238
11.6387
11.623
11.638
11.6327
11.6385
11.6327
11.6237
11.6371
11.6356
11.6381
11.6289
11.628
11.6371
11.6325
11.6397
11.6262
11.6204
11.6354
11.6335
11.636
11.6336
11.6338
11.6371
11.6273
11.6361
11.6351
11.6366
11.6363
11.6343
11.6385
11.6367
11.6297
11.6332
11.6285
11.639
11.6389
11.6359
11.6314
11.6338
11.6436
11.6361
11.6344
11.6335
11.6338
11.6347
11.6368
11.6393
11.6469
11.6356
11.6331
11.6281
11.639
11.6329
11.6345
11.6271
11.6359
11.6345
11.6395
11.634
11.6349
11.6336
11.6341
11.6381
11.6403
11.635
11.6277
11.6454
11.6358
11.644
11.6261
11.6362
11.637
11.6405
11.6358
11.6316
11.638
11.6269
11.6377
11.634
11.6341
11.6383
11.6401
11.6361
11.634
11.6337
11.6404
11.6303
11.6376
11.6255
11.6371
11.6353
11.637
11.6333
11.6424
11.6381
11.6404
11.6375
11.634
11.6402
11.6373
11.6426
11.6376
11.6314
11.6366
11.64
11.6403
11.6383
11.6381
11.636
11.6374
11.6454
11.6323
11.6408
11.6369
11.6269
11.6368
11.6373
11.6376
11.6403
11.638
11.6407
11.6388
11.6356
11.6388
11.6404
11.6404
11.6408
11.6344
11.6349
11.6284
11.6348
11.6372
11.6335
11.6378
11.6319
11.6269
11.6373
11.6317
11.6378
11.6356
11.641
11.6406
11.6369
11.6323
11.6366
11.617
11.6359
11.6329
11.6276
11.6336
11.6377
11.639
11.6275
11.6384
11.6334
11.6363
11.6345
11.6332
11.6281
11.6345
11.6361
11.6327
11.6378
11.6344
11.6351
11.6413
11.6411
11.6372
11.6406
11.6347
11.6381
11.6405
11.6382
11.6353
11.6352
11.635
11.6407
11.6319
11.6384
11.6317
11.6389
11.6367
11.6372
11.6414
11.6319
11.6392
11.6387
11.6359
11.6385
11.6378
11.641
11.6415
11.6408
11.637
11.6413
11.6387
11.6408
11.6444
11.6378
11.6349
11.6356
11.6348
11.6412
11.6405
11.6358
11.6379
11.6401
11.6383
11.6358
11.6347
11.6353
11.6382
11.6267
11.6331
11.6395
11.6337
11.6354
11.6399
11.6359
11.6383
11.6368
11.6118
11.6334
11.6358
11.6341
11.6359
11.6368
11.6314
11.6355
11.636
11.6408
11.6362
11.623
11.6375
11.6383
11.6339
11.6356
11.6343
11.6389
11.635
11.6352
11.6313
11.6358
11.6365
11.6348
11.6356
11.6284
11.6358
11.6378
11.6347
11.627
11.6252
11.6347
11.638
11.6354
11.6363
11.6319
11.6358
11.6404
11.6398
11.6377
11.6363
11.6354
11.636
11.6399
11.6368
11.6376
11.6385
11.6352
11.6299
11.6381
11.6303
11.6331
11.6401
11.6366
11.631
11.6347
11.6355
11.6338
11.6254
11.6366
11.6372
11.6339
11.6388
11.6384
11.6378
11.6392
11.6311
11.6395
11.6257
11.6372
11.6348
11.6398
11.634
11.6365
11.6295
11.6352
11.6395
11.6343
11.6324
11.637
11.6382
11.638
11.6399
11.6327
11.6398
11.637
11.6332
11.6395
11.6321
11.6337
11.6412
11.6325
11.6357
11.6252
11.6341
11.6295
11.639
11.624
11.6292
11.6398
11.6393
11.6334
11.6288
11.6374
11.6323
11.6363
11.6325
11.6373
11.6283
11.6367
11.6385
11.6219
11.6337
11.6374
11.6374
11.6398
11.6382
11.639
11.6254
11.6099
11.6169
11.6401
11.6358
11.6296
11.6378
11.6395
11.6386
11.6373
11.6359
11.6333
11.6375
11.6148
11.6096
11.6325
11.6385
11.6342
11.6043
11.6054
11.6335
11.6401
11.6394
11.6388
11.6373
11.6075
11.6363
11.631
11.6333
11.6389
11.6154
11.6393
11.6392
11.6362
11.6381
11.6257
11.6377
11.6337
11.6306
11.6349
11.6356
11.6391
11.6274
11.6352
11.6288
11.6352
11.6344
11.6336
11.6254
11.6352
11.6366
11.6393
11.6391
11.6365
11.6371
11.6351
11.6335
11.6304
11.6397
11.6339
11.634
11.6379
11.6387
11.6123
11.6337
11.6327
11.6238
11.6338
11.6346
11.6307
11.6265
11.6384
11.6396
11.6387
11.6366
11.6257
11.6333
11.6403
11.6464
11.6138
11.6061
11.6342
11.6393
11.6306
11.6399
11.6402
11.6129
11.64
11.6275
11.6355
11.6349
11.6328
11.6158
11.6336
11.605
11.6396
11.6407
11.631
11.6409
11.6332
11.6343
11.635
11.6316
11.6263
11.6092
11.6356
11.6416
11.626
11.61
11.6191
11.636
11.6332
11.6337
11.6203
11.6298
11.628
11.6327
11.6331
11.6349
11.6286
11.6356
11.6303
11.6377
11.6348
11.6312
11.6299
11.6316
11.6379
11.6358
11.6344
11.6298
11.6404
11.636
11.6359
11.6331
11.629
11.6406
11.6415
11.6409
11.6087
11.6294
11.6194
11.6397
11.6296
11.6259
11.6378
11.6275
11.6305
11.6273
11.6332
11.6258
11.6259
11.6364
11.6357
11.6454
11.6392
11.6415
11.6417
11.6409
11.6419
11.6271
11.6417
11.6357
11.6333
11.642
11.63
11.635
11.6363
11.6293
11.6291
11.6288
11.6388
11.6318
11.6283
11.625
11.6429
11.6284
11.6297
11.6291
11.6355
11.6282
11.6275
11.6369
11.6348
11.6255
11.6373
11.6273
11.6253
11.637
11.6353
11.6408
11.6391
11.6394
11.6333
11.6397
11.6376
11.6387
11.6397
11.6382
11.6433
11.6343
11.6383
11.6366
11.6357
11.6417
11.6389
11.6395
11.6337
11.6427
11.6394
11.638
11.6332
11.6307
11.6288
11.6331
11.642
11.6422
11.6312
11.6381
11.6333
11.6336
11.6377
11.6339
11.624
11.6341
11.6464
11.6449
11.6316
11.6373
11.6359
11.6305
11.6461
11.6421
11.6483
11.6356
11.6318
11.6335
11.6341
11.6387
11.6395
11.638
11.6256
11.6457
11.6423
11.6339
11.636
11.6268
11.6378
11.6373
11.6274
11.6417
11.6379
11.6331
11.6372
11.6264
11.6364
11.6449
11.6362
11.6416
11.6271
11.6413
11.6358
11.6426
11.6348
11.6359
11.6331
11.6341
11.6391
11.6408
11.6359
11.6399
11.6289
11.6374
11.6362
11.6375
11.635
11.6402
11.6412
11.637
11.6363
11.6419
11.6371
11.6387
11.6481
11.649
11.6363
11.6361
11.6335
11.6284
11.6301
11.6447
11.6256
11.625
11.6364
11.636
11.6367
11.637
11.6296
11.6253
11.6342
11.6333
11.6346
11.6323
11.6344
11.6342
11.6333
11.6377
11.6253
11.6413
11.6325
11.6384
11.6412
11.6297
11.6412
11.6399
11.6378
11.64
11.6301
11.6333
11.6247
11.6374
11.6322
11.6378
11.6424
11.6405
11.6344
11.63
11.6299
11.6379
11.6376
11.6357
11.6281
11.6386
11.6411
11.6336
11.6272
11.6409
11.6279
11.6372
11.6268
11.6333
11.6329
11.63
11.6378
11.6382
11.6414
11.642
11.6418
11.6416
11.6402
11.6413
11.6418
11.6408
11.6414
11.6301
11.6303
11.6276
11.6486
11.6418
11.646
11.6303
11.6308
11.6329
11.626
11.6366
11.6403
11.625
11.6359
11.6376
11.6316
11.6449
11.6301
11.6355
11.6411
11.6337
11.6468
11.6486
11.6367
11.6354
11.6274
11.641
11.6346
11.6339
11.6457
11.626
11.6363
11.6334
11.628
11.6267
11.6314
11.6376
11.629
11.6401
11.637
11.6396
11.6338
11.641
11.6399
11.6404
11.6363
11.6376
11.6343
11.632
11.6369
11.6419
11.6365
11.6367
11.6288
11.635
11.6401
11.6378
11.6402
11.6343
11.6382
11.6382
11.6264
11.6395
11.6364
11.6259
11.6314
11.6408
11.6409
11.6378
11.6367
11.6418
11.6432
11.6391
11.6336
11.6422
11.6285
11.6383
11.6321
11.6253
11.6395
11.6254
11.6297
11.6368
11.6378
11.6274
11.6352
11.6422
11.6471
11.6329
11.6339
11.6353
11.6292
11.6225
11.6369
11.6295
11.6333
11.636
11.6262
11.6357
11.6393
11.6258
11.6419
11.635
11.6365
11.629
11.6353
11.639
11.6363
11.6289
11.6383
11.6425
11.6265
11.6313
11.6379
11.6291
11.6377
11.6416
11.6358
11.6328
11.6478
11.6341
11.6377
11.6344
11.6415
11.641
11.6379
11.6411
11.6306
11.6302
11.6303
11.641
11.6344
11.6436
11.6348
11.6476
11.6378
11.6442
11.6339
11.6378
11.6462
11.6281
11.6377
11.6421
11.6475
11.6347
11.6364
11.6345
11.6266
11.6349
11.6342
11.6353
11.6421
11.6265
)
;

boundaryField
{
    back
    {
        type            empty;
    }
    front
    {
        type            empty;
    }
    top
    {
        type            zeroGradient;
    }
    outer_arc
    {
        type            zeroGradient;
    }
    bottom
    {
        type            uniformFixedValue;
        uniformValue    
        {
            type            table;
            format          csv;
            file            "outlet_p.csv";
            nHeaderLine     1;
            refColumn       0;
            componentColumns List<label> 1(1);
            separator       ",";
            mergeSeparators 0;
        }
        value           uniform 11.6251;
    }
    inner_arc
    {
        type            zeroGradient;
    }
}


// ************************************************************************* //
