/*--------------------------------*- C++ -*----------------------------------*\
  =========                 |
  \\      /  F ield         | OpenFOAM: The Open Source CFD Toolbox
   \\    /   O peration     | Website:  https://openfoam.org
    \\  /    A nd           | Version:  9
     \\/     M anipulation  |
\*---------------------------------------------------------------------------*/
FoamFile
{
    format      ascii;
    class       surfaceScalarField;
    location    "2.7";
    object      phi;
}
// * * * * * * * * * * * * * * * * * * * * * * * * * * * * * * * * * * * * * //

dimensions      [0 3 -1 0 0 0 0];

internalField   nonuniform List<scalar> 
1363
(
-5.0208e-07
3.69556e-07
1.32524e-07
6.104e-08
1.31355e-07
-1.92395e-07
8.23173e-07
-5.96424e-07
-2.26749e-07
-1.63551e-07
4.67501e-07
-3.03951e-07
7.2559e-07
9.75832e-08
9.90439e-07
-5.05223e-08
-9.39917e-07
-1.21332e-07
1.21332e-07
8.49099e-07
1.41341e-07
-2.91531e-07
3.00789e-07
-9.25822e-09
1.76444e-08
-3.09175e-07
-3.69203e-07
3.40777e-07
2.84262e-08
5.42938e-07
-4.09141e-07
-1.33797e-07
3.34333e-07
-4.97883e-07
-4.41547e-07
4.19892e-07
2.16551e-08
4.4842e-07
9.45182e-08
-3.71728e-08
9.82128e-08
8.20508e-08
-2.40063e-07
1.58012e-07
-2.30635e-07
-2.71444e-07
3.00867e-07
6.78399e-08
-3.68707e-07
-1.07818e-08
1.07818e-08
9.88016e-08
-1.67508e-08
1.80385e-07
-5.89526e-07
-2.26962e-07
-1.83363e-08
2.45299e-07
-8.56877e-08
2.99765e-07
-2.14077e-07
-1.79385e-07
-1.89818e-07
2.47647e-07
-3.33335e-07
7.54624e-07
-7.00453e-07
-5.41713e-08
-2.73524e-07
4.65614e-08
-2.61882e-07
4.43065e-07
-1.81183e-07
3.38687e-08
-3.85927e-07
3.52058e-07
-2.54962e-07
1.34444e-07
1.20518e-07
1.44524e-08
7.40172e-07
1.17613e-07
-3.79495e-07
-1.88192e-07
-1.50921e-07
3.39113e-07
6.9327e-07
-6.17819e-07
-7.54513e-08
-3.3929e-07
1.66863e-07
1.72426e-07
-2.82754e-07
-4.79298e-07
7.62052e-07
3.02756e-07
-1.2922e-07
-1.73536e-07
-4.72967e-07
1.90213e-07
8.59678e-08
2.13797e-07
5.65386e-07
-2.74854e-07
-2.90532e-07
4.79581e-07
-4.05481e-07
-7.41005e-08
-5.03344e-08
1.36302e-07
-7.53987e-08
-4.59333e-08
8.37425e-08
3.75895e-08
3.51554e-07
-2.95413e-08
-3.22013e-07
-3.59186e-07
3.06959e-08
3.2849e-07
7.74004e-08
-2.65593e-07
8.13236e-08
4.84063e-07
-1.85677e-07
-2.5587e-07
3.41163e-07
-4.02956e-08
1.44398e-07
-1.62734e-07
-2.71765e-07
-6.75246e-08
3.25939e-07
-1.47468e-07
-1.78471e-07
4.13441e-07
-3.95797e-07
-1.44953e-08
-4.11188e-07
4.25683e-07
-2.23961e-07
2.23961e-07
3.65977e-09
4.09781e-07
-2.75739e-07
5.17777e-08
-1.94163e-07
6.44588e-07
-4.50426e-07
-2.02535e-07
2.36403e-07
7.63184e-07
-6.74918e-07
-8.82668e-08
8.38999e-08
-2.34821e-07
-1.36349e-08
3.83191e-07
2.16579e-07
8.6177e-08
-8.88537e-08
1.5804e-07
-6.91866e-08
6.27314e-08
2.81551e-07
-3.26819e-07
4.52683e-08
6.64511e-07
-6.79006e-07
2.98274e-07
-1.80462e-07
-1.17812e-07
4.2435e-08
8.89195e-08
-2.18087e-07
2.09036e-07
9.05145e-09
-2.81423e-07
2.81423e-07
-5.99118e-08
-3.26015e-07
2.35606e-07
9.03333e-08
-1.90019e-08
8.22019e-09
5.91684e-08
-4.83867e-08
1.83524e-08
-1.87575e-07
-6.73877e-08
1.11119e-07
-1.48292e-07
-9.16693e-08
3.41441e-07
-2.49772e-07
3.82091e-07
-2.65232e-07
1.18832e-08
2.53349e-07
2.22656e-08
2.15851e-07
-5.78108e-08
-9.07289e-07
8.72213e-07
3.50754e-08
1.09493e-07
-3.03655e-07
-1.24576e-07
2.51872e-07
-1.27296e-07
1.04105e-07
3.15787e-07
-1.31825e-07
-1.33408e-07
1.07139e-07
3.72442e-07
2.87376e-07
-3.44548e-08
-2.52921e-07
-4.14906e-07
4.18566e-07
-2.44252e-07
-1.66936e-07
8.38475e-08
3.41836e-07
-2.35242e-07
2.07827e-07
2.7415e-08
-2.96729e-07
-1.08752e-07
-8.64776e-08
-3.8098e-08
-4.8505e-07
3.93381e-07
1.40445e-08
2.16131e-07
-2.40283e-08
-1.92103e-07
4.17766e-08
-4.56683e-07
-1.80232e-08
2.22876e-07
1.99737e-07
-1.1589e-07
7.28837e-08
1.6352e-07
3.36253e-08
3.17929e-07
-1.25373e-08
4.07373e-07
-3.94836e-07
2.26413e-08
2.58909e-07
-8.00443e-09
-3.18814e-07
-1.35889e-07
8.00399e-07
1.50321e-08
-6.94038e-07
1.54761e-07
-8.96598e-08
-1.28428e-07
7.27161e-08
2.68061e-07
2.87376e-07
-1.71138e-07
-3.2928e-07
5.00418e-07
3.78545e-07
8.89565e-08
-7.58061e-08
8.98506e-08
5.71871e-07
-1.08469e-06
5.12822e-07
-8.98506e-08
1.62734e-07
-4.79513e-07
-2.8465e-07
7.64163e-07
-5.03344e-08
-1.8321e-07
3.03688e-07
-1.80207e-07
-7.3676e-09
1.44398e-07
2.53915e-07
-1.36302e-07
-2.53915e-07
2.14894e-07
3.90204e-08
-2.71765e-07
-1.42296e-07
2.10136e-07
1.42296e-07
-1.72816e-07
3.05202e-08
-2.10136e-07
2.40831e-07
-2.55468e-07
3.32869e-07
2.55468e-07
-2.32827e-07
1.72816e-07
-2.02357e-07
5.56415e-07
-6.92304e-07
-2.40831e-07
2.32827e-07
-6.77272e-07
6.92304e-07
6.77272e-07
-5.95948e-07
-3.32869e-07
5.95948e-07
-2.63079e-07
2.02357e-07
-2.14894e-07
-1.63772e-08
3.94618e-08
-2.19669e-07
9.07917e-07
-5.88182e-08
-1.65698e-07
4.35343e-08
-2.23996e-07
7.26048e-08
1.36431e-07
7.94152e-07
-3.38164e-07
-4.55988e-07
-2.8763e-07
-6.19659e-07
3.0526e-07
6.02657e-07
3.37268e-07
-8.12575e-07
4.75307e-07
5.58312e-07
-5.92767e-07
-1.91664e-07
3.14596e-07
-1.22932e-07
-6.6483e-07
4.70112e-08
-3.45207e-07
-1.2776e-07
1.85989e-07
2.98616e-08
-7.0181e-09
6.10696e-08
-5.40515e-08
3.15309e-07
-2.54244e-07
1.11972e-07
7.40171e-08
-3.53503e-08
-3.09857e-07
-4.87514e-07
1.83563e-07
4.84446e-07
-1.61046e-08
-4.68342e-07
6.96609e-07
-3.59341e-07
1.69934e-08
-4.44979e-07
4.27986e-07
1.07063e-07
1.09068e-07
3.65285e-07
-1.42409e-07
8.53599e-08
9.67581e-09
-6.6834e-09
-2.09975e-07
3.20886e-07
-1.10004e-07
1.41894e-07
7.30319e-07
-3.825e-07
2.91919e-07
9.05816e-08
-2.17542e-09
2.10003e-07
-1.35662e-07
-2.46838e-07
-2.03274e-07
-4.09779e-08
-4.29602e-07
2.99605e-07
1.29997e-07
-2.40447e-07
4.87829e-08
2.83622e-07
1.59443e-07
3.14854e-07
-1.37684e-07
-2.90547e-07
2.16393e-07
-3.79271e-07
1.23561e-07
2.5571e-07
-4.59171e-07
6.72162e-08
3.91954e-07
6.15738e-07
-9.03368e-07
4.26175e-07
-1.26569e-07
8.9008e-07
-7.64013e-07
-1.26067e-07
2.99658e-07
1.26516e-07
-3.38424e-07
2.28419e-07
-5.36342e-08
1.74153e-07
-6.1243e-08
-3.97927e-07
5.19932e-07
-1.856e-07
4.62556e-07
-4.31652e-07
-3.09045e-08
-7.60342e-08
-1.9882e-07
2.88053e-08
-2.88053e-08
-7.58061e-08
1.94464e-07
3.25468e-07
-9.88985e-08
3.76555e-08
-1.54703e-07
-6.70142e-09
-3.76911e-07
6.62722e-07
-6.6961e-07
7.36826e-07
-2.15291e-08
6.46288e-08
-2.51414e-07
4.45878e-07
-2.11129e-07
4.09235e-07
-1.98106e-07
-9.06508e-07
8.18241e-07
-5.94367e-08
-1.80553e-07
4.75141e-07
-2.94588e-07
-2.86033e-07
9.01771e-07
9.00784e-07
-5.68433e-07
-3.32351e-07
-5.1078e-07
7.91282e-08
-4.80078e-07
-3.07015e-08
-3.40843e-07
4.49057e-07
-1.08214e-07
3.30042e-07
-5.10595e-07
-1.13561e-07
4.1322e-07
4.59378e-07
-2.61863e-07
-1.97515e-07
7.01211e-08
-7.01211e-08
4.29924e-07
-4.29924e-07
-9.77052e-08
-8.08802e-07
-3.42498e-07
4.26633e-07
-8.41355e-08
2.42065e-07
9.02031e-08
-3.32268e-07
-1.38009e-07
3.54402e-07
-7.27507e-07
5.78975e-08
3.5274e-07
-3.5274e-07
-2.43148e-08
2.43148e-08
1.34298e-07
1.93228e-07
-4.44642e-07
6.75255e-07
2.25529e-07
1.06559e-07
1.8843e-07
-6.03052e-07
1.22974e-07
-5.12849e-07
2.02858e-07
1.62427e-07
-1.36655e-07
-3.22611e-07
4.59267e-07
3.23993e-07
-2.33412e-07
-2.52543e-07
3.8254e-07
-9.03413e-08
-2.89978e-07
-2.14887e-07
5.04865e-07
1.6479e-07
1.57729e-07
7.92375e-07
1.5799e-07
-5.34901e-07
1.46463e-07
-9.10475e-07
-2.64727e-07
3.91243e-07
1.84015e-07
-4.36172e-07
1.33074e-07
2.80146e-07
-5.71891e-07
-3.80371e-07
9.52262e-07
7.14509e-08
-4.62566e-07
3.54352e-07
3.96109e-07
-9.68e-07
-8.84254e-07
-2.48834e-07
3.81908e-07
-4.10177e-07
1.9529e-07
2.37672e-07
2.43021e-07
-4.80692e-07
3.61433e-08
1.46202e-07
3.58663e-07
7.33383e-07
-5.87181e-07
-8.56236e-07
8.7319e-07
-1.69546e-08
-1.32542e-07
-8.39463e-08
9.02187e-07
-6.62878e-07
-4.68271e-07
8.6438e-07
-8.57385e-07
2.74092e-07
5.83294e-07
-7.99727e-07
6.7366e-07
7.68735e-08
6.75246e-08
-3.442e-07
5.11063e-07
2.01088e-07
-1.24215e-07
-3.62757e-07
-4.94629e-07
6.09793e-07
-3.73362e-07
-2.36431e-07
-5.77514e-07
8.92823e-07
-4.12248e-07
6.88344e-07
-2.76096e-07
-6.79485e-07
2.67236e-07
2.4224e-07
1.39668e-07
4.79912e-07
4.33551e-07
1.76242e-07
5.51365e-07
-6.83907e-07
-8.76588e-07
4.08317e-07
7.59227e-07
-1.06796e-07
-6.52431e-07
-4.20867e-07
6.94959e-07
-3.21302e-08
1.02232e-07
-7.01016e-08
9.93568e-07
-6.43569e-07
-3.49999e-07
4.16054e-07
4.01627e-07
-1.0452e-06
3.40955e-07
5.51868e-07
5.61357e-07
8.44061e-08
-6.45763e-07
3.25588e-07
-1.03672e-06
-3.89488e-08
1.07567e-06
-9.34077e-07
-2.17313e-07
1.15139e-06
3.84696e-09
5.5751e-07
2.5872e-07
2.00547e-07
-7.56311e-07
-3.31358e-08
7.89447e-07
2.43049e-09
-2.43049e-09
8.22019e-09
-2.52921e-07
-4.59333e-08
-9.66579e-09
9.66579e-09
-2.35726e-07
2.35726e-07
-1.8321e-07
6.99189e-07
-2.85838e-07
-4.13351e-07
-1.19437e-07
1.19437e-07
-2.0126e-07
2.0126e-07
-2.75739e-07
-1.54583e-09
1.54583e-09
-1.83683e-07
1.83683e-07
5.91684e-08
1.61784e-07
-1.61784e-07
8.37425e-08
3.03688e-07
1.17725e-07
4.33641e-07
4.04604e-07
5.06088e-07
-9.10693e-07
4.74725e-08
-4.74725e-08
8.52222e-07
-9.29952e-08
-5.78128e-07
5.04028e-07
4.64537e-07
-4.64537e-07
-4.57265e-07
8.39022e-08
9.02137e-07
-6.57917e-08
-8.36345e-07
1.64466e-08
-9.86509e-07
9.70063e-07
-1.13573e-06
9.90069e-08
-9.40181e-07
9.56628e-07
-2.87907e-07
-1.69358e-07
-1.18543e-06
2.51358e-07
-2.88614e-08
1.30139e-07
-1.01278e-07
-6.09916e-08
-5.56415e-07
2.68715e-07
-2.64868e-07
9.20433e-09
-5.11338e-07
5.02133e-07
-6.49172e-07
3.48899e-07
-2.43711e-07
-1.05188e-07
-6.2224e-07
9.63195e-07
1.86134e-07
-6.4385e-07
8.75628e-07
-2.31778e-07
1.21061e-07
-4.36464e-07
1.03008e-06
-6.14022e-07
1.01306e-06
-6.11435e-07
5.66384e-07
9.07431e-07
-7.01404e-07
-2.06027e-07
-2.5004e-08
1.55143e-07
-9.14855e-07
-2.53263e-08
-7.1077e-07
7.95177e-07
8.09142e-07
7.90719e-08
-7.97392e-07
7.1832e-07
7.29453e-07
-7.20249e-07
8.29264e-07
-8.68213e-07
3.01124e-07
8.61924e-07
-1.16305e-06
1.78618e-07
1.67772e-07
-3.4639e-07
6.67591e-07
9.98703e-07
-1.21602e-06
-3.40425e-07
1.01637e-07
2.38788e-07
8.23373e-07
-1.00829e-06
1.84921e-07
1.04054e-06
-1.07368e-06
-5.04426e-07
-6.91164e-09
6.89596e-07
9.06837e-07
-4.0281e-07
-6.36582e-07
5.31394e-07
4.07836e-07
3.19345e-07
8.4851e-07
-1.80919e-07
3.9904e-07
2.95996e-07
-1.37024e-07
6.85636e-07
-5.07018e-07
1.64858e-07
1.2786e-07
1.09797e-06
6.03806e-08
-3.49404e-07
2.89024e-07
-3.61123e-07
1.15847e-06
-7.97348e-07
9.34824e-07
-1.11451e-07
7.99634e-07
-6.78572e-07
-1.72653e-07
-7.0717e-07
-1.44894e-07
-7.11613e-07
5.42256e-07
-3.73514e-07
-2.215e-09
2.57665e-07
6.44841e-07
-5.43204e-07
-3.22633e-07
1.18456e-06
-8.25192e-07
-4.30214e-08
-1.04889e-06
-1.67127e-07
2.02397e-07
6.46114e-07
1.01154e-06
-5.69538e-07
-6.20082e-07
1.18962e-06
-7.95707e-07
5.59276e-07
-9.72348e-07
-5.38389e-07
-6.2466e-07
-1.12465e-06
5.09766e-08
7.36845e-07
-2.84396e-07
-7.02113e-07
-1.19378e-06
-9.62216e-07
-1.80219e-07
5.29548e-07
5.63203e-07
3.86164e-08
-6.0182e-07
1.55312e-07
-9.49309e-08
-7.08366e-08
-1.01816e-07
6.91063e-07
3.10788e-07
-7.19995e-08
-9.18023e-08
7.53133e-07
-6.61331e-07
-4.8567e-07
8.84709e-07
1.72715e-07
-8.66988e-07
1.11521e-06
-5.93325e-07
9.12669e-07
-1.90329e-07
4.79353e-07
9.1335e-07
-1.32489e-07
8.50809e-07
-7.19114e-07
-1.71799e-07
8.90913e-07
9.62968e-07
-3.96585e-07
7.83481e-07
-7.85696e-07
-5.81335e-07
7.1478e-07
-1.33446e-07
4.37746e-07
-8.51603e-07
-2.53451e-07
6.70589e-07
2.03955e-07
-3.96349e-07
6.14953e-07
-5.00734e-07
7.9673e-07
-5.18863e-07
9.26699e-07
1.7322e-07
-6.81219e-08
-7.33932e-07
4.90739e-07
2.43193e-07
-3.31561e-07
3.11061e-07
-6.1763e-07
9.44252e-07
-3.26623e-07
3.65847e-07
-3.33374e-07
-4.1199e-07
7.45365e-07
-8.19785e-07
-1.42431e-07
8.7679e-07
-3.17514e-07
-4.71984e-07
1.12408e-06
-1.07311e-06
-7.22119e-08
-6.48037e-07
-9.86912e-07
-3.0038e-07
6.17383e-07
5.7641e-07
-6.9305e-07
8.57908e-07
-9.35144e-07
-6.96997e-08
6.44296e-07
-8.97747e-07
2.19619e-07
3.70439e-07
5.73813e-07
-5.24103e-07
8.93163e-07
-3.69059e-07
2.27158e-07
6.63755e-07
-8.50726e-07
-4.61912e-07
-2.90848e-07
2.95947e-07
1.03367e-06
-4.18721e-07
2.21496e-07
4.93285e-07
9.46849e-07
-4.64767e-07
-4.96609e-07
9.61376e-07
-1.02848e-07
-4.01578e-07
-9.03249e-07
5.22878e-07
7.50885e-07
-5.31266e-07
-2.85754e-07
4.89709e-07
2.4414e-07
-6.29999e-07
3.85859e-07
-2.68668e-07
-1.27681e-07
1.04551e-06
3.90215e-07
5.56634e-07
-4.0938e-07
-5.01313e-07
8.80954e-07
3.41355e-07
5.51808e-07
-9.44568e-07
5.35189e-07
-9.6608e-07
-6.97744e-07
4.08549e-07
-1.64409e-07
-5.85986e-08
-3.31898e-07
-4.09447e-07
-6.00566e-07
2.89505e-07
1.89848e-07
-8.85251e-07
5.94403e-07
-4.03785e-07
-4.99464e-07
2.14098e-07
-2.56323e-07
-6.76753e-07
3.84345e-07
-2.95497e-07
8.18376e-07
3.58501e-08
2.9318e-10
-5.05722e-07
-4.38847e-07
-7.37791e-07
5.00284e-08
3.33162e-07
9.15168e-07
-3.86807e-07
2.03816e-07
2.64133e-07
1.44416e-07
-2.96418e-07
7.70204e-07
4.78742e-07
-3.35055e-07
-1.43687e-07
1.82324e-07
3.66419e-07
-1.97446e-07
8.60698e-07
-6.63252e-07
6.30552e-07
8.82284e-07
-8.99097e-08
-7.10295e-07
7.50617e-07
-2.57333e-07
7.98338e-07
4.94294e-07
6.19911e-07
-3.29613e-07
5.27971e-07
2.90405e-07
-7.2653e-07
-1.83945e-07
6.73268e-08
-6.70336e-08
2.1072e-07
-6.63042e-08
2.40546e-07
-9.22319e-07
1.95788e-07
1.99912e-07
2.09323e-07
4.59568e-07
-2.94778e-07
7.52788e-07
-2.47063e-07
-9.10316e-07
8.44309e-07
-6.48521e-07
-1.06518e-07
-3.43517e-07
3.47614e-07
-4.09716e-09
-7.30145e-07
-6.44688e-08
2.07727e-07
2.29073e-07
-4.56183e-07
-3.21884e-07
4.5552e-09
-3.8811e-07
3.9314e-07
-9.69918e-08
2.66683e-07
2.08517e-07
9.33553e-09
1.20456e-08
7.11489e-08
1.39706e-07
1.72246e-07
1.87754e-07
2.21323e-07
1.98569e-07
-1.91478e-07
2.61093e-07
-6.96149e-08
-7.81359e-07
-2.58985e-07
4.3044e-07
-2.46425e-07
1.30974e-07
1.13826e-07
1.8163e-07
7.49245e-08
-7.63995e-07
-3.53179e-07
1.37245e-07
1.07555e-07
-1.27035e-07
6.0731e-08
1.46715e-07
1.13511e-07
-3.78774e-07
5.76199e-08
4.11817e-08
-8.45828e-07
8.31945e-08
3.61029e-07
-7.98406e-08
-1.11638e-07
8.6125e-08
-1.08257e-06
-2.1247e-09
-2.75973e-07
4.04381e-07
3.0322e-07
3.80199e-07
-2.61156e-07
-1.02298e-06
-1.35446e-07
-8.81085e-07
1.40402e-07
-1.01341e-08
-1.37334e-07
2.50835e-08
-1.54304e-07
-2.39838e-07
8.40471e-08
1.39914e-07
-2.41066e-08
-2.37049e-07
-3.89157e-07
-3.20245e-07
-8.9932e-08
1.6375e-07
-2.08215e-07
2.5065e-07
-3.40703e-07
-3.94749e-07
1.4791e-07
3.22642e-07
1.0569e-07
-1.14848e-07
9.15763e-09
-2.399e-09
-3.10339e-07
-7.24932e-08
-1.85047e-07
-4.04479e-07
-2.64887e-07
-2.399e-09
-2.48034e-07
1.22495e-07
-6.4875e-08
2.19559e-07
-1.8807e-07
2.98306e-07
2.02112e-07
2.81494e-07
-4.95592e-07
9.40146e-08
8.48016e-07
-7.21933e-08
-4.03724e-07
2.10828e-07
1.92896e-07
-1.7193e-07
-2.2083e-07
-2.1597e-07
-4.56107e-07
-1.52545e-07
-3.30255e-07
4.14155e-07
1.01359e-06
5.22103e-07
-6.28899e-07
4.7813e-07
-4.82063e-08
-8.09653e-08
-4.15471e-07
4.83431e-08
2.1778e-08
4.15471e-07
-4.83431e-08
2.32966e-07
4.7813e-07
2.11676e-07
-6.06756e-07
8.58113e-07
7.83129e-07
-5.576e-07
-7.42929e-08
-8.13188e-08
-3.8118e-08
5.96637e-08
-1.21912e-08
2.21746e-09
6.04477e-09
-1.9705e-07
-5.58715e-08
-8.13188e-08
1.90463e-08
-9.38051e-09
-3.55196e-07
1.19471e-07
1.3643e-07
-1.32525e-07
-6.87341e-08
-2.21746e-09
6.71628e-10
-6.04477e-09
7.59061e-09
1.9705e-07
-3.52656e-08
-1.3643e-07
-2.53539e-08
1.32525e-07
-1.90463e-08
5.96637e-08
-3.55196e-07
-2.99754e-07
-6.24524e-07
8.76667e-08
-4.01653e-07
6.976e-07
2.00761e-07
-2.72954e-07
1.29684e-07
4.14015e-07
1.34608e-07
8.31061e-07
-5.48445e-07
3.5028e-08
-4.58159e-07
4.14015e-07
1.69383e-07
-3.45625e-07
2.47011e-07
-2.1649e-07
1.04211e-06
1.99788e-07
3.59379e-08
-1.99788e-07
-2.45862e-07
4.19603e-07
-1.73741e-07
-9.83561e-07
-1.21697e-07
1.72148e-07
-3.98897e-07
3.94391e-07
7.5398e-07
-5.22202e-07
-4.73656e-07
3.4021e-07
4.19963e-07
-1.62981e-07
3.34387e-07
-1.13959e-07
-3.71091e-07
3.60496e-07
1.91637e-07
-5.13205e-07
5.13205e-07
-3.96968e-07
-5.34826e-07
-2.75541e-07
3.34387e-07
2.54973e-07
-8.00425e-07
2.81927e-07
-1.6731e-07
-2.77669e-07
9.29134e-08
-2.09139e-08
7.75915e-07
-5.69888e-07
-2.45877e-07
2.45877e-07
-4.1914e-08
-2.2761e-07
-5.07226e-08
5.07226e-08
-3.89394e-08
3.89394e-08
-2.4759e-07
4.04774e-08
6.24099e-08
-6.09032e-07
6.64108e-07
-5.50755e-08
4.63058e-07
-4.63058e-07
3.41441e-07
1.39126e-07
2.8886e-07
6.10696e-08
-6.67866e-07
1.74092e-07
3.59104e-08
1.81683e-07
-4.27287e-07
-6.39293e-07
1.59833e-09
2.27165e-08
-1.58209e-07
-3.38939e-08
-2.39931e-08
1.12913e-07
1.11287e-08
-3.51218e-08
-8.25142e-07
-2.06858e-08
-4.96411e-07
-4.43506e-07
-5.47443e-07
1.4579e-07
8.40471e-08
5.41505e-08
1.99199e-07
7.23064e-08
-1.44704e-07
-7.20453e-08
7.20453e-08
1.73221e-07
5.21738e-07
-5.1403e-07
-2.49772e-07
-7.02971e-08
7.02971e-08
-7.27559e-07
-1.89069e-07
5.60258e-08
2.71687e-08
1.82691e-07
-7.83219e-07
6.86032e-07
9.71864e-08
-3.79815e-07
1.29446e-07
2.50369e-07
-5.40515e-08
-7.26724e-07
2.06627e-07
-1.50601e-07
-2.19578e-07
-4.68529e-08
4.68529e-08
2.01728e-07
1.94991e-07
-3.98266e-07
-3.76661e-07
-2.52237e-07
-1.8817e-08
1.21536e-07
4.43471e-08
-1.78087e-07
-1.67829e-07
-6.1539e-07
-2.22974e-07
2.39233e-07
-1.08137e-08
8.00664e-10
-1.53346e-07
-9.0223e-08
1.82942e-07
-3.2258e-07
8.27414e-08
-1.59833e-09
7.22128e-07
-1.23096e-07
2.85795e-07
3.20343e-07
4.01784e-07
9.70217e-08
1.88773e-07
4.17446e-07
3.22349e-07
-1.56868e-07
2.15574e-07
-1.03816e-07
2.01678e-07
-3.29438e-07
2.32417e-07
5.66602e-07
-1.07615e-07
1.57543e-07
-1.19888e-07
-4.89471e-08
3.82979e-07
-1.79164e-07
7.37789e-07
4.8512e-08
-4.73653e-07
6.94238e-09
2.09238e-07
1.31785e-07
-2.05412e-07
2.94368e-07
1.4e-07
-3.02095e-07
1.21084e-07
4.09296e-07
-2.63506e-07
3.7403e-07
2.42723e-07
1.51903e-07
-4.1187e-07
-1.43035e-07
-7.80467e-07
2.15614e-08
-4.37715e-07
3.06192e-08
5.01477e-08
2.10111e-07
4.37722e-07
-1.32736e-07
1.01439e-07
-1.88979e-07
2.71721e-07
7.19862e-09
-1.88265e-08
)
;

boundaryField
{
    back
    {
        type            empty;
        value           nonuniform List<scalar> 0();
    }
    front
    {
        type            empty;
        value           nonuniform List<scalar> 0();
    }
    top
    {
        type            calculated;
        value           nonuniform List<scalar> 10(-4.368e-07 -4.752e-07 -3.6e-07 -2.448e-07 -2.448e-07 -3.6e-07 -4.368e-07 -9.12e-08 -9.12e-08 -4.752e-07);
    }
    outer_arc
    {
        type            calculated;
        value           uniform 0;
    }
    bottom
    {
        type            calculated;
        value           nonuniform List<scalar> 10(7.94614e-07 3.83555e-07 -2.13812e-08 -2.10855e-07 -4.19892e-07 1.04034e-06 -2.56554e-07 1.11717e-06 -1.01349e-07 8.90345e-07);
    }
    inner_arc
    {
        type            calculated;
        value           uniform 0;
    }
}


// ************************************************************************* //
