/*--------------------------------*- C++ -*----------------------------------*\
  =========                 |
  \\      /  F ield         | OpenFOAM: The Open Source CFD Toolbox
   \\    /   O peration     | Website:  https://openfoam.org
    \\  /    A nd           | Version:  9
     \\/     M anipulation  |
\*---------------------------------------------------------------------------*/
FoamFile
{
    format      ascii;
    class       surfaceScalarField;
    location    "1.81";
    object      phi;
}
// * * * * * * * * * * * * * * * * * * * * * * * * * * * * * * * * * * * * * //

dimensions      [0 3 -1 0 0 0 0];

internalField   nonuniform List<scalar> 
1363
(
-5.07415e-07
3.26365e-07
1.8105e-07
1.75506e-07
-2.32506e-07
5.7e-08
7.53866e-07
-6.04369e-07
-1.49497e-07
-1.5415e-07
4.63811e-07
-3.09661e-07
7.16821e-07
3.70446e-08
3.34691e-07
2.9646e-08
-3.64337e-07
-9.68691e-08
9.68691e-08
4.59088e-07
-1.24397e-07
-2.94715e-07
3.03336e-07
-8.62125e-09
1.43241e-08
-3.09039e-07
-4.83394e-07
4.7982e-07
3.57424e-09
9.79146e-07
-1.00987e-06
3.07219e-08
3.4157e-07
-4.9572e-07
-4.78697e-07
4.91647e-07
-1.29509e-08
5.16451e-07
4.62696e-07
1.91686e-07
-1.61802e-08
1.19007e-07
-2.47791e-07
1.28784e-07
-2.57298e-07
-2.50117e-07
9.68316e-08
-5.3388e-08
-4.34437e-08
-2.18617e-07
2.18617e-07
3.02945e-08
8.87127e-08
-1.93906e-07
-8.15963e-07
-1.64633e-07
-6.15453e-10
1.65248e-07
-2.93659e-08
2.26272e-07
-1.96906e-07
-1.84066e-07
-2.99328e-07
2.37386e-07
-2.66752e-07
7.07528e-07
-6.76405e-07
-3.11232e-08
-2.20483e-07
5.58498e-08
-2.21126e-07
3.50145e-07
-1.29019e-07
-2.34872e-08
-3.53411e-07
3.76899e-07
-2.22e-07
8.44644e-08
1.37536e-07
3.3681e-09
7.0416e-07
7.19383e-08
-2.93064e-07
8.19021e-08
-4.08362e-07
3.2646e-07
6.68234e-07
-5.9595e-07
-7.22836e-08
-4.68002e-08
1.91004e-07
-1.44204e-07
-4.47203e-07
1.38397e-07
3.08806e-07
2.99617e-07
-1.31025e-07
-1.68592e-07
-2.3117e-07
-2.16032e-07
3.56758e-08
1.90596e-07
6.24126e-07
-4.01583e-07
-2.22544e-07
4.59528e-07
-1.01046e-06
5.50932e-07
-4.20317e-08
7.77074e-08
-3.71366e-08
-5.97325e-08
4.67471e-08
5.0122e-08
2.93474e-07
-7.48418e-08
-2.18632e-07
-3.23866e-10
1.2076e-08
-1.17521e-08
2.07449e-07
-1.25547e-07
1.78092e-08
6.06317e-07
-1.34634e-07
-3.44062e-07
2.65486e-08
7.02831e-08
6.96299e-08
-7.02454e-08
3.50716e-08
-8.18718e-08
2.73625e-07
-1.45658e-07
-1.27967e-07
4.10767e-07
-3.96443e-07
-4.70746e-07
-4.52409e-08
5.15987e-07
1.99269e-07
-1.99269e-07
-8.68158e-10
4.11635e-07
6.26191e-08
1.3665e-07
2.00023e-07
6.27178e-07
-8.27201e-07
-2.09212e-07
1.85725e-07
7.27909e-07
-6.53461e-07
-7.44476e-08
-3.01505e-07
-1.06857e-07
-8.55031e-08
4.11868e-07
1.94e-07
1.05616e-07
-1.33703e-07
-1.04441e-07
2.38144e-07
5.15037e-08
-8.39052e-08
1.04398e-07
-2.04929e-08
2.31312e-07
-7.02058e-07
2.73921e-07
-1.98265e-07
-7.56566e-08
-1.1158e-07
-1.20926e-07
-2.24892e-07
2.09653e-07
1.52394e-08
-2.51187e-07
2.51187e-07
-2.16723e-08
-3.31739e-07
1.79014e-07
9.46112e-08
-1.33296e-07
-8.53207e-08
2.12142e-07
6.47476e-09
1.47724e-08
-1.76465e-07
-4.55359e-08
5.31429e-08
1.38543e-07
-1.37254e-08
8.71195e-08
-7.3394e-08
3.21851e-07
-4.15683e-07
3.35911e-08
3.82092e-07
-8.05598e-08
1.9472e-08
-1.23913e-07
-8.28121e-07
8.05684e-07
2.24375e-08
5.49885e-07
-3.49862e-07
3.44645e-07
2.85088e-07
-6.29734e-07
1.69374e-07
3.22274e-07
-2.22214e-07
-1.93469e-07
7.78178e-07
-3.1865e-07
2.6674e-07
-3.56156e-08
-2.31124e-07
-4.17584e-07
4.16716e-07
3.47381e-07
-3.92622e-07
6.33325e-07
-1.17338e-07
-2.03006e-08
2.22454e-07
-2.02154e-07
-7.88963e-07
-2.21497e-07
-6.82735e-08
4.12919e-07
-1.85981e-07
1.72255e-07
-1.52118e-08
2.15417e-07
-8.67549e-09
-2.06741e-07
3.86148e-08
-4.56199e-07
2.62247e-08
2.36785e-07
2.33333e-07
3.99991e-07
1.09677e-08
1.74757e-07
9.15733e-08
2.019e-07
-2.14175e-08
3.17666e-07
-2.96248e-07
1.88617e-07
-2.72522e-07
4.705e-08
5.73481e-08
-2.98454e-07
5.29766e-07
-1.74553e-07
-5.27504e-07
5.29392e-07
-9.51367e-08
-1.29755e-07
1.52732e-07
3.27087e-07
2.6674e-07
-1.07918e-07
-6.53076e-07
7.60994e-07
3.87971e-07
7.58398e-08
-7.44894e-08
5.92777e-08
8.2623e-07
-6.98966e-07
-1.27264e-07
-5.92777e-08
7.02454e-08
-1.7271e-08
-2.28311e-07
2.45582e-07
-4.20317e-08
-2.67367e-07
1.70627e-07
-1.57166e-07
-1.92991e-08
6.96299e-08
1.49646e-07
-7.77074e-08
-1.49646e-07
1.18096e-07
3.15498e-08
3.50716e-08
6.68088e-08
-1.20197e-07
-6.68088e-08
-2.18367e-08
8.86455e-08
1.20197e-07
-1.08121e-07
-1.27546e-07
3.34995e-07
1.27546e-07
6.10708e-08
2.18367e-08
-9.66785e-08
1.93239e-07
-4.91693e-07
1.08121e-07
-6.10708e-08
-6.66246e-07
4.91693e-07
6.66246e-07
-6.48437e-07
-3.34995e-07
6.48437e-07
-3.13442e-07
9.66785e-08
-1.18096e-07
4.21474e-07
1.16366e-08
-1.68802e-07
3.70676e-07
8.84121e-08
-1.02469e-07
1.87922e-08
-2.17057e-07
6.27308e-08
1.46922e-07
1.56162e-07
-2.74665e-07
1.18503e-07
-2.47725e-07
-5.80397e-07
-1.24058e-07
4.94734e-07
9.70132e-07
-7.69101e-07
-2.01031e-07
5.33157e-07
-5.68773e-07
-1.69084e-07
2.06339e-07
-3.72551e-08
-6.41871e-07
4.5921e-08
3.68122e-08
-2.67983e-07
1.28805e-07
-1.09333e-07
-8.18684e-09
6.10943e-08
-5.29074e-08
-2.58975e-08
-1.53597e-07
-1.52758e-07
2.81563e-07
2.60841e-07
-2.24029e-07
-4.87132e-07
1.77471e-07
6.9023e-07
1.8558e-08
-7.08788e-07
8.64687e-07
1.05445e-07
-4.97474e-10
-4.29443e-07
4.29941e-07
9.07041e-08
1.24713e-07
3.318e-07
-9.50155e-08
9.90341e-08
4.5596e-08
-3.98069e-07
7.88128e-08
5.12495e-07
-4.57255e-08
1.55803e-07
6.49881e-07
-3.77911e-07
2.89296e-07
8.8615e-08
9.19243e-08
1.3053e-07
-1.47111e-07
-2.30799e-07
1.7591e-07
1.71472e-07
-4.33952e-07
3.2383e-07
1.10122e-07
-1.85611e-07
1.65277e-08
2.1195e-07
1.38195e-07
2.94559e-07
-1.44657e-07
-2.7897e-07
2.19382e-07
-7.44253e-07
4.09683e-07
3.3457e-07
-4.16843e-07
2.15959e-09
4.14684e-07
6.15671e-07
-8.63395e-07
4.52849e-07
-1.29019e-07
8.74292e-07
-7.47308e-07
-1.26985e-07
3.5002e-07
1.02828e-07
-2.91396e-07
2.4567e-07
-1.52679e-08
1.52804e-07
-1.45171e-09
-4.15392e-07
5.19505e-07
-1.77935e-07
4.4382e-07
-4.27602e-07
-1.62177e-08
-1.30179e-08
-3.88565e-07
5.99233e-08
-5.99233e-08
-7.44894e-08
2.06408e-07
3.13097e-07
-8.20938e-08
8.06421e-08
-1.48757e-07
4.6707e-07
-3.13809e-07
3.95157e-07
-6.81293e-07
6.83452e-07
1.78916e-08
2.8428e-08
-2.41836e-07
4.48243e-07
-2.082e-07
4.13592e-07
-2.05392e-07
-8.82266e-07
8.07819e-07
-7.04571e-08
-2.12925e-07
4.9522e-07
-2.82295e-07
-2.34652e-07
8.50323e-07
8.76006e-07
-5.67414e-07
-3.08592e-07
-5.01041e-07
7.3439e-08
-4.51923e-07
-4.9118e-08
-3.37707e-07
4.88953e-07
-1.51246e-07
3.05771e-07
-5.18696e-07
-1.07734e-07
4.57754e-07
4.67059e-07
-2.50081e-07
-2.16978e-07
7.63337e-08
-7.63337e-08
3.82305e-07
-3.82305e-07
-8.80186e-08
-7.94248e-07
-3.58611e-07
4.77536e-07
-1.18925e-07
1.96597e-07
1.16209e-07
-3.12806e-07
-8.82439e-08
3.07626e-07
-6.94718e-07
1.34254e-08
3.27433e-07
-3.27433e-07
-6.02602e-08
6.02602e-08
1.57513e-07
2.03188e-07
-4.45024e-07
6.55537e-07
2.2047e-07
1.30342e-07
1.81329e-07
-5.89374e-07
1.37451e-07
-4.73165e-07
1.35489e-07
1.96311e-07
-1.03254e-07
-3.79849e-07
4.83103e-07
3.14428e-07
-2.25813e-07
-2.64997e-07
3.75119e-07
-8.66748e-08
-3.74281e-07
-8.468e-08
4.58961e-07
1.84764e-07
1.32211e-07
7.86274e-07
-1.54717e-07
-1.59092e-07
1.49426e-07
-8.96733e-07
-2.99463e-07
4.02291e-07
1.98162e-07
-4.87583e-07
8.09336e-08
3.76821e-07
-5.92549e-07
-3.24356e-07
9.16905e-07
4.94316e-08
-4.86821e-07
3.35575e-07
3.45215e-07
-9.37764e-07
-8.66532e-07
-3.07275e-07
3.88209e-07
-4.14405e-07
3.29725e-07
6.17874e-08
3.97872e-07
-4.5966e-07
6.45601e-08
3.7598e-07
8.29816e-08
5.08273e-07
-1.32293e-07
-8.117e-07
8.70589e-07
-5.88885e-08
-3.77261e-07
-5.61511e-08
8.6397e-07
-6.6629e-07
-4.9521e-07
8.40425e-07
-3.80278e-07
-1.08829e-08
3.91161e-07
-7.87988e-07
6.61003e-07
-1.22419e-08
8.18718e-08
6.96023e-08
1.21402e-07
1.58028e-07
-1.7027e-07
-3.68956e-07
-1.13213e-08
3.75921e-07
-2.94487e-07
-8.14344e-08
-8.05647e-07
7.79749e-07
-2.73439e-08
3.93335e-07
-3.65992e-07
-4.51841e-07
4.24497e-07
3.34983e-07
5.32256e-08
3.96771e-07
2.94878e-07
8.10432e-08
1.90816e-07
-5.68077e-07
-8.6591e-07
3.707e-07
2.59709e-07
2.19817e-07
-4.79526e-07
-2.77679e-07
2.66796e-07
1.02263e-07
1.3491e-07
-2.37173e-07
6.75285e-07
-1.06017e-06
3.84882e-07
-1.30362e-07
-3.45508e-07
-7.14659e-07
1.36421e-07
6.43328e-07
3.58616e-07
5.2028e-07
-8.78895e-07
2.4379e-08
-6.62053e-07
-6.07833e-07
1.26989e-06
-5.71879e-07
-1.3461e-07
7.06489e-07
-3.9782e-07
7.56436e-07
4.00265e-07
8.28387e-08
-5.4609e-07
5.88492e-07
-4.24023e-08
2.0644e-07
-2.0644e-07
-8.53207e-08
-2.31124e-07
-5.97325e-08
-1.30756e-07
1.30756e-07
-3.20325e-07
3.20325e-07
-2.67367e-07
8.95968e-07
-3.90221e-07
-5.05746e-07
-1.3158e-07
1.3158e-07
-7.8302e-08
7.8302e-08
6.26191e-08
5.70227e-08
-5.70227e-08
-3.94062e-07
3.94062e-07
2.12142e-07
1.46678e-07
-1.46678e-07
4.67471e-08
1.70627e-07
-3.04606e-07
4.95422e-07
3.36899e-07
5.65728e-07
-9.02627e-07
1.46863e-07
-1.46863e-07
6.40431e-07
-3.80722e-07
-4.90318e-07
1.04125e-06
1.31576e-07
-1.31576e-07
-1.81109e-07
-1.13377e-07
4.78589e-07
-4.67561e-07
-1.10279e-08
1.25779e-07
-6.75034e-07
5.49255e-07
-1.12237e-06
4.6032e-07
-4.5664e-07
5.82418e-07
-3.14584e-07
1.33474e-07
-4.44884e-07
-1.26995e-07
1.25918e-07
1.04369e-07
-2.30286e-07
2.28181e-07
-1.93239e-07
1.44915e-07
-5.42736e-07
-3.37521e-07
-1.14358e-07
4.51879e-07
2.32088e-07
8.6403e-08
-3.87147e-07
3.00744e-07
-6.70975e-07
8.07396e-07
2.15324e-08
-5.26346e-07
9.34753e-07
-4.08407e-07
4.0565e-07
-5.39694e-08
6.91582e-07
-8.21944e-07
5.93578e-07
-9.39086e-07
2.5021e-07
5.25228e-07
-1.0674e-06
5.42169e-07
2.42231e-07
-1.37862e-07
-4.26381e-07
-3.02583e-08
-4.61162e-07
9.81442e-07
9.78667e-08
-4.20957e-07
-4.88572e-07
9.09528e-07
3.48849e-07
-6.8637e-07
5.8192e-07
-1.18975e-06
7.14489e-07
6.52918e-08
-7.79781e-07
1.07208e-07
6.40576e-07
-7.47784e-07
4.07115e-08
7.63292e-07
-8.97902e-07
-6.47449e-07
2.28512e-07
4.18937e-07
4.00647e-07
-9.3777e-07
5.37123e-07
7.39192e-07
-1.507e-07
-3.29441e-07
2.15083e-07
5.21624e-07
6.86662e-07
3.54588e-07
-3.35479e-07
6.36223e-07
2.0607e-08
2.8105e-07
4.69988e-07
-4.29277e-07
-2.28365e-07
-4.13858e-07
-3.59082e-07
9.64428e-07
-8.5722e-07
4.73591e-07
-4.85477e-07
4.58021e-07
-3.39073e-07
-2.79744e-07
6.18816e-07
1.70083e-07
6.53141e-07
-8.23224e-07
1.05894e-06
-6.58294e-07
9.26636e-07
-5.20987e-07
-6.87278e-09
-2.2328e-07
2.94308e-07
-4.09513e-07
5.42987e-07
-1.3824e-08
4.9287e-07
9.1875e-07
9.84248e-07
-7.55737e-07
-9.02272e-07
9.67564e-07
-7.66787e-07
-4.22967e-07
-8.95667e-07
-2.23445e-09
4.35986e-07
3.40019e-08
5.33853e-07
-1.00726e-06
1.85799e-07
8.21457e-07
-5.64225e-07
4.82791e-07
-6.52667e-07
-8.3894e-07
5.91584e-08
-8.37935e-07
6.87235e-07
6.28105e-07
-1.86879e-07
-4.88155e-07
-6.01359e-07
-1.12587e-06
2.2671e-07
2.49725e-07
9.25285e-07
-3.64003e-07
-5.61282e-07
4.65165e-08
-3.85589e-07
3.44944e-07
-3.51817e-07
4.39808e-07
6.43747e-07
-2.2481e-07
2.43927e-07
4.9242e-07
-7.36347e-07
-6.82847e-07
4.54482e-07
-2.73969e-07
8.0815e-08
8.65036e-07
-4.42133e-07
7.23182e-07
3.8676e-07
2.32057e-07
4.58499e-07
3.39376e-07
5.70152e-07
-8.8102e-07
1.95458e-07
6.85562e-07
7.07866e-07
-4.57656e-07
9.29142e-07
-4.36272e-07
-6.87878e-07
6.11532e-07
7.63466e-08
4.93652e-07
-5.41644e-07
-2.12384e-08
7.96862e-07
7.63967e-08
-1.93967e-08
7.61972e-08
-8.26568e-07
4.1271e-07
-5.44332e-07
5.64939e-07
1.78607e-07
3.87498e-07
-5.76564e-07
3.37531e-07
2.39033e-07
-3.52207e-08
-2.70137e-07
-5.87042e-07
9.27701e-07
-3.40659e-07
-8.98502e-08
-1.22806e-07
-2.66522e-07
3.89328e-07
-9.17177e-07
-2.08691e-07
7.40272e-07
-2.57481e-07
-5.29011e-07
9.96504e-07
-3.09269e-07
-4.3844e-07
-2.47929e-07
-9.19411e-07
-2.81686e-07
4.83246e-07
4.58586e-07
-4.01121e-07
8.74712e-07
-8.44522e-07
3.95145e-07
6.86219e-07
-7.07457e-07
3.22061e-07
4.23963e-07
5.03738e-07
-5.20422e-07
9.67986e-07
-4.47564e-07
-8.94046e-08
7.74967e-07
-8.61081e-07
-3.72036e-07
-1.58303e-07
2.73011e-07
5.23375e-07
-4.47178e-07
2.55657e-08
5.85966e-07
8.82549e-07
-5.416e-07
-3.66918e-07
9.08518e-07
-2.96309e-07
-3.31323e-08
-8.44145e-07
5.19789e-07
5.44238e-07
-2.22177e-07
-9.35407e-09
8.57508e-08
2.203e-07
-4.78275e-07
2.57975e-07
1.35936e-07
-1.55333e-07
1.26018e-06
4.46693e-07
4.35856e-07
-4.996e-07
-4.03027e-07
7.84225e-07
4.35633e-07
5.32353e-07
-9.8105e-07
4.8145e-07
-9.44627e-07
-2.75876e-07
3.21523e-07
-1.01223e-07
-3.40769e-07
-3.65726e-07
-5.08771e-07
-2.2979e-07
4.99927e-07
-2.67871e-07
-8.00532e-07
6.42229e-07
-3.07664e-07
-5.36482e-07
1.67151e-07
-2.18852e-07
-6.50537e-07
4.17307e-07
-2.5173e-07
7.71519e-07
6.25405e-08
2.01965e-09
-4.306e-07
-5.5045e-07
-7.17106e-07
1.09556e-07
3.02312e-07
9.39371e-07
-2.39242e-07
3.07793e-08
1.93185e-07
1.28339e-07
-2.50266e-07
6.75282e-07
4.35845e-07
-3.09072e-07
-1.26772e-07
1.85579e-07
3.67618e-07
-2.09407e-07
8.44586e-07
-6.35179e-07
5.60803e-07
8.54426e-07
-6.81521e-08
-6.82572e-07
7.8025e-07
-1.94284e-07
7.98275e-07
5.61398e-07
6.08313e-07
-3.57241e-07
4.96993e-07
2.74526e-07
-7.02684e-07
-1.94049e-07
4.6232e-08
-4.42123e-08
1.70984e-07
-4.26457e-08
2.24839e-07
-9.03197e-07
2.00513e-07
1.93704e-07
2.19888e-07
4.73403e-07
-2.88639e-07
7.34442e-07
-2.47661e-07
-8.8284e-07
8.2582e-07
-6.25306e-07
-1.08714e-07
-3.36586e-07
3.71191e-07
-3.46055e-08
-6.55866e-07
-1.08221e-07
2.08953e-07
2.27847e-07
-4.86259e-07
-3.28746e-07
-6.09548e-08
-3.46028e-07
3.96892e-07
-5.5563e-07
2.64943e-07
2.10257e-07
-3.6595e-08
-2.87289e-08
3.88497e-08
9.88417e-08
1.71113e-07
1.88887e-07
1.37577e-07
1.32858e-07
-6.21184e-07
5.99012e-07
2.21719e-08
-6.97689e-07
-2.73537e-07
4.3575e-07
-2.37588e-07
1.30486e-07
1.14314e-07
1.45606e-07
8.11495e-08
-6.78743e-07
-3.32493e-07
1.36529e-07
1.08271e-07
-1.32805e-07
9.01589e-08
1.59304e-07
9.20343e-08
-3.82623e-07
-1.76591e-08
4.79536e-08
-8.0591e-07
1.01208e-08
2.36419e-07
-4.1139e-07
-2.09794e-07
2.8466e-07
-1.01956e-06
3.20595e-07
-1.67895e-08
4.45131e-07
3.01599e-07
2.78463e-07
6.14863e-08
-9.5228e-07
-1.37942e-07
-7.96477e-07
7.90833e-08
-1.96948e-10
-1.45461e-07
2.2716e-08
-1.53741e-07
-2.26123e-07
-1.38167e-07
-6.11019e-08
1.37479e-07
-7.59923e-08
-4.16498e-07
-3.26206e-07
-8.81991e-08
-1.61088e-08
-5.93823e-08
-5.21978e-08
-2.86051e-07
-3.89502e-07
1.58702e-07
2.435e-07
-2.75745e-07
6.75794e-08
2.08165e-07
-4.09403e-08
-7.47932e-07
1.43953e-07
-1.61311e-07
-6.54652e-07
-5.72701e-07
-4.09403e-08
-2.30197e-07
4.25251e-08
-6.01842e-08
1.17529e-07
-1.8749e-07
5.26703e-07
2.34291e-07
2.63685e-08
-1.9352e-07
1.60388e-07
8.32847e-07
-5.27482e-08
-4.03498e-07
2.15689e-07
1.87809e-07
-1.7251e-07
-2.22189e-07
-2.14611e-07
-4.57105e-07
-1.67626e-07
-6.27069e-07
3.25564e-07
9.49672e-07
7.27243e-07
-5.07427e-07
4.16632e-07
-3.43263e-08
-2.1755e-07
-3.78937e-07
6.89357e-08
7.398e-09
3.78937e-07
-6.89357e-08
2.38781e-07
4.16632e-07
2.06243e-07
-3.35437e-07
2.08442e-07
7.60356e-07
-5.39887e-07
2.97778e-07
-1.16937e-07
-1.46432e-08
1.29888e-07
1.69748e-08
-9.71652e-08
6.60353e-09
-1.77e-07
-5.41245e-08
-1.16937e-07
1.43288e-07
-1.2532e-08
-2.49634e-07
-7.06912e-08
1.31083e-07
-6.32747e-08
-1.50273e-08
9.71652e-08
-4.01426e-08
-6.60353e-09
-5.04191e-08
1.77e-07
-3.03217e-08
-1.31083e-07
-1.55958e-08
6.32747e-08
-1.43288e-07
1.29888e-07
-2.49634e-07
-8.96365e-07
-6.85085e-07
-2.4952e-07
-3.99649e-07
6.7266e-07
1.77481e-07
-2.30229e-07
1.33007e-07
1.61222e-07
1.3505e-07
7.73958e-07
-6.3163e-07
5.13854e-08
-4.33723e-07
1.61222e-07
1.10245e-07
-1.91288e-07
1.30945e-07
-4.22999e-08
5.04046e-07
3.75504e-07
-5.51794e-08
-3.75504e-07
-1.91312e-07
2.15508e-07
-2.41969e-08
-5.59241e-07
8.75018e-08
2.09481e-07
-3.58978e-07
3.93161e-07
8.77619e-07
-4.69212e-07
-3.6618e-07
4.42526e-07
3.15184e-07
-1.47505e-07
3.12661e-07
3.44357e-08
-2.20416e-07
3.64483e-07
2.20357e-07
-4.39069e-07
4.39069e-07
-3.48325e-07
-2.43243e-07
-2.84722e-07
3.12661e-07
2.49406e-07
-4.42319e-07
2.82619e-07
-1.21813e-07
-3.07631e-07
3.28835e-07
-1.04026e-07
3.73521e-07
-9.1569e-07
-4.67138e-08
4.67138e-08
-5.86983e-08
-2.28352e-07
-5.17734e-08
5.17734e-08
-6.01202e-08
6.01202e-08
-2.46848e-07
3.94266e-08
6.43117e-08
-9.13502e-08
3.31255e-07
-2.39905e-07
3.88872e-07
-3.88872e-07
8.71195e-08
1.58151e-07
2.7179e-07
6.10943e-08
-6.14723e-07
2.58003e-07
-1.27472e-07
2.07583e-07
-3.67585e-07
-6.50824e-07
4.56623e-08
1.45978e-08
-1.5432e-07
-5.24216e-08
-2.19772e-07
9.88466e-08
-4.36216e-08
-1.76151e-07
-7.52064e-07
-5.38461e-08
-2.08403e-07
-1.55934e-07
-5.28851e-07
1.29202e-07
-1.38167e-07
7.02321e-08
3.1186e-07
8.94372e-08
-1.46563e-07
-1.84268e-07
1.84268e-07
2.81346e-08
2.38661e-07
-4.87848e-07
-7.3394e-08
-1.6852e-07
1.6852e-07
-7.1502e-07
2.23834e-07
-7.99715e-09
1.8118e-08
-3.7784e-07
-3.78472e-07
2.47481e-07
1.30991e-07
-2.78973e-07
8.75331e-08
1.9144e-07
-5.29074e-08
-1.81748e-07
1.73142e-07
-1.81139e-07
-2.08941e-07
-4.68318e-08
4.68318e-08
1.50496e-07
5.08831e-08
1.25027e-07
-6.33606e-08
-4.44066e-07
-3.14606e-08
-1.68157e-08
4.43682e-08
-1.28477e-07
-1.47248e-07
-2.31224e-07
-1.42785e-07
2.02068e-07
4.36017e-08
-4.72207e-09
-1.62903e-07
-8.12691e-08
1.07942e-07
-3.20815e-07
9.46924e-08
-4.56623e-08
4.24043e-07
-4.44562e-08
2.57918e-07
-5.86242e-08
4.82667e-07
2.88682e-08
2.2905e-07
5.63205e-07
3.45914e-07
5.71463e-07
2.52813e-07
4.22368e-07
1.86001e-08
-2.86583e-07
2.57715e-07
2.0039e-07
-3.21975e-08
1.25433e-07
-4.47911e-08
2.60282e-08
2.43061e-07
-2.12282e-07
5.04581e-07
-4.90798e-09
-6.18991e-07
-5.57056e-08
2.18864e-07
1.39311e-07
-2.13034e-07
2.88874e-07
1.32773e-07
-2.49537e-07
-5.02123e-09
3.85396e-07
-2.56194e-07
3.55074e-07
-2.27815e-08
1.52639e-07
1.12811e-07
8.43953e-08
-7.00078e-07
2.35929e-08
-2.81015e-08
2.813e-07
5.01973e-08
1.2606e-07
4.27488e-07
-2.33612e-07
1.596e-07
-1.80127e-07
2.74819e-07
6.07569e-09
-4.15114e-09
)
;

boundaryField
{
    back
    {
        type            empty;
        value           nonuniform List<scalar> 0();
    }
    front
    {
        type            empty;
        value           nonuniform List<scalar> 0();
    }
    top
    {
        type            calculated;
        value           nonuniform List<scalar> 10(-4.368e-07 -4.752e-07 -3.6e-07 -2.448e-07 -2.448e-07 -3.6e-07 -4.368e-07 -9.12e-08 -9.12e-08 -4.752e-07);
    }
    outer_arc
    {
        type            calculated;
        value           uniform 0;
    }
    bottom
    {
        type            calculated;
        value           nonuniform List<scalar> 10(7.64087e-07 4.06983e-07 6.53239e-08 -1.37691e-07 -2.70435e-07 9.71227e-07 -2.26755e-07 1.01124e-06 -1.24432e-07 7.56456e-07);
    }
    inner_arc
    {
        type            calculated;
        value           uniform 0;
    }
}


// ************************************************************************* //
