/*--------------------------------*- C++ -*----------------------------------*\
  =========                 |
  \\      /  F ield         | OpenFOAM: The Open Source CFD Toolbox
   \\    /   O peration     | Website:  https://openfoam.org
    \\  /    A nd           | Version:  9
     \\/     M anipulation  |
\*---------------------------------------------------------------------------*/
FoamFile
{
    format      ascii;
    class       surfaceScalarField;
    location    "2.77";
    object      phi;
}
// * * * * * * * * * * * * * * * * * * * * * * * * * * * * * * * * * * * * * //

dimensions      [0 3 -1 0 0 0 0];

internalField   nonuniform List<scalar> 
2420
(
1.10008e-06
-1.11144e-06
1.13565e-08
2.28588e-07
-2.28588e-07
3.38597e-07
-3.18533e-07
-2.00641e-08
-3.05035e-07
3.05035e-07
-4.13038e-07
1.70812e-07
2.42225e-07
9.20369e-08
-1.13607e-07
2.15706e-08
1.71573e-07
1.67024e-07
-6.16415e-07
3.92858e-08
5.77129e-07
1.25469e-06
-1.3781e-06
1.23408e-07
-3.28522e-07
-8.45159e-08
-1.27527e-06
3.33536e-07
9.41739e-07
-1.04532e-06
-2.29953e-07
-6.16415e-07
-9.10408e-08
-5.28946e-08
1.43935e-07
-7.99255e-08
-3.51224e-07
4.3115e-07
-1.08639e-07
2.3573e-07
-1.27091e-07
6.48619e-09
1.78481e-07
-1.84967e-07
2.30783e-07
-4.66227e-07
2.35443e-07
6.65138e-08
-1.0773e-07
4.12162e-08
-1.19449e-07
2.84083e-08
6.63748e-09
1.99738e-07
-2.06375e-07
-1.18636e-08
-3.63563e-07
5.19324e-07
-1.55761e-07
-4.62643e-07
9.908e-08
2.81621e-07
8.18463e-07
-4.77659e-08
5.42521e-08
5.89959e-08
-1.67635e-07
-4.65715e-07
-8.94839e-07
1.36055e-06
-1.07206e-06
6.06343e-07
2.03584e-07
-1.05504e-07
-9.80791e-08
-5.86955e-07
-2.55658e-07
8.42614e-07
1.53374e-09
4.84042e-07
-4.85575e-07
-4.48587e-07
4.28183e-07
2.04037e-08
-4.50274e-08
1.09629e-07
-6.46015e-08
-1.98699e-07
4.29482e-07
-1.10392e-07
6.53649e-08
2.61627e-08
6.58742e-08
1.39498e-07
8.90903e-08
-4.77227e-08
-4.00864e-07
-1.81281e-08
-2.1046e-07
1.10823e-07
-1.04185e-07
4.41395e-07
4.61914e-08
-4.87586e-07
3.22564e-07
-3.70287e-07
1.50837e-07
-1.82385e-07
3.15482e-08
1.09439e-07
-7.65578e-08
-3.28814e-08
8.8114e-09
-3.13846e-07
1.22592e-07
1.82443e-07
1.33814e-07
-2.43752e-08
-1.42862e-07
2.4951e-07
-1.06648e-07
-5.76116e-08
3.80176e-07
-3.32646e-08
-8.03429e-08
-3.16999e-07
-5.65222e-07
4.85297e-07
-8.69616e-07
-5.08486e-07
1.15743e-07
1.19268e-07
-2.35011e-07
2.2502e-07
-9.86306e-08
-1.2639e-07
-2.45102e-08
6.35916e-09
1.8151e-08
7.10467e-07
-3.76931e-07
-5.21483e-07
4.10906e-07
1.10577e-07
3.53355e-07
-1.28335e-07
8.30271e-08
-6.69982e-07
-2.44739e-08
-2.69127e-09
2.71651e-08
-5.97529e-07
-5.13911e-07
-8.24977e-07
8.64263e-07
2.2774e-07
-1.55354e-07
-7.23856e-08
-5.55804e-07
3.00145e-07
-2.78437e-07
1.89052e-07
8.93851e-08
-6.89596e-07
6.15696e-07
7.39001e-08
1.54283e-07
-3.52982e-07
-2.12481e-08
2.08713e-08
-3.84231e-07
1.95106e-07
-2.68576e-07
7.34704e-08
-9.69289e-08
-2.54295e-07
2.82647e-07
1.08805e-07
-3.91451e-07
-1.26206e-07
8.99805e-08
3.62256e-08
-1.031e-06
-4.1059e-08
-1.233e-07
2.77583e-07
8.63127e-08
9.68072e-08
1.06776e-07
1.70688e-07
5.70515e-08
-9.00127e-08
-3.61934e-08
2.68379e-07
-1.52636e-07
-1.94938e-08
1.70331e-07
1.15321e-07
1.71769e-07
-2.8709e-07
-1.24988e-07
-1.02656e-07
2.27644e-07
3.87052e-07
-1.04405e-07
2.36548e-07
-4.14417e-08
-1.71068e-07
1.47435e-07
2.36325e-08
-4.01014e-07
1.55821e-07
2.45193e-07
-1.63904e-07
-2.3711e-07
2.76106e-08
-4.76747e-08
-4.729e-08
1.13804e-07
2.03448e-08
-1.63207e-07
3.6594e-08
-4.13262e-08
4.73227e-09
-6.55815e-08
-4.21485e-08
-2.35209e-07
-4.32282e-08
-5.25005e-07
3.52192e-09
2.11474e-07
2.72567e-07
-4.67142e-07
1.60729e-07
3.06412e-07
1.44279e-07
-1.16668e-07
-2.17331e-07
2.86496e-07
-6.91648e-08
1.48878e-07
1.00632e-07
-2.48882e-07
3.15507e-08
2.3704e-07
-2.84248e-07
4.72076e-08
-2.93273e-08
4.85341e-09
-9.7264e-07
1.84903e-07
7.87738e-07
2.43405e-10
-1.05748e-07
-1.85558e-07
-2.81584e-07
1.56712e-07
-2.55343e-07
-3.06102e-09
-3.34011e-07
3.37072e-07
3.73513e-08
-1.08267e-06
3.03161e-07
-1.46449e-07
3.32558e-07
-2.17237e-07
8.93342e-07
-1.27166e-07
-7.66176e-07
-2.88893e-07
-8.23251e-07
-1.49389e-07
4.19717e-07
-2.58503e-07
8.74351e-08
2.26507e-07
1.05334e-08
2.15638e-07
8.7523e-08
2.02967e-08
-4.68641e-07
4.48344e-07
2.83725e-08
-5.31331e-07
5.02958e-07
-2.98727e-07
-7.15106e-08
3.70238e-07
-2.49193e-07
1.3984e-08
-7.48518e-07
1.72333e-07
5.76185e-07
-3.2517e-07
2.67558e-07
6.99259e-08
-3.33319e-08
1.39384e-07
9.63453e-08
1.6958e-07
-3.72783e-07
2.03203e-07
3.21053e-07
-1.42179e-07
-1.78874e-07
-3.38134e-07
3.35073e-07
-1.00109e-06
1.76111e-07
-4.95299e-07
-2.53219e-07
-3.24915e-08
3.24915e-08
1.42586e-07
-5.42614e-09
-1.37159e-07
-3.01465e-07
-1.35201e-07
4.36666e-07
-5.65222e-07
6.35916e-09
1.99462e-07
-1.04103e-08
3.53355e-07
7.71469e-08
-1.8151e-08
-7.71469e-08
7.58943e-08
1.25261e-09
3.1285e-08
3.70091e-07
-4.01376e-07
1.68328e-07
1.84967e-07
-3.53295e-07
-3.70091e-07
3.90388e-07
-1.84511e-07
4.01376e-07
-2.16865e-07
8.73034e-08
1.28335e-07
-1.29562e-07
-8.73034e-08
2.16865e-07
-6.10592e-07
5.95689e-07
1.49032e-08
6.10592e-07
-5.27565e-07
-5.95689e-07
3.53295e-07
2.42394e-07
-3.90388e-07
4.99193e-07
-4.99193e-07
5.27565e-07
1.20872e-07
-2.23528e-07
-2.99021e-08
-2.95268e-07
7.35744e-08
-2.28929e-07
-2.46642e-07
4.57257e-07
-2.10615e-07
7.00907e-08
-7.81937e-08
-4.31153e-07
3.91681e-07
-4.77567e-07
8.58861e-08
-1.05715e-06
1.87533e-07
3.3807e-07
1.19187e-07
3.69355e-07
8.47087e-08
-6.09714e-07
-1.40333e-06
6.67712e-07
-7.94878e-07
3.73036e-08
9.13239e-09
-1.32432e-07
4.68278e-07
-2.89798e-07
-4.167e-07
9.32881e-08
3.23412e-07
-3.65907e-07
2.36345e-07
-9.98904e-07
1.29376e-07
8.69528e-07
-8.14001e-07
7.56562e-08
2.45397e-07
-3.91746e-08
4.8307e-08
8.66924e-08
2.92006e-07
-3.78699e-07
-1.00328e-07
-1.91213e-08
2.94315e-08
-2.30991e-07
-1.85709e-07
1.86385e-08
-5.19031e-08
-2.26225e-07
-7.25023e-08
6.92811e-08
2.83579e-08
-9.7639e-08
-4.40576e-07
4.87593e-08
3.91816e-07
-1.1142e-07
2.14071e-08
-3.53883e-07
3.20599e-07
3.56884e-08
-3.56288e-07
-3.83168e-07
1.52177e-07
-6.85229e-08
-8.03486e-09
-6.28674e-08
6.01761e-08
-2.4659e-07
-2.81498e-08
2.74739e-07
-5.7522e-07
2.5822e-07
-4.64017e-07
-5.19266e-09
4.69209e-07
-3.22481e-08
7.40096e-08
-4.15257e-07
-4.05038e-09
1.51486e-07
-1.49673e-07
-2.33495e-07
-1.63932e-07
5.03652e-08
1.13566e-07
-1.02727e-07
-6.12048e-08
-1.85794e-08
-2.82251e-07
3.0083e-07
-5.70083e-08
2.56746e-07
-4.18899e-07
3.85774e-07
3.31247e-08
2.19769e-07
-2.47919e-07
-2.29485e-07
3.99065e-07
1.66522e-07
-5.68928e-08
6.97545e-07
-1.09524e-06
3.97699e-07
1.02131e-07
-6.77351e-07
1.24458e-07
8.40044e-07
1.53049e-08
-1.15633e-07
1.59478e-07
3.99837e-08
9.92857e-08
-2.09678e-07
8.88471e-08
3.02833e-07
2.3601e-07
7.53011e-07
-9.89021e-07
1.61083e-07
-3.10757e-07
2.23947e-08
3.01727e-08
3.46054e-07
8.21294e-08
-4.52293e-07
3.44141e-07
1.08153e-07
-7.28452e-08
5.37842e-07
-4.75295e-07
-6.25474e-08
6.85164e-08
4.69326e-07
-2.55689e-07
-7.56344e-07
1.09499e-07
6.46845e-07
-4.69236e-08
-7.0942e-07
-3.35008e-07
4.46293e-07
-1.11285e-07
-9.54643e-08
4.31382e-08
5.2326e-08
-8.65836e-08
-8.88063e-09
1.65289e-07
1.12294e-07
4.25697e-07
-3.99234e-08
-4.41186e-07
1.06178e-07
-4.80487e-07
1.77166e-07
4.26031e-08
-4.63087e-07
5.31603e-07
5.10116e-07
1.68225e-07
-6.7834e-07
2.57076e-07
1.07355e-07
-3.8074e-08
7.84916e-07
-2.748e-07
3.62757e-08
-3.78418e-09
-3.3679e-07
-1.15504e-07
-1.43052e-07
1.0161e-07
8.97743e-07
-4.38631e-07
-4.59112e-07
-7.99553e-07
-2.57595e-07
6.12273e-09
5.05224e-07
-9.80372e-08
-8.43479e-08
1.99981e-07
-1.09197e-07
-9.07844e-08
7.99676e-07
-1.69714e-08
4.42669e-07
-8.59233e-07
1.09862e-07
3.7627e-07
-4.86133e-07
-4.40002e-07
1.03212e-07
1.0894e-07
-1.48114e-07
3.71953e-07
-2.89824e-07
-2.60892e-07
-6.24127e-08
3.23305e-07
3.85141e-07
-9.3135e-08
5.9894e-07
-1.29614e-07
7.56598e-08
-8.60406e-09
2.08585e-07
7.83562e-07
-7.54647e-07
-2.89153e-08
3.39234e-07
3.27198e-08
1.7555e-07
-2.05452e-07
3.62008e-07
-4.34854e-07
2.3514e-07
-5.86714e-08
-1.76469e-07
4.85297e-07
2.84891e-07
-1.19602e-07
3.88321e-08
4.49129e-08
3.40228e-07
1.50144e-07
-3.785e-08
1.47265e-07
1.37626e-07
4.10047e-07
4.87696e-07
-6.88574e-08
-3.71144e-07
1.88096e-07
7.63724e-08
-2.64468e-07
4.99536e-07
1.67902e-07
-6.67438e-07
-2.62105e-07
2.2566e-07
3.64455e-08
7.15739e-07
-7.40569e-07
2.48298e-08
-2.81044e-08
1.75369e-07
-1.25363e-07
-4.3986e-07
-3.19e-07
1.93637e-07
-9.765e-08
2.35276e-07
1.9705e-07
7.76899e-08
4.62711e-07
-3.2784e-07
-1.3487e-07
3.72358e-07
3.09881e-07
-3.45569e-07
-2.57498e-09
3.15931e-08
2.67645e-07
-2.99238e-07
5.93383e-07
-5.00095e-07
5.7273e-08
1.19893e-07
4.60578e-07
6.76062e-09
-4.67339e-07
5.77129e-07
-8.79522e-07
-3.78418e-09
4.35979e-07
-2.81138e-07
-1.5484e-07
-3.67007e-07
4.69935e-07
-1.02928e-07
2.2429e-08
-2.08415e-09
2.2429e-08
-5.15336e-07
4.58444e-07
5.68927e-08
4.57506e-07
1.41434e-07
-4.31168e-07
4.71791e-07
-4.06237e-08
-4.36729e-07
4.42852e-07
2.80342e-08
-9.07361e-09
-1.89606e-08
6.50884e-07
-1.93378e-07
2.05573e-08
-1.5421e-07
1.33653e-07
-4.72281e-07
6.40609e-07
-5.08646e-07
2.47754e-07
1.73859e-08
8.53072e-08
3.99513e-08
4.57605e-07
1.93279e-07
-3.63262e-07
4.73124e-07
-1.82246e-07
2.13839e-07
9.57033e-08
-5.47582e-08
3.87672e-08
-3.10324e-07
3.13846e-07
-3.10324e-07
-3.8908e-08
-8.20954e-08
4.58366e-07
3.74091e-07
-4.07283e-07
3.31921e-08
-3.96944e-07
3.79972e-07
1.97583e-07
-6.2274e-08
6.2274e-08
4.2654e-07
1.6312e-08
-1.2367e-07
1.14596e-07
4.53428e-07
7.81749e-08
3.6247e-07
1.16211e-08
3.00365e-07
-5.82318e-07
4.52703e-07
-8.10667e-08
-4.6619e-07
-5.57872e-07
1.14299e-07
4.43574e-07
1.22039e-07
-4.44426e-07
3.97502e-07
-4.3986e-07
-9.94288e-08
4.78552e-07
4.32501e-07
3.78495e-07
-3.82661e-08
3.50662e-07
-3.50662e-07
-1.3541e-07
-1.46841e-07
-4.01287e-07
-4.17788e-07
4.56556e-07
6.24474e-07
-6.03327e-07
-2.11473e-08
-2.3667e-07
6.94275e-07
-4.68019e-07
6.25814e-07
-1.73111e-07
1.45603e-08
2.12228e-07
-2.26788e-07
4.65878e-07
-6.42588e-07
1.7671e-07
-8.65048e-08
-2.45853e-08
-9.94358e-08
7.2391e-07
9.28636e-07
-6.80875e-07
-2.47761e-07
-4.44628e-08
4.44628e-08
1.70571e-07
-2.49871e-07
2.49871e-07
-1.13174e-07
3.95337e-07
1.13127e-07
-5.08465e-07
1.40256e-07
-1.40256e-07
-4.57712e-07
-1.38276e-07
1.38276e-07
6.62698e-07
-4.32436e-07
-2.30261e-07
1.72039e-07
-1.72039e-07
-4.40029e-09
6.62984e-07
-1.63535e-07
-4.99449e-07
6.90655e-07
3.46186e-07
1.00107e-07
-5.30566e-07
2.00325e-07
-3.1161e-07
5.85414e-07
3.43222e-07
6.67837e-07
-6.96753e-07
-7.38545e-07
5.76696e-08
4.87845e-09
4.73674e-07
-9.94336e-09
4.26028e-07
1.4337e-07
1.95926e-07
5.94862e-07
-8.1322e-08
3.24448e-08
-1.67855e-07
1.60466e-07
5.02518e-07
-5.5931e-07
5.92146e-08
5.85508e-07
-1.41934e-07
7.16394e-07
-2.90366e-07
4.85903e-07
2.08372e-07
-8.98989e-07
-4.78494e-07
-3.0975e-07
7.88244e-07
3.1116e-07
-1.79537e-07
-1.31623e-07
-5.21954e-07
1.10737e-06
-6.73794e-07
-6.6775e-08
4.95442e-08
3.28221e-07
-3.77766e-07
4.31886e-07
1.07832e-08
-4.07133e-07
-2.02727e-07
2.35172e-07
1.39498e-07
4.2969e-07
-5.93225e-07
-8.64229e-08
8.64229e-08
-5.96683e-07
-6.99037e-07
1.29572e-06
-7.61841e-07
2.32961e-08
4.79234e-07
4.92871e-07
-6.09849e-08
-5.78805e-07
1.31923e-06
-7.40423e-07
9.80915e-08
2.45982e-07
-3.32566e-07
-5.65349e-07
-1.96492e-07
2.57403e-07
4.58991e-07
2.87399e-07
-7.65893e-07
-1.11864e-06
1.41312e-07
-1.38188e-07
-3.12355e-09
7.43306e-07
3.13268e-07
-6.89554e-07
3.76286e-07
-1.8016e-07
7.34768e-07
-5.54607e-07
4.14207e-07
4.12397e-07
5.04715e-07
-7.78409e-07
9.26509e-07
-1.481e-07
-4.75609e-07
1.13459e-07
-4.95989e-07
3.8253e-07
7.72259e-07
1.37756e-07
3.32428e-08
-1.70999e-07
-1.27784e-06
-1.28937e-06
6.34911e-07
6.54458e-07
-8.11245e-08
4.76462e-07
-5.67787e-08
3.57609e-07
-3.31826e-08
3.31826e-08
6.98602e-07
6.20625e-07
6.26289e-07
1.70339e-07
-7.96628e-07
-8.43623e-08
-1.18365e-07
5.63422e-07
1.79884e-07
-7.13594e-07
7.3689e-07
-5.90768e-07
-8.77605e-07
6.7525e-07
2.02355e-07
7.19507e-08
-1.70858e-07
-7.06747e-07
-2.77051e-07
-9.66401e-07
1.87992e-07
-6.12442e-07
1.39082e-06
-7.78382e-07
7.54873e-07
2.61308e-07
-1.01618e-06
-9.07229e-07
6.59468e-07
-2.11528e-07
-1.04523e-06
4.59168e-07
5.86058e-07
8.361e-07
-3.77846e-07
-4.58255e-07
-7.70332e-07
5.67379e-08
7.55651e-07
2.54771e-07
-8.42758e-07
4.16037e-07
4.26721e-07
-4.18937e-07
-1.41086e-06
7.98418e-07
-3.81556e-07
6.68955e-07
-1.2704e-07
-2.0691e-07
4.89291e-07
6.91784e-07
-1.18107e-06
9.97207e-07
-5.8117e-07
4.01872e-07
5.95335e-07
4.00024e-07
-5.38385e-08
2.43859e-07
1.55909e-06
-8.47686e-07
-7.11404e-07
1.08257e-06
-6.80698e-07
4.9515e-07
5.8742e-07
-1.09096e-06
3.11316e-07
7.79648e-07
1.06978e-06
-6.86703e-07
-3.83078e-07
3.5857e-07
-4.31394e-07
7.28234e-08
6.74249e-07
-1.66183e-07
-4.27042e-07
1.27849e-06
-7.89204e-07
-6.17886e-07
8.79194e-07
-1.18536e-06
5.17654e-07
6.67709e-07
-1.37418e-07
1.38427e-07
5.2975e-07
-6.68177e-07
-3.52004e-07
-2.57611e-08
2.63666e-07
-5.33998e-07
2.70332e-07
9.32157e-07
6.26933e-07
-7.5277e-07
1.78589e-07
5.74181e-07
5.38072e-07
1.54247e-07
-6.32128e-07
4.77881e-07
5.10057e-07
8.65984e-07
-1.37604e-06
-5.50452e-07
-6.77871e-07
6.10959e-07
6.69113e-08
-2.92967e-07
-4.36506e-07
-6.06334e-07
7.60582e-07
-4.77065e-07
-5.49647e-07
1.02671e-06
1.0128e-06
-7.56567e-07
-6.59788e-07
1.41636e-06
-4.9189e-07
7.62236e-07
-2.70346e-07
1.23363e-06
-5.61571e-07
-6.72061e-07
2.5486e-07
-8.72746e-07
-9.00803e-07
-1.87482e-07
7.17232e-07
1.50225e-07
5.69631e-07
-7.19856e-07
1.38112e-06
-5.15133e-07
-7.91408e-08
-6.50483e-07
7.29623e-07
9.79025e-07
-4.13317e-07
-1.7344e-07
-4.58689e-07
1.50747e-06
-7.09056e-07
1.42091e-07
7.0383e-07
-8.45922e-07
-5.59184e-07
-1.18686e-07
5.99411e-07
-2.99265e-07
-7.35493e-07
1.01502e-06
-2.79526e-07
3.83193e-08
3.12304e-07
-3.50623e-07
8.12565e-07
-2.17229e-07
4.02264e-08
-4.66168e-07
8.47606e-07
-3.81439e-07
-9.9657e-07
4.34999e-07
9.56082e-07
-8.13991e-07
1.33835e-06
-9.63532e-07
-3.74819e-07
-8.07662e-07
2.58015e-07
-5.79813e-07
-1.72957e-07
1.7972e-07
-1.7972e-07
-1.03462e-09
1.03462e-09
8.73952e-08
-8.73952e-08
-2.1046e-07
-2.08415e-09
-6.23052e-07
6.23052e-07
-2.46798e-07
2.46798e-07
1.88868e-07
-1.88868e-07
-1.2601e-07
-1.29624e-07
1.29624e-07
1.22592e-07
-1.14955e-07
1.14955e-07
4.71861e-08
-4.71861e-08
5.0569e-07
-5.0569e-07
-1.71708e-07
1.71708e-07
-1.49483e-07
9.383e-07
-7.88816e-07
-2.51417e-07
2.51417e-07
-2.83472e-07
2.83472e-07
1.92634e-07
1.01544e-06
-1.20807e-06
6.62804e-07
-1.17794e-06
1.14872e-06
1.19069e-07
8.47751e-07
1.31274e-07
3.36122e-07
-5.09562e-07
6.91712e-07
6.7942e-07
8.57236e-08
2.11675e-07
-2.97399e-07
6.03613e-07
-7.12637e-07
1.11034e-06
3.08474e-07
4.05037e-07
-7.13511e-07
-4.02004e-07
1.02739e-07
-1.07204e-06
2.9366e-07
-4.83622e-07
-3.89124e-07
4.79118e-07
-2.81826e-07
8.69246e-07
-6.78708e-07
-3.37473e-07
-6.14214e-07
5.35073e-07
5.91607e-07
-1.30424e-06
-8.24128e-07
-2.47914e-07
-3.60606e-07
-2.47364e-07
1.28999e-07
-4.62327e-07
3.43641e-07
5.26198e-07
-3.33766e-07
-3.72663e-07
5.2635e-07
-5.28015e-07
4.21846e-07
-3.84473e-07
6.42487e-07
-8.72692e-07
3.8907e-07
-4.80553e-07
5.18872e-07
-8.01733e-07
4.84204e-07
3.17528e-07
5.65026e-07
-9.79651e-08
-4.67061e-07
6.98268e-07
-8.57153e-07
4.79763e-07
3.7739e-07
-1.20056e-06
4.65071e-07
-1.43098e-06
4.82239e-07
9.48743e-07
5.98188e-07
2.49419e-07
-3.59588e-07
5.30739e-07
-1.48956e-06
5.26032e-07
-1.06783e-06
-1.40883e-06
5.83709e-07
8.25125e-07
3.141e-07
1.54275e-07
-9.68266e-07
-1.09691e-06
-1.11162e-07
7.58943e-08
-1.26151e-06
6.16624e-07
6.44887e-07
-4.37684e-07
5.56753e-07
-8.95693e-07
-2.82244e-07
1.14169e-06
-4.52355e-07
-9.40433e-08
8.44727e-08
-3.3034e-07
7.14568e-07
-3.84229e-07
-5.58591e-07
5.00223e-07
-2.3248e-08
2.34923e-07
-3.3828e-07
-7.20802e-07
-9.6591e-07
-4.62073e-07
-3.39659e-07
-5.26495e-07
1.14712e-06
9.30882e-07
-4.46678e-07
-1.00733e-06
-6.64141e-08
-2.68023e-07
3.34437e-07
-1.2563e-06
-8.82802e-07
-7.51914e-07
4.18147e-07
9.2358e-07
-8.38871e-07
-9.42632e-07
-1.20298e-07
1.1396e-06
-1.19069e-06
5.10904e-08
-3.57568e-07
7.04952e-07
6.41336e-07
1.02844e-06
-6.10227e-07
2.2867e-07
4.72827e-07
4.65473e-07
-4.50887e-07
-3.01634e-07
-5.79568e-07
8.81202e-07
9.37228e-08
3.74556e-07
-6.77802e-07
3.13505e-07
6.99299e-07
-2.24695e-07
7.24917e-07
4.95439e-07
3.38956e-07
-8.34395e-07
-9.16826e-09
3.39445e-07
-1.11739e-06
7.77943e-07
5.06965e-07
-7.3166e-07
-1.10066e-06
7.63186e-07
-9.82752e-07
6.44472e-07
-2.32404e-07
1.38361e-07
1.20823e-06
-1.88864e-07
-3.20699e-07
6.1519e-07
-5.51744e-07
-5.16088e-07
-1.55219e-08
1.04907e-07
-2.27858e-07
1.03771e-06
5.47235e-07
-1.55456e-06
-9.72039e-08
1.51386e-07
-5.4182e-08
-8.96386e-07
1.97724e-07
6.98662e-07
-1.99997e-07
-9.74021e-08
2.00482e-07
-6.62555e-07
-9.29616e-07
7.81516e-07
1.06015e-07
-1.75318e-07
6.9303e-08
1.12726e-07
-9.87418e-08
-1.00515e-06
7.9362e-07
-4.08517e-07
-6.92142e-07
6.37088e-07
-3.1956e-07
8.64609e-07
7.60323e-07
-3.1639e-07
-4.43933e-07
2.26414e-07
-1.06673e-06
1.78393e-07
-1.10658e-06
6.98064e-07
-4.61695e-07
-3.88861e-07
-2.85819e-07
7.70923e-07
-4.85104e-07
-1.04126e-06
-6.48091e-07
1.11356e-06
-2.41962e-07
3.89621e-07
-1.70932e-07
-1.01976e-06
1.32949e-07
-4.59277e-07
7.72781e-07
-8.72974e-07
6.13306e-07
2.59668e-07
-8.67286e-07
5.35879e-07
3.31407e-07
5.39838e-08
-6.04619e-07
6.89092e-07
-9.72932e-07
7.3097e-07
-8.79705e-07
5.3969e-07
1.74878e-07
8.77173e-07
4.78142e-07
-1.35531e-06
3.78007e-07
-5.18187e-07
-6.04426e-08
2.05963e-08
3.98464e-08
-7.05388e-07
-4.84376e-08
7.53826e-07
7.10614e-07
3.08225e-07
-2.14502e-07
5.54314e-07
-1.23212e-06
2.74868e-07
-8.06234e-08
2.14276e-07
8.43563e-07
4.97718e-08
-7.23565e-07
-8.93425e-10
-8.15246e-07
8.16139e-07
-1.35996e-07
4.82704e-07
-3.72263e-10
-4.82332e-07
-8.36906e-08
-3.52146e-07
7.26702e-07
-1.36234e-07
5.22044e-07
-3.8581e-07
-1.40735e-07
-4.86949e-07
-4.05649e-07
-2.2729e-07
6.32938e-07
-5.85754e-07
-2.84603e-08
5.14148e-07
-3.13666e-07
1.39032e-07
6.2155e-07
1.94272e-07
-2.48454e-07
-8.45344e-08
6.24224e-07
-3.01753e-07
-8.30574e-07
-2.86815e-07
-8.3409e-07
8.33196e-07
8.74501e-07
-9.29847e-08
2.97068e-08
-1.28449e-07
1.94588e-07
7.33766e-07
1.84958e-07
1.70001e-07
-3.54959e-07
4.05548e-07
-9.73231e-08
4.63087e-07
-8.15233e-07
-1.9809e-08
1.25824e-07
-4.54244e-07
-1.89165e-08
4.7316e-07
-7.98373e-07
-1.23115e-06
-6.91467e-07
-8.41094e-07
6.40368e-07
2.00727e-07
-2.5398e-07
-3.04891e-07
2.85082e-07
1.5086e-07
-1.70242e-07
1.93828e-08
-6.34192e-07
-1.75534e-07
8.74196e-07
-6.15274e-07
8.16001e-07
-3.23808e-07
-5.77171e-08
2.08577e-07
1.32389e-06
1.42441e-06
4.09969e-07
7.34006e-07
-8.70002e-07
-1.13719e-06
6.9051e-07
-6.59046e-07
1.03343e-07
-8.37109e-07
6.61575e-07
6.20216e-07
5.41606e-07
2.43257e-07
-3.7949e-07
-6.43667e-08
-5.69337e-07
-9.85223e-07
-1.99537e-08
-1.55365e-07
1.11427e-07
5.34331e-07
2.42205e-07
-7.76537e-07
-3.99998e-07
8.54616e-07
-4.54618e-07
6.0309e-07
-2.73125e-07
2.94754e-07
3.43761e-07
-3.44134e-07
4.06719e-07
-1.11964e-07
-3.60855e-07
-4.43233e-07
-3.75877e-07
8.1911e-07
-1.53525e-06
-3.25698e-07
8.61577e-07
-2.39468e-07
4.68139e-07
6.23887e-07
1.80884e-08
-6.41976e-07
3.18465e-07
3.14473e-07
-9.71527e-08
-7.19248e-08
1.69078e-07
-1.79831e-08
-4.7737e-07
4.95353e-07
-3.95046e-07
1.91278e-08
1.6583e-07
-2.37466e-07
8.61354e-07
-8.43231e-07
8.57698e-07
-2.37482e-07
5.16975e-07
-9.98705e-07
3.11231e-07
-7.96336e-07
-3.85894e-08
-4.38613e-07
1.99145e-07
5.16039e-07
9.00316e-07
-7.08556e-07
2.81514e-07
2.72989e-09
1.631e-07
5.32e-07
1.7128e-08
2.17795e-07
-2.70395e-07
4.76771e-07
3.25905e-07
7.00807e-07
5.75849e-07
-8.13332e-07
-5.01042e-07
1.87105e-08
-7.49383e-07
2.49933e-07
1.51756e-07
5.77867e-07
8.08568e-07
-4.77161e-07
3.02922e-07
-5.96657e-08
3.52657e-07
6.9189e-08
-1.25001e-07
2.17374e-07
1.89344e-07
1.90958e-07
4.06959e-07
2.34181e-07
-3.59181e-07
-2.67563e-08
4.73526e-08
2.99262e-08
8.18178e-08
-1.11744e-07
-8.21573e-07
4.67869e-07
3.53704e-07
-6.79848e-07
6.15481e-07
3.94806e-07
-7.14202e-09
-3.93954e-07
-3.14602e-07
-2.20486e-07
-5.31848e-07
2.30095e-07
-1.63254e-07
1.86886e-07
-4.14614e-07
7.93999e-07
4.96612e-07
1.45875e-07
4.39084e-07
-2.69083e-07
1.21857e-07
-5.55605e-07
3.18138e-07
-4.88772e-07
-1.22698e-08
-2.08519e-07
-5.8298e-08
1.68689e-07
-3.49498e-07
-5.72106e-07
-2.22757e-07
7.94862e-07
6.74353e-07
-6.24581e-07
8.22517e-07
-1.33327e-07
1.28442e-07
-2.67853e-08
-1.01657e-07
-1.52725e-06
5.42026e-07
2.08913e-07
-3.01828e-07
9.29147e-08
6.4606e-07
2.82932e-08
1.00452e-07
-1.97775e-07
5.61119e-07
-5.82573e-07
1.96763e-07
1.21685e-06
-4.67688e-07
-1.14885e-07
-5.4707e-07
-6.641e-07
-8.2497e-07
2.52864e-07
-4.32751e-07
6.05025e-07
-1.72274e-07
2.28678e-07
4.31083e-08
3.69785e-07
-3.01664e-07
-1.47601e-07
4.49265e-07
-3.71036e-07
6.34702e-07
4.20675e-08
-2.68856e-07
7.81789e-07
-5.31855e-07
4.03221e-07
6.99386e-08
1.23016e-07
-4.08312e-07
-5.59032e-07
7.19499e-07
1.91039e-07
-5.80352e-07
4.15283e-08
2.43554e-07
5.50325e-08
-3.21424e-07
2.58729e-07
-4.98162e-08
6.70889e-07
-4.72685e-07
6.22911e-07
5.2701e-08
-4.91533e-07
4.38832e-07
5.60947e-07
1.58552e-07
-1.32122e-07
1.6025e-07
-2.81284e-08
4.4475e-07
8.52291e-08
6.16345e-07
-3.7414e-07
-1.20754e-07
4.84787e-07
-3.64033e-07
7.15191e-07
-1.37324e-07
-8.13289e-07
8.30475e-07
4.94705e-07
-4.60321e-07
8.91768e-08
-4.21202e-08
6.55503e-07
-9.4556e-08
3.75627e-08
-6.62144e-07
6.75364e-07
-8.57421e-08
-5.89622e-07
2.62751e-07
-6.24264e-08
-5.70042e-07
6.45156e-07
-7.51135e-08
-5.02157e-07
6.34343e-07
-1.32187e-07
1.3234e-07
1.0391e-07
1.91066e-08
3.57515e-07
1.33815e-08
-3.44336e-07
-3.45218e-07
3.00251e-07
-6.05012e-07
-3.39407e-07
-2.98619e-07
-1.6798e-07
-1.86979e-07
4.03558e-07
-9.36148e-08
9.04913e-08
3.189e-07
-4.50324e-07
-1.32872e-07
5.83196e-07
2.145e-07
-1.20432e-07
-9.40682e-08
-6.90705e-07
-4.9037e-07
3.47262e-07
5.95147e-07
2.2737e-07
3.16838e-07
2.71686e-07
1.05322e-07
5.43598e-07
1.11905e-07
-1.30386e-07
-1.71442e-07
2.70988e-07
-2.44921e-07
-2.60677e-08
-4.35185e-07
4.57439e-07
-7.74671e-08
-4.49309e-07
3.29865e-07
4.04152e-07
-5.46086e-07
-2.0442e-07
4.90559e-08
-5.26602e-07
5.64165e-07
3.44632e-08
3.24391e-07
-2.40258e-08
-5.3137e-07
6.15791e-07
-8.4421e-08
-4.96258e-08
-5.01471e-07
6.08004e-07
-1.06533e-07
4.43353e-08
3.37554e-07
-3.81889e-07
4.38112e-07
-3.89223e-07
1.29331e-07
1.72958e-07
-3.02289e-07
-8.67909e-08
4.82015e-08
5.96299e-07
5.48164e-07
9.69923e-08
1.37365e-07
-1.46657e-07
9.29193e-09
5.74468e-07
-2.94059e-07
6.17894e-08
5.10557e-07
-2.71233e-07
-1.17991e-07
5.42906e-07
-3.23496e-08
4.79912e-07
-6.10356e-07
6.38649e-07
-5.56114e-07
2.9512e-08
7.66345e-08
-1.78393e-07
2.40183e-07
4.67793e-07
2.6936e-08
5.88855e-07
-1.76862e-07
3.97021e-08
-4.18253e-07
-5.32387e-07
4.32959e-07
2.08912e-07
3.44713e-07
1.31749e-07
-5.29178e-07
-7.32893e-08
1.2936e-07
1.818e-07
-2.58633e-08
4.95734e-07
-2.79409e-08
2.66696e-07
4.38947e-07
-9.42345e-08
9.17878e-09
2.57518e-07
-6.23046e-07
-9.44191e-08
7.17465e-07
-1.17518e-07
-6.7911e-07
-1.79044e-08
-6.40179e-07
-8.33863e-08
2.5195e-07
1.86997e-07
-5.02632e-07
9.4275e-08
4.08357e-07
-7.13468e-07
-8.28597e-09
-5.28339e-08
6.11199e-08
7.74801e-08
-1.69214e-07
-1.01795e-06
8.18474e-07
1.9948e-07
-1.34474e-07
-2.44225e-07
-4.01618e-07
5.35901e-07
-3.11826e-07
2.99806e-07
1.14406e-07
8.15205e-08
2.65039e-09
2.1185e-07
2.00627e-07
-1.38466e-07
2.87344e-07
-1.65565e-07
5.81286e-08
1.07436e-07
-7.4036e-07
3.72444e-07
3.67916e-07
2.3774e-07
5.81359e-09
-3.10433e-07
4.24908e-07
-3.96454e-07
-7.06432e-07
3.39728e-08
-6.01297e-07
-1.81131e-07
1.55665e-08
-2.60187e-07
-1.41431e-07
-6.2314e-08
4.30728e-08
1.92411e-08
-2.44161e-07
6.20047e-07
-5.3087e-07
-2.4227e-07
8.9777e-07
-7.10237e-07
1.11998e-07
-1.47164e-07
2.26491e-07
2.44976e-07
1.88115e-07
1.40637e-07
-4.54133e-08
3.38395e-07
-1.94955e-08
-6.22339e-07
7.14393e-07
-1.44762e-07
5.25628e-07
-6.38001e-08
-6.98349e-07
7.62149e-07
-1.21669e-07
7.03875e-07
-5.82207e-07
6.2884e-07
2.13634e-07
2.04653e-10
6.25644e-07
-3.83296e-07
1.23109e-07
-6.95164e-07
7.27924e-08
6.22372e-07
4.14238e-07
2.45939e-08
-5.97254e-08
1.74131e-07
1.45553e-07
-7.03309e-07
6.18888e-07
5.42273e-07
8.65665e-08
7.69613e-07
-7.79556e-07
-2.76647e-07
-1.06649e-07
6.50426e-07
5.44296e-08
1.59846e-07
1.41942e-07
3.29617e-07
1.78104e-07
2.67763e-07
-1.29036e-07
3.33655e-07
-2.88553e-08
-3.048e-07
-9.47736e-08
-6.11659e-07
2.11579e-07
-1.67244e-07
7.06239e-07
-6.09247e-07
7.16018e-07
-2.11928e-07
-5.0409e-07
3.24285e-07
1.53012e-07
3.9221e-08
-3.45087e-09
-3.57701e-08
-1.87841e-07
3.25959e-07
-5.86626e-07
6.84717e-07
-1.37516e-07
4.34474e-08
2.19452e-07
4.49503e-07
-6.65615e-07
7.2483e-07
6.5069e-07
-6.74474e-07
4.57245e-07
-5.97342e-07
-1.05967e-07
-3.47001e-07
5.45411e-07
-1.89608e-07
-7.94158e-08
2.69024e-07
1.88901e-07
6.09892e-07
-7.31561e-07
-2.41367e-07
2.15299e-07
1.91021e-08
-1.74157e-07
-3.40743e-07
-8.51159e-07
5.47264e-08
-8.68727e-07
-1.48429e-07
-7.11286e-07
1.21664e-07
3.05598e-07
-1.25434e-06
-9.45806e-08
1.7034e-07
1.73127e-07
6.17437e-08
2.87036e-07
1.37872e-07
-7.37257e-07
1.9449e-07
1.1042e-07
-1.14821e-07
2.00041e-07
5.94822e-07
1.65098e-07
3.65951e-07
7.40635e-08
5.43744e-07
3.09613e-07
2.52442e-07
5.35803e-07
-4.90421e-08
7.33427e-08
3.03423e-07
-6.80813e-07
-1.44393e-07
-5.57368e-07
2.1215e-07
-2.9628e-07
-7.15213e-07
-5.99381e-07
5.23402e-08
-1.31756e-07
1.38477e-07
1.2819e-07
1.89846e-07
1.5362e-07
1.90687e-07
-4.171e-07
6.00544e-07
4.03477e-07
6.35836e-08
-1.87227e-07
-1.70341e-07
6.09897e-07
-7.54659e-07
1.53992e-07
-7.53374e-07
-4.07572e-08
-5.41159e-08
7.79535e-07
9.66707e-08
7.61293e-08
-5.76738e-07
7.76779e-07
-1.84757e-07
-3.89293e-07
4.14868e-07
8.98472e-08
-4.92385e-07
6.09768e-07
-1.17384e-07
-4.77659e-08
2.73593e-07
-6.00666e-07
-4.22222e-07
2.29099e-07
-3.01024e-07
-6.88877e-07
7.98637e-07
-4.55798e-07
3.49149e-07
5.60421e-07
-5.98976e-08
-2.78833e-07
8.94872e-08
7.01945e-07
-7.88667e-07
1.24971e-06
-8.60094e-07
1.75424e-07
3.9539e-07
-5.15281e-07
-3.07029e-07
-3.09385e-07
-9.38791e-08
-3.83491e-07
8.04328e-08
9.23672e-08
-5.07919e-09
-3.53808e-07
1.17228e-06
-4.15045e-07
5.91755e-07
4.63206e-07
-2.34107e-07
-5.36863e-07
9.09307e-07
1.45377e-07
4.94526e-07
-1.76112e-07
3.08817e-07
-8.7551e-08
-1.69656e-07
-9.61503e-07
2.32001e-07
2.13866e-07
-3.34548e-07
5.46698e-07
-3.82497e-07
-1.97855e-07
-1.62915e-07
4.42679e-07
2.98533e-07
3.53095e-07
6.08413e-08
-1.04451e-06
3.10799e-07
-5.08458e-07
5.8125e-07
-4.43139e-07
7.91058e-08
2.24861e-07
-1.48387e-07
5.01481e-07
1.5838e-07
2.61337e-07
-6.54381e-07
7.62023e-07
-1.2981e-07
-2.03215e-08
6.76596e-07
9.63849e-07
1.26782e-07
4.43368e-07
7.3131e-08
-6.02337e-07
3.45823e-07
-3.12591e-07
3.87278e-09
-1.33683e-07
5.76528e-07
-2.03864e-07
-2.47022e-07
1.58968e-07
1.61164e-07
1.43859e-08
4.58492e-07
-2.17658e-07
6.15603e-08
6.28972e-08
5.9815e-09
2.63838e-08
-2.52609e-07
1.45914e-07
-8.15801e-09
6.16625e-07
8.06669e-08
1.14813e-06
-5.41789e-07
4.66109e-08
8.85476e-08
-7.92556e-08
-7.15356e-07
7.03492e-07
-2.08999e-08
1.91271e-07
-1.70371e-07
3.6226e-07
-1.26816e-07
-1.60308e-07
-1.9997e-07
-5.90894e-08
8.51514e-09
4.98092e-08
-3.02983e-07
2.88861e-07
-9.9517e-08
4.00867e-07
-2.30055e-07
9.94021e-08
-2.97288e-07
7.07257e-07
2.54974e-07
-1.27487e-08
1.36727e-08
3.5401e-07
1.65314e-07
-2.89772e-07
-7.61357e-08
1.48508e-07
-1.19773e-07
1.93447e-07
-7.36743e-08
5.82848e-07
-5.71875e-09
8.69758e-08
6.45199e-07
3.60821e-07
8.00726e-07
-2.79443e-08
4.97572e-07
6.50559e-07
-5.06696e-07
-5.54029e-07
-4.23728e-07
1.91883e-07
5.65715e-08
5.82848e-07
1.04569e-08
-1.95059e-07
-2.2276e-07
2.5033e-08
2.40229e-08
3.12817e-07
-2.00819e-07
-1.8044e-07
-6.52441e-07
2.04635e-07
-1.57665e-08
-2.36183e-07
-1.5234e-08
-6.87791e-07
6.47394e-08
1.02459e-07
-1.5064e-08
-6.87567e-08
-3.24991e-07
6.60403e-07
-1.47652e-07
-1.02459e-07
6.87567e-08
1.47652e-07
-1.80276e-08
6.76434e-07
-1.70745e-07
3.24991e-07
-6.60403e-07
2.04635e-07
-2.36183e-07
-6.87791e-07
6.76434e-07
2.56028e-07
-4.74516e-08
-2.14937e-07
4.18885e-07
2.39423e-07
-1.50791e-07
1.50791e-07
-2.14937e-07
-3.51711e-07
-2.74627e-07
2.08887e-07
4.1741e-07
-2.03544e-07
4.64422e-07
2.0101e-07
-3.47459e-07
3.4212e-07
-1.624e-07
-3.4212e-07
-1.6357e-07
-8.38141e-07
-5.65185e-07
9.03515e-08
-3.14269e-08
-6.75726e-08
4.66727e-08
-9.16325e-08
1.34601e-07
-4.71658e-08
9.38533e-08
-1.09574e-06
-1.99656e-07
-4.60859e-07
1.7972e-07
1.05956e-06
2.49071e-08
-5.02765e-07
-5.12646e-08
3.19338e-07
1.87924e-07
1.37455e-07
-3.38657e-08
-4.14764e-08
3.82513e-07
-3.22226e-07
-6.02867e-08
4.37985e-07
-8.39748e-08
5.2987e-08
-5.2987e-08
-2.26208e-07
-4.3805e-08
-4.89092e-07
2.82385e-08
-4.14931e-07
2.52531e-07
-1.43389e-08
3.96852e-07
4.82888e-07
-4.55573e-07
1.27732e-07
-7.68274e-07
7.37641e-07
-1.8926e-07
3.12893e-07
-2.72934e-07
1.61631e-07
-4.57025e-07
-1.1462e-07
-1.90626e-08
2.25308e-07
3.50811e-07
3.04343e-07
-9.38449e-08
-2.07753e-08
-4.13262e-08
-3.05461e-07
-4.36331e-08
6.19818e-07
-2.60816e-07
1.15881e-07
-1.15881e-07
-1.96457e-08
-1.60074e-07
1.96457e-08
5.76193e-08
-1.02082e-07
1.02082e-07
6.21165e-08
-2.63871e-08
-1.70758e-07
4.48159e-08
-1.9198e-07
-9.92829e-07
-9.83456e-08
1.50686e-07
-2.84198e-08
4.51624e-08
-3.46458e-07
-6.84542e-07
-8.41917e-08
2.85202e-07
-9.68979e-08
2.35442e-07
-2.16059e-07
-3.22481e-08
-1.41648e-07
4.2501e-07
-4.2501e-07
3.53141e-07
1.77633e-07
-1.22533e-07
-4.29776e-07
-1.65902e-07
2.75565e-08
1.38346e-07
1.84766e-07
1.25361e-08
5.33381e-08
-1.25019e-07
-3.465e-08
8.22909e-09
2.96186e-08
-1.18019e-07
-4.11525e-08
-9.06034e-08
-3.4877e-08
3.4877e-08
9.76874e-08
9.57601e-08
3.07029e-07
-1.16871e-07
-4.33923e-08
1.60263e-07
-1.27281e-07
2.69897e-08
-1.01424e-07
-3.04343e-07
1.08923e-07
1.01424e-07
-1.00313e-07
3.49477e-08
6.5365e-08
-1.18687e-07
3.19137e-10
5.35298e-08
4.73227e-09
-1.14277e-06
6.79232e-07
4.6354e-07
-3.38657e-08
-1.65896e-07
-7.36743e-08
1.65896e-07
6.13983e-08
1.2221e-08
-9.9772e-08
1.76502e-09
-2.50246e-08
-1.76502e-09
2.50246e-08
-4.4427e-08
4.4427e-08
-1.62453e-07
1.10905e-07
-3.38136e-07
-1.4945e-07
-3.98032e-07
-1.68991e-08
5.60541e-08
-5.50194e-08
5.50194e-08
-5.41789e-07
6.75601e-08
3.465e-08
-1.185e-07
2.09478e-08
-1.77633e-07
-7.86945e-08
-1.05634e-07
5.98533e-08
1.41866e-07
4.21532e-07
4.42574e-07
-4.70519e-07
-2.02249e-07
-5.45514e-08
-1.70758e-07
-1.0782e-07
-1.01503e-08
5.97193e-09
1.20723e-08
-4.64339e-08