/*--------------------------------*- C++ -*----------------------------------*\
  =========                 |
  \\      /  F ield         | OpenFOAM: The Open Source CFD Toolbox
   \\    /   O peration     | Website:  https://openfoam.org
    \\  /    A nd           | Version:  9
     \\/     M anipulation  |
\*---------------------------------------------------------------------------*/
FoamFile
{
    format      ascii;
    class       surfaceScalarField;
    location    "2.77";
    object      phi;
}
// * * * * * * * * * * * * * * * * * * * * * * * * * * * * * * * * * * * * * //

dimensions      [0 3 -1 0 0 0 0];

internalField   nonuniform List<scalar> 
1363
(
-5.09041e-07
3.36648e-07
1.72394e-07
2.17517e-07
-1.43453e-07
-7.4064e-08
7.6912e-07
-5.98599e-07
-1.70521e-07
-1.56504e-07
4.64892e-07
-3.08388e-07
7.12141e-07
5.69789e-08
4.70427e-07
6.51205e-08
-5.35548e-07
-9.20809e-08
9.20809e-08
6.80577e-07
-2.10149e-07
-2.93923e-07
3.03009e-07
-9.08597e-09
1.51051e-08
-3.09028e-07
-4.16613e-07
4.06191e-07
1.04215e-08
8.63568e-07
-8.50035e-07
-1.35325e-08
3.39839e-07
-4.96343e-07
-4.46616e-07
4.42004e-07
4.61227e-09
5.41939e-07
3.21628e-07
1.58701e-07
5.88161e-08
6.68525e-08
-2.26551e-07
1.59698e-07
-2.54608e-07
-2.54433e-07
2.40195e-07
-2.65283e-08
-2.13667e-07
-1.17061e-07
1.17061e-07
5.63798e-08
1.04728e-08
2.14323e-08
-8.71468e-07
-1.93721e-07
9.24231e-09
1.84479e-07
-5.39202e-08
2.51237e-07
-1.97317e-07
-1.67113e-07
-2.495e-07
2.40449e-07
-2.9437e-07
7.19138e-07
-6.84183e-07
-3.49541e-08
-2.30831e-07
3.71102e-08
-2.33986e-07
3.82773e-07
-1.48787e-07
-1.36659e-08
-3.58832e-07
3.72498e-07
-2.41629e-07
1.10627e-07
1.31002e-07
6.09742e-09
7.1304e-07
9.13327e-08
-3.25318e-07
5.63245e-08
-3.47218e-07
2.90894e-07
6.77159e-07
-6.08898e-07
-6.82613e-08
-1.23125e-07
2.32573e-07
-1.09448e-07
-4.3772e-07
1.11912e-08
4.26529e-07
3.01332e-07
-1.31793e-07
-1.69539e-07
-2.54965e-07
-1.82755e-07
5.59782e-08
1.95259e-07
6.20927e-07
-2.94958e-07
-3.25968e-07
3.57982e-07
-8.39961e-07
4.81978e-07
-3.90841e-08
9.50622e-08
-4.44637e-08
-4.76172e-08
4.51604e-08
4.69205e-08
3.17465e-07
-4.14433e-08
-2.76022e-07
-1.20412e-07
-1.31191e-08
1.33531e-07
1.75788e-07
-1.19464e-07
7.78893e-08
5.43037e-07
-1.53835e-07
-2.92781e-07
1.77335e-07
6.28601e-08
9.99725e-08
-9.07302e-08
-2.08731e-08
-1.02252e-07
2.83446e-07
-1.4316e-07
-1.40286e-07
4.11376e-07
-3.96271e-07
-3.39323e-07
-2.04956e-07
5.44278e-07
6.05617e-08
-6.05617e-08
3.36993e-10
4.11039e-07
-9.45465e-08
1.55108e-07
-5.19573e-08
7.47794e-07
-6.95837e-07
-2.08442e-07
1.94776e-07
7.37187e-07
-6.63565e-07
-7.36222e-08
-1.3863e-07
-2.08588e-07
-7.06031e-08
4.07251e-07
1.97576e-07
1.03756e-07
-1.83363e-07
4.1776e-08
1.41587e-07
5.30038e-08
4.84196e-08
-7.45883e-08
2.61686e-08
3.87293e-07
-7.26615e-07
2.72795e-07
-1.90237e-07
-8.25585e-08
-1.05714e-07
-3.77391e-08
-2.22621e-07
2.08553e-07
1.40686e-08
-3.19827e-07
3.19827e-07
-2.67416e-08
-3.3209e-07
1.93854e-07
8.95918e-08
-1.01575e-07
-1.54851e-08
1.51522e-07
-3.44617e-08
1.35943e-08
-1.77974e-07
-6.36549e-08
1.47131e-07
1.15703e-08
-4.62383e-08
1.37574e-07
-9.13355e-08
3.51077e-07
-3.50715e-07
1.78995e-08
3.32815e-07
-3.62319e-08
1.66016e-07
-1.2424e-07
-8.49817e-07
8.22587e-07
2.72299e-08
4.15719e-07
-4.67676e-07
1.95694e-07
2.32545e-07
-4.28239e-07
1.31097e-07
3.10906e-07
-1.71829e-07
-1.78886e-07
5.14084e-07
-1.56102e-07
2.77456e-07
-3.44637e-08
-2.42992e-07
-4.16846e-07
4.17183e-07
1.24831e-07
-3.29787e-07
5.08139e-07
3.6139e-08
-1.54171e-07
2.53109e-07
-9.89371e-08
-7.54374e-07
-8.55869e-08
-7.62091e-08
2.71903e-07
-2.26652e-07
1.80414e-07
-1.08657e-08
2.15569e-07
-1.38992e-08
-2.0167e-07
3.94546e-08
-4.563e-07
5.69233e-08
2.28331e-07
3.22728e-07
1.85411e-07
2.78552e-08
1.66921e-07
4.86406e-08
2.68825e-07
-7.64338e-09
3.47677e-07
-3.40034e-07
1.08794e-07
-6.03748e-08
1.62386e-08
-9.08269e-08
-2.86791e-07
6.74084e-07
-1.08889e-07
-6.17726e-07
4.41888e-07
-9.34298e-08
-1.29191e-07
1.19394e-07
2.86797e-07
2.77456e-07
-2.11161e-07
-5.14908e-07
7.2607e-07
3.86258e-07
7.86337e-08
-7.37407e-08
6.28751e-08
8.35713e-07
-8.89164e-07
5.34507e-08
-6.28751e-08
9.07302e-08
-1.48871e-07
-2.91167e-07
4.40037e-07
-3.90841e-08
-2.61011e-07
2.83595e-07
-1.7074e-07
-7.23454e-09
9.99725e-08
1.86395e-07
-9.50622e-08
-1.86395e-07
1.58361e-07
2.80336e-08
-2.08731e-08
-4.12312e-08
1.47029e-08
4.12312e-08
-1.09275e-07
6.80435e-08
-1.47028e-08
1.58375e-09
-1.26617e-07
3.02405e-07
1.26617e-07
-1.78223e-08
1.09275e-07
-1.50718e-07
3.1204e-07
-5.98831e-07
-1.58375e-09
1.78223e-08
-7.0772e-07
5.98831e-07
7.0772e-07
-6.29831e-07
-3.02405e-07
6.29831e-07
-3.27426e-07
1.50718e-07
-1.58361e-07
2.30727e-07
1.09286e-08
-1.81668e-07
5.85099e-07
9.5478e-08
-1.3006e-07
2.2483e-08
-2.1272e-07
6.48961e-08
1.43656e-07
3.45241e-07
-3.30238e-07
-1.50028e-08
-2.59852e-07
-5.89966e-07
-5.36939e-08
6.38793e-07
7.77781e-07
-8.16455e-07
3.86744e-08
5.48088e-07
-5.82552e-07
-1.68673e-07
2.09566e-07
-4.08931e-08
-6.53266e-07
4.43675e-08
1.07615e-08
-2.65726e-07
2.30825e-07
-6.48084e-08
-8.10903e-09
6.10779e-08
-5.29688e-08
2.32886e-07
-2.55747e-07
-1.30862e-08
2.43911e-07
2.50028e-07
-2.39266e-07
-4.87224e-07
1.78836e-07
8.1167e-07
-6.64972e-08
-7.45173e-07
8.50966e-07
-7.31853e-08
1.12442e-08
-4.31229e-07
4.19985e-07
9.73692e-08
1.182e-07
3.31341e-07
-1.0301e-07
7.16553e-08
4.27041e-08
-1.79839e-07
-7.46886e-08
5.25213e-07
-6.39108e-08
1.48272e-07
6.74316e-07
-3.79007e-07
2.9384e-07
8.5167e-08
4.69129e-08
2.06196e-07
-1.42904e-07
-2.36103e-07
-6.6031e-09
1.31435e-07
-4.34696e-07
3.24876e-07
1.0982e-07
-1.87606e-07
1.89337e-08
2.41196e-07
1.41577e-07
3.56432e-07
-1.40856e-07
-2.8135e-07
2.21017e-07
-5.99048e-07
3.90668e-07
2.0838e-07
-4.22883e-07
1.57761e-08
4.07107e-07
6.12234e-07
-8.72085e-07
4.48997e-07
-1.24121e-07
8.76038e-07
-7.59326e-07
-1.16712e-07
3.4398e-07
1.05017e-07
-3.01895e-07
2.37984e-07
-3.60828e-08
1.67085e-07
-9.58381e-09
-4.13299e-07
5.19761e-07
-1.79922e-07
4.42204e-07
-4.33876e-07
-8.32723e-09
3.65318e-08
-3.3149e-07
4.25463e-08
-4.25463e-08
-7.37407e-08
2.0345e-07
3.16312e-07
-8.00468e-08
7.0463e-08
-1.54896e-07
2.73431e-07
-4.04476e-07
5.61352e-07
-6.78031e-07
6.93807e-07
3.46223e-09
2.89043e-08
-2.44982e-07
4.48432e-07
-2.09579e-07
4.12818e-07
-2.0324e-07
-8.87985e-07
8.14363e-07
-6.91182e-08
-2.06841e-07
4.9401e-07
-2.87169e-07
-2.49979e-07
8.62213e-07
8.88139e-07
-5.58111e-07
-3.30028e-07
-4.9674e-07
6.28635e-08
-4.64223e-07
-3.25173e-08
-3.43497e-07
4.83212e-07
-1.39715e-07
3.11965e-07
-5.18806e-07
-1.02907e-07
4.46887e-07
4.6721e-07
-2.54233e-07
-2.12977e-07
7.51465e-08
-7.51465e-08
3.94519e-07
-3.94519e-07
-8.25274e-08
-8.05458e-07
-3.63047e-07
4.65807e-07
-1.0276e-07
2.097e-07
1.04905e-07
-3.14605e-07
-1.06866e-07
3.27884e-07
-6.97823e-07
1.97915e-08
3.35418e-07
-3.35418e-07
-5.04548e-08
5.04548e-08
1.50513e-07
2.00078e-07
-4.4506e-07
6.60159e-07
2.2798e-07
1.20165e-07
1.73618e-07
-5.88797e-07
1.24574e-07
-4.83892e-07
1.40686e-07
1.90655e-07
-9.30637e-08
-3.75288e-07
4.68352e-07
3.16573e-07
-2.31406e-07
-2.66648e-07
3.76468e-07
-7.74454e-08
-3.72743e-07
-6.79467e-08
4.4069e-07
1.80041e-07
1.411e-07
7.93511e-07
-1.98103e-08
-3.84665e-07
1.4224e-07
-9.01566e-07
-2.9391e-07
3.98926e-07
1.94199e-07
-4.78195e-07
8.08776e-08
3.6601e-07
-5.6766e-07
-3.63902e-07
9.31562e-07
4.99247e-08
-4.84358e-07
3.44643e-07
3.79922e-07
-9.47582e-07
-8.73719e-07
-2.95916e-07
3.76794e-07
-4.02464e-07
3.34517e-07
5.5603e-08
3.85971e-07
-4.41574e-07
6.02182e-08
3.61844e-07
7.88459e-08
5.22919e-07
-1.61075e-07
-8.19805e-07
8.68988e-07
-4.91833e-08
-3.45779e-07
-5.75229e-08
8.71886e-07
-6.68918e-07
-4.69648e-07
8.4957e-07
-4.6248e-07
9.65108e-08
3.6597e-07
-7.86793e-07
6.70081e-07
-2.27972e-09
1.02252e-07
-2.46753e-08
2.57248e-07
1.89658e-07
-1.91937e-07
-3.3313e-07
-1.2935e-07
5.08179e-07
-2.94567e-07
-2.13612e-07
-7.01226e-07
9.34112e-07
-5.42797e-08
3.98314e-07
-3.44034e-07
-4.48381e-07
3.94102e-07
3.22369e-07
5.44254e-08
3.77972e-07
3.39545e-07
1.68634e-07
3.61885e-07
-7.07664e-07
-8.63961e-07
3.94313e-07
5.68932e-07
6.57828e-08
-6.34715e-07
-2.58981e-07
3.55492e-07
5.99231e-08
7.5314e-08
-1.35237e-07
8.66288e-07
-9.12969e-07
4.66807e-08
1.65061e-07
-4.55442e-08
-8.67424e-07
3.6788e-07
5.66232e-07
3.94043e-07
4.23653e-07
-8.17697e-07
6.51833e-08
-7.83212e-07
-5.00025e-07
1.28324e-06
-6.60851e-07
-3.19359e-07
9.8021e-07
-2.78217e-07
6.72261e-07
3.92787e-07
7.55643e-08
-5.34513e-07
2.80493e-07
2.5402e-07
1.86672e-07
-1.86672e-07
-1.54851e-08
-2.42992e-07
-4.76172e-08
-7.99771e-08
7.99771e-08
-3.97971e-07
3.97971e-07
-2.61011e-07
9.98384e-07
-2.99011e-07
-6.99373e-07
-1.18649e-07
1.18649e-07
-8.41873e-08
8.41873e-08
-9.45465e-08
4.76992e-08
-4.76992e-08
-2.90532e-07
2.90532e-07
1.51522e-07
1.52537e-07
-1.52537e-07
4.51604e-08
2.83595e-07
-1.78193e-07
5.40079e-07
3.75698e-07
5.23236e-07
-8.98935e-07
9.25452e-08
-9.25452e-08
8.58109e-07
-2.89176e-07
-4.46608e-07
9.28586e-07
2.37839e-07
-2.37839e-07
-3.20717e-07
2.61497e-08
6.26136e-07
-4.09753e-07
-2.16383e-07
3.05332e-07
-9.26067e-07
6.20735e-07
-1.25752e-06
4.74313e-07
-5.09632e-07
8.14964e-07
-2.56269e-07
-6.44479e-08
-7.79661e-07
1.18811e-07
1.53413e-08
1.80962e-07
-1.96303e-07
7.52645e-08
-3.1204e-07
1.23417e-07
-4.01635e-07
-2.26192e-07
-2.822e-07
5.08392e-07
-2.04287e-08
1.81005e-07
-2.8183e-07
1.00825e-07
-5.97609e-07
9.65488e-07
1.01464e-07
-5.14084e-07
1.00282e-06
-4.88734e-07
5.51776e-07
-6.24102e-08
8.81714e-07
-7.16653e-07
7.76861e-07
-8.22405e-07
5.59098e-07
6.62628e-07
-9.71146e-07
3.08518e-07
1.58412e-07
2.25498e-08
-6.0954e-07
9.9908e-08
-5.3187e-07
9.55523e-07
3.36959e-07
-2.05048e-07
-6.34208e-07
8.39257e-07
5.1543e-07
-7.41622e-07
6.46922e-07
-1.14695e-06
5.94763e-07
3.67381e-07
-9.62143e-07
1.77809e-07
3.76364e-07
-5.54173e-07
1.13166e-07
8.35373e-07
-1.15473e-06
-5.49348e-07
2.84788e-07
2.6456e-07
7.12049e-07
-1.10976e-06
3.97709e-07
7.89454e-07
-5.08961e-07
-4.43989e-07
1.61789e-07
6.5752e-07
6.9197e-07
2.36616e-07
-4.67212e-07
5.68037e-07
2.84106e-07
4.51404e-07
5.22389e-07
-4.09223e-07
6.0208e-08
-1.59777e-07
-4.22151e-07
8.77488e-07
-6.99679e-07
4.70948e-07
-3.24224e-07
6.04815e-07
-2.41844e-07
-2.31874e-07
4.73718e-07
1.65108e-07
8.05538e-07
-9.70647e-07
1.12714e-06
-4.1509e-07
1.06534e-06
-5.13561e-07
-1.72984e-07
-5.14996e-07
9.79211e-09
-5.78452e-07
5.14004e-07
-8.02101e-08
3.21315e-07
6.71541e-07
8.68474e-07
-5.83686e-07
-7.0931e-07
1.07669e-06
-7.64111e-07
-3.82835e-07
-9.41257e-07
-2.13475e-07
3.83958e-07
1.38431e-07
7.20918e-07
-9.52041e-07
2.03427e-08
9.31698e-07
-7.07957e-07
4.94345e-07
-7.15425e-07
-8.25881e-07
-1.36262e-07
-8.9393e-07
3.84969e-07
7.69923e-07
-4.47224e-07
-4.78843e-07
-9.31465e-07
-1.18626e-06
-1.04149e-08
4.09455e-07
7.98778e-07
-3.13138e-07
-4.85639e-07
1.2457e-08
-2.54301e-07
1.4882e-07
-3.21804e-07
4.74554e-07
5.45012e-07
-2.80452e-07
7.94011e-08
6.32166e-07
-7.11567e-07
-5.63542e-07
6.2375e-07
-3.49912e-07
-2.22389e-07
1.14857e-06
-4.32546e-07
8.8395e-07
2.12198e-07
2.6152e-07
5.32532e-07
1.00758e-07
7.38499e-07
-8.05673e-07
-3.34746e-09
8.0902e-07
9.60785e-07
-4.01687e-07
9.01053e-07
-5.79738e-07
-6.28819e-07
6.8285e-07
-5.40309e-08
4.88856e-07
-7.04915e-07
-1.93953e-07
7.28084e-07
3.9954e-08
-1.14018e-07
3.19231e-07
-6.86751e-07
5.26974e-07
-4.71134e-07
7.5524e-07
1.79097e-07
1.96138e-07
-6.66324e-07
4.03116e-07
2.63209e-07
-2.4357e-07
-3.65672e-08
-5.77408e-07
9.40403e-07
-3.62994e-07
1.52615e-07
-3.22695e-07
-2.39919e-07
5.62614e-07
-8.92461e-07
-2.93801e-07
8.25346e-07
-3.31001e-07
-4.88263e-07
1.04657e-06
-6.616e-07
-3.64712e-07
-3.76909e-07
-1.10594e-06
-3.2678e-07
4.71633e-07
4.98566e-07
-4.73502e-07
9.4445e-07
-9.08409e-07
1.15103e-07
6.42436e-07
-8.36388e-07
4.10447e-07
4.1964e-07
5.20763e-07
-4.9966e-07
9.28311e-07
-4.28651e-07
1.08304e-07
7.00717e-07
-8.62655e-07
-4.24346e-07
-2.65973e-07
2.9146e-07
7.22414e-07
-4.03182e-07
1.56699e-07
5.26151e-07
9.18206e-07
-4.98286e-07
-4.32113e-07
9.30399e-07
-3.07388e-07
-1.36601e-07
-8.70083e-07
5.06181e-07
6.84297e-07
-2.7385e-07
-1.89246e-07
2.292e-07
2.41447e-07
-5.62233e-07
3.20787e-07
-4.98227e-08
-6.41953e-08
1.26368e-06
4.30654e-07
4.87551e-07
-4.46569e-07
-4.52366e-07
8.3377e-07
4.0155e-07
5.26761e-07
-9.51532e-07
5.04964e-07
-9.50652e-07
-4.29164e-07
3.6939e-07
-1.27943e-07
-1.57739e-07
-2.76549e-07
-4.63101e-07
-3.26372e-07
3.62939e-07
-1.01419e-07
-8.57416e-07
5.91442e-07
-3.6403e-07
-5.06053e-07
2.88763e-07
-2.71212e-07
-6.62218e-07
4.01657e-07
-2.85327e-07
7.91508e-07
5.58981e-08
4.32008e-09
-4.59212e-07
-4.9232e-07
-7.31479e-07
9.34756e-08
3.13775e-07
9.22313e-07
-2.99024e-07
3.39378e-08
2.34983e-07
1.34407e-07
-2.58707e-07
7.22444e-07
4.51752e-07
-3.08069e-07
-1.43683e-07
1.93045e-07
3.58414e-07
-2.07522e-07
8.493e-07
-6.41778e-07
5.93397e-07
8.57536e-07
-6.40257e-08
-6.91415e-07
7.85807e-07
-2.59656e-07
8.00013e-07
5.14595e-07
6.01534e-07
-3.5803e-07
4.9837e-07
2.93139e-07
-7.14484e-07
-1.87082e-07
5.0373e-08
-4.60529e-08
1.89736e-07
-5.53288e-08
2.2947e-07
-9.13054e-07
1.9857e-07
1.96179e-07
2.1664e-07
4.72493e-07
-2.92453e-07
7.32944e-07
-2.52895e-07
-8.94673e-07
8.36656e-07
-6.38086e-07
-1.05177e-07
-3.38432e-07
3.67646e-07
-2.92132e-08
-6.75702e-07
-8.95034e-08
2.08654e-07
2.28146e-07
-4.8215e-07
-3.31637e-07
-3.64385e-08
-3.57733e-07
3.96257e-07
-4.31645e-07
2.65357e-07
2.09843e-07
-2.08731e-08
-1.301e-08
4.60247e-08
1.10637e-07
1.71401e-07
1.88599e-07
1.58634e-07
1.48773e-07
-4.9119e-07
4.41772e-07
4.94185e-08
-7.22646e-07
-2.63328e-07
4.35356e-07
-2.41158e-07
1.30466e-07
1.14334e-07
1.54467e-07
7.46761e-08
-7.06204e-07
-3.35598e-07
1.36645e-07
1.08155e-07
-1.26107e-07
7.07784e-08
1.55099e-07
1.03362e-07
-3.78606e-07
3.79262e-08
1.84536e-08
-8.12149e-07
3.30147e-08
2.69271e-07
-3.37912e-07
-1.53278e-07
1.54044e-07
-1.18372e-06
2.94557e-07
-5.2625e-08
4.38119e-07
3.01867e-07
3.03239e-07
-9.3958e-08
-9.69532e-07
-1.373e-07
-8.2126e-07
9.52086e-08
-6.28576e-09
-1.36874e-07
2.21664e-08
-1.5396e-07
-2.28334e-07
-1.10463e-07
4.99011e-08
8.6927e-08
-1.80885e-07
-4.31486e-07
-3.35359e-07
-6.71049e-08
1.42022e-07
-1.79407e-07
7.36929e-08
-3.01604e-07
-3.89414e-07
1.53311e-07
2.69229e-07
-1.07845e-07
-8.54098e-08
1.93254e-07
-2.51342e-08
-6.47515e-07
5.24653e-08
-2.21835e-07
-6.49632e-07
-5.59747e-07
-2.51342e-08
-2.34315e-07
8.61906e-08
-4.82644e-08
2.51923e-07
-1.87617e-07
3.76539e-07
3.49531e-07
4.97923e-08
-3.38556e-07
2.01955e-07
8.36932e-07
-7.08047e-08
-4.03532e-07
2.1459e-07
1.88942e-07
-1.72383e-07
-2.21867e-07
-2.14933e-07
-4.56889e-07
-1.62795e-07
-5.84335e-07
4.45705e-07
9.64197e-07
7.8496e-07
-7.19177e-07
4.33257e-07
-3.87376e-08
-2.22509e-07
-3.88422e-07
6.4354e-08
1.07925e-08
3.88422e-07
-6.4354e-08
2.37261e-07
4.33257e-07
2.07799e-07
-3.68808e-07
4.87619e-07
7.74011e-07
-5.4603e-07
2.10146e-07
-9.11735e-08
-2.74754e-08
8.65612e-08
5.98396e-09
-6.20775e-08
3.14277e-08
-1.87075e-07
-5.59168e-08
-9.11735e-08
8.21236e-08
-2.14659e-09
-3.98438e-07
4.67133e-10
1.29893e-07
-6.40941e-08
-2.00932e-08
6.20775e-08
-1.43783e-08
-3.14277e-08
-1.62715e-08
1.87075e-07
-3.45381e-08
-1.29893e-07
-2.26443e-08
6.40941e-08
-8.21236e-08
8.65612e-08
-3.98438e-07
-7.63004e-07
-6.46155e-07
-5.09213e-08
-3.9467e-07
6.8613e-07
1.74135e-07
-2.44939e-07
1.32328e-07
3.0296e-07
1.35924e-07
7.87749e-07
-5.95764e-07
4.78256e-08
-4.46628e-07
3.0296e-07
1.11937e-07
-2.80571e-07
2.07099e-07
-1.39055e-07
7.16229e-07
3.57029e-07
4.09417e-08
-3.57029e-07
-1.89473e-07
2.2717e-07
-3.76977e-08
-7.09409e-07
-6.56826e-09
1.96602e-07
-3.67123e-07
3.93426e-07
9.15763e-07
-4.27029e-07
-4.56578e-07
4.02547e-07
4.15362e-07
-1.51161e-07
3.21824e-07
-6.62986e-09
-2.20022e-07
3.64137e-07
2.08339e-07
-4.60486e-07
4.60486e-07
-3.4383e-07
-2.65611e-07
-2.83646e-07
3.21824e-07
2.5068e-07
-6.49156e-07
2.81536e-07
-1.47798e-07
-2.83431e-07
2.90842e-07
-1.03905e-08
5.20232e-07
-8.2875e-07
-1.59355e-07
1.59355e-07
-4.17528e-08
-2.28154e-07
-5.15744e-08
5.15744e-08
-4.8832e-08
4.8832e-08
-2.47046e-07
3.96256e-08
6.21979e-08
-2.93452e-07
5.35697e-07
-2.42245e-07
4.11677e-07
-4.11677e-07
1.37574e-07
1.41661e-07
2.78324e-07
6.10779e-08
-6.28703e-07
2.38474e-07
-3.22787e-08
2.22203e-07
-3.87527e-07
-6.36061e-07
3.11854e-08
1.92694e-08
-1.54449e-07
-4.72211e-08
-1.55335e-07
1.17596e-07
-8.10746e-09
-1.47228e-07
-7.71197e-07
-4.09525e-08
-3.50024e-07
-1.85524e-07
-5.35974e-07
1.41304e-07
-1.10463e-07
8.11689e-08
2.51646e-07
8.43368e-08
-1.46386e-07
-1.37253e-07
1.37253e-07
1.05376e-07
2.50116e-07
-5.02545e-07
-9.13355e-08
-1.43415e-07
1.43415e-07
-7.14218e-07
1.2191e-07
1.05583e-08
2.24564e-08
-1.14788e-07
-6.12287e-07
4.13107e-07
1.99181e-07
-3.06282e-07
9.42701e-08
2.12012e-07
-5.29688e-08
-4.2457e-07
1.82004e-07
-1.71446e-07
-2.0316e-07
-4.68138e-08
4.68138e-08
1.62953e-07
3.93523e-08
-4.59554e-08
-2.51617e-07
-4.67559e-07
-2.90255e-08
7.31019e-08
4.43862e-08
-1.4333e-07
-2.70801e-07
-3.41487e-07
-2.02872e-07
2.1598e-07
2.20036e-08
-6.05129e-09
-1.56744e-07
-8.73984e-08
1.25941e-07
-3.21271e-07
9.29363e-08
-3.11854e-08
6.3926e-07
-1.00266e-07
2.53091e-07
1.0958e-07
5.29679e-07
6.36569e-09
2.46725e-07
5.79967e-07
3.35779e-07
3.16845e-07
1.60744e-07
2.0181e-07
9.31333e-09
-2.75039e-07
2.68674e-07
2.85789e-07
-9.47625e-08
1.31462e-07
-6.09989e-08
-2.8939e-08
2.38125e-07
-2.04187e-07
6.89548e-07
7.14812e-09
-6.83263e-07
-3.99841e-08
2.00428e-07
1.37469e-07
-2.11545e-07
2.90178e-07
1.401e-07
-2.45081e-07
-7.45867e-09
3.96983e-07
-2.55679e-07
3.62445e-07
1.46132e-07
1.52541e-07
-6.81377e-08
2.10696e-08
-7.23126e-07
1.92741e-08
-1.85485e-07
1.74552e-07
4.88097e-08
1.48397e-07
5.70621e-07
-1.93264e-07
1.2977e-07
-1.81881e-07
2.74818e-07
6.15499e-09
-6.53219e-09
)
;

boundaryField
{
    back
    {
        type            empty;
        value           nonuniform List<scalar> 0();
    }
    front
    {
        type            empty;
        value           nonuniform List<scalar> 0();
    }
    top
    {
        type            calculated;
        value           nonuniform List<scalar> 10(-4.368e-07 -4.752e-07 -3.6e-07 -2.448e-07 -2.448e-07 -3.6e-07 -4.368e-07 -9.12e-08 -9.12e-08 -4.752e-07);
    }
    outer_arc
    {
        type            calculated;
        value           uniform 0;
    }
    bottom
    {
        type            calculated;
        value           nonuniform List<scalar> 10(7.65206e-07 3.94172e-07 3.38831e-08 -1.56661e-07 -3.07406e-07 9.85973e-07 -2.29143e-07 1.0418e-06 -1.1103e-07 7.99204e-07);
    }
    inner_arc
    {
        type            calculated;
        value           uniform 0;
    }
}


// ************************************************************************* //
