/*--------------------------------*- C++ -*----------------------------------*\
  =========                 |
  \\      /  F ield         | OpenFOAM: The Open Source CFD Toolbox
   \\    /   O peration     | Website:  https://openfoam.org
    \\  /    A nd           | Version:  9
     \\/     M anipulation  |
\*---------------------------------------------------------------------------*/
FoamFile
{
    format      ascii;
    class       volScalarField;
    location    "1.65";
    object      p;
}
// * * * * * * * * * * * * * * * * * * * * * * * * * * * * * * * * * * * * * //

dimensions      [0 2 -2 0 0 0 0];

internalField   nonuniform List<scalar> 
1655
(
12.0587
12.0677
12.0532
12.0496
12.0624
12.0606
12.0532
12.0533
12.0369
12.0624
12.0526
12.0534
12.0549
12.059
12.0457
12.0573
12.0467
12.0371
12.0587
12.0589
12.0551
12.0367
12.0606
12.0611
12.0571
12.0515
12.0569
12.0422
12.0442
12.0532
12.0505
12.0529
12.0572
12.0519
12.0382
12.0519
12.0607
12.0665
12.0574
12.0687
12.0553
12.0618
12.0581
12.0575
12.0605
12.0496
12.0495
12.0604
12.0617
12.0582
12.0604
12.0536
12.0445
12.0398
12.0362
12.048
12.0561
12.0526
12.0495
12.048
12.0506
12.0596
12.0592
12.0524
12.0557
12.0518
12.0523
12.051
12.0383
12.0621
12.0516
12.0529
12.0536
12.0423
12.052
12.0576
12.046
12.0396
12.0559
12.0534
12.0551
12.0583
12.0354
12.0572
12.0532
12.0478
12.0523
12.054
12.0673
12.0495
12.0504
12.053
12.0584
12.0616
12.0576
12.0589
12.0527
12.0498
12.0529
12.0547
12.0528
12.054
12.062
12.0546
12.0352
12.0597
12.0507
12.0533
12.0547
12.05
12.056
12.0548
12.0509
12.0533
12.0541
12.0493
12.0525
12.0494
12.0658
12.0357
12.0517
12.0525
12.0515
12.051
12.0533
12.0574
12.0585
12.0572
12.0574
12.0535
12.0609
12.0558
12.0526
12.0584
12.0537
12.0694
12.0624
12.043
12.0557
12.0515
12.0457
12.057
12.0572
12.0545
12.043
12.0522
12.0555
12.0515
12.0546
12.0456
12.0483
12.043
12.0509
12.0499
12.0471
12.0586
12.0559
12.0538
12.0524
12.0548
12.0551
12.0578
12.04
12.0537
12.0547
12.05
12.0421
12.0561
12.0538
12.0393
12.0441
12.0389
12.0541
12.0463
12.0533
12.0483
12.0613
12.0411
12.0534
12.0591
12.0481
12.0392
12.0602
12.051
12.0643
12.0536
12.059
12.0536
12.0394
12.042
12.0621
12.0594
12.0429
12.0537
12.0536
12.0535
12.0401
12.0537
12.0685
12.0433
12.0502
12.0504
12.0515
12.0523
12.0533
12.0557
12.0568
12.0454
12.0536
12.052
12.0532
12.0535
12.0683
12.0562
12.0591
12.0511
12.0525
12.0616
12.0529
12.0466
12.0598
12.0545
12.0573
12.0502
12.0569
12.0533
12.0528
12.0523
12.0512
12.0489
12.0571
12.039
12.0342
12.0415
12.0564
12.0568
12.0537
12.0488
12.053
12.0196
12.0461
12.0643
12.0164
12.0539
12.0519
12.0542
12.0459
12.0418
12.0534
12.048
12.0578
12.0537
12.0569
12.0532
12.0564
12.0528
12.0543
12.0534
12.0407
12.0576
12.0552
12.0534
12.0522
12.0532
12.0562
12.0558
12.0575
12.059
12.0566
12.059
12.0438
12.0425
12.0626
12.0536
12.0424
12.0447
12.0448
12.0544
12.0366
12.0423
12.0386
12.0571
12.0453
12.0428
12.0433
12.046
12.044
12.0558
12.057
12.0412
12.0445
12.0549
12.0581
12.0405
12.0497
12.0553
12.0525
12.0518
12.0547
12.0538
12.0554
12.0617
12.0615
12.0547
12.0512
12.0376
12.055
12.0535
12.0531
12.0508
12.0488
12.0426
12.0535
12.0494
12.0542
12.0524
12.0551
12.0378
12.0499
12.0547
12.0418
12.0582
12.0558
12.0552
12.0554
12.05
12.0504
12.0559
12.054
12.0574
12.0566
12.0475
12.0587
12.0535
12.0521
12.0527
12.058
12.0576
12.0518
12.05
12.0551
12.0535
12.0441
12.0467
12.0439
12.0544
12.0588
12.0549
12.0546
12.0538
12.059
12.0554
12.0431
12.0557
12.0388
12.0491
12.0529
12.0513
12.0552
12.0504
12.0452
12.0569
12.0391
12.0337
12.0572
12.0463
12.0537
12.0614
12.0486
12.056
12.0617
12.0561
12.059
12.0497
12.0624
12.0546
12.0573
12.0547
12.0571
12.0536
12.0572
12.0344
12.0573
12.0375
12.0544
12.0406
12.049
12.0543
12.0472
12.0525
12.0562
12.056
12.0578
12.0429
12.053
12.049
12.0481
12.0485
12.0415
12.0593
12.0498
12.0562
12.0317
12.0572
12.0568
12.056
12.0437
12.0557
12.0656
12.0572
12.0627
12.0255
12.0381
12.0572
12.056
12.02
12.0464
12.0291
12.0424
12.0477
12.0596
12.0278
12.0521
12.0462
12.05
12.0426
12.0242
12.0513
12.0536
12.0532
12.0541
12.0523
12.0469
12.0625
12.0216
12.0315
12.0564
12.0532
12.0625
12.0232
12.057
12.0285
12.0561
12.0438
12.035
12.0271
12.0534
12.0575
12.053
12.0568
12.0527
12.0438
12.0523
12.0304
12.0526
12.0239
12.0584
12.0371
12.0534
12.0524
12.0406
12.0247
12.0387
12.0449
12.06
12.0572
12.0309
12.041
12.0176
12.0383
12.0418
12.0576
12.0272
12.0566
12.046
12.041
12.0459
12.0384
12.0133
12.0519
12.0483
12.0565
12.0153
12.052
12.0415
12.0209
12.0518
12.0517
12.0558
12.0532
12.0467
12.0528
12.0166
12.0543
12.0463
12.0359
12.044
12.0515
12.0323
12.054
12.0484
12.0461
12.0517
12.0474
12.0388
12.0476
12.0522
12.0477
12.0453
12.0518
12.0605
12.0471
12.0565
12.0425
12.0518
12.0538
12.0462
12.0396
12.0471
12.0509
12.0461
12.0311
12.0475
12.0464
12.0489
12.0173
12.048
12.0468
12.0432
12.0517
12.0486
12.0523
12.0642
12.0507
12.06
12.0693
12.062
12.0562
12.0549
12.0499
12.0584
12.0533
12.0593
12.0499
12.0675
12.0608
12.0611
12.052
12.0452
12.0564
12.0527
12.0465
12.0442
12.0478
12.0447
12.0416
12.0536
12.0479
12.054
12.052
12.0443
12.0545
12.0149
12.0527
12.0595
12.0512
12.0415
12.0438
12.0522
12.0526
12.0511
12.0524
12.0562
12.057
12.0527
12.0415
12.0472
12.0558
12.0471
12.0336
12.0482
12.0485
12.0588
12.0527
12.0545
12.0492
12.0525
12.0335
12.0518
12.0261
12.0486
12.0409
12.0464
12.0497
12.0212
12.0496
12.0516
12.0532
12.0514
12.0524
12.0522
12.0457
12.0531
12.052
12.0426
12.0413
12.051
12.0499
12.0564
12.0494
12.0449
12.0478
12.0563
12.0476
12.0552
12.0526
12.0408
12.0484
12.0167
12.0527
12.0441
12.0312
12.0331
12.0527
12.0253
12.055
12.0381
12.044
12.048
12.0512
12.0234
12.0518
12.0503
12.0498
12.0481
12.0515
12.0486
12.0496
12.0474
12.0387
12.0505
12.0521
12.0279
12.0489
12.049
12.0602
12.0462
12.0494
12.0532
12.0431
12.0522
12.051
12.0304
12.039
12.0399
12.055
12.0313
12.0527
12.0402
12.0437
12.0436
12.0525
12.0535
12.0369
12.0203
12.0525
12.0524
12.049
12.049
12.0518
12.0523
12.0499
12.0532
12.0544
12.0539
12.0511
12.0537
12.0574
12.0527
12.0536
12.053
12.0527
12.0523
12.0225
12.0529
12.0364
12.0497
12.0546
12.0529
12.0527
12.0533
12.0535
12.0583
12.0528
12.0492
12.053
12.0531
12.0526
12.0514
12.0509
12.028
12.0495
12.0542
12.0529
12.0545
12.0557
12.0538
12.035
12.0533
12.0525
12.0282
12.0502
12.0355
12.0344
12.0389
12.0561
12.0552
12.0555
12.0286
12.0464
12.0521
12.0535
12.0508
12.0305
12.0583
12.0221
12.0535
12.0566
12.0438
12.0548
12.0377
12.059
12.054
12.0524
12.0591
12.0566
12.054
12.0517
12.0542
12.0528
12.0258
12.0599
12.0551
12.0226
12.0532
12.0524
12.0543
12.0515
12.0541
12.0523
12.0546
12.0543
12.0546
12.0441
12.0374
12.0577
12.0575
12.0548
12.0359
12.0587
12.0305
12.0339
12.0551
12.0579
12.0548
12.056
12.0528
12.0264
12.0551
12.0522
12.0307
12.057
12.0576
12.0545
12.0432
12.0504
12.055
12.054
12.0514
12.0507
12.0558
12.0556
12.0556
12.0553
12.0512
12.0515
12.059
12.0368
12.0546
12.0489
12.0571
12.0354
12.0538
12.0538
12.0574
12.0557
12.0447
12.0564
12.0593
12.0568
12.0596
12.0592
12.0583
12.0572
12.0321
12.0479
12.0563
12.0605
12.0296
12.0594
12.0465
12.0605
12.0394
12.0592
12.0548
12.0273
12.0578
12.0562
12.0587
12.0372
12.0506
12.0578
12.0543
12.0606
12.0479
12.0276
12.0565
12.0554
12.0567
12.0554
12.0558
12.0579
12.0488
12.0567
12.0561
12.0574
12.0569
12.0554
12.0593
12.0573
12.0415
12.055
12.0347
12.0597
12.0596
12.0568
12.0379
12.0557
12.0633
12.0571
12.0551
12.0539
12.0555
12.0559
12.0574
12.06
12.0672
12.0565
12.0543
12.0495
12.0597
12.0548
12.0558
12.0309
12.0569
12.0557
12.0603
12.0548
12.056
12.0556
12.0555
12.0587
12.0594
12.0557
12.0494
12.0645
12.0564
12.0681
12.0487
12.0533
12.0571
12.0594
12.0477
12.0528
12.0586
12.0487
12.0583
12.0552
12.0556
12.0589
12.0609
12.053
12.054
12.0555
12.0614
12.0512
12.056
12.0479
12.0578
12.0511
12.0578
12.0548
12.0684
12.0587
12.0615
12.0581
12.0558
12.0611
12.0582
12.0655
12.0583
12.0362
12.0486
12.0585
12.061
12.0582
12.0585
12.0538
12.0582
12.0685
12.0538
12.0616
12.0575
12.0494
12.0575
12.0578
12.0556
12.0646
12.0583
12.0602
12.0586
12.0579
12.0581
12.061
12.0612
12.0677
12.0559
12.0563
12.0517
12.0549
12.0579
12.0401
12.0585
12.0536
12.0493
12.058
12.0526
12.0584
12.0574
12.0616
12.0612
12.0575
12.0532
12.055
12.0189
12.0562
12.0546
12.0499
12.0549
12.0575
12.0587
12.05
12.0586
12.0549
12.055
12.0542
12.0505
12.0505
12.045
12.0565
12.0512
12.0585
12.0539
12.0566
12.061
12.0618
12.0574
12.0605
12.0563
12.0588
12.0608
12.0571
12.0557
12.0469
12.0596
12.0612
12.0535
12.0583
12.0532
12.0581
12.0629
12.0577
12.0622
12.0534
12.0656
12.0584
12.05
12.058
12.0582
12.0603
12.0615
12.061
12.0643
12.061
12.0579
12.0606
12.0696
12.056
12.0551
12.058
12.0555
12.0613
12.0601
12.0565
12.0579
12.0584
12.0572
12.0615
12.0565
12.0623
12.0563
12.0307
12.0505
12.0584
12.0558
12.0563
12.0592
12.059
12.0571
12.0641
12.0157
12.0534
12.0536
12.0541
12.0566
12.0569
12.0475
12.0536
12.0589
12.0619
12.0605
12.0252
12.0584
12.0545
12.0577
12.0565
12.0543
12.0574
12.0522
12.0557
12.0502
12.0564
12.0601
12.055
12.055
12.0436
12.0593
12.0559
12.0523
12.0374
12.0347
12.0548
12.0589
12.0565
12.0576
12.0531
12.0582
12.0585
12.0602
12.0554
12.0524
12.058
12.0589
12.0601
12.0538
12.0578
12.0573
12.0553
12.0389
12.0578
12.046
12.0517
12.0599
12.0532
12.0431
12.0553
12.0513
12.0508
12.0349
12.0571
12.0558
12.0548
12.0576
12.057
12.0565
12.0585
12.0434
12.0602
12.0367
12.0625
12.0524
12.0606
12.0483
12.0547
12.0447
12.0505
12.0603
12.0551
12.0454
12.0618
12.056
12.0493
12.0598
12.0538
12.0606
12.0566
12.0526
12.0596
12.0492
12.0477
12.0586
12.0515
12.0474
12.0351
12.0481
12.0457
12.059
12.0488
12.0516
12.0592
12.0585
12.0534
12.0506
12.0573
12.0453
12.0548
12.0578
12.0542
12.0513
12.0548
12.0591
12.0469
12.0541
12.0558
12.0545
12.0605
12.057
12.0597
12.0335
12.035
12.0433
12.0603
12.0536
12.0547
12.0566
12.0592
12.0588
12.0567
12.0538
12.0534
12.0585
12.0394
12.0298
12.0491
12.0578
12.0523
12.018
12.0255
12.0523
12.0605
12.0598
12.0591
12.0556
12.0207
12.0521
12.0552
12.0534
12.0595
12.0198
12.0591
12.0594
12.0566
12.0574
12.0356
12.0561
12.0533
12.0461
12.0518
12.0537
12.0595
12.0296
12.0595
12.0463
12.0502
12.0543
12.0533
12.0355
12.0501
12.0564
12.0601
12.0598
12.0461
12.053
12.0561
12.06
12.0424
12.0566
12.0432
12.0544
12.0591
12.0571
12.0151
12.0516
12.055
12.0253
12.0527
12.0542
12.0416
12.0499
12.0588
12.0602
12.0594
12.0567
12.0497
12.0533
12.0614
12.0636
12.0397
12.0139
12.0542
12.0598
12.0563
12.0608
12.0612
12.0352
12.0609
12.0371
12.0562
12.0534
12.0597
12.0179
12.0522
12.0226
12.0604
12.0617
12.038
12.0618
12.0533
12.0523
12.0512
12.0491
12.0296
12.0187
12.0569
12.0551
12.0375
12.0134
12.0225
12.0509
12.0533
12.0501
12.0227
12.0339
12.035
12.0433
12.051
12.0614
12.0501
12.0567
12.0542
12.0529
12.0488
12.049
12.0492
12.0464
12.0591
12.0518
12.0544
12.0501
12.0676
12.0505
12.0559
12.0463
12.0505
12.0616
12.0626
12.0561
12.0154
12.0337
12.0214
12.0667
12.0408
12.0358
12.0642
12.038
12.0499
12.0371
12.0532
12.036
12.037
12.055
12.0571
12.0622
12.0599
12.0621
12.0622
12.0585
12.0627
12.0375
12.0606
12.0538
12.0533
12.0625
12.0488
12.0509
12.0509
12.0514
12.0404
12.0501
12.0573
12.0439
12.0505
12.0345
12.0575
12.0471
12.052
12.0516
12.0498
12.0421
12.0363
12.0575
12.0563
12.035
12.0581
12.043
12.0349
12.0581
12.0568
12.0569
12.0599
12.0603
12.055
12.055
12.0586
12.0595
12.0606
12.0592
12.0602
12.0558
12.0533
12.0578
12.0571
12.0581
12.0597
12.0604
12.0553
12.0597
12.0543
12.0589
12.0539
12.0525
12.0482
12.0534
12.0617
12.0622
12.0531
12.0657
12.0533
12.0543
12.0587
12.0539
12.0405
12.0514
12.0631
12.0618
12.0442
12.058
12.059
12.0501
12.0694
12.062
12.0659
12.0575
12.0444
12.0535
12.0541
12.0559
12.0602
12.0638
12.0352
12.0627
12.0589
12.0538
12.0563
12.0438
12.059
12.0583
12.0453
12.0606
12.0591
12.0465
12.0618
12.0362
12.0601
12.0625
12.0575
12.0585
12.0427
12.0605
12.0561
12.0604
12.0489
12.0527
12.0536
12.0541
12.0598
12.0594
12.0563
12.0608
12.0423
12.0518
12.0565
12.0581
12.0551
12.0575
12.0621
12.0608
12.0595
12.0626
12.0578
12.0572
12.0651
12.0665
12.0573
12.0584
12.0524
12.0501
12.0496
12.07
12.0351
12.0343
12.0505
12.0569
12.0562
12.0566
12.0521
12.0348
12.0477
12.0533
12.0527
12.0546
12.0542
12.0559
12.0535
12.0587
12.0356
12.0619
12.0546
12.0592
12.0615
12.0455
12.0597
12.0609
12.059
12.061
12.0464
12.0535
12.0323
12.0572
12.0522
12.0591
12.0632
12.0582
12.0544
12.0509
12.0512
12.0591
12.0625
12.0507
12.0447
12.0647
12.0622
12.0536
12.0363
12.0622
12.0433
12.0574
12.0371
12.0539
12.0541
12.0451
12.059
12.0591
12.06
12.0629
12.0609
12.0626
12.0613
12.0624
12.0627
12.062
12.0625
12.051
12.0517
12.0403
12.0686
12.0619
12.0632
12.0505
12.0501
12.0463
12.0354
12.0513
12.0613
12.0393
12.0562
12.0585
12.0536
12.0611
12.0502
12.0579
12.0622
12.0537
12.0695
12.066
12.0603
12.0556
12.0372
12.0588
12.0516
12.0526
12.0698
12.0352
12.0579
12.0504
12.0378
12.0433
12.0496
12.0583
12.0404
12.0611
12.0581
12.0664
12.0519
12.062
12.0608
12.0562
12.0568
12.0576
12.0534
12.0541
12.0581
12.0623
12.0605
12.0564
12.0489
12.0491
12.0612
12.0586
12.0578
12.0544
12.0591
12.0545
12.0361
12.0563
12.056
12.0361
12.0494
12.0571
12.0596
12.059
12.0548
12.062
12.0609
12.0598
12.0469
12.0625
12.039
12.0637
12.0525
12.0348
12.0662
12.0445
12.0507
12.0571
12.0588
12.0364
12.0566
12.0628
12.0697
12.0523
12.0525
12.0555
12.0505
12.0307
12.0511
12.0508
12.0534
12.0506
12.0358
12.05
12.06
12.0355
12.0627
12.0551
12.057
12.045
12.0567
12.0598
12.0566
12.0444
12.0652
12.0603
12.0357
12.0481
12.0591
12.0443
12.058
12.0626
12.0549
12.0549
12.0691
12.0542
12.0588
12.0536
12.0605
12.062
12.0591
12.0615
12.0503
12.0494
12.0516
12.0621
12.0526
12.061
12.0563
12.0646
12.0591
12.0615
12.0473
12.059
12.0631
12.0422
12.0583
12.0623
12.0644
12.0524
12.0568
12.0534
12.0358
12.055
12.0533
12.0555
12.0626
12.036
)
;

boundaryField
{
    back
    {
        type            empty;
    }
    front
    {
        type            empty;
    }
    top
    {
        type            zeroGradient;
    }
    outer_arc
    {
        type            zeroGradient;
    }
    bottom
    {
        type            uniformFixedValue;
        uniformValue    
        {
            type            table;
            format          csv;
            file            "outlet_p.csv";
            nHeaderLine     1;
            refColumn       0;
            componentColumns List<label> 1(1);
            separator       ",";
            mergeSeparators 0;
        }
        value           uniform 12.0347;
    }
    inner_arc
    {
        type            zeroGradient;
    }
}


// ************************************************************************* //
