/*--------------------------------*- C++ -*----------------------------------*\
  =========                 |
  \\      /  F ield         | OpenFOAM: The Open Source CFD Toolbox
   \\    /   O peration     | Website:  https://openfoam.org
    \\  /    A nd           | Version:  9
     \\/     M anipulation  |
\*---------------------------------------------------------------------------*/
FoamFile
{
    format      ascii;
    class       volScalarField;
    location    "2.35";
    object      p;
}
// * * * * * * * * * * * * * * * * * * * * * * * * * * * * * * * * * * * * * //

dimensions      [0 2 -2 0 0 0 0];

internalField   nonuniform List<scalar> 
1655
(
13.6699
13.6252
13.7205
13.7068
13.8302
13.7939
13.7153
13.8606
13.8573
13.8273
13.6839
13.6809
13.8605
13.5755
13.8422
13.6168
13.6283
13.8541
13.772
13.5754
13.6059
13.8582
13.8474
13.8467
13.6715
13.6348
13.6131
13.8591
13.8608
13.6031
13.6976
13.7236
13.5683
13.7525
13.8533
13.7604
13.7953
13.6234
13.566
13.6276
13.6079
13.8432
13.5665
13.7632
13.6083
13.7042
13.7087
13.6067
13.8099
13.5685
13.7912
13.7192
13.8358
13.8582
13.8543
13.8216
13.6085
13.685
13.7006
13.8156
13.7037
13.7806
13.6673
13.8598
13.7521
13.6991
13.7326
13.69
13.854
13.8447
13.6883
13.7057
13.602
13.8413
13.7406
13.5968
13.8606
13.8543
13.6101
13.6048
13.749
13.5991
13.855
13.761
13.5977
13.8354
13.7386
13.6033
13.6416
13.8254
13.8277
13.7273
13.7699
13.8082
13.5841
13.7737
13.7347
13.6984
13.7307
13.5765
13.7307
13.7427
13.8131
13.744
13.855
13.7821
13.8568
13.6037
13.5727
13.8207
13.5615
13.6795
13.816
13.5952
13.8531
13.8347
13.8559
13.7038
13.6447
13.8543
13.8099
13.7552
13.7215
13.7245
13.7379
13.8555
13.5685
13.5839
13.6182
13.5852
13.8011
13.5618
13.8588
13.8531
13.6064
13.6314
13.8352
13.8276
13.6058
13.729
13.8171
13.6103
13.6144
13.7659
13.6458
13.7496
13.7792
13.8049
13.792
13.6783
13.6962
13.6624
13.7324
13.7162
13.8385
13.5673
13.7535
13.7813
13.8543
13.7483
13.7851
13.6494
13.8577
13.7739
13.7687
13.6954
13.8586
13.8535
13.7399
13.8545
13.6428
13.8537
13.7951
13.857
13.5998
13.8563
13.8042
13.8517
13.5929
13.5739
13.826
13.8527
13.7888
13.7246
13.6192
13.594
13.6023
13.5919
13.8516
13.8515
13.613
13.7784
13.8496
13.7113
13.5962
13.6062
13.8513
13.5937
13.6404
13.8503
13.7189
13.719
13.7267
13.7158
13.8238
13.6084
13.5791
13.8485
13.5832
13.7484
13.7158
13.7106
13.6285
13.8551
13.5729
13.7272
13.7646
13.6485
13.7051
13.8487
13.6045
13.604
13.5723
13.8472
13.5753
13.5988
13.6011
13.8283
13.6946
13.6903
13.5974
13.6751
13.672
13.8522
13.5821
13.5946
13.5963
13.8465
13.6007
13.6587
13.8307
13.6172
13.6573
13.6067
13.8455
13.6071
13.6791
13.8577
13.5985
13.8488
13.7651
13.6069
13.8221
13.7162
13.5854
13.7106
13.5846
13.8436
13.8527
13.5737
13.6419
13.5955
13.6036
13.7047
13.8257
13.85
13.5772
13.5687
13.5747
13.5726
13.8306
13.8514
13.6143
13.5973
13.8497
13.8491
13.6728
13.8417
13.8532
13.6389
13.8516
13.8464
13.8473
13.8296
13.8339
13.8481
13.8491
13.5729
13.5798
13.8518
13.8489
13.6087
13.5756
13.854
13.8461
13.5911
13.8616
13.7003
13.6063
13.5857
13.5807
13.8085
13.8055
13.5969
13.6057
13.8519
13.5877
13.5985
13.8426
13.6083
13.8449
13.6526
13.5965
13.6421
13.8514
13.8441
13.6068
13.8526
13.6103
13.5843
13.8502
13.5764
13.5773
13.5941
13.5845
13.699
13.6965
13.8481
13.5881
13.8149
13.5857
13.8474
13.5781
13.6004
13.8432
13.6027
13.8184
13.5779
13.6042
13.8453
13.5806
13.6023
13.8478
13.6846
13.8221
13.5997
13.5748
13.5909
13.5876
13.599
13.856
13.8228
13.6808
13.5848
13.8557
13.6132
13.6018
13.6069
13.8399
13.6115
13.8246
13.5829
13.8564
13.6379
13.5913
13.8317
13.5887
13.8497
13.8473
13.603
13.6105
13.5816
13.6012
13.6119
13.8422
13.8402
13.8051
13.8563
13.6003
13.5992
13.5974
13.6415
13.8502
13.635
13.5938
13.855
13.6141
13.8417
13.8453
13.6051
13.6131
13.819
13.8088
13.853
13.605
13.6172
13.6153
13.8462
13.8569
13.7998
13.6091
13.5891
13.6447
13.8444
13.8074
13.5884
13.8517
13.8151
13.6211
13.8045
13.83
13.6476
13.6314
13.8077
13.5914
13.651
13.8503
13.6664
13.6287
13.6195
13.7975
13.6441
13.7711
13.6185
13.6237
13.665
13.6641
13.6075
13.6025
13.7581
13.5936
13.7704
13.6228
13.822
13.6472
13.6582
13.6058
13.8201
13.8205
13.6547
13.6093
13.6326
13.8111
13.6208
13.6305
13.6548
13.7699
13.8116
13.7647
13.8186
13.7548
13.6897
13.7459
13.6372
13.7496
13.6397
13.7954
13.6269
13.7631
13.7735
13.6451
13.6358
13.642
13.6922
13.7984
13.8519
13.6334
13.6242
13.6429
13.6483
13.6512
13.603
13.6404
13.811
13.6961
13.6544
13.657
13.6649
13.6516
13.7613
13.6144
13.8004
13.6469
13.7472
13.6609
13.6433
13.764
13.7518
13.8031
13.6164
13.6984
13.7698
13.6508
13.7435
13.6925
13.658
13.6731
13.7543
13.6619
13.7434
13.7081
13.6602
13.7641
13.7027
13.6612
13.7021
13.7434
13.7043
13.6904
13.7551
13.818
13.6962
13.7685
13.6643
13.7453
13.7399
13.6964
13.6782
13.6803
13.6922
13.6886
13.6726
13.6509
13.6984
13.686
13.6599
13.7034
13.6983
13.6809
13.7069
13.7092
13.7641
13.6537
13.7211
13.7871
13.6302
13.8109
13.6766
13.746
13.7013
13.7697
13.7054
13.7784
13.7115
13.6438
13.7961
13.6628
13.7314
13.6712
13.7558
13.6866
13.687
13.6354
13.6977
13.6848
13.6684
13.7526
13.6668
13.7399
13.753
13.6915
13.7428
13.6553
13.7209
13.7921
13.6924
13.6852
13.6253
13.7374
13.7112
13.6564
13.7406
13.7673
13.7673
13.7211
13.6837
13.6906
13.8064
13.681
13.6481
13.7011
13.7068
13.7988
13.6984
13.7432
13.7125
13.7332
13.6757
13.726
13.6693
13.6702
13.683
13.691
13.6995
13.6636
13.687
13.6533
13.7925
13.7083
13.7363
13.7174
13.6818
13.7223
13.7612
13.6619
13.6481
13.737
13.8068
13.606
13.7174
13.6796
13.6853
13.6159
13.6983
13.7822
13.7264
13.6696
13.6956
13.655
13.6988
13.6761
13.6742
13.6591
13.727
13.6682
13.7457
13.6809
13.6883
13.6963
13.7229
13.6586
13.7252
13.7047
13.716
13.6922
13.7134
13.702
13.6945
13.6817
13.6793
13.6849
13.7507
13.6512
13.6967
13.6868
13.7962
13.6747
13.713
13.7357
13.6404
13.7222
13.6625
13.6717
13.6732
13.6686
13.671
13.6709
13.74
13.6839
13.6771
13.6759
13.7259
13.7366
13.6741
13.6588
13.7309
13.7331
13.6901
13.6998
13.6721
13.7164
13.7066
13.7364
13.7705
13.7397
13.7237
13.757
13.7617
13.7263
13.7385
13.7488
13.7352
13.7298
13.6631
13.7326
13.6655
13.6912
13.8155
13.7353
13.731
13.7362
13.7366
13.7844
13.7315
13.6768
13.744
13.7359
13.7307
13.6751
13.6818
13.6666
13.6802
13.6614
13.7331
13.7771
13.7836
13.7393
13.6774
13.7438
13.7619
13.6558
13.7131
13.6572
13.6762
13.6822
13.7996
13.7476
13.7622
13.6622
13.6354
13.7232
13.7396
13.8428
13.6661
13.8425
13.6475
13.7524
13.7594
13.6863
13.745
13.6414
13.7792
13.7659
13.7277
13.784
13.7638
13.7724
13.7272
13.7474
13.7335
13.6581
13.7931
13.6678
13.6421
13.7395
13.7286
13.7602
13.6657
13.7417
13.7302
13.7646
13.742
13.7876
13.6314
13.6483
13.7647
13.765
13.7593
13.6546
13.7826
13.648
13.6508
13.7792
13.7658
13.7996
13.7612
13.7336
13.6496
13.7729
13.7563
13.6416
13.7627
13.7639
13.7936
13.6888
13.7115
13.6585
13.7518
13.7208
13.7176
13.7661
13.7714
13.7772
13.7673
13.7148
13.7196
13.7776
13.6693
13.7552
13.7036
13.7598
13.64
13.7476
13.7775
13.7906
13.5881
13.6909
13.8024
13.7823
13.7584
13.7835
13.7943
13.7898
13.7607
13.6514
13.6985
13.7852
13.797
13.6338
13.7871
13.696
13.6335
13.621
13.789
13.7913
13.6328
13.7884
13.7792
13.7877
13.6331
13.7189
13.7829
13.7898
13.7953
13.705
13.6399
13.7974
13.7967
13.7832
13.7488
13.7976
13.7943
13.7106
13.7775
13.7568
13.8022
13.7722
13.7859
13.779
13.7848
13.8508
13.7465
13.6318
13.7863
13.782
13.7893
13.6259
13.7507
13.6385
13.7956
13.7546
13.6007
13.8008
13.7931
13.7793
13.7912
13.6397
13.7916
13.7795
13.7151
13.7882
13.7889
13.8059
13.6282
13.7983
13.7533
13.7924
13.7508
13.7903
13.794
13.795
13.8073
13.8427
13.7576
13.7144
13.6406
13.7736
13.635
13.7056
13.6181
13.8149
13.8448
13.6244
13.7727
13.7778
13.7092
13.7746
13.7504
13.7919
13.8047
13.813
13.8438
13.5908
13.7494
13.8113
13.6157
13.8375
13.703
13.803
13.8455
13.7682
13.7468
13.6322
13.7932
13.8091
13.8094
13.7513
13.8106
13.7687
13.6357
13.8066
13.625
13.6186
13.8466
13.8185
13.8215
13.8128
13.6222
13.7701
13.637
13.7804
13.8218
13.7742
13.7102
13.7967
13.7777
13.8396
13.6334
13.8156
13.8409
13.8248
13.6002
13.8302
13.8238
13.8161
13.6301
13.7527
13.7553
13.6212
13.8098
13.7728
13.6212
13.8013
13.7819
13.7119
13.8004
13.7741
13.7794
13.6059
13.8272
13.8214
13.7695
13.7722
13.8322
13.639
13.578
13.7856
13.717
13.7843
13.8217
13.8277
13.716
13.8188
13.7871
13.6153
13.5966
13.8381
13.7207
13.6236
13.5887
13.6095
13.7732
13.6055
13.7566
13.841
13.8248
13.5806
13.8339
13.7544
13.7747
13.829
13.8302
13.5943
13.6189
13.6172
13.8266
13.7835
13.8216
13.7801
13.8328
13.6197
13.8118
13.8251
13.7785
13.6305
13.8246
13.6153
13.8273
13.8153
13.8448
13.8389
13.8316
13.6281
13.8429
13.83
13.8364
13.6334
13.8374
13.6
13.6029
13.6086
13.8365
13.8385
13.5918
13.8183
13.8486
13.8326
13.6198
13.6114
13.6227
13.8421
13.6288
13.8337
13.8403
13.6142
13.5974
13.8383
13.6053
13.835
13.6253
13.6439
13.5904
13.615
13.6083
13.5917
13.5833
13.8451
13.8337
13.6055
13.815
13.6142
13.6312
13.7703
13.8574
13.617
13.5945
13.5907
13.8401
13.842
13.5972
13.6127
13.5916
13.6112
13.6028
13.6114
13.8452
13.6143
13.8397
13.837
13.8571
13.8559
13.5605
13.7735
13.6002
13.6188
13.7817
13.6087
13.8519
13.8205
13.8418
13.8494
13.6116
13.6086
13.8259
13.8438
13.579
13.8352
13.6111
13.6224
13.8245
13.8455
13.6069
13.8336
13.8457
13.8554
13.6082
13.8474
13.8415
13.8531
13.5558
13.8287
13.6038
13.8378
13.8375
13.8306
13.833
13.8565
13.8093
13.853
13.6166
13.8385
13.8001
13.8506
13.8344
13.8465
13.8491
13.8015
13.6059
13.8533
13.6168
13.8442
13.6478
13.831
13.6138
13.8023
13.5838
13.6109
13.8255
13.8415
13.8521
13.6389
13.6103
13.6392
13.8571
13.855
13.8361
13.8222
13.692
13.7015
13.8358
13.8356
13.5813
13.6181
13.5812
13.8546
13.8262
13.6197
13.8478
13.6936
13.8384
13.8106
13.6831
13.6025
13.8336
13.8459
13.8125
13.8327
13.803
13.8529
13.6747
13.6831
13.8287
13.8374
13.6219
13.828
13.8307
13.8192
13.584
13.8392
13.5905
13.5597
13.6731
13.6638
13.8434
13.8274
13.7348
13.6608
13.6673
13.7436
13.8234
13.82
13.8165
13.8358
13.6557
13.8511
13.6193
13.599
13.8112
13.6406
13.828
13.8226
13.5889
13.8248
13.8554
13.8354
13.6042
13.6328
13.6177
13.8301
13.817
13.6277
13.6309
13.6296
13.8524
13.6067
13.6065
13.8501
13.854
13.5864
13.8038
13.8087
13.6451
13.6767
13.6115
13.6226
13.6198
13.8593
13.618
13.6045
13.5673
13.6364
13.6433
13.6109
13.6306
13.6315
13.6084
13.6084
13.6357
13.6976
13.8133
13.8149
13.8055
13.5861
13.6877
13.5885
13.805
13.6457
13.6802
13.6523
13.5657
13.8144
13.6249
13.8076
13.8061
13.6671
13.8053
13.8545
13.6134
13.6108
13.6253
13.6389
13.7418
13.6658
13.8069
13.8143
13.6215
13.8195
13.5974
13.8311
13.6128
13.7056
13.6281
13.6503
13.5946
13.6473
13.8512
13.647
13.6358
13.8582
13.5985
13.613
13.6353
13.6241
13.6259
13.6183
13.6333
13.6281
13.6269
13.5945
13.6276
13.68
13.6154
13.7052
13.7107
13.6166
13.5701
13.6363
13.568
13.7163
13.6266
13.6933
13.6157
13.6158
13.7218
13.8166
13.8229
13.6523
13.6488
13.6245
13.6353
13.6273
13.8586
13.8566
13.6221
13.8587
13.7134
13.8536
13.5957
13.8541
13.8529
13.6232
13.7602
13.6436
13.7875
13.8308
13.8338
13.6573
13.8316
13.8566
13.8506
13.7992
13.5917
13.8353
13.7075
13.6298
13.862
13.7275
13.859
13.7187
13.6631
13.8625
13.7212
13.8567
13.6443
13.6826
13.7305
13.7275
13.8625
13.8496
13.8538
13.5605
13.7556
13.8558
13.5618
13.6614
13.8525
13.7674
13.7583
13.6744
13.7849
13.7894
13.7489
13.6798
13.7714
13.7802
13.7936
13.7761
13.6654
13.7531
13.6835
13.765
13.7607
13.6722
13.7826
13.7917
13.7514
13.6676
13.6821
13.7738
13.791
13.7341
13.6875
13.5971
13.8477
13.8441
13.7369
13.6251
13.5917
13.6021
13.5715
13.5736
13.6593
13.8164
13.6558
13.6605
13.8588
13.5717
13.6028
13.7149
13.6361
13.8457
13.6467
13.5971
13.8583
13.5807
13.5812
13.6727
13.7906
13.6191
13.8562
13.6582
13.6542
13.5791
13.5546
13.6669
13.5766
13.769
13.8358
13.8514
13.5729
13.8581
13.6138
13.8563
13.6079
13.656
13.7628
13.6697
13.8443
13.8469
13.5702
13.6645
13.8587
13.6207
13.5991
13.5775
13.7832
13.8502
13.5917
13.7964
13.6494
13.6892
13.5915
13.5821
13.5765
13.8567
13.8223
13.6084
13.6033
13.8339
13.5559
13.6663
13.6514
13.646
13.5937
13.5986
13.7423
13.7184
13.7134
13.6324
13.8555
13.8562
13.689
13.5939
13.5863
13.5868
13.7306
13.8546
13.8609
13.5895
13.8129
13.7441
13.8043
13.7527
13.6065
13.5643
13.8452
13.8298
13.7437
13.7776
13.8342
13.8436
13.8532
13.798
13.567
13.7983
13.8434
13.6052
13.8688
13.5816
13.7619
13.5712
13.8377
13.8569
13.5738
13.7241
13.7287
13.5702
13.6129
13.694
13.8455
13.6187
13.818
13.5864
13.8537
13.8137
13.8473
13.5869
13.8575
13.6004
13.784
13.8393
13.5755
13.7747
13.8543
13.8339
13.8509
13.8269
13.8027
13.8186
13.8278
13.8126
13.8223
13.7229
13.7296
13.8516
13.642
13.8407
13.654
13.719
13.7135
13.8616
13.8555
13.6915
13.8031
13.652
13.5662
13.5794
13.7384
13.6529
13.7186
13.6001
13.8186
13.5724
13.6382
13.649
13.6063
13.5566
13.8553
13.6614
13.806
13.739
13.6352
13.8548
13.5961
13.8235
13.8538
13.832
13.7093
13.5731
13.8587
13.8002
13.7675
13.6231
13.82
13.8177
13.7993
13.6768
13.5602
13.582
13.8028
13.7414
13.7661
13.8374
13.6111
13.5889
13.6857
13.8596
13.8009
13.5779
13.8578
13.5808
13.776
13.6753
13.8557
13.8581
13.5892
13.8569
13.7085
13.6742
13.8487
13.5736
13.6177
13.8391
13.6627
13.7859
13.86
13.8407
13.8603
13.6169
13.7722
13.8555
13.624
13.6716
13.723
13.589
13.5626
13.8535
13.7571
13.8386
13.6371
13.7519
13.739
13.5723
13.7217
13.8527
13.686
13.7241
13.604
13.8603
13.8524
13.8612
13.787
13.8551
13.8313
13.5634
13.5684
13.8447
13.7583
13.7847
13.5711
13.8423
13.6219
13.6588
13.8544
13.8413
13.5717
13.8359
13.5792
13.8248
13.6178
13.747
13.64
13.7937
13.5716
13.8096
13.852
13.8199
13.57
13.8318
13.7159
13.7107
13.7264
13.8154
13.732
13.6573
13.7561
13.6512
13.5706
13.6602
13.8617
13.5707
13.6503
13.8486
13.5792
13.8402
13.6492
13.8069
13.5654
13.7909
13.8538
13.5693
13.7981
13.5686
13.8379
13.8544
)
;

boundaryField
{
    back
    {
        type            empty;
    }
    front
    {
        type            empty;
    }
    top
    {
        type            zeroGradient;
    }
    outer_arc
    {
        type            zeroGradient;
    }
    bottom
    {
        type            uniformFixedValue;
        uniformValue    
        {
            type            table;
            format          csv;
            file            "outlet_p.csv";
            nHeaderLine     1;
            refColumn       0;
            componentColumns List<label> 1(1);
            separator       ",";
            mergeSeparators 0;
        }
        value           uniform 13.8562;
    }
    inner_arc
    {
        type            zeroGradient;
    }
}


// ************************************************************************* //
