/*--------------------------------*- C++ -*----------------------------------*\
  =========                 |
  \\      /  F ield         | OpenFOAM: The Open Source CFD Toolbox
   \\    /   O peration     | Website:  https://openfoam.org
    \\  /    A nd           | Version:  9
     \\/     M anipulation  |
\*---------------------------------------------------------------------------*/
FoamFile
{
    format      ascii;
    class       volVectorField;
    location    "2.35";
    object      U;
}
// * * * * * * * * * * * * * * * * * * * * * * * * * * * * * * * * * * * * * //

dimensions      [0 1 -1 0 0 0 0];

internalField   nonuniform List<vector> 
1655
(
(0.0148687 -0.0095453 -4.86429e-18)
(-0.0350147 0.0510503 3.18415e-17)
(-0.0700509 0.0241433 2.61264e-17)
(-0.020362 0.0117524 -1.55949e-17)
(0.0614085 0.0565366 0)
(0.00832667 0.00545768 9.87276e-18)
(-0.112857 0.0271915 0)
(0.0415764 0.150298 -1.75375e-17)
(0.0993397 0.244967 0)
(0.0545148 0.0481733 -8.56328e-18)
(0.0417262 -0.0226617 3.88848e-17)
(0.0477893 -0.0264176 -3.83015e-17)
(0.0277385 0.0826314 9.57263e-22)
(0.0275951 -0.00974234 -2.00392e-17)
(-0.0512466 -0.286181 1.98581e-17)
(-0.176597 0.133482 0)
(-0.266336 0.144631 3.39532e-17)
(0.103592 -0.00212386 1.0518e-17)
(0.0132571 0.0112933 -3.92897e-17)
(0.019516 0.0284971 -1.11141e-17)
(-0.0995166 0.057544 4.51295e-18)
(0.0930991 0.269323 0)
(0.070284 0.11399 -2.11114e-17)
(0.0577188 0.101691 9.81313e-18)
(0.0237803 -0.0216109 -6.12123e-18)
(-0.287804 0.172448 -4.00592e-17)
(-0.155049 0.169286 -1.77199e-17)
(0.0715851 0.250374 -2.09672e-17)
(0.0611293 0.243828 2.82851e-17)
(-0.0784584 -0.000764255 -2.00034e-17)
(-0.203769 0.0328625 5.00591e-17)
(0.0211966 0.0291981 -5.42535e-18)
(0.0148031 -0.0857253 -7.34063e-18)
(-0.0609491 0.00544762 0)
(0.0905752 -0.0336695 0)
(-0.0716629 -0.0149874 0)
(0.0206052 0.00417416 -2.65699e-17)
(-0.0413656 0.0577213 0)
(0.0196309 -0.0734859 -1.00385e-17)
(-0.0408101 0.0555786 -3.43765e-17)
(-0.110779 0.121475 1.92438e-17)
(0.0683666 0.0979096 1.70776e-17)
(0.0238905 -0.068995 -1.05058e-17)
(0.0218696 0.0121348 3.10644e-17)
(-0.0171052 0.00239547 0)
(-0.00577997 0.00253147 0)
(-0.0158767 0.0142702 4.84822e-17)
(-0.0242503 0.0449295 0)
(0.0390003 0.0206833 1.9075e-17)
(0.033811 -0.0726312 2.55633e-18)
(0.0203605 0.0125111 2.93407e-17)
(-0.017411 0.0222629 -1.9558e-17)
(-0.0652177 -0.324039 -2.12244e-17)
(0.0955393 0.237462 1.8769e-17)
(0.142675 0.184844 -2.42186e-17)
(-0.144096 -0.179272 0)
(-0.116867 0.178986 -9.31698e-18)
(0.0199773 -0.0126319 0)
(0.0524496 -0.0164555 0)
(-0.166443 -0.213728 2.0467e-17)
(-0.239984 0.0311072 -5.00312e-17)
(0.00478204 0.00688978 0)
(0.0280348 -0.0205772 0)
(0.0612767 0.187687 -4.83668e-18)
(0.0616281 0.0174409 0)
(-0.120183 0.0379211 0)
(0.062627 0.00305857 4.51834e-17)
(0.0354414 -0.0164139 -2.23571e-17)
(0.0606173 -0.106608 0)
(0.0574271 0.0902903 -1.95223e-17)
(0.00722533 -0.00761382 2.48558e-17)
(-0.0915834 0.0291883 -1.18432e-18)
(-0.0954277 -0.0220251 -1.24038e-18)
(-0.0453503 -0.273176 1.80106e-17)
(-0.210362 -0.0275198 -2.31755e-17)
(-0.00647623 0.0183763 1.09249e-17)
(0.054293 0.217434 -6.42323e-18)
(0.0427969 -0.138781 0)
(-0.112737 0.164846 0)
(-0.0826487 0.0219407 0)
(0.0601443 0.015164 2.48854e-17)
(-0.0172829 0.0424006 -1.11061e-17)
(0.144522 0.189758 2.47477e-17)
(0.03998 0.0191327 1.25263e-17)
(-0.0957576 -0.0558281 0)
(-0.0510585 -0.143024 0)
(-0.183673 -0.0239728 -1.39867e-17)
(-0.0974974 0.0175617 0)
(0.00473008 -0.0130272 -9.71892e-18)
(-0.064155 -0.13564 0)
(-0.0187554 -0.0833591 0)
(-0.0892601 0.0130279 1.22732e-17)
(0.0295114 0.021817 2.40417e-17)
(0.0212542 0.00992957 0)
(-0.0167354 0.0957093 0)
(0.0216245 0.0110556 4.00334e-17)
(0.0404585 0.00296803 -3.83091e-17)
(0.0295554 -0.0128276 0)
(0.0076477 0.0289096 -1.16259e-17)
(-0.0340796 -0.0995988 2.42471e-17)
(-0.110766 0.0132847 -7.73298e-17)
(0.0241716 0.0051001 -2.53285e-17)
(0.0376706 0.0211654 -2.49048e-17)
(0.0487793 0.00597429 2.6555e-17)
(0.145861 0.136308 0)
(0.0135018 0.00483424 -1.54057e-18)
(0.091009 0.182624 -2.13679e-17)
(-0.0614871 0.0139587 0)
(-0.0315737 -0.0891191 0)
(-0.117262 -0.148742 -2.15367e-17)
(-0.0117155 -0.0905152 1.69005e-17)
(0.0163136 -0.00915965 1.98055e-17)
(-0.118891 -0.130097 1.3061e-17)
(-0.0956376 -0.0775492 2.21811e-17)
(0.0964601 0.157154 2.03142e-17)
(-0.01781 -0.110646 -1.27972e-17)
(0.0902681 0.173456 -2.17163e-17)
(0.0422056 -0.0111998 0)
(0.00544376 -0.0128587 1.92695e-17)
(0.148164 0.138139 -4.31063e-17)
(-0.154697 -0.130991 -3.71109e-17)
(-0.201343 -0.0450765 3.76968e-17)
(-0.225369 0.00334371 -2.97807e-17)
(0.121757 -0.00539311 2.79749e-17)
(0.0582465 0.00779617 9.83619e-18)
(0.069618 0.154429 0)
(0.0359934 -0.0636979 -2.41287e-17)
(-0.00632962 0.0430879 2.1809e-17)
(-0.193508 0.140782 -2.96832e-18)
(-0.0659906 -0.0718998 -2.88652e-18)
(0.0520331 0.0274224 5.62972e-18)
(-0.00358949 -0.0905334 2.98316e-17)
(0.0723391 0.189905 1.87357e-17)
(0.0688493 0.141584 1.97143e-17)
(-0.0284847 0.0627627 0)
(-0.00233886 -0.00348165 0)
(0.0668966 0.0746617 -1.15086e-17)
(-0.0504658 -0.221344 1.92733e-17)
(-0.0744018 0.123068 1.01787e-17)
(0.0539416 -0.000908983 -1.02448e-17)
(-0.0943072 -0.165077 1.33479e-17)
(-0.166372 0.188428 1.81513e-17)
(-0.217273 0.196912 0)
(-0.2707 -0.12084 0)
(-0.321097 0.145217 -1.12479e-17)
(-0.291332 -0.088141 0)
(-0.24335 -0.154121 -3.9558e-17)
(-0.204662 -0.201918 3.19048e-17)
(-0.230123 -0.187715 2.05048e-17)
(-0.34592 0.0673993 0)
(-0.341346 0.0275356 1.93906e-17)
(-0.34331 0.111056 -1.04163e-17)
(-0.308239 -0.0572306 2.03057e-17)
(-0.330192 -0.0196394 1.77078e-17)
(-0.0423718 -0.161657 0)
(0.0379604 -0.0526353 3.89077e-17)
(0.0376406 0.0112557 2.52477e-18)
(-0.134546 -0.0773105 1.05639e-17)
(0.0977825 0.165847 0)
(0.03257 0.00937172 -2.69457e-17)
(-0.173427 -0.102452 3.01391e-17)
(0.0728318 -0.0774178 0)
(0.10515 0.223562 -8.90033e-22)
(-0.13828 -0.0641028 0)
(-0.201046 -0.078011 0)
(0.0438396 -0.0178805 -1.03532e-17)
(0.0838005 0.237399 0)
(0.0884016 0.15442 -4.09576e-17)
(0.0334155 0.00694698 6.23573e-18)
(0.0201824 -0.194971 0)
(-0.208092 0.141282 0)
(0.136275 0.183874 0)
(-0.176786 -0.133603 1.23841e-17)
(0.100748 0.193492 2.15875e-17)
(-0.0975294 -0.0228264 1.29883e-18)
(0.0993719 0.184327 2.15042e-17)
(0.0463277 0.023121 5.65212e-18)
(0.00154498 -0.204975 0)
(-0.0764573 -0.105237 -2.30656e-17)
(0.0210827 0.00187708 1.81935e-17)
(-0.109647 -0.193739 2.63106e-17)
(0.140678 0.174691 1.67686e-17)
(0.00284662 -0.00157472 -3.59251e-17)
(0.104226 -0.00630646 -6.11728e-18)
(-0.0177582 0.00819381 -1.1687e-17)
(-0.0563611 -0.125495 0)
(-0.00377365 0.025143 0)
(-0.0668079 -0.113839 0)
(0.134683 0.0853253 0)
(0.139451 0.169251 -1.6297e-17)
(-0.00974967 0.0196422 -2.1053e-17)
(0.0166592 0.017103 0)
(0.139876 0.115759 -2.18168e-17)
(-0.000165167 0.0288612 2.74666e-17)
(-0.0320285 -0.143081 0)
(-0.0440032 0.0577052 -1.30984e-17)
(0.140181 0.114174 0)
(-0.0447476 -0.13273 0)
(-0.0263418 0.0284741 2.51689e-17)
(0.142968 0.159682 0)
(0.0700006 -0.00909951 1.39957e-17)
(0.044713 -0.00598737 -6.28713e-18)
(-0.17457 -0.00868137 2.27443e-17)
(-0.188506 0.0101164 5.07521e-17)
(0.0375838 -0.0181635 -1.96039e-17)
(-0.091424 0.0426283 1.52501e-17)
(0.0209396 -0.107046 0)
(0.135798 0.0944926 0)
(-0.0655198 -0.0833144 6.85251e-17)
(-0.10854 -0.0100705 0)
(0.113779 0.0270763 3.6738e-17)
(0.0536136 0.0232738 -1.01577e-17)
(-0.00614938 0.000376933 0)
(0.079136 0.160896 2.14026e-17)
(0.0409562 -0.0150134 -2.1578e-18)
(0.0776726 -0.00412029 4.7658e-17)
(-0.0917612 -0.0187019 -1.1959e-17)
(0.0443231 -0.0517375 0)
(0.109599 0.0168686 2.08824e-17)
(0.142256 0.155436 0)
(-0.0156509 0.0454853 0)
(-0.0936823 0.0106664 -4.4062e-17)
(0.0209396 -0.092465 3.10654e-17)
(0.137829 0.15264 2.17706e-17)
(0.0167611 -0.101833 -2.23932e-17)
(-0.00679554 -0.157193 2.14923e-17)
(-0.00556121 -0.159737 -2.14046e-17)
(0.017308 -0.0325462 0)
(0.109048 0.00512423 2.64765e-17)
(0.125285 -0.00366636 2.12084e-17)
(0.0351427 -0.113953 0)
(0.11772 -0.0244857 -2.65094e-17)
(0.135612 -0.0375521 2.64776e-17)
(0.0441089 -0.110715 -4.21304e-17)
(0.0164993 -0.116508 -2.21018e-17)
(0.0347606 -0.119599 2.16077e-17)
(-0.0199624 -0.148228 0)
(0.136752 0.0982466 0)
(-0.0174778 -0.153798 2.66883e-17)
(0.133831 -0.0650067 2.11645e-17)
(-0.102053 -0.195887 -2.0219e-17)
(-0.0319114 0.0362942 3.84732e-17)
(0.148907 -0.0809038 -2.64344e-17)
(-0.0571969 0.106813 1.82877e-17)
(0.142062 0.146653 5.4446e-18)
(-0.0931395 0.0792235 -2.70536e-17)
(-0.220134 0.0612394 1.60552e-17)
(0.102988 0.21384 0)
(-0.0326465 -0.144442 -5.35079e-18)
(0.138708 0.158303 0)
(0.0346698 0.0144347 -1.77613e-17)
(-0.0705985 0.0722122 4.35411e-18)
(0.116563 0.0679581 -2.1487e-17)
(0.0770092 0.0297895 -1.54048e-17)
(0.0210976 -0.122334 2.17364e-17)
(0.125734 0.0223567 -2.62163e-17)
(-0.0410937 -0.112545 -2.23349e-17)
(0.141342 0.141989 -5.4232e-18)
(-0.0122693 -0.228483 2.87569e-17)
(0.0299403 -0.0915656 2.04815e-17)
(0.0965392 -0.117001 1.59557e-17)
(-0.0821439 -0.1023 2.20477e-17)
(0.00913265 -0.167221 2.1326e-17)
(0.070885 0.0219845 2.11566e-17)
(0.107108 0.0549085 2.15439e-17)
(0.102456 0.141794 2.16917e-17)
(0.0311993 -0.0950272 0)
(0.041877 -0.0432336 -3.01687e-17)
(0.00993223 -0.101438 1.1705e-17)
(0.042285 -0.0498675 0)
(-0.0280862 -0.251218 -2.27744e-17)
(0.07651 -0.0453058 1.66168e-17)
(-0.0230884 0.0250828 1.12786e-17)
(-0.0698629 -0.113643 0)
(0.0168467 -0.143455 2.04807e-21)
(0.0901973 -0.015309 -1.67499e-17)
(-0.218262 0.0690564 0)
(0.144692 0.136097 2.71014e-17)
(0.145221 0.135981 -2.73869e-17)
(0.126715 -0.156314 5.22552e-18)
(0.145123 0.152222 2.22189e-17)
(0.107177 0.128856 5.44178e-18)
(0.0658124 -0.0583392 2.21838e-17)
(-0.0927342 -0.285263 1.92372e-17)
(-0.0836951 -0.269328 -3.6256e-17)
(0.115409 0.0336723 -2.21617e-17)
(0.14411 0.134352 2.19134e-17)
(-0.010495 -0.0986906 1.94454e-17)
(0.0284499 -0.105548 0)
(0.10354 0.00399511 0)
(0.128083 0.066309 2.16822e-17)
(-0.0912531 0.120502 2.07759e-17)
(0.038052 -0.072875 4.51793e-17)
(0.130258 0.184029 0)
(0.142315 0.118449 -2.18843e-17)
(0.00662907 -0.141915 5.43536e-18)
(0.0233901 0.0904651 0)
(0.124045 0.0101141 -3.69578e-17)
(-0.0524089 0.100047 -2.11764e-17)
(-0.0638986 -0.101197 -5.38134e-17)
(-0.0137424 -0.115089 -2.26181e-17)
(-0.0118197 -0.0104651 0)
(-0.0254226 -0.0304414 3.34548e-17)
(0.0144764 -0.155913 -5.39675e-18)
(0.0131141 -0.167585 -4.26176e-17)
(0.143104 0.135512 -2.33444e-17)
(-0.0126284 -0.131209 -5.47663e-18)
(-0.0448219 -0.135881 5.34726e-18)
(0.139988 0.104689 -5.44957e-18)
(0.02862 -0.173607 -2.12377e-17)
(0.106348 0.018159 0)
(-0.25461 0.127254 1.13863e-17)
(-0.0592445 -0.125367 -5.38327e-18)
(0.112336 -0.13332 -5.31815e-18)
(0.10411 0.150338 0)
(0.142939 0.12021 0)
(-0.0862899 0.151462 -2.10909e-17)
(0.143641 0.166739 -2.19005e-17)
(0.0346456 -0.171969 -9.39734e-22)
(-0.0311822 -0.11707 2.36566e-17)
(0.144188 0.150254 0)
(0.0375566 -0.0609397 -2.27577e-17)
(-0.00724384 -0.108046 2.99314e-18)
(0.0150058 -0.148695 -5.42047e-18)
(-0.0073991 -0.124303 -2.20204e-17)
(-0.016694 0.0022627 3.09428e-17)
(-0.0394816 0.00657882 1.05912e-17)
(0.109331 0.137107 -2.74116e-17)
(-0.0490555 -0.117387 0)
(0.13321 0.0872693 -2.1382e-17)
(0.0280773 -0.119209 0)
(0.143754 0.134361 2.187e-17)
(-0.00711674 0.0627406 9.66618e-18)
(-0.0435909 -0.131101 -2.15401e-17)
(0.132153 0.0835847 2.18753e-17)
(-0.0148412 -0.152335 -1.60475e-17)
(0.138026 0.0933202 1.60681e-17)
(0.0359448 -0.0863834 -2.26002e-17)
(0.0197272 -0.170531 0)
(0.130845 0.0770573 0)
(-0.0221461 -0.110433 2.33503e-17)
(0.0261766 -0.167217 2.14308e-17)
(0.0311898 -0.118659 0)
(0.111817 -0.00856059 -2.64104e-17)
(-0.0651656 -0.18579 0)
(0.0241297 -0.161188 -3.76604e-17)
(0.0349773 -0.0429644 0)
(-0.00374204 -0.140636 5.45338e-18)
(-0.0237595 -0.127415 0)
(-0.0707334 -0.101357 0)
(0.0205872 0.049846 0)
(0.0728391 0.0159209 2.14174e-17)
(0.129314 -0.0191718 0)
(0.00298777 -0.125872 2.1941e-17)
(0.125651 0.198305 0)
(0.0502815 -0.176544 0)
(0.0168823 -0.167083 0)
(0.032926 -0.175499 1.23413e-21)
(0.145821 0.12144 -2.16665e-17)
(0.0299498 -0.158139 2.66204e-17)
(-0.126866 -0.236645 -1.84477e-17)
(0.0301452 -0.108628 0)
(0.118763 0.20621 -5.82762e-18)
(0.137576 -0.164397 2.09919e-17)
(-0.0239328 0.0757358 2.2096e-17)
(-0.113085 -0.232778 -1.87191e-17)
(-0.0591695 -0.110804 5.65395e-18)
(0.0130446 0.0346784 -2.15635e-17)
(0.144641 0.145371 0)
(0.0424929 -0.150821 0)
(-0.0411979 0.0641558 0)
(0.00791666 -0.117025 2.19855e-17)
(-0.0295627 0.0721425 0)
(0.0515585 -0.18039 0)
(0.00878985 0.0191002 0)
(0.14127 0.108662 5.43016e-18)
(0.147106 0.101644 1.59948e-17)
(0.0814197 0.172579 -1.13287e-21)
(0.0391442 -0.126987 5.35346e-18)
(0.00448002 -0.160351 -2.15067e-17)
(0.030488 -0.0922976 -5.50922e-18)
(0.141499 -0.15784 0)
(0.0937329 0.138326 -2.25256e-17)
(0.127953 -0.168113 -2.62058e-17)
(-0.00649712 -0.147001 -5.41165e-18)
(0.123979 0.190518 0)
(0.0586732 -0.180553 0)
(0.145708 0.131345 -1.44148e-21)
(0.0843775 -0.0299812 0)
(0.00181999 -0.160655 -5.33588e-18)
(-0.128802 0.149252 1.99918e-17)
(0.0846508 0.0356504 -2.14556e-17)
(0.148279 0.103958 -2.13419e-17)
(0.129073 0.176755 0)
(0.0365669 -0.170659 0)
(0.0715183 -0.18183 -2.11201e-17)
(0.0577107 -0.17347 2.11417e-17)
(0.119091 0.0480871 0)
(0.110759 0.204475 0)
(0.125304 0.0886823 0)
(0.0381891 -0.177226 -2.12289e-17)
(0.0253307 -0.0688801 4.50162e-17)
(0.150459 -0.153529 5.23713e-18)
(0.113655 0.12566 -2.71506e-17)
(0.121516 0.0776106 -5.34619e-18)
(0.0182128 -0.131968 -2.17725e-17)
(0.13471 0.170728 2.19379e-17)
(0.0726415 0.026039 -2.69077e-17)
(-0.0401338 0.0466399 0)
(0.141974 0.0963689 0)
(-0.0011388 -0.00172473 0)
(0.16167 -0.146686 5.23498e-18)
(0.120684 -0.172557 5.26427e-18)
(0.135582 0.0902081 0)
(0.023949 -0.136637 0)
(0.16963 -0.13449 -2.09431e-17)
(0.133677 0.164219 0)
(0.125685 -0.0433792 0)
(0.110918 -0.175545 -1.58148e-17)
(0.0800227 -0.180688 2.1102e-17)
(0.117491 0.0825115 2.1359e-17)
(0.15309 -0.152613 -5.2338e-18)
(-0.0139978 0.00620664 5.43342e-18)
(0.0729543 -0.176589 0)
(0.0946078 -0.178931 2.10999e-17)
(-0.164552 0.0789724 -1.34457e-17)
(0.14272 -0.0584135 0)
(0.041084 -0.175287 1.59928e-17)
(-0.0268852 -0.141474 2.14868e-17)
(0.156854 0.0760409 2.65107e-17)
(-0.0179604 -0.143628 0)
(0.0565147 0.0410733 -6.7681e-21)
(0.0917041 -0.180162 0)
(0.0425516 0.0355999 -7.05539e-18)
(0.16148 -0.141544 1.57129e-17)
(0.168732 -0.126217 -1.57303e-17)
(0.0464871 -0.147575 2.13872e-17)
(0.0234616 -0.0266649 9.281e-18)
(-0.0128432 -0.01154 0)
(0.174801 -0.130937 0)
(-0.142035 0.135878 1.83058e-17)
(0.121239 -0.156379 0)
(0.086252 0.0443964 2.68695e-17)
(0.0814573 -0.172581 0)
(0.117503 -0.169324 0)
(0.171409 -0.134372 -2.61888e-17)
(0.141571 0.0816852 2.12493e-17)
(0.139616 0.0945991 0)
(0.142196 0.0785734 -6.21535e-21)
(0.107772 0.0592207 2.13806e-17)
(0.149194 0.0704707 -5.31214e-18)
(0.203365 -0.0573868 -2.10416e-17)
(0.140682 0.0596916 -5.29882e-18)
(0.137085 -0.162149 5.2385e-18)
(0.152114 0.066277 -4.24192e-17)
(0.14307 -0.149928 2.62068e-17)
(0.135162 0.0942522 0)
(0.104938 -0.16948 0)
(0.154988 0.0801283 0)
(0.030297 0.0266195 0)
(0.132795 -0.142711 -5.24535e-18)
(0.13023 -0.149505 -5.24838e-18)
(0.13591 -0.153927 5.24294e-18)
(0.1947 -0.0543235 -2.10691e-17)
(0.103477 0.0712149 -2.14083e-17)
(0.0873359 0.144658 4.32853e-17)
(0.127001 -0.164138 -5.24543e-18)
(0.0957402 -0.174179 0)
(0.145767 -0.132604 5.28981e-18)
(0.140855 -0.139681 0)
(0.132923 -0.126092 -2.10331e-17)
(0.0391733 -0.11997 1.60232e-17)
(0.146355 -0.156586 5.24047e-18)
(0.110295 0.065446 5.34623e-18)
(0.205264 -0.0420899 2.10674e-17)
(0.139273 -0.122582 -5.25576e-18)
(0.125892 -0.106886 -3.68521e-17)
(0.16539 -0.109561 -1.57558e-17)
(0.153034 -0.10365 1.58583e-17)
(0.0198279 0.0271347 -1.03106e-17)
(0.0477184 -0.164662 -2.65788e-17)
(0.138935 0.0931306 0)
(0.15418 -0.124917 -5.24349e-18)
(0.117181 0.0572703 5.3194e-18)
(0.147333 -0.111308 -5.25475e-18)
(0.151969 -0.142987 -1.57188e-17)
(0.0572384 0.0430956 -2.12978e-17)
(0.0595896 0.0415395 0)
(0.115335 0.0729075 0)
(0.0707972 -0.173368 -5.31238e-18)
(0.207431 -0.0333717 -4.74527e-17)
(0.108442 0.0664486 -2.1312e-17)
(0.166595 -0.125862 5.23891e-18)
(0.171555 0.0411708 -5.29551e-18)
(0.167003 -0.0532371 -2.11123e-17)
(0.158427 -0.124073 5.24749e-18)
(-0.100389 0.0487879 -3.00492e-19)
(0.0253425 0.0308252 0)
(0.17402 -0.119764 1.57258e-17)
(0.177732 0.0475471 2.64586e-17)
(0.164194 -0.026534 0)
(0.129802 -0.10287 2.10564e-17)
(-0.0112864 0.0139517 1.08362e-17)
(0.191445 -0.0342951 2.63844e-17)
(-0.0688013 0.0405803 0)
(0.163361 -0.0368845 1.58523e-17)
(0.0966148 0.0482777 -2.13396e-17)
(0.174637 -0.0317503 -5.29121e-18)
(0.185371 -0.0597596 4.49541e-21)
(0.0873851 0.053104 -1.60201e-17)
(0.114265 0.0798451 1.61331e-17)
(0.159231 -0.0466978 -2.64013e-17)
(0.143129 0.0721592 -5.31316e-18)
(0.150647 -0.10569 -5.25695e-18)
(0.0651543 0.0428065 0)
(0.172095 0.0342228 2.11709e-17)
(0.189868 -0.0473675 0)
(0.191854 -0.0851226 1.57512e-17)
(-0.0923071 0.0370167 1.91169e-17)
(-0.0855945 0.033263 0)
(0.166756 -0.0208011 -2.11684e-17)
(0.17307 -0.0583391 0)
(0.116256 -0.114007 4.22884e-17)
(0.197528 -0.0407087 0)
(-0.118546 0.0385545 -2.04427e-17)
(0.176248 -0.0992011 2.6248e-17)
(0.139548 -0.0318445 -1.5991e-17)
(0.172428 -0.0429141 -4.50684e-21)
(0.180342 -0.0779885 5.26076e-18)
(0.164168 0.0105015 -2.64286e-17)
(0.140907 -0.0234009 2.13464e-17)
(0.108345 0.0649624 2.13139e-17)
(-0.0423657 0.0342639 -1.18107e-17)
(-0.0356076 0.00692104 2.01817e-17)
(-0.0388672 -0.0250601 1.34257e-18)
(-0.0383098 0.0550331 2.51736e-18)
(-0.0240863 -0.0131192 1.38126e-21)
(-0.0434323 0.0172818 -4.32756e-17)
(-0.0397193 -0.0155042 0)
(-0.0361162 0.00416872 -1.88049e-17)
(-0.0404051 -0.0134416 -3.15538e-17)
(-0.0228311 0.0289739 -5.58334e-17)
(-0.0403359 -0.0195404 -2.14275e-17)
(-0.0335812 0.0127206 0)
(-0.0451417 0.0344297 3.1023e-17)
(-0.0348281 -0.0285742 2.15949e-17)
(-0.0435351 0.0271215 2.31702e-17)
(-0.0343067 -0.00205518 0)
(0.152757 -0.0909701 1.57916e-17)
(-0.0449335 -0.00971897 -3.32101e-17)
(-0.0445871 0.0179579 0)
(0.1582 -0.0619276 -5.27683e-18)
(-0.253258 0.11324 0)
(0.134881 -0.039508 -1.58942e-17)
(0.177726 -0.0706857 5.26287e-18)
(-0.0637316 0.0368583 0)
(-0.201979 -0.0846767 0)
(0.13326 -0.0910261 5.26853e-18)
(0.159754 0.0277322 -2.11998e-17)
(0.113541 0.0593922 -5.32315e-18)
(0.206694 -0.0492505 1.57939e-17)
(0.128084 0.0210924 -3.72156e-17)
(0.168611 -0.107025 5.27983e-18)
(0.130782 0.0332807 -1.57754e-17)
(0.111333 0.0777999 0)
(-0.0224055 0.0257221 -8.75287e-21)
(0.203892 -0.064943 2.62896e-17)
(0.1011 -0.17801 -5.25932e-18)
(0.103013 0.0467995 7.86221e-21)
(0.154348 0.0181579 -1.57805e-17)
(0.104265 -0.093297 -5.32943e-18)
(0.145257 0.0556437 4.24305e-17)
(-0.183296 -0.10748 1.92868e-17)
(0.134945 0.0646868 4.78517e-17)
(0.156883 0.0310471 -2.63363e-17)
(0.199001 -0.0720036 -1.57665e-17)
(0.151702 -0.0552098 2.63933e-17)
(0.0769748 0.0400033 -4.29666e-17)
(-0.0168609 0.0194735 2.1414e-17)
(0.150181 -0.144891 -2.62058e-17)
(0.124585 -0.0340959 2.12541e-17)
(0.128199 -0.0268443 -4.52349e-21)
(0.133763 0.0940283 0)
(0.000587461 0.0267598 3.62942e-17)
(0.144982 0.0274037 1.59242e-17)
(0.128832 -0.0194667 2.16077e-17)
(0.0788638 0.0390284 4.20702e-17)
(0.188932 -0.0623994 2.10839e-17)
(0.182869 0.0104368 5.2935e-18)
(0.188821 -0.0815456 -1.57878e-17)
(0.13346 -0.0853997 -2.10833e-17)
(0.187844 -0.0436088 5.2776e-18)
(0.186355 -0.0257679 0)
(0.184957 -0.00905869 -5.28643e-18)
(0.186837 -0.100141 -5.24995e-18)
(0.00107217 0.0210412 -2.1435e-17)
(0.100072 -0.0961723 4.22483e-17)
(-0.156087 -0.147122 -1.95994e-17)
(0.183961 0.00647469 -1.58586e-17)
(0.131168 0.0486949 -2.12349e-17)
(0.183305 0.0208368 -1.58436e-17)
(-0.252405 0.0240599 5.23298e-18)
(0.0636517 0.0308627 1.5485e-17)
(0.0854408 0.0535104 2.1363e-17)
(-0.253391 0.0552309 1.02757e-17)
(-0.247165 0.0854873 0)
(-0.22133 -0.0681748 -1.12173e-17)
(-0.124989 -0.155542 -3.6091e-17)
(-0.101513 0.130422 4.23785e-17)
(-0.232305 -0.041495 4.87763e-18)
(0.166747 -0.0792505 -2.10487e-17)
(0.140608 -0.0614605 5.27954e-18)
(-0.165859 0.134999 0)
(-0.246359 -0.00918531 -4.32411e-17)
(-0.169135 -0.138454 0)
(0.182729 0.0341567 -2.64228e-17)
(-0.00311023 0.0147119 2.14014e-17)
(0.117634 -0.0401906 2.11858e-17)
(0.174411 -0.118167 -2.09595e-17)
(0.050253 0.0180841 2.65575e-17)
(0.00606945 0.0151695 -2.14367e-17)
(0.194713 -0.0737683 0)
(0.0159212 -0.0014441 -4.27773e-17)
(0.0883757 0.0376981 -2.55968e-17)
(0.192888 -0.0922203 2.62889e-17)
(0.116131 0.021491 2.1286e-17)
(0.194779 -0.0549417 -1.58102e-17)
(0.193749 -0.0365324 0)
(0.192255 -0.0190722 5.28656e-18)
(0.179617 0.00267319 -1.05695e-17)
(0.181614 -0.123715 -5.23857e-18)
(0.191958 0.0144414 1.5847e-17)
(0.190705 -0.00272465 0)
(0.0968988 -0.0138748 2.3434e-17)
(0.126938 -0.0461131 -2.64803e-17)
(0.189149 0.0124546 4.75245e-17)
(0.0984428 -0.0269233 0)
(0.0716536 -0.0282887 1.05987e-17)
(0.145866 -0.0681446 0)
(0.198701 -0.0797403 5.25301e-18)
(0.0946948 -0.0457838 -2.64944e-17)
(-0.0203868 0.0135487 -1.85096e-17)
(0.164137 -0.140614 1.57146e-17)
(0.090828 -0.0312014 0)
(0.116628 -0.0502216 -2.7915e-17)
(0.0916537 0.0619827 2.14177e-17)
(0.152145 -0.0844858 -5.26553e-18)
(0.105935 -0.0167237 -2.32623e-17)
(0.186756 0.0383683 -2.11351e-17)
(-0.15879 0.108857 -5.3046e-18)
(0.187528 0.0263866 0)
(0.110712 -0.0858108 0)
(0.197467 -0.0909777 -5.2492e-18)
(0.181631 -0.0958058 0)
(0.168033 -0.102977 2.62612e-17)
(0.081719 -0.0557583 0)
(0.195059 -0.0981314 5.24782e-18)
(0.164033 0.0549911 0)
(0.203421 -0.0568364 1.57893e-17)
(0.0580102 -0.00207379 0)
(0.168373 -0.0863036 2.10487e-17)
(0.166714 0.0370432 5.28377e-18)
(0.15861 0.0210699 3.70918e-17)
(0.190762 -0.0927799 -2.62545e-17)
(0.182291 -0.117024 0)
(0.137856 0.0443959 0)
(0.0864122 0.00279265 2.08836e-17)
(0.10864 -0.0445027 3.27199e-17)
(0.0811906 -0.0264184 0)
(0.111451 -0.0684277 0)
(0.164863 0.0242141 3.69142e-17)
(0.201562 -0.00631887 2.11018e-17)
(0.107191 0.00738113 -5.40933e-18)
(0.156851 0.0874564 0)
(0.126782 0.0159113 2.12613e-17)
(0.162456 -4.04576e-05 1.05919e-17)
(0.166203 0.0746711 -5.29774e-18)
(0.0842601 0.0340137 0)
(0.121667 0.0376243 5.28866e-18)
(0.0820334 0.00736995 -9.56567e-18)
(0.166301 0.0656652 0)
(0.168664 0.0491034 0)
(0.170378 0.0128485 -1.05812e-17)
(0.188652 -0.109272 5.24305e-18)
(0.183269 0.0253801 -1.05753e-17)
(0.0229446 0.00146955 5.34487e-18)
(0.081954 -0.0338866 1.05684e-17)
(0.0380615 -0.00431759 1.00817e-17)
(0.181482 0.0463728 0)
(0.185296 0.0391069 1.05648e-17)
(0.18319 0.0330812 -5.58299e-21)
(0.14074 0.0154843 5.30953e-18)
(0.12561 0.083013 0)
(0.191302 0.035124 5.28241e-17)
(0.1299 -0.0710998 2.64023e-17)
(0.169667 0.0600774 -5.29381e-18)
(0.0938026 0.00636898 -1.58532e-17)
(0.160525 0.0433467 0)
(0.108484 -0.0637945 -2.74584e-17)
(0.100175 -0.0507967 3.73587e-17)
(0.190917 -0.105918 -5.24393e-18)
(0.125422 -0.0647501 5.28246e-18)
(0.0864618 -0.0711486 2.25279e-17)
(0.172664 0.0202038 -3.17642e-17)
(0.14929 0.0904903 0)
(0.151332 0.0958748 -2.6577e-17)
(0.110112 0.011532 0)
(0.201473 -0.0742938 -2.1024e-17)
(0.178757 0.0571034 4.76032e-17)
(0.12917 0.0707637 -6.49462e-21)
(0.0434607 -0.0187553 2.13475e-17)
(0.203468 -0.00316747 2.63905e-17)
(-0.0427647 0.0239535 0)
(0.20108 -0.0830419 -5.25206e-18)
(0.204593 -0.066462 1.57657e-17)
(0.127003 0.0830657 0)
(0.0955207 0.0195777 5.61387e-18)
(0.15638 0.0704274 2.12238e-17)
(0.181432 -0.118047 -1.57272e-17)
(-0.142984 0.118634 0)
(0.195903 0.0226378 0)
(0.184848 0.0458353 0)
(0.111564 0.0327506 0)
(0.186138 -0.110735 2.09707e-17)
(0.110862 0.117439 2.70875e-17)
(0.0650136 -0.044625 -2.13562e-17)
(0.168739 0.0695312 -5.29516e-18)
(0.12912 0.0487953 -2.12721e-17)
(0.189052 -0.0670194 1.57952e-17)
(0.103596 0.0179208 0)
(-0.103187 0.0569501 5.29004e-18)
(0.100173 0.0644558 4.80462e-17)
(0.158298 0.0838029 0)
(0.19348 0.0270564 -2.64069e-17)
(0.107253 0.0727011 -5.33546e-18)
(0.137294 0.0607205 -1.59496e-17)
(0.149552 0.0874976 0)
(0.148181 0.00219873 -5.06134e-21)
(0.175876 0.0542658 -4.23417e-17)
(0.117982 0.00600351 -5.4135e-18)
(0.083519 -0.036337 0)
(0.0960683 0.0666749 0)
(0.0839701 -0.0616763 -1.74952e-17)
(0.0591314 -0.0511229 5.36402e-21)
(0.181775 0.0503759 -2.11526e-17)
(0.192129 0.0226866 -1.58474e-17)
(0.164823 0.076665 -2.12001e-17)
(0.111215 -0.0812232 0)
(0.0874384 0.0113817 2.49377e-17)
(0.152767 0.00851461 1.0705e-17)
(0.162612 0.081111 -5.45922e-21)
(0.100899 0.0138423 -5.42326e-18)
(0.0703527 0.0442967 0)
(-0.104625 0.0756311 -3.68375e-17)
(-0.108926 0.05875 -4.26855e-17)
(0.0836406 0.0386683 0)
(0.117643 0.0533182 2.13037e-17)
(0.165385 0.0717204 2.11954e-17)
(0.152591 -0.129335 0)
(0.118412 0.0773129 -2.13146e-17)
(-0.0122749 0.00372218 -2.13472e-17)
(-0.0375302 0.0231226 2.19399e-17)
(0.151837 0.0934636 1.59429e-17)
(0.0975488 0.0472442 0)
(-0.00244943 -0.0204934 -2.12274e-17)
(0.1495 0.0628687 -2.12309e-17)
(0.137926 0.00970214 5.40862e-18)
(0.0374369 -0.0243305 0)
(0.15542 0.0885795 0)
(0.130958 0.0680935 -1.59469e-17)
(-0.00736505 -0.00572001 2.13548e-17)
(0.127341 0.0532556 -5.32028e-18)
(0.109059 0.0476818 0)
(-0.0109192 -0.0137771 0)
(0.206062 -0.0493043 -3.6846e-17)
(0.202069 -0.000296484 -5.27609e-18)
(0.0845917 -0.0739617 5.66655e-18)
(0.173673 0.0657865 2.64727e-17)
(0.198802 0.0104801 1.58367e-17)
(0.198368 0.00185781 -3.69501e-17)
(0.153795 0.0745897 -2.65331e-17)
(0.154982 0.0843003 -2.1229e-17)
(0.153888 0.0914567 2.65566e-17)
(0.15725 0.0807943 4.7755e-17)
(0.199198 0.00875345 1.5835e-17)
(0.198453 0.0140591 -1.58297e-17)
(0.0890399 0.0563935 -5.43953e-18)
(0.179756 -0.103054 0)
(0.167818 0.0665266 -4.2383e-17)
(0.204546 -0.0158119 -2.11055e-17)
(0.100268 0.0374776 -2.1329e-17)
(-0.062324 0.0324595 2.1245e-17)
(0.176205 0.0597124 -2.11639e-17)
(0.127735 0.0793237 0)
(0.142728 0.0958751 0)
(0.00966706 -0.133846 0)
(0.20383 -0.0393657 2.10782e-17)
(0.0938566 0.0550515 0)
(0.0968889 0.0643426 -1.60147e-17)
(0.118249 0.0422113 0)
(0.0796505 0.0540519 0)
(0.119953 0.0845095 0)
(0.130687 0.0893269 -5.32653e-18)
(0.109238 0.0430476 0)
(0.157901 -0.140061 2.09575e-17)
(0.203122 -0.0224285 -5.27562e-18)
(0.148977 0.0959216 0)
(0.0734461 0.047198 -2.71321e-17)
(0.0214546 -0.0375044 -2.13919e-17)
(0.104512 0.0719552 0)
(0.20592 -0.0322492 5.27208e-18)
(0.0878776 -0.129484 0)
(0.0361197 -0.0993038 1.60589e-17)
(0.11388 0.0793252 0)
(0.048702 0.0276322 0)
(0.0480649 -0.0660276 -2.13571e-17)
(0.138092 0.0916102 0)
(0.148492 0.090222 -2.1257e-17)
(0.124083 0.0841597 5.32909e-18)
(-0.0516531 0.0256372 0)
(0.190402 -0.000958565 1.586e-17)
(0.13386 0.0849004 5.32268e-18)
(0.010378 0.000757065 0)
(0.0565595 0.0328786 -1.45947e-17)
(0.197743 -0.0268891 -2.64118e-17)
(0.0224283 -0.0288491 -6.14532e-21)
(0.144891 0.0976962 -2.13156e-17)
(0.0567817 0.0287095 2.15178e-17)
(0.146791 0.0922816 -2.12673e-17)
(0.116564 0.0261215 0)
(0.0863065 0.0511659 -1.60777e-17)
(0.141569 0.096764 0)
(0.173704 -0.020516 -2.12015e-17)
(0.144451 0.0848936 0)
(0.141579 0.0500608 5.31708e-18)
(0.148535 0.102801 5.3297e-18)
(0.140618 0.0755183 0)
(0.147439 0.0955139 5.3189e-18)
(0.0690398 0.0429471 1.87196e-17)
(0.139606 0.0901831 1.59611e-17)
(0.12648 0.054596 0)
(0.145005 0.0331992 -1.59254e-17)
(-0.0180877 -0.00766631 0)
(0.0747643 0.0504087 0)
(0.0624646 0.0398205 -1.92853e-17)
(0.148021 0.097543 0)
(-0.011032 -0.0197044 0)
(0.0980457 0.0236278 -5.56394e-18)
(0.0684453 -0.0914376 2.66073e-17)
(0.14851 0.100884 -2.12967e-17)
(0.163939 0.059924 -2.1197e-17)
(-0.055279 -0.114027 2.20334e-17)
(0.0365446 0.0112976 2.18674e-17)
(0.142978 0.0951657 0)
(0.135664 0.0827384 -5.32084e-18)
(0.0831542 0.0562448 0)
(0.0249653 -0.0374514 -1.10283e-17)
(0.148669 0.0994058 4.10294e-21)
(0.139997 0.0876768 0)
(0.138749 -0.0150933 -2.69961e-17)
(0.0883955 0.0605625 0)
(0.0975987 0.0621532 -5.34872e-18)
(0.0468539 0.0160382 1.70974e-17)
(0.0452872 -0.0755562 2.1338e-17)
(0.147959 0.101101 2.1301e-17)
(0.143399 0.0450771 1.59365e-17)
(0.0624485 0.0382837 -8.98252e-18)
(0.16602 0.0541755 4.23875e-17)
(0.148126 0.0977726 2.12911e-17)
(0.103128 0.0650431 -5.35208e-18)
(0.122352 0.0795375 0)
(0.141831 0.101204 0)
(0.100795 0.110956 2.16714e-17)
(0.151934 0.0581794 1.59234e-17)
(0.16193 -0.0162665 2.69553e-17)
(0.0518741 -0.0702046 -5.28155e-18)
(0.146716 0.082211 0)
(0.0358203 -0.0533207 0)
(0.206318 -0.0178806 0)
(-0.107047 0.0305427 -2.12059e-17)
(0.117967 0.0719296 0)
(0.09511 0.115233 -2.20327e-17)
(-0.0900995 0.063228 3.72955e-17)
(0.0860772 0.0566204 4.27147e-17)
(0.112281 0.0692006 -2.13287e-17)
(0.190273 -0.0212162 0)
(0.113851 0.0664116 -2.1323e-17)
(0.15729 0.0466745 0)
(0.13366 0.0876266 0)
(0.137437 0.0975696 0)
(0.0954215 0.0613755 1.62234e-17)
(0.145596 0.132368 0)
(-0.0402134 -0.12903 0)
(0.130975 0.032342 0)
(0.0682438 0.0393233 0)
(0.0682036 -0.179227 -5.30815e-18)
(0.146513 0.121977 0)
(0.204975 -0.0267873 2.63721e-17)
(0.146902 0.102831 -5.33043e-18)
(0.144385 0.142676 0)
(0.116525 0.0576636 -2.13079e-17)
(0.158505 0.0407083 -5.30191e-18)
(0.0275843 -0.0470766 5.50212e-18)
(0.129251 0.0896873 0)
(0.0562104 0.0299183 -2.09371e-17)
(0.14808 0.105071 -2.13843e-17)
(0.107549 0.0279035 5.43065e-18)
(0.0839156 0.051704 -1.61771e-17)
(0.0974929 0.0505167 2.72027e-17)
(0.0599658 -0.0866694 -2.1211e-17)
(0.146294 0.103589 0)
(0.0170772 -0.0573219 0)
(-0.0490495 -0.0163376 0)
(0.0980768 0.123705 0)
(0.0999629 0.0672631 -1.61913e-17)
(0.147491 0.10685 -5.36757e-18)
(0.147566 0.106287 2.14004e-17)
(-0.243776 0.187161 1.24202e-17)
(0.106844 0.0566248 -5.37999e-18)
(0.0199484 -0.031297 2.22154e-17)
(0.111299 0.0712641 0)
(0.0811055 0.0545347 -1.71805e-17)
(0.13076 0.0737681 5.32241e-18)
(0.20268 -0.0120005 0)
(0.145139 0.0999613 -2.13182e-17)
(0.12888 0.0767125 5.3239e-18)
(0.144089 0.132548 -2.70423e-17)
(0.0722565 -0.107177 0)
(0.148722 0.107314 -4.28775e-17)
(0.0970959 0.102067 0)
(0.144978 0.111852 0)
(0.0272589 -0.0797413 5.49907e-18)
(0.144196 0.117175 0)
(0.103171 0.073738 -1.62267e-17)
(0.0899118 0.0577278 -5.40059e-18)
(0.0421003 -0.0693804 -2.67003e-17)
(0.130152 0.0373659 5.31857e-18)
(0.118946 0.0375311 0)
(0.0853197 -0.17834 -4.23109e-17)
(0.0281326 -0.00684303 5.26626e-18)