/*--------------------------------*- C++ -*----------------------------------*\
  =========                 |
  \\      /  F ield         | OpenFOAM: The Open Source CFD Toolbox
   \\    /   O peration     | Website:  https://openfoam.org
    \\  /    A nd           | Version:  9
     \\/     M anipulation  |
\*---------------------------------------------------------------------------*/
FoamFile
{
    format      ascii;
    class       volScalarField;
    location    "0.79";
    object      p;
}
// * * * * * * * * * * * * * * * * * * * * * * * * * * * * * * * * * * * * * //

dimensions      [0 2 -2 0 0 0 0];

internalField   nonuniform List<scalar> 
578
(
-5.73265e-14
-1.18051e-13
-4.77305e-14
-2.86263e-14
-1.03441e-13
3.03196e-14
7.47617e-14
-8.41541e-14
-8.36927e-14
-1.6606e-13
3.2589e-15
-8.60091e-14
-3.27519e-14
-1.0106e-13
6.7876e-14
-2.64918e-14
-6.663e-14
-6.08019e-14
-6.8728e-14
-6.34683e-14
-2.80399e-14
-2.18423e-14
-4.9214e-15
-6.38419e-15
-7.3758e-15
-6.16948e-14
-3.76093e-14
-4.383e-14
-9.18881e-14
-2.29099e-14
-3.9281e-14
3.77229e-14
-5.07357e-14
-2.44986e-14
6.04893e-14
-5.36909e-14
-9.12983e-14
-7.92974e-14
-2.0706e-14
-1.1692e-13
-9.67358e-14
-7.60366e-14
-9.08487e-14
7.10321e-14
-4.45979e-14
9.3945e-14
6.84022e-14
-8.87584e-14
-2.25125e-14
-3.93966e-14
6.14726e-14
-3.28381e-14
6.23006e-14
-2.58665e-14
-3.4332e-14
-6.50401e-14
-6.03042e-15
-1.06313e-14
-4.41273e-14
-7.02174e-14
-6.42472e-14
-8.28453e-14
-7.98881e-14
-1.10876e-13
-3.48512e-14
6.39023e-14
-3.82241e-14
1.44727e-14
3.87745e-15
-6.07898e-14
-2.13421e-14
3.47152e-14
-3.45097e-14
-7.21359e-14
1.27888e-15
-1.17617e-13
-1.00492e-13
-8.66229e-14
-3.41485e-14
3.88823e-14
4.61473e-14
-9.28891e-14
8.04756e-14
7.50686e-14
6.09181e-16
5.43463e-14
7.61344e-14
-5.27305e-14
-7.04627e-14
4.91265e-14
-3.7266e-14
2.14984e-14
6.01379e-14
-3.10979e-14
1.08124e-14
3.7883e-14
-3.4642e-14
-3.43562e-14
-1.58341e-13
6.88736e-14
6.04885e-14
-6.77739e-14
-3.739e-14
2.85098e-14
-3.59378e-14
-1.00204e-13
4.90764e-15
-1.18057e-13
6.44648e-14
-1.07775e-13
-5.02655e-14
-6.39857e-14
-6.90323e-14
2.44901e-14
2.98359e-14
-3.6315e-14
-2.96835e-14
-6.89228e-14
4.75591e-14
-3.52244e-14
-5.42004e-14
1.13058e-13
-7.664e-14
-2.9227e-14
5.58179e-14
3.26711e-14
3.34461e-14
-2.45698e-14
5.79416e-14
8.86861e-15
5.97913e-14
2.91121e-14
-3.08675e-14
-5.80533e-14
5.34956e-14
4.96239e-14
-1.00677e-13
-3.6145e-14
7.65377e-15
6.01538e-14
6.58844e-14
1.86296e-14
5.82869e-14
-5.17302e-14
-6.7008e-14
5.19784e-15
2.24184e-14
-4.14449e-14
-7.63988e-14
-6.31311e-16
-9.07283e-14
1.37078e-14
-1.10238e-13
-5.29105e-14
6.80504e-14
-3.94839e-14
-7.62943e-14
-3.00598e-14
6.60725e-14
-9.25891e-14
-9.60529e-14
-9.49205e-14
6.9363e-14
-8.88757e-14
-6.55321e-14
1.9439e-14
-5.41055e-14
6.88111e-14
-2.77887e-14
-3.46674e-14
-8.35088e-14
-1.03034e-13
5.13312e-14
4.47111e-14
6.7395e-14
-3.55397e-14
-3.40044e-14
-6.57428e-14
-8.97581e-14
-8.56482e-14
7.46441e-14
-9.65018e-14
4.32656e-14
-3.39168e-14
5.15974e-14
-3.98794e-14
-2.76025e-14
7.75896e-14
6.57814e-14
-1.1072e-13
-9.52065e-14
-9.36619e-14
4.28503e-15
6.67896e-14
-1.33477e-13
-3.35338e-14
-2.4312e-14
-4.34057e-14
6.242e-14
-9.45261e-14
-2.91987e-14
-3.28369e-14
1.19517e-13
-3.59972e-14
-3.4693e-14
-9.52101e-14
5.95147e-14
-2.05171e-14
-9.33514e-14
-7.98852e-15
1.19996e-14
6.02548e-14
5.1173e-14
-3.29843e-14
5.27889e-14
-3.02731e-14
6.54652e-14
-9.46854e-14
6.64586e-14
2.78758e-14
-9.31463e-14
6.74386e-14
-3.86427e-14
-9.64287e-14
7.36064e-14
3.21914e-14
-3.25901e-14
-2.6454e-14
-4.19176e-14
-9.31434e-14
-1.49789e-13
1.12233e-13
5.01853e-14
-3.32553e-14
3.21101e-14
-7.8264e-14
-9.76913e-14
6.96156e-14
-3.18759e-14
-1.44555e-14
7.26789e-14
-1.02568e-13
-3.43855e-14
7.37737e-14
-4.29877e-14
-6.84218e-14
6.13571e-14
-1.50403e-13
4.15921e-14
-3.14644e-14
-3.33504e-14
4.36084e-14
4.76323e-14
9.21916e-15
3.88057e-14
-2.0568e-14
-7.9428e-14
5.96765e-14
-8.44185e-14
9.68834e-14
-3.16313e-14
7.4157e-14
-2.41846e-14
-2.27778e-14
-9.71731e-14
-4.68497e-14
2.21956e-14
-1.60323e-14
-1.2838e-13
2.6714e-14
-2.71823e-14
2.53325e-14
1.15599e-14
-3.29245e-14
-3.21361e-14
-3.12336e-14
-3.56436e-14
1.38054e-14
6.6586e-14
-2.78711e-14
-9.93051e-14
-3.33983e-14
-3.26071e-14
-3.24381e-14
-3.07496e-14
5.82725e-14
-3.94251e-14
3.41383e-14
-1.89528e-14
-2.3123e-14
1.0572e-14
4.10672e-14
-3.65552e-14
5.86944e-14
-2.49061e-14
-2.33702e-14
-9.79427e-14
-9.64015e-15
-3.68141e-14
-2.52732e-14
-3.01573e-14
-1.1483e-14
-3.23113e-14
-4.47492e-14
-2.35179e-14
-3.01352e-14
-6.14584e-16
-7.50127e-14
-2.85936e-14
-3.01983e-14
-2.54868e-14
-3.54292e-14
-2.96432e-14
-1.30364e-14
-2.49086e-14
-3.23066e-14
3.77635e-14
-1.05331e-14
-2.29262e-14
-2.51777e-14
3.96313e-14
-3.25117e-14
-3.30632e-14
-1.453e-14
-3.46876e-14
-3.51987e-14
5.89968e-14
6.73792e-14
-9.29573e-14
-3.58082e-14
-3.56348e-14
4.839e-14
-3.23763e-14
-3.45985e-14
4.81749e-14
-2.01741e-14
-3.12313e-14
-3.40694e-14
-5.68476e-14
-3.64952e-14
-3.24219e-14
-3.24343e-14
-3.52459e-14
-6.65887e-14
-2.52105e-14
4.40081e-14
1.31612e-14
5.53919e-14
-6.92831e-14
6.3319e-14
-7.83697e-14
-8.8164e-14
6.66586e-14
-5.38629e-14
-1.13183e-13
8.55087e-14
-1.87148e-14
7.9312e-14
-1.2108e-13
8.28774e-14
-2.89129e-14
-5.50983e-14
-2.1347e-14
-5.40342e-14
-2.87806e-14
-2.21983e-14
-3.46938e-14
3.49866e-14
-3.1745e-14
-2.57839e-14
-8.16779e-14
-8.68068e-14
9.24325e-15
1.496e-14
1.00659e-14
7.85523e-14
-3.71383e-14
6.26204e-14
-8.11667e-14
-3.99279e-14
-3.5206e-14
-8.45335e-14
6.77721e-14
-1.19183e-14
-1.88719e-14
-2.79388e-14
-2.24092e-14
8.02792e-14
7.2788e-14
-6.30413e-14
-3.34968e-14
-9.67376e-15
-7.55332e-15
-2.21805e-14
-2.73418e-14
-1.62451e-14
4.22007e-14
-4.37315e-14
-1.25832e-14
-6.29756e-15
-1.94286e-14
2.37354e-14
-2.29789e-14
-7.32356e-14
-3.62176e-14
-3.50811e-14
2.03892e-14
-4.35943e-14
-2.10845e-15
2.02392e-14
-3.06881e-14
-8.59569e-14
-6.19585e-14
3.67349e-14
-4.64102e-14
3.0197e-15
-7.5303e-14
5.36961e-14
-9.54264e-14
-3.87346e-14
6.14723e-14
8.6395e-15
-8.05951e-14
7.32095e-14
4.84561e-14
-3.60758e-14
-5.36831e-14
-7.7118e-14
-6.7499e-14
-3.32813e-14
3.38706e-14
-1.38736e-14
-4.84664e-15
-3.33432e-14
4.28457e-14
-4.77057e-14
-8.32728e-14
-6.62095e-14
-4.53163e-14
-4.44068e-14
-5.91874e-14
-3.01118e-14
-2.93539e-14
-3.75646e-14
4.63766e-14
-4.27765e-14
-3.93014e-14
3.78818e-14
3.79772e-14
-3.70063e-14
6.31001e-14
-3.72e-14
4.54301e-14
-3.21685e-14
6.12799e-14
-3.27068e-14
-1.15756e-13
-2.98712e-15
-1.26471e-14
-7.24828e-14
8.31459e-14
4.58508e-14
-6.75864e-14
-4.76389e-14
-4.32798e-14
-7.48028e-14
4.39163e-14
-1.06672e-13
-5.24678e-14
-4.53522e-14
-4.28917e-14
-4.50573e-14
3.13901e-14
-3.93615e-14
-4.63689e-14
-7.92095e-14
-5.2588e-14
-7.40303e-14
-4.91608e-14
-6.75481e-14
-1.38107e-14
-2.59446e-15
-4.1404e-14
-4.11619e-14
-3.89316e-14
-4.18067e-14
-5.38193e-14
-3.85826e-14
-3.73864e-14
5.2322e-14
-3.0583e-14
3.27275e-14
-2.84653e-14
-3.05716e-14
-3.65713e-14
5.00861e-14
-3.44115e-14
5.74486e-14
-3.82071e-14
-3.09839e-14
-9.47218e-14
-3.85372e-14
-4.64701e-14
-3.04445e-14
-6.37141e-14
-3.8338e-14
5.57127e-14
-2.82086e-14
3.93156e-14
-3.7458e-14
-3.79211e-14
5.13169e-14
-2.95427e-14
9.16073e-14
6.26016e-14
-3.66985e-14
-8.5188e-14
-1.12567e-13
1.94349e-14
-3.14147e-14
-5.17794e-15
8.94767e-15
-4.82314e-14
-6.3996e-14
-7.07373e-14
-3.14649e-14
-4.48246e-14
-2.77235e-14
-8.90307e-14
-9.14531e-14
-9.22305e-14
-8.48014e-14
-4.37143e-14
-3.82086e-14
3.8032e-14
3.67829e-14
1.38484e-14
5.29588e-14
3.46944e-14
-3.93877e-14
-2.98153e-14
3.42166e-14
-5.84924e-14
-6.20622e-14
4.8782e-14
-2.19488e-14
-4.72232e-16
-6.54118e-14
-5.62356e-14
-5.62842e-14
1.6354e-14
6.74299e-14
-5.52093e-14
5.41389e-14
1.97096e-14
-5.39661e-14
-9.42015e-14
-3.96814e-14
-3.18723e-14
-3.85088e-14
-3.75293e-14
5.96161e-14
-7.44142e-14
-3.85309e-14
-3.05911e-14
1.37155e-14
-3.22945e-14
-6.73458e-14
-3.76278e-14
-3.15561e-14
5.9134e-14
-6.62826e-14
2.16366e-14
-8.90228e-14
-4.6076e-14
-1.18921e-15
1.87281e-14
8.38106e-15
)
;

boundaryField
{
    front
    {
        type            empty;
    }
    back
    {
        type            empty;
    }
    bottom
    {
        type            uniformFixedValue;
        uniformValue    
        {
            type            scale;
            scale           
            {
                type            squarePulse;
                start           0.3;
                duration        0.3;
            }
            xScale          
            {
                type            constant;
                value           1;
            }
            value           
            {
                type            constant;
                value           15.1;
            }
        }
        value           uniform 0;
    }
    left
    {
        type            zeroGradient;
    }
    top
    {
        type            zeroGradient;
    }
    right
    {
        type            zeroGradient;
    }
    inner_arc
    {
        type            zeroGradient;
    }
}


// ************************************************************************* //
