/*--------------------------------*- C++ -*----------------------------------*\
  =========                 |
  \\      /  F ield         | OpenFOAM: The Open Source CFD Toolbox
   \\    /   O peration     | Website:  https://openfoam.org
    \\  /    A nd           | Version:  9
     \\/     M anipulation  |
\*---------------------------------------------------------------------------*/
FoamFile
{
    format      ascii;
    class       surfaceScalarField;
    location    "0.79";
    object      phi;
}
// * * * * * * * * * * * * * * * * * * * * * * * * * * * * * * * * * * * * * //

dimensions      [0 3 -1 0 0 0 0];

internalField   nonuniform List<scalar> 
816
(
1.97588e-21
6.52705e-20
-6.72464e-20
-2.27648e-20
9.1296e-20
-6.85312e-20
-1.13532e-19
1.15508e-19
5.85212e-21
-7.94665e-21
2.09453e-21
6.39332e-20
-6.39332e-20
-3.56825e-20
4.43958e-20
-8.71326e-21
-6.68491e-20
6.68491e-20
-6.00234e-20
6.00234e-20
-1.35994e-19
4.10036e-22
1.35584e-19
1.65551e-20
-3.93199e-20
3.37692e-20
-6.94517e-20
1.59147e-19
-1.15222e-19
-4.39251e-20
2.37241e-21
-1.88984e-21
-4.82566e-22
1.53833e-19
-1.39378e-19
-1.44554e-20
-1.51904e-19
1.34076e-19
1.78285e-20
-1.16747e-19
1.92208e-19
-7.54608e-20
-7.29766e-20
-2.07128e-20
9.36894e-20
1.39067e-19
-1.12577e-20
-1.27809e-19
1.86877e-20
1.40459e-19
6.38632e-20
-1.99857e-19
1.11667e-20
-5.31455e-21
1.44243e-20
-1.31172e-19
7.62914e-20
-3.20738e-20
-4.42176e-20
1.9511e-20
9.09219e-21
-2.86032e-20
2.26485e-20
-3.13752e-21
-1.30807e-19
3.20083e-20
9.87989e-20
8.94731e-21
-8.04745e-21
-8.99866e-22
2.74432e-21
-5.62822e-21
2.8839e-21
4.3747e-20
4.7549e-20
6.69283e-20
1.2528e-19
9.89878e-21
-7.15445e-21
1.33672e-20
3.10285e-20
2.03187e-19
-1.36258e-19
2.71407e-20
-1.89182e-20
-8.22251e-21
-1.50103e-20
-1.36894e-19
-3.29269e-20
1.58207e-19
1.41036e-20
1.3973e-19
-1.91461e-20
-1.11661e-19
1.9779e-19
-7.20253e-20
-1.25765e-19
3.97298e-20
2.42034e-20
-4.98296e-20
-4.13356e-20
4.08773e-20
1.35006e-19
-9.30682e-22
-6.87932e-20
-3.29441e-20
1.01737e-19
-4.01619e-20
-2.66871e-20
5.18388e-20
1.25877e-19
-1.25467e-19
8.42582e-20
2.89167e-21
6.05565e-21
-7.43639e-21
-1.95977e-21
9.39616e-21
1.98853e-21
3.83882e-22
5.56501e-20
2.06414e-20
1.59611e-20
1.11795e-20
-8.32989e-22
8.32989e-22
4.32455e-20
-1.32043e-20
-3.00412e-20
-3.20738e-20
-6.87932e-20
-1.57799e-19
8.48223e-20
5.42888e-20
-8.72157e-20
-1.8732e-20
2.58717e-20
-4.65845e-20
-5.78422e-20
4.65845e-20
-4.51731e-21
-1.3486e-19
3.00428e-21
-1.91923e-21
-1.08506e-21
1.36219e-19
-1.21251e-21
1.30146e-19
7.30407e-20
-5.63166e-20
9.00858e-20
-5.78515e-20
1.69203e-19
-1.11351e-19
3.07752e-20
1.12892e-19
-1.43667e-19
3.73031e-21
5.93083e-21
2.87772e-21
1.26563e-22
1.14869e-19
5.53869e-20
-1.70256e-19
3.17602e-20
-3.7199e-20
5.4388e-21
5.43469e-20
-5.43469e-20
-8.07106e-20
1.44574e-19
-1.09103e-19
2.83919e-20
9.87877e-22
-2.47312e-20
-4.25152e-20
6.72464e-20
-1.09654e-19
-4.35203e-20
1.53175e-19
6.52705e-20
4.93372e-20
-4.93372e-20
-7.27914e-20
7.27914e-20
-7.84298e-20
1.52873e-19
-7.44431e-20
3.91475e-20
1.20382e-20
-1.95977e-21
4.00464e-20
3.19911e-21
-3.40301e-21
-1.06951e-19
1.10354e-19
9.36178e-20
4.05568e-21
-9.76735e-20
1.85134e-21
5.59789e-20
-1.34409e-19
3.74122e-21
1.15158e-19
-1.189e-19
5.20426e-21
-4.48849e-21
-7.15772e-22
-1.33312e-19
-1.45126e-21
1.21258e-19
-1.19807e-19
-7.06424e-22
3.50424e-22
1.65551e-20
1.07257e-20
-1.4762e-19
-1.6947e-21
1.37914e-19
-9.52931e-20
1.26068e-19
1.47523e-21
1.9636e-21
-3.43883e-21
-9.67566e-20
3.7145e-22
-3.7145e-22
-1.90314e-20
1.58761e-19
2.3047e-20
4.98296e-20
3.91475e-20
-5.03638e-21
-4.93105e-20
6.97112e-20
8.84957e-20
1.449e-19
1.34764e-19
-1.66898e-19
3.21343e-20
2.25421e-21
-7.78986e-22
-5.91093e-21
-2.03572e-21
6.13769e-20
8.8479e-20
-1.49856e-19
-1.82249e-21
9.54403e-20
-3.34979e-22
7.06426e-22
-6.20393e-21
1.05003e-19
-8.27048e-20
9.91334e-21
2.87979e-20
9.49474e-21
1.67194e-21
-3.33676e-20
-1.23142e-19
1.33725e-19
-1.05826e-20
-2.06399e-20
-8.90145e-20
1.21975e-19
-8.5671e-20
-3.63039e-20
1.17177e-19
2.55584e-20
-1.39524e-19
8.03299e-22
1.38721e-19
-1.43557e-19
2.04143e-20
1.98241e-21
3.22185e-21
-3.46733e-20
3.46733e-20
-1.26184e-19
-1.33408e-20
-9.88499e-22
1.27022e-19
-1.26033e-19
-1.93521e-21
-1.13286e-19
-1.01849e-19
-6.50493e-20
-9.93406e-20
1.00144e-19
-1.72341e-21
3.75635e-20
-3.58401e-20
-2.63793e-20
-1.01064e-19
1.23468e-21
2.14301e-20
-2.26647e-20
-4.08773e-20
-1.45397e-21
-1.24311e-19
-1.44086e-20
-7.46387e-20
8.90473e-20
9.64152e-23
-7.43743e-22
6.47328e-22
1.2778e-19
-1.02222e-19
-1.55719e-19
-4.11781e-21
1.59836e-19
4.49854e-20
-4.49854e-20
5.42888e-20
6.07565e-21
2.85977e-20
1.50272e-20
1.42424e-19
-1.57451e-19
-1.2403e-21
4.13197e-21
-5.86894e-20
1.02436e-19
5.50966e-22
1.37499e-21
-1.92596e-21
-4.25152e-20
1.40194e-20
-1.69738e-19
-1.20841e-19
3.75635e-20
-1.22067e-19
1.17949e-19
-1.22286e-20
1.22286e-20
1.13372e-19
-1.09939e-20
-1.02347e-19
1.17374e-19
-8.11069e-23
6.32073e-22
1.16163e-20
-1.23333e-20
7.16981e-22
-1.16474e-20
-1.1042e-19
4.13356e-20
-4.32708e-20
4.65633e-20
-4.75517e-20
-4.1803e-21
3.21407e-20
-2.79604e-20
2.20014e-21
-1.04547e-19
4.25571e-21
-5.34076e-21
5.5487e-21
-1.29299e-21
1.46199e-19
-6.20738e-20
5.04264e-20
-7.13541e-21
-2.87323e-21
1.00086e-20
-4.09534e-20
4.31535e-20
-2.59506e-20
1.2386e-19
-9.79099e-20
-9.2298e-20
1.04336e-19
6.53657e-21
4.63882e-21
1.22383e-19
9.64144e-23
-8.72157e-20
5.91485e-20
6.28264e-20
1.46198e-19
6.95083e-21
-1.53149e-19
-9.60791e-21
2.4725e-21
-1.45381e-19
-6.98116e-21
1.52362e-19
1.22582e-19
-4.63308e-21
1.14915e-19
2.45892e-21
3.93199e-20
-6.63536e-21
-4.74473e-21
1.13801e-20
-6.32071e-22
1.95375e-21
-1.32168e-21
7.43743e-22
-1.98404e-21
1.19926e-19
-1.21866e-19
1.9393e-21
1.18124e-19
-1.15601e-19
-2.52248e-21
-8.11078e-23
2.04809e-21
-1.49351e-20
-3.44021e-20
4.98095e-21
7.36985e-21
-8.66284e-21
4.83737e-21
-6.10704e-21
1.00964e-19
5.29293e-21
-7.99316e-20
1.64027e-19
8.08497e-21
-1.34269e-19
1.73578e-22
7.19627e-21
-9.2979e-20
1.32769e-20
-3.78218e-21
-2.26675e-20
2.79604e-20
1.33331e-19
-9.67539e-20
-7.7928e-21
-8.47092e-20
9.07849e-20
4.57933e-20
-5.04264e-20
4.56125e-20
-4.31535e-20
8.4867e-20
-1.02657e-20
-1.72229e-21
1.1988e-20
-9.60792e-21
-1.49351e-20
3.21407e-20
-2.4833e-20
-9.37067e-20
-6.20738e-20
4.57933e-20
4.56124e-20
1.27276e-21
-5.79133e-21
8.0794e-20
-7.50027e-20
-4.09534e-20
-1.50105e-20
-3.38992e-21
-1.98404e-21
-3.58401e-20
-2.47249e-21
1.90276e-20
4.65632e-20
3.06158e-21
1.67945e-20
-1.98561e-20
1.15537e-20
1.22939e-20
1.21431e-19
1.68948e-20
1.41337e-20
7.03359e-21
-2.28064e-20
1.57728e-20
9.39616e-21
1.17027e-19
-1.4186e-19
2.62066e-21
-1.5792e-19
1.56707e-19
2.28064e-20
-2.85977e-20
1.95375e-21
4.04828e-21
5.53292e-20
2.02936e-20
-6.19352e-20
1.5811e-20
1.33786e-19
1.88588e-20
-1.55562e-20
1.38339e-20
9.24437e-21
-4.40995e-21
-1.11463e-20
1.31078e-20
-1.00462e-20
-2.26675e-20
4.75518e-20
1.67437e-20
3.89496e-21
-2.06387e-20
4.32708e-20
1.23846e-20
9.17303e-21
4.66091e-21
7.57432e-21
3.97934e-21
5.59746e-21
-3.69933e-21
7.91907e-21
-7.91907e-21
1.16494e-20
-1.01545e-19
-1.21975e-19
2.62588e-21
-1.49592e-20
-5.72022e-21
5.72022e-21
-4.04828e-21
-2.56861e-20
-1.0495e-20
1.09939e-20
-4.98854e-22
1.0495e-20
-4.77481e-21
1.79331e-20
1.16494e-20
-1.27231e-19
-2.47309e-20
2.18576e-20
5.68724e-21
-1.00575e-20
4.37024e-21
1.12847e-20
1.57822e-20
2.21123e-21
1.10582e-20
-1.32694e-20
-2.47459e-21
4.68581e-21
-6.19986e-20
5.54591e-21
-1.56034e-20
1.8231e-20
-9.05797e-21
1.18114e-20
-6.85652e-21
-1.50928e-20
9.66783e-20
1.59456e-20
5.02037e-21
1.42231e-20
-1.92435e-20
-3.68189e-21
1.30695e-20
2.87616e-21
1.38168e-19
-1.89566e-21
1.49651e-20
-3.37716e-21
1.61346e-19
-1.61951e-20
1.90712e-20
-1.0583e-20
-6.55529e-21
1.41296e-20
2.03594e-21
2.21102e-20
-6.80143e-22
-1.59674e-20
6.90939e-21
2.60739e-20
-1.50157e-20
-5.89721e-21
6.13277e-20
-1.37116e-19
7.57879e-20
3.34052e-20
-3.34052e-20
-3.05839e-20
3.05839e-20
-3.64207e-20
3.64207e-20
3.63267e-20
-3.63267e-20
3.97298e-20
-4.01619e-20
-8.65334e-21
-1.94035e-20
2.80568e-20
5.18388e-20
-2.09877e-20
1.50905e-20
-5.09081e-20
5.09081e-20
-4.93105e-20
-4.92134e-20
4.92134e-20
-1.08307e-20
7.92307e-20
-6.84e-20
2.58717e-20
-5.08617e-21
-4.22568e-20
4.7343e-20
-3.12411e-20
3.12411e-20
-2.0313e-20
1.26385e-19
-1.06072e-19
-5.30875e-20
-1.45369e-19
2.68908e-21
-5.78422e-20
-5.51531e-20
1.1054e-19
4.31221e-20
-8.40412e-20
1.51419e-19
5.56501e-20
-7.05906e-21
-3.01553e-21
5.74284e-21
8.09879e-20
1.27015e-20
-1.9923e-20
-8.32823e-20
1.03205e-19
5.93077e-20
-1.03595e-19
-6.20208e-21
-6.57164e-22
3.50424e-22
-4.93953e-20
-8.77203e-20
7.69896e-20
-1.11449e-19
-1.94541e-19
6.67318e-20
-3.04117e-20
-7.47858e-20
1.05197e-19
-1.31432e-20
-1.8388e-20
-7.80453e-22
1.91684e-20
-1.18132e-19
-1.10566e-20
1.10566e-20
-1.66043e-21
-2.57624e-21
5.01252e-20
-4.32818e-23
-3.28171e-22
3.64807e-21
-1.0972e-19
-1.24494e-19
1.14484e-19
-1.01782e-19
4.68886e-20
-1.23878e-19
3.9837e-20
1.43808e-19
9.37536e-20
4.44168e-20
-2.12525e-20
-8.5699e-20
3.55909e-20
7.95675e-20
-6.20318e-20
-1.08224e-19
6.77263e-21
3.62058e-20
-1.21877e-19
-1.05957e-19
9.47394e-20
1.25487e-19
1.15109e-19
-1.36526e-19
2.14163e-20
-3.84717e-20
-1.25504e-20
-2.646e-20
-3.5812e-21
-3.84717e-20
-2.67504e-20
-1.69079e-19
-1.5096e-20
1.84175e-19
1.0144e-20
4.31693e-20
5.85681e-20
1.21371e-23
3.38287e-22
-3.52277e-20
3.52277e-20
1.17905e-19
2.69949e-20
5.52013e-20
8.51188e-20
-1.06257e-19
-1.29536e-19
1.98157e-20
8.81505e-21
3.3574e-21
1.76419e-20
-2.24803e-20
4.8384e-21
-7.73295e-21
5.52649e-21
-7.39265e-20
1.71431e-20
-1.2761e-19
1.12514e-19
-5.22723e-21
-5.62822e-21
1.02417e-19
-4.32839e-23
-5.28803e-20
1.2138e-23
-9.46244e-20
1.72007e-20
-6.02116e-21
1.64514e-20
-6.09799e-20
1.36768e-19
2.05293e-20
-1.0385e-19
-4.60062e-20
-5.5042e-20
-4.1336e-20
-1.17916e-21
7.82531e-20
2.41833e-20
-7.23067e-21
-1.30412e-20
3.4154e-20
3.91987e-21
3.36819e-20
2.06069e-20
9.80688e-20
1.38199e-19
5.52166e-21
-2.39096e-20
2.8839e-21
-4.1336e-20
-1.27675e-21
1.92408e-21
-1.84883e-20
-9.15223e-22
9.72654e-20
6.14956e-20
-1.09531e-19
3.36819e-20
4.31693e-20
2.33153e-20
1.5099e-19
1.41847e-20
2.85521e-21
-8.48407e-20
-3.79887e-23
3.79887e-23
-1.10716e-21
1.30181e-19
3.75144e-23
-3.75144e-23
1.09732e-19
-6.53199e-22
-2.86427e-22
1.12146e-19
-3.79904e-23
3.75139e-23
1.29477e-19
-3.22114e-20
-9.20714e-20
1.57244e-20
-1.22582e-19
1.05404e-21
8.70046e-22
8.26937e-20
-8.57093e-20
-5.31267e-23
-8.50211e-21
-1.39782e-20
1.53637e-20
-9.43285e-21
6.89713e-23
-7.2217e-22
1.28581e-21
-7.61911e-20
7.55339e-20
1.52469e-20
1.19423e-20
6.14125e-21
-1.31609e-19
-4.91775e-20
1.37032e-20
9.73099e-21
1.11335e-19
1.34401e-22
-1.18624e-22
4.09083e-20
-6.09442e-20
-1.48999e-20
-1.43916e-19
-1.65375e-20
-9.23598e-20
-4.22793e-21
7.17185e-20
-7.07274e-20
2.56879e-21
8.12743e-23
-4.96518e-23
1.36141e-20
-4.6544e-20
-2.84083e-20
-1.45786e-20
)
;

boundaryField
{
    front
    {
        type            empty;
        value           nonuniform List<scalar> 0();
    }
    back
    {
        type            empty;
        value           nonuniform List<scalar> 0();
    }
    bottom
    {
        type            calculated;
        value           nonuniform List<scalar> 
12
(
-5.11857e-20
-1.42736e-19
1.1854e-19
-1.18677e-19
6.89688e-20
1.57728e-20
-1.5811e-20
1.20404e-19
1.42713e-19
-1.20155e-19
-6.88551e-20
5.10221e-20
)
;
    }
    left
    {
        type            calculated;
        value           uniform 0;
    }
    top
    {
        type            calculated;
        value           uniform 0;
    }
    right
    {
        type            calculated;
        value           uniform 0;
    }
    inner_arc
    {
        type            calculated;
        value           uniform 0;
    }
}


// ************************************************************************* //
