/*--------------------------------*- C++ -*----------------------------------*\
  =========                 |
  \\      /  F ield         | OpenFOAM: The Open Source CFD Toolbox
   \\    /   O peration     | Website:  https://openfoam.org
    \\  /    A nd           | Version:  9
     \\/     M anipulation  |
\*---------------------------------------------------------------------------*/
FoamFile
{
    format      ascii;
    class       volScalarField;
    location    "0.86";
    object      p;
}
// * * * * * * * * * * * * * * * * * * * * * * * * * * * * * * * * * * * * * //

dimensions      [0 2 -2 0 0 0 0];

internalField   nonuniform List<scalar> 
464
(
2.28265e-19
-4.66195e-19
2.57529e-20
2.37368e-20
-5.36539e-19
2.58474e-20
1.04288e-19
2.35594e-20
-7.13005e-20
-5.2846e-20
2.31633e-19
5.2242e-19
8.08288e-20
5.32147e-19
1.24689e-19
9.16226e-20
-4.44387e-20
-4.17426e-20
2.18153e-20
8.92379e-21
1.12002e-20
2.09341e-20
1.8562e-20
2.42691e-20
2.41475e-20
2.39852e-20
3.39077e-19
2.07064e-20
3.01203e-19
2.23349e-20
2.28032e-20
6.14836e-21
1.14404e-20
-2.48928e-20
-2.53803e-20
-3.22254e-20
-2.90249e-20
2.15616e-20
1.96624e-20
3.84316e-20
5.89955e-21
1.71441e-20
1.79778e-20
4.62564e-19
3.98686e-19
5.01433e-20
1.63358e-20
1.24719e-20
1.8046e-20
2.13681e-20
5.09747e-21
1.72811e-20
-3.65562e-21
1.27337e-20
1.34767e-20
1.60748e-20
1.68005e-20
2.17601e-20
2.54367e-20
-5.67126e-21
1.95317e-20
-2.88723e-19
1.8068e-20
1.36148e-20
-1.85788e-19
1.37128e-20
5.14993e-20
1.64303e-20
3.17845e-19
1.43643e-20
3.37618e-20
-2.45904e-19
2.24229e-19
1.35337e-20
-4.56989e-20
1.8692e-20
3.90776e-20
1.02379e-19
1.45464e-20
2.08403e-19
-4.48609e-19
2.50044e-20
-7.1983e-19
2.44408e-20
-4.44649e-19
2.74813e-20
-1.95264e-19
2.4841e-20
2.22453e-20
-3.59963e-20
-3.89742e-19
-3.25106e-19
4.34349e-20
4.66484e-19
5.22966e-20
3.3181e-20
1.71349e-20
2.51291e-20
-2.40004e-19
-4.99586e-20
2.26708e-20
1.18517e-20
2.22237e-20
-6.7008e-21
-2.93917e-20
-7.19193e-19
2.48593e-20
4.30709e-20
-3.82246e-19
1.33032e-20
3.73537e-20
1.44947e-20
5.55709e-20
-1.79601e-19
2.10115e-20
2.07931e-20
-5.84635e-19
2.39916e-20
-3.12494e-19
2.39469e-20
1.29352e-20
7.64058e-20
-1.53215e-19
2.21512e-19
3.23387e-20
1.79284e-20
-4.5447e-20
5.07601e-20
-2.92502e-20
-6.37136e-19
2.43005e-20
6.00251e-19
2.05795e-20
2.05881e-20
2.19963e-20
-4.78096e-19
2.38989e-20
2.10657e-20
-5.83544e-20
2.21449e-20
2.37695e-20
3.54989e-20
4.11053e-20
2.05032e-20
2.38308e-20
-8.72098e-20
1.87285e-20
2.42585e-20
1.42293e-20
2.17229e-20
1.8601e-20
2.07076e-20
6.22983e-20
8.32455e-21
-4.08736e-19
2.30156e-20
-6.44531e-20
1.65587e-20
-3.13809e-20
-3.16146e-19
-3.99006e-21
1.69468e-20
-1.38474e-20
1.88566e-20
1.69164e-20
2.3704e-20
2.80969e-20
1.34009e-20
-1.64903e-21
4.04283e-20
7.62812e-20
-2.35257e-19
-9.78601e-20
2.09453e-20
8.63018e-21
6.47533e-20
1.4401e-20
1.44897e-20
1.28634e-19
-4.41035e-20
1.35123e-20
7.30138e-20
-8.79546e-20
-9.0821e-20
-5.48995e-20
-9.03208e-20
1.08265e-19
1.09314e-19
-4.392e-20
1.10743e-19
1.17946e-20
1.18412e-19
8.83596e-21
1.13119e-20
2.52076e-20
2.9292e-20
1.08231e-20
1.25609e-20
-6.63754e-20
1.44708e-20
1.28218e-20
2.50213e-20
9.38244e-21
2.02508e-20
1.10446e-19
7.77008e-21
1.24943e-20
2.0886e-20
2.6824e-20
-1.62628e-19
2.30967e-20
9.49195e-20
1.46995e-20
-2.70794e-20
1.23703e-20
8.98068e-20
-2.80839e-20
8.7999e-21
3.15058e-19
3.44713e-20
-7.99314e-20
1.54115e-20
1.72004e-20
1.31504e-20
1.28768e-20
1.31294e-20
1.18337e-20
6.48313e-21
1.04209e-20
1.17255e-20
8.21484e-21
1.38941e-21
4.13639e-21
1.62386e-20
-1.79653e-21
1.24013e-20
-9.65125e-21
1.60381e-21
6.07657e-21
-1.62561e-20
1.45419e-20
8.03425e-22
-5.05982e-21
3.92816e-21
1.69575e-20
-2.8197e-20
2.02665e-21
6.18071e-21
-1.4804e-20
9.09656e-21
4.73211e-21
-2.09847e-20
1.97154e-20
-1.09277e-20
1.92974e-20
3.26784e-21
1.6728e-20
4.60716e-21
2.03541e-20
1.4894e-20
-1.65268e-21
1.33971e-20
2.23573e-20
4.22445e-20
5.60688e-21
4.01084e-20
1.92173e-20
2.05757e-20
9.83584e-20
3.03221e-20
1.96582e-20
5.72638e-21
1.03648e-20
5.73924e-20
9.05769e-20
1.64243e-20
1.70134e-20
3.60272e-20
5.27997e-20
-1.2584e-19
-4.97858e-21
1.88061e-20
4.36963e-20
1.45217e-20
1.06375e-19
-3.38286e-20
6.50302e-20
-1.16327e-19
1.84416e-20
-1.84682e-20
-7.3829e-20
-3.30124e-20
1.66654e-20
1.3117e-20
3.73303e-20
4.93642e-20
8.80811e-20
6.93121e-20
7.26735e-20
-1.51697e-19
8.16e-20
4.50976e-20
1.84284e-19
5.16005e-19
-1.54116e-20
3.89852e-20
3.27882e-20
-1.4592e-20
-2.8239e-19
3.58207e-20
1.56958e-20
1.86348e-20
1.95317e-20
5.72442e-20
2.03522e-20
-2.67607e-21
7.41954e-20
-1.64786e-19
2.35816e-20
7.41562e-20
2.23195e-20
6.60995e-20
-2.19535e-19
7.51675e-20
-1.83581e-20
9.43775e-21
1.26346e-20
1.60795e-19
1.91354e-20
-9.98413e-20
1.37882e-20
-1.51687e-19
2.48412e-20
1.85867e-20
1.85343e-20
1.49173e-20
2.0921e-20
2.40599e-20
1.29803e-20
1.57007e-20
2.31129e-20
3.3134e-19
-5.06201e-20
-9.56055e-20
5.16248e-21
2.20286e-20
1.12743e-20
4.33994e-20
2.40142e-20
1.96359e-20
1.44909e-20
2.39617e-20
6.26157e-20
5.43841e-20
1.42934e-20
-3.02302e-19
2.55047e-20
-6.78378e-19
2.53682e-20
-4.42031e-19
2.57543e-20
4.29414e-20
2.54591e-20
-4.54922e-19
2.89575e-19
2.23033e-20
2.25996e-20
-5.28955e-20
7.01071e-19
2.35087e-20
2.21646e-20
5.89724e-19
1.51027e-19
-4.54124e-20
4.22065e-19
2.36574e-20
2.65567e-19
1.88597e-20
2.49262e-19
2.21208e-20
1.46803e-20
-2.27731e-20
-4.15294e-20
6.95621e-21
-7.92878e-21
1.41191e-20
-1.05533e-20
2.46725e-20
-8.67018e-20
-3.98733e-20
-7.43131e-21
-1.6853e-20
-1.93868e-20
-3.92883e-21
7.02123e-21
1.64016e-20
1.36305e-20
2.06979e-20
1.54102e-20
2.22996e-19
-2.54533e-19
2.60768e-20
4.63247e-19
2.24411e-20
3.21871e-20
2.08254e-19
5.95497e-19
2.23461e-20
3.11523e-19
2.23065e-20
-1.20897e-19
2.2243e-20
2.5061e-20
2.23975e-20
2.48721e-20
-2.13373e-19
8.19203e-19
2.20173e-20
2.52132e-20
-3.12083e-19
2.26587e-20
2.59312e-20
2.7191e-19
5.24749e-19
2.81458e-19
1.65809e-19
1.90356e-19
1.0315e-19
5.34699e-20
-7.42512e-19
2.50271e-20
1.12121e-20
-4.88767e-20
2.41877e-20
-2.65707e-21
-7.24477e-20
-6.26514e-20
2.21032e-20
-5.36905e-20
2.31974e-20
-9.98273e-21
-1.24416e-20
9.44758e-21
1.00079e-20
1.86944e-20
1.22472e-20
1.81516e-20
1.8638e-20
1.68491e-20
3.44276e-21
8.65212e-21
7.20116e-20
4.76289e-20
2.33989e-20
-1.19851e-21
-4.30429e-20
-2.19859e-20
2.24094e-20
2.243e-20
2.22014e-20
2.22665e-20
7.7536e-19
5.09844e-19
2.34357e-20
)
;

boundaryField
{
    back
    {
        type            empty;
    }
    front
    {
        type            empty;
    }
    left
    {
        type            zeroGradient;
    }
    top
    {
        type            zeroGradient;
    }
    right
    {
        type            zeroGradient;
    }
    bottom
    {
        type            uniformFixedValue;
        uniformValue    
        {
            type            scale;
            scale           
            {
                type            squarePulse;
                start           0.3;
                duration        0.3;
            }
            xScale          
            {
                type            constant;
                value           1;
            }
            value           
            {
                type            constant;
                value           15.1;
            }
        }
        value           uniform 0;
    }
}


// ************************************************************************* //
