/*--------------------------------*- C++ -*----------------------------------*\
  =========                 |
  \\      /  F ield         | OpenFOAM: The Open Source CFD Toolbox
   \\    /   O peration     | Website:  https://openfoam.org
    \\  /    A nd           | Version:  9
     \\/     M anipulation  |
\*---------------------------------------------------------------------------*/
FoamFile
{
    format      ascii;
    class       surfaceScalarField;
    location    "0.86";
    object      phi;
}
// * * * * * * * * * * * * * * * * * * * * * * * * * * * * * * * * * * * * * //

dimensions      [0 3 -1 0 0 0 0];

internalField   nonuniform List<scalar> 
663
(
-4.82166e-25
5.84717e-25
-1.02553e-25
1.17641e-25
6.12418e-25
-1.86385e-28
1.86692e-28
1.21299e-27
-6.77735e-28
-5.34934e-28
-2.68667e-25
3.86444e-25
-2.01755e-29
-1.6281e-28
-6.20958e-25
1.38889e-25
4.71821e-28
7.80673e-28
-7.33681e-25
3.09915e-25
4.23764e-25
-9.16768e-26
-6.42056e-25
-1.09044e-25
6.93794e-25
3.26964e-25
-1.10071e-25
-2.169e-25
-3.11109e-25
2.85152e-25
4.18517e-26
1.39194e-25
-1.52379e-25
1.31876e-26
1.4853e-25
-9.36476e-27
-1.86239e-27
-1.94273e-26
2.1288e-26
2.23517e-27
-4.09689e-27
2.13952e-28
-2.14197e-28
-3.44169e-27
1.0089e-26
-6.64754e-27
6.23098e-27
-9.65887e-27
-1.72807e-27
2.96779e-27
-1.24097e-27
2.64684e-27
-4.36328e-27
-1.17301e-27
9.48885e-28
2.24209e-28
2.25991e-28
-9.09362e-28
-6.60679e-28
-5.15368e-28
5.5157e-27
-4.79862e-26
4.24701e-26
1.05345e-27
-6.25483e-28
-4.28304e-28
1.33386e-25
-1.27765e-25
1.79161e-28
-5.60885e-28
3.82573e-28
-5.22445e-28
7.15305e-28
-1.55029e-25
1.34655e-25
2.0372e-26
5.9931e-27
-1.61047e-25
1.32739e-25
-1.11177e-25
-2.15583e-26
7.08307e-26
6.19048e-26
5.79524e-27
-3.56401e-27
-6.43474e-27
1.22548e-26
-2.34977e-28
4.60281e-28
1.24653e-28
9.37228e-28
-1.39329e-25
7.38808e-27
1.31936e-25
9.42064e-27
6.77715e-28
-7.71575e-27
5.44225e-27
2.27386e-27
-5.05006e-27
-9.88186e-26
5.08494e-26
-2.08903e-25
9.14832e-27
-1.03967e-27
-2.48203e-27
3.52182e-27
2.58967e-27
-1.51505e-27
-1.07424e-27
-5.99014e-28
5.98945e-28
-8.39749e-28
-1.30184e-27
1.07291e-26
9.25316e-28
-1.99876e-28
-7.25512e-28
1.14489e-26
-1.51739e-27
-9.9304e-27
-7.48014e-27
8.37908e-27
-8.98901e-28
-1.16458e-26
4.16766e-27
1.36726e-27
-4.32562e-28
3.4065e-28
1.19868e-26
-9.26687e-28
-1.10603e-26
9.22079e-29
1.18959e-26
1.02165e-26
1.24712e-27
-4.63179e-28
1.46993e-26
2.36225e-25
-2.50917e-25
1.36922e-26
3.2057e-26
-4.5751e-26
-6.03467e-27
3.62859e-27
2.40608e-27
-4.81095e-25
3.89311e-25
9.44052e-27
-1.06152e-27
-4.26208e-26
1.07388e-26
3.18819e-26
4.17274e-28
-3.26204e-25
-4.31742e-27
-7.32943e-27
-1.01984e-26
1.02895e-26
-4.66429e-25
1.46619e-25
-1.32064e-26
2.77546e-27
-1.83382e-28
-1.93945e-26
1.78999e-25
-1.59603e-25
2.27888e-28
-4.58229e-26
3.20736e-27
-5.89823e-25
4.87352e-25
7.2585e-27
-8.18612e-27
-5.79351e-27
1.4043e-25
3.1715e-25
-4.57575e-25
-6.37758e-28
6.1396e-28
2.40602e-29
9.3358e-26
-1.18864e-25
2.55193e-26
2.01111e-28
1.3387e-28
-3.34894e-28
2.33766e-25
2.72626e-26
-1.35564e-26
3.55981e-25
-1.1973e-25
-4.11406e-28
-8.02179e-28
6.61019e-28
1.41293e-28
-1.88879e-25
1.6953e-25
-1.70699e-26
-1.4939e-25
1.14814e-25
-3.39417e-26
-8.08765e-26
-1.65423e-25
-2.81332e-25
4.46731e-25
6.31075e-26
5.17228e-26
-1.37593e-26
1.2259e-27
-1.79573e-28
7.95582e-28
1.2631e-26
7.15336e-26
-8.41617e-26
2.47411e-25
-5.58518e-25
-3.5884e-28
-4.33493e-28
3.84194e-27
-5.35113e-27
-1.5547e-28
-1.98385e-28
2.70272e-26
1.07636e-25
-8.42078e-26
-1.18943e-25
1.39803e-28
7.73428e-26
-6.65987e-26
-6.26957e-26
4.56429e-26
1.55248e-27
-8.96695e-27
7.41476e-27
9.91673e-26
5.35414e-26
-1.52708e-25
3.07226e-28
4.34444e-26
-1.53066e-25
1.65687e-25
4.93293e-28
1.77256e-28
5.09768e-28
-6.58935e-28
-2.55593e-26
-3.7149e-26
7.96226e-29
3.26347e-28
-4.05928e-28
7.15265e-26
9.08804e-28
-8.17636e-28
5.39734e-27
-1.93591e-25
4.40994e-25
1.86784e-25
1.69177e-25
-2.7824e-25
4.17074e-25
1.7062e-26
1.81327e-25
-8.21028e-26
3.51175e-25
-1.64385e-25
-9.18392e-26
1.4543e-25
-1.06432e-26
8.14705e-26
2.74895e-26
-2.75122e-26
-1.07017e-27
1.58541e-27
5.71766e-28
-4.00034e-28
-1.72524e-28
-3.71978e-26
-4.00132e-28
5.9789e-28
-1.01814e-27
1.27954e-27
-1.2801e-27
2.36509e-28
3.45543e-28
-8.95217e-26
1.03527e-26
-6.17197e-29
-1.56615e-28
-2.50406e-28
-1.49656e-28
3.24158e-27
1.75798e-25
1.87889e-27
-2.94323e-27
5.01658e-28
8.68303e-27
-5.05021e-27
2.65501e-27
-1.36952e-27
-2.25344e-27
4.13812e-27
7.96861e-28
7.94562e-28
-2.58747e-26
1.44569e-25
-1.18693e-25
1.37478e-25
4.38612e-26
3.43334e-26
-3.5445e-28
-9.17801e-28
-5.02456e-27
-1.44053e-26
3.439e-27
-5.68627e-27
1.57513e-25
1.61837e-25
-1.16204e-25
3.47832e-26
-6.38853e-26
2.90985e-26
-3.33797e-27
6.78133e-27
1.29061e-26
-1.72496e-25
2.66349e-27
-1.89373e-27
4.55682e-27
1.17239e-26
2.30777e-26
5.43745e-27
-7.32145e-27
-1.27248e-26
1.50557e-25
-1.37829e-25
-6.78991e-26
6.78959e-26
-5.10143e-26
-1.68587e-26
4.20426e-26
-8.09209e-26
8.41692e-26
2.59346e-27
8.08995e-26
1.73331e-26
-1.09135e-25
4.86871e-27
-8.20104e-27
8.7741e-27
-3.90229e-27
-1.61966e-25
1.36064e-25
-1.28025e-26
-5.9438e-26
7.22449e-26
1.84705e-28
8.59194e-27
1.15075e-26
2.89344e-26
-4.04459e-26
3.06022e-26
-3.05964e-26
1.77884e-26
4.52719e-26
-5.80137e-26
-4.52293e-26
1.46467e-26
1.85502e-26
-7.0332e-27
1.85651e-26
-3.36252e-26
5.09655e-26
3.87302e-27
4.79569e-27
-8.66836e-27
3.35953e-26
-1.50319e-26
-1.25845e-27
1.25894e-27
-1.47942e-27
2.7375e-27
9.15789e-27
1.16129e-26
-8.87545e-27
1.16819e-26
7.01521e-27
-1.13326e-26
-1.65335e-27
1.19832e-26
-3.72489e-28
-4.39137e-27
2.73837e-27
9.98114e-27
1.99931e-27
-2.73674e-27
-4.39467e-27
-5.7518e-27
5.75191e-27
-6.12409e-27
-7.01889e-27
4.17252e-28
4.22424e-27
-4.22381e-27
4.56716e-27
-5.80161e-26
-6.58158e-26
6.58047e-26
-6.12423e-27
1.77909e-26
1.35407e-27
7.78402e-27
5.54846e-27
-3.03851e-27
8.58679e-27
4.75148e-27
2.1614e-27
5.82042e-27
-7.98266e-27
-8.71628e-28
5.62296e-27
1.5455e-27
3.7183e-27
1.03548e-26
-4.52481e-27
1.48426e-26
-4.48381e-27
-2.4618e-26
7.47659e-27
-1.19933e-26
-4.46511e-27
2.07182e-26
-3.14443e-26
1.07267e-26
-1.22225e-26
3.2946e-26
1.03885e-26
-2.52114e-26
-6.22405e-27
-1.42299e-26
5.54886e-26
-4.47426e-26
-1.66994e-26
1.87262e-26
-2.70143e-26
-3.91045e-27
2.84592e-26
4.83202e-28
1.11979e-26
7.92851e-27
-5.26541e-26
5.05661e-27
7.97777e-26
-7.18745e-26
-5.65676e-26
-9.17573e-26
1.06274e-26
8.11275e-26
-5.13501e-26
-4.12419e-26
6.96992e-26
3.85533e-26
-1.81015e-27
-3.87093e-27
5.0563e-27
-5.31719e-26
1.07123e-25
-1.32705e-25
2.55818e-26
4.3903e-26
-9.7075e-26
-1.07011e-25
-1.78604e-26
1.24871e-25
-6.31286e-26
1.07046e-25
-1.22664e-25
1.56552e-25
-3.38893e-26
4.4002e-26
-1.11007e-25
-6.29745e-26
7.92248e-28
1.85839e-25
-1.72663e-25
5.66233e-26
9.99004e-26
1.68398e-27
3.22212e-26
-9.51967e-26
-5.21846e-27
2.82803e-26
1.51892e-25
1.62853e-25
-5.1345e-26
8.35695e-26
1.47334e-27
4.65011e-27
-4.6509e-27
2.27306e-26
1.03354e-25
-7.50619e-26
-1.36712e-27
1.21052e-27
-6.07219e-28
-3.35752e-26
-1.39101e-25
1.11058e-25
-7.7264e-27
-4.1357e-27
-5.19997e-28
4.96858e-26
-2.14007e-25
-1.02011e-27
4.71944e-26
1.4348e-25
-9.62864e-26
1.93108e-25
1.7228e-27
6.35677e-27
-5.59396e-26
-4.20089e-27
5.11238e-28
-7.53096e-27
-5.73687e-26
7.239e-26
-1.71993e-25
-8.96028e-26
-2.62024e-25
1.18001e-25
1.44023e-25
1.19608e-25
-9.58565e-27
3.16504e-27
2.99068e-28
-1.07353e-25
6.41836e-28
-8.18826e-26
1.2862e-25
-1.23807e-26
2.61019e-25
-1.03507e-25
4.28377e-26
-1.26418e-25
-8.38156e-26
-8.81746e-26
-3.79052e-28
8.56558e-28
9.91041e-26
-1.28649e-27
7.29732e-28
-8.54351e-27
1.89617e-28
-1.8989e-28
-1.84537e-25
-7.51319e-28
-8.90088e-27
6.87287e-25
-4.4214e-25
4.14933e-28
-4.14679e-28
-1.03815e-26
-1.83961e-27
-2.51226e-27
-5.00009e-28
5.00237e-28
4.70724e-27
-3.02832e-28
3.03035e-28
1.42947e-25
-7.72343e-25
1.61804e-25
-9.33766e-28
-8.03767e-29
2.02787e-26
-5.7047e-27
-1.60765e-26
1.90045e-25
-1.9231e-29
1.90048e-25
-1.90149e-29
1.96024e-26
5.92988e-25
1.86613e-28
5.79967e-30
-1.66175e-25
-1.20751e-28
-7.11335e-26
4.12377e-25
-2.6211e-29
-1.80265e-28
-3.91583e-26
2.85065e-26
6.93292e-26
-4.27201e-28
8.31255e-29
1.58814e-28
2.32616e-26
-1.52361e-25
-3.30648e-26
2.80435e-26
-2.32494e-26
-9.0869e-26
3.97169e-27
6.00651e-26
5.74179e-28
-5.06662e-26
6.63649e-26
-8.10098e-26
-2.50644e-26
9.5846e-27
1.20259e-25
8.7468e-26
-7.95346e-28
3.39373e-27
6.85393e-28
1.06582e-26
6.04214e-27
-3.56171e-27
3.56219e-27
-7.28504e-27
-4.85861e-27
-2.92689e-28
-1.71214e-27
-2.60806e-27
1.62879e-26
6.40537e-25
2.12954e-28
5.55374e-25
1.11174e-28
5.21163e-25
-2.8499e-25
1.88937e-25
-1.88948e-25
-2.06321e-29
-2.75938e-25
-2.06827e-29
-4.43694e-25
-1.98353e-25
4.93455e-28
-5.68639e-28
6.19105e-28
-7.2963e-28
1.1089e-28
-2.87599e-28
9.37727e-29
6.93067e-26
-3.18986e-28
2.29614e-28
-1.70788e-25
6.00621e-26
5.06606e-26
-2.93412e-28
3.39582e-27
-6.87525e-28
-1.6607e-27
-8.29859e-27
2.43194e-27
-1.92693e-27
-4.25136e-28
-7.62523e-29
-1.00726e-28
3.92946e-28
)
;

boundaryField
{
    back
    {
        type            empty;
        value           nonuniform List<scalar> 0();
    }
    front
    {
        type            empty;
        value           nonuniform List<scalar> 0();
    }
    left
    {
        type            calculated;
        value           uniform 0;
    }
    top
    {
        type            calculated;
        value           uniform 0;
    }
    right
    {
        type            calculated;
        value           uniform 0;
    }
    bottom
    {
        type            calculated;
        value           nonuniform List<scalar> 8(-7.30099e-25 -2.45152e-25 6.29414e-25 -4.58727e-25 -6.20913e-25 4.65054e-25 7.26183e-25 2.36185e-25);
    }
}


// ************************************************************************* //
