/*--------------------------------*- C++ -*----------------------------------*\
  =========                 |
  \\      /  F ield         | OpenFOAM: The Open Source CFD Toolbox
   \\    /   O peration     | Website:  https://openfoam.org
    \\  /    A nd           | Version:  9
     \\/     M anipulation  |
\*---------------------------------------------------------------------------*/
FoamFile
{
    format      ascii;
    class       volVectorField;
    location    "0.86";
    object      U;
}
// * * * * * * * * * * * * * * * * * * * * * * * * * * * * * * * * * * * * * //

dimensions      [0 1 -1 0 0 0 0];

internalField   nonuniform List<vector> 
464
(
(-1.49371e-17 -7.6981e-18 -1.11251e-36)
(-9.65063e-18 1.88178e-17 0)
(3.09755e-21 1.52566e-21 0)
(2.91736e-20 -6.58208e-22 -1.44013e-36)
(-6.95307e-18 1.48177e-17 0)
(2.83065e-21 2.50701e-21 3.86272e-37)
(-1.4232e-17 -4.13863e-18 9.90827e-36)
(2.81751e-20 -6.72175e-21 0)
(-1.7505e-17 6.61691e-19 -8.0305e-37)
(-1.66051e-17 5.00696e-18 -6.87896e-36)
(-1.18776e-17 -1.00475e-17 7.84765e-37)
(-5.05104e-18 -5.05811e-18 -7.97375e-37)
(-1.54955e-17 -1.23746e-18 1.37159e-36)
(-3.5859e-18 -5.86643e-18 0)
(-9.16965e-20 5.05043e-18 2.09564e-36)
(1.05364e-19 4.37563e-18 -6.24184e-36)
(3.67829e-19 3.98604e-19 0)
(1.88265e-19 1.49499e-19 -1.05053e-36)
(2.24573e-21 -4.59502e-21 1.01334e-36)
(-1.31813e-19 -2.81652e-19 -5.83509e-37)
(-1.28904e-19 -2.756e-19 9.15097e-37)
(-6.99302e-20 -3.12033e-20 -2.93056e-37)
(-1.06466e-19 -5.37771e-20 1.40559e-37)
(2.68685e-20 8.41459e-21 0)
(2.6532e-20 1.69927e-21 1.47909e-36)
(2.26126e-20 1.40415e-20 -6.9162e-37)
(-1.2068e-18 2.29361e-18 -1.0299e-35)
(1.02044e-20 -2.45735e-20 1.21774e-36)
(-1.70387e-18 3.20812e-18 0)
(-9.47756e-21 2.20945e-20 0)
(-5.08804e-21 2.13197e-20 -8.21124e-38)
(1.62071e-18 4.34366e-18 3.62387e-41)
(1.23294e-18 4.85735e-18 2.27631e-37)
(1.48546e-18 2.83109e-18 -1.39639e-36)
(1.79753e-18 2.38602e-18 1.40733e-36)
(1.34621e-19 -4.60864e-20 1.9464e-36)
(1.92145e-19 -1.07666e-19 -1.72949e-36)
(4.71656e-21 -1.18982e-20 1.54942e-37)
(3.82489e-21 -2.58565e-20 -6.90104e-38)
(4.05544e-19 4.07326e-18 0)
(-8.6496e-20 -3.12955e-19 -5.16154e-37)
(-1.15052e-19 -1.2467e-19 0)
(-1.33576e-19 -9.52516e-20 3.48106e-37)
(-1.95772e-18 3.29291e-19 -2.44366e-35)
(-3.84239e-18 -1.44903e-18 2.49228e-35)
(4.15612e-19 4.83123e-18 1.91526e-37)
(-7.64289e-20 1.18881e-20 -8.97101e-37)
(-4.48979e-20 5.44381e-20 5.00182e-38)
(3.54796e-23 -1.24866e-20 0)
(9.31796e-21 -1.81144e-20 -1.50012e-37)
(-5.4546e-20 -3.50456e-19 3.25852e-37)
(-8.34588e-21 -2.16551e-20 6.22715e-38)
(-1.14791e-20 -3.08159e-19 -4.72953e-38)
(-2.06406e-19 1.44503e-19 7.43336e-37)
(-1.70602e-19 2.17549e-19 2.44531e-38)
(-2.44961e-20 -1.10215e-20 -9.03542e-37)
(-4.27205e-20 -5.88171e-21 0)
(3.32945e-19 1.21363e-19 0)
(2.48386e-19 2.03152e-19 1.76543e-36)
(1.53497e-20 -3.34199e-19 0)
(2.56711e-21 -1.91992e-20 -1.17733e-36)
(-7.90587e-18 3.51054e-18 3.08834e-35)
(1.08509e-18 -1.36556e-19 -2.88462e-36)
(-6.36567e-20 1.33901e-19 8.25253e-37)
(-1.36316e-17 4.5476e-18 -1.24744e-37)
(-2.26765e-19 8.13087e-20 7.89384e-37)
(1.00077e-18 -8.17611e-19 2.81767e-36)
(-2.10951e-21 -1.87396e-20 8.6279e-37)
(-8.68122e-18 -7.02232e-18 -8.91795e-36)
(-1.303e-19 2.76062e-19 -8.94776e-37)
(3.28902e-19 1.26313e-19 -1.76177e-36)
(-1.09199e-17 6.06717e-18 -1.6541e-35)
(-1.11394e-18 4.35132e-18 0)
(-5.21407e-20 3.12732e-20 -7.80777e-37)
(4.26969e-19 -5.24137e-18 -1.77409e-36)
(-2.88049e-21 -2.69623e-20 -1.14075e-36)
(9.90421e-19 -4.83524e-19 2.4613e-36)
(-1.69809e-17 -7.46308e-18 -9.65268e-36)
(1.87452e-19 1.13951e-19 9.40977e-37)
(-4.18929e-19 4.29088e-18 4.74078e-36)
(-6.74487e-18 9.13348e-18 0)
(1.10571e-20 1.10461e-20 -3.63368e-37)
(-1.5514e-18 2.71932e-18 -4.16535e-35)
(3.50537e-21 8.86753e-21 -1.48652e-36)
(-4.04602e-18 5.09204e-18 0)
(7.54729e-19 -5.32224e-20 5.25697e-38)
(-7.7862e-18 1.1638e-18 -1.45283e-35)
(7.87306e-21 1.51038e-20 0)
(1.91451e-20 -1.00673e-20 0)
(5.70372e-19 -5.23199e-18 -1.39533e-36)
(-4.88074e-18 3.06648e-18 2.30792e-35)
(-1.02647e-17 9.73335e-18 0)
(1.79507e-18 -2.00212e-18 -2.90184e-36)
(-6.88416e-18 -1.26993e-17 -2.35875e-35)
(1.60357e-18 -2.64091e-18 2.85469e-36)
(1.26774e-18 -3.64824e-19 1.52599e-36)
(3.769e-20 1.88628e-19 -9.43162e-37)
(1.69884e-20 1.19238e-20 3.33256e-37)
(-1.52746e-19 -2.92593e-18 -1.64109e-35)
(-1.34462e-17 1.19205e-19 -9.43494e-37)
(2.00475e-20 -6.27014e-22 0)
(-7.83969e-20 9.96363e-20 -1.18826e-38)
(5.08042e-21 4.22358e-21 0)
(1.79365e-18 3.72615e-18 -3.54603e-41)
(1.51237e-18 3.58137e-18 0)
(-1.03783e-18 2.5625e-18 -3.37696e-35)
(1.44902e-21 2.63972e-21 0)
(1.424e-18 -1.14539e-18 -2.76595e-36)
(-2.6291e-18 4.27822e-19 -2.31039e-35)
(-1.65663e-19 1.36105e-19 0)
(1.64057e-18 -3.71831e-18 0)
(-8.60963e-20 3.63004e-20 9.15808e-37)
(1.35668e-18 -1.6392e-18 0)
(-5.74374e-19 -4.3669e-18 9.06345e-36)
(4.7732e-21 -1.45476e-20 -3.96059e-38)
(-1.66831e-20 -8.00118e-22 1.98098e-38)
(-9.40674e-19 -2.38337e-19 3.19662e-35)
(2.24184e-21 1.45658e-20 -1.5384e-36)
(-1.84741e-19 -1.50779e-18 1.31986e-35)
(3.54661e-21 2.26893e-20 8.76042e-38)
(-1.26181e-19 1.0483e-19 -7.71602e-37)
(-1.10827e-17 -2.93807e-19 -1.55969e-37)
(-9.80655e-18 9.40718e-19 5.89248e-36)
(-1.11678e-17 -3.03367e-18 -8.95649e-36)
(5.8038e-19 -4.06488e-20 0)
(1.82599e-18 -3.95485e-18 -7.81586e-37)
(-8.45139e-18 -2.29781e-19 -5.94383e-36)
(1.0302e-18 -3.61266e-18 0)
(1.54897e-18 1.77331e-18 0)
(-6.80668e-19 4.89707e-19 3.22687e-35)
(1.44241e-21 6.72897e-21 1.15448e-36)
(-7.67453e-19 -5.15619e-19 -2.74601e-35)
(1.76596e-21 -9.39971e-21 9.63009e-37)
(-4.2379e-20 4.69204e-22 0)
(-2.2414e-20 -5.11054e-21 0)
(-4.01098e-19 -8.19967e-19 -2.5351e-35)
(5.05617e-24 8.62556e-21 2.28323e-36)
(1.38749e-20 -2.26285e-20 1.30893e-36)
(-1.27069e-17 1.9092e-18 7.22261e-36)
(-9.82802e-21 -2.70785e-20 -1.04839e-36)
(-8.62217e-21 -4.95474e-22 0)
(1.97463e-18 -2.98932e-18 0)
(1.8352e-19 1.77663e-19 3.98933e-37)
(-1.49904e-20 -9.9285e-21 -1.19967e-36)
(-1.63983e-21 1.37299e-20 -1.39152e-36)
(7.53952e-20 -4.85294e-18 -6.38191e-36)
(-7.39489e-20 -2.50634e-21 0)
(9.28437e-21 2.18992e-20 0)
(-1.35175e-19 1.86839e-19 -1.41674e-38)
(-2.18971e-20 -7.63896e-20 2.46578e-36)
(-1.06407e-19 -7.10934e-21 -3.46629e-38)
(-3.70121e-20 6.45381e-21 -1.19931e-36)
(-2.77895e-18 2.64208e-18 4.59518e-36)
(1.34065e-18 -4.67584e-18 7.85053e-37)
(-4.8616e-19 -2.05341e-18 -2.0175e-38)
(-1.50406e-20 -3.0889e-20 1.47318e-36)
(3.35544e-19 7.065e-19 0)
(-1.43506e-19 -3.27276e-21 0)
(-8.96899e-18 -8.30374e-22 7.87294e-37)
(-3.03974e-18 -1.28542e-18 1.80858e-35)
(-1.59377e-18 -4.91935e-20 0)
(-1.74714e-19 -2.05042e-20 9.67322e-37)
(4.78763e-19 -4.52044e-18 1.79738e-36)
(-1.27509e-20 -5.7912e-20 -1.14107e-37)
(-2.56624e-20 -1.36809e-19 -1.06534e-36)
(-2.70331e-21 5.12885e-21 0)
(-3.20703e-19 1.0836e-18 1.15478e-36)
(-5.97957e-20 -2.13347e-19 -7.47107e-37)
(6.47077e-19 3.68267e-18 7.34247e-37)
(1.2912e-19 -1.3873e-18 -3.96123e-36)
(2.72315e-19 -2.23136e-18 -1.47474e-36)
(-5.12461e-18 -8.92503e-19 -1.17285e-35)
(7.83332e-20 -3.09443e-18 -3.54102e-36)
(-4.92611e-20 -3.3074e-20 2.91156e-37)
(2.17495e-19 -2.79176e-18 2.51797e-36)
(6.95834e-19 -2.72862e-18 4.00978e-36)
(-2.07224e-19 -5.36324e-21 -9.56233e-37)
(-2.26514e-19 -3.7732e-20 3.34013e-39)
(-3.96588e-18 2.61235e-18 6.01694e-36)
(6.24215e-19 1.72119e-18 4.56415e-37)
(-2.04394e-19 -1.03605e-19 -8.70653e-37)
(4.74163e-19 -9.38584e-19 -4.34443e-36)
(1.25029e-19 6.35992e-19 0)
(2.26967e-19 9.50488e-19 -5.45244e-36)
(2.01478e-19 2.08892e-18 1.15352e-36)
(2.45059e-19 1.51296e-18 -1.23849e-37)
(1.73161e-19 -4.81011e-19 0)
(1.10805e-19 -3.6791e-19 5.4375e-36)
(7.51184e-20 -1.66228e-18 -4.23121e-36)
(2.71164e-19 -1.58721e-18 -1.02319e-38)
(-9.29498e-20 1.88864e-19 7.0965e-40)
(2.31103e-19 -9.79125e-19 -6.8018e-36)
(-1.07272e-20 2.48794e-20 8.31948e-37)
(-5.93966e-20 1.27371e-19 7.03431e-37)
(9.36752e-20 2.93972e-19 -1.58518e-39)
(4.30823e-20 3.2497e-19 1.59021e-39)
(-8.70415e-20 -2.85918e-19 6.86945e-37)
(-1.46709e-19 1.90795e-19 -7.02101e-40)
(1.2401e-19 9.7076e-19 -2.87996e-36)
(-8.66862e-20 2.80655e-19 -9.45185e-37)
(-6.43292e-20 2.15015e-19 0)
(-7.54454e-21 3.22947e-19 0)
(-2.72029e-20 1.32564e-19 0)
(-4.5048e-20 3.41007e-19 -1.13401e-39)
(1.36525e-19 -6.76932e-19 0)
(-2.40426e-20 7.37204e-20 -9.87204e-39)
(-1.30749e-20 9.09285e-20 0)
(-7.98076e-21 1.20191e-19 8.66545e-37)
(-9.8241e-21 2.21651e-19 -1.82938e-36)
(-2.96575e-20 -1.74459e-18 6.218e-36)
(-6.702e-21 -7.22852e-21 -1.09523e-36)
(7.8486e-20 -1.32911e-19 0)
(-3.04569e-21 -9.28104e-21 -7.4429e-37)
(2.25017e-20 -1.05273e-19 -1.06744e-36)
(-1.23871e-20 -9.53688e-20 0)
(1.46066e-19 -1.03487e-18 3.96636e-36)
(7.19143e-20 1.29126e-18 1.96154e-36)
(-1.33698e-20 5.60233e-20 -3.95722e-37)
(-1.95585e-19 1.5056e-18 4.23203e-36)
(3.57519e-21 1.29885e-19 1.46373e-36)
(1.24533e-19 3.79308e-19 4.05737e-36)
(-2.38035e-20 1.89075e-19 -1.08377e-36)
(-4.97767e-20 2.91794e-19 9.46322e-37)
(-1.92519e-19 1.16227e-19 -1.57678e-36)
(-2.36669e-19 -5.84886e-21 -7.89796e-37)
(-2.24837e-19 -5.83911e-20 7.5018e-37)
(-1.98366e-19 -1.0048e-20 0)
(3.3352e-20 -2.06515e-19 -1.93649e-37)
(-1.42659e-19 -7.07618e-20 1.76652e-38)
(-6.19713e-20 -6.31284e-21 6.08899e-37)
(5.417e-20 -7.16832e-20 -6.0352e-37)
(1.37949e-19 -2.314e-19 -1.46639e-39)
(3.34518e-19 -1.33065e-19 0)
(5.76065e-19 3.24031e-20 1.28329e-36)
(9.06183e-20 -3.11212e-19 7.82701e-38)
(2.04811e-19 -7.57397e-21 0)
(9.07282e-19 2.32222e-19 3.38171e-38)
(7.58487e-19 5.43916e-20 1.37756e-37)
(3.8582e-19 -4.49938e-20 -6.1086e-37)
(6.51096e-19 2.33857e-19 1.28595e-36)
(6.14177e-19 -2.25824e-21 6.27029e-37)
(1.27893e-18 3.75079e-19 -2.72594e-37)
(4.73689e-19 -7.55729e-20 9.83514e-38)
(8.55006e-19 2.59095e-20 0)
(1.15287e-18 3.12861e-21 0)
(6.49002e-19 4.79159e-19 1.36596e-37)
(1.43377e-18 1.39184e-19 2.63893e-39)
(-5.01462e-20 -3.01683e-19 0)
(1.4071e-18 7.36038e-19 0)
(-1.77309e-20 -1.88088e-19 0)
(1.83268e-18 8.38435e-19 -1.26682e-37)
(1.04876e-18 8.55121e-19 -2.58986e-36)
(2.19438e-18 -7.88922e-19 1.68712e-36)
(1.18701e-18 -4.676e-18 1.39965e-36)
(1.76287e-18 2.04582e-21 0)
(2.03486e-18 2.7551e-19 0)
(-1.37074e-19 1.59227e-20 0)
(-1.53465e-21 -1.16319e-19 7.50905e-39)
(2.3179e-18 -3.5184e-20 5.78296e-37)
(2.50649e-18 2.03329e-18 0)
(2.50653e-18 4.45921e-19 -5.47726e-37)
(2.57813e-18 -1.73181e-18 -2.38238e-36)
(2.70497e-18 -2.6093e-20 -8.49214e-37)
(7.22843e-19 4.14105e-18 2.04018e-36)
(2.76131e-18 6.57036e-19 8.49234e-37)
(-2.258e-19 3.27552e-18 -7.35973e-36)
(2.71339e-18 -6.80356e-20 1.94001e-39)
(5.66553e-21 -2.24487e-20 3.87116e-38)
(-7.22983e-20 5.40198e-18 -3.07496e-36)
(1.44193e-18 3.19218e-18 -2.06783e-36)
(-4.3184e-20 -5.89044e-20 1.03815e-36)
(2.46722e-18 8.39542e-19 0)
(7.22515e-19 -3.63735e-20 -1.14522e-36)
(6.06846e-19 5.25347e-18 -6.92462e-37)
(-1.00982e-17 -8.9769e-19 1.89318e-36)
(2.11216e-18 -6.41257e-20 0)
(1.51157e-18 1.03364e-18 0)
(6.88352e-20 2.62776e-19 2.30004e-36)
(2.23617e-20 1.02525e-19 0)
(-3.60298e-19 -5.15522e-18 -2.75897e-36)
(7.26753e-19 -2.36181e-18 -1.25238e-39)
(-3.75346e-20 -9.50439e-21 5.64717e-38)
(1.72148e-20 2.01608e-19 0)
(-2.49818e-20 3.53761e-21 9.234e-37)
(-9.50677e-19 4.93245e-18 -4.53948e-36)
(-2.1395e-19 -3.3199e-18 -1.52041e-36)
(5.79295e-20 9.68011e-20 4.19171e-36)
(-5.96293e-18 -1.41614e-18 0)
(-2.8892e-20 -1.54009e-20 0)
(-1.48079e-18 -2.23507e-18 1.56478e-36)
(-2.68675e-18 -2.79667e-18 2.03212e-38)
(-4.58813e-18 -1.57276e-18 -1.19672e-38)
(-9.65448e-20 8.76144e-21 1.05917e-36)
(-2.04526e-19 9.1643e-20 -1.64557e-36)
(1.80482e-18 -8.28232e-19 -1.72809e-36)
(1.79862e-19 5.99313e-20 -5.84496e-36)
(1.10957e-19 -1.22912e-19 0)
(9.85805e-19 -2.51536e-18 3.10694e-37)
(8.17684e-19 -1.51449e-18 4.35418e-36)
(-4.65352e-18 -2.22234e-18 1.16101e-35)
(-1.22187e-18 3.8596e-18 3.62049e-36)
(-3.08504e-18 8.69835e-19 5.75638e-37)
(-5.51162e-18 7.836e-19 -2.46597e-35)
(-4.16968e-18 -9.14469e-18 2.99209e-35)
(1.17763e-19 -2.57016e-19 3.68546e-37)
(2.25165e-18 -1.4179e-18 1.77255e-36)
(2.45517e-18 -2.09504e-18 2.92195e-36)
(4.39094e-20 -2.7733e-19 4.74894e-37)
(-1.48297e-18 -2.71163e-18 -3.288e-35)
(6.6844e-19 -3.71905e-18 1.4531e-36)
(-1.17315e-19 2.82846e-19 8.9497e-37)
(-7.03536e-20 -2.23475e-21 6.34374e-38)
(1.66067e-18 -4.11133e-19 0)
(-6.79596e-18 4.04558e-19 3.19506e-37)
(2.23639e-18 -2.74676e-18 1.77289e-36)
(1.40099e-18 -3.21607e-18 0)
(4.77713e-20 2.00867e-20 -3.32463e-36)
(-2.68058e-18 -3.69075e-18 0)
(2.38784e-20 -6.66181e-21 0)
(-6.15511e-18 1.28807e-18 -6.09865e-36)
(-2.70121e-20 1.17898e-20 -1.01144e-36)
(5.95747e-19 -7.15804e-19 1.37055e-38)
(-1.52239e-18 -3.9551e-18 1.50192e-35)
(6.15688e-19 -1.75988e-18 -4.30974e-36)
(-4.89558e-18 -7.27021e-20 -1.95252e-36)
(-1.6835e-20 2.62249e-20 7.28017e-38)
(-8.92331e-21 -4.67389e-21 7.0504e-37)
(-7.40673e-18 4.49834e-19 7.85585e-36)
(-7.49542e-21 -2.35391e-20 0)
(-2.03548e-18 -4.15782e-18 -5.88507e-36)
(-1.55176e-19 -2.10664e-19 4.89846e-37)
(-1.82362e-17 6.30364e-18 -3.70797e-36)
(9.79194e-21 5.12802e-22 6.15847e-37)
(2.56875e-18 -1.24287e-18 -3.23778e-36)
(-5.58087e-20 3.2537e-19 1.12841e-39)
(-1.97839e-19 4.4978e-20 8.29572e-37)
(-4.93054e-20 -2.00771e-21 9.46924e-37)
(9.29993e-21 -7.42585e-22 1.14773e-36)
(8.70408e-19 -4.61197e-18 -1.48114e-36)
(-1.24107e-19 -1.81552e-19 -9.28315e-37)
(7.26768e-21 -1.47913e-21 -5.83733e-37)
(-1.49819e-17 -1.62409e-17 0)
(-7.65243e-20 -4.86503e-18 -3.94294e-38)
(-7.6121e-19 -5.03321e-18 5.84078e-36)
(2.02965e-18 -2.14067e-18 -7.60231e-37)
(2.14899e-20 -1.71943e-20 -6.30354e-37)
(-6.89579e-21 2.90621e-21 -1.06437e-36)
(6.41728e-19 -2.31203e-19 -2.45414e-36)
(1.73575e-20 2.25295e-22 -1.4049e-36)
(1.64869e-20 2.93642e-19 0)
(-1.58689e-19 4.32783e-20 2.70102e-38)
(1.54888e-20 -2.64063e-21 6.63946e-37)
(3.19656e-19 -3.30639e-19 0)
(3.72706e-19 -1.55228e-19 3.09349e-36)
(-1.28427e-19 6.34117e-20 7.94855e-37)
(-3.21708e-18 1.23008e-17 4.05282e-35)
(1.02597e-22 3.97814e-22 0)
(-9.35053e-19 5.07596e-18 -2.18844e-35)
(3.37561e-22 2.33315e-22 5.66744e-37)
(-1.24169e-17 1.62018e-17 0)
(7.97907e-21 2.21535e-21 8.29742e-37)
(-1.83585e-17 -1.72186e-18 4.57883e-37)
(5.60054e-21 5.27425e-21 -4.12995e-37)
(-5.38382e-18 1.0782e-17 0)
(-1.08385e-17 -1.31666e-17 7.21747e-37)
(2.86931e-21 -3.65065e-21 -1.39022e-36)
(2.52556e-20 -1.2082e-20 0)
(1.23063e-18 1.55191e-18 0)
(-1.37278e-18 -2.41057e-18 0)
(-1.30643e-21 2.34485e-20 -7.53165e-37)
(8.34383e-21 -3.36193e-21 0)
(-8.96976e-19 2.09266e-19 5.33606e-35)
(-1.61569e-18 4.56405e-18 -9.00058e-37)
(6.12819e-19 1.1154e-18 0)
(-3.89981e-19 1.84204e-18 3.60654e-36)
(2.76757e-20 2.43566e-21 0)
(-5.8531e-18 -9.63302e-19 1.38149e-35)
(-6.86539e-20 -9.9047e-20 -1.73914e-36)
(-1.52644e-19 2.68027e-18 2.87442e-35)
(-1.88989e-20 9.77596e-21 -3.75229e-37)
(1.20456e-19 2.40475e-18 0)
(9.73746e-19 3.55262e-18 -7.71358e-37)
(9.0374e-19 2.40456e-18 0)
(2.27962e-18 2.77221e-18 2.83818e-37)
(1.90536e-18 1.29131e-18 -1.79129e-37)
(1.80309e-18 3.52389e-18 0)
(2.2618e-18 2.04445e-18 -1.96812e-37)
(1.9975e-20 1.62742e-20 7.98831e-37)
(1.67386e-19 4.16651e-19 0)
(4.50424e-20 -9.64043e-20 0)
(1.71495e-19 -2.62594e-19 -3.56176e-37)
(4.09698e-19 2.16747e-20 0)
(1.55391e-20 -1.81098e-19 8.81438e-37)
(-3.73771e-21 -1.95079e-19 3.05361e-37)
(-6.18789e-20 -2.4266e-19 1.51859e-37)
(-1.71587e-19 -9.04343e-20 9.04133e-37)
(-1.96113e-19 -1.58417e-19 0)
(-5.93294e-20 -1.91476e-21 2.49942e-36)
(-7.86487e-20 -1.84814e-19 0)
(-3.52217e-18 2.38601e-18 1.28676e-35)
(-1.52585e-17 1.62915e-17 0)
(4.63311e-21 5.28639e-22 0)
(-1.27495e-17 -1.66743e-17 0)
(2.32431e-21 -1.66669e-21 5.2659e-37)
(-1.87975e-17 -9.52477e-21 4.91218e-36)
(-1.69416e-17 -1.07807e-17 0)
(-1.14526e-18 -5.35123e-18 0)
(4.86529e-22 -4.8857e-22 -1.00674e-36)
(-3.44608e-18 -1.23238e-17 0)
(3.27034e-22 -3.65133e-22 1.29366e-36)
(-1.63296e-17 8.42248e-18 3.42098e-36)
(1.93627e-20 -1.3867e-20 -7.12153e-37)
(2.10211e-20 3.5806e-21 0)
(4.87798e-21 1.29284e-20 -6.75721e-37)
(2.67263e-20 4.96071e-21 0)
(-1.28852e-17 1.1824e-17 0)
(-6.00517e-19 -1.86403e-18 0)
(1.3014e-20 -1.4044e-20 -4.19904e-38)
(1.67805e-20 6.52733e-21 -7.46488e-37)
(-1.73895e-17 1.00247e-17 -3.39569e-36)
(2.05811e-20 -8.92175e-21 -7.63633e-37)
(1.36236e-20 1.08716e-21 -8.93499e-37)
(-8.91828e-18 -3.67445e-18 9.55709e-36)
(-2.63441e-19 5.94459e-19 -2.42262e-35)
(-9.6329e-18 -1.92018e-17 -1.96679e-35)
(-3.06991e-18 3.41443e-18 5.26751e-36)
(-1.15458e-20 1.45961e-18 -1.02889e-35)
(7.59007e-20 2.56741e-18 2.53084e-36)
(3.71882e-20 1.28409e-18 -1.82688e-36)
(-2.14841e-18 6.60215e-18 4.91787e-35)
(2.06832e-21 2.40309e-21 -8.4445e-37)
(2.29672e-18 2.39279e-18 -3.05189e-37)
(5.98245e-19 2.53624e-18 1.39585e-37)
(1.2775e-20 2.14137e-20 -1.41679e-36)
(2.31413e-18 1.24727e-18 5.49326e-37)
(6.509e-20 9.74535e-20 0)
(6.2002e-20 5.54763e-20 9.1066e-37)
(-1.38702e-20 1.36841e-20 7.07363e-37)
(2.3942e-20 -2.22302e-20 0)
(-5.50678e-21 1.73611e-20 7.60091e-37)
(3.55831e-19 -1.24877e-19 0)
(1.84212e-21 -9.48462e-20 -1.98729e-37)
(-1.36289e-19 -1.77417e-19 -6.64773e-38)
(-1.71353e-19 -2.07289e-19 3.40666e-37)
(-9.87967e-20 -1.49595e-20 -1.75485e-36)
(-2.07199e-19 -1.52306e-19 2.45314e-38)
(-1.22277e-19 -3.56335e-20 6.22723e-37)
(-4.89338e-20 -1.23575e-19 6.15933e-37)
(-1.61046e-19 -4.67339e-20 -6.23376e-37)
(-5.00538e-20 -3.45877e-19 -4.74293e-39)
(8.4189e-19 4.47056e-18 0)
(-1.85192e-17 -6.23155e-18 -2.73971e-36)
(8.04279e-19 5.22422e-18 2.89389e-36)
(1.37318e-20 1.61983e-20 0)
(1.27683e-20 -3.49831e-19 -9.5576e-38)
(8.3598e-19 1.55111e-18 0)
(9.94759e-19 1.1227e-18 1.47823e-36)
(4.86375e-21 -4.81575e-21 7.05193e-37)
(1.30807e-20 -6.03715e-21 7.43731e-39)
(9.15322e-21 -8.51317e-21 5.35559e-40)
(2.31897e-21 -1.77567e-21 -1.19304e-36)
(-1.64638e-18 -5.91449e-18 0)
(-6.68707e-18 -1.54288e-17 5.5836e-36)
(7.26001e-21 2.17615e-20 1.78091e-36)
)
;

boundaryField
{
    back
    {
        type            empty;
    }
    front
    {
        type            empty;
    }
    left
    {
        type            noSlip;
    }
    top
    {
        type            uniformFixedValue;
        uniformValue    
        {
            type            scale;
            scale           
            {
                type            squarePulse;
                start           0.3;
                duration        0.3;
            }
            xScale          
            {
                type            constant;
                value           1;
            }
            value           
            {
                type            constant;
                value           (0 -0.7 0);
            }
        }
        value           uniform (0 -0 0);
    }
    right
    {
        type            noSlip;
    }
    bottom
    {
        type            zeroGradient;
    }
}


// ************************************************************************* //
