/*--------------------------------*- C++ -*----------------------------------*\
  =========                 |
  \\      /  F ield         | OpenFOAM: The Open Source CFD Toolbox
   \\    /   O peration     | Website:  https://openfoam.org
    \\  /    A nd           | Version:  9
     \\/     M anipulation  |
\*---------------------------------------------------------------------------*/
FoamFile
{
    format      ascii;
    class       surfaceScalarField;
    location    "0.36";
    object      phi;
}
// * * * * * * * * * * * * * * * * * * * * * * * * * * * * * * * * * * * * * //

dimensions      [0 3 -1 0 0 0 0];

internalField   nonuniform List<scalar> 
816
(
1.61997e-09
-1.19341e-08
1.03142e-08
-2.36025e-09
-2.17159e-08
2.40761e-08
1.92562e-08
-1.76363e-08
3.04513e-08
-3.01383e-08
-3.13048e-10
1.24677e-08
-1.24677e-08
2.63314e-08
5.03375e-09
-3.13652e-08
1.33421e-08
-1.33421e-08
-1.32571e-08
1.32571e-08
-2.33735e-08
-3.5357e-09
2.69092e-08
-1.31636e-08
1.08033e-08
3.76522e-08
-1.13208e-08
3.22459e-08
-2.29038e-08
-9.34217e-09
8.16725e-09
1.798e-08
-2.61473e-08
3.22901e-08
-3.19323e-08
-3.57816e-10
3.24238e-08
-3.11942e-08
-1.22952e-09
-2.02872e-08
3.12043e-08
-1.09171e-08
5.07882e-09
1.26283e-08
-1.77071e-08
-3.04488e-08
3.65855e-09
2.67902e-08
4.08653e-09
2.81594e-08
1.24091e-08
-3.57826e-08
2.30579e-08
7.39345e-09
1.16735e-09
-2.14546e-08
1.95204e-08
-3.75588e-09
-1.57645e-08
-2.21421e-08
-8.74953e-09
3.08916e-08
-2.39959e-08
1.85382e-09
-2.68275e-08
6.07634e-09
2.07512e-08
-2.7307e-08
3.09002e-08
-3.59316e-09
9.01682e-10
1.0388e-08
-1.12896e-08
8.82081e-09
-3.05367e-08
1.16654e-08
1.95389e-08
-1.92577e-08
2.01594e-08
-2.17408e-08
2.67745e-08
3.87176e-08
-2.70522e-08
-3.36445e-08
1.71129e-08
1.65316e-08
2.26391e-09
3.01598e-08
-5.85745e-09
2.53964e-08
1.97538e-09
3.03148e-08
-4.23086e-09
-2.25967e-08
-3.23163e-08
1.10136e-08
2.13027e-08
6.99641e-09
5.47124e-09
-1.04923e-08
-9.17052e-09
9.02619e-09
-2.96361e-08
-1.55812e-09
-2.53477e-08
-7.19337e-09
3.25411e-08
7.17146e-09
6.17059e-09
-1.10781e-08
2.80792e-08
-3.16149e-08
-1.30601e-08
-2.54605e-08
-1.84652e-09
-9.39696e-10
1.09986e-08
-1.00589e-08
2.40387e-08
-1.58714e-08
2.06849e-08
-1.16453e-09
-1.09611e-08
-2.26834e-08
1.35715e-08
1.26785e-08
8.53805e-09
-2.88734e-08
2.03354e-08
-3.75588e-09
-2.53477e-08
2.86219e-08
-2.35431e-08
7.80787e-09
-1.36653e-08
-1.8269e-09
-6.56431e-09
1.91926e-08
2.28512e-08
-1.91926e-08
-2.8849e-09
-2.90474e-08
-1.40493e-08
-1.53398e-08
2.93891e-08
-3.30495e-08
3.41335e-09
2.48588e-08
1.38588e-08
1.69315e-08
2.07208e-08
-1.27913e-08
3.42456e-08
-2.14543e-08
5.8028e-09
2.31052e-08
-2.8908e-08
-6.88303e-09
-2.26805e-08
1.25736e-08
-2.66229e-08
2.33453e-08
1.11545e-08
-3.44998e-08
1.15375e-08
2.00968e-08
-3.16343e-08
1.33772e-08
-1.33772e-08
-1.20966e-08
2.45057e-08
-1.74133e-08
5.31669e-09
3.05536e-08
4.49838e-09
5.8158e-09
-1.03142e-08
-3.13998e-08
5.69715e-09
2.57027e-08
-1.19341e-08
1.4045e-08
-1.4045e-08
-1.2498e-08
1.2498e-08
1.54334e-08
-3.08216e-08
1.53883e-08
-7.04982e-09
-1.37291e-09
1.09986e-08
-2.09381e-08
2.94762e-08
-4.54004e-10
-2.15502e-08
2.20042e-08
-1.87034e-08
-3.55664e-10
1.90591e-08
1.16425e-08
-1.71336e-08
3.2567e-08
-6.09002e-10
-2.35672e-08
2.41762e-08
1.9773e-08
9.68178e-09
-2.94548e-08
-2.37084e-08
5.79517e-09
1.80518e-08
-2.38469e-08
-1.30513e-08
-1.34688e-08
-1.31636e-08
-7.33273e-10
3.08931e-08
-1.78176e-09
-3.12677e-08
-1.9007e-08
2.48098e-08
-2.61332e-08
1.62815e-08
9.8517e-09
1.5512e-08
1.41965e-08
1.20535e-08
-2.3038e-09
3.26186e-08
-1.98277e-08
1.04923e-08
-7.04982e-09
1.40777e-09
-1.4785e-08
1.09238e-08
1.44726e-08
2.91816e-08
1.79132e-08
-2.84286e-08
1.05154e-08
-1.20554e-08
-1.40778e-08
-8.34899e-09
-2.17893e-08
1.18701e-09
-2.51987e-08
2.40117e-08
5.5886e-10
-1.92623e-08
2.73952e-08
-1.31987e-08
-1.29931e-09
2.20505e-08
-1.59008e-08
3.4028e-09
5.56273e-09
2.60035e-08
-2.94559e-09
-1.85576e-09
2.56577e-08
-2.63656e-08
7.07896e-10
-1.83734e-08
-1.30265e-08
-2.52789e-08
1.75348e-08
7.74419e-09
-2.50693e-08
-2.43014e-09
2.84205e-08
5.03056e-11
-2.84708e-08
2.79478e-08
-2.29004e-09
-7.20065e-09
2.69737e-08
-7.72689e-09
7.72689e-09
2.60799e-08
2.34064e-09
1.31375e-09
-2.30701e-08
2.17564e-08
-2.70128e-10
-2.26336e-08
-2.60513e-08
-2.37732e-09
2.05983e-08
-2.0548e-08
3.96128e-10
-8.24507e-09
7.84894e-09
2.87844e-09
2.09944e-08
3.50485e-10
2.27796e-08
-2.31301e-08
-9.02619e-09
-1.14294e-10
2.1417e-08
1.63776e-09
1.7729e-08
-1.93668e-08
-2.01657e-08
1.58508e-08
4.31494e-09
-2.6842e-08
2.44118e-08
-3.16608e-08
1.56336e-09
3.00974e-08
-1.48372e-08
1.48372e-08
7.80787e-09
1.08119e-09
6.6457e-09
-2.17551e-09
-2.90815e-08
3.12571e-08
-9.67984e-10
-2.44925e-08
2.8539e-08
-1.97182e-08
-5.40992e-09
2.79042e-08
-2.24943e-08
5.8158e-09
-4.39547e-10
-3.12212e-08
-2.9487e-08
-8.24506e-09
-2.09052e-08
2.24686e-08
-1.09846e-08
1.09846e-08
-2.52042e-08
-1.06341e-08
2.05702e-08
-2.27457e-08
-2.14994e-08
1.60895e-08
-1.01825e-08
3.71781e-08
-2.69956e-08
-7.11572e-10
-2.01937e-08
9.17053e-09
-9.44066e-09
-7.88936e-09
9.20311e-09
6.22431e-10
-7.12909e-09
6.50666e-09
-4.37151e-10
2.10073e-08
1.73445e-08
1.20446e-08
-1.13248e-08
2.86693e-08
-2.2356e-08
-1.01838e-08
9.47227e-09
8.54368e-11
-2.23503e-08
2.22649e-08
9.03781e-09
-9.47496e-09
1.1308e-09
-2.29078e-08
2.1777e-08
1.80892e-08
-1.94621e-08
1.92288e-08
-3.05128e-09
-2.00189e-08
-2.01657e-08
-1.36653e-08
-1.34965e-08
-1.17825e-08
-2.99932e-08
1.78361e-10
2.98148e-08
-1.06454e-08
1.07308e-08
-2.97396e-08
3.0594e-10
2.94337e-08
2.24187e-08
4.98496e-11
-2.2612e-08
-1.33712e-10
-1.08033e-08
-1.9549e-08
3.07929e-08
-1.12439e-08
-1.60895e-08
1.50037e-08
1.08577e-09
-1.58508e-08
1.48828e-08
-2.28391e-08
2.24336e-08
4.05546e-10
2.28061e-08
-2.27247e-08
-8.14657e-11
-2.14994e-08
2.89106e-08
-1.14388e-08
-2.60623e-09
-2.97315e-08
1.84059e-08
1.02634e-08
1.72507e-10
-1.08274e-09
-3.19709e-08
-7.26397e-10
1.84554e-08
-3.12227e-08
-1.33538e-09
2.74153e-08
2.99917e-08
-1.15858e-08
1.9659e-08
2.01433e-08
5.86018e-09
5.78026e-09
-6.50666e-09
2.71299e-08
1.97552e-08
1.25207e-09
-1.86916e-08
1.97728e-08
9.52212e-09
-9.47227e-09
-9.60867e-09
9.47496e-09
-1.87444e-08
-1.97895e-08
3.19377e-08
-1.21482e-08
-1.06454e-08
-1.14388e-08
-7.12909e-09
-2.69815e-09
-1.78763e-08
-1.01838e-08
9.52212e-09
-9.60866e-09
-5.41613e-09
-8.46887e-10
1.86504e-08
-1.78035e-08
9.03781e-09
1.10034e-08
7.92745e-10
1.48828e-08
7.84894e-09
-1.07308e-08
-2.43279e-09
-7.88936e-09
-2.06859e-08
-1.12798e-08
3.19656e-08
1.87479e-08
-1.55556e-09
-2.48101e-08
4.40173e-10
2.63344e-08
9.76605e-10
-5.79881e-09
4.8222e-09
-1.00589e-08
2.44789e-08
-2.7177e-08
3.39212e-10
3.23054e-08
-2.88921e-08
5.79881e-09
-6.6457e-09
1.50037e-08
1.46906e-08
1.16837e-09
3.35894e-09
-1.65589e-08
-4.86072e-09
-2.74943e-08
2.09143e-09
1.17601e-08
2.01776e-08
1.73248e-08
-2.10044e-08
3.27645e-08
-2.75397e-08
6.85385e-09
5.78026e-09
-9.20312e-09
-1.16899e-08
-2.10046e-08
3.26944e-08
9.44065e-09
-3.22842e-08
-1.28739e-08
3.30515e-08
-1.27454e-08
3.14932e-08
2.10747e-08
7.19846e-10
-7.83481e-09
7.83481e-09
-1.47178e-08
-2.39774e-08
2.58597e-08
2.12808e-08
1.58973e-08
-1.17451e-08
1.17451e-08
-1.46906e-08
-2.57052e-09
-1.36863e-08
1.06341e-08
3.05219e-09
1.36863e-08
-1.94121e-09
-1.86407e-09
-1.47178e-08
-2.6548e-08
-2.77079e-08
5.35758e-09
-3.34295e-08
1.20196e-08
2.14099e-08
-1.23548e-08
1.96929e-09
-2.01543e-08
3.45101e-08
-1.43557e-08
-3.25927e-08
1.24384e-08
1.65914e-08
-2.09262e-08
3.29458e-08
1.77917e-08
-3.06656e-08
-1.63454e-09
9.19539e-10
1.17682e-08
-2.03789e-08
2.06967e-08
-1.11866e-08
-1.95503e-08
3.07369e-08
-1.9468e-08
3.54204e-08
-1.47237e-08
2.73024e-08
1.11829e-08
2.42375e-08
2.83261e-08
-3.19434e-08
-3.04659e-08
1.57422e-08
2.17592e-08
-3.59495e-08
2.32041e-08
-1.26743e-08
2.73687e-08
-4.58912e-09
-1.9345e-08
-1.13205e-08
1.15128e-08
2.29972e-08
3.41976e-08
-8.34081e-09
-1.48401e-08
2.3181e-08
-6.18609e-09
6.18609e-09
-5.56815e-09
5.56815e-09
6.56246e-09
-6.56246e-09
6.54241e-09
-6.54241e-09
6.99641e-09
7.17146e-09
2.35158e-08
-3.16221e-08
8.10629e-09
-1.10781e-08
2.13134e-08
1.28842e-08
1.26362e-08
-1.26363e-08
-1.4785e-08
1.4418e-08
-1.4418e-08
-3.03806e-08
1.15454e-08
1.88352e-08
-6.56431e-09
-3.28262e-08
2.02152e-08
1.2611e-08
-5.83385e-09
5.83385e-09
-2.90155e-08
1.15975e-08
1.7418e-08
-1.01654e-08
-2.03541e-08
-1.86247e-08
2.28512e-08
-1.0908e-08
2.20625e-08
-9.11969e-09
-2.8695e-08
-3.09359e-08
2.06849e-08
8.85803e-09
3.7638e-10
9.74256e-10
1.4943e-09
-1.92014e-08
-3.29325e-08
1.86142e-08
1.43183e-08
-2.13871e-08
-1.04013e-08
-1.03202e-08
-2.65697e-10
1.27812e-08
-2.72013e-08
1.23612e-08
-1.56038e-08
-2.45787e-08
4.00556e-08
-1.32654e-08
-2.0553e-08
8.8259e-09
1.17271e-08
-4.66275e-09
-2.63294e-08
1.39967e-09
2.49298e-08
-8.19181e-09
9.68863e-09
-9.68864e-09
-3.70261e-10
-1.69585e-08
-1.35782e-08
-1.36818e-08
2.57353e-08
2.51418e-08
-7.72377e-09
-2.61171e-08
-1.69499e-08
-2.2515e-09
3.12497e-08
-1.56459e-08
-1.30491e-08
-2.40304e-08
-1.87542e-08
-2.46075e-08
-4.0717e-09
-1.74785e-08
-7.07081e-09
-1.64964e-08
-1.23362e-08
-2.21636e-08
-2.88421e-08
-7.32436e-09
2.48591e-08
-2.16784e-08
-2.05673e-08
-2.51657e-08
2.36217e-08
-2.64654e-08
2.8437e-09
-6.83557e-09
-1.57683e-09
-2.87359e-09
2.3209e-08
-6.83557e-09
-3.55532e-09
3.02248e-08
3.99696e-09
-3.42218e-08
3.27078e-08
1.46577e-08
1.78833e-08
-1.27902e-08
2.55713e-08
6.74495e-09
-6.74495e-09
2.47751e-08
4.40651e-09
1.10962e-08
4.5086e-09
-1.94531e-08
2.00989e-08
-2.78227e-08
3.05976e-08
2.07035e-08
1.75838e-08
-3.06651e-08
1.30813e-08
-1.71852e-09
2.86933e-08
-9.85807e-09
2.0636e-08
2.19132e-08
-1.79163e-08
1.89435e-09
1.0388e-08
-2.07267e-08
1.25682e-08
1.03258e-08
1.34598e-08
1.94746e-08
-2.70133e-08
4.32987e-09
-1.93913e-08
4.03744e-09
1.91435e-08
-1.87501e-08
2.11179e-08
2.89383e-09
-2.09796e-08
5.99502e-09
-1.79217e-10
9.53075e-09
-2.92489e-08
-1.00173e-09
-3.11035e-08
4.31206e-09
-3.04872e-10
4.86715e-09
2.94072e-09
-1.8292e-08
2.8134e-08
2.49407e-09
-2.88235e-08
-1.12896e-08
5.99502e-09
2.28104e-08
-1.84954e-08
-2.03406e-08
-1.12815e-08
2.06113e-08
1.20072e-08
-2.20589e-08
4.86715e-09
1.46577e-08
-2.82998e-08
-2.63255e-08
2.56372e-08
-1.68214e-09
-1.66094e-08
-1.61266e-08
1.61266e-08
1.16575e-08
-3.29862e-08
-1.61019e-08
1.61019e-08
-1.88335e-08
-2.79104e-08
-1.99841e-08
-2.28251e-08
1.01234e-08
1.01481e-08
2.62353e-08
-5.62401e-09
-1.76111e-08
1.9277e-08
1.9291e-08
-3.03099e-08
1.18145e-08
-1.68519e-08
1.72283e-08
-1.86525e-08
-1.82021e-08
-1.2463e-08
-1.71602e-08
-5.52032e-09
-1.82105e-08
-9.69993e-09
1.19868e-08
-1.51259e-08
1.48602e-08
3.05544e-09
2.51372e-08
1.27237e-10
-3.17421e-08
-2.60755e-08
-1.75304e-08
-2.03404e-09
-1.80955e-08
-4.03916e-09
-5.39749e-09
-5.35477e-09
-1.20705e-08
1.33612e-08
2.46708e-08
-2.75094e-09
-1.56017e-08
-4.19219e-10
1.67662e-08
1.96181e-08
-2.16662e-08
-2.26916e-08
-2.3608e-08
-2.5348e-08
-9.6308e-09
7.03453e-09
2.58347e-09
)
;

boundaryField
{
    front
    {
        type            empty;
        value           nonuniform List<scalar> 0();
    }
    back
    {
        type            empty;
        value           nonuniform List<scalar> 0();
    }
    bottom
    {
        type            calculated;
        value           nonuniform List<scalar> 
12
(
8.42274e-09
2.74995e-08
2.05744e-08
2.09677e-08
1.75355e-08
4.8222e-09
4.86072e-09
2.60689e-08
2.70494e-08
2.62759e-08
1.75109e-08
8.41241e-09
)
;
    }
    left
    {
        type            calculated;
        value           uniform 0;
    }
    top
    {
        type            calculated;
        value           nonuniform List<scalar> 8(-2.625e-08 -2.625e-08 -2.625e-08 -2.625e-08 -2.625e-08 -2.625e-08 -2.625e-08 -2.625e-08);
    }
    right
    {
        type            calculated;
        value           uniform 0;
    }
    inner_arc
    {
        type            calculated;
        value           uniform 0;
    }
}


// ************************************************************************* //
