/*--------------------------------*- C++ -*----------------------------------*\
  =========                 |
  \\      /  F ield         | OpenFOAM: The Open Source CFD Toolbox
   \\    /   O peration     | Website:  https://openfoam.org
    \\  /    A nd           | Version:  9
     \\/     M anipulation  |
\*---------------------------------------------------------------------------*/
FoamFile
{
    format      ascii;
    class       volScalarField;
    location    "0.45";
    object      p;
}
// * * * * * * * * * * * * * * * * * * * * * * * * * * * * * * * * * * * * * //

dimensions      [0 2 -2 0 0 0 0];

internalField   nonuniform List<scalar> 
1655
(
13.2912
13.2973
13.2858
13.2933
13.3005
13.3012
13.2847
13.291
13.2807
13.3002
13.2911
13.2909
13.2923
13.3015
13.2874
13.2762
13.2546
13.2815
13.2995
13.3021
13.2882
13.2803
13.2969
13.2976
13.291
13.2652
13.281
13.2835
13.285
13.2971
13.2793
13.2868
13.3037
13.2921
13.2814
13.2943
13.301
13.298
13.3037
13.2964
13.2918
13.2987
13.304
13.2987
13.3001
13.293
13.293
13.2994
13.3011
13.3039
13.3012
13.286
13.284
13.2829
13.2837
13.2936
13.2925
13.2913
13.2927
13.2914
13.2797
13.3004
13.2912
13.2905
13.298
13.2812
13.2956
13.2916
13.2813
13.2986
13.2914
13.2831
13.2945
13.288
13.2877
13.3004
13.286
13.2845
13.292
13.2945
13.2974
13.3004
13.2821
13.2985
13.2998
13.2958
13.288
13.2924
13.2933
13.2961
13.2979
13.2873
13.2995
13.3015
13.3004
13.2997
13.2958
13.2924
13.2883
13.3046
13.2872
13.2966
13.3016
13.2968
13.2793
13.3004
13.2906
13.2969
13.3043
13.2956
13.3038
13.2914
13.2961
13.3006
13.2933
13.2973
13.2918
13.293
13.2929
13.2802
13.295
13.2909
13.2829
13.294
13.2957
13.2945
13.3038
13.3
13.2703
13.3038
13.3009
13.3039
13.2911
13.2949
13.2949
13.2959
13.2996
13.283
13.2937
13.295
13.2879
13.2816
13.2701
13.2907
13.2607
13.2874
13.2931
13.2933
13.2937
13.2697
13.2741
13.2649
13.2827
13.2783
13.2955
13.3042
13.2979
13.2965
13.2922
13.2975
13.296
13.2913
13.2835
13.2952
13.2934
13.2922
13.2839
13.294
13.2961
13.2836
13.2662
13.2865
13.295
13.2884
13.2962
13.2898
13.3011
13.2844
13.3041
13.3039
13.2942
13.2872
13.3012
13.2942
13.2991
13.3034
13.2999
13.3036
13.2845
13.2888
13.3002
13.3003
13.2886
13.2845
13.2999
13.2962
13.2864
13.3019
13.2933
13.2896
13.2939
13.2937
13.2838
13.2837
13.2993
13.2842
13.3033
13.2904
13.3041
13.2906
13.2855
13.2845
13.2965
13.2936
13.304
13.2948
13.2948
13.2921
13.2834
13.2911
13.3002
13.2915
13.3036
13.2931
13.3035
13.2965
13.292
13.2993
13.2812
13.2804
13.3007
13.2769
13.2765
13.2873
13.3032
13.3012
13.2992
13.2922
13.2911
13.2736
13.2938
13.2987
13.274
13.2931
13.2938
13.2908
13.2738
13.2853
13.2962
13.2918
13.2989
13.2938
13.2996
13.2855
13.3029
13.2845
13.3049
13.2948
13.2839
13.3033
13.2904
13.301
13.2879
13.2832
13.2994
13.2946
13.303
13.3044
13.3037
13.3033
13.2795
13.2882
13.2999
13.3003
13.2906
13.2923
13.2722
13.2955
13.2836
13.2847
13.2866
13.2958
13.2943
13.2867
13.2895
13.2928
13.2896
13.304
13.3029
13.2839
13.2889
13.2924
13.3024
13.2876
13.2927
13.3028
13.2902
13.2824
13.2939
13.3044
13.304
13.3014
13.3014
13.3011
13.2821
13.2852
13.3037
13.2966
13.2953
13.2789
13.2962
13.2666
13.3003
13.2886
13.2937
13.2941
13.2935
13.286
13.2723
13.3043
13.2885
13.3014
13.3039
13.3017
13.3038
13.2926
13.2923
13.295
13.3041
13.2996
13.3025
13.2913
13.3016
13.2908
13.2953
13.2847
13.2994
13.3025
13.2909
13.2939
13.3043
13.2973
13.2938
13.279
13.2856
13.2995
13.302
13.3029
13.3042
13.2956
13.2954
13.2993
13.2783
13.3034
13.2854
13.2717
13.2954
13.289
13.2962
13.2603
13.2895
13.3025
13.2847
13.279
13.3004
13.2921
13.3046
13.2976
13.2921
13.2997
13.2999
13.3035
13.3001
13.2831
13.2991
13.2961
13.2994
13.2926
13.3005
13.2975
13.3007
13.2814
13.2951
13.2797
13.3021
13.287
13.2782
13.2953
13.2961
13.2785
13.2868
13.2997
13.2995
13.2891
13.2959
13.2792
13.2668
13.2944
13.2858
13.3001
13.284
13.3007
13.2811
13.2962
13.2998
13.3028
13.2897
13.2999
13.2986
13.2995
13.3008
13.2788
13.277
13.2996
13.3022
13.2773
13.2911
13.2751
13.2784
13.2755
13.3002
13.2785
13.2967
13.2692
13.2824
13.2732
13.2751
13.2924
13.2838
13.2942
13.3025
13.2969
13.2779
13.3013
13.2765
13.2835
13.2988
13.2996
13.3014
13.2796
13.275
13.2694
13.3002
13.2668
13.273
13.2815
13.2961
13.2996
13.2951
13.2998
13.2934
13.2859
13.2916
13.2758
13.2925
13.2732
13.2997
13.2695
13.2951
13.2974
13.2858
13.2704
13.284
13.2875
13.3004
13.2948
13.2728
13.2704
13.272
13.2855
13.2871
13.3
13.2759
13.2999
13.2866
13.287
13.2884
13.2858
13.2733
13.2946
13.2607
13.2993
13.2733
13.2917
13.287
13.2741
13.2951
13.2928
13.2998
13.291
13.2862
13.2962
13.2755
13.2943
13.2895
13.2853
13.2756
13.2931
13.284
13.2936
13.2913
13.2884
13.295
13.2892
13.2735
13.2907
13.291
13.2904
13.2881
13.2932
13.2999
13.2903
13.2976
13.2872
13.2912
13.2939
13.2886
13.2855
13.2779
13.2805
13.2807
13.2778
13.2889
13.2881
13.279
13.2765
13.2916
13.2899
13.2871
13.2843
13.292
13.295
13.2924
13.294
13.3011
13.2962
13.3017
13.2912
13.2971
13.2927
13.2995
13.2835
13.3003
13.2933
13.2931
13.3011
13.2915
13.2954
13.2878
13.2981
13.2914
13.2892
13.256
13.2912
13.2879
13.2751
13.2875
13.2886
13.2946
13.2929
13.2854
13.2958
13.2752
13.2866
13.3002
13.2809
13.2848
13.2756
13.2897
13.285
13.2899
13.2906
13.2907
13.2979
13.287
13.2855
13.2899
13.3002
13.2781
13.2832
13.2918
13.2922
13.2999
13.2822
13.2954
13.2926
13.289
13.2794
13.2922
13.2787
13.2889
13.2804
13.2818
13.2834
13.2784
13.2796
13.2899
13.2908
13.2851
13.2897
13.287
13.2672
13.2868
13.2946
13.2609
13.2578
13.2827
13.2899
13.2873
13.2761
13.288
13.2898
13.2632
13.2708
13.292
13.2888
13.2752
13.2914
13.2766
13.2821
13.2768
13.28
13.2727
13.2876
13.2796
13.2965
13.2807
13.2819
13.2832
13.292
13.2803
13.2912
13.2848
13.2934
13.2908
13.2865
13.2923
13.292
13.2892
13.2845
13.2909
13.2922
13.2811
13.292
13.2906
13.3005
13.2883
13.293
13.292
13.2669
13.2882
13.2894
13.2815
13.2857
13.2863
13.2906
13.2827
13.2909
13.2824
13.2772
13.2873
13.2881
13.2943
13.2846
13.2787
13.2886
13.2955
13.2909
13.2924
13.2898
13.2862
13.286
13.2956
13.2965
13.2955
13.2929
13.2944
13.2985
13.2876
13.2961
13.2927
13.29
13.2932
13.2797
13.2925
13.2743
13.2914
13.3003
13.2906
13.29
13.2929
13.2949
13.2995
13.2909
13.2894
13.2919
13.2956
13.2889
13.2899
13.2906
13.2817
13.2898
13.2902
13.2934
13.2972
13.2982
13.2958
13.2818
13.2924
13.2946
13.2724
13.2886
13.2726
13.2826
13.283
13.2995
13.297
13.2964
13.2824
13.2677
13.2892
13.2925
13.2971
13.2831
13.2969
13.2704
13.2936
13.2974
13.2872
13.2966
13.2675
13.2997
13.2957
13.2904
13.2999
13.2975
13.2965
13.2937
13.2941
13.2951
13.2726
13.3004
13.2903
13.2683
13.2918
13.2914
13.2952
13.2896
13.2964
13.2939
13.2959
13.2963
13.2995
13.2657
13.2696
13.2987
13.2983
13.2956
13.2851
13.2996
13.2698
13.2706
13.2976
13.2987
13.3017
13.2968
13.2946
13.2708
13.297
13.2935
13.2678
13.2978
13.2984
13.3003
13.2837
13.2873
13.2906
13.2941
13.29
13.2898
13.297
13.2972
13.2977
13.2966
13.2875
13.2889
13.2997
13.285
13.295
13.2859
13.2981
13.2678
13.2934
13.2973
13.2992
13.303
13.2833
13.3001
13.3
13.2976
13.3002
13.3001
13.2996
13.2981
13.2832
13.2846
13.2985
13.3007
13.2655
13.3001
13.2847
13.2916
13.2582
13.3
13.2999
13.2652
13.2993
13.2981
13.2998
13.2656
13.291
13.2991
13.3008
13.3008
13.2889
13.2672
13.2992
13.3008
13.2986
13.2967
13.2999
13.2995
13.2911
13.2983
13.2968
13.2994
13.2981
13.2982
13.2999
13.299
13.2858
13.2957
13.2645
13.3004
13.3002
13.2989
13.2624
13.2974
13.2927
13.2992
13.2955
13.291
13.3006
13.2989
13.2988
13.3005
13.2934
13.2989
13.2974
13.2926
13.3003
13.299
13.3009
13.2627
13.2992
13.2964
13.3007
13.295
13.2987
13.2996
13.2992
13.2997
13.2972
13.2963
13.2919
13.2928
13.2978
13.2949
13.2873
13.2635
13.2998
13.2969
13.2641
13.2967
13.2994
13.29
13.2991
13.2956
13.2989
13.2999
13.3003
13.2943
13.3043
13.2964
13.3008
13.2878
13.2968
13.2875
13.2995
13.2933
13.2985
13.2952
13.2955
13.2999
13.301
13.2995
13.2973
13.3005
13.2989
13.2935
13.2996
13.2612
13.2619
13.2962
13.3001
13.2991
13.2995
13.2629
13.299
13.2947
13.2978
13.3002
13.2986
13.2886
13.2994
13.2989
13.2963
13.2934
13.2994
13.2978
13.2989
13.3005
13.2983
13.2997
13.3003
13.2956
13.2968
13.2973
13.2854
13.3003
13.2987
13.2593
13.2998
13.2984
13.2899
13.2996
13.2974
13.2993
13.2995
13.2998
13.3
13.2984
13.2963
13.299
13.2696
13.3037
13.2986
13.2919
13.2981
13.2993
13.2987
13.2909
13.2993
13.2984
13.2633
13.3006
13.2986
13.2927
13.2628
13.302
13.2666
13.2992
13.2976
13.2979
13.2982
13.3002
13.3018
13.2987
13.2975
13.2995
13.2993
13.2984
13.3019
13.2592
13.2968
13.2996
13.2992
13.2991
13.2989
13.298
13.2979
13.2995
13.3004
13.2979
13.2943
13.2989
13.2578
13.2986
13.2994
13.2973
13.2987
13.2991
13.2942
13.2979
13.2983
13.2985
13.296
13.2969
13.3004
13.3002
13.2978
13.2988
13.2981
13.3008
13.2993
13.2959
13.2979
13.2967
13.2971
13.2954
13.2963
13.266
13.2977
13.2972
13.2955
13.301
13.2978
13.2999
13.2974
13.2955
13.2696
13.304
13.2607
13.2964
13.3012
13.302
13.2969
13.2994
13.2999
13.3009
13.2988
13.2643
13.2992
13.2921
13.2953
13.3013
13.3032
13.2969
13.2966
13.3009
13.2878
13.302
13.2995
13.299
13.2616
13.2924
13.298
13.2965
13.2987
13.2823
13.2787
13.3041
13.2995
13.3003
13.27
13.2992
13.299
13.2954
13.2997
13.2959
13.2936
13.2983
13.2997
13.2993
13.2951
13.3006
13.2975
13.2676
13.2614
13.299
13.2963
13.2701
13.2985
13.2946
13.2879
13.2722
13.2936
13.2976
13.2776
13.3037
13.2991
13.286
13.2973
13.2971
13.2986
13.2981
13.2874
13.3002
13.2772
13.2991
13.2987
13.3007
13.2918
13.2986
13.2942
13.293
13.3004
13.2808
13.29
13.2986
13.2958
13.2891
13.2987
13.2936
13.3006
13.3006
13.2941
13.2991
13.2982
13.2913
13.2913
13.2916
13.2872
13.2796
13.2903
13.2917
13.2992
13.281
13.283
13.298
13.2978
13.3025
13.2843
13.3011
13.2894
13.2996
13.2935
13.2945
13.281
13.2971
13.2998
13.2786
13.2843
13.2984
13.295
13.3002
13.2979
13.3002
13.2804
13.2776
13.2792
13.2991
13.2982
13.2886
13.2989
13.2985
13.2993
13.3002
13.2975
13.3002
13.304
13.2763
13.2742
13.2978
13.2986
13.2891
13.2756
13.2764
13.2907
13.2996
13.2995
13.2995
13.2977
13.2725
13.2931
13.2912
13.2982
13.2999
13.268
13.2988
13.2993
13.3016
13.2991
13.2799
13.2975
13.2752
13.2841
13.2535
13.2994
13.2996
13.2621
13.2909
13.2821
13.292
13.2689
13.2671
13.2775
13.2915
13.3009
13.3003
13.3001
13.2879
13.2904
13.2789
13.2936
13.2615
13.2933
13.2562
13.2756
13.3048
13.2905
13.2701
13.2576
13.2885
13.2653
13.2604
13.2607
13.2828
13.2824
13.2996
13.3
13.3
13.3014
13.2797
13.3022
13.3013
13.2924
13.2791
13.2725
13.3041
13.2999
13.2894
13.3005
13.3009
13.2748
13.3007
13.2849
13.2725
13.2588
13.2919
13.2683
13.2906
13.2769
13.3003
13.3009
13.2584
13.3005
13.2995
13.2989
13.256
13.2928
13.2632
13.271
13.3007
13.2907
13.278
13.272
13.2662
13.2902
13.2986
13.2549
13.268
13.2597
13.2651
13.2557
13.2869
13.2924
13.2842
13.3005
13.2873
13.291
13.2557
13.2928
13.2931
13.2583
13.3046
13.2883
13.3042
13.2935
13.2968
13.292
13.2677
13.255
13.2939
13.3005
13.3012
13.291
13.2712
13.2602
13.2665
13.2965
13.2825
13.2803
13.2977
13.281
13.2933
13.2815
13.3007
13.2795
13.2786
13.2679
13.2984
13.2923
13.3006
13.2998
13.2996
13.2914
13.3005
13.283
13.2971
13.2965
13.302
13.3001
13.2927
13.2647
13.2891
13.2947
13.2823
13.2935
13.2908
13.284
13.2933
13.2795
13.2912
13.2733
13.295
13.2942
13.2881
13.2885
13.2844
13.3037
13.2978
13.2797
13.3039
13.2694
13.2753
13.2993
13.2983
13.2913
13.3008
13.3012
13.2977
13.2914
13.2996
13.3004
13.3013
13.3001
13.2914
13.298
13.291
13.299
13.2985
13.2913
13.3005
13.3013
13.298
13.2913
13.2915
13.2997
13.2997
13.2957
13.2753
13.3007
13.298
13.2988
13.2959
13.2967
13.3035
13.2906
13.3037
13.3041
13.2724
13.2985
13.292
13.2917
13.2857
13.3036
13.3002
13.2936
13.2947
13.2983
13.2929
13.3005
13.2864
13.3036
13.3049
13.2911
13.3008
13.2989
13.2801
13.2918
13.2914
13.3045
13.3037
13.2695
13.3022
13.2992
13.2794
13.2968
13.3045
13.2879
13.2993
13.2819
13.2999
13.2921
13.2988
13.2912
13.2792
13.297
13.3039
13.2913
13.2889
13.2648
13.2965
13.3043
13.3005
13.2962
13.3003
13.301
13.2677
13.2917
13.3003
13.3007
13.3042
13.2942
13.3006
13.3002
13.3
13.3
13.3038
13.2909
13.2926
13.2928
13.3003
13.3001
13.2898
13.2933
13.2932
13.2955
13.2795
13.2792
13.2913
13.3002
13.3001
13.3003
13.2948
13.278
13.2873
13.3035
13.2994
13.2969
13.3012
13.2978
13.2977
13.3043
13.28
13.2997
13.2968
13.3
13.2993
13.2945
13.2959
13.3012
13.3046
13.3013
13.2951
13.2978
13.2836
13.3
13.2923
13.3049
13.3006
13.2945
13.3045
13.2944
13.2951
13.305
13.2998
13.2921
13.2856
13.2992
13.301
13.3044
13.283
13.3014
13.2887
13.3005
13.2799
13.2946
13.2988
13.2941
13.3034
13.2998
13.296
13.3001
13.2969
13.3005
13.3013
13.3012
13.3007
13.3012
13.301
13.294
13.2953
13.285
13.2935
13.2988
13.2922
13.2938
13.2933
13.2854
13.2814
13.2919
13.3013
13.2701
13.3038
13.3009
13.2958
13.2919
13.2938
13.3004
13.3007
13.3037
13.295
13.2927
13.3002
13.3038
13.2843
13.291
13.2972
13.2898
13.2954
13.2808
13.3004
13.2973
13.283
13.2777
13.2931
13.3031
13.2818
13.3012
13.2993
13.2982
13.2985
13.3008
13.301
13.2915
13.3037
13.3002
13.2998
13.2964
13.2991
13.2996
13.3
13.3
13.2777
13.2885
13.3012
13.3007
13.2939
13.3045
13.3001
13.2907
13.2826
13.2933
13.3003
13.2792
13.2933
13.2911
13.2965
13.3038
13.2654
13.2992
13.2915
13.3007
13.2871
13.2994
13.2812
13.2994
13.2962
13.2782
13.2971
13.2744
13.2942
13.3004
13.3045
13.2825
13.2981
13.3002
13.2945
13.2909
13.2899
13.3041
13.294
13.276
13.2912
13.2944
13.2976
13.2893
13.2804
13.2888
13.301
13.2795
13.3005
13.304
13.3038
13.2934
13.2982
13.3008
13.3037
13.2902
13.2983
13.2917
13.2816
13.2967
13.3048
13.2882
13.3003
13.3006
13.259
13.2971
13.2942
13.3003
13.3031
13.3001
13.2963
13.3008
13.305
13.2994
13.2936
13.2931
13.2948
13.3009
13.2884
13.2917
13.2979
13.2925
13.3046
13.2914
13.2865
13.3044
13.2924
13.2871
13.3005
13.2992
13.2926
13.2988
13.3038
13.2966
13.2807
13.3042
13.2998
13.304
13.2996
13.2805
)
;

boundaryField
{
    back
    {
        type            empty;
    }
    front
    {
        type            empty;
    }
    top
    {
        type            zeroGradient;
    }
    outer_arc
    {
        type            zeroGradient;
    }
    bottom
    {
        type            uniformFixedValue;
        uniformValue    
        {
            type            table;
            format          csv;
            file            "outlet_p.csv";
            nHeaderLine     1;
            refColumn       0;
            componentColumns List<label> 1(1);
            separator       ",";
            mergeSeparators 0;
        }
        value           uniform 13.2782;
    }
    inner_arc
    {
        type            zeroGradient;
    }
}


// ************************************************************************* //
