/*--------------------------------*- C++ -*----------------------------------*\
  =========                 |
  \\      /  F ield         | OpenFOAM: The Open Source CFD Toolbox
   \\    /   O peration     | Website:  https://openfoam.org
    \\  /    A nd           | Version:  9
     \\/     M anipulation  |
\*---------------------------------------------------------------------------*/
FoamFile
{
    format      ascii;
    class       volScalarField;
    location    "0.75";
    object      p;
}
// * * * * * * * * * * * * * * * * * * * * * * * * * * * * * * * * * * * * * //

dimensions      [0 2 -2 0 0 0 0];

internalField   nonuniform List<scalar> 
90
(
-1.50247e-22
-2.19638e-22
2.69213e-22
1.21357e-21
2.14007e-22
-1.04664e-21
-7.67833e-23
-2.21106e-22
-5.17498e-22
-2.05232e-22
-2.32314e-23
-5.21044e-22
-2.54368e-22
2.44055e-22
-7.21169e-22
-3.21977e-21
2.83865e-21
-8.34619e-22
-9.39466e-22
-2.78711e-22
-1.22754e-22
-2.55587e-22
-7.36741e-23
-1.24936e-22
-1.12224e-22
1.98369e-22
-3.7439e-22
-1.52254e-23
1.59856e-22
-2.94047e-22
-2.57811e-22
4.2538e-22
2.33191e-22
1.1065e-22
1.89297e-22
-3.16899e-21
-2.7992e-22
4.30291e-21
2.27907e-22
-3.85271e-22
-5.62818e-22
-5.95836e-22
4.86698e-22
-9.66599e-23
-1.54612e-23
1.26897e-22
-4.88752e-22
-1.28022e-21
-8.26071e-22
4.69058e-22
-2.79058e-22
-2.31916e-22
-3.5656e-22
2.96959e-22
-3.17127e-22
-8.99804e-22
-1.50304e-23
-4.79499e-22
-8.0647e-23
5.01576e-22
-5.26328e-22
5.45243e-22
8.0507e-22
-1.42647e-22
-6.72534e-22
-4.44782e-22
2.45203e-22
3.46292e-22
3.60162e-21
-1.19414e-22
-1.55383e-21
-1.74041e-22
3.83244e-22
-1.46288e-21
-2.92523e-21
-3.87245e-22
-1.50815e-22
2.78427e-22
-6.97745e-23
1.36076e-23
4.27078e-21
-5.7742e-23
-4.46185e-22
-2.67683e-21
-3.79249e-23
5.96032e-22
-1.26078e-22
-1.87441e-22
-1.85554e-21
-3.43454e-22
)
;

boundaryField
{
    back
    {
        type            empty;
    }
    front
    {
        type            empty;
    }
    bottom
    {
        type            zeroGradient;
    }
    outer_arc
    {
        type            zeroGradient;
    }
    right
    {
        type            uniformFixedValue;
        uniformValue    
        {
            type            scale;
            scale           
            {
                type            squarePulse;
                start           0.3;
                duration        0.3;
            }
            xScale          
            {
                type            constant;
                value           1;
            }
            value           
            {
                type            constant;
                value           15.1;
            }
        }
        value           uniform 0;
    }
    inner_arc
    {
        type            zeroGradient;
    }
}


// ************************************************************************* //
