/*--------------------------------*- C++ -*----------------------------------*\
  =========                 |
  \\      /  F ield         | OpenFOAM: The Open Source CFD Toolbox
   \\    /   O peration     | Website:  https://openfoam.org
    \\  /    A nd           | Version:  9
     \\/     M anipulation  |
\*---------------------------------------------------------------------------*/
FoamFile
{
    format      ascii;
    class       surfaceScalarField;
    location    "0.75";
    object      phi;
}
// * * * * * * * * * * * * * * * * * * * * * * * * * * * * * * * * * * * * * //

dimensions      [0 3 -1 0 0 0 0];

internalField   nonuniform List<scalar> 
122
(
-5.79934e-29
4.46358e-29
-7.60937e-30
1.775e-28
-2.25485e-29
-8.83886e-29
-1.39148e-28
1.52292e-28
1.99973e-28
-2.88023e-28
3.54967e-28
6.23924e-28
-6.42915e-28
-1.28833e-28
6.01789e-29
2.7617e-29
7.56122e-29
2.42744e-29
-4.50656e-29
-5.21294e-29
-9.636e-29
-6.35083e-31
3.37277e-29
-4.25459e-29
-1.11797e-28
2.23119e-28
-1.26457e-28
2.36576e-28
-5.82704e-29
1.20393e-28
-3.86731e-28
-2.50354e-28
6.24687e-29
-3.35307e-29
-1.14518e-29
1.37167e-30
-1.05023e-29
-8.90074e-30
-3.66562e-30
-8.3652e-29
6.37648e-29
-1.74685e-29
-8.51871e-29
5.62439e-29
-4.45183e-29
2.70379e-29
4.56804e-30
6.18155e-29
-8.44751e-29
1.04981e-28
-7.43979e-29
-1.30179e-28
7.51273e-29
-5.5426e-28
2.32874e-28
7.30935e-29
-1.00862e-28
2.45984e-29
1.28408e-29
3.2235e-29
4.76752e-29
5.29432e-29
7.16058e-29
-1.14137e-28
1.78483e-28
1.72227e-28
5.14403e-29
3.29719e-30
-8.47195e-31
1.32976e-29
-1.80001e-29
4.04725e-29
8.50358e-29
1.08161e-28
-9.58164e-29
9.02885e-29
7.48981e-29
7.68214e-29
7.42573e-29
-6.44261e-29
-1.97429e-29
-2.76971e-29
-1.51327e-28
-5.57205e-30
-8.27235e-29
-6.55014e-29
-2.69444e-30
1.50249e-29
1.03138e-28
-2.1378e-29
-1.49184e-28
-4.61241e-30
4.43471e-30
-1.77538e-28
1.69619e-28
4.57375e-29
-6.45138e-30
1.17108e-28
-4.61479e-29
-1.21692e-29
-8.06452e-29
5.45942e-29
1.03553e-28
-1.24281e-28
7.55058e-30
9.52169e-29
-2.27378e-30
7.57024e-29
-1.18723e-29
-8.50837e-29
3.63372e-28
-3.50744e-28
-2.84089e-28
1.51922e-28
6.34213e-29
6.69891e-29
6.30303e-29
-4.94062e-29
3.85009e-29
1.23412e-28
-1.36035e-28
2.81714e-29
)
;

boundaryField
{
    back
    {
        type            empty;
        value           nonuniform List<scalar> 0();
    }
    front
    {
        type            empty;
        value           nonuniform List<scalar> 0();
    }
    bottom
    {
        type            calculated;
        value           uniform 0;
    }
    outer_arc
    {
        type            calculated;
        value           uniform 0;
    }
    right
    {
        type            calculated;
        value           nonuniform List<scalar> 4(-5.01297e-29 -1.45753e-28 -1.35187e-28 -8.15995e-29);
    }
    inner_arc
    {
        type            calculated;
        value           uniform 0;
    }
}


// ************************************************************************* //
