/*--------------------------------*- C++ -*----------------------------------*\
  =========                 |
  \\      /  F ield         | OpenFOAM: The Open Source CFD Toolbox
   \\    /   O peration     | Website:  https://openfoam.org
    \\  /    A nd           | Version:  9
     \\/     M anipulation  |
\*---------------------------------------------------------------------------*/
FoamFile
{
    format      ascii;
    class       volVectorField;
    location    "0.75";
    object      U;
}
// * * * * * * * * * * * * * * * * * * * * * * * * * * * * * * * * * * * * * //

dimensions      [0 1 -1 0 0 0 0];

internalField   nonuniform List<vector> 
90
(
(-2.04464e-21 -2.6264e-23 1.06593e-38)
(-2.63532e-21 -3.06654e-21 -6.60608e-38)
(6.78241e-21 -1.09322e-21 3.81764e-38)
(5.14177e-21 -9.303e-21 -3.78085e-38)
(-8.19278e-21 -1.26518e-20 -1.18571e-37)
(-1.59164e-21 -1.60377e-21 5.24835e-38)
(-1.31717e-21 -1.26058e-22 -1.26265e-38)
(-2.74206e-21 -6.65211e-22 -1.65988e-38)
(-1.10958e-21 1.65893e-21 0)
(-3.60873e-21 -7.86709e-22 0)
(5.50162e-22 -8.18468e-22 5.60368e-39)
(-2.0547e-21 7.45204e-21 1.04253e-38)
(-2.45942e-22 6.83739e-23 -3.1775e-39)
(2.09561e-23 1.75918e-21 -1.10359e-38)
(-4.36024e-21 4.16698e-21 0)
(-8.5064e-21 -4.92534e-21 0)
(-3.1881e-21 -1.41078e-20 1.41279e-37)
(7.27845e-21 1.01569e-21 3.03008e-38)
(3.73976e-22 -4.33341e-21 0)
(1.17385e-22 1.04066e-22 -1.41286e-38)
(1.1996e-22 1.45134e-22 -1.09363e-38)
(-1.34532e-21 -1.36868e-21 -1.92866e-38)
(-1.72173e-21 -1.67302e-21 6.49616e-39)
(8.79366e-22 -4.94687e-22 1.2043e-38)
(-1.68726e-21 -7.77596e-22 1.0845e-38)
(-1.5396e-21 -2.93417e-21 -3.51822e-39)
(-1.20685e-21 -4.39957e-22 1.39662e-38)
(-2.95408e-21 -2.14344e-21 -1.06699e-38)
(1.54459e-20 1.01999e-21 0)
(-1.94944e-21 -1.04822e-21 1.63615e-38)
(-2.04524e-21 -9.53823e-22 -1.17076e-38)
(7.92702e-22 -6.42939e-22 2.68255e-38)
(-2.90449e-22 -4.12899e-22 6.03183e-39)
(-2.1546e-21 -3.5991e-22 -5.67122e-39)
(-1.31009e-21 -6.2749e-22 2.0993e-39)
(-2.45082e-21 3.12861e-21 7.516e-38)
(-2.36441e-21 -3.10456e-21 0)
(2.78686e-21 -4.78436e-21 0)
(-4.77418e-22 -5.95778e-22 -5.43616e-39)
(-2.09279e-22 1.45831e-22 -5.60994e-39)
(-1.20727e-21 -6.03507e-22 1.64668e-38)
(-5.93461e-22 -5.79348e-22 4.99241e-38)
(-3.42834e-21 -1.01322e-21 2.39229e-39)
(-3.23039e-21 -1.06922e-22 4.19419e-39)
(-3.96924e-21 -5.57695e-22 1.698e-39)
(-1.11764e-21 -3.07441e-21 -1.14017e-38)
(-6.90462e-23 -8.46491e-22 -2.13604e-38)
(-3.28501e-21 2.23818e-21 -3.55767e-38)
(1.25969e-21 -1.78757e-21 4.35076e-38)
(-2.16199e-21 4.80208e-21 -3.25979e-40)
(2.35979e-23 1.7523e-22 0)
(-2.01924e-22 -8.37667e-23 1.00056e-38)
(-5.48948e-21 1.15808e-21 1.97611e-40)
(-2.15805e-21 -1.88585e-21 0)
(-3.22388e-22 -2.49843e-22 -2.12468e-38)
(-6.04496e-21 -2.47184e-21 3.27939e-40)
(-3.70995e-21 -1.7391e-22 -1.78557e-39)
(2.71509e-22 -1.57335e-21 0)
(-3.56658e-21 -6.18128e-22 0)
(6.4815e-23 -1.76338e-21 -2.87021e-38)
(-1.02361e-21 -7.01488e-22 -3.21527e-38)
(-2.72953e-21 -3.52685e-21 0)
(-3.42302e-22 -1.18879e-21 -3.76231e-38)
(-5.07581e-21 -6.41336e-22 6.6447e-39)
(-3.24057e-21 -2.29316e-21 -4.27054e-38)
(3.92543e-21 -1.14206e-21 -1.78962e-38)
(9.03213e-22 3.55952e-22 0)
(8.98862e-22 -1.66476e-21 0)
(1.27999e-20 -2.61362e-21 -1.56178e-38)
(1.40694e-20 -3.15434e-21 -5.06545e-38)
(-7.99211e-21 2.35843e-21 0)
(-3.48534e-21 -8.70006e-22 -8.46597e-39)
(-7.29999e-21 1.43687e-21 0)
(-1.40551e-22 -4.47755e-21 -1.05382e-37)
(1.04842e-20 -1.04666e-21 5.1143e-38)
(-2.2098e-22 -9.59691e-22 1.19321e-38)
(-1.13526e-21 -2.05272e-22 1.43029e-39)
(-3.69132e-21 -1.95929e-21 0)
(-3.37773e-21 -1.63509e-22 9.02853e-40)
(-2.50949e-21 -4.74673e-22 -3.35107e-39)
(7.85049e-21 -9.69655e-22 -1.7803e-37)
(-3.99381e-21 -4.55e-22 -4.62335e-42)
(4.67231e-22 -2.30635e-21 3.29206e-38)
(-3.59193e-21 -5.07145e-22 -7.12748e-38)
(-3.41778e-21 -4.5284e-21 -1.20022e-39)
(-5.08815e-22 -5.64025e-22 1.33561e-38)
(-3.90632e-21 -6.12698e-22 -5.09982e-39)
(-3.3889e-21 -5.40853e-22 2.7497e-40)
(-4.53199e-21 -4.02904e-21 1.78851e-37)
(-2.23879e-21 -5.67056e-22 8.19868e-39)
)
;

boundaryField
{
    back
    {
        type            empty;
    }
    front
    {
        type            empty;
    }
    bottom
    {
        type            uniformFixedValue;
        uniformValue    
        {
            type            scale;
            scale           
            {
                type            squarePulse;
                start           0.3;
                duration        0.3;
            }
            xScale          
            {
                type            constant;
                value           1;
            }
            value           
            {
                type            constant;
                value           (0 0.7 0);
            }
        }
        value           uniform (0 0 0);
    }
    outer_arc
    {
        type            noSlip;
    }
    right
    {
        type            zeroGradient;
    }
    inner_arc
    {
        type            noSlip;
    }
}


// ************************************************************************* //
