/*--------------------------------*- C++ -*----------------------------------*\
  =========                 |
  \\      /  F ield         | OpenFOAM: The Open Source CFD Toolbox
   \\    /   O peration     | Website:  https://openfoam.org
    \\  /    A nd           | Version:  9
     \\/     M anipulation  |
\*---------------------------------------------------------------------------*/
FoamFile
{
    format      ascii;
    class       surfaceScalarField;
    location    "1.61";
    object      phi;
}
// * * * * * * * * * * * * * * * * * * * * * * * * * * * * * * * * * * * * * //

dimensions      [0 3 -1 0 0 0 0];

internalField   nonuniform List<scalar> 
2420
(
4.61036e-07
-3.82964e-07
-7.80718e-08
-3.69864e-07
3.69864e-07
4.06047e-07
-4.56118e-08
-3.60436e-07
1.90592e-07
-1.90592e-07
-6.87399e-07
2.6634e-07
4.21058e-07
2.22291e-07
-2.49538e-07
2.72479e-08
3.75087e-07
3.09604e-08
-9.88883e-07
9.27238e-08
8.96159e-07
1.70124e-06
-2.02673e-06
3.25487e-07
-5.26583e-07
-1.60816e-07
-2.97924e-07
2.25944e-08
2.75329e-07
-2.76415e-07
-2.15082e-08
-9.88883e-07
-1.38076e-07
1.01521e-07
3.65545e-08
-1.40509e-07
5.69897e-07
-4.29388e-07
-3.33808e-07
-3.51431e-07
6.8524e-07
1.25126e-06
-2.91349e-07
-9.59913e-07
5.30209e-07
-9.74514e-07
4.44306e-07
-1.28537e-07
1.10523e-07
1.80137e-08
-7.44718e-08
-6.3604e-08
3.43867e-08
4.04237e-07
-4.38624e-07
-8.34017e-08
-5.99401e-07
8.18885e-07
-2.19484e-07
-7.71695e-07
1.72294e-07
3.0027e-07
1.60766e-07
4.74477e-07
7.76785e-07
-1.33995e-07
-1.99813e-07
-6.52429e-07
-1.15597e-06
1.8084e-06
-1.46726e-06
8.14832e-07
2.47512e-07
-6.74704e-08
-1.80042e-07
-8.09096e-07
-2.17309e-07
1.0264e-06
-1.80906e-09
1.16302e-07
-1.14493e-07
-4.82865e-07
4.1234e-07
7.05249e-08
-4.47452e-07
4.16829e-07
3.06229e-08
-5.36294e-07
1.0665e-06
-2.01231e-07
-2.4622e-07
6.18304e-08
1.6046e-07
-1.37521e-07
-2.32343e-07
-8.64884e-08
-3.96376e-07
2.03711e-08
3.49493e-07
3.32995e-07
-2.98608e-07
7.15019e-07
8.2788e-08
-7.97807e-07
2.86224e-07
-3.72712e-07
-7.50041e-08
5.74774e-08
1.75267e-08
-1.5673e-08
2.40503e-07
-2.2483e-07
5.13009e-08
1.39291e-07
-1.48124e-07
-4.24678e-08
-4.45978e-08
2.89247e-08
-2.53414e-07
4.27658e-07
-1.74244e-07
-9.55263e-08
3.8175e-07
-1.39975e-07
-1.09564e-07
-4.74209e-08
-4.4668e-07
3.06171e-07
-1.21962e-06
-8.07108e-07
5.29085e-07
-2.2185e-08
-5.069e-07
1.17145e-07
6.65698e-08
-1.83715e-07
8.05005e-08
-3.24699e-07
2.44198e-07
5.18692e-08
-2.92748e-08
-5.31822e-08
4.30858e-08
1.00964e-08
5.74628e-07
-4.57484e-07
8.1741e-08
-8.90837e-07
1.35862e-07
-1.48601e-07
1.27392e-08
-4.44782e-07
6.18177e-08
-1.13781e-06
1.23054e-06
-1.10845e-07
7.00044e-08
4.08406e-08
-5.16523e-07
2.99214e-07
4.27779e-09
-1.1152e-08
6.87425e-09
-7.63663e-08
3.803e-08
3.83363e-08
5.69134e-07
-1.10543e-06
-5.66763e-08
-2.44971e-08
-1.41436e-07
5.12826e-07
-2.85022e-07
-2.27803e-07
1.64826e-07
4.0507e-07
5.09691e-07
1.64949e-07
-6.7464e-07
5.65581e-08
-1.23416e-07
6.68577e-08
-1.39438e-06
-7.28832e-08
-4.60534e-07
1.02967e-06
4.13495e-07
-1.04755e-07
3.52267e-07
-2.03733e-08
-9.04718e-08
-8.51489e-09
6.5073e-08
5.79137e-07
-5.00521e-08
-7.61441e-08
1.13997e-09
-8.83354e-08
3.89777e-07
-3.01442e-07
5.74457e-07
-6.58241e-07
8.37843e-08
7.02958e-07
-1.93266e-07
3.14113e-07
1.98712e-07
9.81829e-07
-3.55487e-07
-6.26342e-07
-2.91478e-07
-1.99437e-07
4.90915e-07
-5.68376e-07
2.76898e-07
-2.04627e-07
-1.55809e-07
-8.37097e-08
-4.48272e-08
6.30342e-08
-3.16448e-07
7.1033e-08
1.44199e-07
-2.15232e-07
2.9592e-08
8.09313e-08
-3.39382e-08
3.8216e-08
-3.63155e-08
-1.68667e-08
6.86378e-08
4.7664e-08
-4.49578e-07
5.05279e-08
3.9905e-07
1.22909e-07
-3.27536e-07
-6.05186e-08
8.46301e-08
-2.41115e-08
2.37806e-07
1.89852e-07
-3.83578e-08
-2.21608e-08
1.90242e-07
-3.0011e-07
1.09867e-07
4.52682e-08
9.05938e-08
-1.46238e-06
3.77511e-07
1.08487e-06
4.17588e-08
-1.09229e-07
-1.25508e-07
-3.2407e-07
2.11082e-07
-1.44512e-07
3.10527e-08
-3.44507e-07
3.13455e-07
-8.25514e-08
-1.93864e-07
2.29709e-07
-1.86272e-08
3.15444e-07
-4.03779e-07
1.39052e-06
-2.60665e-07
-1.12985e-06
6.0812e-09
-1.1796e-06
-2.82774e-07
9.43867e-08
3.77245e-07
6.04584e-07
1.88906e-07
1.336e-09
2.22834e-07
6.87549e-09
8.7894e-08
-8.31842e-07
7.43948e-07
-3.40093e-08
-8.25867e-07
8.59876e-07
-5.70462e-08
-4.92731e-07
5.49778e-07
-3.87206e-08
4.78237e-09
-1.13429e-06
2.946e-07
8.3969e-07
-3.37948e-07
2.42421e-07
-7.28769e-08
1.4391e-07
-6.42955e-07
2.91524e-07
9.17974e-08
-3.72751e-07
2.80953e-07
4.71887e-07
-2.01896e-07
-2.69991e-07
-3.25615e-07
3.56668e-07
-1.44741e-06
3.09593e-07
-7.16158e-07
-4.18132e-07
-7.2328e-08
7.2328e-08
-6.56819e-07
3.61119e-08
6.20708e-07
-4.71382e-07
-2.3352e-07
7.04902e-07
-4.4668e-07
-3.24699e-07
-5.69837e-08
4.58317e-08
5.74628e-07
1.10203e-07
-2.44198e-07
-1.10203e-07
-2.42028e-07
3.52231e-07
-1.09438e-07
4.99064e-07
-3.89626e-07
-1.3747e-07
9.59913e-07
-8.22443e-07
-4.99064e-07
5.86958e-07
-3.96789e-07
3.89626e-07
7.16246e-09
-2.3465e-07
4.57484e-07
-2.27487e-07
2.3465e-07
-7.16246e-09
-7.99639e-07
9.00667e-07
-1.01028e-07
7.99639e-07
-7.17898e-07
-9.00667e-07
8.22443e-07
7.82236e-08
-5.86958e-07
7.51907e-07
-7.51907e-07
7.17898e-07
-4.96852e-07
-1.6139e-07
-5.04723e-08
-2.87475e-07
4.30862e-08
2.69182e-08
-1.50145e-07
7.23834e-07
-5.73689e-07
2.10915e-07
-5.87311e-08
-5.46934e-07
-5.71499e-07
-7.05969e-07
1.27747e-06
-1.6793e-06
4.5968e-07
6.39001e-07
8.4833e-08
5.29563e-07
2.20339e-08
-5.83494e-08
-1.96308e-06
9.47924e-07
-1.20859e-06
4.59095e-08
4.16913e-07
-8.77447e-07
8.84166e-07
-1.17551e-06
-7.79833e-07
-7.66497e-08
8.56483e-07
-3.69249e-07
1.41761e-07
-1.56665e-06
3.45649e-07
1.221e-06
-1.18914e-06
1.28885e-07
3.43003e-07
-2.60408e-07
6.77321e-07
-1.69837e-07
5.13369e-07
-3.43532e-07
-3.20119e-08
-4.24599e-08
-3.83152e-07
-6.28644e-07
-1.5119e-07
2.43458e-08
-1.64321e-07
-3.15616e-07
2.5857e-07
-1.14449e-07
-2.4424e-07
3.58689e-07
-3.65277e-07
-2.06065e-07
5.71342e-07
1.05763e-07
-1.14278e-07
-5.35115e-07
6.11738e-07
-3.13089e-08
-5.80429e-07
-7.21075e-07
9.2431e-08
3.04637e-07
-6.41342e-08
-8.26083e-08
-6.59929e-08
-3.45416e-07
-2.07013e-07
5.52428e-07
-1.12148e-07
6.47272e-08
-3.42466e-07
-2.01346e-07
5.43812e-07
-3.05692e-08
2.66322e-07
-5.48531e-07
2.20732e-07
-5.76218e-07
-3.92213e-07
-3.28861e-07
-1.12697e-08
-8.35955e-08
9.48653e-08
6.1942e-08
-7.32117e-08
-6.5369e-07
6.51521e-08
5.88538e-07
1.77957e-07
2.2628e-07
-3.91728e-07
4.06032e-07
-1.43041e-08
5.07166e-07
-7.14179e-07
-3.0347e-07
3.95268e-07
4.86137e-07
-6.9308e-08
1.34515e-07
-6.82704e-07
5.48189e-07
3.09098e-07
-4.21246e-07
-6.36448e-07
1.24252e-06
7.04693e-08
-1.02481e-07
6.01853e-08
-1.17169e-07
3.0228e-07
-5.03511e-07
-1.11852e-06
5.47018e-07
5.4485e-07
1.47061e-07
-6.91911e-07
2.33781e-07
-6.25995e-07
6.11654e-08
-1.2451e-07
3.89811e-07
2.25288e-08
-9.28231e-07
7.56494e-07
1.71736e-07
-1.91673e-09
4.35089e-07
-3.09916e-07
-1.25173e-07
5.94719e-09
4.29142e-07
-3.76792e-07
-7.26203e-07
5.1542e-07
2.10783e-07
-4.66723e-07
-2.5948e-07
-3.80369e-07
2.44121e-07
1.36248e-07
-8.53705e-07
4.01713e-07
4.51992e-07
-3.55846e-07
-4.97859e-07
6.33019e-07
3.96649e-07
3.73039e-07
3.29929e-08
-3.19814e-07
-6.0555e-08
-5.11262e-07
5.73724e-07
-6.65573e-08
-3.67876e-07
3.73823e-07
-8.57329e-07
3.49196e-07
5.08134e-07
-2.99368e-07
-2.16008e-07
1.01559e-07
-4.50525e-07
-4.06804e-07
-1.25628e-07
1.97957e-07
-6.16158e-07
-3.12073e-07
-2.26638e-07
4.25351e-07
1.08368e-06
-4.69777e-07
-6.13908e-07
-1.17798e-06
-5.01318e-07
1.75936e-07
9.90276e-07
6.19089e-08
-4.43145e-09
-1.85529e-07
-1.88916e-08
2.0442e-07
4.43613e-07
-1.95685e-08
3.92607e-07
-1.37854e-07
-6.88963e-08
5.12711e-07
-4.43814e-07
-8.83716e-07
2.67559e-07
-6.39663e-07
3.79255e-07
3.67402e-07
-3.44873e-07
4.35881e-07
-1.39766e-06
9.61777e-07
3.19966e-07
1.93403e-07
1.33065e-07
2.96077e-07
-2.74185e-07
6.43182e-09
-1.91961e-07
1.24254e-06
-1.14572e-06
-9.68197e-08
3.88235e-07
-2.08335e-08
1.52982e-07
-2.03455e-07
4.06101e-07
-4.08018e-07
2.04321e-07
2.73397e-08
-2.31661e-07
3.06171e-07
8.79829e-07
-2.4681e-07
8.8629e-08
-2.30158e-07
5.50124e-07
7.84399e-07
-3.8775e-07
2.56165e-07
6.23664e-07
7.46345e-07
3.37339e-07
-3.51799e-07
-5.31917e-07
1.18185e-07
1.9057e-07
-3.08755e-07
1.23314e-06
-1.83902e-07
-1.04924e-06
-3.84507e-07
5.19115e-07
-1.34607e-07
1.12876e-06
-1.14077e-06
1.20049e-08
-4.76974e-07
7.33139e-07
8.17872e-08
-5.28467e-07
3.37847e-07
-2.5606e-07
-7.42056e-08
6.9787e-07
4.63469e-07
8.89598e-08
4.32374e-07
-3.83742e-07
-4.8632e-08
3.73931e-07
8.19693e-07
-7.88384e-07
1.26742e-07
-7.334e-08
3.79978e-07
-3.06638e-07
1.04717e-06
-1.12382e-06
2.43268e-07
3.30456e-07
3.04158e-07
1.12157e-07
-4.16315e-07
8.96159e-07
-1.76491e-07
1.97957e-07
3.96006e-07
-4.00794e-07
4.78803e-09
-4.32008e-07
3.94312e-07
3.76959e-08
-4.20561e-08
1.0509e-07
-4.20561e-08
-3.68181e-07
2.43039e-07
1.25143e-07
7.34534e-07
-6.01469e-07
-4.75607e-07
3.44859e-07
1.30748e-07
-3.41184e-07
5.1712e-07
1.55984e-07
-3.95267e-07
2.39283e-07
-2.21043e-07
9.55577e-07
-4.29597e-07
-1.60308e-07
5.89905e-07
-1.04816e-06
9.10694e-07
-1.0783e-06
1.51418e-06
1.12684e-07
3.99252e-07
3.67925e-07
1.05122e-06
-1.27226e-06
-4.57037e-07
3.88141e-07
-3.05842e-07
2.32502e-07
3.65689e-10
-6.40236e-08
-8.12943e-08
1.22425e-07
-1.39291e-07
1.22425e-07
-1.69544e-08
1.39109e-07
3.73602e-07
2.9583e-07
-2.23355e-07
-7.24753e-08
-3.87971e-07
3.68402e-07
4.19415e-07
6.37262e-08
-6.37262e-08
4.34506e-07
8.26143e-08
-4.71004e-07
7.5737e-08
5.68614e-07
-1.94792e-07
7.20912e-08
2.23739e-07
3.59145e-07
-2.27695e-07
5.23772e-07
-5.37561e-07
-4.19341e-07
-2.53143e-07
-6.19877e-08
3.1513e-07
3.07425e-07
-7.89434e-07
3.22711e-07
-5.28467e-07
-1.01039e-08
4.57016e-07
5.18888e-07
3.38494e-07
2.1163e-07
6.36848e-07
-6.36848e-07
3.43892e-07
-2.7874e-07
-3.87721e-07
-4.39459e-07
3.58165e-07
1.05964e-06
-1.27891e-06
2.19266e-07
1.39537e-06
-3.4415e-07
-2.89683e-07
-5.79273e-08
5.81699e-07
-3.32229e-07
4.71199e-07
-1.3897e-07
1.0483e-06
4.09609e-07
-1.4579e-06
4.61613e-08
-1.40398e-08
-3.63172e-07
1.42282e-06
8.52671e-07
-7.95643e-07
-5.70275e-08
-2.4078e-07
2.4078e-07
-2.53207e-07
-5.07709e-07
5.07709e-07
-2.06579e-07
3.10332e-07
-1.26599e-07
-1.83733e-07
5.26673e-08
-5.26673e-08
-4.06467e-07
-1.42758e-07
1.42758e-07
-2.10076e-07
-8.9765e-07
1.10773e-06
3.92092e-07
-3.92092e-07
-9.29457e-08
7.07803e-07
-2.34532e-07
-4.73271e-07
9.5975e-07
3.50927e-07
-1.06805e-07
-4.14855e-07
3.96281e-07
-2.60033e-07
1.17677e-06
-3.241e-07
9.79201e-07
-1.07602e-06
-9.68085e-07
1.72441e-07
1.67304e-07
2.89713e-07
-2.3174e-07
1.18529e-06
1.194e-07
3.03542e-07
-3.28546e-08
2.13682e-07
3.17676e-07
2.62163e-08
2.96149e-07
4.11654e-07
-1.03323e-06
-9.05921e-08
5.32735e-08
2.61857e-07
-1.12966e-07
1.29826e-06
1.15946e-06
-1.50361e-06
-1.54116e-06
-5.34149e-07
-3.69089e-07
9.03238e-07
3.02738e-07
-3.66188e-07
6.34503e-08
4.76387e-07
7.00384e-07
-1.03203e-06
-1.0874e-07
1.07587e-07
1.46772e-07
-2.54359e-07
3.34457e-07
5.81498e-08
-9.40796e-07
1.94048e-07
1.23628e-07
-1.37521e-07
3.26352e-07
-5.60884e-07
-2.57993e-07
2.57993e-07
-1.14584e-06
6.76204e-07
4.69635e-07
-4.73702e-07
-4.94383e-07
4.33939e-07
3.42686e-07
-8.22862e-09
-1.1055e-06
1.97722e-07
9.07774e-07
4.94795e-08
-8.97837e-07
5.41991e-07
-1.10721e-06
6.33512e-07
-1.34811e-06
1.23515e-06
3.4049e-07
-8.74639e-07
-6.69451e-07
-1.81062e-07
1.78473e-07
2.58963e-09
-1.88652e-07
-1.0763e-06
-2.17607e-07
1.29391e-06
2.23594e-07
5.41488e-07
-7.65083e-07
-5.48641e-07
6.34972e-07
2.39715e-07
-5.17035e-07
8.89912e-07
-3.72877e-07
-3.43959e-07
1.66263e-07
-2.2889e-07
6.26271e-08
1.58844e-07
2.6283e-07
5.4406e-08
-3.17236e-07
-4.29292e-07
-2.66483e-07
-1.36515e-06
1.63163e-06
2.0491e-07
1.05422e-07
4.80177e-07
1.08361e-07
-1.55979e-07
1.55979e-07
-1.23204e-06
1.42976e-06
3.28844e-07
3.9908e-07
-7.27924e-07
-8.16213e-08
2.75669e-07
1.04717e-06
-1.23582e-06
-9.03253e-07
4.0887e-07
-1.49853e-06
-7.71378e-07
3.94877e-07
3.76502e-07
2.10584e-07
-3.84381e-07
-3.86998e-07
7.32468e-09
-8.35762e-07
3.18727e-07
-1.15943e-07
1.16899e-06
-1.05305e-06
5.27321e-07
2.51762e-07
-7.79084e-07
-8.0795e-07
7.50923e-07
-3.0844e-07
-6.28503e-07
-8.14712e-08
7.09974e-07
9.49235e-07
-3.94647e-07
-5.54588e-07
-9.8799e-08
-8.04454e-07
5.05532e-07
-1.47997e-08
-9.09041e-07
1.55135e-06
-6.4231e-07
-2.99659e-07
-1.0692e-06
9.53258e-07
-4.41841e-07
7.82331e-07
-2.29388e-07
9.4837e-07
6.23236e-07
-2.80682e-07
-3.42554e-07
7.18575e-07
8.32776e-07
1.6838e-06
-9.6523e-07
1.82858e-07
1.68069e-07
6.51507e-08
1.08162e-06
-9.89017e-08
-9.82721e-07
5.04174e-07
1.17963e-06
1.56845e-06
-1.06427e-06
-1.25422e-07
-1.38537e-06
1.51079e-06
-2.12625e-07
7.22237e-07
-5.09612e-07
1.3254e-08
-8.10016e-08
6.77475e-08
-4.55316e-07
-1.49482e-07
-4.11402e-07
1.10809e-07
5.12427e-07
-3.61287e-07
6.13049e-07
-3.18747e-07
-1.25103e-06
1.56978e-06
-2.15636e-07
1.28358e-07
1.98837e-07
-3.27195e-07
-2.70712e-07
1.63534e-08
-1.05146e-06
-5.79469e-08
1.10941e-06
1.44503e-07
9.37119e-07
-5.27979e-07
2.81457e-07
2.46522e-07
1.01858e-06
2.596e-07
-9.88602e-07
7.29002e-07
5.41414e-08
8.22509e-07
-8.7665e-07
-1.6839e-06
-6.16903e-07
1.89159e-07
4.27743e-07
4.73559e-08
1.50621e-06
-7.68654e-07
1.02825e-06
-7.64477e-07
-3.58837e-08
8.00361e-07
3.17415e-07
-5.39481e-08
-9.09349e-07
9.63297e-07
-5.49813e-07
2.10817e-07
3.38996e-07
8.18425e-07
-2.81048e-08
-7.9032e-07
1.70753e-07
-5.32039e-07
-1.01506e-06
-2.34724e-07
4.33561e-07
2.59452e-07
6.4589e-07
-9.05342e-07
8.45313e-07
-2.28039e-08
-4.14287e-07
-5.83673e-07
9.97961e-07
1.84413e-07
-1.56442e-07
-2.06414e-07
-7.82188e-07
1.00825e-06
-5.49926e-08
-1.02809e-07
1.37941e-06
-1.2766e-06
-3.47497e-07
-2.69405e-07
5.05805e-07
-2.06591e-07
-2.78368e-07
9.53826e-07
-6.75457e-07
-4.66637e-07
1.17579e-06
-7.09151e-07
6.51179e-07
-1.61641e-06
1.58308e-07
-9.02121e-07
-3.40881e-07
1.243e-06
-6.08161e-07
5.80056e-07
1.09387e-06
-1.19667e-06
8.48567e-07
-1.40869e-07
-7.07698e-07
-5.99779e-07
5.63895e-07
-2.17925e-07
-3.10054e-07
3.25101e-07
-3.25101e-07
-1.57419e-07
1.57419e-07
6.02147e-08
-6.02147e-08
3.49493e-07
1.0509e-07
-3.42181e-08
3.42181e-08
-1.61921e-07
1.61921e-07
1.17986e-07
-1.17986e-07
-7.67088e-08
-8.5034e-08
8.5034e-08
-1.48124e-07
4.43309e-07
-4.43309e-07
8.62103e-09
-8.62103e-09
2.25842e-07
-2.25842e-07
-2.21935e-07
2.21935e-07
-1.20124e-06
1.25905e-06
-5.78188e-08
-1.77566e-07
1.77566e-07
7.7608e-08
-7.7608e-08
4.41622e-08
8.6221e-07
-9.06373e-07
5.94206e-07
-6.1701e-07
1.13803e-06
-3.60653e-07
1.30238e-06
-1.11797e-06
6.86952e-07
-8.93366e-07
3.78325e-07
1.86267e-07
1.72855e-07
5.23541e-07
-6.96397e-07
-1.11475e-06
-1.51241e-07
6.9943e-07
3.39962e-07
4.8753e-07
-8.27492e-07
-8.95259e-08
-1.17065e-07
-1.27591e-06
2.22869e-07
-3.36592e-07
-1.95447e-07
7.10713e-07
-1.49165e-06
4.2738e-07
-5.34397e-07
-2.44686e-07
-9.51207e-07
5.36919e-07
6.98022e-07
-8.49263e-07
-1.15295e-06
-1.22969e-07
-1.44399e-08
5.01662e-09
2.70653e-07
-1.28789e-07
-1.40616e-07
1.53316e-06
-1.39541e-08
-1.97233e-08
5.80146e-07
-1.66235e-07
8.59808e-07
-2.82315e-08
5.92127e-07
-4.89228e-07
1.52636e-07
-1.38784e-06
9.21203e-07
-9.18681e-07
1.29999e-07
7.88682e-07
1.02545e-06
-1.49076e-06
4.65315e-07
1.01143e-07
-1.24312e-06
8.57866e-07
3.85249e-07
-1.10614e-06
8.27768e-07
-1.00662e-06
8.1678e-07
1.89843e-07
1.16376e-06
-1.50464e-06
-2.45854e-07
-8.40475e-07
-9.51883e-07
8.11014e-07
-7.29844e-07
-9.37179e-07
7.98629e-07
1.3855e-07
3.2912e-07
-1.63751e-08
-1.1803e-06
-9.05259e-07
-1.11312e-09
-2.42028e-07
-9.47453e-07
1.69935e-07
7.77518e-07
-2.11414e-07
-1.49239e-07
-6.10382e-07
-6.62833e-09
-9.6163e-08
-4.40419e-07
-3.5203e-07
-3.62391e-07
-3.08011e-07
-1.00917e-07
4.08928e-07
-1.60108e-07
-3.27002e-07
-1.15471e-07
6.39012e-07
-3.21913e-07
-2.4827e-07
-1.78856e-07
-9.52939e-08
-8.23387e-07
1.40739e-06
2.23765e-08
9.88508e-07
-8.58509e-07
-1.35102e-07
-2.97501e-07
-1.7336e-08
3.14837e-07
-6.24822e-07
-1.26165e-07
-3.37187e-07
3.23232e-07
3.33718e-07
-3.11685e-07
-9.21634e-07
2.26462e-07
5.98381e-07
-6.23954e-07
2.55733e-08
7.79789e-08
-1.02889e-06
3.2709e-07
5.97268e-07
-7.23222e-07
2.81381e-07
1.22375e-06
3.53034e-08
-3.25733e-07
-2.10675e-07
-8.07504e-07
1.01818e-06
1.15909e-06
-2.74924e-07
-1.48824e-07
-9.83427e-07
1.30084e-06
-1.55499e-06
1.22799e-06
-4.34509e-08
1.44767e-06
-1.40422e-06
1.45297e-06
8.45999e-07
-1.10112e-06
2.55117e-07
-1.71074e-07
-1.38392e-06
-8.99417e-07
6.54731e-07
-1.31493e-06
9.9302e-07
1.5278e-07
-5.0481e-07
8.67957e-07
-1.49833e-07
-7.43533e-07
1.31123e-06
-5.39322e-07
-1.90522e-07
2.58994e-07
-2.5212e-07
-2.75542e-08
9.47142e-07
8.77218e-07
-1.01232e-06
-5.2677e-08
4.93914e-07
-4.41237e-07
-9.36291e-07
4.43435e-07
4.92855e-07
-5.88552e-07
-1.07845e-07
6.85688e-07
-7.80982e-07
-9.75071e-07
6.02194e-07
4.23406e-07
-3.05995e-07
-1.17411e-07
-2.06317e-07
2.11099e-07
-9.3812e-07
6.2968e-07
-2.21982e-07
-6.77435e-07
9.11163e-07
-1.22481e-07
-1.93418e-07
9.92863e-07
-1.6763e-07
-8.25233e-07
-4.5725e-07
-3.39239e-07
6.03805e-07
-9.71209e-07
7.49227e-07
-1.93691e-07
-7.38385e-07
-4.62375e-07
9.14533e-07
-4.52157e-07
-1.0012e-06
-9.08498e-07
9.43802e-07
-2.83389e-07
3.86437e-08
-2.2167e-08
-6.01787e-07
-1.57734e-06
-1.17941e-06
1.95982e-07
-8.38312e-07
4.03144e-07
4.35168e-07
-8.9616e-07
4.08419e-07
4.87741e-07
3.86069e-07
-1.45445e-06
1.09206e-06
-9.98751e-07
7.15362e-07
-6.97052e-07
-4.84769e-07
3.83852e-07
1.09089e-07
8.842e-07
-9.93289e-07
6.19745e-07
-4.20194e-07
-3.07128e-07
3.69064e-07
-6.19362e-08
-6.32769e-07
-3.94314e-07
1.02708e-06
1.52859e-06
1.11803e-06
4.10624e-08
8.37921e-07
-9.86745e-07
2.49524e-07
3.40254e-07
2.49651e-07
-4.87488e-08
8.04238e-08
-1.11245e-06
3.97786e-07
-3.49355e-08
-3.62851e-07
-3.45392e-07
8.63752e-07
-2.68414e-07
-5.95338e-07
-4.22599e-07
-9.32221e-07
6.57297e-07
-2.86333e-07
6.73337e-07
-3.87004e-07
-4.30759e-07
-1.63275e-07
-4.00572e-07
-3.61548e-07
7.6212e-07
-6.05477e-07
-3.45729e-07
7.61443e-07
-7.5755e-08
3.06482e-07
7.21772e-07
9.94218e-08
-5.40659e-07
-3.19218e-08
-4.52847e-07
-3.8326e-07
-1.82876e-07
-9.1824e-07
1.66538e-07
2.31248e-07
1.00276e-06
-4.00564e-07
3.65304e-08
1.74569e-07
6.38963e-07
5.71999e-07
1.46544e-07
-2.6755e-08
-1.19789e-07
-8.03933e-08
1.19842e-06
-3.16558e-07
-6.15663e-07
1.49149e-07
2.74258e-07
-5.18023e-07
-2.59954e-07
7.77977e-07
-1.03333e-06
-5.04268e-07
-8.62947e-07
-3.03186e-07
-3.48917e-07
6.52103e-07
-4.93016e-07
-3.82658e-07
5.31807e-07
6.04432e-07
-4.63203e-07
-1.41229e-07
-9.99791e-07
-4.77312e-07
9.70167e-07
2.04048e-07
4.48055e-07
-6.42612e-07
-3.49282e-08
6.39361e-07
1.17929e-06
9.86307e-07
-7.5203e-07
6.76453e-07
-1.02184e-06
-9.85112e-07
1.26602e-07
-1.00912e-07
4.4341e-07
-1.01541e-06
5.38096e-07
4.77151e-07
8.60142e-07
2.69424e-07
-5.55757e-07
-3.5688e-07
-8.96666e-07
-1.15655e-07
1.76667e-07
-4.82662e-07
8.61345e-07
2.79987e-07
3.43037e-07
-6.23024e-07
-5.52607e-07
9.59332e-07
-4.06725e-07
9.31018e-07
2.137e-08
3.11789e-07
4.65945e-07
-7.34359e-07
5.46628e-07
-2.34839e-07
-3.8711e-07
-4.25885e-07
-5.15813e-07
9.41698e-07
-1.07552e-06
-5.30701e-07
9.3912e-07
-3.2121e-07
6.02591e-07
6.25375e-07
-6.14593e-07
-1.07828e-08
4.28772e-07
3.33347e-07
8.85914e-08
-1.27027e-06
1.18168e-06
-1.10502e-06
5.81831e-07
5.23186e-07
-3.98719e-07
3.39618e-07
-1.93074e-07
5.20294e-07
1.05081e-07
-9.78492e-07
9.86307e-07
-5.09156e-07
7.80952e-07
-9.24299e-07
5.22886e-07
-9.75043e-07
3.0469e-07
-6.07152e-07
2.85941e-07
8.77267e-07
8.60301e-08
-6.90503e-07
2.79101e-07
-2.02066e-07
8.99244e-09
4.55606e-07
1.8653e-07
4.52482e-07
-1.80696e-07
5.64685e-07
7.40887e-07
5.94737e-08
4.98641e-07
-1.0078e-06
-9.27829e-07
3.32491e-07
-7.9186e-07
3.18589e-07
4.69701e-07
5.2826e-07
8.00637e-07
-3.12895e-07
4.95378e-07
-2.25954e-07
6.20047e-07
2.39761e-07
7.70169e-07
3.23019e-07
2.23609e-07
2.60539e-07
5.32394e-07
9.39841e-07
-1.69672e-07
1.09677e-07
2.59387e-07
9.18932e-07
-1.16424e-06
2.45312e-07
-8.71557e-07
5.12759e-07
3.58798e-07
-1.02418e-06
6.67301e-07
4.21109e-07
-4.54211e-07
-4.61474e-07
-2.2903e-07
-4.76402e-07
-6.56366e-07
2.73106e-07
3.11067e-07
-9.37409e-07
-3.39163e-07
7.15155e-07
4.24857e-08
5.49641e-07
2.593e-07
-2.86055e-07
-1.83558e-07
-2.7216e-07
7.92454e-07
-6.66354e-07
-2.61475e-07
-3.34046e-07
-3.02409e-07
7.86041e-08
-3.4159e-07
-5.92187e-07
-3.41193e-07
9.3338e-07
1.01773e-06
-9.3731e-07
7.83373e-07
1.23e-06
-8.75103e-07
1.09099e-07
7.66005e-07
-1.02315e-06
9.07494e-07
3.33932e-07
8.21285e-07
-1.15522e-06
9.91588e-07
2.61462e-08
1.0943e-06
1.04121e-07
3.44084e-07
-7.83289e-07
3.96285e-07
9.36741e-07
-4.63472e-07
-3.19817e-07
-9.68763e-07
-5.70619e-07
-9.43641e-07
3.51454e-07
-5.08667e-07
7.77891e-07
-2.69224e-07
5.18652e-07
-1.74929e-07
8.06577e-07
-4.0409e-07
-2.22796e-07
6.26886e-07
-1.02634e-06
-2.51271e-08
3.85168e-07
-5.24139e-07
8.78577e-07
-5.59988e-07
4.3662e-07
3.41357e-07
-8.38991e-07
-5.78334e-07
-5.37384e-07
8.33533e-07
5.6216e-07
-7.31463e-07
2.32893e-07
2.98914e-07
-1.05515e-06
6.67681e-07
-9.24628e-07
1.25856e-06
1.00359e-06
-5.66692e-07
8.26144e-07
3.12109e-07
-5.51582e-07
2.39473e-07
5.04304e-07
3.29228e-07
1.0503e-06
-8.17847e-07
-2.32449e-07
6.69513e-07
-1.71404e-07
4.54415e-07
-1.11378e-07
-2.01192e-07
6.92263e-07
-4.9107e-07
9.43064e-07
-4.14804e-07
-8.57947e-08
9.23483e-07
4.66662e-07
-8.61741e-07
3.29824e-07
-9.66554e-07
7.98699e-07
-2.94395e-07
5.63353e-08
-9.93646e-07
9.4696e-07
-3.4281e-07
-6.04149e-07
2.25801e-07
1.7048e-07
-6.24019e-07
9.75753e-07
-3.51734e-07
-6.24951e-07
8.73249e-07
-2.48297e-07
2.11199e-07
-1.20701e-07
-7.1829e-07
5.45103e-07
-1.89257e-07
-1.27313e-06
1.05552e-06
4.20247e-07
-8.78276e-07
-4.37336e-07
-3.63496e-07
1.12918e-07
-2.32706e-07
8.50946e-07
-4.16088e-07
4.18678e-07
3.87768e-07
-6.26634e-07
-2.22102e-07
8.48735e-07
-2.15151e-07
3.13165e-07
-9.8014e-08
-1.25888e-07
-2.16666e-07
1.68359e-07
7.33534e-08
7.10019e-07
4.0226e-07
2.76512e-07
3.22941e-07
4.6616e-07
3.32539e-07
1.24882e-06
-4.27532e-07
5.29563e-07
2.14938e-07
-7.44501e-07
-7.09631e-08
3.41576e-07
2.68267e-08
-8.62652e-07
3.49697e-07
3.8607e-07
-1.24214e-07
-3.72903e-07
-1.09759e-07
-8.00574e-07
8.56909e-07
6.56291e-08
4.19683e-07
-6.05381e-08
-7.29292e-07
9.07552e-07
-1.78259e-07
-2.06061e-07
-6.51147e-07
8.68875e-07
-2.17729e-07
-3.83214e-07
5.73442e-07
-1.90228e-07
2.78662e-07
8.21224e-07
7.67675e-07
-5.33285e-07
-2.3439e-07
-9.81178e-08
4.02807e-07
7.7827e-07
6.68202e-07
3.07551e-07
-3.50665e-07
-3.02097e-07
6.52762e-07
6.22238e-07
-4.60953e-07
-1.08726e-06
4.35459e-07
-5.90155e-07
1.41138e-06
7.87795e-07
-3.52336e-07
3.27843e-07
-9.39697e-07
9.65844e-07
-8.4004e-07
3.94657e-08
1.39583e-07
-6.8802e-07
-3.99235e-07
4.3606e-07
5.67625e-08
8.50789e-07
6.63341e-07
-4.26339e-08
-4.76572e-07
-2.60916e-07
2.50812e-07
3.93871e-07
4.69008e-07
-3.63587e-07
-7.83277e-07
-1.42857e-07
-9.36271e-08
3.96365e-07
-7.24278e-08
8.347e-07
-3.98639e-07
4.1701e-07
1.11186e-07
3.57823e-07
9.88992e-07
-5.71982e-07
-9.41908e-07
-2.22784e-07
1.16469e-06
-7.04879e-07
-2.30449e-08
5.35644e-07
-9.31866e-07
-1.80587e-07
7.92083e-07
-6.80897e-07
-2.72792e-07
-1.77464e-08
2.90539e-07
-1.07472e-06
-1.86448e-07
-2.04889e-07
3.91337e-07
3.58128e-07
3.00972e-07
1.03797e-07
-9.59278e-08
-7.86917e-09
5.65237e-08
-4.00056e-07
6.58662e-07
2.24836e-08
-4.13442e-07
4.05643e-07
-3.33332e-07
6.36875e-07
-5.27e-07
3.11849e-07
2.07423e-07
-2.16587e-07
4.54392e-07
-2.30905e-07
-2.85393e-07
5.16298e-07
-3.81965e-07
6.03091e-07
-2.21126e-07
4.8503e-07
-1.86116e-07
-4.87655e-07
2.58798e-07
-3.33347e-07
-1.12249e-06
4.15991e-07
8.13882e-08
-4.3323e-07
2.02325e-07
-5.92954e-07
1.25162e-06
3.85588e-07
-6.7021e-07
2.84622e-07
-5.19783e-07
1.07839e-06
-7.48567e-07
-3.12062e-07
1.62593e-06
-1.16625e-06
-1.13028e-08
-3.23547e-07
2.41004e-07
2.30462e-07
2.7897e-07
-2.90724e-07
-1.32809e-08
1.61961e-07
2.25807e-07
-9.45546e-07
9.41931e-07
-2.96041e-07
8.55607e-07
-2.96218e-08
-1.17701e-06
1.20663e-06
-2.83121e-07
9.76755e-07
-6.93634e-07
1.12317e-06
3.54044e-07
-1.21542e-07
1.02633e-06
1.04716e-07
-6.9767e-07
2.45115e-07
-1.07261e-06
8.27498e-07
5.42564e-07
-3.03091e-07
-6.93013e-07
3.59681e-07
-8.95507e-07
-1.02256e-06
8.44303e-07
9.85158e-07
1.38007e-07
1.19551e-06
-1.42725e-06
-4.87152e-07
5.91868e-07
1.15689e-06
5.26564e-07
-2.76913e-07
2.61759e-07
3.98171e-07
1.65046e-07
2.8082e-07
3.19597e-07
3.09196e-07
5.89682e-08
-3.68164e-07
-2.77763e-07
-8.44732e-07
-9.01966e-08
-2.93017e-07
1.07515e-06
-7.67601e-07
8.66575e-07
-3.18639e-07
-5.47935e-07
7.12755e-07
4.99417e-07
-2.14201e-07
5.18898e-07
-3.04697e-07
2.14502e-07
4.00695e-07
-1.12727e-06
1.17675e-06
2.73475e-07
-3.71489e-07
2.86127e-07
4.96204e-07
-1.27586e-06
1.18526e-06
1.05595e-06
-8.71873e-07
-7.44535e-07
-7.59026e-07
-2.63536e-07
-7.38844e-07
6.86822e-07
-2.93506e-07
-5.36537e-08
3.4716e-07
-7.16361e-07
7.08196e-07
-9.91317e-07
-3.59962e-07
-3.84539e-07
-9.91044e-08
-1.15235e-06
-1.2622e-06
-1.3349e-06
2.41984e-07
-1.43112e-06
8.46407e-08
-9.28645e-07
3.24496e-07
6.94346e-07
-8.84189e-07
-2.3042e-07
1.86251e-07
1.57216e-07
-4.70701e-07
-8.49059e-07
1.10786e-06
-1.19396e-06
-2.29637e-07
-2.59004e-07
1.66058e-07
3.38541e-07
5.94839e-07
4.75491e-07
4.80077e-07
1.83278e-07
5.97351e-07
1.74802e-07
3.31702e-07
5.71536e-07
4.30425e-07
3.59124e-07
6.77929e-07
-1.06318e-06
-1.56987e-07
-2.60353e-07
1.31588e-06
2.65794e-08
-1.03114e-06
-5.96106e-07
8.57413e-08
-1.39395e-07
1.27824e-07
1.38842e-07
2.00842e-07
1.42625e-07
-5.28187e-08
5.10069e-07
2.21274e-07
7.92477e-07
-1.25779e-06
-6.48317e-08
1.42811e-07
6.66821e-07
-9.62862e-07
3.27961e-07
-9.24068e-07
3.49336e-07
5.52868e-08
1.31931e-06
9.48682e-08
7.79318e-08
-6.04351e-07
9.42892e-07
3.35045e-07
-3.86615e-07
6.50671e-07
-4.10957e-07
-1.17683e-06
8.76797e-07
3.00029e-07
4.74477e-07
-1.58852e-07
-6.34901e-07
4.10489e-07
-3.98869e-07
-8.71402e-07
-5.43313e-07
1.22021e-06
-6.912e-08
6.60988e-07
-2.44835e-07
2.09238e-07
7.07367e-07
-1.90281e-08
8.27906e-07
-9.2299e-07
6.23295e-07
-5.84652e-07
4.39962e-07
5.35875e-07
-9.90707e-07
-5.41042e-07
-4.47841e-07
1.28162e-06
-6.99785e-07
8.16386e-08
9.11614e-08
2.93329e-08
-9.31128e-08
-2.81494e-09
-8.82857e-07
-5.75048e-07
9.32843e-07
-1.33171e-06
8.67655e-08
5.16325e-07
-1.12769e-06
-4.66704e-07
-3.07991e-07
3.14075e-07
-1.87564e-07
-7.41272e-07
3.15433e-07
2.15341e-07
2.30526e-07
7.34762e-07
5.81113e-07
-4.51492e-07
-2.79971e-07
-2.35331e-07
8.34298e-07
-2.57708e-07
7.84913e-07
1.27064e-06
-2.19001e-07
4.10299e-07
-7.57052e-07
-3.15561e-07
-6.21498e-07
1.30428e-07
2.33711e-07
1.49651e-06
-7.11593e-07
-1.18274e-09
9.55694e-08
-6.18113e-07
-3.07564e-07
1.36332e-07
-1.4505e-06
4.40127e-07
1.39446e-06
5.3669e-08
9.21458e-07
9.33675e-07
5.24565e-07
1.23287e-06
7.50598e-07
2.72103e-07
-1.35771e-07
3.2205e-07
-3.02326e-07
-2.34067e-08
-1.44602e-06
1.61191e-07
-8.20913e-09
4.56345e-07
-1.00932e-07
-6.68851e-08
-5.69563e-07
-2.03193e-08
-3.00784e-07
-1.48323e-08
3.0671e-07
-4.388e-08
4.36993e-07
-7.85175e-07
1.62533e-06
-8.10494e-07
2.91031e-07
4.84203e-07
1.68559e-07
-9.72145e-07
8.88744e-07
-7.12365e-08
3.37892e-08
3.74473e-08
6.20889e-07
-1.76583e-07
-2.47773e-07
-6.06012e-07
-5.18323e-07
7.59572e-07
-1.93555e-07
4.88727e-07
4.43609e-07
-2.2e-07
6.15717e-07
-3.49376e-07
1.44335e-07
-1.12935e-06
3.77317e-07
4.58782e-07
-3.77233e-08
2.56563e-07
5.47271e-07
2.71614e-07
-2.04839e-07
-1.64409e-07
6.63025e-08
-2.25261e-07
4.45531e-07
-2.20269e-07
8.83377e-07
1.27818e-08
3.18756e-07
8.36258e-07
1.40533e-08
8.56422e-07
-6.6044e-07
7.05398e-07
9.19928e-07
-5.63694e-07
-1.04002e-06
-5.70804e-07
6.6636e-08
4.74023e-07
8.83377e-07
2.89571e-07
-1.38975e-07
-2.3133e-07
-3.00227e-07
1.90469e-07
7.0088e-07
-7.12182e-07
-1.7187e-07
-8.24569e-07
1.35068e-07
-1.70817e-08
-1.52594e-07
-2.49714e-08
-9.65805e-08
6.23624e-08
7.22948e-08
-1.20801e-08
-3.58689e-08
-2.20652e-07
-4.83332e-08
-9.99724e-08
-7.22948e-08
3.58689e-08
9.99724e-08
-1.49384e-08
1.74652e-07
5.11897e-08
2.20652e-07
4.83332e-08
1.35068e-07
-1.52594e-07
-9.65805e-08
1.74652e-07
5.86969e-07
5.23912e-08
-1.83719e-07
4.556e-07
5.08847e-07
-3.35415e-07
3.35415e-07
-1.83719e-07
-3.47256e-07
-4.92674e-07
2.69761e-07
4.18191e-07
-1.87665e-07
8.80484e-07
4.36137e-07
-4.54764e-07
2.74985e-07
5.01157e-08
-2.74985e-07
4.91428e-08
-1.12769e-06
-8.35396e-07
3.68769e-08
-3.19167e-07
3.38792e-08
-1.05116e-07
4.91937e-07
-1.16495e-07
7.21079e-07
1.48687e-07
-1.629e-06
-2.15535e-07
-4.45558e-07
4.4764e-08
5.55387e-07
2.74659e-07
-1.17708e-06
1.37065e-07
-6.92355e-07
1.14721e-07
1.26959e-07
1.22207e-10
-2.69826e-07
-4.95896e-07
3.71016e-07
1.2488e-07
7.12572e-07
-1.65301e-07
4.23376e-08
-4.23376e-08
-4.08004e-07
-3.68831e-07
-9.20519e-07
1.66506e-07
-5.77456e-07
6.27572e-07
5.97561e-08
-5.55653e-07
7.46359e-07
-4.6179e-07
7.80478e-08
-3.93592e-07
9.86456e-07
8.63693e-07
2.81044e-07
-3.30837e-07
3.05807e-07
-6.73932e-07
5.58917e-08
-1.91663e-07
3.47772e-07
-2.64821e-07
-1.02105e-07
-3.3908e-08
8.97997e-08
1.44199e-07
-3.68813e-07
-9.58061e-08
9.35496e-07
-4.06547e-07
8.15921e-08
-8.15921e-08
-3.26814e-07
1.7136e-09
3.26814e-07
-3.29497e-08
-2.07831e-07
2.07831e-07
2.9287e-07
-6.71423e-08
3.06859e-07
-1.90449e-07
-1.33098e-07
-3.00902e-07
-4.24711e-08
1.28212e-07
-1.15348e-07
4.53711e-08
-4.33472e-07
-9.60907e-07
7.22371e-08
3.639e-07
1.52408e-07
3.51255e-07
-4.92484e-07
-3.05692e-08
-1.44851e-07
4.31052e-07
-4.31052e-07
4.99359e-07
1.37809e-07
-3.08562e-07
-6.38942e-07
1.86248e-07
4.12211e-07
-5.98459e-07
2.9444e-07
2.0156e-08
1.40304e-07
-1.21816e-07
1.1535e-08
5.45929e-07
3.12974e-08
-1.51715e-07
-1.21604e-07
-1.77912e-08
-3.67573e-08
3.67573e-08
2.45068e-07
2.00463e-07
5.41042e-07
-1.42656e-07
3.2308e-08
1.10348e-07
-9.68241e-08
2.51094e-08
3.59616e-08
1.02105e-07
-5.8372e-08
-3.59616e-08
-2.35917e-07
9.69541e-08
1.38963e-07
5.15949e-08
-4.60654e-08
-3.80639e-07
-2.15232e-07
-1.54166e-06
9.26615e-07
6.15041e-07
1.22207e-10
-3.42408e-07
-2.20269e-07
3.42408e-07
1.45894e-07
3.05211e-08
-2.18085e-07
-5.90249e-08
-1.12099e-07
5.90249e-08
1.12099e-07
-1.25111e-07
1.25111e-07
4.39011e-07
-2.22578e-07
-5.31412e-07
-2.66395e-07
-9.73309e-08
-4.80125e-07
4.31737e-08
1.14245e-07
-1.14245e-07
-8.10494e-07
-1.33045e-07
-1.1535e-08
-1.48335e-07
8.04727e-08
-1.37809e-07
-7.89686e-07
-1.78273e-07
-8.42812e-08
1.54385e-07
1.05356e-06
2.23123e-08
-6.82752e-07
-1.97964e-07
-3.46657e-08
3.06859e-07
-2.40501e-07