/*--------------------------------*- C++ -*----------------------------------*\
  =========                 |
  \\      /  F ield         | OpenFOAM: The Open Source CFD Toolbox
   \\    /   O peration     | Website:  https://openfoam.org
    \\  /    A nd           | Version:  9
     \\/     M anipulation  |
\*---------------------------------------------------------------------------*/
FoamFile
{
    format      ascii;
    class       volScalarField;
    location    "0.42";
    object      p;
}
// * * * * * * * * * * * * * * * * * * * * * * * * * * * * * * * * * * * * * //

dimensions      [0 2 -2 0 0 0 0];

internalField   nonuniform List<scalar> 
942
(
13.3938
13.3986
13.3957
13.4022
13.3951
13.3932
13.3973
13.3931
13.4015
13.4018
13.4042
13.3942
13.4021
13.4048
13.3938
13.3984
13.4014
13.3948
13.3982
13.4013
13.4012
13.3931
13.383
13.4002
13.4041
13.4011
13.4016
13.3848
13.404
13.3965
13.4025
13.4013
13.403
13.3877
13.4039
13.3742
13.3756
13.405
13.3744
13.4014
13.3847
13.3813
13.3996
13.3978
13.3956
13.4011
13.3945
13.3872
13.3826
13.4046
13.399
13.3854
13.3734
13.3949
13.4017
13.3801
13.3953
13.4015
13.3956
13.3901
13.3985
13.4029
13.3875
13.3895
13.4031
13.3978
13.4028
13.3909
13.3793
13.3983
13.3993
13.4
13.3984
13.3995
13.3944
13.4013
13.4013
13.4038
13.4013
13.3982
13.3939
13.4036
13.4034
13.3982
13.397
13.3979
13.3899
13.3951
13.4049
13.4031
13.3822
13.4055
13.4018
13.3813
13.3785
13.4013
13.3802
13.3955
13.3939
13.4015
13.3982
13.4018
13.3953
13.3979
13.3797
13.3936
13.4012
13.4018
13.3898
13.3918
13.3776
13.3797
13.3909
13.4006
13.4042
13.4051
13.392
13.4016
13.4013
13.3877
13.3944
13.3765
13.3944
13.3985
13.3986
13.3986
13.38
13.4006
13.401
13.3691
13.3962
13.3977
13.3932
13.3852
13.3869
13.3989
13.3743
13.3899
13.377
13.3803
13.3829
13.4003
13.392
13.3955
13.3935
13.4038
13.3985
13.3993
13.3751
13.3987
13.3929
13.3886
13.4053
13.395
13.4046
13.3744
13.3971
13.4011
13.3911
13.4012
13.3964
13.375
13.403
13.3938
13.3886
13.4055
13.3978
13.396
13.4015
13.3936
13.3891
13.3821
13.3778
13.3903
13.3966
13.3978
13.4015
13.3983
13.3814
13.3969
13.3951
13.4032
13.375
13.3974
13.3976
13.405
13.3955
13.397
13.3983
13.3958
13.4024
13.3952
13.3886
13.4041
13.3974
13.4013
13.3997
13.3926
13.3861
13.3919
13.4022
13.4012
13.3966
13.4016
13.3937
13.3829
13.3781
13.3977
13.3954
13.3959
13.3987
13.4007
13.4006
13.4023
13.3978
13.3963
13.3974
13.4046
13.4008
13.4017
13.391
13.3958
13.3931
13.3993
13.3995
13.4014
13.4026
13.3854
13.3977
13.4033
13.4055
13.3989
13.4037
13.398
13.3945
13.4009
13.4047
13.3894
13.4028
13.4024
13.403
13.3957
13.3878
13.3979
13.3977
13.3993
13.3814
13.3979
13.3849
13.4018
13.402
13.3835
13.4032
13.4007
13.3964
13.3999
13.3909
13.3928
13.4042
13.3982
13.3894
13.4046
13.4034
13.3946
13.3786
13.4006
13.3976
13.3909
13.404
13.3819
13.379
13.399
13.3855
13.4013
13.3994
13.4049
13.4001
13.3921
13.402
13.3777
13.3961
13.3744
13.3776
13.3914
13.4006
13.3916
13.3919
13.3897
13.3945
13.3929
13.4013
13.3862
13.4053
13.3784
13.3931
13.4006
13.3901
13.3913
13.3904
13.3929
13.3964
13.3925
13.3891
13.3868
13.3971
13.3879
13.3844
13.3946
13.4014
13.4056
13.3979
13.4036
13.393
13.3989
13.3821
13.4055
13.3948
13.3964
13.4023
13.3937
13.401
13.4058
13.3955
13.3978
13.3879
13.4045
13.4043
13.3807
13.3836
13.3935
13.4005
13.3795
13.3901
13.3881
13.3919
13.3996
13.3859
13.3996
13.3992
13.3728
13.3969
13.4009
13.3838
13.3986
13.3938
13.4002
13.3954
13.3836
13.3889
13.3924
13.3994
13.3916
13.3824
13.3911
13.3987
13.3921
13.3971
13.3813
13.3986
13.4005
13.3906
13.3916
13.3943
13.3806
13.3881
13.3947
13.393
13.3955
13.3861
13.401
13.3861
13.3982
13.392
13.3854
13.3989
13.3938
13.3981
13.3951
13.3841
13.3927
13.3986
13.39
13.3829
13.3694
13.3963
13.3923
13.3892
13.3934
13.3967
13.3916
13.3888
13.3739
13.3925
13.3957
13.3808
13.3907
13.3922
13.3856
13.3983
13.3719
13.3771
13.386
13.3952
13.3924
13.387
13.3999
13.3753
13.3981
13.3857
13.3713
13.3999
13.3939
13.3906
13.3916
13.3895
13.3855
13.3842
13.389
13.4011
13.3875
13.3915
13.3878
13.3921
13.3889
13.3885
13.3905
13.3992
13.4013
13.3938
13.3964
13.3947
13.3931
13.3952
13.4013
13.3767
13.3906
13.3942
13.3896
13.3873
13.3949
13.3876
13.3922
13.3964
13.3955
13.3882
13.393
13.3994
13.401
13.3892
13.3849
13.399
13.402
13.4015
13.3865
13.4002
13.4005
13.3999
13.3986
13.3857
13.4015
13.3936
13.3952
13.4048
13.3999
13.4023
13.4006
13.3915
13.3942
13.3947
13.4028
13.3954
13.3977
13.3965
13.3913
13.4017
13.4048
13.3893
13.3997
13.3907
13.4017
13.3851
13.4022
13.3977
13.4023
13.39
13.4011
13.3926
13.3976
13.3911
13.4033
13.4035
13.4014
13.4031
13.3988
13.3861
13.4044
13.4018
13.4049
13.4006
13.3882
13.4024
13.4027
13.3895
13.4036
13.4004
13.404
13.3987
13.3987
13.4027
13.3979
13.3913
13.4032
13.4044
13.4027
13.4041
13.3893
13.4048
13.4041
13.3977
13.4027
13.3934
13.3997
13.3967
13.4036
13.3971
13.3965
13.4025
13.4036
13.4021
13.3961
13.3987
13.403
13.3923
13.4025
13.4032
13.4037
13.4048
13.4042
13.3906
13.4036
13.3846
13.4037
13.4019
13.393
13.4033
13.4036
13.4038
13.4029
13.4036
13.4038
13.4034
13.404
13.4034
13.4032
13.4011
13.4037
13.4034
13.4028
13.4006
13.4034
13.4043
13.3916
13.3919
13.4038
13.4035
13.4041
13.4034
13.4051
13.4041
13.4001
13.4032
13.3995
13.4041
13.4035
13.3981
13.4011
13.4042
13.4039
13.4044
13.4047
13.3989
13.3934
13.4015
13.4039
13.3943
13.3956
13.4043
13.3927
13.4003
13.4005
13.379
13.3968
13.4023
13.3917
13.3917
13.4043
13.3919
13.3939
13.3936
13.3995
13.3986
13.4044
13.391
13.3935
13.4021
13.4041
13.3938
13.3996
13.4036
13.3938
13.4018
13.394
13.3942
13.3935
13.394
13.3973
13.3868
13.3979
13.3849
13.4048
13.392
13.4012
13.3941
13.4007
13.3958
13.3972
13.3905
13.4039
13.4009
13.3955
13.4007
13.4028
13.386
13.3793
13.3959
13.3999
13.3982
13.3985
13.4026
13.3968
13.3973
13.3988
13.3943
13.3891
13.4012
13.3931
13.3943
13.3939
13.3984
13.3956
13.3986
13.4023
13.3931
13.4016
13.3931
13.3997
13.4002
13.4009
13.4024
13.4041
13.4018
13.3829
13.4027
13.4038
13.402
13.3984
13.3872
13.3977
13.3786
13.4006
13.3943
13.4019
13.3987
13.4032
13.3981
13.4016
13.3998
13.4026
13.3985
13.4015
13.3847
13.405
13.3773
13.4054
13.4045
13.4034
13.4014
13.4058
13.405
13.4039
13.3929
13.4056
13.395
13.4028
13.4019
13.4058
13.4057
13.3954
13.4043
13.4046
13.4031
13.4017
13.4058
13.4056
13.3933
13.3953
13.404
13.3877
13.4043
13.3962
13.4018
13.4052
13.404
13.4043
13.3932
13.405
13.3997
13.4037
13.4006
13.4053
13.3933
13.401
13.4016
13.3991
13.3927
13.393
13.3935
13.3946
13.4033
13.3872
13.3991
13.3956
13.4031
13.3934
13.3953
13.4021
13.3775
13.3972
13.4049
13.3941
13.401
13.4008
13.3976
13.3994
13.3768
13.3935
13.3996
13.4045
13.398
13.3895
13.3993
13.4054
13.3954
13.3961
13.3933
13.3888
13.3893
13.396
13.3978
13.4027
13.4048
13.4016
13.4039
13.3879
13.4019
13.395
13.3932
13.4042
13.4008
13.3769
13.3945
13.3937
13.4054
13.4007
13.4002
13.4017
13.4045
13.402
13.392
13.4051
13.3978
13.3983
13.3997
13.4004
13.3954
13.3932
13.4055
13.3953
13.3801
13.3946
13.4035
13.4003
13.402
13.3943
13.3936
13.3935
13.4057
13.3943
13.4041
13.3988
13.4008
13.396
13.3768
13.3942
13.3949
13.3836
13.3853
13.3927
13.4017
13.3772
13.3972
13.395
13.4023
13.4023
13.3933
13.3823
13.3777
13.4037
13.4051
13.4005
13.4012
13.4023
13.3929
13.385
13.4044
13.3998
13.3874
13.4037
13.382
13.3981
13.3939
13.3943
13.4028
13.3865
13.3982
13.393
13.3977
13.395
13.3987
13.3938
13.4038
13.3798
13.3927
13.4056
13.3781
13.4013
13.4001
13.3921
13.4037
13.3943
13.3818
13.3861
13.3993
13.3973
13.3805
13.3814
13.3886
13.3759
13.3981
13.3879
13.4037
13.3968
13.4019
13.3946
13.3791
13.3938
13.4006
13.3952
13.4026
13.3943
13.3892
13.3981
13.3946
13.3942
13.3929
13.3944
13.4053
13.3784
13.3955
13.3943
13.3945
13.3973
13.402
13.3767
13.3936
13.3986
13.4018
13.4053
13.3943
13.3945
13.4045
13.4046
13.3926
13.3865
13.393
13.3777
13.3794
13.396
13.3957
13.4058
13.4058
13.3842
13.39
13.3952
13.4024
13.3963
13.4056
13.3775
13.4
13.4003
13.4005
13.3946
13.3978
13.3837
13.3928
13.3962
13.4029
13.3776
13.3944
13.3947
13.4004
13.3926
13.4027
13.3979
13.3996
13.3959
13.3932
13.4057
13.4018
13.3768
13.4023
13.4019
13.3757
13.3933
13.4027
13.3833
13.3825
13.3765
13.4021
13.4002
13.4012
13.4008
)
;

boundaryField
{
    back
    {
        type            empty;
    }
    front
    {
        type            empty;
    }
    top
    {
        type            zeroGradient;
    }
    outer_arc
    {
        type            zeroGradient;
    }
    bottom
    {
        type            uniformFixedValue;
        uniformValue    
        {
            type            table;
            format          csv;
            file            "outlet_p.csv";
            nHeaderLine     1;
            refColumn       0;
            componentColumns List<label> 1(1);
            separator       ",";
            mergeSeparators 0;
        }
        value           uniform 13.3928;
    }
    inner_arc
    {
        type            zeroGradient;
    }
}


// ************************************************************************* //
