/*--------------------------------*- C++ -*----------------------------------*\
  =========                 |
  \\      /  F ield         | OpenFOAM: The Open Source CFD Toolbox
   \\    /   O peration     | Website:  https://openfoam.org
    \\  /    A nd           | Version:  9
     \\/     M anipulation  |
\*---------------------------------------------------------------------------*/
FoamFile
{
    format      ascii;
    class       volScalarField;
    location    "0.97";
    object      p;
}
// * * * * * * * * * * * * * * * * * * * * * * * * * * * * * * * * * * * * * //

dimensions      [0 2 -2 0 0 0 0];

internalField   nonuniform List<scalar> 
578
(
1.12553e-21
-3.06856e-22
2.36774e-21
2.58977e-21
-2.08954e-21
3.74208e-21
3.50857e-21
-1.57294e-21
-8.56602e-22
-1.65585e-21
2.99568e-21
-1.42155e-21
2.54409e-21
-1.69212e-21
3.27988e-21
1.67911e-21
1.14504e-21
1.33078e-21
-1.09602e-21
-3.4132e-22
2.60603e-21
1.82194e-21
2.52369e-21
2.9545e-21
2.95181e-21
-1.10027e-21
2.36772e-21
2.17403e-21
4.41243e-22
1.54036e-21
2.29642e-21
3.92172e-21
6.1402e-22
2.57367e-21
3.32111e-21
3.59195e-22
-1.67246e-21
-1.49568e-21
2.16881e-21
-2.54849e-21
-1.87095e-21
-1.42455e-21
-1.79314e-21
3.34671e-21
8.24876e-22
3.77169e-21
3.61412e-21
-8.76063e-22
2.90522e-21
2.3481e-21
4.56206e-21
2.56548e-21
4.40092e-21
2.58028e-21
2.5022e-21
1.3335e-21
2.69504e-21
1.95768e-21
1.92496e-21
-1.29586e-22
2.17206e-21
8.80831e-22
1.75077e-23
-1.8407e-21
2.4788e-21
3.1712e-21
6.471e-22
3.20495e-21
2.62681e-21
-9.68626e-22
2.65352e-21
3.93707e-21
2.50653e-21
-1.01318e-21
3.05727e-21
-1.91012e-21
-1.40347e-21
-9.89332e-22
2.5179e-21
3.63103e-21
3.86606e-21
-5.70333e-22
4.83268e-21
4.67533e-21
1.77072e-21
1.29417e-21
4.86857e-21
1.64116e-21
-1.15499e-21
1.34762e-21
2.36966e-21
2.93584e-21
2.2987e-21
2.566e-21
2.84413e-21
3.56792e-21
2.50623e-21
2.52526e-21
-1.02168e-21
3.48295e-21
3.41566e-21
-1.16567e-21
2.42094e-21
3.64247e-21
2.44619e-21
-2.1216e-21
3.15197e-21
-2.13836e-21
1.52658e-21
-1.52861e-21
2.01868e-22
-1.17718e-21
-4.32076e-22
3.2442e-21
3.45537e-21
2.46162e-21
2.60286e-21
1.20812e-21
1.4052e-21
2.47907e-21
-9.77839e-22
5.79032e-21
-1.41503e-21
2.54252e-21
4.1836e-21
7.96459e-22
3.68197e-21
1.59135e-21
2.15109e-21
1.1295e-22
1.87294e-21
6.64857e-22
2.58604e-21
-1.07846e-21
1.64881e-21
2.72601e-21
-1.9355e-21
2.48085e-21
2.72881e-21
2.05219e-21
2.06823e-21
3.2124e-22
1.87783e-21
1.86029e-21
-1.25228e-21
2.05251e-21
5.49046e-22
2.32236e-21
-1.35761e-21
-1.42635e-22
-1.17042e-21
2.10512e-21
-1.5041e-21
-1.05153e-21
3.17453e-21
2.34806e-21
8.04593e-22
2.61241e-21
3.87285e-21
-1.09249e-21
-1.26162e-21
-1.15487e-21
2.42592e-21
-1.15781e-21
1.43842e-21
4.23029e-22
1.83428e-21
3.08198e-21
2.69262e-21
2.43944e-21
-8.88972e-22
-2.14114e-21
2.97661e-21
1.14458e-21
2.87374e-21
2.46908e-21
2.49387e-21
6.88702e-22
-1.15744e-21
7.81391e-22
3.06361e-21
3.16896e-22
9.64894e-22
2.50302e-21
2.85696e-21
2.37243e-21
1.33787e-21
3.09663e-21
3.14383e-21
1.20193e-22
-1.70518e-21
-1.47407e-21
2.55871e-21
3.16662e-21
-1.36314e-21
2.46204e-21
2.74764e-21
2.26042e-21
3.21542e-21
-1.69943e-21
2.65292e-21
2.5279e-21
6.02922e-21
2.4297e-21
2.46332e-21
-1.8013e-21
3.02837e-21
4.00924e-22
-1.52671e-21
1.99148e-21
2.62313e-22
2.93823e-21
1.50776e-21
2.50038e-21
1.58071e-21
2.51547e-21
3.22633e-21
-1.73026e-21
3.36022e-21
6.55316e-22
-1.79295e-21
2.69972e-21
-6.83404e-22
-1.61877e-21
3.47748e-21
8.53518e-22
2.4492e-21
2.73273e-21
2.31784e-21
5.17337e-22
-1.82715e-21
5.77614e-21
1.32462e-21
-7.10609e-22
7.17235e-22
-7.62627e-22
-1.76837e-21
3.73104e-21
2.58333e-21
-1.28652e-22
2.90095e-21
-2.13255e-21
2.44012e-21
2.68885e-21
2.25388e-21
-1.21339e-21
1.80112e-21
-8.77266e-22
2.12281e-21
2.4634e-21
2.48495e-21
1.18052e-21
4.08663e-21
3.85714e-22
4.07457e-21
-2.39777e-22
9.84246e-22
3.0708e-21
-1.14924e-21
5.37099e-21
-5.68862e-22
3.11206e-21
2.73832e-21
2.75231e-21
2.49482e-22
-8.81623e-22
7.07428e-22
-2.21511e-22
-2.81954e-22
7.83326e-22
-7.10897e-22
6.17621e-22
4.98188e-22
2.42241e-21
2.52632e-21
2.46488e-21
2.37699e-21
3.07489e-22
3.75336e-21
2.51737e-21
-1.96226e-21
2.43447e-21
2.40665e-21
2.47777e-21
2.46402e-21
1.57606e-21
-7.32154e-22
8.75277e-22
2.65853e-21
2.5902e-21
4.46806e-22
1.19679e-21
2.39071e-21
3.63869e-21
2.63904e-21
2.70829e-21
-1.91559e-21
-6.37857e-23
2.31664e-21
2.64925e-21
2.49538e-21
-3.73497e-22
2.448e-21
2.11561e-21
2.69779e-21
2.43877e-21
2.51137e-22
1.06478e-21
2.44789e-21
2.44923e-21
-3.93831e-22
2.21709e-21
2.37925e-21
-4.06071e-22
2.54216e-21
2.42537e-21
9.84316e-22
-3.24192e-22
-6.32977e-22
2.56577e-21
1.06776e-21
2.38524e-21
2.46203e-21
2.75059e-21
2.46135e-21
2.29156e-21
2.80754e-21
2.48771e-21
-1.81392e-21
2.2481e-21
2.47055e-21
3.21386e-21
2.3535e-21
2.33357e-21
1.32527e-21
2.64139e-21
2.51644e-21
2.37747e-21
1.6757e-21
2.39495e-21
2.4451e-21
2.47946e-21
2.18741e-21
1.33974e-21
2.47777e-21
3.77608e-21
2.96117e-21
1.79356e-21
-1.19536e-21
2.32419e-21
-1.41e-21
-1.69317e-21
2.78905e-21
1.69408e-21
-2.13373e-21
4.01055e-21
2.60284e-21
3.26983e-21
-1.76233e-21
4.34045e-21
2.25347e-21
1.49709e-21
2.48307e-21
-8.43403e-22
2.3507e-21
2.29049e-21
2.12258e-21
3.55386e-21
2.52208e-21
3.9414e-22
-1.50956e-21
7.76653e-22
9.4211e-22
3.03409e-21
1.59802e-21
4.85178e-21
2.39839e-21
2.24566e-21
-1.57464e-21
1.56359e-21
2.4868e-21
-1.57491e-21
2.60901e-21
2.59054e-21
2.4667e-21
2.24992e-21
2.32854e-21
3.82662e-21
3.07485e-21
-1.06911e-21
2.52443e-21
2.47845e-21
2.55764e-21
-2.69375e-22
1.52406e-21
2.32138e-21
3.69118e-21
2.05199e-21
2.5466e-21
2.98083e-21
4.38292e-22
3.67709e-21
2.22657e-21
1.03801e-21
2.45534e-21
1.93513e-21
3.19621e-21
1.43988e-21
2.74254e-21
3.22426e-21
2.08968e-21
4.66828e-22
1.4511e-21
8.98379e-22
1.1234e-21
2.82031e-21
-1.39118e-21
2.42846e-21
-1.68171e-21
2.36014e-21
2.19798e-21
3.32679e-21
-1.31807e-21
3.18506e-21
1.36697e-21
-4.82185e-22
-1.31427e-21
9.86e-22
-1.44699e-21
-5.1488e-22
2.95576e-21
2.65532e-21
1.84142e-21
2.53772e-21
1.1721e-21
-7.66619e-22
-1.61403e-21
8.40011e-22
-8.83997e-22
1.57904e-21
8.97533e-22
2.54131e-21
2.64563e-21
2.26337e-21
3.40224e-21
1.93772e-21
2.2424e-21
2.72136e-21
2.25257e-21
2.32134e-21
2.20684e-21
2.43298e-21
2.77574e-21
2.58311e-21
2.89547e-21
2.41259e-21
-1.0641e-22
2.38122e-21
2.75226e-21
1.94008e-21
5.15036e-21
3.03814e-21
1.23435e-21
-7.80955e-22
1.90754e-21
-6.52784e-22
1.13539e-21
-1.49735e-21
1.64559e-21
-7.87924e-22
2.08492e-21
2.18389e-21
1.95532e-21
2.37492e-21
1.93948e-21
-1.61147e-21
-8.58697e-22
-5.82197e-22
4.60913e-22
-4.14737e-22
2.81164e-21
2.9152e-21
2.77612e-21
2.11034e-21
2.37314e-21
-6.72203e-22
1.78883e-21
2.39504e-21
2.43548e-21
3.9331e-21
2.61835e-21
3.00742e-21
-4.06955e-22
2.6197e-21
2.40448e-21
1.53318e-21
2.4106e-21
1.67675e-21
2.41283e-21
2.62372e-21
-1.95348e-21
2.01804e-21
-6.50575e-22
2.5021e-21
2.35877e-21
2.39652e-21
1.96811e-21
2.63491e-21
1.01024e-21
2.41814e-21
2.27277e-21
3.97264e-21
2.54179e-21
3.84369e-21
2.37266e-21
2.29938e-21
-1.55546e-21
-2.56399e-21
3.53735e-21
2.58366e-21
2.95797e-21
2.94335e-21
1.81311e-21
-9.79436e-22
-1.19819e-21
2.46404e-21
2.0585e-21
2.68381e-21
-8.11986e-22
5.68243e-22
-8.6661e-22
-1.5691e-21
2.23314e-21
2.22983e-21
3.83639e-21
2.01023e-21
3.45417e-21
1.70441e-21
3.24223e-21
2.38653e-21
2.64612e-21
3.72202e-21
-1.50881e-22
-9.57365e-22
4.17507e-21
2.63315e-21
3.1324e-21
1.78728e-21
9.43614e-23
-8.64105e-22
3.07266e-21
2.6668e-21
-8.10229e-22
4.31298e-21
3.10149e-21
1.60973e-21
-1.16459e-21
2.1264e-21
2.44721e-21
2.36624e-21
2.43372e-21
4.61461e-21
-1.34963e-21
2.39115e-21
2.61709e-21
3.38027e-21
2.59013e-21
1.23969e-21
2.41324e-21
2.59196e-21
1.81893e-21
2.01281e-21
3.21769e-21
5.8198e-22
2.967e-21
3.03362e-21
2.88562e-21
2.78597e-21
)
;

boundaryField
{
    front
    {
        type            empty;
    }
    back
    {
        type            empty;
    }
    bottom
    {
        type            uniformFixedValue;
        uniformValue    
        {
            type            scale;
            scale           
            {
                type            squarePulse;
                start           0.3;
                duration        0.3;
            }
            xScale          
            {
                type            constant;
                value           1;
            }
            value           
            {
                type            constant;
                value           15.1;
            }
        }
        value           uniform 0;
    }
    left
    {
        type            zeroGradient;
    }
    top
    {
        type            zeroGradient;
    }
    right
    {
        type            zeroGradient;
    }
    inner_arc
    {
        type            zeroGradient;
    }
}


// ************************************************************************* //
