/*--------------------------------*- C++ -*----------------------------------*\
  =========                 |
  \\      /  F ield         | OpenFOAM: The Open Source CFD Toolbox
   \\    /   O peration     | Website:  https://openfoam.org
    \\  /    A nd           | Version:  9
     \\/     M anipulation  |
\*---------------------------------------------------------------------------*/
FoamFile
{
    format      ascii;
    class       volVectorField;
    location    "0.45";
    object      U;
}
// * * * * * * * * * * * * * * * * * * * * * * * * * * * * * * * * * * * * * //

dimensions      [0 1 -1 0 0 0 0];

internalField   nonuniform List<vector> 
578
(
(-0.0506 -0.061 0)
(-0.0271 -0.095 3.18e-16)
(-0.0759 -0.0905 -1.13e-16)
(0.00562 -0.105 -2.65e-17)
(0.0168 -0.0374 -5.18e-17)
(0.00665 -0.133 -9.8e-17)
(-0.0173 -0.0383 5.15e-17)
(0.0192 -0.0354 -3.08e-20)
(0.0874 -0.129 -2.16e-16)
(-0.0164 -0.0601 4.82e-16)
(0.00811 -0.143 -1.43e-16)
(0.0552 -0.108 0)
(0.0112 -0.124 1.08e-16)
(0.0568 -0.118 -8.34e-16)
(-0.0577 -0.119 4.2e-16)
(0.0983 -0.106 -1e-16)
(-0.0654 -0.0615 4.63e-16)
(-0.106 -0.0907 0)
(0.0507 -0.0989 0)
(0.0949 -0.125 1.53e-16)
(0.00531 -0.117 0)
(0.0777 -0.0975 0)
(0.0454 -0.0412 -5.49e-16)
(0.000124 -0.107 0)
(-0.00164 -0.0861 0)
(0.0484 -0.0982 4.28e-16)
(-0.00523 -0.1 -5.39e-17)
(-0.000444 -0.0506 3.04e-17)
(-0.0237 -0.113 -5.16e-16)
(0.102 -0.111 4.09e-16)
(-0.00173 -0.0865 -5.09e-16)
(0.00627 -0.111 1.07e-16)
(0.111 -0.118 -3.89e-16)
(-0.00197 -0.116 2.08e-16)
(-0.0502 -0.107 -4.15e-16)
(0.0873 -0.0924 -6.28e-16)
(0.0494 -0.105 8.18e-16)
(0.0466 -0.091 0)
(-0.0984 -0.107 -4.05e-16)
(0.0268 -0.0574 0)
(0.0273 -0.0625 -4.21e-16)
(0.032 -0.0578 5.03e-16)
(0.0278 -0.0544 0)
(-0.0516 -0.105 0)
(0.0809 -0.0775 5.36e-17)
(-0.0276 -0.0588 0)
(-0.028 -0.064 4.2e-16)
(0.0795 -0.119 -5.35e-17)
(-0.0975 -0.107 6.05e-16)
(-0.00854 -0.119 -1.13e-16)
(0.00128 -0.0526 1.65e-17)
(0.0173 -0.128 -4.57e-16)
(0.0684 -0.0499 -2.26e-16)
(-0.00238 -0.117 0)
(0.00166 -0.116 3.77e-16)
(-0.0061 -0.14 8.96e-16)
(0.0179 -0.0155 9.17e-16)
(0.0559 -0.0453 -4.47e-16)
(-0.0844 -0.0861 -7.83e-16)
(0.0555 -0.06 2.36e-16)
(-0.1 -0.0974 4.13e-16)
(-0.0576 -0.0408 0)
(-0.0873 -0.0662 6.07e-17)
(0.0513 -0.105 3.89e-16)
(-0.00555 -0.126 1.03e-16)
(-0.0648 -0.12 2.29e-16)
(0.107 -0.123 -4.7e-17)
(0.0142 -0.14 3.38e-16)
(0.113 -0.105 -1.95e-16)
(0.0563 -0.121 4.57e-16)
(0.000468 -0.0917 0)
(0.00203 -0.0923 -1.51e-17)
(0.000244 -0.122 -1.13e-16)
(0.0574 -0.123 0)
(0.00233 -0.154 2.06e-16)
(0.0168 -0.0352 0)
(0.0763 -0.108 2.76e-16)
(0.0624 -0.0878 -2.3e-16)
(0.00704 -0.127 0)
(-0.0498 -0.0539 -1.25e-16)
(0.05 -0.107 -3.9e-16)
(-0.0249 -0.0367 -4.38e-16)
(0.0153 -0.037 -1.99e-16)
(0.0251 -0.0362 2.02e-16)
(-0.103 -0.125 -5.53e-17)
(-0.0206 -0.058 0)
(0.000967 -0.0309 0)
(-0.00578 -0.152 -3.28e-16)
(0.0407 -0.0909 1.58e-20)
(-0.0439 -0.101 3.76e-18)
(-0.00408 -0.109 0)
(-0.0895 -0.114 1.12e-16)
(-0.0412 -0.0927 0)
(0.0176 -0.138 2.01e-16)
(0.104 -0.108 6.15e-16)
(0.0735 -0.0998 -5.32e-16)
(0.000202 -0.117 1.11e-16)
(0.00592 -0.118 -7.95e-16)
(-0.00555 -0.0366 -8.65e-16)
(-0.0569 -0.119 0)
(-0.0613 -0.107 0)
(0.0528 -0.117 -7.26e-16)
(-0.0181 -0.134 0)
(-0.077 -0.0811 0)
(-0.00501 -0.117 0)
(0.056 -0.118 -6.21e-16)
(0.00321 -0.14 -2.17e-16)
(0.0281 -0.0605 0)
(-0.0122 -0.0329 0)
(0.0322 -0.0637 -5.25e-16)
(0.0877 -0.101 -1.68e-16)
(0.0541 -0.115 0)
(0.101 -0.12 4.56e-16)
(0.0843 -0.104 -3.73e-16)
(0.0883 -0.106 3.93e-16)
(-0.0173 -0.128 4.49e-16)
(0.009 -0.118 2.33e-16)
(-0.0687 -0.111 -3.45e-16)
(-0.0386 -0.0873 6.04e-17)
(-0.00582 -0.118 3.92e-16)
(0.0402 -0.0807 -4.1e-16)
(0.0395 -0.0606 2.31e-21)
(0.0547 -0.111 -4.42e-16)
(0.00286 -0.0964 -5.98e-17)
(0.033 -0.0587 0)
(-0.0472 -0.117 4.58e-16)
(0.0337 -0.109 -4.32e-16)
(0.109 -0.11 -2.18e-16)
(-0.0581 -0.124 2.3e-16)
(-0.0394 -0.117 0)
(-0.0576 -0.118 0)
(-0.0465 -0.119 0)
(0.0157 -0.135 0)
(0.0117 -0.0234 4.53e-16)
(-0.0568 -0.121 -4.28e-16)
(-0.0591 -0.0995 0)
(0.0487 -0.0919 0)
(-0.00994 -0.123 -3.85e-16)
(0.0681 -0.105 4.33e-16)
(-0.0503 -0.0989 0)
(-0.0262 -0.0494 5.48e-16)
(-0.0408 -0.117 0)
(-0.0435 -0.0843 0)
(-0.000306 -0.0915 0)
(0.0228 -0.0446 0)
(-0.105 -0.117 9.78e-21)
(-0.0363 -0.0827 4.9e-16)
(-0.00957 -0.0773 0)
(0.0578 -0.121 4.61e-16)
(-0.0393 -0.11 0)
(0.0708 -0.129 0)
(-0.0281 -0.039 0)
(0.0254 -0.0251 0)
(0.0203 -0.0407 5.4e-16)
(-0.0627 -0.126 -4.27e-16)
(-0.00867 -0.105 -2.39e-16)
(-0.0271 -0.127 4.61e-16)
(0.0165 -0.117 -1.06e-16)
(-0.0217 -0.0214 -1.09e-16)
(0.0748 -0.13 -3.64e-16)
(0.0643 -0.119 5.15e-16)
(0.0608 -0.106 5.36e-16)
(-0.0143 -0.0272 -6.9e-18)
(0.0647 -0.115 0)
(-0.000171 -0.0286 3.74e-20)
(-0.0424 -0.104 5.66e-21)
(-0.000352 -0.0519 -5.4e-16)
(-0.0563 -0.109 0)
(0.0111 -0.0792 -1.19e-16)
(-0.00858 -0.146 -1.87e-16)
(0.0623 -0.101 0)
(0.0294 -0.0532 0)
(-0.0354 -0.06 0)
(-0.0204 -0.0409 -5.43e-16)
(-0.0492 -0.0933 0)
(-0.00665 -0.133 -1.06e-16)
(-0.000385 -0.137 -1.07e-16)
(-0.066 -0.105 4e-16)
(0.0386 -0.0649 6.01e-17)
(-0.00314 -0.0935 2.47e-16)
(-0.0302 -0.0544 0)
(-0.051 -0.0923 0)
(-0.0317 -0.0942 0)
(0.00677 -0.134 7.96e-16)
(-0.0706 -0.111 2.91e-16)
(-0.00705 -0.0573 -3.98e-16)
(0.035 -0.0426 -2.02e-16)
(-0.0594 -0.124 1.05e-16)
(-0.0662 -0.13 4.45e-16)
(-0.0016 -0.0538 -5.44e-16)
(0.0647 -0.128 -4.42e-16)
(0.0551 -0.102 0)
(0.0536 -0.0697 5.07e-16)
(-0.0522 -0.0988 0)
(-0.0342 -0.0602 0)
(-0.00219 -0.156 2.03e-16)
(0.00436 -0.0635 1.02e-15)
(-0.00428 -0.0625 -8.16e-16)
(-0.0552 -0.102 0)
(0.0512 -0.0977 0)
(0.00836 -0.0597 -3.92e-16)
(0.0121 -0.14 -1.01e-15)
(0.0197 -0.0623 -2.53e-16)
(-0.00612 -0.151 0)
(-0.00136 -0.144 -3.23e-16)
(0.056 -0.109 0)
(-0.0642 -0.115 0)
(-0.0676 -0.0788 0)
(0.0666 -0.13 4.53e-16)
(-0.0312 -0.0358 0)
(-0.0292 -0.0663 4.98e-16)
(-0.0679 -0.132 -4.36e-16)
(-0.0538 -0.114 -1.43e-17)
(0.00351 -0.149 1.05e-16)
(-0.0472 -0.0956 -2.47e-16)
(0.0024 -0.107 0)
(-0.0602 -0.115 -4.65e-16)
(0.0592 -0.114 4.66e-16)
(-0.064 -0.13 4.5e-16)
(-0.0164 -0.0348 -5.59e-16)
(0.0626 -0.129 2.3e-16)
(-0.0535 -0.104 0)
(0.0348 -0.0725 -4.89e-16)
(0.0331 -0.0621 0)
(-0.0321 -0.06 0)
(-0.0351 -0.0727 9.84e-16)
(0.000101 -0.161 -1.02e-16)
(0.00397 -0.0388 5.97e-20)
(-0.00314 -0.0382 2.13e-16)
(-0.000476 -0.0287 4.32e-16)
(-0.0133 -0.0338 -4.37e-16)
(0.00667 -0.0336 -2.2e-16)
(-0.0117 -0.0235 -4.51e-16)
(0.0339 -0.103 0)
(-0.0344 -0.105 0)
(0.0236 -0.0376 1.54e-16)
(0.0181 -0.0347 0)
(-0.0186 -0.0348 0)
(0.0209 -0.134 1.66e-16)
(0.0289 -0.0659 0)
(-0.0163 -0.0296 0)
(0.0162 -0.0283 0)
(-0.00221 -0.159 -4.15e-16)
(-0.0275 -0.0515 0)
(-0.00211 -0.0333 8.38e-16)
(0.013 -0.026 0)
(-0.0139 -0.0262 -4.36e-16)
(-0.00537 -0.0599 1.01e-15)
(-0.0196 -0.0313 0)
(-0.00322 -0.143 -1.04e-16)
(0.00213 -0.154 1.03e-16)
(-0.0517 -0.119 0)
(0.00963 -0.0977 0)
(0.0105 -0.0299 -4.38e-18)
(0.000907 -0.0273 0)
(0.04 -0.116 4.55e-16)
(-0.000614 -0.0531 5.38e-16)
(-0.0753 -0.132 -6.95e-16)
(0.0195 -0.035 0)
(0.00596 -0.0591 5.4e-16)
(0.0163 -0.0346 5.55e-16)
(-0.0172 -0.0309 4.4e-16)
(0.00122 -0.0333 -8.56e-16)
(0.00174 -0.0589 5.72e-16)
(-0.0458 -0.104 3.55e-16)
(0.0424 -0.0905 8.81e-16)
(0.021 -0.0596 0)
(0.0074 -0.0171 -4.51e-16)
(-0.00132 -0.0301 -4.41e-16)
(0.00334 -0.0138 0)
(-0.00335 -0.0139 0)
(-0.0472 -0.114 -4.44e-16)
(0.0282 -0.0757 0)
(-0.00032 -0.164 -3e-16)
(0.00896 -0.146 -2.21e-16)
(-0.00179 -0.162 -6.04e-16)
(-0.00399 -0.129 2.37e-16)
(-0.00742 -0.0171 0)
(-0.0333 -0.061 0)
(-0.00168 -0.153 -5.3e-16)
(0.0314 -0.0594 0)
(-0.0032 -0.156 9.14e-16)
(0.000692 -0.163 0)
(0.00443 -0.154 -1.03e-16)
(-0.00144 -0.162 2.05e-16)
(-0.0231 -0.045 -5.28e-16)
(0.00993 -0.0198 -8.9e-16)
(-0.00996 -0.0199 4.49e-16)
(-0.000692 -0.0224 0)
(5.63e-05 -0.0514 -5.34e-16)
(0.0338 -0.0981 0)
(-0.0529 -0.118 1.41e-17)
(-0.00631 -0.146 1.87e-16)
(-0.0194 -0.0335 0)
(0.000657 -0.0273 0)
(0.00155 -0.0546 6.62e-17)
(0.0167 -0.0306 -4.4e-16)
(0.0389 -0.116 -1.1e-15)
(-0.000149 -0.0542 1.23e-16)
(0.000498 -0.0551 -4.79e-16)
(-0.00221 -0.141 5.45e-16)
(-0.0344 -0.0998 0)
(8.25e-05 -0.0319 4.27e-16)
(-3.73e-05 -0.0271 0)
(0.00102 -0.0319 0)
(-4.43e-05 -0.0334 8.1e-16)
(0.0386 -0.108 4.5e-16)
(-0.00268 -0.111 -1.07e-15)
(-0.000702 -0.167 -3.97e-16)
(-0.00069 -0.166 0)
(0.0359 -0.0822 2.47e-16)
(-0.00112 -0.164 2.99e-16)
(-0.00053 -0.168 -6.3e-16)
(-0.0285 -0.0764 0)
(-0.00102 -0.161 4.11e-16)
(0.00219 -0.156 4.25e-16)
(-0.0494 -0.11 0)
(-0.0107 -0.0302 0)
(-0.0211 -0.0601 0)
(-0.0015 -0.152 -5.1e-16)
(-0.0425 -0.0897 -4.94e-16)
(0.000229 -0.165 8.22e-16)
(-0.00427 -0.155 1.05e-16)
(0.00067 -0.147 -3.31e-16)
(-0.00714 -0.147 4.21e-16)
(0.000853 -0.16 -1.94e-16)
(-0.0717 -0.131 4.17e-16)
(-0.046 -0.088 0)
(0.0616 -0.125 0)
(0.000376 -0.162 7.62e-16)
(-0.0131 -0.137 1.08e-16)
(-0.0813 -0.129 -1.66e-16)
(-0.000312 -0.167 2.02e-16)
(0.00146 -0.149 -4.17e-16)
(-0.04 -0.0798 7.35e-16)
(-0.000268 -0.16 2.08e-16)
(0.00793 -0.148 -1.92e-16)
(0.00175 -0.147 -4.33e-16)
(-0.000641 -0.111 0)
(-0.00403 -0.131 0)
(0.00331 -0.154 -2.11e-16)
(0.00293 -0.158 3.1e-16)
(-0.00116 -0.165 2.99e-16)
(-0.0011 -0.0964 4.37e-16)
(-0.00027 -0.165 3.02e-16)
(0.0697 -0.0945 -1.24e-16)
(0.0375 -0.111 2.45e-16)
(-0.0115 -0.0268 -4.45e-16)
(0.011 -0.0253 1.13e-16)
(-0.0126 -0.0289 4.39e-16)
(0.0127 -0.0286 0)
(0.0131 -0.0274 4.48e-16)
(-0.0132 -0.0276 2.24e-16)
(-0.00235 -0.147 -2.08e-16)
(0.014 -0.0317 0)
(-0.0143 -0.0331 0)
(5.07e-05 -0.164 -3.02e-16)
(-0.0167 -0.0346 -4.3e-16)
(0.0211 -0.0379 0)
(-0.0211 -0.0386 0)
(-0.00183 -0.16 -3.28e-16)
(-0.0181 -0.0167 0)
(-9.13e-05 -0.165 1.02e-16)
(0.0114 -0.0276 4.98e-16)
(-0.00047 -0.166 -1.05e-16)
(0.000728 -0.137 -4.46e-16)
(-0.00186 -0.163 1.06e-16)
(0.0543 -0.112 4.5e-16)
(0.0107 -0.144 1.85e-16)
(-0.0503 -0.0449 0)
(0.0511 -0.113 0)
(-0.0507 -0.0328 -5.37e-17)
(-0.0784 -0.0791 4.36e-16)
(0.0412 -0.119 -2.25e-16)
(-0.111 -0.122 -2.29e-16)
(0.0501 -0.0305 4.1e-16)
(-0.0122 -0.143 -1.07e-16)
(-0.0222 -0.0511 -5.6e-16)
(0.022 -0.0495 4.01e-16)
(-0.0363 -0.0737 -5.03e-16)
(-0.00138 -0.116 -3.88e-16)
(0.0228 -0.0517 -2.79e-16)
(-0.0231 -0.0523 0)
(0.00479 -0.152 -5.16e-16)
(0.00207 -0.157 3.04e-16)
(-0.00133 -0.147 6.33e-16)
(-0.00268 -0.0295 -5.7e-16)
(-0.0285 -0.0617 5.17e-16)
(-0.0325 -0.0635 0)
(0.0203 -0.048 -3.45e-16)
(0.0047 -0.116 1.92e-16)
(0.0206 -0.117 0)
(0.0133 -0.131 4.47e-16)
(0.0418 -0.103 -2.19e-16)
(-0.115 -0.111 3.86e-16)
(0.0144 -0.0787 2.34e-16)
(0.0928 -0.0665 3.94e-18)
(-9.38e-05 -0.142 5.67e-16)
(0.00749 -0.104 4.86e-16)
(-0.00149 -0.0467 5.61e-16)
(-0.109 -0.114 -7.62e-16)
(0.0017 -0.0499 -5.11e-16)
(-0.00877 -0.0547 2.67e-16)
(-0.0147 -0.114 3.46e-16)
(-0.0152 -0.121 0)
(-0.011 -0.128 0)
(0.105 -0.0876 0)
(-0.0323 -0.0984 7.2e-16)
(0.012 -0.144 -5.35e-16)
(0.0301 -0.127 -4.4e-16)
(-0.0112 -0.112 -9.06e-16)
(-0.0511 -0.115 1.12e-16)
(-0.004 -0.135 7.51e-21)
(-0.04 -0.104 -9.39e-16)
(-0.0462 -0.11 -1.13e-16)
(0.0195 -0.136 1.07e-16)
(0.0456 -0.101 -4.97e-16)
(-0.0463 -0.103 -2.49e-16)
(0.0585 -0.124 0)
(-0.0116 -0.138 1.07e-16)
(-0.0538 -0.119 5.83e-17)
(0.00017 -0.0265 -2.94e-20)
(0.059 -0.122 0)
(-0.0569 -0.118 6.13e-16)
(-0.0514 -0.116 0)
(0.0458 -0.115 -2.33e-16)
(0.0201 -0.0571 6.73e-16)
(-0.0088 -0.128 -5.03e-16)
(0.0115 -0.0318 -4.12e-16)
(0.0453 -0.117 0)
(-0.0944 -0.124 0)
(0.00182 -0.16 -2.05e-16)
(0.0706 -0.0774 -1.18e-16)
(0.0136 -0.12 0)
(-0.0126 -0.0296 -2.17e-16)
(0.0524 -0.117 -2.27e-16)
(0.0449 -0.0988 0)
(-0.0385 -0.124 -4.42e-16)
(0.031 -0.0924 0)
(-0.021 -0.133 4.49e-16)
(-0.035 -0.124 -3.48e-16)
(0.00581 -0.138 0)
(0.0144 -0.122 2.4e-16)
(0.000711 -0.113 0)
(-0.0879 -0.13 0)
(-0.00616 -0.155 4.34e-16)
(-0.000587 -0.0913 -3.78e-16)
(-0.0782 -0.102 -4.43e-16)
(-0.0644 -0.093 6.3e-16)
(0.00103 -0.0261 0)
(-0.0599 -0.123 1.18e-16)
(-0.0132 -0.118 0)
(-0.0526 -0.116 7.21e-22)
(0.0117 -0.117 1.87e-16)
(-0.0618 -0.128 -4.27e-16)
(-0.00231 -0.0947 0)
(-0.00805 -0.0936 -7.84e-18)
(0.0499 -0.0945 2.25e-16)
(0.00073 -0.156 6.56e-16)
(-0.0808 -0.108 0)
(0.0244 -0.0938 4.87e-16)
(-0.0355 -0.0394 2.58e-16)
(-0.0195 -0.138 -1.69e-16)
(0.0207 -0.0549 -3.12e-16)
(-0.0031 -0.16 1.06e-16)
(0.0739 -0.114 -2.17e-20)
(-0.0223 -0.0573 0)
(0.0352 -0.0376 -2.63e-16)
(-0.0159 -0.141 2.24e-16)
(0.0487 -0.109 -6.97e-16)
(0.00103 -0.132 -4.95e-16)
(-0.00178 -0.0272 0)
(-0.0178 -0.0232 0)
(-0.0143 -0.112 2.37e-16)
(-0.00075 -0.146 -4.53e-16)
(0.0516 -0.114 2.2e-16)
(0.0504 -0.117 4.66e-16)
(0.0148 -0.0189 2.17e-16)
(0.0294 -0.0386 1.06e-16)
(0.0694 -0.08 2e-16)
(0.000494 -0.134 0)
(0.00441 -0.156 2.14e-16)
(-0.107 -0.112 -3.32e-16)
(-0.000862 -0.156 -1.03e-15)
(-0.0132 -0.12 1.89e-16)
(0.0385 -0.102 2.43e-16)
(3.72e-05 -0.134 3.51e-16)
(-0.00261 -0.0601 0)
(-0.0207 -0.126 0)
(-0.0782 -0.121 -2.21e-16)
(0.00276 -0.0606 -1.97e-16)
(-0.101 -0.124 5.35e-17)
(0.0463 -0.113 2.78e-17)
(0.024 -0.132 5.76e-17)
(-0.0143 -0.141 -2.21e-16)
(-0.0216 -0.0509 5.45e-16)
(-0.00246 -0.105 2.47e-16)
(-0.0552 -0.12 2.24e-16)
(-0.00862 -0.113 1.85e-16)
(0.00821 -0.114 0)
(0.0577 -0.123 -2.35e-16)
(-0.00777 -0.149 -4.39e-16)
(0.0348 -0.0872 0)
(0.00434 -0.142 6.52e-16)
(-0.0969 -0.106 1.27e-16)
(-0.0219 -0.131 0)
(-0.038 -0.086 2.62e-16)
(0.0134 -0.135 0)
(-0.0368 -0.0902 4.9e-16)
(-0.027 -0.13 0)
(0.00187 -0.112 4.47e-16)
(0.0545 -0.0937 0)
(0.0022 -0.0911 -4.98e-16)
(-0.0396 -0.0924 -2.73e-16)
(-0.0466 -0.103 -6.25e-17)
(0.000436 -0.0542 -5.05e-16)
(0.0563 -0.119 2.39e-16)
(0.0394 -0.0911 0)
(0.00143 -0.104 0)
(0.0285 -0.129 4.57e-16)
(0.000798 -0.145 -3.24e-16)
(0.0383 -0.0732 -3.99e-16)
(-0.00202 -0.159 1.07e-16)
(0.0355 -0.0821 0)
(0.0499 -0.11 2.57e-16)
(0.00244 -0.13 -6.23e-16)
(5.24e-05 -0.106 3.22e-16)
(0.00844 -0.102 -2.54e-16)
(0.0785 -0.107 1.15e-16)
(-0.00675 -0.107 2.56e-16)
(0.0463 -0.0687 0)
(0.061 -0.126 0)
(-0.00343 -0.0543 -4.95e-16)
(0.000724 -0.135 0)
(0.0296 -0.124 5.31e-16)
(-0.0358 -0.053 -2.76e-16)
(0.00142 -0.0853 0)
(-0.0441 -0.0988 -3.18e-16)
(-0.0697 -0.0813 -3.07e-17)
(-0.0163 -0.0976 5.23e-16)
(0.0176 -0.0992 1.25e-19)
(0.0204 -0.127 -2.95e-17)
(0.0371 -0.0544 0)
(0.0407 -0.0922 2.72e-16)
(0.0174 -0.109 0)
(-0.00156 -0.137 -2.34e-16)
(0.000584 -0.105 0)
(-0.0712 -0.102 0)
(0.0927 -0.11 -1.14e-16)
(0.041 -0.0966 2.52e-16)
(0.0957 -0.0884 3.2e-17)
(-0.0594 -0.12 -1.3e-16)
(0.0493 -0.113 -2.24e-16)
(-0.0759 -0.109 1.17e-16)
(0.0667 -0.0921 -1.29e-16)
(-0.00867 -0.151 -1.09e-16)
(0.0804 -0.128 -2.95e-16)
(-0.00105 -0.158 1.25e-16)
(0.00198 -0.133 1.24e-16)
(-0.0172 -0.135 6.51e-17)
(-0.0203 -0.136 0)
(-0.0449 -0.07 0)
(0.0356 -0.0803 -5.76e-16)
(-0.0286 -0.125 0)
(0.0295 -0.125 -2.42e-16)
(0.00133 -0.126 0)
(0.0201 -0.125 2.45e-16)
(-0.0138 -0.141 1.64e-16)
(-0.0303 -0.126 -2.64e-16)
(0.0295 -0.126 -2.63e-16)
(-0.0532 -0.117 2.43e-16)
(-0.0813 -0.102 0)
(0.0815 -0.0739 -1.82e-16)
(-0.0138 -0.131 -5.16e-16)
(-0.099 -0.109 1.27e-16)
(0.00108 -0.128 0)
(-0.0969 -0.114 2.64e-16)
(-0.0826 -0.0926 0)
)
;

boundaryField
{
    front
    {
        type            empty;
    }
    back
    {
        type            empty;
    }
    bottom
    {
        type            zeroGradient;
    }
    left
    {
        type            noSlip;
    }
    top
    {
        type            uniformFixedValue;
        uniformValue    
        {
            type            table;
            format          csv;
            file            "inlet_v.csv";
            nHeaderLine     1;
            refColumn       0;
            componentColumns List<label> 3(1 2 3);
            separator       ",";
            mergeSeparators 0;
        }
        value           uniform (0 -0.115 0);
    }
    right
    {
        type            noSlip;
    }
    inner_arc
    {
        type            noSlip;
    }
}


// ************************************************************************* //
