/*--------------------------------*- C++ -*----------------------------------*\
  =========                 |
  \\      /  F ield         | OpenFOAM: The Open Source CFD Toolbox
   \\    /   O peration     | Website:  https://openfoam.org
    \\  /    A nd           | Version:  9
     \\/     M anipulation  |
\*---------------------------------------------------------------------------*/
FoamFile
{
    format      ascii;
    class       surfaceScalarField;
    location    "2.03";
    object      phi;
}
// * * * * * * * * * * * * * * * * * * * * * * * * * * * * * * * * * * * * * //

dimensions      [0 3 -1 0 0 0 0];

internalField   nonuniform List<scalar> 
1363
(
-1.14612e-06
8.34276e-07
3.11844e-07
-7.88791e-07
8.03834e-07
-1.5043e-08
1.12254e-06
-9.69976e-07
-1.5256e-07
-5.12678e-07
1.12901e-06
-6.16331e-07
1.15759e-06
-3.50569e-08
7.46668e-07
-2.07806e-08
-7.25887e-07
-5.72373e-07
5.72373e-07
6.6128e-07
8.53872e-08
-8.27279e-07
7.39265e-07
8.80139e-08
-7.41745e-08
-7.53104e-07
-4.71633e-07
3.37409e-07
1.34224e-07
8.11658e-07
-1.0118e-06
2.00138e-07
7.45469e-07
-1.25815e-06
-7.57045e-07
6.88838e-07
6.82077e-08
1.78409e-07
6.33249e-07
-7.58805e-07
-2.99861e-08
3.37408e-07
8.9848e-07
-1.23589e-06
-4.98957e-07
-6.47164e-07
-1.35713e-06
1.57413e-07
1.19972e-06
3.97861e-07
-3.97861e-07
8.77942e-07
-5.40534e-07
-3.51273e-07
-6.60524e-07
-6.51425e-07
-6.49562e-08
7.16381e-07
9.06901e-08
-6.98203e-07
6.07512e-07
-3.41568e-07
-1.30065e-07
-4.03303e-07
4.93993e-07
9.14629e-07
-9.93175e-07
7.85463e-08
-8.19647e-07
1.68222e-07
6.74318e-07
-1.0097e-06
3.35379e-07
8.0563e-08
-1.04206e-06
9.61493e-07
4.69716e-07
-1.91148e-07
-2.78568e-07
-3.04578e-08
9.45087e-07
-1.48571e-07
8.22889e-07
7.87096e-08
1.99064e-07
-2.77774e-07
1.00704e-06
-1.08645e-06
7.94101e-08
5.75692e-08
6.37625e-07
-6.95194e-07
-1.18542e-06
5.6644e-07
6.18978e-07
8.19424e-07
-1.70185e-07
-6.4924e-07
-5.95071e-07
-5.90347e-07
-5.28976e-08
-6.45305e-07
-6.99147e-07
4.11352e-07
2.87795e-07
1.04935e-06
-8.54053e-07
-1.95295e-07
7.47223e-07
-8.00121e-07
-9.71262e-08
-4.75247e-07
3.54868e-07
2.17506e-07
-1.05298e-06
-1.35854e-07
1.18884e-06
4.91548e-07
3.38599e-07
-8.30146e-07
-1.07592e-07
1.86302e-07
-1.54283e-07
-5.44864e-07
-3.72122e-07
-3.84924e-07
-9.7516e-07
-3.81971e-07
6.1972e-07
-6.84676e-07
7.05382e-07
-6.47812e-07
-6.68295e-07
3.19162e-07
3.49134e-07
9.30234e-07
-1.00441e-06
-4.51539e-08
7.22919e-07
-6.77765e-07
5.38631e-07
-5.38631e-07
-3.64897e-08
9.66723e-07
4.31055e-07
1.07576e-07
3.2719e-07
5.57405e-07
-8.84595e-07
-6.79492e-07
7.60055e-07
1.00305e-06
-1.06196e-06
5.89143e-08
4.78731e-07
-2.79667e-07
-1.05571e-07
9.39847e-07
7.50152e-07
6.92723e-08
7.62168e-07
-5.63475e-07
-1.98693e-07
9.8754e-09
-1.57439e-07
5.98956e-07
-4.41517e-07
-7.43824e-07
6.9867e-07
6.98255e-07
-5.37107e-07
-1.61148e-07
5.33922e-07
2.69912e-07
-6.65235e-07
5.87181e-07
7.80535e-08
4.65294e-07
-4.65294e-07
-2.34083e-07
-8.07973e-07
-5.97621e-07
-7.06743e-08
1.9546e-07
2.02401e-07
-3.57142e-07
-4.07186e-08
-5.49262e-08
3.43391e-07
1.26325e-07
-7.09475e-07
-4.93297e-08
-5.11152e-09
3.47216e-07
-3.42104e-07
-5.94451e-07
-1.73231e-07
7.10346e-08
1.02196e-07
5.26926e-08
-6.77718e-07
1.14243e-07
-1.02614e-06
1.01091e-06
1.52269e-08
7.00255e-07
-3.73065e-07
5.83513e-07
1.06331e-07
-6.89844e-07
2.03909e-08
6.68447e-07
-1.23097e-07
-5.01341e-08
6.25083e-07
4.24265e-07
6.65039e-07
3.96074e-08
-7.04646e-07
-1.02939e-06
9.92903e-07
3.98584e-08
6.83061e-07
3.84961e-08
-7.16261e-07
-3.59713e-07
8.42286e-08
2.75485e-07
6.13377e-08
-9.1539e-07
-1.00885e-07
6.84398e-07
-4.4811e-07
4.42999e-07
7.06598e-08
6.10186e-07
6.13138e-10
-6.10799e-07
1.17328e-07
-1.14672e-06
-4.83612e-07
6.01129e-07
-8.33592e-07
8.72088e-07
1.30791e-07
6.29264e-07
1.44267e-07
-1.19725e-06
-1.21513e-07
-1.04611e-06
1.16763e-06
1.03335e-07
-2.60774e-07
2.69971e-07
3.28985e-07
-1.45746e-08
-7.29249e-07
-4.11675e-08
7.39838e-07
2.58738e-07
-3.12856e-07
-3.52379e-07
-1.46061e-07
4.8347e-07
6.65039e-07
6.74624e-07
-1.1066e-06
4.31976e-07
7.78867e-07
3.50142e-07
-4.83225e-07
5.53885e-07
-8.97092e-08
-9.55132e-07
1.04484e-06
-5.53885e-07
6.84676e-07
7.00713e-07
-3.02115e-08
-6.70501e-07
7.47223e-07
4.35308e-07
-4.12601e-07
3.82771e-07
-3.93793e-08
6.1972e-07
-9.48692e-07
8.00121e-07
9.48692e-07
-8.07067e-07
-1.41625e-07
7.05382e-07
9.05443e-07
-7.48029e-07
-9.05443e-07
1.06443e-06
-1.58991e-07
7.48029e-07
-4.09431e-07
3.61246e-08
-1.43717e-07
-3.61246e-08
1.39459e-07
-1.06443e-06
9.2858e-07
-6.7517e-07
6.60596e-07
4.09431e-07
-1.39459e-07
6.19428e-07
-6.60596e-07
-6.19428e-07
4.65145e-07
1.43717e-07
-4.65145e-07
3.21428e-07
-9.2858e-07
8.07067e-07
9.33362e-07
1.19511e-08
3.7082e-07
6.4195e-07
1.93305e-08
1.77584e-07
7.56847e-08
-6.12792e-07
1.44785e-07
4.42396e-07
1.31133e-07
-8.36605e-07
7.05472e-07
-2.75255e-07
-7.5088e-07
9.96932e-08
5.42257e-07
1.70412e-07
-8.11911e-07
6.41499e-07
1.08302e-06
-1.04341e-06
-4.85531e-07
5.10706e-07
-2.51754e-08
-1.06742e-06
-1.903e-08
1.158e-07
-7.10871e-07
-5.45022e-07
-1.32697e-07
-5.76052e-08
3.22781e-07
-2.65176e-07
-5.49195e-07
-1.64253e-07
-6.00626e-07
5.56046e-08
8.53737e-07
-7.37938e-07
-1.22141e-06
6.05075e-07
6.27261e-07
4.80527e-08
-6.75314e-07
7.22086e-07
-5.51674e-07
1.41283e-08
-8.94639e-07
8.80511e-07
2.06662e-07
4.03523e-07
7.60748e-07
-1.59619e-07
1.42724e-07
-5.01161e-07
-7.44723e-08
1.94974e-07
-2.85364e-08
-1.90383e-07
2.25529e-07
7.85379e-07
-8.02497e-07
6.01806e-07
2.0069e-07
-1.08053e-07
1.92281e-07
-3.03907e-07
-4.98589e-07
6.19651e-07
-5.79792e-07
-8.7544e-07
6.57627e-07
2.17813e-07
-5.08491e-07
2.29608e-08
-6.55238e-07
-3.54459e-07
6.97574e-07
-2.73633e-07
-7.3304e-07
-4.16867e-07
-5.59869e-07
-7.27875e-07
1.28774e-06
-7.09528e-07
-1.12564e-07
8.22092e-07
8.68118e-07
-1.14337e-06
8.78783e-07
-2.21156e-07
1.08618e-06
-1.06908e-06
-1.70987e-08
7.03103e-07
1.7568e-07
-8.55922e-07
6.6554e-07
2.66108e-07
-5.44676e-07
4.56286e-08
-7.55157e-07
1.18374e-06
-4.38269e-07
6.92102e-07
-6.51347e-07
-4.07547e-08
-4.36548e-08
4.55006e-07
-7.57115e-07
7.57115e-07
-4.83225e-07
4.21108e-07
7.6263e-07
-4.66359e-07
5.11988e-07
1.0412e-06
4.32201e-07
8.78035e-07
-7.44798e-07
-1.07004e-06
9.57476e-07
-9.89133e-09
-6.30552e-08
-5.47865e-07
9.68973e-07
-4.26409e-07
9.47486e-07
-5.21077e-07
-1.18029e-06
1.23921e-06
-4.54408e-07
-3.77883e-07
9.93892e-07
-6.16009e-07
-2.43879e-07
1.112e-06
9.86851e-07
-5.18168e-07
-4.68683e-07
-6.82466e-07
3.11187e-08
-5.20147e-07
-1.62319e-07
-7.23907e-07
9.72921e-07
-2.49014e-07
7.10288e-07
-1.08817e-06
-1.64959e-07
8.68062e-07
9.56694e-07
-5.6672e-07
-3.89974e-07
4.00835e-07
-4.00835e-07
5.705e-07
-5.705e-07
9.28744e-08
-1.27317e-06
-7.64667e-07
9.51665e-07
-1.86998e-07
2.65049e-07
3.10261e-07
-5.7531e-07
3.03559e-07
-7.20426e-07
-9.25908e-07
-1.44131e-07
5.91082e-07
-5.91082e-07
-3.84089e-07
3.84089e-07
2.69985e-07
4.52416e-07
-1.00028e-06
7.3398e-07
2.52871e-07
2.08254e-07
5.31157e-07
-6.9131e-07
1.71163e-07
-3.81048e-07
2.90986e-07
4.69762e-07
-1.49093e-07
-7.72742e-07
9.21835e-07
6.99981e-07
-4.9929e-07
-5.62443e-07
7.80256e-07
-4.95163e-07
-8.02573e-07
-1.24408e-07
9.2698e-07
3.40685e-07
3.68838e-07
1.17906e-06
4.76886e-07
4.01149e-07
7.17293e-09
-1.07626e-06
-6.19108e-07
7.94787e-07
4.02252e-07
-9.37701e-07
1.09667e-07
7.58395e-07
-2.61038e-07
-5.88534e-07
8.49572e-07
1.37538e-07
-1.02213e-06
7.73117e-07
5.54162e-07
-8.152e-07
-1.19376e-06
-6.35168e-07
7.44835e-07
-9.01432e-07
7.77024e-07
6.36109e-08
7.99913e-07
-8.63524e-07
-2.41117e-07
8.2668e-07
1.003e-07
1.03307e-06
-2.06391e-07
-1.06684e-06
1.30034e-06
-2.33503e-07
7.64681e-07
1.15318e-07
1.12389e-06
-9.88964e-07
-3.61815e-07
9.15976e-07
-6.98152e-07
-7.44685e-08
7.72621e-07
-8.91542e-07
8.74444e-07
-2.80926e-08
6.47812e-07
6.98924e-07
-6.12991e-08
6.78062e-07
-7.06154e-07
-7.41478e-07
4.33256e-08
1.00772e-06
-8.28453e-07
-1.79265e-07
-1.25442e-06
7.05222e-07
-7.79041e-09
7.5854e-07
-7.50749e-07
-8.41568e-07
8.33777e-07
6.95549e-07
4.92865e-08
7.5916e-07
8.46015e-07
1.61704e-07
5.02289e-07
2.62393e-07
-9.49382e-07
5.87567e-07
-9.82119e-08
8.39222e-07
-7.4101e-07
-6.17666e-07
5.43197e-07
-1.24728e-06
8.44255e-07
4.03026e-07
9.85614e-07
-1.08068e-06
9.50708e-08
-2.68803e-07
1.76081e-07
-1.25677e-06
-6.01491e-07
1.30671e-06
1.32777e-06
-7.53746e-07
-5.74022e-07
1.70621e-08
-1.41579e-06
5.928e-07
8.22989e-07
-9.38618e-07
7.391e-07
1.99519e-07
7.26503e-07
6.01265e-07
8.16706e-07
1.05129e-07
-9.32369e-07
6.56541e-07
2.75828e-07
4.4537e-07
-4.4537e-07
2.02401e-07
-7.04646e-07
-4.75247e-07
-1.22886e-07
1.22886e-07
-3.91887e-07
3.91887e-07
4.35308e-07
7.72731e-07
-9.16953e-07
1.44222e-07
-6.4816e-07
6.4816e-07
-3.78643e-07
3.78643e-07
4.31055e-07
4.31414e-08
-4.31414e-08
-4.45666e-07
4.45666e-07
-3.57142e-07
6.74843e-07
-6.74843e-07
3.54868e-07
-4.12601e-07
6.77628e-07
-1.7534e-07
5.61994e-07
1.81748e-07
-7.43742e-07
3.85723e-07
-3.85723e-07
8.00948e-07
-8.9916e-07
-9.47997e-07
7.52701e-07
4.13416e-07
-4.13416e-07
-1.18209e-06
3.53634e-07
8.45761e-07
-1.04662e-06
2.00861e-07
-1.40636e-07
-7.48909e-07
8.89545e-07
-5.0694e-07
-9.0885e-07
-8.54518e-07
7.13883e-07
-7.47322e-07
-4.34765e-07
-3.275e-07
-6.11119e-07
6.66969e-07
-1.51209e-06
8.45118e-07
-5.80311e-07
6.7517e-07
1.418e-06
-6.91501e-07
4.63898e-07
-6.66657e-07
2.02759e-07
-3.07286e-07
1.32763e-06
-6.75823e-07
-6.51811e-07
-1.42023e-06
8.1874e-07
1.19789e-06
-1.38613e-06
6.56006e-07
7.30123e-07
-1.75266e-07
-4.16548e-08
1.05782e-06
-1.32663e-06
1.25664e-06
-1.08055e-06
-1.16005e-07
1.32217e-06
-8.81522e-07
-4.40652e-07
-7.42181e-07
-7.69906e-07
-6.6041e-07
-1.94109e-07
-1.33998e-06
5.86236e-07
-5.33986e-08
7.12723e-07
-1.28085e-06
5.68128e-07
8.45807e-07
-3.81909e-07
1.33458e-06
-7.41778e-07
5.55808e-07
3.04842e-07
-8.6065e-07
-3.11362e-07
1.05094e-06
-7.39581e-07
-1.35512e-08
1.18639e-06
-4.47293e-07
-6.15698e-07
-4.23901e-07
1.0396e-06
3.92972e-07
-9.15646e-07
5.22674e-07
9.93995e-07
-3.37455e-07
-2.84085e-07
-3.82572e-07
5.87919e-07
9.93998e-07
-2.41297e-07
-1.31399e-06
6.62178e-07
-3.62407e-07
-5.67389e-07
8.618e-07
-8.75352e-07
-6.99928e-08
2.41619e-07
6.79452e-07
6.2724e-07
-9.38602e-07
-6.83976e-07
4.53057e-07
7.9927e-07
2.20097e-07
-1.11139e-06
8.91295e-07
-1.80659e-07
8.74739e-07
-6.9408e-07
9.88287e-07
-5.95315e-07
7.57535e-07
-9.32801e-07
4.35244e-07
-3.59838e-07
6.66496e-07
-1.16865e-06
7.33884e-07
1.71326e-08
-6.94615e-07
6.86712e-07
7.26619e-07
-1.15052e-06
-6.62328e-07
9.6717e-07
-1.27654e-06
5.34758e-07
-1.0777e-06
6.30408e-07
8.8462e-07
-2.28201e-08
8.31222e-07
-7.11703e-07
-2.53851e-07
9.65554e-07
-9.81248e-07
8.01983e-07
-9.53e-07
-6.20888e-07
-2.39761e-07
-9.89938e-07
6.52483e-07
6.18611e-07
1.37259e-07
-8.86168e-07
-4.11205e-07
-5.97083e-07
-5.0647e-07
4.78244e-07
8.73904e-07
3.87473e-07
-1.26138e-06
1.02383e-06
-8.03732e-07
9.25497e-07
-4.90253e-07
1.32696e-06
7.23918e-07
3.15681e-07
-3.30278e-07
6.41236e-07
-3.10958e-07
-1.21997e-06
1.14997e-06
1.95465e-07
-3.03226e-07
6.37015e-07
-1.29665e-06
7.2926e-07
-2.72088e-07
1.16338e-06
8.10957e-07
-5.44637e-07
1.11276e-06
-4.60932e-07
-3.43941e-07
8.04873e-07
7.95542e-07
-9.11547e-07
4.70721e-07
-1.16534e-06
-2.97295e-07
4.47894e-07
-1.50599e-07
1.47966e-07
-1.00557e-06
-2.47365e-07
6.06294e-07
9.04359e-07
-9.19402e-07
-8.03255e-08
-1.05487e-06
1.29649e-06
-1.3021e-06
9.3969e-07
-3.85047e-07
-5.34848e-07
-8.28623e-07
8.00662e-07
2.79613e-08
1.12211e-07
7.65263e-08
-7.27525e-07
6.14304e-07
1.1322e-07
-1.52124e-07
3.56958e-07
-1.09172e-06
7.34764e-07
-1.12036e-06
5.2328e-07
8.05278e-07
-3.29511e-09
-3.87388e-07
1.02434e-06
-3.71855e-07
6.03228e-07
-9.85137e-07
-4.89955e-07
1.73912e-08
9.17006e-07
8.22669e-07
-1.24608e-06
5.62108e-07
-7.3082e-07
6.13133e-07
6.68126e-07
-9.15491e-07
-5.16824e-07
-1.05221e-07
7.19526e-07
-5.93153e-07
5.54962e-07
3.81917e-08
3.09197e-07
4.95676e-07
-4.79933e-07
-6.33451e-07
-6.26937e-08
3.97809e-07
7.73957e-07
-8.54283e-07
1.17131e-07
3.30764e-07
7.17448e-07
-6.40266e-08
-6.88901e-07
7.52928e-07
4.54135e-07
-7.3822e-07
-7.59205e-07
1.70671e-07
5.31002e-07
-1.04783e-06
1.47533e-07
7.56826e-07
2.80511e-07
-9.62537e-07
6.82026e-07
-6.07565e-09
-9.13326e-07
1.25015e-06
-2.28889e-08
7.40337e-07
-1.0044e-07
-6.43302e-07
7.77773e-07
-1.08677e-07
6.63638e-07
-7.89313e-07
6.88873e-07
-7.07329e-07
-9.44189e-07
8.00282e-07
-5.19771e-07
-7.60193e-07
-1.09631e-06
3.30078e-08
-1.10239e-06
1.02586e-06
1.3752e-07
-6.12806e-07
5.50113e-07
-6.39728e-07
-1.19477e-07
-3.13062e-07
7.01798e-08
-7.2038e-07
8.8872e-08
-5.70333e-07
7.41004e-07
3.88066e-07
-6.29183e-07
-6.43857e-07
-1.45456e-07
-1.18658e-06
1.67719e-07
7.72129e-07
6.10849e-07
-9.34576e-07
8.41045e-09
5.75675e-07
2.24607e-07
-1.87244e-07
7.70898e-07
6.4705e-07
-1.36512e-07
-5.10538e-07
4.59806e-07
1.3117e-07
-3.34021e-07
8.84105e-07
-5.50084e-07
7.06845e-07
1.09565e-06
8.34013e-08
-7.15069e-07
3.89679e-07
-5.89147e-08
1.21097e-06
4.59858e-07
3.80888e-07
-7.29448e-07
2.55263e-07
4.85741e-07
-9.1253e-07
-1.63725e-07
-4.0867e-07
-2.20513e-07
7.31051e-07
-5.06444e-07
-7.93717e-07
-1.05053e-06
1.37995e-07
4.20099e-07
5.27387e-07
9.54252e-07
-6.13567e-07
9.05562e-07
-3.16545e-07
-8.66629e-07
1.17099e-06
-1.03299e-06
1.55979e-08
-7.77711e-07
7.14358e-07
6.33527e-08
-9.38303e-07
-2.29726e-07
5.57785e-07
5.63632e-07
-9.50604e-07
-6.80618e-07
-2.19291e-07
-6.30275e-07
8.72515e-07
-7.72254e-07
7.16099e-07
5.03904e-07
-2.71629e-07
-3.21711e-07
-1.84559e-07
-2.47894e-07
5.32137e-07
3.92108e-07
-1.50227e-07
-2.85883e-07
-6.25322e-07
4.89706e-07
1.35615e-07
-9.06634e-07
-4.00245e-07
9.17474e-07
-5.15222e-07
2.09219e-07
4.19268e-07
-1.93235e-07
-3.4414e-07
-8.09829e-07
-4.25135e-07
2.75482e-07
3.53004e-07
3.72528e-07
-8.78971e-07
3.57293e-07
-4.2119e-07
-9.01904e-07
7.62424e-07
1.15518e-07
-1.13636e-06
-5.06269e-07
-3.98121e-07
-4.8941e-07
-1.35911e-07
8.25136e-07
-7.72944e-08
-8.77837e-07
-9.62656e-07
9.40836e-07
7.41356e-07
-4.79118e-07
-5.46825e-07
-1.21007e-06
-4.09984e-07
-9.84544e-07
-1.25002e-08
-2.00666e-07
5.19828e-07
2.63333e-07
-4.33518e-07
-7.387e-07
-3.44485e-07
-1.94146e-07
-3.32869e-07
-2.13956e-07
-1.82012e-07
-7.53838e-07
-1.47594e-07
-4.93051e-07
2.65245e-08
5.07398e-07
4.54614e-07
-8.78421e-07
3.79832e-07
-7.96863e-07
-5.55635e-07
1.15188e-06
-5.96242e-07
-3.99562e-07
-4.47537e-07
-3.73588e-07
-5.84149e-08
-6.02109e-07
-5.47825e-07
-3.99562e-07
-5.21128e-07
8.97933e-07
-1.35508e-07
7.94357e-08
-4.46623e-07
1.16692e-06
-7.3494e-07
7.83351e-07
-4.70289e-07
-2.67932e-07
1.20244e-06
3.70764e-07
-1.00822e-06
3.34441e-07
6.73777e-07
-4.77622e-07
-5.05307e-07
-6.16111e-07
-1.14082e-06
-4.75254e-07
-3.62455e-08
5.14976e-07
1.28784e-06
7.71168e-07
6.80541e-08
5.90266e-07
-1.97657e-08
6.07047e-07
-6.00958e-07
3.83476e-07
1.73589e-08
6.00958e-07
-3.83476e-07
5.54634e-07
5.90266e-07
4.45647e-07
-7.96551e-07
1.85433e-07
1.10718e-06
-8.5431e-07
8.19839e-07
-5.52477e-07
-9.56833e-08
4.84269e-07
-9.85464e-08
-5.1851e-08
9.43483e-08
-6.8086e-07
-2.37859e-08
-5.52477e-07
2.51499e-07
-1.28613e-07
-4.11966e-07
2.0079e-08
6.62289e-07
-3.77828e-07
-8.14316e-10
5.1851e-08
-8.70964e-09
-9.43483e-08
5.12069e-08
6.8086e-07
-6.01716e-09
-6.62289e-07
-1.25543e-08
3.77828e-07
-2.51499e-07
4.84269e-07
-4.11966e-07
2.3293e-07
-5.17577e-07
-1.03925e-06
-5.96182e-07
9.93991e-07
-4.04885e-07
7.75649e-07
9.21164e-08
3.92635e-07
7.41895e-08
9.68932e-07
-3.03377e-07
1.15628e-09
-9.6922e-07
3.92635e-07
6.57355e-07
-8.19058e-07
-9.60081e-07
8.0109e-07
7.18304e-07
3.97613e-07
-5.72652e-09
-3.97613e-07
-5.09892e-07
5.19128e-07
-9.23625e-09
-9.86144e-07
2.39637e-07
4.85901e-07
-6.38461e-07
9.39516e-07
5.71774e-07
-1.3019e-06
-2.91904e-07
1.41305e-07
2.84227e-08
-3.73812e-07
6.46009e-07
1.07556e-07
-5.55667e-07
7.63786e-07
-1.09162e-06
-6.05493e-07
6.05493e-07
-7.96738e-07
-5.10109e-07
-5.83811e-07
6.46009e-07
5.86494e-07
-7.89525e-07
6.72172e-07
-3.21876e-07
-5.72763e-07
4.32447e-07
-7.48128e-07
1.05592e-06
-6.15267e-07
2.98358e-07
-2.98358e-07
3.78162e-07
-5.83089e-07
-2.19892e-07
2.19892e-07
5.56448e-07
-5.56448e-07
-6.36914e-07
1.42503e-08
-1.75689e-07
6.95779e-07
-5.1606e-08
-6.44173e-07
5.28344e-07
-5.28344e-07
3.47216e-07
2.2886e-07
6.51651e-07
3.22781e-07
-7.70646e-07
4.83439e-08
1.43937e-07
9.95508e-08
-4.37393e-07
-7.09264e-07
3.68902e-07
1.51866e-08
-4.59755e-07
-1.51044e-07
4.49748e-07
-1.79836e-07
1.01671e-07
3.48077e-07
-1.00891e-06
-1.27452e-07
-3.39895e-07
-3.85992e-07
-8.16427e-07
2.20245e-07
-3.44485e-07
-1.56482e-07
2.58678e-07
1.74441e-07
-3.2197e-07
-3.09755e-07
3.09755e-07
9.19375e-09
5.34004e-07
-9.93005e-07
-3.42104e-07
2.55472e-07
-2.55472e-07
-1.04397e-06
7.24201e-07
-2.01002e-07
-3.05267e-07
-5.20723e-07
8.35442e-08
6.15445e-07
-6.98989e-07
4.2473e-07
-4.07907e-08
-3.83939e-07
-2.65176e-07
7.88293e-08
4.16004e-07
-6.17006e-07
9.05695e-07
-1.73191e-07
1.73191e-07
-1.29984e-07
8.15489e-07
-1.95838e-07
7.92851e-07
-7.24797e-07
5.0081e-07
-6.88594e-07
6.09508e-08
2.94746e-07
7.86625e-07
-7.03081e-07
1.08475e-06
6.16209e-07
4.9331e-08
3.06602e-08
-5.05914e-07
3.30029e-07
-1.03375e-07
-7.65893e-07
2.7193e-08
-3.68902e-07
5.62336e-07
-6.62003e-08
7.8443e-07
9.92393e-08
4.63097e-07
5.67197e-08
7.27711e-07
4.78543e-07
8.21459e-07
2.92296e-07
7.16561e-07
-6.74388e-08
1.97142e-08
-7.30585e-07
6.73865e-07
4.52192e-07
-2.55102e-08
4.33375e-07
7.86135e-08
-4.07071e-08
5.02284e-07
-4.93873e-07
5.77782e-07
-3.65386e-08
2.05966e-08
-1.83631e-07
4.93047e-07
4.1871e-07
-3.64995e-07
7.15137e-07
1.39682e-07
-5.19049e-07
1.0227e-08
8.59341e-07
-6.39097e-07
8.53324e-07
-5.17648e-07
4.13955e-07
7.76403e-07
-4.81888e-07
-8.62528e-07
8.72038e-08
-2.9784e-07
2.17943e-07
7.71491e-08
-4.08642e-07
4.5737e-07
-5.88437e-08
-3.96161e-07
-5.74521e-07
6.01714e-07
9.19846e-08
-1.31326e-07
)
;

boundaryField
{
    back
    {
        type            empty;
        value           nonuniform List<scalar> 0();
    }
    front
    {
        type            empty;
        value           nonuniform List<scalar> 0();
    }
    top
    {
        type            calculated;
        value           nonuniform List<scalar> 10(-1.12142e-06 -1.22e-06 -9.24245e-07 -6.28487e-07 -6.28487e-07 -9.24245e-07 -1.12142e-06 -2.34142e-07 -2.34142e-07 -1.22e-06);
    }
    outer_arc
    {
        type            calculated;
        value           uniform 0;
    }
    bottom
    {
        type            calculated;
        value           nonuniform List<scalar> 10(1.16803e-06 8.49566e-07 5.9334e-07 4.32453e-07 4.3611e-07 1.30688e-06 5.37375e-07 1.23496e-06 7.32137e-07 9.65737e-07);
    }
    inner_arc
    {
        type            calculated;
        value           uniform 0;
    }
}


// ************************************************************************* //
