/*--------------------------------*- C++ -*----------------------------------*\
  =========                 |
  \\      /  F ield         | OpenFOAM: The Open Source CFD Toolbox
   \\    /   O peration     | Website:  https://openfoam.org
    \\  /    A nd           | Version:  9
     \\/     M anipulation  |
\*---------------------------------------------------------------------------*/
FoamFile
{
    format      ascii;
    class       volVectorField;
    location    "0.52";
    object      U;
}
// * * * * * * * * * * * * * * * * * * * * * * * * * * * * * * * * * * * * * //

dimensions      [0 1 -1 0 0 0 0];

internalField   nonuniform List<vector> 
578
(
(-0.0361 -0.0429 0)
(-0.0193 -0.0651 3.21e-16)
(-0.0542 -0.0639 -1.14e-16)
(0.00359 -0.0708 -2.72e-17)
(0.0119 -0.0262 -5.11e-17)
(0.00452 -0.0929 -1.01e-16)
(-0.0123 -0.0268 5.09e-17)
(0.0132 -0.0243 -2.13e-20)
(0.0597 -0.09 -2.22e-16)
(-0.0114 -0.0406 4.76e-16)
(0.00576 -0.101 -1.5e-16)
(0.0385 -0.075 0)
(0.00933 -0.0872 1.11e-16)
(0.0394 -0.0822 -8.6e-16)
(-0.0401 -0.0833 4.33e-16)
(0.0701 -0.0751 -1.04e-16)
(-0.0455 -0.0414 4.64e-16)
(-0.0732 -0.0622 0)
(0.0353 -0.0685 0)
(0.0653 -0.0879 1.6e-16)
(0.00326 -0.0799 0)
(0.0557 -0.0689 0)
(0.0308 -0.0274 -5.51e-16)
(0.000201 -0.0737 0)
(-0.00107 -0.0585 0)
(0.0336 -0.0682 4.38e-16)
(-0.00331 -0.0677 -5.52e-17)
(-0.000256 -0.0336 2.97e-17)
(-0.0169 -0.0781 -5.29e-16)
(0.0722 -0.0781 4.25e-16)
(-0.00102 -0.0581 -5.09e-16)
(0.00427 -0.0764 1.09e-16)
(0.0771 -0.083 -4.09e-16)
(-0.00121 -0.0795 2.15e-16)
(-0.0352 -0.0749 -4.28e-16)
(0.0617 -0.0652 -6.44e-16)
(0.0345 -0.0734 8.42e-16)
(0.0325 -0.0631 0)
(-0.0697 -0.0757 -4.22e-16)
(0.0189 -0.0403 0)
(0.0193 -0.0438 -4.17e-16)
(0.0221 -0.0398 5.01e-16)
(0.0193 -0.0376 0)
(-0.0357 -0.0733 0)
(0.0542 -0.0528 5.48e-17)
(-0.0195 -0.0413 0)
(-0.0198 -0.045 4.17e-16)
(0.054 -0.0826 -5.5e-17)
(-0.0694 -0.0756 6.29e-16)
(-0.00569 -0.0806 -1.16e-16)
(0.000761 -0.0351 1.63e-17)
(0.0138 -0.0901 -4.67e-16)
(0.046 -0.0329 -2.27e-16)
(-0.00143 -0.0805 0)
(0.0015 -0.0811 3.81e-16)
(-0.00426 -0.0976 9.24e-16)
(0.0119 -0.0104 8.82e-16)
(0.0363 -0.0301 -4.48e-16)
(-0.0599 -0.0594 -8.07e-16)
(0.0395 -0.0424 2.35e-16)
(-0.0707 -0.0674 4.25e-16)
(-0.0381 -0.0267 0)
(-0.0576 -0.0443 6.11e-17)
(0.0354 -0.0732 4e-16)
(-0.00462 -0.0892 1.06e-16)
(-0.0445 -0.0838 2.36e-16)
(0.0734 -0.0857 -4.92e-17)
(0.0102 -0.0979 3.52e-16)
(0.0787 -0.0737 -2.02e-16)
(0.0394 -0.084 4.71e-16)
(0.000422 -0.0623 0)
(0.00129 -0.0628 -1.53e-17)
(0.000145 -0.0862 -1.15e-16)
(0.0403 -0.0857 0)
(0.00158 -0.108 2.14e-16)
(0.0117 -0.0246 0)
(0.0527 -0.0763 2.84e-16)
(0.0433 -0.062 -2.32e-16)
(0.00571 -0.0901 0)
(-0.0356 -0.0384 -1.23e-16)
(0.0362 -0.0741 -3.99e-16)
(-0.0177 -0.0255 -4.31e-16)
(0.0107 -0.025 -1.96e-16)
(0.0176 -0.025 1.99e-16)
(-0.0702 -0.0867 -5.71e-17)
(-0.0142 -0.041 0)
(0.00061 -0.0204 0)
(-0.00411 -0.107 -3.39e-16)
(0.0287 -0.0634 1.01e-20)
(-0.0306 -0.0703 3.8e-18)
(-0.00242 -0.0739 0)
(-0.0608 -0.0786 1.16e-16)
(-0.0291 -0.0648 0)
(0.013 -0.0971 2.07e-16)
(0.0736 -0.0758 6.29e-16)
(0.0528 -0.07 -5.39e-16)
(0.000118 -0.0822 1.14e-16)
(0.00524 -0.0826 -8.15e-16)
(-0.00387 -0.0244 -8.51e-16)
(-0.04 -0.0835 0)
(-0.0418 -0.0749 0)
(0.0369 -0.0815 -7.43e-16)
(-0.0138 -0.0946 0)
(-0.0545 -0.0575 0)
(-0.00448 -0.0815 0)
(0.0392 -0.0826 -6.4e-16)
(0.00222 -0.0978 -2.25e-16)
(0.0196 -0.0425 0)
(-0.00828 -0.0228 0)
(0.0221 -0.0443 -5.2e-16)
(0.0615 -0.0712 -1.73e-16)
(0.0377 -0.08 0)
(0.0698 -0.0848 4.77e-16)
(0.0607 -0.0722 -3.84e-16)
(0.0635 -0.0745 3.99e-16)
(-0.0138 -0.0905 4.62e-16)
(0.00604 -0.0801 2.4e-16)
(-0.05 -0.0772 -3.52e-16)
(-0.0269 -0.0607 6.12e-17)
(-0.00517 -0.0827 4.03e-16)
(0.0279 -0.0559 -4.17e-16)
(0.0278 -0.0418 -1.03e-21)
(0.0382 -0.0769 -4.54e-16)
(0.00169 -0.065 -6.09e-17)
(0.0233 -0.0403 0)
(-0.0325 -0.082 4.7e-16)
(0.0244 -0.0752 -4.46e-16)
(0.0753 -0.0765 -2.28e-16)
(-0.0408 -0.0865 2.35e-16)
(-0.0267 -0.082 0)
(-0.0403 -0.082 0)
(-0.0318 -0.0834 0)
(0.0111 -0.0937 0)
(0.00806 -0.0161 4.41e-16)
(-0.0398 -0.0844 -4.39e-16)
(-0.0407 -0.0695 0)
(0.0337 -0.0634 0)
(-0.00836 -0.0866 -3.95e-16)
(0.0498 -0.0734 4.47e-16)
(-0.035 -0.0686 0)
(-0.0181 -0.0341 5.39e-16)
(-0.0276 -0.0824 0)
(-0.0302 -0.0584 0)
(-0.000202 -0.0623 0)
(0.0158 -0.0309 0)
(-0.0733 -0.083 9.8e-21)
(-0.0247 -0.0573 4.94e-16)
(-0.00657 -0.0514 0)
(0.0406 -0.0839 4.75e-16)
(-0.0265 -0.0764 0)
(0.0487 -0.0903 0)
(-0.0186 -0.0262 0)
(0.0179 -0.0176 0)
(0.0139 -0.0281 5.28e-16)
(-0.0438 -0.0879 -4.41e-16)
(-0.00577 -0.0703 -2.44e-16)
(-0.0197 -0.0885 4.75e-16)
(0.0116 -0.0792 -1.09e-16)
(-0.0154 -0.0152 -1.06e-16)
(0.0512 -0.0911 -3.76e-16)
(0.044 -0.0832 5.29e-16)
(0.0413 -0.0734 5.49e-16)
(-0.00987 -0.0186 -6.75e-18)
(0.0445 -0.08 0)
(-7.72e-05 -0.0189 2.06e-20)
(-0.0288 -0.0726 5.14e-21)
(-0.000208 -0.0347 -5.31e-16)
(-0.0391 -0.0756 0)
(0.00767 -0.0527 -1.2e-16)
(-0.0056 -0.103 -1.95e-16)
(0.0428 -0.0708 0)
(0.0202 -0.0364 0)
(-0.0243 -0.0416 0)
(-0.014 -0.0282 -5.32e-16)
(-0.0341 -0.0644 0)
(-0.00521 -0.095 -1.09e-16)
(-0.000286 -0.0985 -1.11e-16)
(-0.0481 -0.0729 4.07e-16)
(0.0265 -0.0451 5.98e-17)
(-0.00213 -0.0636 2.5e-16)
(-0.0208 -0.0373 0)
(-0.0366 -0.0642 0)
(-0.0215 -0.066 0)
(0.00528 -0.0958 8.19e-16)
(-0.0487 -0.0783 2.98e-16)
(-0.00495 -0.038 -3.95e-16)
(0.0248 -0.0298 -2e-16)
(-0.0418 -0.0869 1.06e-16)
(-0.0459 -0.0905 4.61e-16)
(-0.00106 -0.036 -5.35e-16)
(0.0449 -0.0891 -4.57e-16)
(0.0378 -0.0706 0)
(0.038 -0.0489 5.08e-16)
(-0.036 -0.0682 0)
(-0.024 -0.0414 0)
(-0.00145 -0.111 2.11e-16)
(0.00288 -0.0419 1.01e-15)
(-0.00283 -0.0414 -8.1e-16)
(-0.0381 -0.071 0)
(0.0354 -0.0674 0)
(0.00587 -0.0396 -3.9e-16)
(0.00902 -0.0993 -1.04e-15)
(0.0136 -0.0419 -2.51e-16)
(-0.0041 -0.108 0)
(-0.000977 -0.104 -3.33e-16)
(0.0389 -0.0751 0)
(-0.0442 -0.0804 0)
(-0.045 -0.0535 0)
(0.046 -0.0908 4.7e-16)
(-0.0223 -0.0254 0)
(-0.0197 -0.0456 5.01e-16)
(-0.0469 -0.0923 -4.53e-16)
(-0.0376 -0.0797 -1.47e-17)
(0.00245 -0.107 1.09e-16)
(-0.0328 -0.0664 -2.5e-16)
(0.00136 -0.0726 0)
(-0.0417 -0.0801 -4.77e-16)
(0.0409 -0.079 4.78e-16)
(-0.0447 -0.0908 4.67e-16)
(-0.011 -0.0238 -5.45e-16)
(0.0436 -0.0895 2.38e-16)
(-0.0372 -0.0723 0)
(0.0238 -0.0501 -4.93e-16)
(0.0227 -0.0427 0)
(-0.022 -0.0411 0)
(-0.0241 -0.0503 9.92e-16)
(2.56e-05 -0.115 -1.07e-16)
(0.00263 -0.0253 3.91e-20)
(-0.00207 -0.025 2.09e-16)
(-0.000275 -0.019 4.22e-16)
(-0.00933 -0.0229 -4.28e-16)
(0.00453 -0.0223 -2.16e-16)
(-0.00804 -0.0162 -4.39e-16)
(0.0231 -0.0727 0)
(-0.0235 -0.0739 0)
(0.0163 -0.0263 1.52e-16)
(0.0123 -0.0236 0)
(-0.0126 -0.0238 0)
(0.0158 -0.0938 1.73e-16)
(0.0195 -0.0452 0)
(-0.0112 -0.0202 0)
(0.0111 -0.0194 0)
(-0.00141 -0.113 -4.32e-16)
(-0.0189 -0.0354 0)
(-0.00136 -0.0218 8.21e-16)
(0.00899 -0.0178 0)
(-0.00957 -0.0179 -4.25e-16)
(-0.00358 -0.0401 9.94e-16)
(-0.0135 -0.0217 0)
(-0.00189 -0.0998 -1.08e-16)
(0.00142 -0.11 1.07e-16)
(-0.036 -0.0836 0)
(0.00669 -0.0666 0)
(0.00693 -0.0202 -4.26e-18)
(0.000551 -0.0181 0)
(0.027 -0.0811 4.68e-16)
(-0.00042 -0.0355 5.29e-16)
(-0.0517 -0.0924 -7.23e-16)
(0.0132 -0.024 0)
(0.00405 -0.0394 5.33e-16)
(0.0109 -0.0236 5.41e-16)
(-0.0117 -0.021 4.31e-16)
(0.000762 -0.0217 -8.4e-16)
(0.0011 -0.039 5.66e-16)
(-0.0329 -0.0718 3.62e-16)
(0.0292 -0.0629 8.95e-16)
(0.0139 -0.0403 0)
(0.0049 -0.0115 -4.37e-16)
(-0.000884 -0.0199 -4.31e-16)
(0.00213 -0.00911 0)
(-0.00217 -0.00923 0)
(-0.0323 -0.0796 -4.56e-16)
(0.0188 -0.052 0)
(-0.00024 -0.117 -3.13e-16)
(0.00635 -0.104 -2.29e-16)
(-0.00107 -0.115 -6.31e-16)
(-0.0024 -0.089 2.44e-16)
(-0.00495 -0.0116 0)
(-0.0228 -0.0419 0)
(-0.000966 -0.107 -5.53e-16)
(0.0215 -0.0407 0)
(-0.0019 -0.11 9.52e-16)
(0.000312 -0.116 0)
(0.00287 -0.11 -1.07e-16)
(-0.000824 -0.115 2.14e-16)
(-0.0159 -0.0311 -5.18e-16)
(0.00673 -0.0135 -8.64e-16)
(-0.00677 -0.0136 4.36e-16)
(-0.000501 -0.0148 0)
(0.0002 -0.0344 -5.29e-16)
(0.0227 -0.0677 0)
(-0.0368 -0.0823 1.45e-17)
(-0.00394 -0.102 1.95e-16)
(-0.0132 -0.0229 0)
(0.0004 -0.018 0)
(0.000956 -0.0363 6.54e-17)
(0.0114 -0.0208 -4.31e-16)
(0.0263 -0.0808 -1.15e-15)
(-0.000164 -0.0363 1.21e-16)
(0.000321 -0.0367 -4.71e-16)
(-0.00126 -0.0979 5.67e-16)
(-0.0231 -0.069 0)
(1.96e-05 -0.0211 4.19e-16)
(-4.85e-06 -0.0179 0)
(0.000636 -0.0209 0)
(-1.22e-05 -0.0221 7.95e-16)
(0.0259 -0.0752 4.6e-16)
(-0.00186 -0.0763 -1.09e-15)
(-0.000447 -0.118 -4.15e-16)
(-0.000444 -0.118 0)
(0.0243 -0.0569 2.49e-16)
(-0.00084 -0.116 3.13e-16)
(-0.000406 -0.119 -6.6e-16)
(-0.0191 -0.0526 0)
(-0.00059 -0.114 4.29e-16)
(0.00119 -0.11 4.42e-16)
(-0.0342 -0.0767 0)
(-0.00706 -0.0204 0)
(-0.0141 -0.0408 0)
(-0.000893 -0.106 -5.3e-16)
(-0.0294 -0.0624 -4.99e-16)
(4.14e-05 -0.117 8.61e-16)
(-0.00267 -0.11 1.1e-16)
(0.000552 -0.103 -3.43e-16)
(-0.00503 -0.105 4.37e-16)
(0.000408 -0.113 -2.03e-16)
(-0.0494 -0.0916 4.33e-16)
(-0.032 -0.0609 0)
(0.043 -0.0866 0)
(9.98e-05 -0.114 7.95e-16)
(-0.0099 -0.0975 1.12e-16)
(-0.0558 -0.0908 -1.73e-16)
(-0.000251 -0.118 2.1e-16)
(0.000746 -0.104 -4.31e-16)
(-0.0277 -0.0553 7.43e-16)
(-8.31e-05 -0.113 2.17e-16)
(0.00516 -0.104 -2e-16)
(0.000903 -0.103 -4.49e-16)
(-0.000417 -0.0763 0)
(-0.00238 -0.0903 0)
(0.00197 -0.108 -2.19e-16)
(0.0018 -0.113 3.23e-16)
(-0.000834 -0.116 3.12e-16)
(-0.000723 -0.0658 4.46e-16)
(-0.000161 -0.117 3.16e-16)
(0.0496 -0.0662 -1.27e-16)
(0.0276 -0.0775 2.51e-16)
(-0.00797 -0.0184 -4.34e-16)
(0.0076 -0.0174 1.1e-16)
(-0.0088 -0.0199 4.29e-16)
(0.00887 -0.0198 0)
(0.00914 -0.0191 4.37e-16)
(-0.00926 -0.0192 2.19e-16)
(-0.00167 -0.103 -2.15e-16)
(0.00992 -0.0223 0)
(-0.0101 -0.0233 0)
(2.86e-05 -0.116 -3.16e-16)
(-0.0116 -0.0242 -4.23e-16)
(0.0141 -0.0259 0)
(-0.0143 -0.0265 0)
(-0.00135 -0.113 -3.42e-16)
(-0.0119 -0.011 0)
(-9.95e-05 -0.117 1.06e-16)
(0.00779 -0.019 4.86e-16)
(-0.00034 -0.117 -1.1e-16)
(0.000564 -0.0962 -4.63e-16)
(-0.00134 -0.115 1.1e-16)
(0.0397 -0.0783 4.6e-16)
(0.00727 -0.101 1.93e-16)
(-0.0326 -0.0297 0)
(0.036 -0.0788 0)
(-0.0332 -0.0216 -5.35e-17)
(-0.0523 -0.054 4.46e-16)
(0.0304 -0.0829 -2.32e-16)
(-0.0766 -0.0852 -2.38e-16)
(0.0329 -0.0202 4.09e-16)
(-0.00873 -0.101 -1.11e-16)
(-0.0155 -0.0354 -5.5e-16)
(0.0154 -0.0343 3.93e-16)
(-0.0258 -0.05 -5.08e-16)
(-0.00128 -0.081 -3.93e-16)
(0.016 -0.036 -2.74e-16)
(-0.0162 -0.0364 0)
(0.00346 -0.107 -5.38e-16)
(0.00145 -0.111 3.17e-16)
(-0.000968 -0.104 6.53e-16)
(-0.00166 -0.0194 -5.61e-16)
(-0.0199 -0.0434 5.11e-16)
(-0.0223 -0.0442 0)
(0.014 -0.0331 -3.38e-16)
(0.00421 -0.0812 1.95e-16)
(0.0152 -0.0814 0)
(0.0098 -0.0917 4.6e-16)
(0.0283 -0.0719 -2.24e-16)
(-0.0798 -0.0776 4.04e-16)
(0.0102 -0.0535 2.37e-16)
(0.0618 -0.0446 4e-18)
(-0.00028 -0.0988 5.79e-16)
(0.00546 -0.0716 4.93e-16)
(-0.00104 -0.0313 5.5e-16)
(-0.0748 -0.0794 -7.98e-16)
(0.00112 -0.0333 -5.01e-16)
(-0.00618 -0.0368 2.63e-16)
(-0.0105 -0.0785 3.58e-16)
(-0.0126 -0.0847 0)
(-0.00813 -0.0896 0)
(0.073 -0.0603 0)
(-0.0236 -0.0679 7.23e-16)
(0.00871 -0.101 -5.56e-16)
(0.0221 -0.0891 -4.54e-16)
(-0.00834 -0.0778 -9.29e-16)
(-0.0373 -0.0799 1.14e-16)
(-0.0028 -0.094 5.19e-21)
(-0.0275 -0.0731 -9.53e-16)
(-0.0339 -0.0765 -1.15e-16)
(0.0144 -0.0954 1.11e-16)
(0.0321 -0.0708 -5.06e-16)
(-0.0327 -0.072 -2.54e-16)
(0.0411 -0.0867 0)
(-0.00776 -0.0955 1.1e-16)
(-0.038 -0.083 5.96e-17)
(9.81e-05 -0.0176 -1.75e-20)
(0.0412 -0.0843 0)
(-0.04 -0.0822 6.18e-16)
(-0.0359 -0.0812 0)
(0.0314 -0.0805 -2.39e-16)
(0.0138 -0.0404 6.75e-16)
(-0.0062 -0.089 -5.13e-16)
(0.00781 -0.0222 -4.03e-16)
(0.0309 -0.0821 0)
(-0.065 -0.0877 0)
(0.00127 -0.113 -2.13e-16)
(0.0469 -0.0524 -1.22e-16)
(0.0114 -0.0837 0)
(-0.00866 -0.0204 -2.12e-16)
(0.0363 -0.0817 -2.34e-16)
(0.0316 -0.0689 0)
(-0.0282 -0.0863 -4.55e-16)
(0.021 -0.0647 0)
(-0.0155 -0.093 4.64e-16)
(-0.0258 -0.0865 -3.56e-16)
(0.00358 -0.0958 0)
(0.00992 -0.0829 2.49e-16)
(0.000284 -0.0774 0)
(-0.0602 -0.0915 0)
(-0.00445 -0.109 4.49e-16)
(-0.000488 -0.0619 -3.81e-16)
(-0.0543 -0.0719 -4.55e-16)
(-0.0445 -0.0655 6.45e-16)
(0.000722 -0.0172 0)
(-0.0421 -0.0854 1.22e-16)
(-0.0109 -0.082 0)
(-0.0369 -0.081 1.23e-21)
(0.00967 -0.0814 1.89e-16)
(-0.0432 -0.089 -4.42e-16)
(-0.00146 -0.0642 0)
(-0.0055 -0.0638 -7.9e-18)
(0.0363 -0.065 2.29e-16)
(0.000516 -0.109 6.83e-16)
(-0.0586 -0.0757 0)
(0.0171 -0.0641 4.93e-16)
(-0.025 -0.0281 2.53e-16)
(-0.0141 -0.0969 -1.74e-16)
(0.0142 -0.0381 -3.08e-16)
(-0.00221 -0.113 1.1e-16)
(0.0509 -0.0798 -1.5e-20)
(-0.0153 -0.0398 0)
(0.0248 -0.0269 -2.59e-16)
(-0.0117 -0.0993 2.31e-16)
(0.0336 -0.0762 -7.16e-16)
(0.000545 -0.0912 -5.09e-16)
(-0.00114 -0.0179 0)
(-0.0125 -0.0165 0)
(-0.0099 -0.0756 2.41e-16)
(-0.000556 -0.102 -4.71e-16)
(0.0361 -0.0797 2.28e-16)
(0.0348 -0.0821 4.79e-16)
(0.0104 -0.0135 2.11e-16)
(0.0194 -0.0257 1.04e-16)
(0.0485 -0.0565 2.04e-16)
(0.000467 -0.0931 0)
(0.00307 -0.11 2.23e-16)
(-0.0757 -0.0792 -3.42e-16)
(-0.000772 -0.11 -1.05e-15)
(-0.00912 -0.0814 1.93e-16)
(0.0263 -0.0714 2.47e-16)
(-4.16e-07 -0.0929 3.58e-16)
(-0.00212 -0.0407 0)
(-0.0164 -0.0885 0)
(-0.0532 -0.0842 -2.27e-16)
(0.00222 -0.041 -1.94e-16)
(-0.0701 -0.0873 5.63e-17)
(0.0316 -0.0787 2.86e-17)
(0.0174 -0.0906 5.95e-17)
(-0.00996 -0.0982 -2.29e-16)
(-0.015 -0.035 5.36e-16)
(-0.00155 -0.0713 2.53e-16)
(-0.0387 -0.0842 2.28e-16)
(-0.00672 -0.0782 1.87e-16)
(0.00639 -0.0788 0)
(0.0406 -0.0855 -2.41e-16)
(-0.00566 -0.105 -4.54e-16)
(0.0239 -0.0608 0)
(0.00257 -0.0992 6.76e-16)
(-0.0693 -0.074 1.3e-16)
(-0.0157 -0.0897 0)
(-0.0266 -0.0599 2.64e-16)
(0.00915 -0.0937 0)
(-0.0254 -0.0629 4.96e-16)
(-0.02 -0.0895 0)
(0.00108 -0.0769 4.6e-16)
(0.0392 -0.0648 0)
(0.00137 -0.0616 -5.01e-16)
(-0.0279 -0.0645 -2.75e-16)
(-0.0329 -0.0721 -6.4e-17)
(0.000246 -0.0362 -5e-16)
(0.0396 -0.0827 2.46e-16)
(0.0277 -0.0636 0)
(0.000839 -0.0709 0)
(0.0212 -0.0895 4.72e-16)
(0.000532 -0.101 -3.36e-16)
(0.0271 -0.0493 -3.99e-16)
(-0.00143 -0.112 1.11e-16)
(0.0247 -0.057 0)
(0.0351 -0.0765 2.62e-16)
(0.00132 -0.0896 -6.4e-16)
(2.55e-05 -0.0723 3.28e-16)
(0.0056 -0.0687 -2.58e-16)
(0.0531 -0.0742 1.18e-16)
(-0.00468 -0.0735 2.61e-16)
(0.0312 -0.047 0)
(0.0426 -0.0877 0)
(-0.00218 -0.036 -4.91e-16)
(0.000324 -0.0939 0)
(0.0214 -0.0864 5.48e-16)
(-0.0248 -0.0372 -2.72e-16)
(0.000906 -0.0578 0)
(-0.031 -0.0689 -3.23e-16)
(-0.0488 -0.0576 -3.12e-17)
(-0.0119 -0.066 5.26e-16)
(0.013 -0.0672 8.72e-20)
(0.0147 -0.0884 -3.03e-17)
(0.0256 -0.0382 0)
(0.0285 -0.0641 2.74e-16)
(0.0125 -0.0749 0)
(-0.000901 -0.0952 -2.42e-16)
(0.000382 -0.0721 0)
(-0.0515 -0.0713 0)
(0.063 -0.0761 -1.17e-16)
(0.0284 -0.0674 2.55e-16)
(0.0675 -0.0613 3.31e-17)
(-0.0415 -0.083 -1.32e-16)
(0.0343 -0.0789 -2.29e-16)
(-0.0514 -0.0755 1.21e-16)
(0.0482 -0.0634 -1.31e-16)
(-0.00623 -0.106 -1.13e-16)
(0.0551 -0.09 -3.09e-16)
(-0.000817 -0.111 1.3e-16)
(0.00105 -0.0918 1.27e-16)
(-0.0121 -0.0929 6.66e-17)
(-0.0148 -0.0942 0)
(-0.0304 -0.0482 0)
(0.0249 -0.0558 -5.75e-16)
(-0.0208 -0.0857 0)
(0.0217 -0.0864 -2.47e-16)
(0.000815 -0.0872 0)
(0.016 -0.0873 2.52e-16)
(-0.00991 -0.0987 1.69e-16)
(-0.023 -0.0871 -2.7e-16)
(0.0225 -0.087 -2.71e-16)
(-0.0376 -0.0814 2.5e-16)
(-0.0584 -0.0719 0)
(0.0572 -0.0504 -1.84e-16)
(-0.0098 -0.0909 -5.28e-16)
(-0.0708 -0.0769 1.32e-16)
(0.00068 -0.0891 0)
(-0.0677 -0.0805 2.73e-16)
(-0.0581 -0.0657 0)
)
;

boundaryField
{
    front
    {
        type            empty;
    }
    back
    {
        type            empty;
    }
    bottom
    {
        type            zeroGradient;
    }
    left
    {
        type            noSlip;
    }
    top
    {
        type            uniformFixedValue;
        uniformValue    
        {
            type            table;
            format          csv;
            file            "inlet_v.csv";
            nHeaderLine     1;
            refColumn       0;
            componentColumns List<label> 3(1 2 3);
            separator       ",";
            mergeSeparators 0;
        }
        value           uniform (0 -0.08 0);
    }
    right
    {
        type            noSlip;
    }
    inner_arc
    {
        type            noSlip;
    }
}


// ************************************************************************* //
