/*--------------------------------*- C++ -*----------------------------------*\
  =========                 |
  \\      /  F ield         | OpenFOAM: The Open Source CFD Toolbox
   \\    /   O peration     | Website:  https://openfoam.org
    \\  /    A nd           | Version:  9
     \\/     M anipulation  |
\*---------------------------------------------------------------------------*/
FoamFile
{
    format      ascii;
    class       volVectorField;
    location    "0.43";
    object      U;
}
// * * * * * * * * * * * * * * * * * * * * * * * * * * * * * * * * * * * * * //

dimensions      [0 1 -1 0 0 0 0];

internalField   nonuniform List<vector> 
464
(
(0.00367572 -0.940247 -1.60968e-17)
(0.00162468 -0.657972 0)
(0.0153793 -0.698769 0)
(-0.00264444 -0.716177 -3.53717e-16)
(-0.00702 -0.537599 0)
(0.0773349 -0.755235 8.05856e-17)
(0.00107867 -0.970312 2.7063e-16)
(-0.0110597 -0.718667 0)
(-0.00260782 -1.00374 -9.12109e-20)
(-0.00337944 -0.982729 2.56083e-16)
(0.00591111 -0.840824 1.74421e-17)
(0.00482786 -0.644061 -1.05924e-17)
(-0.000400088 -0.99862 5.13356e-16)
(-0.0080267 -0.525777 0)
(0.00424473 -0.613492 2.32714e-16)
(0.0027645 -0.505012 -3.93256e-16)
(0.00248225 -0.623025 0)
(0.00571048 -0.518757 1.46589e-16)
(-0.0289067 -0.475583 3.17666e-16)
(0.0215396 -0.863602 -2.79945e-16)
(0.0252973 -0.837481 4.53343e-16)
(0.0428181 -0.831858 -7.76942e-17)
(0.0371347 -0.843124 3.83847e-17)
(0.0174509 -0.726385 0)
(0.00352491 -0.708715 3.17572e-16)
(0.0288775 -0.740251 -1.64866e-16)
(-0.00542198 -0.532484 -1.83201e-16)
(-0.0621334 -0.804521 2.91259e-16)
(0.0096548 -0.647595 0)
(0.0521292 -0.811265 0)
(0.0465837 -0.79722 -1.97593e-17)
(0.0109709 -0.8634 -2.29097e-18)
(0.00103414 -0.807807 4.09007e-17)
(0.00408356 -0.803867 2.94723e-16)
(0.0117106 -0.867051 -2.89723e-16)
(0.000411761 -0.554513 -4.29195e-16)
(0.0163596 -0.672055 3.46694e-16)
(-0.0493213 -0.66131 4.36785e-17)
(-0.0578444 -0.759027 -2.52752e-18)
(0.00152649 -0.527691 0)
(0.0211351 -0.869377 -4.52652e-16)
(0.0251468 -0.827951 0)
(0.0317839 -0.855209 1.1107e-16)
(0.0085887 -0.519029 -3.84805e-16)
(0.00172816 -0.640316 3.50864e-16)
(0.00597427 -0.606863 2.40811e-17)
(-0.0350117 -0.831616 -2.8318e-16)
(-0.0288458 -0.704907 1.92811e-19)
(-0.0217798 -0.342628 0)
(-0.0656931 -0.776357 -3.55624e-17)
(0.0110636 -0.833245 3.28346e-16)
(-0.0479904 -0.743069 1.85667e-17)
(0.00691301 -0.565713 2.54813e-16)
(-0.0138357 -0.87572 2.68806e-16)
(-0.0216045 -0.870323 8.86156e-18)
(-0.0469451 -0.800922 -2.96812e-16)
(-0.0424969 -0.818571 0)
(-0.00940495 -0.909365 0)
(-0.013152 -0.88345 2.85044e-16)
(0.0079427 -0.63627 0)
(-0.0417796 -0.577717 -3.94792e-16)
(-0.00483429 -0.828248 -5.85247e-16)
(-0.00546169 -0.931325 -5.43177e-16)
(-0.00804065 -0.899003 2.78288e-16)
(-0.00296978 -0.957967 5.87347e-20)
(-0.0103083 -0.868197 2.84092e-16)
(-0.00928131 -0.842786 2.8519e-16)
(-0.0323621 -0.517514 3.97616e-16)
(0.00379892 -0.787522 -1.44629e-16)
(-0.0207186 -0.846263 -2.8504e-16)
(-0.0122935 -0.845032 -2.84168e-16)
(-0.00305078 -0.885559 2.94599e-16)
(0.00447527 -0.644197 0)
(-0.0376386 -0.791754 -3.1433e-16)
(-0.0041125 -0.68683 3.48179e-16)
(-0.056661 -0.809166 -2.95798e-16)
(-0.00999761 -0.886573 2.85244e-16)
(0.00306401 -0.966474 -2.59003e-16)
(-0.00710692 -0.911556 2.74432e-16)
(0.0102038 -0.53646 1.86849e-16)
(-0.00975611 -0.647586 0)
(0.0802245 -0.789502 -8.15259e-17)
(0.00177361 -0.312484 5.73235e-16)
(0.0477916 -0.63466 -3.93063e-16)
(-0.000670325 -0.568885 0)
(-0.00823964 -0.91725 -9.99803e-20)
(-0.00465047 -0.887157 2.87713e-16)
(0.0751534 -0.767621 0)
(-0.0129806 -0.742036 0)
(-0.00548686 -0.836684 2.85949e-16)
(-0.00347522 -0.670356 -3.53466e-16)
(-0.00689155 -0.812539 0)
(-0.00792182 -0.888845 -2.8902e-16)
(-0.00579486 -0.602222 -3.29412e-16)
(-0.00738097 -0.840473 2.86089e-16)
(-0.00726782 -0.924406 2.70468e-16)
(-0.0105168 -0.899929 -2.74625e-16)
(0.0453657 -0.736381 7.61725e-17)
(-0.00120112 -0.323846 5.53107e-16)
(-0.00140407 -0.999179 -2.55339e-16)
(0.00235952 -0.740334 0)
(-0.0298956 -0.780326 -1.90525e-17)
(0.0107191 -0.754951 0)
(0.00804226 -0.860292 2.27433e-18)
(0.0111155 -0.800591 0)
(-0.000384003 -0.168012 4.8031e-16)
(0.0240509 -0.446243 0)
(-0.00879898 -0.888066 -2.80944e-16)
(-0.00175649 -0.571374 3.53614e-16)
(-0.0252006 -0.861387 0)
(-0.00656888 -0.839417 0)
(-0.0367577 -0.831981 2.90455e-16)
(-0.00825157 -0.84205 0)
(-0.00266431 -0.579179 -3.50187e-16)
(-0.0215317 -0.76092 -9.91716e-18)
(0.00231294 -0.7677 5.06507e-18)
(-0.00099276 -0.317338 -5.62314e-16)
(0.0439818 -0.555068 -4.41957e-16)
(-0.000497493 -0.172769 -4.83924e-16)
(0.0587852 -0.749997 1.89281e-17)
(-0.0301104 -0.840578 -2.66026e-16)
(-1.11529e-05 -0.994621 -8.16987e-18)
(-0.0040511 -0.959318 -2.61122e-16)
(0.00232511 -0.938961 -2.7034e-16)
(-0.0113195 -0.884807 0)
(-0.00635115 -0.889919 -2.85856e-16)
(-0.00325971 -0.980703 2.6605e-16)
(-0.00476223 -0.694772 0)
(0.0123893 -0.858817 0)
(-0.000530736 -0.168739 -4.85824e-16)
(0.0273442 -0.382722 3.70852e-16)
(0.00808363 -0.181938 -4.76975e-16)
(-0.028388 -0.390869 3.61228e-16)
(0.00899591 -0.783124 0)
(0.0366629 -0.701933 0)
(-0.000551991 -0.171405 4.84175e-16)
(0.0227128 -0.317038 8.18604e-16)
(-0.0482513 -0.772034 3.05261e-16)
(-0.00352437 -0.982882 -2.59244e-16)
(0.00834492 -0.222743 -4.59566e-16)
(0.0165863 -0.449759 0)
(-0.00706498 -0.889202 0)
(-0.00953593 -0.723189 -1.2343e-19)
(-0.0138716 -0.77023 -3.20346e-16)
(0.0289197 -0.486707 -4.55132e-16)
(-0.00288234 -0.583407 3.50943e-16)
(0.00133844 -0.794578 0)
(0.0682551 -0.803314 0)
(-0.0122421 -0.8886 -1.51929e-20)
(0.00857574 -0.384016 1.03745e-15)
(0.00831896 -0.809491 -9.54488e-18)
(0.0255651 -0.79349 -2.94295e-16)
(0.00290691 -0.959152 2.97496e-16)
(-0.00588451 -0.838311 2.86384e-16)
(-0.000845505 -0.320937 5.45934e-19)
(0.0165003 -0.415651 5.23102e-16)
(0.0129878 -0.54977 0)
(0.00141109 -0.8214 0)
(-0.000642027 -0.995559 2.62199e-16)
(-0.00298734 -0.67615 -3.56114e-16)
(-0.000771062 -0.986322 0)
(0.00699699 -0.83414 3.17104e-16)
(-0.00303162 -0.587383 -6.96508e-16)
(0.00238051 -0.203057 -1.70415e-19)
(0.00179156 -0.377649 -5.24975e-16)
(0.0125464 -0.268658 0)
(0.000663284 -0.980453 2.62236e-16)
(0.0139252 -0.641731 -3.57917e-16)
(0.0054398 -0.57716 -3.32716e-16)
(-0.000586512 -0.177402 -9.61445e-16)
(-0.0012223 -0.331552 -1.74177e-19)
(-0.00445538 -0.83177 2.90239e-16)
(-0.000991479 -0.326593 -1.65626e-19)
(0.0373243 -0.78211 7.95134e-17)
(-0.000860672 -0.329126 1.71933e-19)
(-0.00365298 -0.595769 3.46758e-16)
(0.000833055 -0.844115 -3.04819e-16)
(0.00580526 -0.856038 1.17399e-18)
(0.00326476 -0.934132 2.75638e-16)
(0.00451687 -0.596231 -4.1099e-17)
(0.0192179 -0.86517 -2.77994e-16)
(-0.00458448 -0.606243 -3.43211e-16)
(-0.00102793 -0.17824 0)
(-0.00357871 -0.335524 6.00208e-16)
(0.00453109 -0.30926 9.12863e-18)
(0.00343795 -0.322359 1.74491e-17)
(-0.00131254 -0.341256 0)
(-0.000629691 -0.183219 4.76756e-16)
(-0.000318092 -0.176143 9.62306e-16)
(-0.00122964 -0.334642 -1.07561e-18)
(-0.0231472 -0.764777 3.13699e-19)
(-0.00134994 -0.337875 -5.49149e-16)
(-0.0078337 -0.238566 8.78052e-16)
(-0.0221017 -0.683393 3.2699e-16)
(-0.0144754 -0.846493 -2.78384e-19)
(-0.011499 -0.732655 3.25668e-19)
(0.0168016 -0.745015 3.26052e-16)
(-0.0249385 -0.843748 -2.76087e-19)
(0.00238462 -0.169891 4.96344e-16)
(-0.0178777 -0.753408 -3.25306e-16)
(-0.0161817 -0.667283 0)
(-0.00961754 -0.641185 0)
(-0.00693092 -0.387985 0)
(-0.0141644 -0.742256 -3.22451e-19)
(-0.000662803 -0.181068 0)
(-0.0106112 -0.406424 -8.04319e-18)
(-0.00316442 -0.209943 0)
(-0.00220047 -0.202152 4.63268e-16)
(-0.00337598 -0.365225 -5.30421e-16)
(-0.000642186 -0.174738 -4.82196e-16)
(0.00874444 -0.257185 -4.30134e-16)
(-0.000682266 -0.184788 0)
(-0.0166836 -0.293431 -4.09341e-16)
(-0.00310747 -0.19432 4.7839e-16)
(0.00237357 -0.212244 0)
(-0.000594199 -0.179331 4.79246e-16)
(0.00657931 -0.170257 -4.98813e-16)
(-0.00497132 -0.221105 -4.51142e-16)
(0.00443374 -0.178092 -2.16562e-19)
(-0.0016898 -0.196728 4.6722e-16)
(0.000329514 -0.191145 -4.70292e-16)
(-0.00468008 -0.374945 -5.23839e-16)
(-0.012292 -0.653262 3.3015e-16)
(-0.00930224 -0.884935 -5.54524e-16)
(0.000474488 -0.86491 -2.99532e-16)
(0.00505972 -0.875209 2.81405e-16)
(0.000239648 -0.883331 0)
(0.0130351 -0.906179 -1.31878e-16)
(0.0047385 -0.891726 8.79714e-18)
(0.000719127 -0.898715 2.89448e-16)
(0.00435908 -0.906127 -2.77815e-16)
(0.0102979 -0.895758 3.4153e-17)
(0.0072072 -0.912626 0)
(-0.00637279 -0.922017 2.67409e-16)
(0.0104234 -0.837131 -3.24956e-16)
(0.000451503 -0.913159 0)
(0.00961361 -0.903916 1.1743e-19)
(0.00882991 -0.920475 1.21749e-19)
(0.00285516 -0.918142 -2.74369e-16)
(0.0138819 -0.840142 -2.84053e-16)
(-0.000328159 -0.924219 2.76635e-16)
(0.00714862 -0.926758 2.66307e-16)
(0.0099378 -0.900636 -2.8474e-16)
(0.00353466 -0.928266 0)
(0.000731641 -0.935485 0)
(0.0040571 -0.78319 7.5379e-20)
(0.00313746 -0.938716 8.43322e-18)
(0.01323 -0.638104 0)
(0.00948691 -0.906712 0)
(0.0119656 -0.353825 0)
(0.00893641 -0.929521 2.58691e-16)
(0.0093526 -0.829878 6.01851e-16)
(-0.00490002 -0.947317 2.69613e-16)
(-0.00578261 -0.8901 -2.86031e-16)
(0.000517786 -0.945203 0)
(0.00207123 -0.947276 0)
(-0.0129676 -0.825235 0)
(0.0137117 -0.193733 4.86781e-16)
(-0.000729772 -0.953715 2.80244e-16)
(0.00806204 -0.943266 0)
(0.00196886 -0.956076 -2.74893e-16)
(-0.00388533 -0.959486 -5.39089e-16)
(0.000252709 -0.961357 -2.76576e-16)
(0.00214992 -0.923048 2.61052e-16)
(0.00247796 -0.962658 2.75847e-16)
(0.000975446 -0.951176 -5.40856e-16)
(0.000115623 -0.968823 5.36765e-19)
(-0.0394446 -0.777142 9.47135e-18)
(0.00431178 -0.771224 -1.89465e-16)
(0.0065412 -0.951285 -2.54381e-16)
(0.028047 -0.69213 2.89161e-16)
(0.00222691 -0.970699 0)
(-0.00029688 -0.981949 -2.59643e-16)
(0.00236392 -0.831486 -1.49158e-16)
(0.00163348 -0.965399 8.45589e-18)
(0.000595386 -0.975858 0)
(0.00181843 -0.975513 0)
(-0.00771687 -0.630515 3.35873e-16)
(-0.00138775 -0.191835 0)
(-0.00379264 -0.683052 -1.06211e-19)
(-0.00334136 -0.970078 -2.0859e-18)
(-0.0218643 -0.790332 2.0334e-19)
(-0.00274169 -0.357142 0)
(-0.0376809 -0.71959 3.16305e-16)
(0.00545257 -0.836162 -1.89082e-16)
(-0.00442592 -0.952689 2.6126e-16)
(-0.00224396 -0.349602 5.4599e-16)
(-0.00412055 -0.957618 0)
(-0.038697 -0.807755 0)
(-0.00361823 -0.973746 -2.65656e-16)
(-0.00452234 -0.955162 -1.03758e-18)
(-0.00339512 -0.977146 2.07343e-18)
(-0.0201574 -0.817182 2.9856e-16)
(-0.0160493 -0.85967 -5.71764e-16)
(-0.00653247 -0.930984 -2.75703e-16)
(-0.00628854 -0.619528 -6.83761e-16)
(-0.00157897 -0.344447 0)
(-0.00539258 -0.698934 1.12045e-19)
(-0.00613289 -0.703845 3.43502e-16)
(-0.00493692 -0.888588 -2.88162e-16)
(0.00313372 -0.92552 3.01521e-16)
(0.000326763 -0.985301 2.44326e-16)
(0.00867599 -0.838567 -5.7927e-16)
(-0.00192214 -0.500285 3.92029e-16)
(0.0146727 -0.661577 -1.82745e-16)
(-0.00625147 -0.936029 2.74705e-16)
(-0.00525838 -0.940931 5.39606e-16)
(0.010633 -0.549731 -1.8215e-16)
(-0.00231963 -0.57551 7.05538e-16)
(-0.00323557 -0.591352 3.46772e-16)
(-0.017995 -0.876268 2.85155e-16)
(-0.0139546 -0.799169 2.06541e-19)
(-0.00486599 -0.939642 0)
(0.000526967 -0.98961 -4.02511e-18)
(-0.00509315 -0.945202 5.37934e-16)
(-0.0043506 -0.949569 0)
(-0.00103504 -0.187129 -4.7511e-16)
(-0.00478208 -0.833089 0)
(-0.0158687 -0.71142 0)
(0.00274452 -0.961929 -2.73298e-16)
(0.0524157 -0.814027 -2.38551e-16)
(-0.00681678 -0.708941 1.33309e-18)
(-0.00342127 -0.679299 -3.51737e-16)
(-0.00415178 -0.600873 -3.44412e-16)
(-0.00112387 -0.990777 -5.3289e-16)
(-0.015851 -0.432919 2.66748e-19)
(-0.0228668 -0.468121 4.56254e-16)
(0.00300943 -0.933521 2.82893e-16)
(-0.0472557 -0.798561 0)
(-0.00520378 -0.88906 2.88893e-16)
(0.0250164 -0.854457 1.51815e-16)
(-0.00181981 -0.995163 2.57991e-16)
(0.00216669 -0.700627 1.46966e-16)
(-0.00405573 -0.953189 -5.38834e-16)
(-0.0170839 -0.846877 2.77964e-19)
(-0.0118889 -0.848373 2.89828e-16)
(0.0457636 -0.828455 2.35578e-16)
(-0.00168628 -0.700466 2.92319e-16)
(-0.00437456 -0.690539 -1.05734e-19)
(0.0267099 -0.820016 -3.11775e-16)
(-0.00576157 -0.701089 -1.48556e-16)
(-0.00320438 -0.890318 0)
(-0.00554193 -0.889669 4.47057e-18)
(-0.00513724 -0.834785 -2.87396e-16)
(-0.00331128 -0.964892 -2.6863e-16)
(-0.0369851 -0.743091 -1.63193e-16)
(-0.0110082 -0.262747 -8.49144e-16)
(-0.0106332 -0.843736 -2.84983e-16)
(-0.00033607 -0.702498 -3.11789e-16)
(-0.0152655 -0.880473 0)
(-0.0182957 -0.840322 9.10684e-18)
(-0.00721053 -0.704775 1.45036e-16)
(-0.00514433 -0.612153 0)
(-0.00785089 -0.714741 3.39927e-16)
(-0.0303595 -0.850047 2.82358e-16)
(-0.00445864 -0.273552 -6.31727e-16)
(0.0245639 -0.73109 0)
(0.00111037 -0.141285 5.02723e-16)
(-0.00339518 -0.459187 1.76868e-16)
(-0.00179008 -0.822552 0)
(0.0208751 -0.703641 1.76969e-16)
(-0.00400296 -1.00124 -2.52755e-16)
(0.0902364 -0.773113 -8.24363e-17)
(-0.00331649 -0.548668 0)
(-0.00278236 -0.776191 9.2212e-18)
(-0.0535554 -0.710513 -3.6176e-16)
(-0.0198154 -0.733034 0)
(0.0168212 -0.806855 0)
(-0.00144865 -0.274888 0)
(0.0592486 -0.793227 -1.56213e-16)
(-0.017803 -0.702279 0)
(0.00744842 -0.297298 8.59559e-16)
(0.000317033 -0.800023 4.92829e-20)
(0.00348292 -0.638649 0)
(-0.00489963 -0.281884 -1.74265e-19)
(0.00829333 -0.727923 0)
(0.000304957 -0.798052 2.94951e-16)
(0.0281035 -0.748268 -4.70093e-16)
(0.00283016 -0.306253 1.11486e-15)
(0.0464006 -0.768425 -8.98849e-17)
(0.00965724 -0.277332 0)
(0.00592924 -0.666371 3.41286e-16)
(0.00489214 -0.66573 0)
(0.00422366 -0.931667 1.37315e-16)
(0.0047297 -0.922681 -4.38769e-20)
(0.00794661 -0.927376 0)
(0.00788574 -0.923639 1.37334e-16)
(0.0442423 -0.745626 1.63693e-16)
(0.000634105 -0.328251 0)
(-0.000565041 -0.30015 0)
(0.00939965 -0.80269 1.52529e-16)
(0.0141559 -0.797228 0)
(-0.0125758 -0.308996 -2.85436e-16)
(0.0156602 -0.292217 -9.99441e-16)
(0.0162038 -0.892041 1.35044e-16)
(0.0240775 -0.855303 2.81978e-16)
(0.0187774 -0.871691 0)
(0.0305109 -0.812061 6.54105e-16)
(0.0205893 -0.720363 0)
(0.00853558 -0.790658 2.97873e-16)
(-0.0038125 -0.895332 0)
(0.00462287 -0.70107 0)
(-0.00220221 -0.801255 0)
(-0.0171809 -0.701724 1.45866e-16)
(-0.0035201 -1.00941 -1.29128e-16)
(0.0017924 -0.961703 0)
(0.00121267 -0.147369 0)
(0.000683026 -0.440416 -3.75293e-16)
(-0.00404461 -0.281535 0)
(-0.0217677 -0.73078 3.64334e-16)
(-0.00120789 -0.954103 -6.53532e-17)
(-0.0438313 -0.738096 -1.68599e-16)
(0.0183254 -0.710183 0)
(0.0234625 -0.761557 -1.90534e-16)
(0.0166826 -0.715477 0)
(-0.00554845 -0.8602 0)
(-0.00414228 -0.122277 0)
(-0.0710576 -0.788576 -9.54887e-18)
(0.0262398 -0.709304 -1.5784e-16)
(-0.00183826 -0.967237 6.52192e-17)
(-0.0253056 -0.709271 -1.9137e-16)
(0.00700592 -0.704034 -1.86505e-16)
(-0.00135488 -0.86299 1.78387e-16)
(-0.00511468 -0.129938 -5.47168e-16)
(-0.0033357 -0.653868 -1.90564e-16)
(9.33388e-05 -0.862229 1.83031e-16)
(-0.00599068 -0.145371 -5.29316e-16)
(-0.00927427 -0.269191 3.29275e-16)
(0.00167629 -0.131942 -2.71807e-16)
(0.00627026 -0.29049 -6.12761e-16)
(0.0441014 -0.702686 -2.0531e-16)
(0.0016506 -0.957169 -1.67867e-16)
(0.00211772 -0.551244 -1.35718e-17)
(0.0567475 -0.777128 -3.68793e-16)
(0.0022826 -0.945092 -5.08833e-16)
(-0.00168559 -0.151453 0)
(0.00531987 -0.281711 -1.70164e-16)
(0.0324551 -0.785081 1.51816e-16)
(-0.000313592 -0.13704 0)
(0.0462759 -0.707365 1.97883e-16)
(0.00841908 -0.856685 0)
(-0.00195106 -0.128026 2.77297e-16)
(0.00948518 -0.894513 -1.16764e-17)
(0.0134808 -0.884232 1.67799e-16)
(0.0229101 -0.81942 -4.78728e-16)
(0.0140847 -0.8807 9.82625e-18)
(0.0239972 -0.834417 1.73486e-16)
(0.0182728 -0.635234 2.08968e-16)
(0.0169982 -0.840561 -2.12668e-16)
(0.00892269 -0.714518 -1.61723e-16)
(0.000985686 -0.661063 0)
(-0.000210687 -0.995359 -1.37636e-16)
(0.00339428 -0.775017 2.61094e-16)
(0.0320274 -0.75746 0)
(0.00932983 -0.797602 3.2271e-16)
(0.0115468 -0.680154 0)
(0.0010486 -0.797915 -3.27549e-16)
(-0.092837 -0.790394 1.7723e-16)
(-0.0305251 -0.712871 -8.4107e-20)
(-0.076873 -0.770109 -5.67533e-20)
(-0.0806637 -0.765065 -2.78069e-16)
(0.00109263 -0.271583 0)
(-0.00634252 -0.522729 1.13696e-16)
(0.0515024 -0.781323 3.62093e-16)
)
;

boundaryField
{
    back
    {
        type            empty;
    }
    front
    {
        type            empty;
    }
    left
    {
        type            noSlip;
    }
    top
    {
        type            uniformFixedValue;
        uniformValue    
        {
            type            scale;
            scale           
            {
                type            squarePulse;
                start           0.3;
                duration        0.3;
            }
            xScale          
            {
                type            constant;
                value           1;
            }
            value           
            {
                type            constant;
                value           (0 -0.7 0);
            }
        }
        value           uniform (0 -0.7 0);
    }
    right
    {
        type            noSlip;
    }
    bottom
    {
        type            zeroGradient;
    }
}


// ************************************************************************* //
