/*--------------------------------*- C++ -*----------------------------------*\
  =========                 |
  \\      /  F ield         | OpenFOAM: The Open Source CFD Toolbox
   \\    /   O peration     | Website:  https://openfoam.org
    \\  /    A nd           | Version:  9
     \\/     M anipulation  |
\*---------------------------------------------------------------------------*/
FoamFile
{
    format      ascii;
    class       surfaceScalarField;
    location    "0.34";
    object      phi;
}
// * * * * * * * * * * * * * * * * * * * * * * * * * * * * * * * * * * * * * //

dimensions      [0 3 -1 0 0 0 0];

internalField   nonuniform List<scalar> 
663
(
-3.25651e-08
-1.51101e-09
3.40761e-08
-1.55798e-08
-8.8134e-09
1.7371e-08
8.87897e-09
2.46452e-09
-2.22409e-08
1.97763e-08
3.38229e-09
-1.89621e-08
-8.47523e-09
2.58463e-08
-1.03313e-09
-3.1532e-08
-2.27738e-08
2.52383e-08
-2.20771e-09
-3.38364e-08
3.60441e-08
-3.41773e-08
3.19696e-08
-2.96318e-08
2.81208e-08
1.46934e-08
-2.19642e-08
7.27076e-09
-3.48695e-08
1.82937e-08
-3.6003e-09
-1.68062e-08
1.89623e-08
-2.15616e-09
-1.7723e-08
9.16788e-10
-1.65974e-08
1.76065e-08
-1.00909e-09
-1.79962e-08
1.39877e-09
2.20881e-08
-2.20881e-08
-2.41931e-08
2.88452e-08
-4.65217e-09
2.94448e-09
-2.71375e-08
2.39964e-08
1.975e-09
-2.59714e-08
2.77621e-08
-3.76566e-09
1.62553e-08
7.62956e-09
-2.38849e-08
-2.67e-08
4.45916e-09
-7.78289e-09
2.40382e-08
-1.53535e-08
1.81973e-08
-2.84389e-09
2.70621e-08
-2.99274e-08
2.86536e-09
-2.2602e-08
7.24853e-09
-1.64833e-08
2.66699e-08
-1.01866e-08
9.11078e-09
-2.55941e-08
1.83395e-08
-2.85194e-08
1.01799e-08
-6.25631e-09
2.45958e-08
-2.07447e-08
2.77294e-08
-6.98473e-09
-2.85806e-08
7.83594e-09
-1.44372e-08
-3.55903e-09
-2.24637e-08
8.02655e-09
4.11972e-09
1.79684e-08
-1.97949e-09
2.90416e-08
1.93337e-08
-2.28957e-09
-1.70441e-08
1.71243e-08
1.17209e-08
-1.75038e-08
2.73081e-08
-9.80426e-09
1.02583e-08
1.51344e-08
3.06293e-09
-6.82977e-09
1.61073e-09
-3.05362e-08
2.95223e-08
1.01383e-09
-2.63019e-08
2.73206e-08
-1.01874e-09
-1.59889e-08
1.59889e-08
-2.58077e-08
-7.42068e-09
2.4545e-08
2.87069e-08
-2.3047e-09
-2.64022e-08
2.18108e-08
-3.41558e-09
-1.83952e-08
-1.17929e-09
-3.03856e-08
3.15649e-08
2.95087e-08
-3.06879e-08
3.42403e-09
2.52829e-08
-2.71121e-08
-6.003e-10
-3.1805e-08
3.24053e-08
2.97212e-08
-3.03215e-08
1.96829e-08
2.12795e-09
-1.79684e-08
2.90817e-08
-2.87172e-08
-3.64556e-10
-3.24623e-08
3.21858e-08
2.765e-10
3.13351e-08
-3.13849e-08
4.97263e-11
-1.7994e-09
-3.23779e-08
5.68242e-11
-3.04424e-08
-2.98088e-08
3.00924e-08
-2.83561e-10
1.36842e-08
-2.2361e-08
-8.76354e-10
3.0385e-08
3.04289e-08
-7.07717e-10
2.72823e-08
-1.70796e-08
-5.52237e-09
1.83396e-10
-2.64853e-08
2.94037e-10
2.18302e-08
-2.21243e-08
2.63934e-09
4.44308e-10
-3.02531e-08
-6.54193e-10
3.47303e-08
-3.20077e-08
2.02725e-10
1.88274e-09
-2.14351e-08
4.08186e-09
1.73532e-08
2.47939e-08
1.69207e-11
-2.48108e-08
2.50136e-10
8.06788e-09
-8.31801e-09
1.96184e-09
-1.88102e-08
1.68484e-08
-2.1185e-08
-4.34697e-10
-3.20276e-08
9.41721e-10
-2.96589e-08
2.67557e-08
-1.43648e-09
2.48306e-08
-2.33941e-08
-2.96634e-08
2.99574e-08
-2.15495e-08
3.13642e-08
2.97787e-08
-3.03149e-08
5.36177e-10
-1.62882e-08
3.27373e-10
1.59609e-08
3.00391e-08
-2.60412e-10
3.26301e-08
-6.72566e-10
2.62681e-08
-2.62512e-08
1.0634e-10
8.55647e-09
-8.66281e-09
-3.3194e-08
-1.67548e-09
2.59694e-08
-2.74059e-08
2.61653e-09
2.47041e-08
2.52984e-08
6.70993e-10
-2.11432e-08
-7.37614e-09
6.58619e-09
8.06788e-09
-1.88102e-08
3.00728e-08
1.95855e-11
-1.70364e-10
-2.13791e-08
-3.08218e-08
2.96843e-08
1.13753e-09
3.00074e-08
-2.0371e-10
-2.98037e-08
2.97057e-08
-2.42078e-10
-2.16613e-08
2.17676e-08
2.64706e-08
-1.64002e-09
2.5704e-08
-4.05561e-10
8.31802e-09
-8.48838e-09
3.15735e-09
-1.68484e-08
1.3691e-08
8.55647e-09
-2.46412e-08
2.77985e-08
-2.82053e-08
-3.39952e-08
8.01194e-10
-3.31116e-08
3.40533e-08
-3.19175e-08
3.85514e-10
2.99942e-08
2.97624e-08
2.44965e-10
1.74048e-10
-3.32857e-08
-2.24193e-08
2.22155e-08
-1.89762e-08
-9.60443e-09
8.31075e-09
-8.31075e-09
2.59624e-08
-2.58462e-10
6.41966e-11
2.29677e-08
-2.30319e-08
-8.48838e-09
1.3691e-08
2.80419e-08
-2.51766e-08
1.0199e-08
-1.0199e-08
-1.19412e-08
1.20054e-08
2.35432e-10
-2.36312e-08
2.29235e-08
2.60651e-08
1.19412e-08
1.74987e-09
-6.80202e-11
2.18983e-08
2.62886e-08
-3.26122e-10
2.11456e-09
-3.07436e-08
-6.41231e-10
9.47811e-09
7.20883e-10
2.75886e-08
-1.30007e-09
2.85673e-08
-2.88257e-08
3.12353e-08
-3.03157e-08
-9.19607e-10
2.99878e-08
-2.25335e-10
6.80922e-11
-1.20054e-08
1.80637e-09
1.46232e-08
2.9833e-09
2.81076e-08
-5.18998e-10
-3.38212e-08
2.47928e-10
-2.16271e-08
-3.38143e-08
-3.15409e-10
3.41297e-08
2.761e-08
4.97628e-10
-4.68896e-11
-2.20774e-08
9.47811e-09
-6.80987e-10
1.01591e-08
1.81975e-10
-3.39963e-08
2.10744e-08
-2.17554e-08
-3.10578e-10
-2.29899e-08
2.33005e-08
-8.77772e-09
8.77772e-09
-8.8649e-09
8.71797e-11
-2.9411e-08
-8.73083e-09
8.66281e-09
2.49427e-08
8.73083e-09
-7.42603e-11
-2.2345e-08
2.79685e-08
-3.5846e-10
-5.39097e-10
2.85076e-08
3.14444e-08
-2.09132e-10
-9.36163e-10
2.28884e-08
-2.19522e-08
-3.12858e-08
3.07467e-08
-4.97959e-11
2.27533e-08
-2.27035e-08
-8.39239e-09
8.39239e-09
-9.32856e-09
-7.89233e-09
7.58175e-09
7.89233e-09
5.00057e-10
9.03331e-09
-9.08311e-09
9.03331e-09
-8.93916e-09
8.8649e-09
-2.54782e-08
1.00369e-09
2.44745e-08
8.93916e-09
9.41589e-11
1.14631e-08
-1.14631e-08
-7.74131e-10
-5.66918e-10
-2.97545e-08
-2.39463e-08
2.33794e-08
2.40189e-08
-2.49348e-08
2.40585e-08
-4.60312e-10
-2.36989e-08
-2.47354e-10
1.02286e-08
-1.0689e-08
-2.43823e-08
6.83336e-10
1.0689e-08
1.02286e-08
9.90486e-09
-9.90486e-09
9.65751e-09
-9.08311e-09
1.36842e-08
8.50552e-09
-8.50552e-09
1.01591e-08
7.58175e-09
8.09171e-09
-8.09171e-09
9.65751e-09
-9.32856e-09
3.2378e-10
8.21271e-10
2.85644e-08
2.95961e-08
-1.03172e-09
3.04174e-08
1.70344e-09
3.16287e-08
-3.33321e-08
2.99498e-08
4.67547e-10
2.99996e-08
3.1703e-08
3.00582e-08
1.57052e-09
6.27033e-11
2.99955e-08
3.77685e-10
2.82435e-08
-2.6673e-08
3.19057e-08
-2.98241e-08
-1.92526e-09
3.17494e-08
-2.9954e-08
1.29822e-10
3.19684e-08
2.80464e-08
-2.99716e-08
3.23461e-08
-2.40183e-10
3.19896e-08
4.14977e-11
3.24759e-08
3.27524e-08
2.70373e-08
3.25123e-08
-1.79706e-09
2.58159e-08
3.27217e-08
-7.32093e-10
8.36204e-09
-1.42387e-09
3.41455e-08
2.63052e-08
2.39289e-10
-3.23868e-08
3.21475e-08
3.24361e-10
3.27751e-08
-2.62863e-10
3.13513e-08
-2.86819e-08
2.81629e-08
8.36204e-09
3.15905e-08
1.20336e-10
3.22637e-08
-3.23841e-08
3.15835e-08
7.01678e-12
1.39925e-10
-3.27226e-08
3.25826e-08
3.17801e-08
-1.96571e-10
3.2494e-08
-3.33659e-08
8.71842e-10
3.19004e-08
3.2676e-08
3.20404e-08
2.64019e-08
-2.70784e-08
2.49222e-08
1.45493e-09
-3.48208e-08
2.67491e-08
3.2287e-08
-2.46693e-10
-3.37459e-08
-2.50364e-10
-2.62065e-08
-3.11163e-08
3.2291e-08
-3.95306e-12
-2.51892e-10
-9.40562e-09
9.40562e-09
2.36984e-10
3.28977e-08
-3.3148e-08
-1.92911e-09
2.79942e-08
-1.20236e-09
-2.36029e-09
2.72825e-08
3.3351e-08
-4.53343e-10
2.35843e-10
9.16978e-09
-3.30509e-08
-2.34784e-10
-2.90412e-08
3.30356e-08
3.33396e-08
-3.03967e-10
2.88665e-10
-2.76681e-08
-2.93049e-08
-3.23672e-08
2.31594e-08
-9.16978e-09
8.66664e-11
-2.26054e-08
2.25113e-08
-2.96458e-08
3.32101e-08
-5.76809e-12
2.88053e-08
-2.87995e-08
2.00549e-09
-1.61238e-08
-6.33991e-09
3.26837e-08
-3.24871e-08
3.55906e-09
-2.1559e-08
2.23027e-08
2.97438e-08
-3.22364e-10
-3.34988e-08
3.28276e-08
-3.28237e-08
-2.08642e-10
-2.94371e-08
-2.93016e-08
6.52785e-09
3.11221e-08
2.29998e-08
3.67012e-09
-2.29871e-08
-1.24818e-08
1.24818e-08
-2.97411e-08
-2.32184e-08
-3.9191e-09
-1.61587e-08
-2.10464e-08
1.5702e-08
1.0548e-08
3.04271e-08
-2.96634e-08
-2.97165e-09
1.0998e-08
1.5252e-08
4.08962e-09
1.40496e-08
1.22004e-08
-1.65541e-08
-1.6669e-08
2.95041e-08
-1.84414e-09
-2.33324e-08
-2.58952e-10
-1.50047e-09
-2.29004e-08
-6.45901e-09
1.77748e-08
-6.45901e-09
1.77748e-08
1.99175e-08
-2.87309e-08
-1.44251e-08
2.33041e-08
3.53899e-08
1.03546e-09
-1.60887e-09
2.84481e-08
-1.59113e-08
-6.17677e-09
3.53073e-09
-2.25069e-08
4.71046e-09
1.7612e-08
-1.36891e-08
2.58895e-08
-5.24782e-09
2.17601e-08
1.84215e-08
-3.79826e-09
5.24782e-09
2.19755e-08
1.69448e-08
-6.20897e-09
-1.93618e-08
5.29218e-09
-1.64037e-08
1.59036e-08
2.48876e-08
2.45411e-08
-2.46409e-08
-2.45481e-08
1.84853e-08
-6.34526e-09
4.94649e-09
2.19036e-08
-2.19451e-08
-4.94646e-09
4.94646e-09
-2.16112e-08
-2.10275e-08
2.68276e-08
2.55956e-08
-1.76657e-08
-2.1551e-08
-1.35565e-08
1.18249e-08
1.1894e-08
1.25609e-08
1.92312e-08
1.80614e-08
6.71595e-09
-6.71595e-09
-1.59113e-08
-3.50711e-09
1.03387e-08
-2.63333e-09
3.46029e-08
-2.24709e-09
-2.10853e-08
1.94257e-08
2.94712e-09
-2.23729e-08
1.97149e-08
-1.9044e-08
4.71046e-09
-2.80548e-08
-1.45575e-08
-1.24537e-08
-6.20897e-09
-5.29218e-09
2.05998e-08
-6.34526e-09
-4.94649e-09
-2.11437e-08
-2.57959e-08
2.42955e-08
2.05299e-08
4.99428e-09
1.67228e-08
-2.28996e-08
1.1332e-08
)
;

boundaryField
{
    back
    {
        type            empty;
        value           nonuniform List<scalar> 0();
    }
    front
    {
        type            empty;
        value           nonuniform List<scalar> 0();
    }
    left
    {
        type            calculated;
        value           uniform 0;
    }
    top
    {
        type            calculated;
        value           nonuniform List<scalar> 8(-2.625e-08 -2.625e-08 -2.625e-08 -2.625e-08 -2.625e-08 -2.625e-08 -2.625e-08 -2.625e-08);
    }
    right
    {
        type            calculated;
        value           uniform 0;
    }
    bottom
    {
        type            calculated;
        value           nonuniform List<scalar> 8(2.43932e-08 3.7205e-08 3.32231e-08 9.8413e-09 3.3474e-08 1.02231e-08 2.43477e-08 3.72926e-08);
    }
}


// ************************************************************************* //
