/*--------------------------------*- C++ -*----------------------------------*\
  =========                 |
  \\      /  F ield         | OpenFOAM: The Open Source CFD Toolbox
   \\    /   O peration     | Website:  https://openfoam.org
    \\  /    A nd           | Version:  9
     \\/     M anipulation  |
\*---------------------------------------------------------------------------*/
FoamFile
{
    format      ascii;
    class       volVectorField;
    location    "0.34";
    object      U;
}
// * * * * * * * * * * * * * * * * * * * * * * * * * * * * * * * * * * * * * //

dimensions      [0 1 -1 0 0 0 0];

internalField   nonuniform List<vector> 
464
(
(0.00367671 -0.940249 -1.60968e-17)
(0.00162545 -0.657971 0)
(0.0153793 -0.698769 0)
(-0.00264461 -0.716177 -3.53717e-16)
(-0.00701806 -0.537599 0)
(0.0773347 -0.755235 8.05856e-17)
(0.00107837 -0.970313 2.70629e-16)
(-0.0110597 -0.718667 0)
(-0.00260896 -1.00373 -9.12118e-20)
(-0.00338057 -0.982725 2.56084e-16)
(0.0059111 -0.840827 1.74421e-17)
(0.00482805 -0.644065 -1.05924e-17)
(-0.000400113 -0.998619 5.13356e-16)
(-0.00802667 -0.525781 0)
(0.00424458 -0.613496 2.32713e-16)
(0.00276418 -0.505017 -3.93254e-16)
(0.00248208 -0.623028 0)
(0.00571034 -0.518759 1.46588e-16)
(-0.0289066 -0.475583 3.17666e-16)
(0.0215392 -0.863602 -2.79945e-16)
(0.0252969 -0.837481 4.53343e-16)
(0.0428179 -0.831858 -7.76942e-17)
(0.0371345 -0.843124 3.83847e-17)
(0.0174507 -0.726385 0)
(0.00352476 -0.708715 3.17572e-16)
(0.0288774 -0.740251 -1.64866e-16)
(-0.00542205 -0.532488 -1.832e-16)
(-0.0621335 -0.804521 2.91259e-16)
(0.00965475 -0.647599 0)
(0.0521291 -0.811265 0)
(0.0465837 -0.79722 -1.97593e-17)
(0.0109701 -0.863402 -2.29097e-18)
(0.00103367 -0.80781 4.09006e-17)
(0.0040829 -0.80387 2.94722e-16)
(0.0117097 -0.867052 -2.89723e-16)
(0.000411492 -0.554515 -4.29194e-16)
(0.0163592 -0.672057 3.46693e-16)
(-0.0493214 -0.66131 4.36785e-17)
(-0.0578444 -0.759026 -2.52752e-18)
(0.0015262 -0.527695 0)
(0.0211347 -0.869377 -4.52652e-16)
(0.0251467 -0.827951 0)
(0.0317838 -0.855209 1.1107e-16)
(0.00858882 -0.519034 -3.84803e-16)
(0.00172857 -0.64032 3.50863e-16)
(0.00597389 -0.606868 2.4081e-17)
(-0.0350117 -0.831616 -2.8318e-16)
(-0.0288457 -0.704907 1.92811e-19)
(-0.0217797 -0.342628 0)
(-0.0656931 -0.776357 -3.55624e-17)
(0.0110634 -0.833246 3.28346e-16)
(-0.0479904 -0.743069 1.85667e-17)
(0.00691285 -0.565714 2.54813e-16)
(-0.0138359 -0.875719 2.68806e-16)
(-0.0216046 -0.870323 8.86157e-18)
(-0.0469452 -0.800922 -2.96812e-16)
(-0.0424969 -0.818571 0)
(-0.00940535 -0.909364 0)
(-0.0131522 -0.883449 2.85045e-16)
(0.00794259 -0.636271 0)
(-0.0417796 -0.577717 -3.94792e-16)
(-0.00483369 -0.828244 -5.85249e-16)
(-0.00546217 -0.931324 -5.43178e-16)
(-0.00804084 -0.899002 2.78288e-16)
(-0.00296967 -0.957962 5.87452e-20)
(-0.0103083 -0.868196 2.84092e-16)
(-0.00928138 -0.842785 2.85191e-16)
(-0.0323622 -0.517514 3.97616e-16)
(0.00379896 -0.787526 -1.44629e-16)
(-0.0207186 -0.846263 -2.8504e-16)
(-0.0122935 -0.845031 -2.84169e-16)
(-0.00305128 -0.885555 2.946e-16)
(0.00447544 -0.644201 0)
(-0.0376386 -0.791754 -3.1433e-16)
(-0.00411261 -0.686829 3.48179e-16)
(-0.0566611 -0.809166 -2.95798e-16)
(-0.00999785 -0.886572 2.85245e-16)
(0.0030642 -0.966475 -2.59003e-16)
(-0.0071072 -0.911555 2.74433e-16)
(0.0102036 -0.536465 1.86848e-16)
(-0.00975547 -0.647585 0)
(0.0802244 -0.789502 -8.15259e-17)
(0.00177407 -0.312485 5.73233e-16)
(0.0477917 -0.63466 -3.93063e-16)
(-0.000670557 -0.568885 0)
(-0.00824011 -0.917249 -9.99825e-20)
(-0.00465092 -0.887153 2.87714e-16)
(0.0751532 -0.767622 0)
(-0.0129806 -0.742035 0)
(-0.00548672 -0.836681 2.8595e-16)
(-0.00347526 -0.670355 -3.53466e-16)
(-0.00689069 -0.812535 0)
(-0.00792207 -0.888842 -2.89021e-16)
(-0.00579416 -0.602226 -3.29411e-16)
(-0.00738098 -0.840471 2.8609e-16)
(-0.0072683 -0.924404 2.70468e-16)
(-0.0105171 -0.899928 -2.74626e-16)
(0.0453655 -0.736381 7.61725e-17)
(-0.00120096 -0.323847 5.53106e-16)
(-0.00140466 -0.999176 -2.55339e-16)
(0.00235938 -0.740333 0)
(-0.0298956 -0.780326 -1.90525e-17)
(0.010719 -0.754951 0)
(0.0080415 -0.860294 2.27433e-18)
(0.0111148 -0.800594 0)
(-0.000384467 -0.168013 4.80309e-16)
(0.0240508 -0.446243 0)
(-0.00879916 -0.888064 -2.80945e-16)
(-0.00175688 -0.571374 3.53614e-16)
(-0.0252006 -0.861387 0)
(-0.00656881 -0.839415 0)
(-0.0367577 -0.831981 2.90455e-16)
(-0.00825159 -0.842049 0)
(-0.00266455 -0.579179 -3.50187e-16)
(-0.0215318 -0.76092 -9.91717e-18)
(0.00231277 -0.7677 5.06508e-18)
(-0.000992434 -0.317338 -5.62312e-16)
(0.0439818 -0.555068 -4.41957e-16)
(-0.000497802 -0.17277 -4.83922e-16)
(0.058785 -0.749998 1.89281e-17)
(-0.0301104 -0.840578 -2.66026e-16)
(-1.12286e-05 -0.994619 -8.16988e-18)
(-0.004051 -0.959314 -2.61123e-16)
(0.00232575 -0.938963 -2.7034e-16)
(-0.0113197 -0.884806 0)
(-0.0063514 -0.889916 -2.85857e-16)
(-0.00326036 -0.980699 2.66051e-16)
(-0.00476231 -0.694771 0)
(0.0123884 -0.858819 0)
(-0.000531252 -0.16874 -4.85822e-16)
(0.027344 -0.382722 3.70852e-16)
(0.00808375 -0.18194 -4.76973e-16)
(-0.028388 -0.390869 3.61228e-16)
(0.00899598 -0.783124 0)
(0.0366629 -0.701934 0)
(-0.000552427 -0.171405 4.84174e-16)
(0.0227127 -0.317038 8.18604e-16)
(-0.0482513 -0.772034 3.05261e-16)
(-0.00352515 -0.982878 -2.59245e-16)
(0.00834483 -0.222743 -4.59566e-16)
(0.0165864 -0.44976 0)
(-0.00706515 -0.889199 0)
(-0.00953596 -0.723189 -1.23431e-19)
(-0.0138715 -0.77023 -3.20346e-16)
(0.0289197 -0.486707 -4.55132e-16)
(-0.00288242 -0.583407 3.50943e-16)
(0.00133825 -0.794577 0)
(0.068255 -0.803314 0)
(-0.0122423 -0.888599 -1.51935e-20)
(0.00857582 -0.384016 1.03745e-15)
(0.00831896 -0.809491 -9.54489e-18)
(0.0255651 -0.79349 -2.94296e-16)
(0.00290648 -0.959152 2.97495e-16)
(-0.00588446 -0.838309 2.86385e-16)
(-0.000845274 -0.320938 5.45932e-19)
(0.0165005 -0.415652 5.23102e-16)
(0.0129875 -0.549773 0)
(0.0014109 -0.821399 0)
(-0.000642526 -0.995556 2.622e-16)
(-0.00298754 -0.676149 -3.56114e-16)
(-0.000771552 -0.986319 0)
(0.00699696 -0.83414 3.17104e-16)
(-0.00303164 -0.587383 -6.96509e-16)
(0.00238043 -0.203057 -1.70414e-19)
(0.00179161 -0.37765 -5.24975e-16)
(0.0125463 -0.268658 0)
(0.000662893 -0.980452 2.62236e-16)
(0.0139251 -0.641732 -3.57917e-16)
(0.00543942 -0.577164 -3.32714e-16)
(-0.000586552 -0.177403 -9.61444e-16)
(-0.00122226 -0.331552 -1.74187e-19)
(-0.00445501 -0.831766 2.9024e-16)
(-0.000991387 -0.326594 -1.65635e-19)
(0.0373243 -0.78211 7.95134e-17)
(-0.000860638 -0.329127 1.71942e-19)
(-0.00365295 -0.595769 3.46759e-16)
(0.000832862 -0.844114 -3.04819e-16)
(0.00580524 -0.856037 1.17399e-18)
(0.00326508 -0.934133 2.75638e-16)
(0.00451659 -0.596234 -4.10989e-17)
(0.0192177 -0.865169 -2.77995e-16)
(-0.00458443 -0.606243 -3.43211e-16)
(-0.00102803 -0.178241 0)
(-0.00357871 -0.335527 6.00207e-16)
(0.00453102 -0.309263 9.12859e-18)
(0.00343786 -0.322362 1.7449e-17)
(-0.00131252 -0.341256 0)
(-0.000629672 -0.183219 4.76755e-16)
(-0.000318206 -0.176144 9.62305e-16)
(-0.00122964 -0.334643 -1.07561e-18)
(-0.0231473 -0.764777 3.13699e-19)
(-0.00135 -0.337876 -5.49149e-16)
(-0.00783362 -0.238566 8.78052e-16)
(-0.0221016 -0.683393 3.2699e-16)
(-0.0144754 -0.846493 -2.78384e-19)
(-0.011499 -0.732655 3.25668e-19)
(0.0168015 -0.745016 3.26052e-16)
(-0.0249385 -0.843748 -2.76088e-19)
(0.00238453 -0.169892 4.96342e-16)
(-0.0178777 -0.753408 -3.25306e-16)
(-0.0161816 -0.667283 0)
(-0.00961743 -0.641185 0)
(-0.00693096 -0.387985 0)
(-0.0141644 -0.742255 -3.22451e-19)
(-0.000662836 -0.181068 0)
(-0.0106112 -0.406424 -8.04319e-18)
(-0.00316432 -0.209943 0)
(-0.00220038 -0.202153 4.63268e-16)
(-0.00337597 -0.365225 -5.30421e-16)
(-0.000642331 -0.174739 -4.82196e-16)
(0.00874432 -0.257185 -4.30134e-16)
(-0.000682204 -0.184788 0)
(-0.0166836 -0.293431 -4.09341e-16)
(-0.00310755 -0.19432 4.7839e-16)
(0.00237346 -0.212244 0)
(-0.000594175 -0.179331 4.79246e-16)
(0.00657926 -0.170258 -4.98811e-16)
(-0.00497126 -0.221105 -4.51143e-16)
(0.00443376 -0.178095 -2.16577e-19)
(-0.00168975 -0.196728 4.6722e-16)
(0.000329434 -0.191147 -4.70291e-16)
(-0.00468007 -0.374945 -5.23839e-16)
(-0.0122919 -0.653262 3.3015e-16)
(-0.00930229 -0.884935 -5.54524e-16)
(0.000474211 -0.864909 -2.99532e-16)
(0.00505959 -0.875209 2.81405e-16)
(0.000239328 -0.88333 0)
(0.0130347 -0.906178 -1.31878e-16)
(0.00473831 -0.891725 8.79715e-18)
(0.000718723 -0.898715 2.89448e-16)
(0.00435878 -0.906126 -2.77815e-16)
(0.0102975 -0.895758 3.4153e-17)
(0.00720652 -0.912626 0)
(-0.00637319 -0.922016 2.67409e-16)
(0.0104231 -0.837131 -3.24956e-16)
(0.00045092 -0.913158 0)
(0.00961292 -0.903916 1.17432e-19)
(0.00882907 -0.920475 1.21751e-19)
(0.00285465 -0.918141 -2.7437e-16)
(0.0138812 -0.840143 -2.84053e-16)
(-0.000328892 -0.924218 2.76636e-16)
(0.00714775 -0.926758 2.66307e-16)
(0.00993712 -0.900636 -2.8474e-16)
(0.00353406 -0.928265 0)
(0.000730851 -0.935483 0)
(0.00405662 -0.783192 7.53815e-20)
(0.00313676 -0.938715 8.43323e-18)
(0.0132297 -0.638105 0)
(0.00948617 -0.906712 0)
(0.0119657 -0.353826 0)
(0.00893541 -0.92952 2.58691e-16)
(0.00935188 -0.82988 6.0185e-16)
(-0.00490054 -0.947315 2.69613e-16)
(-0.00578276 -0.890097 -2.86032e-16)
(0.000516879 -0.945202 0)
(0.00207046 -0.947274 0)
(-0.0129676 -0.825235 0)
(0.0137117 -0.193733 4.8678e-16)
(-0.000730606 -0.953713 2.80244e-16)
(0.0080612 -0.943266 0)
(0.0019681 -0.956075 -2.74893e-16)
(-0.00388584 -0.959483 -5.39091e-16)
(0.00025192 -0.961355 -2.76576e-16)
(0.00214955 -0.923049 2.61052e-16)
(0.00247726 -0.962656 2.75847e-16)
(0.000974833 -0.951175 -5.40856e-16)
(0.000114874 -0.968821 5.36766e-19)
(-0.0394446 -0.777142 9.47136e-18)
(0.00431138 -0.771227 -1.89465e-16)
(0.00654046 -0.951285 -2.54382e-16)
(0.0280469 -0.692131 2.89161e-16)
(0.00222621 -0.970698 0)
(-0.000297456 -0.981946 -2.59644e-16)
(0.0023633 -0.831488 -1.49158e-16)
(0.00163321 -0.9654 8.45588e-18)
(0.000594755 -0.975856 0)
(0.0018179 -0.975511 0)
(-0.00771678 -0.630515 3.35873e-16)
(-0.0013877 -0.191835 0)
(-0.00379277 -0.683051 -1.06218e-19)
(-0.00334175 -0.970074 -2.08591e-18)
(-0.0218644 -0.790332 2.0334e-19)
(-0.00274171 -0.357143 0)
(-0.0376809 -0.71959 3.16305e-16)
(0.00545224 -0.836164 -1.89082e-16)
(-0.00442602 -0.952685 2.61261e-16)
(-0.00224392 -0.349603 5.4599e-16)
(-0.00412054 -0.957613 0)
(-0.038697 -0.807755 0)
(-0.00361866 -0.973742 -2.65657e-16)
(-0.00452234 -0.955158 -1.03759e-18)
(-0.0033956 -0.977142 2.07344e-18)
(-0.0201575 -0.817182 2.98561e-16)
(-0.0160495 -0.859669 -5.71764e-16)
(-0.00653295 -0.930982 -2.75704e-16)
(-0.00628844 -0.619529 -6.83762e-16)
(-0.00157891 -0.344447 0)
(-0.00539259 -0.698933 1.12048e-19)
(-0.00613289 -0.703844 3.43502e-16)
(-0.00493735 -0.888584 -2.88163e-16)
(0.00313372 -0.92552 3.01521e-16)
(0.000326541 -0.985299 2.44326e-16)
(0.00867599 -0.83857 -5.79269e-16)
(-0.00192181 -0.500289 3.92028e-16)
(0.0146725 -0.661578 -1.82745e-16)
(-0.00625188 -0.936027 2.74705e-16)
(-0.00525872 -0.940929 5.39608e-16)
(0.0106328 -0.549733 -1.8215e-16)
(-0.00231995 -0.57551 7.05538e-16)
(-0.00323552 -0.591352 3.46772e-16)
(-0.0179951 -0.876267 2.85155e-16)
(-0.0139545 -0.799168 2.06542e-19)
(-0.00486657 -0.939641 0)
(0.000526863 -0.989608 -4.02511e-18)
(-0.00509342 -0.945198 5.37936e-16)
(-0.00435075 -0.949565 0)
(-0.00103498 -0.18713 -4.7511e-16)
(-0.00478189 -0.833086 0)
(-0.0158688 -0.71142 0)
(0.00274427 -0.961929 -2.73297e-16)
(0.0524156 -0.814027 -2.38551e-16)
(-0.0068168 -0.708941 1.33309e-18)
(-0.00342148 -0.679297 -3.51738e-16)
(-0.00415171 -0.600873 -3.44413e-16)
(-0.00112437 -0.990774 -5.32891e-16)
(-0.015851 -0.432919 2.66748e-19)
(-0.0228669 -0.468121 4.56254e-16)
(0.00300998 -0.933522 2.82893e-16)
(-0.0472558 -0.79856 0)
(-0.00520417 -0.889056 2.88894e-16)
(0.0250163 -0.854456 1.51815e-16)
(-0.00182082 -0.995159 2.57992e-16)
(0.00216665 -0.700627 1.46966e-16)
(-0.00405626 -0.953187 -5.38835e-16)
(-0.0170839 -0.846877 2.77965e-19)
(-0.0118889 -0.848373 2.89828e-16)
(0.0457636 -0.828454 2.35578e-16)
(-0.00168629 -0.700466 2.9232e-16)
(-0.00437458 -0.690538 -1.0574e-19)
(0.0267096 -0.820016 -3.11775e-16)
(-0.00576161 -0.701089 -1.48557e-16)
(-0.00320355 -0.890322 0)
(-0.00554217 -0.889665 4.47058e-18)
(-0.00513715 -0.834782 -2.87397e-16)
(-0.00331171 -0.964888 -2.68631e-16)
(-0.0369851 -0.743091 -1.63193e-16)
(-0.0110081 -0.262747 -8.49144e-16)
(-0.0106333 -0.843735 -2.84983e-16)
(-0.000336245 -0.702498 -3.11789e-16)
(-0.0152656 -0.880473 0)
(-0.0182957 -0.840322 9.10684e-18)
(-0.0072106 -0.704775 1.45036e-16)
(-0.00514422 -0.612153 0)
(-0.0078509 -0.714741 3.39927e-16)
(-0.0303595 -0.850047 2.82358e-16)
(-0.00445776 -0.273554 -6.31728e-16)
(0.024564 -0.73109 0)
(0.00111008 -0.141287 5.02722e-16)
(-0.00339533 -0.459187 1.76868e-16)
(-0.00178788 -0.822547 0)
(0.0208748 -0.703642 1.76969e-16)
(-0.00400404 -1.00123 -2.52755e-16)
(0.0902362 -0.773114 -8.24364e-17)
(-0.00331593 -0.548668 0)
(-0.00278203 -0.776195 9.22118e-18)
(-0.0535555 -0.710513 -3.6176e-16)
(-0.0198155 -0.733034 0)
(0.0168206 -0.806857 0)
(-0.00144845 -0.274891 0)
(0.0592486 -0.793227 -1.56213e-16)
(-0.017803 -0.702279 0)
(0.00744838 -0.297301 8.59556e-16)
(0.000316987 -0.800027 4.92858e-20)
(0.00348279 -0.638652 0)
(-0.0048995 -0.281887 -1.7428e-19)
(0.00829318 -0.727923 0)
(0.000305099 -0.798055 2.9495e-16)
(0.0281036 -0.748269 -4.70093e-16)
(0.00283005 -0.306256 1.11485e-15)
(0.0464006 -0.768425 -8.98849e-17)
(0.00965731 -0.277334 0)
(0.00592872 -0.666375 3.41285e-16)
(0.00489176 -0.665734 0)
(0.00422308 -0.931668 1.37315e-16)
(0.00472899 -0.922681 -4.38803e-20)
(0.00794604 -0.927376 0)
(0.00788498 -0.923639 1.37334e-16)
(0.044242 -0.745626 1.63693e-16)
(0.000634085 -0.328253 0)
(-0.000565003 -0.300152 0)
(0.00939904 -0.802692 1.52529e-16)
(0.0141553 -0.79723 0)
(-0.0125759 -0.308997 -2.85436e-16)
(0.0156603 -0.292218 -9.9944e-16)
(0.0162035 -0.89204 1.35044e-16)
(0.0240773 -0.855303 2.81978e-16)
(0.0187773 -0.871691 0)
(0.0305109 -0.812061 6.54106e-16)
(0.0205893 -0.720364 0)
(0.00853572 -0.790661 2.97872e-16)
(-0.00381234 -0.895325 0)
(0.00462287 -0.70107 0)
(-0.00220053 -0.801258 0)
(-0.0171809 -0.701724 1.45866e-16)
(-0.00352345 -1.00941 -1.29128e-16)
(0.00179457 -0.961706 0)
(0.00121293 -0.147371 0)
(0.000683052 -0.440416 -3.75293e-16)
(-0.00404451 -0.281538 0)
(-0.0217677 -0.73078 3.64334e-16)
(-0.00120849 -0.954098 -6.53534e-17)
(-0.0438313 -0.738096 -1.68599e-16)
(0.0183252 -0.710183 0)
(0.0234625 -0.761557 -1.90534e-16)
(0.0166823 -0.715477 0)
(-0.00554812 -0.860196 0)
(-0.00414224 -0.122278 0)
(-0.0710576 -0.788576 -9.54888e-18)
(0.0262395 -0.709304 -1.5784e-16)
(-0.00184149 -0.967231 6.52194e-17)
(-0.0253057 -0.709271 -1.9137e-16)
(0.00700569 -0.704034 -1.86505e-16)
(-0.00135484 -0.862993 1.78386e-16)
(-0.0051147 -0.129939 -5.47166e-16)
(-0.00333494 -0.653871 -1.90563e-16)
(9.32849e-05 -0.862231 1.83031e-16)
(-0.00599075 -0.145373 -5.29314e-16)
(-0.0092743 -0.269194 3.29274e-16)
(0.00167627 -0.131944 -2.71806e-16)
(0.00627078 -0.290491 -6.1276e-16)
(0.0441015 -0.702686 -2.0531e-16)
(0.00164983 -0.957169 -1.67867e-16)
(0.00211741 -0.551247 -1.35717e-17)
(0.0567474 -0.777128 -3.68793e-16)
(0.00228171 -0.945091 -5.08833e-16)
(-0.00168566 -0.151453 0)
(0.00531985 -0.281712 -1.70164e-16)
(0.032455 -0.785081 1.51816e-16)
(-0.00031366 -0.13704 0)
(0.0462758 -0.707366 1.97883e-16)
(0.00841854 -0.856686 0)
(-0.0019511 -0.128026 2.77297e-16)
(0.0094849 -0.894513 -1.16764e-17)
(0.0134805 -0.884231 1.678e-16)
(0.0229098 -0.81942 -4.78728e-16)
(0.0140843 -0.8807 9.82626e-18)
(0.0239971 -0.834417 1.73486e-16)
(0.0182727 -0.635235 2.08968e-16)
(0.0169981 -0.84056 -2.12668e-16)
(0.00892264 -0.714519 -1.61722e-16)
(0.000985411 -0.661068 0)
(-0.000211377 -0.995362 -1.37636e-16)
(0.00339386 -0.775021 2.61093e-16)
(0.0320272 -0.75746 0)
(0.0093295 -0.797603 3.2271e-16)
(0.0115462 -0.680158 0)
(0.00104784 -0.797917 -3.27548e-16)
(-0.092837 -0.790394 1.7723e-16)
(-0.030525 -0.712871 -8.41075e-20)
(-0.076873 -0.770109 -5.67538e-20)
(-0.0806637 -0.765064 -2.78069e-16)
(0.00109274 -0.271586 0)
(-0.00634245 -0.522732 1.13696e-16)
(0.0515021 -0.781323 3.62093e-16)
)
;

boundaryField
{
    back
    {
        type            empty;
    }
    front
    {
        type            empty;
    }
    left
    {
        type            noSlip;
    }
    top
    {
        type            uniformFixedValue;
        uniformValue    
        {
            type            scale;
            scale           
            {
                type            squarePulse;
                start           0.3;
                duration        0.3;
            }
            xScale          
            {
                type            constant;
                value           1;
            }
            value           
            {
                type            constant;
                value           (0 -0.7 0);
            }
        }
        value           uniform (0 -0.7 0);
    }
    right
    {
        type            noSlip;
    }
    bottom
    {
        type            zeroGradient;
    }
}


// ************************************************************************* //
