/*--------------------------------*- C++ -*----------------------------------*\
  =========                 |
  \\      /  F ield         | OpenFOAM: The Open Source CFD Toolbox
   \\    /   O peration     | Website:  https://openfoam.org
    \\  /    A nd           | Version:  9
     \\/     M anipulation  |
\*---------------------------------------------------------------------------*/
FoamFile
{
    format      ascii;
    class       surfaceScalarField;
    location    "0.67";
    object      phi;
}
// * * * * * * * * * * * * * * * * * * * * * * * * * * * * * * * * * * * * * //

dimensions      [0 3 -1 0 0 0 0];

internalField   nonuniform List<scalar> 
2420
(
1.08769e-06
-9.79845e-07
-1.07847e-07
-3.42244e-08
3.42244e-08
3.51211e-07
-6.0294e-08
-2.90917e-07
1.6755e-07
-1.6755e-07
-6.96443e-07
2.70275e-07
4.26169e-07
3.10127e-07
-3.18731e-07
8.60374e-09
3.31074e-07
2.01367e-08
-8.71516e-07
8.95348e-08
7.81981e-07
1.37894e-06
-1.62612e-06
2.47184e-07
-5.04539e-07
-1.91904e-07
-6.13906e-07
4.51902e-08
5.68716e-07
-6.51085e-07
3.71797e-08
-8.71516e-07
-1.25874e-07
6.90982e-08
5.67754e-08
-9.52051e-08
1.04397e-07
-9.19184e-09
-2.95042e-07
1.59462e-07
1.3558e-07
8.20957e-07
-7.28846e-08
-7.48073e-07
5.01806e-07
-9.12425e-07
4.10619e-07
-1.837e-07
1.66896e-07
1.68041e-08
-9.10951e-08
-3.47785e-08
1.54453e-07
2.14555e-07
-3.69009e-07
-6.16492e-08
-5.79855e-07
7.49871e-07
-1.70016e-07
-7.36195e-07
1.5634e-07
5.47388e-07
5.40304e-07
2.2822e-07
5.92738e-07
-1.35036e-08
-2.81538e-07
-5.56635e-07
-9.41544e-07
1.49818e-06
-1.25776e-06
7.01121e-07
2.0705e-07
-1.1914e-07
-8.79104e-08
-7.44282e-07
-2.46497e-07
9.90778e-07
-5.82324e-08
1.67955e-07
-1.09723e-07
-4.78754e-07
4.27444e-07
5.13096e-08
-3.75093e-07
3.0001e-07
7.50836e-08
-4.2038e-07
9.22187e-07
-2.4018e-07
-1.34914e-07
8.24981e-08
2.27629e-07
7.08001e-08
-1.05024e-07
-7.90911e-08
-3.99662e-07
-1.27609e-07
1.61834e-07
2.72499e-07
-1.18046e-07
6.65869e-07
9.29742e-08
-7.58843e-07
2.95689e-07
-3.7478e-07
-1.11115e-07
9.2939e-08
1.81762e-08
6.39673e-08
1.314e-08
-7.71073e-08
9.03096e-08
7.72401e-08
-1.56463e-07
-1.10869e-08
7.81569e-08
-1.41896e-08
-3.25479e-07
4.80355e-07
-1.54876e-07
-9.43238e-08
3.90013e-07
-2.0629e-07
-1.12441e-07
-1.18526e-07
-4.90144e-07
3.94939e-07
-9.95727e-07
-6.30395e-07
5.01171e-07
-2.73796e-09
-4.98433e-07
2.19759e-07
-6.80041e-08
-1.51755e-07
-5.31318e-08
-1.10655e-07
1.63787e-07
2.52334e-07
-2.07144e-07
-1.48949e-07
4.04139e-08
1.08535e-07
4.60845e-07
-2.41086e-07
7.30195e-08
-8.17301e-07
2.09429e-07
-2.21015e-07
1.15864e-08
-9.42547e-07
-3.72984e-08
-9.64786e-07
1.05432e-06
-8.13817e-08
7.51003e-08
6.28139e-09
-5.33345e-07
2.86849e-07
-4.07101e-08
5.47698e-08
-1.40597e-08
-3.09536e-07
1.58737e-07
1.50799e-07
4.66089e-07
-8.86469e-07
-7.03258e-08
-5.72025e-08
-2.02271e-07
3.1159e-07
-2.63139e-07
-4.84513e-08
4.88808e-08
5.55161e-08
5.33275e-07
9.92126e-08
-6.32488e-07
-5.34236e-08
-7.00425e-08
1.23466e-07
-1.19101e-06
-6.67459e-08
-3.01623e-07
7.67712e-07
2.19367e-07
5.18861e-08
1.55164e-07
1.46724e-08
-9.60541e-08
-9.17538e-08
3.83302e-08
5.74126e-07
-7.29557e-08
-8.94971e-08
-2.16181e-08
8.55633e-08
2.11253e-07
-2.96816e-07
3.08393e-07
-4.50792e-07
1.42399e-07
6.57735e-07
-1.24461e-07
2.42774e-07
6.88163e-08
1.01784e-06
-1.90828e-07
-8.27016e-07
-4.38205e-07
3.11204e-08
4.07085e-07
-4.16768e-07
-2.14376e-08
-1.98015e-07
-9.29019e-08
-1.03081e-07
-8.06196e-08
5.52968e-08
-3.80776e-07
9.57489e-08
1.14358e-07
-2.10107e-07
2.63074e-08
1.40589e-07
-7.48512e-08
3.41411e-08
-9.29795e-08
-5.59692e-08
1.56582e-07
1.13737e-08
-4.69936e-07
1.34905e-07
3.35031e-07
6.55885e-08
-2.63604e-07
-1.0022e-07
9.97894e-08
4.30584e-10
2.71447e-07
2.08908e-07
-2.94342e-08
-7.07858e-08
2.2314e-07
-3.07026e-07
8.38866e-08
4.09747e-08
1.68454e-07
-1.13217e-06
2.81673e-07
8.50497e-07
-1.7856e-08
-1.01284e-07
-1.78088e-07
-2.91849e-07
2.13755e-07
-2.81759e-07
7.14547e-09
-3.38495e-07
3.31349e-07
-3.65579e-08
-6.14528e-07
4.13721e-07
-1.99966e-07
3.33769e-07
-2.48206e-07
1.06334e-06
-2.0022e-07
-8.6312e-07
-1.08375e-07
-9.09366e-07
-2.22804e-07
1.30723e-07
1.01859e-07
9.15985e-07
2.08141e-07
1.49983e-08
3.60031e-07
5.36895e-08
1.903e-08
-7.79904e-07
7.60874e-07
-7.38405e-08
-7.23324e-07
7.97164e-07
-3.79014e-08
-4.20379e-07
4.58281e-07
-4.24992e-08
-3.2352e-08
-9.99898e-07
2.60279e-07
7.39619e-07
-3.40512e-07
2.46188e-07
-5.86267e-08
1.54376e-07
-1.51843e-07
3.11305e-07
1.72545e-07
-3.75625e-07
2.0308e-07
4.62063e-07
-1.79098e-07
-2.82965e-07
-3.35863e-07
3.43009e-07
-1.22021e-06
2.55426e-07
-6.03906e-07
-3.95993e-07
-4.72072e-09
4.72072e-09
-2.17633e-07
-2.76014e-07
4.93647e-07
-4.2143e-07
-2.49217e-07
6.70647e-07
-4.90144e-07
-1.10655e-07
-1.59191e-08
7.06888e-08
4.60845e-07
1.50283e-07
-1.63787e-07
-1.50283e-07
-1.24816e-08
1.62765e-07
3.31176e-08
6.06261e-07
-6.39379e-07
-3.78747e-08
7.48073e-07
-7.10198e-07
-6.06261e-07
6.25291e-07
-2.95508e-07
6.39379e-07
-3.43871e-07
1.18945e-07
2.41086e-07
-2.24926e-07
-1.18945e-07
3.43871e-07
-7.23683e-07
8.16535e-07
-9.28524e-08
7.23683e-07
-6.50664e-07
-8.16535e-07
7.10198e-07
1.06337e-07
-6.25291e-07
7.24504e-07
-7.24504e-07
6.50664e-07
-2.61264e-07
-1.89528e-07
-5.11795e-08
-2.89333e-07
3.82833e-08
3.6817e-08
-3.43673e-07
7.11095e-07
-3.67423e-07
1.53974e-07
-1.47618e-08
-6.39181e-07
-2.56791e-07
-1.00978e-06
1.26657e-06
-1.34957e-06
3.53843e-07
5.47224e-07
1.63871e-07
5.80342e-07
1.32808e-07
-2.25787e-07
-1.57194e-06
7.44684e-07
-9.44904e-07
5.72903e-08
2.88449e-07
-5.90072e-07
9.06518e-07
-9.79402e-07
-7.79274e-07
-4.96787e-08
8.28953e-07
-5.497e-07
3.24774e-07
-1.21954e-06
2.54024e-07
9.65513e-07
-9.37865e-07
1.17008e-07
3.45055e-07
-1.28494e-07
4.16943e-07
1.24076e-08
3.74029e-07
-3.86437e-07
-5.59133e-08
-3.51817e-08
-1.20634e-07
-6.28772e-07
-1.50502e-07
3.04356e-08
-2.36726e-07
-2.49037e-07
2.11136e-07
5.48412e-08
-1.03722e-07
4.88805e-08
-4.38677e-07
-8.27664e-08
5.21443e-07
-3.49633e-08
-5.67905e-08
-4.26269e-07
5.6871e-07
3.67042e-09
-5.7238e-07
-7.14912e-07
8.61397e-08
5.29253e-08
-3.97853e-08
-1.0934e-07
-1.11675e-07
-3.31452e-07
-1.36737e-07
4.68189e-07
-1.89426e-07
7.08993e-08
-4.47656e-07
-1.61692e-07
6.09348e-07
-2.25767e-08
2.37257e-07
-5.30423e-07
3.51692e-07
-5.42521e-07
-4.33438e-07
-2.81474e-07
-3.28599e-08
-2.38859e-08
5.67458e-08
7.77001e-08
-1.1056e-07
-3.56061e-07
-2.08121e-07
5.64182e-07
-1.45495e-07
3.60051e-07
-4.23814e-07
4.44887e-07
-2.10734e-08
4.28209e-07
-5.64946e-07
-2.35108e-07
4.07653e-07
4.28397e-07
-1.28387e-07
2.16585e-07
-7.79185e-07
5.626e-07
3.19638e-07
-5.09063e-07
-3.45242e-07
1.00496e-06
4.76686e-08
-1.03582e-07
3.14786e-08
-4.73976e-08
1.99562e-07
-4.39742e-07
-1.13872e-06
8.81933e-07
4.40832e-07
3.65909e-07
-8.06741e-07
1.91719e-07
-6.25157e-07
4.31937e-08
-1.26235e-07
3.95184e-07
3.22598e-08
-8.52475e-07
7.1891e-07
1.33565e-07
-2.86295e-08
6.41474e-07
-4.36783e-07
-2.0469e-07
2.02644e-07
4.3883e-07
-3.77499e-07
-8.27184e-07
2.88578e-07
5.38606e-07
-1.54371e-07
-6.72813e-07
-3.58488e-07
3.36787e-07
2.17013e-08
-6.96418e-07
6.35706e-08
6.32848e-07
-4.82699e-08
-6.48148e-07
4.41412e-07
3.263e-07
4.24683e-07
2.0204e-08
-4.05975e-07
4.74869e-08
-5.98475e-07
3.92726e-07
3.54835e-08
-4.43416e-07
6.4606e-07
-2.52744e-07
9.10929e-08
1.61651e-07
2.1765e-08
1.84909e-08
3.63503e-08
-8.45109e-08
-1.68233e-07
-1.45025e-08
1.92232e-08
-6.02863e-07
-2.49612e-07
-1.40661e-07
2.09478e-07
1.07854e-06
-4.58997e-07
-6.19547e-07
-9.70415e-07
-3.79155e-07
1.65932e-07
9.10628e-07
1.00957e-07
-8.0181e-09
3.66738e-08
-1.40323e-08
-2.26415e-08
5.36223e-07
-6.32339e-08
4.87917e-07
-3.38353e-07
5.1944e-08
4.40072e-07
-4.92016e-07
-7.91477e-07
1.88614e-07
-3.4739e-07
2.18896e-07
3.80163e-07
-3.47903e-07
-4.93251e-07
-6.71931e-07
1.16518e-06
3.71431e-07
2.59884e-09
6.78737e-07
-2.39907e-07
-1.43154e-07
-1.74013e-08
5.40751e-08
9.48705e-07
-8.70718e-07
-7.79876e-08
4.14043e-07
-3.38804e-08
1.54346e-07
-2.05525e-07
4.06001e-07
-4.34631e-07
1.96598e-07
6.21823e-09
-2.02816e-07
3.94939e-07
6.85298e-07
-2.43886e-07
7.14162e-08
-1.01594e-07
4.73024e-07
5.29854e-07
-2.03554e-07
2.64342e-07
4.20956e-07
7.06904e-07
3.7164e-07
-2.70828e-07
-5.20649e-07
1.38419e-07
1.75673e-07
-3.14091e-07
4.94139e-07
8.47199e-07
-1.34134e-06
-3.75676e-07
4.88281e-07
-1.12606e-07
8.68544e-07
-8.64206e-07
-4.33861e-09
-2.58981e-07
5.23322e-07
-5.17229e-08
-4.38421e-07
-3.89941e-08
-1.27288e-08
-1.17026e-07
5.37982e-07
3.94079e-07
7.41098e-08
4.6456e-07
-3.56091e-07
-1.08469e-07
3.9297e-07
6.78301e-07
-6.81971e-07
9.14317e-08
-6.95511e-08
3.64067e-07
-2.94516e-07
9.54915e-07
-1.00459e-06
1.50605e-07
2.4212e-07
4.05219e-07
1.18609e-07
-5.23828e-07
7.81981e-07
-5.18164e-07
1.92232e-08
4.4364e-07
-3.08916e-07
-1.34723e-07
-4.136e-07
4.62726e-07
-4.91256e-08
-1.00804e-07
1.56101e-07
-1.00804e-07
-5.44028e-07
3.6074e-07
1.83288e-07
4.89191e-07
1.89546e-07
-5.026e-07
4.44889e-07
5.77104e-08
-4.1985e-07
5.85781e-07
1.4248e-07
-2.08995e-07
6.65143e-08
6.31643e-07
-1.42453e-07
-2.10254e-07
-2.19134e-07
4.29389e-07
-9.49695e-07
9.1182e-07
-1.25562e-06
7.62371e-07
8.55854e-08
2.93086e-07
3.37779e-07
6.80543e-07
-4.88995e-08
-4.15999e-07
4.67944e-07
-2.65696e-07
1.96145e-07
5.09599e-08
-1.38808e-07
-3.98739e-08
2.12709e-08
-7.72401e-08
2.12709e-08
-2.17347e-09
-1.73701e-08
4.57442e-07
3.17101e-07
-3.4335e-07
2.62486e-08
-4.63883e-07
4.00649e-07
3.1623e-07
2.4868e-08
-2.4868e-08
4.1033e-07
1.75451e-07
-3.54331e-07
1.45336e-07
4.54421e-07
1.91639e-07
2.51392e-07
6.57093e-08
3.30187e-07
-6.38454e-07
3.98547e-07
-3.18847e-07
-4.65125e-07
-5.58829e-07
2.42161e-07
3.16669e-07
2.70873e-07
-8.07499e-07
6.53129e-07
-4.38421e-07
-1.9809e-07
5.63498e-07
5.25654e-07
3.52272e-07
1.20752e-07
5.6995e-07
-5.6995e-07
6.76656e-08
-2.75786e-07
-7.43929e-07
-4.77165e-07
4.37291e-07
9.5171e-07
-1.12334e-06
1.71632e-07
2.55778e-07
4.24765e-07
-3.96293e-07
6.53872e-07
-2.55325e-07
-2.7191e-07
5.36281e-07
-2.64372e-07
7.9584e-07
-5.05711e-07
-2.90129e-07
2.24245e-08
-7.0913e-08
-2.74818e-07
1.22653e-06
1.18654e-06
-2.69743e-07
-9.16801e-07
-2.57729e-07
2.57729e-07
4.41895e-08
-4.69477e-07
4.69477e-07
-3.08926e-07
1.86032e-07
1.91403e-07
-3.77435e-07
1.78567e-07
-1.78567e-07
-4.56961e-07
-2.07571e-07
2.07571e-07
5.19949e-07
-5.11419e-07
-8.53007e-09
3.83463e-07
-3.83463e-07
-2.05396e-07
6.42511e-07
-1.18501e-07
-5.24009e-07
7.82159e-07
2.56323e-07
8.04636e-08
-6.00984e-07
2.7615e-07
-2.54448e-07
5.4905e-07
6.37495e-07
7.49626e-07
-8.27614e-07
-1.40598e-06
1.13624e-06
1.45802e-07
4.17696e-07
-1.68428e-07
7.75727e-07
2.65453e-07
3.13068e-07
6.43967e-07
-6.21708e-08
2.17036e-07
-1.4937e-07
1.59463e-07
4.83047e-07
-9.48247e-07
-5.63466e-08
5.81495e-07
-2.64827e-07
2.79286e-07
4.96442e-07
9.85504e-07
-5.60739e-07
-1.24523e-06
-5.52861e-07
-2.98601e-07
8.51461e-07
3.18158e-07
-2.84027e-07
-3.41306e-08
-3.98421e-07
9.47471e-07
-8.06931e-07
-5.72744e-08
3.36982e-09
2.68694e-07
-2.72064e-07
4.01381e-07
8.65365e-08
-8.62107e-07
-8.62035e-08
3.03239e-07
7.08001e-08
4.15272e-07
-5.33773e-07
-2.80497e-07
2.80497e-07
-5.90494e-07
-1.84317e-07
7.74811e-07
-7.9919e-08
-1.32607e-06
4.18642e-07
4.90521e-07
-8.91406e-08
-6.32948e-07
5.7952e-07
5.34275e-08
4.85212e-08
-5.06124e-07
4.57854e-07
-1.38012e-06
1.3002e-06
-8.29266e-07
1.10855e-06
2.95593e-07
-8.48454e-07
-9.88914e-07
-8.15377e-08
1.08409e-07
-2.6871e-08
1.56237e-07
-1.02132e-06
-1.2536e-07
1.14668e-06
1.36454e-07
6.55129e-07
-7.91582e-07
-4.15031e-07
3.2617e-07
6.01969e-07
-6.0175e-07
8.56115e-07
-2.54366e-07
-4.52673e-07
1.35074e-07
-2.42715e-07
1.07641e-07
8.72296e-08
2.89023e-07
7.07438e-08
-3.59766e-07
-8.17265e-07
-5.31806e-07
-6.24991e-07
1.1568e-06
-1.3957e-07
3.25602e-07
1.31349e-07
4.32832e-07
-1.83379e-07
1.83379e-07
-3.47776e-07
9.27296e-07
7.90003e-08
1.14757e-06
-1.22657e-06
-1.3154e-07
4.53368e-08
1.30145e-06
-1.14521e-06
-1.41339e-06
8.73241e-08
-8.79581e-07
-7.47143e-07
4.18388e-07
3.28755e-07
7.52918e-08
-3.0102e-07
-4.46123e-07
-1.63403e-07
-8.19679e-07
2.17929e-07
-5.33472e-07
1.67838e-06
-1.14491e-06
6.39762e-07
1.49982e-07
-7.89743e-07
-1.23489e-06
3.18093e-07
-1.79917e-07
-1.00417e-06
6.70821e-07
3.3335e-07
8.97633e-07
-3.25294e-07
-5.72338e-07
-8.55297e-09
-1.40484e-06
5.55096e-07
5.35367e-08
-1.13163e-06
8.06358e-07
3.25276e-07
-9.25171e-07
-1.52563e-06
9.92162e-07
-4.55507e-07
7.511e-07
-1.95278e-07
1.29289e-06
3.05154e-07
4.83915e-07
-7.89069e-07
9.19915e-07
-1.13557e-07
1.11795e-06
-1.98038e-07
2.66712e-07
-1.03891e-08
1.37154e-07
1.49853e-06
-4.66597e-07
-1.03193e-06
7.19034e-07
3.9892e-07
1.41178e-06
-6.92744e-07
-2.68462e-07
-1.14312e-06
1.41159e-06
2.67347e-07
-2.32824e-08
-2.44064e-07
9.14848e-08
-1.1799e-07
2.6505e-08
2.35102e-07
-7.13329e-08
-4.62441e-07
5.93756e-07
-2.88602e-07
-4.7756e-07
6.27542e-07
-5.03072e-07
-9.08299e-07
1.41137e-06
-1.51231e-07
6.81929e-08
2.74884e-07
-3.43077e-07
-3.456e-07
7.35358e-08
-1.87164e-07
-2.82627e-07
4.69791e-07
5.6021e-07
9.38316e-07
-5.23001e-07
2.43787e-07
2.79214e-07
6.47183e-07
1.16917e-07
-8.58954e-07
7.42037e-07
4.03917e-07
8.44261e-07
-1.24818e-06
-1.12806e-06
-7.87323e-07
3.67381e-07
4.19942e-07
-4.97969e-08
8.88335e-07
-7.92934e-07
9.09851e-07
-6.76714e-07
-1.5348e-07
8.30194e-07
5.03479e-07
-2.78954e-07
-8.83883e-07
1.16284e-06
-7.33086e-07
5.11712e-07
2.21374e-07
9.55668e-07
-2.09558e-07
-7.4611e-07
9.71107e-08
-5.74671e-07
-1.12172e-06
-1.57331e-07
4.32215e-07
1.82385e-07
6.06482e-07
-7.88867e-07
1.10443e-06
-2.60166e-07
-3.58613e-07
-6.05463e-07
9.64076e-07
2.68248e-07
-2.45966e-07
-8.22128e-08
-7.76741e-07
1.35048e-06
-3.58317e-07
-4.06254e-07
1.75046e-06
-1.3442e-06
-4.18719e-07
-3.68604e-07
5.99337e-07
-3.12488e-07
-7.33405e-07
1.1835e-06
-4.50096e-07
-6.13608e-07
1.09052e-06
-4.76908e-07
9.08783e-07
-1.10682e-06
1.80618e-07
-6.07376e-07
-2.20259e-08
6.29402e-07
-7.0047e-07
4.90912e-07
1.25244e-06
-1.6587e-06
1.01021e-06
-4.19206e-07
-5.91004e-07
-6.14381e-07
4.60902e-07
-2.80984e-07
-2.42017e-07
6.2448e-07
-6.2448e-07
-1.92693e-07
1.92693e-07
-2.31681e-08
2.31681e-08
1.61834e-07
1.56101e-07
-3.46683e-07
3.46683e-07
-1.50896e-07
1.50896e-07
6.98922e-08
-6.98922e-08
-1.31372e-07
-2.41746e-08
2.41746e-08
-1.56463e-07
6.19302e-07
-6.19302e-07
-6.22074e-08
6.22074e-08
5.47321e-07
-5.47321e-07
-2.42758e-07
2.42758e-07
-1.42653e-06
1.45311e-06
-2.65727e-08
-1.27375e-07
1.27375e-07
-1.02982e-07
1.02982e-07
3.87932e-07
9.62468e-07
-1.3504e-06
5.4377e-07
-8.03936e-07
1.64037e-06
-3.65705e-07
1.50737e-06
-1.23912e-06
6.85129e-07
-7.67342e-07
4.70211e-07
6.46453e-07
7.60963e-08
5.36052e-07
-6.12149e-07
-3.40029e-07
-2.07217e-07
7.69818e-07
3.14861e-07
5.08292e-07
-8.23153e-07
-2.11628e-07
-1.0086e-07
-1.77519e-06
6.30281e-07
-4.59362e-07
-1.15308e-07
6.71857e-07
-1.3945e-06
7.01756e-07
-6.55604e-07
-1.34139e-07
-9.21622e-07
5.63009e-07
7.29053e-07
-9.3627e-07
-1.25654e-06
-5.18656e-07
-2.8571e-07
-2.05805e-07
2.51142e-07
-3.7986e-07
1.12553e-08
8.33914e-07
-1.567e-07
-1.2347e-07
5.99032e-07
-3.43e-07
7.61225e-07
-8.76287e-08
5.4853e-07
-5.64656e-07
1.05294e-07
-1.41243e-06
7.98821e-07
-8.14965e-07
8.36871e-08
7.31277e-07
8.54816e-07
-1.20186e-06
3.47048e-07
8.08351e-08
-1.5078e-06
7.56143e-07
7.51656e-07
-1.47475e-06
7.41342e-07
-1.35197e-06
7.53487e-07
5.98481e-07
9.05639e-07
-9.27665e-07
-4.8072e-07
-4.85717e-07
-1.19919e-06
7.79987e-07
-7.70913e-07
-1.06677e-06
8.02358e-07
2.64413e-07
4.265e-07
-2.93023e-07
-1.36567e-06
-1.08712e-06
-2.6328e-07
-1.24816e-08
-9.75091e-07
1.64131e-07
8.10959e-07
-5.45059e-07
1.79354e-07
-6.21427e-07
-1.82509e-07
3.07154e-07
-4.86153e-07
-5.33804e-07
-5.57613e-07
-6.25665e-07
3.76264e-07
2.49401e-07
-1.38156e-07
-2.96225e-07
-5.10378e-08
5.8709e-07
-7.08978e-07
-7.18604e-07
-6.10626e-07
-7.05731e-08
-7.44391e-07
6.29898e-07
2.97397e-07
9.00508e-07
-8.16821e-07
-4.45706e-07
-2.16811e-07
-4.89272e-08
2.65738e-07
-9.07136e-07
-2.86785e-07
-4.23855e-07
2.67156e-07
4.9783e-07
-3.65022e-07
-1.38014e-06
4.93921e-07
9.45871e-07
-8.15924e-07
-1.29947e-07
2.52867e-08
-1.04771e-07
3.15321e-07
6.82591e-07
-7.1065e-07
2.55142e-07
1.57803e-06
-1.24926e-07
-3.04439e-07
-8.90569e-08
-8.19813e-07
9.0887e-07
8.97892e-07
8.62601e-09
-1.72732e-07
-1.03792e-06
1.5414e-06
-1.44829e-06
1.15207e-06
-2.12362e-07
1.60715e-06
-1.39479e-06
1.38501e-06
1.21326e-06
-1.6356e-06
4.2234e-07
-2.62949e-07
-1.18534e-06
-8.80763e-07
7.46624e-07
-1.71866e-06
1.00968e-06
-2.24861e-07
-3.08942e-07
8.93184e-07
-5.32358e-08
-7.14106e-07
9.37053e-07
-6.31661e-07
-1.39251e-07
2.0094e-07
-2.15e-07
-2.24546e-07
1.2941e-06
8.59882e-07
-1.30559e-06
-7.97977e-09
4.26218e-07
-4.18238e-07
-8.93443e-07
3.8548e-07
5.07963e-07
-5.75233e-07
-3.69154e-08
6.09851e-07
-6.80424e-07
-9.15408e-07
6.61042e-07
4.38117e-07
-3.31943e-07
-1.06174e-07
-1.9296e-07
1.60608e-07
-8.92016e-07
7.12099e-07
-1.2683e-07
-7.53933e-07
7.80317e-07
-4.90393e-08
9.38805e-09
8.65798e-07
-6.62106e-08
-7.99588e-07
-4.46311e-07
-5.89568e-07
4.34589e-07
-9.28059e-07
8.01228e-07
-1.17099e-07
-6.28469e-07
-4.72826e-07
9.05838e-07
-4.33013e-07
-9.36913e-07
-1.33234e-06
1.20741e-06
-1.45392e-07
-3.82414e-08
1.72733e-07
-9.88657e-07
-1.17596e-06
-1.45468e-06
4.16761e-07
-8.03868e-07
3.92259e-07
4.11609e-07
-8.54244e-07
3.6893e-07
4.85313e-07
3.89302e-07
-1.64599e-06
1.08837e-06
-9.17164e-07
7.71773e-07
-6.8814e-07
-2.28682e-07
6.04946e-07
2.73433e-07
8.37784e-07
-1.11122e-06
7.61113e-07
-4.16933e-07
-3.24721e-07
3.32033e-07
-7.31141e-09
-6.68499e-07
-2.97051e-07
9.6555e-07
1.18573e-06
1.12318e-06
-2.25284e-07
8.35993e-07
-1.00872e-06
1.15936e-07
1.32105e-07
2.97284e-07
9.77691e-09
3.84218e-08
-8.45353e-07
4.96028e-07
-5.8251e-07
8.64824e-08
-2.03309e-07
8.40222e-07
-2.11175e-07
-6.29047e-07
-3.75759e-07
-8.91291e-07
8.99917e-07
-2.94629e-07
6.98589e-07
-4.0396e-07
-3.38348e-07
-1.0092e-07
-3.99341e-07
-3.76023e-07
7.75364e-07
-6.35261e-07
-2.8636e-07
6.42665e-07
-3.28149e-08
1.57108e-07
7.52744e-07
3.48428e-08
-4.53081e-07
-3.35448e-07
1.06766e-07
-3.95789e-07
-3.0228e-07
-1.33332e-06
-2.74956e-07
7.70984e-07
9.42042e-07
-2.81e-07
-1.35432e-08
1.74151e-07
5.93626e-07
6.03695e-07
1.91616e-07
-1.08672e-08
-1.80748e-07
2.86969e-07
8.36206e-07
-8.23715e-08
-8.0892e-07
1.39117e-07
2.99e-07
-5.53862e-07
-2.34751e-07
7.88613e-07
-9.49499e-07
-7.29143e-07
-8.72166e-07
-6.78742e-07
-2.24361e-08
7.01178e-07
-4.61984e-07
-4.18813e-07
5.5793e-07
3.35935e-07
-3.26532e-07
-9.4025e-09
-9.32312e-07
-4.17778e-07
9.25741e-07
-1.41468e-07
8.42646e-07
-6.53564e-07
-5.1434e-08
3.87369e-07
1.65613e-06
1.13332e-06
-7.52929e-07
7.25571e-07
-9.2888e-07
-9.79015e-07
1.62194e-07
-1.41231e-07
3.60087e-07
-9.63782e-07
5.46003e-07
4.63757e-07
8.4653e-07
2.91777e-07
-5.86406e-07
-2.23928e-07
-8.87111e-07
-4.18477e-07
1.50163e-07
-4.82107e-07
7.58449e-07
2.75748e-07
3.32222e-07
-6.07969e-07
-5.61649e-07
9.091e-07
-3.4745e-07
9.37526e-07
-1.32269e-07
3.22565e-07
5.034e-07
-7.14576e-07
5.57813e-07
-2.35248e-07
-3.40162e-07
-3.81947e-07
-5.30553e-07
9.125e-07
-1.49774e-06
-5.22904e-07
8.91834e-07
-3.21565e-07
5.76708e-07
1.00016e-06
-5.67691e-07
-4.32468e-07
4.47867e-07
3.27497e-07
7.51151e-07
-1.06177e-06
3.10616e-07
-1.27461e-06
2.38649e-07
1.03596e-06
-3.75285e-07
1.95524e-07
-3.9087e-09
4.26925e-07
5.73233e-07
-9.43596e-07
9.45415e-07
-4.81658e-07
1.04542e-06
-8.85622e-07
5.21086e-07
-9.54098e-07
1.4409e-07
-5.96767e-07
2.75202e-07
8.08144e-07
3.54692e-07
-6.50147e-07
1.87707e-07
-1.44705e-07
1.40796e-07
4.22511e-07
1.07564e-07
4.79526e-07
-2.76974e-07
5.83805e-07
6.36381e-07
1.93814e-07
4.89442e-07
-9.711e-07
-8.6193e-07
2.32883e-07
-7.3259e-07
2.08581e-07
4.25096e-07
5.38979e-07
7.59062e-07
-2.73749e-07
5.17988e-07
-2.26211e-07
6.3999e-07
1.21235e-07
6.12951e-07
3.30293e-07
2.27521e-07
2.8274e-07
5.44384e-07
1.19924e-06
-5.86292e-07
5.89793e-08
2.73053e-07
1.07568e-06
-5.41764e-07
-5.33917e-07
-8.18231e-07
5.44884e-07
2.73348e-07
-9.23357e-07
6.99429e-07
5.27723e-07
-1.85736e-07
-4.85215e-07
-1.64932e-07
-4.64657e-07
-6.57789e-07
2.62001e-07
-1.7504e-07
-6.51976e-07
-2.73847e-07
6.87356e-07
9.64111e-08
4.52119e-07
3.01414e-07
-3.12281e-07
6.54053e-08
-7.54469e-07
1.18139e-06
-6.92659e-07
-1.69271e-07
-3.34767e-07
-1.70613e-07
2.44402e-08
-3.92493e-07
-6.09766e-07
-2.2209e-07
8.31856e-07
7.71117e-07
-7.32695e-07
7.32792e-07
9.0064e-07
-3.71257e-07
-4.35369e-07
8.06626e-07
-1.29301e-06
8.7453e-07
5.59274e-07
8.90001e-08
-6.48274e-07
7.65877e-07
5.24016e-09
1.09335e-06
-2.57144e-07
3.51428e-07
-8.06016e-07
4.02056e-07
1.00196e-06
-4.85466e-07
-3.2055e-07
-8.63273e-07
-5.57425e-07
-8.68017e-07
2.58251e-07
-4.85682e-07
6.88422e-07
-2.0274e-07
5.58539e-07
-7.29809e-08
7.47554e-07
-3.91564e-07
-1.81901e-07
5.73465e-07
-5.01434e-07
3.1427e-07
2.52517e-07
-5.16889e-07
7.9675e-07
-5.88168e-07
4.70369e-07
3.18244e-07
-6.47272e-07
-5.4644e-07
-5.74659e-07
7.34123e-07
5.38505e-07
-6.67583e-07
2.28801e-07
3.29129e-07
-9.77132e-07
4.44775e-07
-5.07058e-07
1.06633e-06
7.61538e-07
-5.24209e-07
7.06594e-07
1.32347e-07
-4.90742e-07
3.58395e-07
5.4731e-07
1.86813e-07
5.83192e-07
-3.67454e-07
-2.15738e-07
6.9917e-07
1.5465e-07
4.56099e-07
-1.23877e-07
-1.49042e-07
5.90068e-07
-4.41026e-07
9.34767e-07
-3.95787e-07
-2.36687e-07
8.57153e-07
4.7011e-07
-7.21871e-07
2.01222e-07
-2.25981e-07
6.80616e-07
-1.33306e-07
2.72937e-08
-7.59989e-07
7.5895e-07
-1.67335e-07
-5.91614e-07
2.02546e-07
7.36035e-08
-5.89506e-07
7.6756e-07
-1.78055e-07
-5.57552e-07
7.21555e-07
-1.64003e-07
1.64213e-07
-5.04616e-07
-1.42655e-07
5.78283e-07
-1.36292e-07
-8.10711e-07
6.85352e-07
4.99994e-07
-8.81253e-07
-8.29832e-07
-2.68985e-07
4.6802e-08
-2.2755e-07
7.65271e-07
-3.02742e-07
2.75871e-07
1.27142e-07
-5.46235e-07
-1.60372e-07
7.06607e-07
-1.24276e-07
1.11259e-07
1.30164e-08
-7.4968e-07
-3.9389e-08
1.43818e-07
1.20351e-07
6.12441e-07
4.13607e-07
2.28751e-07
1.69444e-07
5.1338e-07
1.67236e-07
4.86635e-07
-3.97635e-07
4.70642e-07
7.59056e-08
-5.46548e-07
-6.79832e-08
4.62277e-07
-6.16281e-08
-5.54611e-07
3.7862e-07
2.03851e-07
-4.68678e-07
-4.02213e-07
-7.98938e-08
-6.56362e-07
6.83655e-07
4.38323e-08
4.47698e-07
-1.17511e-07
-6.04476e-07
7.06548e-07
-1.02072e-07
-2.07787e-07
-5.61183e-07
6.94262e-07
-1.33079e-07
-1.6586e-07
4.59987e-07
-2.94127e-07
3.51713e-07
2.365e-07
1.71229e-07
-9.84621e-08
-7.2767e-08
-1.00339e-07
2.44429e-07
6.45727e-07
6.04128e-07
1.63432e-07
-1.70321e-07
-3.75531e-10
1.70697e-07
5.58339e-07
-4.60707e-07
-7.30598e-07
4.78392e-07
-6.42919e-07
8.79419e-07
6.39274e-07
-1.60882e-07
4.25033e-07
-7.7663e-07
7.8187e-07
-6.70572e-07
1.42106e-08
8.97858e-08
-4.03653e-08
-6.90232e-07
4.61219e-07
2.5334e-08
6.81214e-07
3.95329e-07
9.83181e-08
-4.69354e-07
-4.75365e-07
2.77275e-07
1.92157e-07
1.04057e-07
2.21545e-07
-6.45238e-07
-7.87753e-08
1.09183e-08
3.0724e-07
-6.60755e-08
6.58824e-07
-1.97605e-07
9.07817e-10
2.25108e-07
-1.21051e-07
4.27806e-07
-4.26899e-07
-7.59665e-07
-1.30332e-07
8.89996e-07
-1.29725e-06
7.06785e-08
3.62268e-07
-7.47657e-07
-9.76959e-08
1.84083e-07
4.10247e-08
-4.20623e-07
1.23652e-07
2.96971e-07
-8.26432e-07
-4.29685e-08
-8.14121e-08
1.24381e-07
1.8947e-07
3.87441e-07
-4.14614e-07
5.77998e-07
-1.63384e-07
-1.13508e-07
-2.72929e-07
-1.56284e-07
4.25396e-07
-3.95057e-07
3.76785e-07
-1.43421e-07
4.56489e-07
-3.61218e-07
2.36942e-07
1.49188e-07
-1.91073e-07
4.6252e-07
-7.5587e-08
1.38096e-08
6.17775e-08
-8.71752e-07
1.09701e-06
-2.25255e-07
5.1703e-07
-1.87901e-07
-4.38053e-07
8.5621e-08
-3.73136e-07
-8.57361e-07
2.77441e-07
-5.09964e-07
-9.63223e-08
2.07353e-08
-4.29968e-07
2.73684e-07
2.03051e-07
-4.13874e-07
2.10823e-07
-5.89574e-08
8.4337e-07
-6.42148e-07
-2.85312e-07
1.38115e-06
-1.02731e-06
1.41245e-08
-3.00698e-07
2.28074e-07
2.43393e-07
3.09243e-07
1.09216e-08
-5.83131e-08
1.80008e-07
-5.28661e-08
-7.99184e-07
7.90527e-07
-1.84044e-07
7.13039e-07
-2.16221e-08
-9.18905e-07
9.40527e-07
-1.6382e-07
7.90344e-07
-6.26524e-07
9.01653e-07
3.43207e-07
-1.47062e-07
7.93599e-07
-3.94143e-07
-3.58248e-08
1.40486e-08
-1.34821e-06
1.33416e-06
4.55009e-07
-9.66141e-08
-4.73924e-07
3.30503e-07
8.93564e-08
-8.02934e-07
7.00862e-07
8.13296e-07
8.83567e-08
9.91208e-07
-1.15964e-06
-3.10377e-07
-8.37662e-08
9.46862e-07
3.94622e-07
-9.73384e-08
2.70094e-07
3.96672e-07
1.70776e-07
2.75091e-07
9.38581e-08
4.55872e-07
-1.73438e-07
-2.82434e-07
-1.51451e-07
-7.0591e-07
6.0135e-08
-2.25995e-07
8.3148e-07
-6.68048e-07
7.82748e-07
-2.3578e-07
-5.46969e-07
6.42331e-07
4.54381e-07
-6.1402e-08
8.96252e-08
-2.82233e-08
1.0931e-07
3.9761e-07
-9.25239e-07
9.73761e-07
2.07914e-07
-1.94897e-07
2.45531e-07
5.0557e-07
-1.04164e-06
9.85291e-07
8.32722e-07
-1.08765e-06
-1.91749e-08
-6.57265e-07
-1.45669e-07
-2.41602e-07
6.4314e-07
-2.25696e-07
-1.38231e-07
3.63927e-07
1.83794e-07
6.44273e-07
-8.08093e-07
-3.59151e-07
-1.87397e-07
-6.78773e-08
-1.20585e-06
-4.08423e-07
-1.15247e-06
1.74345e-07
-1.11221e-06
5.19539e-09
-7.67578e-07
1.75964e-07
5.10687e-07
-1.10917e-06
-1.2557e-07
1.65887e-07
1.7758e-07
-2.21711e-07
-3.54329e-07
4.3995e-07
-9.21078e-07
5.24529e-08
-1.91854e-07
-1.35415e-08
2.23829e-07
6.08028e-07
4.28267e-07
3.54285e-07
2.68049e-07
5.80008e-07
2.62382e-07
2.67227e-07
5.84234e-07
2.9989e-07
2.32453e-07
4.42368e-07
-1.19402e-06
-8.55874e-08
-1.15462e-07
8.00814e-07
-1.32137e-07
-8.13717e-07
-6.00342e-07
1.53473e-08
-1.53578e-07
1.47931e-07
1.18735e-07
2.00467e-07
1.43e-07
3.23906e-07
1.22406e-07
2.61875e-07
5.44891e-07
-8.91939e-07
-1.59091e-08
4.11958e-08
6.32129e-07
-8.16174e-07
1.94499e-07
-7.9484e-07
2.54507e-07
2.68418e-07
1.02611e-06
1.10806e-07
6.19937e-08
-6.06706e-07
8.30534e-07
3.56369e-07
-4.56685e-07
4.42846e-07
1.59123e-07
-1.3693e-06
2.05097e-07
1.1642e-06
2.2822e-07
1.52309e-08
-6.21675e-07
3.09642e-07
-9.82911e-07
-7.88558e-08
-6.90927e-08
9.58235e-07
-5.13408e-07
4.29642e-07
5.32203e-07
4.75e-08
1.78474e-07
7.98994e-08
7.72796e-07
-8.42485e-07
9.51477e-07
-9.89719e-07
2.9788e-07
1.30516e-08
-1.13116e-06
-4.74411e-07
-3.97105e-07
1.16774e-06
-9.29089e-07
8.5191e-08
8.7609e-08
-8.95232e-07
4.53325e-08
5.32666e-07
-5.97177e-07
3.07048e-07
1.39456e-07
-1.12237e-06
1.32447e-07
9.6456e-07
-6.49742e-08
3.64668e-07
-2.08859e-07
3.13818e-07
-2.63768e-07
-1.03686e-06
-1.91516e-07
2.31615e-07
2.14252e-07
7.56036e-07
4.47776e-08
-4.41756e-07
-2.25828e-07
-2.01385e-07
8.26215e-07
2.62055e-07
6.38352e-07
7.69088e-07
-7.04347e-07
3.82392e-07
-1.16741e-06
-1.80798e-07
-5.46605e-07
1.05579e-07
2.29542e-07
5.88682e-07
4.96701e-08
7.9723e-08
5.10004e-08
-1.1648e-06
3.549e-07
5.27913e-08
-1.02896e-06
9.29602e-07
1.10592e-06
1.41631e-07
8.9573e-07
1.3456e-06
3.28728e-10
1.30365e-06
1.07759e-06
1.34642e-07
-8.18503e-08
3.46879e-07
-2.23409e-07
-8.10303e-08
-8.96058e-07
1.55147e-07
-8.01523e-10
4.59689e-07
-7.28132e-08
-2.58512e-07
-8.67302e-08
-6.70503e-08
-2.29495e-07
-1.95427e-08
3.51535e-07
-6.25123e-08
7.80857e-07
-4.01167e-07
1.40001e-06
-6.98889e-07
2.2868e-07
1.37261e-08
1.56971e-07
-8.00509e-07
7.3886e-07
-1.1393e-07
6.07173e-08
5.32127e-08
5.99316e-07
-1.88698e-07
-1.55185e-07
-4.32087e-07
-3.57619e-07
5.94114e-07
-1.95671e-07
-1.36225e-07
4.47207e-07
-2.19687e-07
5.57976e-07
-2.87701e-07
1.36546e-07
-1.49927e-06
7.46343e-07
4.7779e-07
-5.16213e-08
1.9922e-07
4.96465e-07
2.53406e-07
-3.98515e-07
-1.51185e-07
1.58634e-07
-2.28573e-07
4.57449e-07
-2.28876e-07
7.65635e-07
1.6346e-08
2.42614e-07
6.97669e-07
3.62433e-08
1.37062e-06
-9.53857e-07
6.04523e-07
7.95487e-07
-4.88363e-07
-9.91643e-07
-5.5185e-07
2.76148e-08
4.25466e-07
7.65635e-07
2.13389e-07
-1.60653e-07
-2.28887e-07
-2.79335e-07
1.99441e-07
6.91936e-07
-6.77812e-07
-1.74313e-07
-8.13241e-07
9.02297e-08
-2.03374e-08
-1.08406e-07
-1.89689e-08
-4.40898e-07
9.42147e-08
1.25882e-08
-3.57563e-08
5.36037e-08
-1.65658e-07
3.10125e-07
-5.30881e-08
-1.25882e-08
-5.36037e-08
5.30881e-08
-2.89136e-08
5.48745e-07
-1.42342e-09
1.65658e-07
-3.10125e-07
9.02297e-08
-1.08406e-07
-4.40898e-07
5.48745e-07
4.25736e-07
-3.83667e-08
-2.08617e-07
4.38929e-07
3.36368e-07
-3.13137e-07
3.13137e-07
-2.08617e-07
-3.61713e-07
-4.08669e-07
2.52406e-07
4.19407e-07
-2.05155e-07
8.76502e-07
3.58192e-07
-5.58158e-07
5.90056e-07
3.44238e-08
-5.90056e-07
4.2735e-08
-8.99261e-07
-6.72677e-07
4.21098e-08
-1.38203e-07
2.15615e-08
-1.35491e-07
5.49979e-07
-5.88695e-08
9.74855e-07
6.45991e-08
-1.27842e-06
-1.98045e-07
-4.659e-07
1.56984e-07
9.69727e-07
-1.40965e-08
-1.09338e-06
1.01738e-07
-7.18414e-07
1.84299e-07
1.32972e-07
-9.91045e-09
-2.90981e-07
-2.88007e-08
-3.43497e-09
3.22356e-08
6.6132e-07
-1.64855e-07
4.50922e-08
-4.50922e-08
-3.12903e-07
-6.80086e-08
-8.94161e-07
4.72733e-08
-1.07433e-06
1.10875e-06
-5.78368e-09
-2.3017e-08
6.11854e-07
-4.6326e-07
1.07169e-07
-9.4397e-07
7.9302e-07
3.3697e-07
2.87916e-07
-2.81601e-07
3.23715e-07
-5.45778e-07
3.01408e-09
-8.48644e-08
3.577e-07
-6.75826e-08
4.57793e-08
-1.11638e-07
1.14652e-07
1.14358e-07
-3.3022e-07
-9.55385e-08
8.35158e-07
-3.89963e-07
1.64377e-07
-1.64377e-07
-5.60433e-07
-6.40471e-08
5.60433e-07
-1.18283e-08
-2.45901e-07
2.45901e-07
3.03936e-07
-1.20958e-08
2.60152e-07
-1.50205e-07
-1.50493e-07
-4.38768e-07
-1.03648e-07
1.18995e-07
-1.62274e-07
6.41821e-08
-3.59374e-07
-8.31636e-07
-1.0327e-07
4.61462e-07
1.03366e-07
3.87322e-07
-3.96724e-07
-2.25767e-08
-1.46333e-07
4.27174e-07
-4.27174e-07
4.18907e-07
1.51327e-07
-3.35551e-07
-5.08692e-07
4.64222e-08
2.56069e-07
-3.02491e-07
2.65328e-07
1.27943e-08
2.14835e-07
-1.20334e-07
7.50017e-08
3.76925e-07
3.929e-08
-1.55457e-07
-1.55891e-07
2.31229e-09
-3.45038e-08
3.45038e-08
2.48644e-07
2.08805e-07
4.74411e-07
-1.70714e-07
4.99596e-08
1.20754e-07
-1.00025e-07
2.73629e-08
-1.0715e-07
-4.57793e-08
-1.26268e-08
1.0715e-07
-2.89342e-07
1.07711e-07
1.81631e-07
1.50193e-08
-8.04336e-08
-2.00486e-07
-2.10107e-07
-1.30219e-06
7.81177e-07
5.21015e-07
-9.91045e-09
-3.04622e-07
-2.28876e-07
3.04622e-07
1.59631e-07
2.58025e-08
-2.89571e-07
-7.56674e-08
-1.20866e-07
7.56674e-08
1.20866e-07
-1.42733e-07
1.42733e-07
2.13112e-07
-2.6761e-07
-4.88081e-07
-2.70762e-07
-3.35517e-07
-7.3881e-07
5.77914e-08
1.34901e-07
-1.34901e-07
-6.98889e-07
-1.03685e-07
-7.50017e-08
-1.3191e-07
8.94898e-08
-1.51327e-07
-1.05393e-06
-1.78136e-07
7.45811e-09
1.44137e-07
9.97847e-07
1.80274e-07
-1.13413e-06
-3.44825e-07
4.03324e-08
2.60152e-07
-2.23161e-07
1.25325e-07
2.69363e-08