/*--------------------------------*- C++ -*----------------------------------*\
  =========                 |
  \\      /  F ield         | OpenFOAM: The Open Source CFD Toolbox
   \\    /   O peration     | Website:  https://openfoam.org
    \\  /    A nd           | Version:  9
     \\/     M anipulation  |
\*---------------------------------------------------------------------------*/
FoamFile
{
    format      ascii;
    class       volScalarField;
    location    "0.61";
    object      p;
}
// * * * * * * * * * * * * * * * * * * * * * * * * * * * * * * * * * * * * * //

dimensions      [0 2 -2 0 0 0 0];

internalField   nonuniform List<scalar> 
578
(
-9.43122e-05
-0.00144408
-0.000240479
-0.00169083
-0.00118513
-0.000940939
-0.000143532
-0.000578786
-0.00081185
-0.00150916
-0.00103264
-0.000339965
-0.0017267
-0.000823687
3.64091e-05
-0.000811598
-0.0011997
-0.00122109
-0.000286246
-0.000724271
-0.00165911
-0.000806547
-0.000550745
-0.00118861
-0.001185
-0.000283701
-0.00167315
-0.00172097
-0.00138363
-0.000722452
-0.00165613
-0.000838525
-0.000835995
-0.00139845
-5.11177e-05
-0.000710717
-0.000951444
-0.000372746
1.65893e-05
-0.00120265
-0.0011406
-0.000507452
-0.000608449
-9.40204e-05
-0.000852751
-3.65572e-05
-0.00017844
-0.000910758
-0.000180321
-0.00168096
-0.000686693
-0.00172487
-0.00043207
-0.00143019
-0.00174411
-0.00138017
-0.000517638
-0.00072283
-0.00115846
-0.000672639
-0.00116037
-0.00124735
-0.00142129
-0.000958231
-0.00171208
-2.01883e-05
-0.00080172
-0.000930637
-0.000742409
-0.000127282
-0.00130127
-0.000879059
-0.00170342
-0.000157269
-0.00108543
-0.00112566
-0.000671885
-0.000593859
-0.0017305
0.000431734
-0.000739615
-0.00052619
-0.000701961
-0.000646343
-0.000259332
0.000111254
-0.000660977
-0.00132599
-0.000686627
7.79284e-05
-0.00166817
-0.000434905
0.000110914
-0.00170412
-0.000737043
-0.000751955
-0.00176264
-0.00174769
-0.00165415
0.000102222
-0.000154761
-0.0001507
-0.0017152
0.00032674
-0.00173479
-0.000790966
-0.00103892
-0.00114111
7.17057e-05
-0.00105929
-0.000676934
-0.000255301
-0.000791167
-0.000734517
-0.000746741
-0.00171116
-0.00168065
-0.00122574
8.1511e-05
-0.00174805
-0.000328705
-0.000609481
-0.00022666
-0.0016263
-0.000766945
3.896e-05
-0.00078189
-0.000779488
0.000159642
-3.88792e-05
8.88312e-05
3.23446e-05
-0.00172155
-0.000438321
8.86528e-05
0.000231297
-0.000450585
-0.00171691
-0.000801911
7.77812e-05
4.24549e-05
-2.47174e-05
6.24674e-05
-0.00151689
-0.000520967
-0.000111195
5.03283e-05
-0.00179623
-0.000201484
-1.95531e-05
-0.000609691
-0.000896828
-0.000641371
-0.000385106
0.000158686
-0.00172115
-0.00133216
-0.00176201
0.000469565
-0.000750517
-0.000849861
-0.000922499
6.61026e-05
-0.00054644
-0.00160994
1.8941e-05
-0.00159358
0.000190778
-0.00181178
-0.00162456
-0.000517374
-0.000494352
0.000297257
7.39677e-05
0.000156388
-0.0016839
-0.00168595
-0.00122314
-0.000455277
-0.0015235
0.000185988
-0.00109824
2.31858e-05
-0.00168116
0.000223631
-0.00176813
-0.000666125
0.000192799
0.000178848
-0.00168331
-0.000580551
-0.000509617
-0.000692759
0.000208587
-0.000888918
-0.00163147
-0.00176597
-0.00181163
0.000223244
-0.00046861
-0.00180049
-0.00170327
-0.000601804
-0.00163393
-0.00165468
-0.000452065
0.000201434
-0.000882291
-0.000692906
0.000222067
1.94643e-05
9.97659e-05
6.39446e-05
-0.00166956
6.22655e-05
-0.00161904
0.000200215
-0.000534624
0.00013955
6.88361e-05
-0.000617989
0.000142367
-0.000247195
-0.000428343
0.000271312
4.22704e-05
-0.00159854
-0.0017945
-0.00179556
-0.00164907
-0.00123055
-0.000592246
5.90303e-05
-1.69607e-05
1.68401e-05
-0.000465001
-0.000429645
0.000282199
-0.00174972
-0.000127912
0.0001334
-0.000591643
-0.0015821
9.47572e-05
-0.00179179
-0.000550249
4.61447e-05
-0.00170814
0.000294828
-0.00152596
-0.001618
5.95623e-05
-0.00080468
-7.34549e-05
-0.000791437
-1.69361e-05
-0.00164
8.90056e-05
-0.000422971
-0.000603452
-0.000216413
0.000223165
-0.00172335
-0.00168349
-0.00126142
-0.000267763
-2.22324e-05
-0.000132371
-0.00170171
-2.32547e-05
2.93404e-05
4.61742e-05
-8.05024e-05
-0.00152213
-0.00166561
-0.00154192
-0.00160733
4.25912e-05
0.000300448
-0.00147775
-0.000424186
-0.00153575
-0.0015403
-0.00164401
-0.00146368
5.20752e-05
-0.000280251
6.12997e-05
-0.00126366
-0.00133881
-3.42316e-05
5.9798e-05
-0.00161129
0.000292139
-0.00157336
-0.00160261
-0.00046392
-3.81761e-05
-0.00155614
-0.00153965
-0.00148291
-3.29394e-05
-0.00155424
-0.0015723
-0.00164684
-0.00146461
-6.67992e-05
-0.00151521
-0.00138114
-0.00148288
-0.0001801
-0.00137508
-0.00133244
1.29522e-05
-0.0013986
-0.00154173
4.44048e-05
4.40946e-05
-4.30863e-07
-0.0013915
5.76955e-05
-0.00146846
-0.00158325
-0.0012689
-0.00165091
-0.00148237
0.000157859
0.000103438
-0.000473943
-0.00139918
-0.00167902
0.000179581
-0.00140154
-0.00150672
5.06097e-05
-0.00129854
-0.00164638
-0.00152828
-0.00147719
-0.00159859
-0.00158928
-0.00158474
-0.00127971
-0.00149693
-0.00134292
-0.000709984
-0.000853805
0.000103964
-3.52504e-05
8.25224e-05
-0.000620001
-0.00110834
-8.40805e-05
-0.00135341
-0.00120218
-0.000231437
-0.00121371
-0.000327959
-0.00110217
-0.000472975
-0.00118183
-0.000958842
-0.00118269
0.000216752
-0.00127909
-0.00109031
-0.00125696
-0.000777001
-0.00170087
-0.00128559
-0.000313532
-0.00132808
-0.00106647
-0.000845772
-0.000328913
-0.000348597
-0.00168126
0.000130762
-0.000280397
-0.00106034
-0.00174867
-0.000854477
4.34857e-05
-0.00107666
-0.00115618
-0.00114245
-0.000758421
-0.000254586
-0.000335833
0.000146099
-0.00174175
-0.000964151
-0.00100651
-0.00012639
-0.00085399
-0.00090686
-0.000526038
-0.00148246
-0.000954827
-0.00109431
-0.000743211
-0.000826967
-0.000907959
-0.00134704
-0.00172137
-0.00112789
-0.000671044
-0.00109716
-0.00101687
-0.000884851
-0.00108508
-0.00128018
-0.00140293
4.74009e-05
-0.00115663
-0.000976519
-0.000682624
0.000146089
-0.000319223
-0.00171851
0.000200124
-0.000951093
-0.000264878
0.00013022
7.27067e-05
-2.70307e-05
1.82439e-05
-0.00140149
0.00018949
-0.000107559
0.000183785
-0.00116447
-0.00075863
-0.00171651
4.55362e-05
-0.00014946
-0.000537579
-0.00124354
4.48769e-05
-0.00118936
-0.00121336
-0.00163133
-0.00173671
-0.00157364
7.78231e-05
-0.00124798
-0.00153053
0.000254456
0.000265032
-0.00157533
8.3696e-05
-0.00172902
6.78273e-05
-0.00172992
0.000188644
-0.00153121
-0.00158011
-0.000829561
-0.00120337
-0.00111353
-0.000703439
0.000399998
-0.00129897
0.000247619
-0.001282
-0.000543728
4.64761e-05
-0.000617606
-0.00125879
-0.000219882
-0.00152374
-0.001794
0.000324502
-0.00173902
-0.00139484
-0.000856752
-0.000143236
-0.000520524
-0.000911366
-0.000624824
-0.00128964
-0.00106277
-0.000573274
-0.00136295
-0.0016969
-1.80296e-05
-0.00148384
-0.00174454
-0.00172685
-4.94866e-05
-0.00177738
-1.07351e-05
-0.000119367
-0.00174359
-0.00165589
0.000100418
-0.00153372
9.20568e-05
-0.00173794
-0.00176301
-0.000580791
-0.00118627
0.000102993
-0.00161212
-0.00104445
-0.00172378
0.0001328
-0.00171401
2.82673e-05
-0.00171304
-0.00155541
-0.000714046
-0.00157446
9.35007e-05
0.0001252
-0.00154803
-0.000497882
-0.00111048
-0.000929322
-0.00174505
-0.0011453
-0.000762144
-0.00132408
1.24083e-05
-0.000183233
-0.00157801
-0.00149704
-0.00174045
-0.000956045
-0.00149723
-0.00103343
-0.00024276
-0.00178878
-0.00146573
-0.000845519
0.00031431
-0.000953692
0.000120873
0.000344935
-0.00176116
-0.0018014
-0.000802373
-0.000469573
-0.000150866
-0.000825512
-0.0013728
-0.00115368
-0.000978401
-0.000903684
7.61933e-06
-0.000731774
0.000140436
-4.18338e-05
-0.00025421
-0.000768748
-0.00127798
-0.00070572
-0.00141916
-0.0015703
-0.001726
-0.0016976
-0.000544918
-0.000274128
-0.00174599
-0.00177777
-0.00102495
-0.00173697
-0.00134734
-0.00172631
-0.00173442
0.000120163
-0.000669263
-0.000633266
-0.00141087
-0.000752135
-0.00109133
0.00015674
0.000252424
)
;

boundaryField
{
    front
    {
        type            empty;
    }
    back
    {
        type            empty;
    }
    bottom
    {
        type            uniformFixedValue;
        uniformValue    
        {
            type            scale;
            scale           
            {
                type            squarePulse;
                start           0.3;
                duration        0.3;
            }
            xScale          
            {
                type            constant;
                value           1;
            }
            value           
            {
                type            constant;
                value           15.1;
            }
        }
        value           uniform 0;
    }
    left
    {
        type            zeroGradient;
    }
    top
    {
        type            zeroGradient;
    }
    right
    {
        type            zeroGradient;
    }
    inner_arc
    {
        type            zeroGradient;
    }
}


// ************************************************************************* //
