/*--------------------------------*- C++ -*----------------------------------*\
  =========                 |
  \\      /  F ield         | OpenFOAM: The Open Source CFD Toolbox
   \\    /   O peration     | Website:  https://openfoam.org
    \\  /    A nd           | Version:  9
     \\/     M anipulation  |
\*---------------------------------------------------------------------------*/
FoamFile
{
    format      ascii;
    class       volVectorField;
    location    "0.61";
    object      U;
}
// * * * * * * * * * * * * * * * * * * * * * * * * * * * * * * * * * * * * * //

dimensions      [0 1 -1 0 0 0 0];

internalField   nonuniform List<vector> 
578
(
(0.0041841 0.00725994 0)
(0.00520757 0.0128537 -5.87748e-20)
(0.00569848 0.0102063 0)
(-6.94359e-05 0.00273614 -9.24707e-20)
(0.000633683 -9.60985e-06 0)
(0.00615557 -0.00396067 5.19332e-20)
(0.00195568 0.00491876 9.28299e-22)
(0.00164112 -0.00398608 -3.15391e-20)
(0.00643431 -0.00869186 0)
(0.00319931 0.00913256 7.94689e-20)
(0.00753458 -0.00647163 -2.44903e-20)
(0.00603628 -0.0118333 -1.23181e-21)
(0.00162101 -0.000374472 0)
(0.00521662 -0.00551871 5.14571e-20)
(0.00340671 0.0110931 0)
(0.00663957 -0.00717993 -1.04682e-20)
(-0.00307713 0.000984427 3.07441e-20)
(0.00114208 0.00520441 -1.06428e-19)
(0.0048174 -0.0116026 8.77917e-21)
(0.00676647 -0.00839139 4.31316e-20)
(-0.000636328 0.00196464 9.52492e-20)
(0.00476646 -0.00622295 -4.25074e-20)
(0.000782679 -0.00296095 2.1623e-20)
(0.00220562 0.00659775 7.1924e-21)
(0.00101726 0.00770106 0)
(0.00134997 -0.00997428 -2.13119e-21)
(-0.00144196 0.00410604 0)
(-0.000611256 0.00402955 -5.45737e-21)
(0.00596218 0.0117239 7.24017e-20)
(0.00688738 -0.00714604 0)
(-0.00116343 0.00575483 9.7431e-20)
(0.0041036 -0.00183904 -2.1508e-21)
(0.00799456 -0.00839218 1.12391e-20)
(-0.00034935 0.00754452 1.9607e-20)
(0.00376814 0.0111946 6.35241e-21)
(0.00561444 -0.00560322 -1.92019e-20)
(0.00407135 -0.00361307 -5.99106e-20)
(0.00257235 -0.0100976 0)
(0.00584202 0.00924787 4.34002e-21)
(0.000812511 0.000794693 0)
(0.00181076 -0.00108249 5.87124e-20)
(0.00341725 -0.00711934 1.9556e-20)
(0.00176 -0.0058909 4.08458e-20)
(0.00352932 0.00996361 1.04372e-22)
(0.00548545 -0.00546287 0)
(0.00344318 0.00800495 1.44165e-21)
(0.00257762 0.00778335 -7.3858e-21)
(0.00564255 -0.00790208 2.65555e-20)
(0.00567911 0.0101766 -4.42506e-21)
(-0.00211204 0.00310142 0)
(0.00104745 0.00167323 -1.42947e-21)
(0.00176704 0.00019662 -1.77502e-22)
(0.00273752 -0.00354891 -2.85604e-20)
(-0.00127449 0.00729866 -1.93971e-20)
(0.000495899 -0.000164538 0)
(0.00624955 0.00365269 -4.11093e-20)
(-0.000485262 -0.00103129 1.54673e-20)
(0.00321504 -0.00292865 0)
(-0.00146495 0.00456491 7.40984e-20)
(0.00313298 -0.00305969 -9.18641e-21)
(0.00036155 0.0065335 3.31302e-20)
(-0.00303866 0.000298497 3.90913e-20)
(0.000192628 0.00266457 7.67296e-20)
(0.00397875 -0.00539769 -2.17631e-20)
(-0.000195846 -0.00116043 -9.70912e-20)
(0.00368743 0.010207 9.24198e-22)
(0.00766837 -0.00855977 -5.07792e-20)
(0.0067476 -0.00764094 0)
(0.0078573 -0.00817836 -4.6149e-21)
(0.00030972 -0.0110765 -5.68449e-21)
(6.82337e-05 0.00849584 0)
(0.00264208 0.00127085 5.28749e-20)
(0.000559804 -0.000929203 2.0593e-19)
(0.00200798 -0.00840355 -1.59618e-20)
(0.00783618 -0.00419416 0)
(0.00109184 -0.00186582 -2.74287e-20)
(0.00542983 -0.00713739 -5.44196e-20)
(0.00400181 -0.00551139 2.90266e-20)
(0.00116208 -0.00113923 -1.00115e-19)
(0.00333649 0.00428202 9.55772e-21)
(0.00371398 -0.00784094 5.73839e-20)
(0.00269055 0.00534646 -5.89505e-20)
(0.000982822 -0.00209402 4.54787e-20)
(0.00110438 -0.00183018 0)
(0.00524444 0.00895744 -9.69451e-21)
(0.00161025 0.00704677 -7.25322e-21)
(0.00062144 0.000440459 0)
(0.00787741 0.00127667 -3.81663e-20)
(0.00047379 -0.000594481 3.31467e-20)
(0.00509205 0.00995901 2.41385e-23)
(-0.00180074 0.00483393 -9.86833e-20)
(0.00464133 0.00811146 -3.0285e-22)
(0.00523 0.0109692 6.18684e-21)
(0.00151008 0.00018411 -4.73352e-20)
(0.00707667 -0.0081826 1.22001e-20)
(0.0043977 -0.00755154 0)
(0.000464185 -0.000386667 -1.04395e-19)
(0.00106647 -0.000134863 0)
(0.00159662 0.00504082 1.9548e-20)
(0.00374008 0.0116076 -6.58416e-21)
(0.00392353 0.00889239 3.85207e-22)
(-0.000569368 -0.00888816 -5.10489e-21)
(-0.0014461 -0.000212288 0)
(0.00480226 0.00663712 0)
(-0.000126894 -2.18446e-05 -4.22535e-20)
(0.00525492 -0.00450043 -3.83101e-20)
(0.00668714 -0.00248762 0)
(0.00202083 -0.00268562 -3.14356e-20)
(0.00100121 0.00341003 4.44824e-21)
(0.00222012 -0.00381696 6.45334e-20)
(0.00581233 -0.00637686 -1.83266e-20)
(0.000421137 -0.0113114 -8.81426e-21)
(0.00717764 -0.00817111 4.24473e-21)
(0.00526576 -0.00870269 -5.32999e-21)
(0.00568638 -0.00850216 5.33103e-21)
(-0.000846055 -0.000144072 -1.06183e-19)
(0.000427245 0.00252781 0)
(0.00298536 0.0106447 1.86741e-20)
(0.00491577 0.00931426 0)
(-0.0001609 -0.000175316 -1.11833e-19)
(0.00105072 -0.00669164 2.05699e-20)
(0.00192667 -0.00355169 0)
(0.0032362 -0.0123805 1.80806e-21)
(-0.000608523 0.00224309 -1.09443e-19)
(0.00183712 -0.00364383 0)
(0.00353862 0.0100036 1.23818e-21)
(0.00363951 -0.00736693 -4.1469e-20)
(0.00776485 -0.00805567 -1.22876e-20)
(0.00478537 0.00897032 -1.07767e-20)
(0.000874673 0.00850131 0)
(0.0035418 0.00479673 6.16413e-21)
(0.00232614 0.00912305 0)
(0.00117821 0.00115868 -5.59395e-20)
(7.40996e-05 -0.00101864 -2.28871e-20)
(0.0044265 0.00622282 -6.34315e-21)
(0.00207294 0.00515543 0)
(0.00637762 -0.0102859 2.83799e-20)
(-0.000411057 -0.00043774 1.08791e-19)
(0.00439776 -0.00903808 1.81524e-22)
(0.0018182 0.00192907 -5.08622e-21)
(0.000435346 0.000239138 0)
(0.00162189 0.010101 0)
(0.00131467 0.00126674 0)
(0.000610908 0.000961063 0)
(0.000679627 -0.00320624 2.8554e-20)
(0.00565891 0.00961285 0)
(7.96113e-05 0.00222267 4.16446e-21)
(-0.00033307 0.000563733 -1.14581e-19)
(0.0018577 -0.0114101 0)
(0.000301348 0.00546977 0)
(0.00677265 -0.00832036 0)
(0.00132801 0.00225896 1.98593e-20)
(0.00124305 -0.00120604 3.78464e-20)
(0.000131614 -0.0013417 1.85251e-20)
(0.00198019 0.00685525 -3.14652e-22)
(-0.00128624 0.00239298 -1.03912e-19)
(0.00676751 0.00986015 -8.21197e-20)
(0.000959371 0.00177008 -9.80315e-20)
(0.00114859 0.00150408 1.03429e-20)
(0.00639044 -0.00832166 0)
(0.00513108 -0.0070189 0)
(0.00429434 -0.00669529 0)
(8.69796e-05 -0.000104502 0)
(0.00608602 -0.00782813 4.97625e-22)
(0.000211223 0.000743828 0)
(0.000562053 0.00457157 -2.07825e-21)
(0.000167231 0.000876848 0)
(0.00068144 0.00340559 -9.58791e-23)
(0.00049421 0.00123514 0)
(-0.00326033 -0.000268305 0)
(0.00486243 -0.00670277 2.88678e-20)
(0.00391108 -0.00646694 0)
(0.00112118 0.00259128 0)
(9.86206e-05 0.000602791 -6.30584e-23)
(0.000366761 0.00150276 0)
(-0.000853581 -0.00189784 0)
(-0.000535783 -0.00282269 1.0178e-19)
(0.000664757 0.00655391 -8.9696e-21)
(0.00265245 -0.00384568 -2.75932e-20)
(0.00234796 0.00543599 0)
(-0.000137815 6.9867e-05 9.64661e-23)
(0.00548951 0.0131612 8.75823e-20)
(0.00223209 0.0102698 0)
(0.000728065 -0.00193109 -1.85496e-19)
(0.00290736 0.00682838 0)
(-0.000131795 0.000113584 8.13549e-20)
(0.00162655 -0.00189778 3.08346e-20)
(0.00440022 0.00971394 1.02202e-20)
(0.00182328 0.00799383 0)
(0.000922286 0.00356858 0)
(0.00767178 -0.00839601 0)
(0.0056818 -0.0074912 2.795e-20)
(0.00265783 -0.0036445 4.60927e-20)
(0.000372101 0.00274307 9.40618e-23)
(0.00412055 0.00932663 3.92936e-20)
(-0.00301699 -0.00499742 1.68857e-19)
(0.000310342 0.00206149 9.48909e-20)
(-0.000529945 0.00157615 -1.11291e-19)
(0.00103135 0.00413352 0)
(0.00658349 -0.0088484 0)
(0.000256582 0.000455637 0)
(0.000894585 -0.00151999 9.29023e-20)
(0.00156653 -0.00326666 -3.77464e-20)
(-0.00308489 -0.00318484 -1.71175e-19)
(-0.00146861 -0.0037527 -4.94212e-20)
(0.00764217 -0.0101224 -5.34352e-20)
(0.00173943 0.0062177 0)
(0.00297109 0.00487774 2.39864e-21)
(0.00711447 -0.00774316 0)
(0.00227425 0.00350214 -1.8522e-20)
(-0.000304985 0.000869632 -2.11678e-21)
(0.00245756 0.00981279 0)
(0.00335594 0.00490535 0)
(-0.00126558 -0.00423848 4.93297e-20)
(0.00189166 0.00241933 0)
(-0.0010067 0.00145062 1.00626e-19)
(0.000805194 0.00496836 0)
(0.00728505 -0.00864497 -1.20309e-22)
(0.00241289 0.00916735 7.40558e-21)
(-0.000246149 0.000114995 0)
(0.00754266 -0.00758542 4.32808e-20)
(0.0011289 0.00218361 8.38429e-21)
(0.000318494 -0.0037125 -3.44922e-20)
(0.00313012 -0.00438287 -2.79539e-20)
(-5.40528e-05 0.000870412 0)
(0.000361011 0.00165911 4.39271e-23)
(-0.00322018 -0.00639937 -9.30867e-20)
(0.000200611 0.000949742 0)
(-0.000244867 0.00054494 8.53931e-20)
(0.000430972 0.00148889 7.7784e-20)
(0.00229109 0.00558892 0)
(0.000703136 -0.00105152 -2.86285e-20)
(0.000133081 0.000293876 5.03757e-23)
(-0.000462703 -0.010544 0)
(0.00192316 0.0112102 0)
(0.00134048 -0.00192661 -2.1543e-20)
(0.00184358 -0.00258454 -2.07874e-20)
(4.34495e-05 0.000593944 -1.36435e-20)
(0.00173266 0.000581356 1.09035e-19)
(6.07565e-05 -0.00164536 0)
(-0.000109363 -0.000194826 -6.36559e-21)
(0.00200246 -0.00340844 -2.86242e-20)
(-0.00347675 -0.005193 2.35436e-20)
(0.000120552 -0.000121908 -1.07322e-22)
(-0.000300942 0.00126391 1.65808e-19)
(0.000506457 -0.00219609 -2.80043e-20)
(0.000218948 0.000169569 0)
(0.00180944 0.00652052 0)
(0.000703282 0.00138185 0)
(-0.00282632 0.00229655 -4.4941e-20)
(-0.00214344 -0.00515845 0)
(0.00437214 0.00897777 4.59984e-23)
(0.00294555 -0.00279529 -4.44819e-20)
(-4.8392e-05 0.000116144 0)
(0.00052598 0.00178494 0)
(-0.000545824 -0.00983824 -1.52227e-21)
(0.000562438 0.0018231 -1.01863e-19)
(0.00335934 0.00988536 -1.05178e-21)
(0.00144042 -0.00206822 -2.05182e-20)
(0.00123185 -0.000954989 3.71477e-20)
(-4.66365e-05 -0.000283579 1.04699e-20)
(-0.000160168 5.47026e-05 -7.73632e-23)
(9.02331e-05 0.00137237 -1.62671e-19)
(1.96713e-05 0.00238956 2.07478e-19)
(0.00568506 0.01384 -1.28987e-19)
(0.000433546 -0.00659819 1.31924e-20)
(-1.007e-05 -0.000462273 0)
(-0.000119259 9.2136e-05 -8.45222e-21)
(0.000758819 0.00274279 -1.27173e-21)
(-8.05854e-05 0.000143485 0)
(-0.000144049 -0.000360378 0)
(0.00161346 0.00637564 0)
(1.80431e-05 -0.00164644 0)
(-0.00305403 -0.00668161 4.47713e-20)
(-0.000121767 -0.0026854 5.31741e-20)
(-0.00297465 -0.00482879 -8.94815e-20)
(-0.0026595 0.00448684 -5.05022e-20)
(-0.000194927 -0.000157146 -1.02526e-24)
(0.000455054 0.00187645 0)
(-0.00126514 -0.000429923 -8.93007e-20)
(0.00385402 -0.00541067 2.00023e-22)
(-0.00341343 -0.00191872 4.49225e-20)
(-0.00245557 -0.00691084 0)
(-0.00201741 -0.00472048 -4.93223e-20)
(-0.00187052 -0.00439699 -4.23337e-20)
(0.000429557 0.000646633 0)
(-0.000119292 -0.000237411 9.41364e-23)
(-7.2932e-05 0.000133013 -2.97375e-21)
(0.000188511 0.00298633 -3.06197e-20)
(8.2508e-05 0.00642916 -4.44885e-20)
(-3.71249e-05 -0.00346393 -4.08001e-21)
(0.00339252 0.00641148 0)
(-0.00341434 0.000481666 8.45494e-20)
(0.000404674 0.00113166 -1.40404e-20)
(-0.000160397 0.00101182 -3.82698e-20)
(-0.000288113 0.00205288 5.8529e-20)
(0.00216107 -0.00329991 0)
(-0.000354522 -0.00802816 6.38103e-21)
(-0.000194834 0.000816072 -1.71511e-19)
(-0.000335411 0.0013591 2.1233e-20)
(-0.0021054 0.00320593 9.01105e-20)
(-0.000218227 0.00327568 0)
(-0.000150667 0.000699186 7.36994e-20)
(1.83897e-06 0.000457841 7.52916e-20)
(-9.06999e-05 0.00143178 -7.75884e-20)
(-0.000221556 0.0042526 6.19627e-20)
(-0.000175088 -0.00584102 -1.07849e-22)
(0.00293557 0.00370355 0)
(0.00115555 -0.00618201 2.08279e-20)
(-0.000832586 -0.00649585 6.52999e-20)
(8.7482e-05 -0.00364693 0)
(0.00511143 -0.00522225 0)
(0.00445094 -0.00634716 4.02441e-20)
(-0.000432285 0.00108685 -3.83679e-24)
(0.00200921 -0.00342365 1.03962e-19)
(-0.00226362 -0.00530872 9.33491e-20)
(0.0020559 0.00513714 0)
(-0.000298022 -0.000423244 1.28575e-24)
(-0.000477654 -0.000137351 0)
(0.00047108 8.45564e-05 -1.22931e-19)
(0.00110571 0.00270867 0)
(-0.00140426 -0.00715707 8.72762e-20)
(-0.00362674 -0.00260782 -9.6288e-20)
(0.00429399 0.000447643 -1.82573e-20)
(-0.00243453 -0.00304861 1.23812e-19)
(-0.000470398 -0.00613947 -8.07013e-20)
(0.00254851 0.00881474 0)
(0.000859849 0.000956294 0)
(0.00767259 -0.00915257 2.71852e-20)
(0.00134479 -0.00611651 1.15829e-19)
(-0.00166671 -0.00121883 2.55189e-20)
(0.00369218 0.0088823 0)
(0.00234875 -0.00679616 -4.11022e-20)
(-0.000860444 -0.00412193 2.13161e-20)
(0.00109102 0.00172885 0)
(0.00398589 -0.0030767 -2.00334e-20)
(-0.000964564 -0.0020335 -7.92679e-22)
(-0.00172157 -0.00367244 -6.8374e-20)
(0.00179296 0.0011692 0)
(-0.00271746 0.00347875 0)
(-0.00235735 -0.00447215 0)
(-0.00258184 -0.00563056 9.33216e-20)
(0.00689097 -0.00462461 -1.11078e-19)
(0.00167666 0.00254969 2.7639e-21)
(0.00539002 -0.00528643 -1.71869e-21)
(0.00394177 -0.00641041 0)
(0.00319535 -0.00894314 2.61752e-20)
(0.00154273 0.00299877 -2.41555e-21)
(-0.000579599 0.000217478 8.65647e-22)
(0.00176765 0.00357469 -1.97775e-21)
(-0.000686958 0.0010042 -2.41578e-20)
(-0.000250281 0.000919617 0)
(0.00183413 0.00376744 -7.56834e-22)
(0.00526426 -0.000343692 0)
(0.000777689 -0.000946185 0)
(0.00130479 0.00369236 0)
(0.00705415 -0.00510752 3.48365e-20)
(0.00128806 0.00314086 5.92122e-21)
(0.00136352 -0.00230191 -4.5388e-20)
(0.00134326 0.00284397 6.03478e-21)
(0.00941996 -0.00399137 1.85375e-20)
(-0.0021111 -0.000410551 0)
(0.00895313 -0.00540323 -6.78439e-20)
(-0.000241957 -0.00111876 0)
(0.00794112 -0.00545387 -3.64426e-20)
(0.00583512 -0.00555767 0)
(0.00918676 -0.0039993 -1.79427e-20)
(0.00404777 -0.00931064 -9.15315e-20)
(-0.000113958 -0.00116026 -4.54731e-20)
(0.000905619 0.00190833 0)
(0.0002332 -0.0052761 1.40097e-20)
(-0.001319 0.000656155 -3.08441e-20)
(0.00297736 0.00469084 -7.87415e-20)
(0.00422498 -0.00967105 2.33955e-20)
(0.00528381 0.00925701 9.11785e-21)
(0.00217135 -0.0019316 -8.38795e-21)
(-0.0024003 -0.00140568 -1.23257e-19)
(0.00310246 0.00615448 0)
(-0.000839425 0.000544855 -8.18578e-21)
(-0.00286168 -0.000847074 -3.90968e-20)
(8.75292e-05 -0.000150327 1.72626e-19)
(-0.000510106 0.0013618 1.16475e-20)
(0.00330794 0.00691818 0)
(0.00833215 -0.00691815 -3.47332e-20)
(0.00922959 -0.00620186 6.24856e-20)
(0.00777114 -0.00489917 9.93989e-20)
(-0.00255828 -0.0013493 -7.19423e-21)
(0.00213334 0.00626103 0)
(0.00214931 0.00534439 2.62781e-21)
(-0.000435774 -0.0011183 0)
(0.000572881 4.60666e-05 0)
(0.00304448 -0.00804637 0)
(0.00504649 -0.00804903 5.83481e-20)
(-9.72567e-05 -0.00608037 0)
(0.00369176 0.00834318 4.32754e-20)
(-0.000626911 -0.00472308 -3.81674e-20)
(0.00536119 -0.004562 0)
(0.00135238 -0.00249783 4.48138e-20)
(0.00107222 -0.00570626 1.41569e-20)
(0.000436838 0.00538483 0)
(0.00452201 0.0078699 5.95288e-21)
(0.000810854 0.00406006 0)
(-0.00260477 -0.00222755 -4.18129e-20)
(0.00544313 0.0106585 0)
(-0.000257782 7.18815e-05 5.40613e-20)
(0.00436901 -0.00263207 1.66451e-20)
(0.0068692 -0.00681324 2.67535e-20)
(-0.000385934 -0.000294276 -3.3638e-20)
(0.00726167 -0.00842329 -1.63981e-20)
(0.00507369 -0.00953336 0)
(0.00147811 -0.00319659 -1.67886e-20)
(0.00503282 0.0121819 1.8258e-20)
(0.00482312 0.00234724 0)
(0.00338298 0.0104777 -1.25706e-21)
(0.0010846 0.00369702 3.38433e-20)
(0.00593393 -0.00917173 -7.31578e-20)
(0.0019383 -0.00147724 -1.89998e-20)
(0.00506878 0.0116308 -4.37239e-21)
(0.00382172 -0.00851701 1.30302e-20)
(-0.00281547 0.00126558 0)
(0.00575005 0.0102155 1.21958e-20)
(0.000331048 0.00304668 0)
(0.00565318 -0.0105287 -1.22937e-21)
(0.00461619 0.0111157 4.17062e-21)
(0.00540527 0.00967384 0)
(-0.000696164 -0.0102882 1.68852e-21)
(0.000315861 -0.00729342 0)
(0.00561216 0.00638087 0)
(0.00023957 -0.00305549 6.67148e-22)
(-0.000556168 -0.0100037 -2.10888e-21)
(0.00489659 0.00901454 6.16758e-21)
(0.00893858 -0.00574531 6.7943e-20)
(0.00471228 -0.00524901 -2.88472e-20)
(0.00084319 0.000244842 0)
(0.00129429 0.00290501 0)
(-0.000246095 -0.0107166 7.15512e-21)
(-0.000121149 -0.00186021 -3.89678e-20)
(0.00561579 0.00955195 -3.53252e-20)
(-0.000300122 -0.00953582 3.09639e-24)
(0.00550579 0.00161301 7.25449e-20)
(0.00422231 0.00513158 -3.52964e-20)
(-0.0011253 -0.000442081 0)
(0.00100016 0.00213587 2.80756e-20)
(-0.000677321 -6.47409e-05 -3.66627e-20)
(0.00450946 0.00963912 7.34581e-22)
(0.00900626 -0.00128834 5.60111e-20)
(-0.000201056 0.00062148 9.54845e-20)
(0.00386674 0.00680018 9.21015e-21)
(0.0029987 0.00545913 -1.55796e-20)
(-0.00046029 0.00278067 0)
(0.00366845 0.00607799 0)
(-6.37052e-05 4.87844e-05 0)
(0.00434959 0.0118728 -2.41607e-21)
(0.00026736 0.000118819 -4.09924e-20)
(0.00284698 0.00733922 -1.08374e-20)
(-0.00119695 0.0076362 0)
(0.00320829 0.00892584 4.64021e-20)
(0.00260872 -0.00772113 -2.27737e-20)
(0.007101 -0.00333543 0)
(0.00344445 0.0118585 0)
(0.00266988 -0.00516444 4.45281e-20)
(0.00191487 0.0024538 -3.41236e-20)
(0.00758713 0.00612883 -9.93083e-21)
(0.000130323 -0.00371233 -6.33202e-21)
(0.00827756 -0.00185225 5.7544e-20)
(0.00559429 -0.00752396 1.9415e-20)
(0.00212821 0.00570092 1.117e-21)
(0.00190627 -0.00206842 0)
(0.00735759 0.00213055 -7.44942e-20)
(-4.15373e-05 -0.00898607 6.33463e-22)
(0.000492513 -0.00176793 1.13891e-20)
(-0.000213757 0.00186639 4.27594e-20)
(0.000780223 0.00125534 -1.54585e-20)
(-0.000795541 0.00108593 1.32619e-20)
(0.00407104 -0.00135229 -1.3829e-19)
(0.00389155 -0.00321758 -8.4066e-21)
(-0.000728293 -0.0104835 -8.49244e-21)
(0.000705186 -0.000912867 -2.48531e-20)
(0.00179575 -0.00235761 1.93959e-20)
(0.00429787 -0.00488481 -5.50152e-21)
(0.00246594 0.00388375 0)
(0.00891549 -0.00654158 -9.80517e-20)
(0.00453084 0.0102727 0)
(0.0020577 -0.00467864 -1.0694e-19)
(-0.00151849 0.00170982 9.65304e-20)
(-0.000375629 -0.00930843 -1.33383e-21)
(0.0025354 -0.000640579 4.20443e-20)
(-1.5239e-05 -1.00293e-05 -1.18126e-19)
(-0.000550696 0.000160393 -5.40767e-20)
(0.00440437 0.00938104 -1.1156e-21)
(5.93426e-05 3.49746e-05 0)
(0.00527486 0.0093652 6.86913e-22)
(-0.000291361 -0.00854694 -6.30976e-22)
(0.00136974 0.00125689 1.09111e-19)
(-0.00252584 0.000342189 0)
(0.00273673 0.00543567 6.34671e-21)
(-0.00176583 0.00690621 4.91143e-20)
(0.00568387 0.00890417 5.06804e-21)
(1.22437e-05 1.12009e-05 8.11899e-20)
(2.26434e-05 3.55694e-05 -2.03274e-20)
(0.00499987 -0.00618172 -2.14464e-20)
(0.0082543 -0.00145396 2.04595e-20)
(-0.000209489 -0.00652144 6.92384e-21)
(-0.00170543 -0.00172465 0)
(0.00239424 0.0102062 -1.44072e-20)
(-0.00090134 0.000667934 -4.53168e-20)
(0.0051475 0.0099335 -3.48948e-21)
(0.000618779 0.000905333 2.62859e-20)
(0.00380343 0.00932154 -1.14167e-21)
(-0.000520664 0.000416103 4.36634e-20)
(-0.000929254 0.000199723 -1.18833e-20)
(0.00341417 -0.00662088 0)
(-0.000672136 0.00131641 -2.40494e-20)
(0.00439002 0.0109969 1.91318e-21)
(0.00587684 0.0111505 -9.2107e-21)
(-0.000765835 0.00588023 0)
(0.00382562 -0.00516986 1.81036e-20)
(0.00178069 -0.000616919 3.32762e-20)
(0.00323034 0.00263894 -4.60282e-20)
(0.00107482 0.000877395 5.57385e-20)
(0.0055273 -8.0025e-05 1.7981e-20)
(0.000657522 -0.00522486 4.13666e-20)
(0.00705633 -0.00241934 9.75531e-20)
(-0.000805973 -0.00335116 -3.05755e-22)
(-0.000643607 -0.00594463 5.55278e-21)
(-0.0015047 -0.000488323 0)
(0.000390446 0.000183611 -1.26441e-20)
(0.00052346 0.0026055 6.93409e-21)
(0.00542257 -0.00731443 -1.46427e-20)
(0.00360447 0.0071593 -4.93396e-20)
(0.00305767 -0.0043748 -9.42281e-21)
(0.00657753 -0.00917693 -8.11442e-21)
(-0.00045156 0.00270464 -1.74751e-19)
(-0.000451044 -0.00225286 -4.81791e-20)
(0.00496073 -0.00863017 -2.69891e-20)
(0.00159496 0.00274901 0)
(0.00182642 0.00493461 2.92581e-20)
(0.00570267 0.0103233 4.01531e-21)
(0.00384416 0.00556556 1.38057e-20)
(-7.06673e-05 6.57968e-05 -5.59353e-20)
(0.000324555 0.0003449 5.79081e-20)
(0.00546569 -0.00730019 0)
(0.00208221 -0.00293982 3.78478e-20)
(-0.000668889 -0.00329804 7.58867e-21)
(0.00395602 -0.00508752 0)
(0.000924144 0.00403453 4.43404e-20)
(0.00278399 0.00584521 -8.86837e-21)
(0.00497748 0.013174 -3.00789e-20)
(0.00647233 -0.00759197 4.07667e-20)
(-0.000683127 -0.0063768 -1.05787e-22)
(0.0058918 -0.00744903 -2.37744e-20)
(0.00242333 0.00480888 -9.54865e-21)
(-0.000903253 -0.00880731 0)
(0.00439076 0.00811455 0)
(0.00372013 -0.00779111 0)
(0.00841829 0.00193075 -3.77686e-20)
(0.00630802 -0.00850519 0)
(0.00396375 -0.00409082 7.0877e-20)
(-0.00149448 -0.00138486 -5.14227e-20)
(-0.00199926 0.000937896 1.47284e-20)
(-0.00155 0.000471249 5.85111e-20)
(0.0025005 0.00500559 -9.11583e-21)
(-0.000766754 -0.000915505 2.16102e-21)
(-0.000169584 0.000208446 1.39703e-20)
(0.000583932 0.000514845 -1.74319e-19)
(0.00505228 0.000827532 1.55812e-20)
(0.00132624 0.000440471 3.16451e-22)
(0.0077201 0.0056814 9.70507e-21)
(-5.13117e-05 4.44309e-05 -1.52794e-20)
(0.00025645 0.00017964 9.93579e-20)
(0.0060432 0.0100475 0)
(0.00514386 0.0122314 0)
(0.00445915 -0.00612626 1.97199e-20)
(0.00661275 0.00786917 0)
(0.00401199 0.0111679 1.546e-20)
(0.00481773 0.00230787 0)
(0.00533895 0.00873294 3.72035e-22)
(0.00467493 0.00694229 9.85533e-21)
)
;

boundaryField
{
    front
    {
        type            empty;
    }
    back
    {
        type            empty;
    }
    bottom
    {
        type            zeroGradient;
    }
    left
    {
        type            noSlip;
    }
    top
    {
        type            uniformFixedValue;
        uniformValue    
        {
            type            scale;
            scale           
            {
                type            squarePulse;
                start           0.3;
                duration        0.3;
            }
            xScale          
            {
                type            constant;
                value           1;
            }
            value           
            {
                type            constant;
                value           (0 -0.7 0);
            }
        }
        value           uniform (0 -0 0);
    }
    right
    {
        type            noSlip;
    }
    inner_arc
    {
        type            noSlip;
    }
}


// ************************************************************************* //
