/*--------------------------------*- C++ -*----------------------------------*\
  =========                 |
  \\      /  F ield         | OpenFOAM: The Open Source CFD Toolbox
   \\    /   O peration     | Website:  https://openfoam.org
    \\  /    A nd           | Version:  9
     \\/     M anipulation  |
\*---------------------------------------------------------------------------*/
FoamFile
{
    format      ascii;
    class       surfaceScalarField;
    location    "0.55";
    object      phi;
}
// * * * * * * * * * * * * * * * * * * * * * * * * * * * * * * * * * * * * * //

dimensions      [0 3 -1 0 0 0 0];

internalField   nonuniform List<scalar> 
816
(
1.62003e-09
-1.19344e-08
1.03144e-08
-2.36022e-09
-2.17162e-08
2.40764e-08
1.92566e-08
-1.76366e-08
3.04513e-08
-3.01383e-08
-3.13043e-10
1.24675e-08
-1.24675e-08
2.63314e-08
5.03359e-09
-3.1365e-08
1.33421e-08
-1.33421e-08
-1.32569e-08
1.32569e-08
-2.33731e-08
-3.5357e-09
2.69088e-08
-1.31638e-08
1.08036e-08
3.7652e-08
-1.13206e-08
3.22454e-08
-2.29034e-08
-9.34202e-09
8.16725e-09
1.798e-08
-2.61473e-08
3.22897e-08
-3.19318e-08
-3.57809e-10
3.24241e-08
-3.11946e-08
-1.22953e-09
-2.02868e-08
3.12038e-08
-1.0917e-08
5.07897e-09
1.26283e-08
-1.77073e-08
-3.0449e-08
3.65858e-09
2.67905e-08
4.08648e-09
2.8159e-08
1.24089e-08
-3.5782e-08
2.30579e-08
7.39344e-09
1.16734e-09
-2.14541e-08
1.95202e-08
-3.75574e-09
-1.57644e-08
-2.2142e-08
-8.74946e-09
3.08915e-08
-2.39958e-08
1.85379e-09
-2.68271e-08
6.07624e-09
2.07509e-08
-2.7307e-08
3.09001e-08
-3.59316e-09
9.01696e-10
1.03879e-08
-1.12896e-08
8.82074e-09
-3.05369e-08
1.16651e-08
1.95386e-08
-1.92577e-08
2.01594e-08
-2.17407e-08
2.67742e-08
3.87171e-08
-2.70519e-08
-3.36444e-08
1.71128e-08
1.65316e-08
2.26391e-09
3.01602e-08
-5.85728e-09
2.53959e-08
1.97537e-09
3.03143e-08
-4.2308e-09
-2.25963e-08
-3.23168e-08
1.10138e-08
2.13031e-08
6.99637e-09
5.47115e-09
-1.04921e-08
-9.17043e-09
9.02611e-09
-2.96365e-08
-1.55815e-09
-2.53474e-08
-7.19326e-09
3.25407e-08
7.17144e-09
6.17069e-09
-1.10782e-08
2.80788e-08
-3.16145e-08
-1.30603e-08
-2.54605e-08
-1.8465e-09
-9.39648e-10
1.09984e-08
-1.00588e-08
2.40387e-08
-1.58714e-08
2.06848e-08
-1.16458e-09
-1.0961e-08
-2.26834e-08
1.35716e-08
1.26784e-08
8.53795e-09
-2.88735e-08
2.03355e-08
-3.75574e-09
-2.53474e-08
2.86221e-08
-2.35432e-08
7.8077e-09
-1.3665e-08
-1.82688e-09
-6.56443e-09
1.91928e-08
2.28513e-08
-1.91928e-08
-2.88485e-09
-2.9047e-08
-1.40493e-08
-1.53398e-08
2.93891e-08
-3.30499e-08
3.41339e-09
2.48585e-08
1.38585e-08
1.69315e-08
2.07205e-08
-1.27911e-08
3.42452e-08
-2.14541e-08
5.80271e-09
2.31048e-08
-2.89075e-08
-6.88301e-09
-2.26803e-08
1.25736e-08
-2.66229e-08
2.33449e-08
1.11544e-08
-3.44992e-08
1.15373e-08
2.00969e-08
-3.16342e-08
1.3377e-08
-1.3377e-08
-1.20964e-08
2.45053e-08
-1.7413e-08
5.31661e-09
3.05536e-08
4.4985e-09
5.81587e-09
-1.03144e-08
-3.13994e-08
5.6972e-09
2.57022e-08
-1.19344e-08
1.40446e-08
-1.40446e-08
-1.24976e-08
1.24976e-08
1.54336e-08
-3.0822e-08
1.53884e-08
-7.04973e-09
-1.37287e-09
1.09984e-08
-2.09382e-08
2.94762e-08
-4.53985e-10
-2.15499e-08
2.20039e-08
-1.87036e-08
-3.55633e-10
1.90592e-08
1.16425e-08
-1.71338e-08
3.25674e-08
-6.09024e-10
-2.35675e-08
2.41765e-08
1.9773e-08
9.68178e-09
-2.94548e-08
-2.3708e-08
5.7951e-09
1.80514e-08
-2.38465e-08
-1.30513e-08
-1.34688e-08
-1.31638e-08
-7.33263e-10
3.08935e-08
-1.7818e-09
-3.12681e-08
-1.90067e-08
2.48094e-08
-2.61332e-08
1.62815e-08
9.85169e-09
1.55123e-08
1.41965e-08
1.20535e-08
-2.30377e-09
3.26181e-08
-1.98277e-08
1.04921e-08
-7.04974e-09
1.40776e-09
-1.47848e-08
1.09235e-08
1.44724e-08
2.9181e-08
1.79129e-08
-2.84283e-08
1.05153e-08
-1.20554e-08
-1.40778e-08
-8.349e-09
-2.17893e-08
1.1869e-09
-2.51989e-08
2.4012e-08
5.58854e-10
-1.92625e-08
2.73952e-08
-1.31987e-08
-1.29929e-09
2.20502e-08
-1.59004e-08
3.40271e-09
5.56263e-09
2.60035e-08
-2.94558e-09
-1.85571e-09
2.56581e-08
-2.6366e-08
7.07849e-10
-1.83732e-08
-1.30262e-08
-2.52793e-08
1.7535e-08
7.74433e-09
-2.50698e-08
-2.43011e-09
2.8421e-08
5.03192e-11
-2.84713e-08
2.79482e-08
-2.29002e-09
-7.20065e-09
2.69737e-08
-7.72682e-09
7.72682e-09
2.60804e-08
2.34064e-09
1.31376e-09
-2.30705e-08
2.17567e-08
-2.70119e-10
-2.26333e-08
-2.6051e-08
-2.3772e-09
2.05986e-08
-2.05483e-08
3.96126e-10
-8.2451e-09
7.84898e-09
2.87841e-09
2.09947e-08
3.50508e-10
2.27796e-08
-2.31301e-08
-9.02611e-09
-1.14247e-10
2.14173e-08
1.63775e-09
1.77293e-08
-1.93671e-08
-2.01657e-08
1.58508e-08
4.31494e-09
-2.68425e-08
2.44124e-08
-3.16603e-08
1.56336e-09
3.0097e-08
-1.48374e-08
1.48374e-08
7.8077e-09
1.08117e-09
6.64565e-09
-2.17554e-09
-2.9082e-08
3.12575e-08
-9.67988e-10
-2.44925e-08
2.85391e-08
-1.97184e-08
-5.40991e-09
2.79042e-08
-2.24943e-08
5.81587e-09
-4.39561e-10
-3.12208e-08
-2.94866e-08
-8.24511e-09
-2.09049e-08
2.24683e-08
-1.09846e-08
1.09846e-08
-2.52047e-08
-1.06341e-08
2.05704e-08
-2.2746e-08
-2.14994e-08
1.60895e-08
-1.01825e-08
3.71781e-08
-2.69956e-08
-7.11536e-10
-2.01934e-08
9.17043e-09
-9.44055e-09
-7.88942e-09
9.20319e-09
6.22442e-10
-7.12912e-09
6.50668e-09
-4.37161e-10
2.10076e-08
1.73446e-08
1.20446e-08
-1.13248e-08
2.86693e-08
-2.23563e-08
-1.01837e-08
9.47214e-09
8.5476e-11
-2.23505e-08
2.2265e-08
9.03787e-09
-9.47503e-09
1.13084e-09
-2.29081e-08
2.17773e-08
1.80894e-08
-1.94622e-08
1.92288e-08
-3.0513e-09
-2.00192e-08
-2.01657e-08
-1.3665e-08
-1.34967e-08
-1.17826e-08
-2.99936e-08
1.78363e-10
2.98153e-08
-1.06454e-08
1.07309e-08
-2.97392e-08
3.05948e-10
2.94332e-08
2.24184e-08
4.98629e-11
-2.26123e-08
-1.33711e-10
-1.08036e-08
-1.9549e-08
3.07929e-08
-1.12438e-08
-1.60895e-08
1.50037e-08
1.08577e-09
-1.58508e-08
1.48828e-08
-2.28395e-08
2.24339e-08
4.05553e-10
2.28058e-08
-2.27243e-08
-8.14571e-11
-2.14994e-08
2.89106e-08
-1.14385e-08
-2.60612e-09
-2.97315e-08
1.84059e-08
1.02634e-08
1.72499e-10
-1.08275e-09
-3.19712e-08
-7.26387e-10
1.84557e-08
-3.12232e-08
-1.3354e-09
2.74158e-08
2.99917e-08
-1.15858e-08
1.96593e-08
2.01433e-08
5.86017e-09
5.7803e-09
-6.50669e-09
2.71294e-08
1.97555e-08
1.25208e-09
-1.86913e-08
1.97725e-08
9.52201e-09
-9.47214e-09
-9.60873e-09
9.47502e-09
-1.87446e-08
-1.97895e-08
3.19377e-08
-1.21482e-08
-1.06454e-08
-1.14385e-08
-7.12912e-09
-2.69816e-09
-1.78761e-08
-1.01837e-08
9.52201e-09
-9.60873e-09
-5.41613e-09
-8.46882e-10
1.86501e-08
-1.78032e-08
9.03787e-09
1.10033e-08
7.92758e-10
1.48828e-08
7.84898e-09
-1.07309e-08
-2.43287e-09
-7.88942e-09
-2.06859e-08
-1.12797e-08
3.19656e-08
1.87479e-08
-1.55555e-09
-2.48105e-08
4.40113e-10
2.63341e-08
9.76615e-10
-5.79877e-09
4.82215e-09
-1.00588e-08
2.44784e-08
-2.71766e-08
3.39184e-10
3.23059e-08
-2.88925e-08
5.79876e-09
-6.64565e-09
1.50037e-08
1.46906e-08
1.16828e-09
3.35889e-09
-1.65586e-08
-4.86077e-09
-2.74947e-08
2.09142e-09
1.17601e-08
2.01776e-08
1.73248e-08
-2.10044e-08
3.27645e-08
-2.75397e-08
6.85383e-09
5.78029e-09
-9.20318e-09
-1.16898e-08
-2.10046e-08
3.26944e-08
9.44055e-09
-3.22842e-08
-1.28738e-08
3.30514e-08
-1.27453e-08
3.14932e-08
2.10747e-08
7.19854e-10
-7.83475e-09
7.83475e-09
-1.47178e-08
-2.39769e-08
2.58602e-08
2.12808e-08
1.58972e-08
-1.17451e-08
1.17451e-08
-1.46906e-08
-2.57052e-09
-1.36863e-08
1.06341e-08
3.05218e-09
1.36863e-08
-1.94123e-09
-1.86405e-09
-1.47178e-08
-2.65475e-08
-2.7708e-08
5.3575e-09
-3.34294e-08
1.20195e-08
2.14099e-08
-1.23547e-08
1.96928e-09
-2.01544e-08
3.451e-08
-1.43556e-08
-3.25927e-08
1.24383e-08
1.65917e-08
-2.09262e-08
3.29457e-08
1.77917e-08
-3.06656e-08
-1.63455e-09
9.19519e-10
1.17682e-08
-2.03792e-08
2.06967e-08
-1.11865e-08
-1.95503e-08
3.07368e-08
-1.94681e-08
3.54204e-08
-1.47237e-08
2.73019e-08
1.11828e-08
2.42376e-08
2.83261e-08
-3.19438e-08
-3.04659e-08
1.57423e-08
2.17592e-08
-3.59495e-08
2.32041e-08
-1.26742e-08
2.73688e-08
-4.58919e-09
-1.9345e-08
-1.13205e-08
1.15127e-08
2.29973e-08
3.41975e-08
-8.34091e-09
-1.48399e-08
2.31808e-08
-6.18602e-09
6.18602e-09
-5.56815e-09
5.56815e-09
6.56242e-09
-6.56242e-09
6.54238e-09
-6.54238e-09
6.99637e-09
7.17144e-09
2.3516e-08
-3.16222e-08
8.1062e-09
-1.10782e-08
2.13134e-08
1.28841e-08
1.26364e-08
-1.26364e-08
-1.47848e-08
1.44182e-08
-1.44182e-08
-3.03806e-08
1.15452e-08
1.88353e-08
-6.56443e-09
-3.28262e-08
2.02153e-08
1.26109e-08
-5.83385e-09
5.83385e-09
-2.90154e-08
1.15973e-08
1.74181e-08
-1.01653e-08
-2.03539e-08
-1.86247e-08
2.28513e-08
-1.09078e-08
2.20621e-08
-9.11981e-09
-2.86948e-08
-3.09363e-08
2.06848e-08
8.85802e-09
3.76394e-10
9.74231e-10
1.49411e-09
-1.92014e-08
-3.29324e-08
1.86143e-08
1.43181e-08
-2.13871e-08
-1.04011e-08
-1.03202e-08
-2.657e-10
1.27812e-08
-2.72012e-08
1.23613e-08
-1.56039e-08
-2.45782e-08
4.00561e-08
-1.32656e-08
-2.05529e-08
8.82606e-09
1.17269e-08
-4.66269e-09
-2.63294e-08
1.39962e-09
2.49298e-08
-8.19161e-09
9.68853e-09
-9.68853e-09
-3.70229e-10
-1.69586e-08
-1.35783e-08
-1.36818e-08
2.57353e-08
2.51417e-08
-7.72359e-09
-2.61168e-08
-1.69501e-08
-2.25132e-09
3.12496e-08
-1.56457e-08
-1.30491e-08
-2.40306e-08
-1.87544e-08
-2.46076e-08
-4.07166e-09
-1.74782e-08
-7.07087e-09
-1.64966e-08
-1.2336e-08
-2.21633e-08
-2.88421e-08
-7.32448e-09
2.48595e-08
-2.1678e-08
-2.05676e-08
-2.51661e-08
2.36213e-08
-2.6465e-08
2.84369e-09
-6.83558e-09
-1.57685e-09
-2.87353e-09
2.3209e-08
-6.83558e-09
-3.55529e-09
3.02253e-08
3.99698e-09
-3.42223e-08
3.27078e-08
1.46575e-08
1.78832e-08
-1.27902e-08
2.55713e-08
6.74488e-09
-6.74488e-09
2.47746e-08
4.40645e-09
1.10961e-08
4.50845e-09
-1.94529e-08
2.00991e-08
-2.78227e-08
3.05976e-08
2.07035e-08
1.75838e-08
-3.06651e-08
1.30813e-08
-1.71851e-09
2.86932e-08
-9.85792e-09
2.0636e-08
2.19135e-08
-1.79165e-08
1.89436e-09
1.03879e-08
-2.0727e-08
1.25682e-08
1.03259e-08
1.34598e-08
1.94749e-08
-2.70132e-08
4.32984e-09
-1.93915e-08
4.03756e-09
1.91433e-08
-1.87501e-08
2.11181e-08
2.89391e-09
-2.09793e-08
5.99506e-09
-1.79193e-10
9.53061e-09
-2.9249e-08
-1.00173e-09
-3.11035e-08
4.31196e-09
-3.04856e-10
4.86707e-09
2.94063e-09
-1.82921e-08
2.81335e-08
2.49411e-09
-2.88235e-08
-1.12896e-08
5.99506e-09
2.28104e-08
-1.84954e-08
-2.03406e-08
-1.12816e-08
2.0611e-08
1.20071e-08
-2.20585e-08
4.86707e-09
1.46575e-08
-2.82998e-08
-2.63259e-08
2.56372e-08
-1.68214e-09
-1.66092e-08
-1.61266e-08
1.61266e-08
1.16574e-08
-3.29866e-08
-1.61019e-08
1.61019e-08
-1.88339e-08
-2.79104e-08
-1.99841e-08
-2.28254e-08
1.01234e-08
1.01481e-08
2.62349e-08
-5.62393e-09
-1.76109e-08
1.9277e-08
1.92912e-08
-3.03099e-08
1.18145e-08
-1.6852e-08
1.72284e-08
-1.86525e-08
-1.82021e-08
-1.2463e-08
-1.71601e-08
-5.52023e-09
-1.82105e-08
-9.69993e-09
1.19867e-08
-1.51257e-08
1.486e-08
3.05541e-09
2.51372e-08
1.27215e-10
-3.17417e-08
-2.60753e-08
-1.75303e-08
-2.03404e-09
-1.80957e-08
-4.03916e-09
-5.39749e-09
-5.35482e-09
-1.20703e-08
1.33612e-08
2.46712e-08
-2.75092e-09
-1.56015e-08
-4.1922e-10
1.6766e-08
1.96183e-08
-2.16662e-08
-2.26916e-08
-2.3608e-08
-2.53479e-08
-9.63071e-09
7.03464e-09
2.58348e-09
)
;

boundaryField
{
    front
    {
        type            empty;
        value           nonuniform List<scalar> 0();
    }
    back
    {
        type            empty;
        value           nonuniform List<scalar> 0();
    }
    bottom
    {
        type            calculated;
        value           nonuniform List<scalar> 
12
(
8.42261e-09
2.74999e-08
2.05742e-08
2.09678e-08
1.75353e-08
4.82215e-09
4.86077e-09
2.60684e-08
2.70489e-08
2.62764e-08
1.75112e-08
8.41243e-09
)
;
    }
    left
    {
        type            calculated;
        value           uniform 0;
    }
    top
    {
        type            calculated;
        value           nonuniform List<scalar> 8(-2.625e-08 -2.625e-08 -2.625e-08 -2.625e-08 -2.625e-08 -2.625e-08 -2.625e-08 -2.625e-08);
    }
    right
    {
        type            calculated;
        value           uniform 0;
    }
    inner_arc
    {
        type            calculated;
        value           uniform 0;
    }
}


// ************************************************************************* //
