/*--------------------------------*- C++ -*----------------------------------*\
  =========                 |
  \\      /  F ield         | OpenFOAM: The Open Source CFD Toolbox
   \\    /   O peration     | Website:  https://openfoam.org
    \\  /    A nd           | Version:  9
     \\/     M anipulation  |
\*---------------------------------------------------------------------------*/
FoamFile
{
    format      ascii;
    class       volVectorField;
    location    "0.55";
    object      U;
}
// * * * * * * * * * * * * * * * * * * * * * * * * * * * * * * * * * * * * * //

dimensions      [0 1 -1 0 0 0 0];

internalField   nonuniform List<vector> 
578
(
(-0.0361 -0.043 0)
(-0.0193 -0.0652 3.15e-16)
(-0.0542 -0.0639 -1.12e-16)
(0.00359 -0.0708 -2.67e-17)
(0.0118 -0.0263 -5.02e-17)
(0.00454 -0.0929 -9.89e-17)
(-0.0123 -0.0269 5e-17)
(0.0132 -0.0244 -2.14e-20)
(0.0597 -0.0899 -2.18e-16)
(-0.0114 -0.0407 4.67e-16)
(0.00577 -0.101 -1.47e-16)
(0.0385 -0.075 0)
(0.00933 -0.0872 1.09e-16)
(0.0394 -0.0822 -8.45e-16)
(-0.0401 -0.0832 4.25e-16)
(0.07 -0.0751 -1.02e-16)
(-0.0455 -0.0414 4.55e-16)
(-0.0732 -0.0622 0)
(0.0353 -0.0685 0)
(0.0652 -0.0878 1.57e-16)
(0.00326 -0.0799 0)
(0.0557 -0.0688 0)
(0.0308 -0.0274 -5.41e-16)
(0.000205 -0.0738 0)
(-0.00105 -0.0585 0)
(0.0336 -0.0682 4.3e-16)
(-0.00331 -0.0677 -5.43e-17)
(-0.000255 -0.0336 2.92e-17)
(-0.0169 -0.0781 -5.2e-16)
(0.0722 -0.0781 4.17e-16)
(-0.00102 -0.0581 -5e-16)
(0.00427 -0.0764 1.07e-16)
(0.0771 -0.083 -4.02e-16)
(-0.00121 -0.0795 2.11e-16)
(-0.0352 -0.0748 -4.2e-16)
(0.0617 -0.0652 -6.32e-16)
(0.0345 -0.0734 8.27e-16)
(0.0325 -0.0631 0)
(-0.0696 -0.0757 -4.15e-16)
(0.0189 -0.0403 0)
(0.0193 -0.0438 -4.1e-16)
(0.0221 -0.0399 4.92e-16)
(0.0194 -0.0377 0)
(-0.0356 -0.0732 0)
(0.0542 -0.0528 5.38e-17)
(-0.0195 -0.0413 0)
(-0.0198 -0.045 4.1e-16)
(0.054 -0.0826 -5.4e-17)
(-0.0693 -0.0756 6.18e-16)
(-0.00569 -0.0806 -1.14e-16)
(0.000756 -0.0352 1.6e-17)
(0.0138 -0.0901 -4.59e-16)
(0.046 -0.033 -2.23e-16)
(-0.00143 -0.0805 0)
(0.0015 -0.0811 3.74e-16)
(-0.00427 -0.0976 9.07e-16)
(0.0119 -0.0104 8.67e-16)
(0.0363 -0.0301 -4.4e-16)
(-0.0599 -0.0594 -7.92e-16)
(0.0396 -0.0425 2.31e-16)
(-0.0707 -0.0674 4.18e-16)
(-0.0381 -0.0267 0)
(-0.0576 -0.0443 6e-17)
(0.0354 -0.0732 3.93e-16)
(-0.00462 -0.0892 1.05e-16)
(-0.0444 -0.0837 2.32e-16)
(0.0733 -0.0857 -4.83e-17)
(0.0102 -0.0979 3.46e-16)
(0.0787 -0.0737 -1.98e-16)
(0.0393 -0.084 4.62e-16)
(0.000425 -0.0623 0)
(0.0013 -0.0629 -1.5e-17)
(0.000145 -0.0862 -1.13e-16)
(0.0403 -0.0856 0)
(0.00159 -0.108 2.1e-16)
(0.0117 -0.0247 0)
(0.0527 -0.0762 2.78e-16)
(0.0433 -0.062 -2.28e-16)
(0.00571 -0.0901 0)
(-0.0357 -0.0384 -1.21e-16)
(0.0362 -0.0741 -3.92e-16)
(-0.0177 -0.0255 -4.24e-16)
(0.0107 -0.025 -1.93e-16)
(0.0176 -0.0251 1.95e-16)
(-0.0702 -0.0866 -5.61e-17)
(-0.0142 -0.041 0)
(0.000623 -0.0204 0)
(-0.00411 -0.107 -3.33e-16)
(0.0286 -0.0634 9.93e-21)
(-0.0306 -0.0702 3.74e-18)
(-0.00241 -0.0739 0)
(-0.0608 -0.0786 1.14e-16)
(-0.029 -0.0648 0)
(0.013 -0.0971 2.03e-16)
(0.0736 -0.0758 6.17e-16)
(0.0528 -0.0699 -5.29e-16)
(0.000119 -0.0822 1.12e-16)
(0.00524 -0.0826 -8e-16)
(-0.00388 -0.0244 -8.36e-16)
(-0.0399 -0.0834 0)
(-0.0418 -0.0748 0)
(0.0369 -0.0814 -7.3e-16)
(-0.0138 -0.0946 0)
(-0.0545 -0.0575 0)
(-0.00448 -0.0815 0)
(0.0392 -0.0825 -6.29e-16)
(0.00222 -0.0978 -2.21e-16)
(0.0197 -0.0425 0)
(-0.00833 -0.0229 0)
(0.0221 -0.0444 -5.1e-16)
(0.0615 -0.0712 -1.7e-16)
(0.0376 -0.08 0)
(0.0698 -0.0847 4.68e-16)
(0.0607 -0.0722 -3.77e-16)
(0.0634 -0.0745 3.92e-16)
(-0.0138 -0.0905 4.54e-16)
(0.00604 -0.0801 2.36e-16)
(-0.05 -0.0772 -3.46e-16)
(-0.0269 -0.0607 6.01e-17)
(-0.00517 -0.0827 3.96e-16)
(0.0278 -0.0559 -4.09e-16)
(0.0278 -0.0419 -9.9e-22)
(0.0382 -0.0768 -4.46e-16)
(0.00168 -0.0651 -5.98e-17)
(0.0234 -0.0404 0)
(-0.0325 -0.082 4.61e-16)
(0.0244 -0.0752 -4.38e-16)
(0.0752 -0.0765 -2.24e-16)
(-0.0408 -0.0864 2.31e-16)
(-0.0266 -0.082 0)
(-0.0403 -0.082 0)
(-0.0318 -0.0834 0)
(0.0111 -0.0937 0)
(0.00807 -0.0162 4.34e-16)
(-0.0397 -0.0844 -4.31e-16)
(-0.0406 -0.0695 0)
(0.0338 -0.0634 0)
(-0.00836 -0.0866 -3.88e-16)
(0.0497 -0.0733 4.38e-16)
(-0.035 -0.0686 0)
(-0.0181 -0.0342 5.29e-16)
(-0.0276 -0.0823 0)
(-0.0302 -0.0584 0)
(-0.00022 -0.0623 0)
(0.0158 -0.031 0)
(-0.0733 -0.0829 1.01e-20)
(-0.0247 -0.0573 4.85e-16)
(-0.00658 -0.0514 0)
(0.0405 -0.0839 4.67e-16)
(-0.0265 -0.0763 0)
(0.0486 -0.0903 0)
(-0.0186 -0.0262 0)
(0.018 -0.0177 0)
(0.0139 -0.0282 5.19e-16)
(-0.0438 -0.0879 -4.33e-16)
(-0.00577 -0.0704 -2.4e-16)
(-0.0197 -0.0885 4.67e-16)
(0.0116 -0.0792 -1.07e-16)
(-0.0154 -0.0152 -1.04e-16)
(0.0512 -0.091 -3.69e-16)
(0.044 -0.0831 5.19e-16)
(0.0413 -0.0734 5.4e-16)
(-0.0099 -0.0187 -6.63e-18)
(0.0445 -0.08 0)
(-8.68e-05 -0.019 2.06e-20)
(-0.0288 -0.0726 5.44e-21)
(-0.000204 -0.0348 -5.22e-16)
(-0.0391 -0.0756 0)
(0.00766 -0.0527 -1.17e-16)
(-0.0056 -0.103 -1.92e-16)
(0.0429 -0.0708 0)
(0.0202 -0.0365 0)
(-0.0243 -0.0416 0)
(-0.014 -0.0283 -5.22e-16)
(-0.0341 -0.0644 0)
(-0.00521 -0.095 -1.07e-16)
(-0.000284 -0.0985 -1.09e-16)
(-0.0481 -0.0729 4e-16)
(0.0266 -0.0451 5.87e-17)
(-0.00214 -0.0637 2.46e-16)
(-0.0209 -0.0374 0)
(-0.0367 -0.0642 0)
(-0.0215 -0.0661 0)
(0.00528 -0.0958 8.04e-16)
(-0.0487 -0.0783 2.93e-16)
(-0.00495 -0.038 -3.88e-16)
(0.0249 -0.0299 -1.97e-16)
(-0.0417 -0.0867 1.04e-16)
(-0.0459 -0.0904 4.52e-16)
(-0.00106 -0.036 -5.26e-16)
(0.0449 -0.089 -4.49e-16)
(0.0379 -0.0706 0)
(0.038 -0.049 4.99e-16)
(-0.0361 -0.0682 0)
(-0.0241 -0.0415 0)
(-0.00145 -0.111 2.07e-16)
(0.00288 -0.0419 9.95e-16)
(-0.00283 -0.0414 -7.95e-16)
(-0.0381 -0.0709 0)
(0.0354 -0.0674 0)
(0.00587 -0.0396 -3.83e-16)
(0.00902 -0.0993 -1.02e-15)
(0.0136 -0.042 -2.47e-16)
(-0.0041 -0.108 0)
(-0.000975 -0.104 -3.27e-16)
(0.0389 -0.0751 0)
(-0.0442 -0.0804 0)
(-0.045 -0.0536 0)
(0.046 -0.0907 4.61e-16)
(-0.0223 -0.0254 0)
(-0.0197 -0.0456 4.92e-16)
(-0.0469 -0.0922 -4.44e-16)
(-0.0375 -0.0796 -1.44e-17)
(0.00245 -0.107 1.07e-16)
(-0.0328 -0.0664 -2.46e-16)
(0.00136 -0.0726 0)
(-0.0417 -0.08 -4.69e-16)
(0.0409 -0.079 4.69e-16)
(-0.0447 -0.0907 4.58e-16)
(-0.0111 -0.0239 -5.36e-16)
(0.0437 -0.0894 2.34e-16)
(-0.0372 -0.0723 0)
(0.0238 -0.0501 -4.84e-16)
(0.0227 -0.0427 0)
(-0.0221 -0.0412 0)
(-0.0241 -0.0503 9.74e-16)
(2.91e-05 -0.115 -1.05e-16)
(0.00263 -0.0253 3.92e-20)
(-0.00207 -0.025 2.06e-16)
(-0.000286 -0.019 4.15e-16)
(-0.00935 -0.0229 -4.2e-16)
(0.00456 -0.0223 -2.12e-16)
(-0.00805 -0.0162 -4.31e-16)
(0.0231 -0.0727 0)
(-0.0235 -0.0738 0)
(0.0164 -0.0263 1.49e-16)
(0.0124 -0.0237 0)
(-0.0127 -0.0238 0)
(0.0158 -0.0938 1.7e-16)
(0.0194 -0.0452 0)
(-0.0112 -0.0203 0)
(0.0112 -0.0194 0)
(-0.00141 -0.113 -4.24e-16)
(-0.019 -0.0355 0)
(-0.00136 -0.0218 8.07e-16)
(0.00899 -0.0179 0)
(-0.0096 -0.018 -4.18e-16)
(-0.00358 -0.0401 9.76e-16)
(-0.0135 -0.0218 0)
(-0.00188 -0.0998 -1.06e-16)
(0.00142 -0.11 1.05e-16)
(-0.036 -0.0835 0)
(0.0067 -0.0666 0)
(0.00697 -0.0202 -4.18e-18)
(0.000561 -0.0181 0)
(0.027 -0.081 4.6e-16)
(-0.000417 -0.0356 5.19e-16)
(-0.0517 -0.0923 -7.1e-16)
(0.0133 -0.024 0)
(0.00404 -0.0395 5.24e-16)
(0.011 -0.0237 5.32e-16)
(-0.0118 -0.0211 4.23e-16)
(0.00076 -0.0217 -8.25e-16)
(0.0011 -0.039 5.56e-16)
(-0.0329 -0.0718 3.55e-16)
(0.0292 -0.0629 8.79e-16)
(0.0139 -0.0404 0)
(0.0049 -0.0115 -4.29e-16)
(-0.000891 -0.02 -4.23e-16)
(0.00212 -0.00913 0)
(-0.00216 -0.00925 0)
(-0.0323 -0.0796 -4.48e-16)
(0.0188 -0.052 0)
(-0.000238 -0.117 -3.07e-16)
(0.00635 -0.104 -2.25e-16)
(-0.00106 -0.115 -6.2e-16)
(-0.00239 -0.089 2.4e-16)
(-0.00495 -0.0116 0)
(-0.0228 -0.042 0)
(-0.00096 -0.107 -5.43e-16)
(0.0216 -0.0408 0)
(-0.0019 -0.11 9.35e-16)
(0.000314 -0.116 0)
(0.00287 -0.11 -1.05e-16)
(-0.000822 -0.115 2.1e-16)
(-0.016 -0.0312 -5.09e-16)
(0.00674 -0.0136 -8.49e-16)
(-0.00678 -0.0137 4.28e-16)
(-0.000499 -0.0148 0)
(0.000208 -0.0344 -5.2e-16)
(0.0226 -0.0677 0)
(-0.0368 -0.0823 1.42e-17)
(-0.00394 -0.102 1.92e-16)
(-0.0132 -0.023 0)
(0.000397 -0.018 0)
(0.000952 -0.0363 6.42e-17)
(0.0115 -0.0209 -4.24e-16)
(0.0262 -0.0807 -1.13e-15)
(-0.000163 -0.0364 1.19e-16)
(0.000318 -0.0367 -4.63e-16)
(-0.00126 -0.0979 5.57e-16)
(-0.0231 -0.069 0)
(1.1e-05 -0.0211 4.12e-16)
(-1.56e-05 -0.018 0)
(0.000635 -0.0209 0)
(-5.06e-06 -0.0222 7.81e-16)
(0.0259 -0.0751 4.52e-16)
(-0.00186 -0.0763 -1.07e-15)
(-0.000445 -0.118 -4.07e-16)
(-0.000442 -0.118 0)
(0.0243 -0.0569 2.45e-16)
(-0.000841 -0.116 3.07e-16)
(-0.000403 -0.119 -6.48e-16)
(-0.0191 -0.0526 0)
(-0.000589 -0.114 4.22e-16)
(0.00119 -0.11 4.34e-16)
(-0.0341 -0.0766 0)
(-0.0071 -0.0205 0)
(-0.014 -0.0408 0)
(-0.000891 -0.106 -5.21e-16)
(-0.0294 -0.0623 -4.9e-16)
(4.31e-05 -0.117 8.46e-16)
(-0.00267 -0.11 1.08e-16)
(0.000545 -0.103 -3.37e-16)
(-0.00502 -0.105 4.29e-16)
(0.000403 -0.113 -1.99e-16)
(-0.0494 -0.0916 4.25e-16)
(-0.032 -0.0609 0)
(0.043 -0.0866 0)
(9.86e-05 -0.114 7.81e-16)
(-0.0099 -0.0975 1.1e-16)
(-0.0558 -0.0907 -1.69e-16)
(-0.000254 -0.118 2.07e-16)
(0.000739 -0.104 -4.23e-16)
(-0.0277 -0.0554 7.3e-16)
(-7.88e-05 -0.113 2.13e-16)
(0.00516 -0.104 -1.97e-16)
(0.000901 -0.103 -4.41e-16)
(-0.000425 -0.0763 0)
(-0.00238 -0.0903 0)
(0.00197 -0.108 -2.15e-16)
(0.00181 -0.112 3.18e-16)
(-0.000839 -0.116 3.07e-16)
(-0.000739 -0.0658 4.38e-16)
(-0.000163 -0.117 3.11e-16)
(0.0497 -0.0662 -1.25e-16)
(0.0276 -0.0775 2.46e-16)
(-0.00803 -0.0185 -4.26e-16)
(0.00765 -0.0175 1.08e-16)
(-0.00887 -0.0201 4.21e-16)
(0.00895 -0.0199 0)
(0.00917 -0.0191 4.29e-16)
(-0.0093 -0.0193 2.15e-16)
(-0.00167 -0.103 -2.11e-16)
(0.00991 -0.0223 0)
(-0.0101 -0.0233 0)
(3.41e-05 -0.116 -3.1e-16)
(-0.0116 -0.0243 -4.15e-16)
(0.0141 -0.026 0)
(-0.0143 -0.0266 0)
(-0.00135 -0.113 -3.35e-16)
(-0.0119 -0.011 0)
(-9.37e-05 -0.117 1.04e-16)
(0.00782 -0.0191 4.77e-16)
(-0.000341 -0.117 -1.08e-16)
(0.000553 -0.0962 -4.55e-16)
(-0.00134 -0.115 1.08e-16)
(0.0396 -0.0783 4.52e-16)
(0.00727 -0.101 1.89e-16)
(-0.0326 -0.0298 0)
(0.036 -0.0787 0)
(-0.0332 -0.0217 -5.25e-17)
(-0.0523 -0.054 4.38e-16)
(0.0304 -0.0829 -2.28e-16)
(-0.0765 -0.0851 -2.34e-16)
(0.0329 -0.0202 4.02e-16)
(-0.00873 -0.101 -1.09e-16)
(-0.0156 -0.0355 -5.4e-16)
(0.0154 -0.0344 3.86e-16)
(-0.0258 -0.05 -4.99e-16)
(-0.00128 -0.081 -3.86e-16)
(0.0161 -0.0361 -2.69e-16)
(-0.0163 -0.0365 0)
(0.00345 -0.107 -5.28e-16)
(0.00146 -0.111 3.11e-16)
(-0.000972 -0.104 6.42e-16)
(-0.00164 -0.0194 -5.51e-16)
(-0.0199 -0.0434 5.02e-16)
(-0.0224 -0.0443 0)
(0.0141 -0.0332 -3.32e-16)
(0.00421 -0.0812 1.91e-16)
(0.0152 -0.0813 0)
(0.00979 -0.0917 4.52e-16)
(0.0282 -0.0718 -2.2e-16)
(-0.0798 -0.0775 3.97e-16)
(0.0102 -0.0535 2.32e-16)
(0.0619 -0.0446 3.93e-18)
(-0.000285 -0.0987 5.69e-16)
(0.00546 -0.0716 4.84e-16)
(-0.00104 -0.0313 5.4e-16)
(-0.0748 -0.0793 -7.84e-16)
(0.00111 -0.0334 -4.92e-16)
(-0.00618 -0.0368 2.58e-16)
(-0.0105 -0.0784 3.52e-16)
(-0.0126 -0.0847 0)
(-0.00814 -0.0896 0)
(0.073 -0.0603 0)
(-0.0236 -0.0679 7.1e-16)
(0.00872 -0.101 -5.46e-16)
(0.0221 -0.089 -4.46e-16)
(-0.00834 -0.0778 -9.13e-16)
(-0.0373 -0.0799 1.12e-16)
(-0.00281 -0.094 5.25e-21)
(-0.0274 -0.073 -9.36e-16)
(-0.0338 -0.0765 -1.13e-16)
(0.0144 -0.0954 1.09e-16)
(0.0321 -0.0706 -4.97e-16)
(-0.0326 -0.0719 -2.5e-16)
(0.041 -0.0865 0)
(-0.00776 -0.0955 1.08e-16)
(-0.0379 -0.0829 5.85e-17)
(0.000112 -0.0176 -1.76e-20)
(0.0412 -0.0842 0)
(-0.04 -0.0821 6.07e-16)
(-0.0359 -0.0812 0)
(0.0314 -0.0805 -2.35e-16)
(0.0138 -0.0404 6.63e-16)
(-0.00619 -0.089 -5.04e-16)
(0.00785 -0.0223 -3.96e-16)
(0.0308 -0.0821 0)
(-0.065 -0.0876 0)
(0.00127 -0.113 -2.1e-16)
(0.0469 -0.0525 -1.19e-16)
(0.0114 -0.0837 0)
(-0.00872 -0.0205 -2.08e-16)
(0.0363 -0.0817 -2.29e-16)
(0.0316 -0.0688 0)
(-0.0282 -0.0863 -4.47e-16)
(0.021 -0.0648 0)
(-0.0155 -0.093 4.56e-16)
(-0.0258 -0.0864 -3.5e-16)
(0.00358 -0.0958 0)
(0.00992 -0.0829 2.44e-16)
(0.00028 -0.0774 0)
(-0.0602 -0.0914 0)
(-0.00445 -0.109 4.4e-16)
(-0.0005 -0.062 -3.74e-16)
(-0.0542 -0.0719 -4.47e-16)
(-0.0445 -0.0655 6.34e-16)
(0.000732 -0.0172 0)
(-0.042 -0.0853 1.2e-16)
(-0.0109 -0.082 0)
(-0.0369 -0.0808 1.38e-21)
(0.00967 -0.0814 1.85e-16)
(-0.0432 -0.0889 -4.34e-16)
(-0.00145 -0.0642 0)
(-0.00552 -0.0639 -7.76e-18)
(0.0363 -0.0649 2.25e-16)
(0.000513 -0.109 6.71e-16)
(-0.0585 -0.0756 0)
(0.0171 -0.0641 4.84e-16)
(-0.025 -0.0281 2.48e-16)
(-0.0141 -0.0969 -1.71e-16)
(0.0142 -0.0382 -3.02e-16)
(-0.00221 -0.113 1.08e-16)
(0.0509 -0.0798 -1.44e-20)
(-0.0154 -0.0399 0)
(0.0248 -0.0269 -2.54e-16)
(-0.0117 -0.0992 2.27e-16)
(0.0335 -0.0761 -7.03e-16)
(0.00053 -0.0912 -5e-16)
(-0.00114 -0.0179 0)
(-0.0125 -0.0165 0)
(-0.00989 -0.0756 2.36e-16)
(-0.000568 -0.102 -4.63e-16)
(0.0361 -0.0795 2.23e-16)
(0.0348 -0.082 4.7e-16)
(0.0104 -0.0135 2.07e-16)
(0.0194 -0.0257 1.02e-16)
(0.0485 -0.0565 2e-16)
(0.00047 -0.0931 0)
(0.00308 -0.11 2.19e-16)
(-0.0757 -0.0791 -3.36e-16)
(-0.000781 -0.11 -1.04e-15)
(-0.00912 -0.0814 1.89e-16)
(0.0263 -0.0713 2.42e-16)
(-8.49e-06 -0.0929 3.52e-16)
(-0.00212 -0.0407 0)
(-0.0164 -0.0885 0)
(-0.0532 -0.0842 -2.23e-16)
(0.00222 -0.041 -1.91e-16)
(-0.07 -0.0872 5.53e-17)
(0.0315 -0.0786 2.81e-17)
(0.0174 -0.0906 5.84e-17)
(-0.00996 -0.0982 -2.25e-16)
(-0.015 -0.0352 5.26e-16)
(-0.00155 -0.0713 2.48e-16)
(-0.0387 -0.0841 2.24e-16)
(-0.00672 -0.0782 1.84e-16)
(0.00638 -0.0788 0)
(0.0405 -0.0854 -2.37e-16)
(-0.00567 -0.105 -4.46e-16)
(0.0239 -0.0608 0)
(0.00257 -0.0992 6.64e-16)
(-0.0692 -0.074 1.27e-16)
(-0.0157 -0.0897 0)
(-0.0266 -0.0598 2.6e-16)
(0.00915 -0.0937 0)
(-0.0254 -0.0629 4.87e-16)
(-0.02 -0.0895 0)
(0.00107 -0.0769 4.52e-16)
(0.0392 -0.0648 0)
(0.00137 -0.0616 -4.92e-16)
(-0.0278 -0.0646 -2.7e-16)
(-0.0329 -0.0721 -6.28e-17)
(0.00024 -0.0362 -4.91e-16)
(0.0396 -0.0826 2.42e-16)
(0.0277 -0.0636 0)
(0.000841 -0.0709 0)
(0.0212 -0.0895 4.64e-16)
(0.00054 -0.101 -3.3e-16)
(0.0271 -0.0494 -3.92e-16)
(-0.00143 -0.112 1.09e-16)
(0.0247 -0.057 0)
(0.035 -0.0764 2.57e-16)
(0.00132 -0.0896 -6.28e-16)
(1.85e-05 -0.0723 3.22e-16)
(0.0056 -0.0687 -2.53e-16)
(0.0531 -0.0742 1.16e-16)
(-0.00468 -0.0735 2.56e-16)
(0.0312 -0.0471 0)
(0.0427 -0.0876 0)
(-0.00218 -0.036 -4.82e-16)
(0.000318 -0.0939 0)
(0.0214 -0.0864 5.38e-16)
(-0.0248 -0.0373 -2.67e-16)
(0.000911 -0.0578 0)
(-0.031 -0.0688 -3.17e-16)
(-0.0489 -0.0576 -3.06e-17)
(-0.0119 -0.066 5.16e-16)
(0.013 -0.0672 8.72e-20)
(0.0147 -0.0884 -2.97e-17)
(0.0257 -0.0382 0)
(0.0284 -0.0641 2.69e-16)
(0.0125 -0.0749 0)
(-0.000896 -0.0952 -2.37e-16)
(0.000392 -0.0721 0)
(-0.0515 -0.0713 0)
(0.063 -0.0761 -1.15e-16)
(0.0284 -0.0673 2.51e-16)
(0.0674 -0.0612 3.25e-17)
(-0.0414 -0.0829 -1.3e-16)
(0.0343 -0.0788 -2.25e-16)
(-0.0514 -0.0754 1.18e-16)
(0.0481 -0.0634 -1.29e-16)
(-0.00624 -0.106 -1.11e-16)
(0.055 -0.0899 -3.03e-16)
(-0.00083 -0.111 1.27e-16)
(0.00104 -0.0918 1.25e-16)
(-0.012 -0.0929 6.54e-17)
(-0.0148 -0.0942 0)
(-0.0304 -0.0482 0)
(0.0249 -0.0558 -5.64e-16)
(-0.0208 -0.0857 0)
(0.0217 -0.0864 -2.43e-16)
(0.000825 -0.0872 0)
(0.016 -0.0873 2.48e-16)
(-0.00992 -0.0987 1.66e-16)
(-0.023 -0.0871 -2.65e-16)
(0.0225 -0.087 -2.66e-16)
(-0.0375 -0.0814 2.45e-16)
(-0.0584 -0.0719 0)
(0.0572 -0.0504 -1.81e-16)
(-0.00979 -0.0909 -5.19e-16)
(-0.0708 -0.0769 1.3e-16)
(0.000684 -0.0891 0)
(-0.0677 -0.0804 2.68e-16)
(-0.0581 -0.0656 0)
)
;

boundaryField
{
    front
    {
        type            empty;
    }
    back
    {
        type            empty;
    }
    bottom
    {
        type            zeroGradient;
    }
    left
    {
        type            noSlip;
    }
    top
    {
        type            uniformFixedValue;
        uniformValue    
        {
            type            table;
            format          csv;
            file            "inlet_v.csv";
            nHeaderLine     1;
            refColumn       0;
            componentColumns List<label> 3(1 2 3);
            separator       ",";
            mergeSeparators 0;
        }
        value           uniform (0 -0.08 0);
    }
    right
    {
        type            noSlip;
    }
    inner_arc
    {
        type            noSlip;
    }
}


// ************************************************************************* //
