/*--------------------------------*- C++ -*----------------------------------*\
  =========                 |
  \\      /  F ield         | OpenFOAM: The Open Source CFD Toolbox
   \\    /   O peration     | Website:  https://openfoam.org
    \\  /    A nd           | Version:  9
     \\/     M anipulation  |
\*---------------------------------------------------------------------------*/
FoamFile
{
    format      ascii;
    class       volScalarField;
    location    "0.9";
    object      p;
}
// * * * * * * * * * * * * * * * * * * * * * * * * * * * * * * * * * * * * * //

dimensions      [0 2 -2 0 0 0 0];

internalField   nonuniform List<scalar> 
942
(
10.3018
10.3029
10.2977
10.3022
10.298
10.3027
10.3033
10.3026
10.3036
10.3035
10.3059
10.3026
10.3024
10.3043
10.302
10.3039
10.3011
10.3017
10.3042
10.2999
10.3003
10.302
10.3012
10.2979
10.3063
10.2979
10.3008
10.3012
10.2987
10.3014
10.2981
10.3009
10.2987
10.2928
10.301
10.3013
10.3016
10.3012
10.3016
10.2981
10.2863
10.2995
10.2982
10.3033
10.3032
10.3021
10.3053
10.2975
10.2894
10.3048
10.3042
10.3011
10.3012
10.2977
10.3032
10.2965
10.3053
10.3031
10.3052
10.2991
10.3012
10.301
10.2899
10.3016
10.3013
10.3052
10.3012
10.3051
10.2982
10.3033
10.302
10.3036
10.3045
10.3015
10.2978
10.2999
10.2998
10.3012
10.2982
10.3045
10.3031
10.298
10.3067
10.3053
10.3056
10.2998
10.3005
10.3048
10.3034
10.3063
10.298
10.3013
10.3031
10.2925
10.2997
10.2993
10.3006
10.3051
10.3031
10.3012
10.3035
10.3029
10.305
10.3033
10.2988
10.3012
10.3018
10.3009
10.3039
10.3063
10.3003
10.2959
10.3036
10.3036
10.3053
10.3013
10.3021
10.3022
10.3012
10.2826
10.3011
10.3012
10.298
10.3038
10.3049
10.2983
10.3011
10.299
10.2999
10.3012
10.3038
10.3026
10.3051
10.3
10.3059
10.3018
10.3004
10.3066
10.2968
10.2912
10.2919
10.301
10.3036
10.2983
10.3026
10.2983
10.3033
10.3035
10.3014
10.3001
10.3024
10.2881
10.3011
10.3031
10.3012
10.3014
10.3059
10.3036
10.3001
10.2989
10.3054
10.3014
10.3021
10.3028
10.2889
10.3027
10.3034
10.3032
10.3011
10.3057
10.3002
10.2918
10.301
10.3012
10.2991
10.3032
10.3008
10.3032
10.2922
10.3031
10.3031
10.2993
10.3015
10.3031
10.3016
10.2981
10.3016
10.2981
10.2995
10.3029
10.2994
10.3029
10.3014
10.2977
10.2982
10.3027
10.2983
10.3014
10.287
10.2978
10.3012
10.3027
10.2982
10.3005
10.3047
10.2894
10.3007
10.2984
10.2978
10.2977
10.2983
10.3029
10.3034
10.3005
10.2984
10.3025
10.2989
10.2996
10.2985
10.2982
10.3023
10.3022
10.3028
10.3027
10.3036
10.3012
10.3002
10.3021
10.3011
10.2976
10.298
10.2987
10.3015
10.3035
10.3025
10.3031
10.2999
10.3023
10.2978
10.2983
10.298
10.3032
10.3024
10.3033
10.3032
10.2984
10.302
10.3027
10.3022
10.2982
10.2997
10.2854
10.2998
10.2984
10.3031
10.3029
10.3026
10.3028
10.2984
10.3033
10.302
10.2992
10.3005
10.303
10.3018
10.3034
10.3032
10.3027
10.2977
10.3021
10.3019
10.2992
10.2843
10.3
10.2986
10.3001
10.2995
10.3028
10.299
10.3011
10.3031
10.3014
10.3012
10.3028
10.3003
10.2989
10.3028
10.3026
10.303
10.3029
10.2997
10.2819
10.3012
10.3017
10.303
10.3027
10.2954
10.2973
10.2936
10.2986
10.2993
10.3029
10.2859
10.285
10.3005
10.3024
10.2941
10.3046
10.3009
10.3014
10.3033
10.3072
10.3026
10.3032
10.3015
10.3035
10.3032
10.3055
10.3049
10.3035
10.3007
10.302
10.3032
10.3052
10.2835
10.2999
10.3063
10.3017
10.301
10.3029
10.3017
10.3018
10.3022
10.284
10.3025
10.3022
10.2874
10.3035
10.303
10.3011
10.302
10.2971
10.2973
10.3024
10.2978
10.3016
10.2976
10.3013
10.3026
10.2975
10.3025
10.2955
10.3017
10.2927
10.3036
10.3027
10.2978
10.3019
10.2989
10.2964
10.2904
10.3014
10.3026
10.3019
10.2871
10.3024
10.3016
10.3031
10.2942
10.2968
10.2834
10.3027
10.3045
10.3001
10.3013
10.2977
10.3002
10.2972
10.3022
10.2974
10.2985
10.3011
10.3033
10.3008
10.3021
10.2956
10.2869
10.3
10.2969
10.2934
10.306
10.2939
10.3024
10.3032
10.2957
10.3019
10.3007
10.3066
10.3015
10.2987
10.2902
10.3016
10.3032
10.3016
10.2914
10.3014
10.3014
10.2976
10.2993
10.3012
10.3005
10.2994
10.3003
10.2927
10.2914
10.3022
10.3021
10.3008
10.3005
10.3012
10.3016
10.2973
10.3022
10.3022
10.293
10.2911
10.3013
10.2983
10.2988
10.3053
10.3042
10.2973
10.303
10.2987
10.3012
10.3016
10.2989
10.3019
10.2988
10.302
10.3015
10.3005
10.2966
10.3024
10.3025
10.2971
10.2993
10.3
10.3005
10.3019
10.2966
10.3021
10.2994
10.3019
10.2987
10.301
10.3004
10.302
10.3021
10.3003
10.2986
10.2979
10.2982
10.2973
10.2979
10.2972
10.3027
10.2996
10.3
10.3011
10.299
10.2977
10.2973
10.2943
10.2999
10.3008
10.2979
10.2957
10.2947
10.2987
10.3023
10.2991
10.2959
10.3007
10.2965
10.3009
10.2981
10.296
10.2999
10.3003
10.304
10.3011
10.3029
10.2958
10.3023
10.2988
10.3013
10.3002
10.3009
10.3023
10.3033
10.2989
10.3024
10.2976
10.2965
10.2975
10.2961
10.3001
10.2974
10.3029
10.2986
10.2982
10.2999
10.2975
10.3034
10.3025
10.3017
10.2987
10.2995
10.2973
10.3008
10.2959
10.3
10.2989
10.302
10.3032
10.3023
10.2972
10.3024
10.302
10.297
10.3035
10.2983
10.2986
10.2971
10.2973
10.2975
10.3017
10.3027
10.3002
10.3016
10.3011
10.2977
10.3029
10.2969
10.2972
10.3004
10.2968
10.2969
10.2972
10.2968
10.2977
10.2986
10.2967
10.2993
10.2969
10.2981
10.3049
10.2995
10.3052
10.2989
10.3025
10.302
10.2977
10.2994
10.2975
10.2971
10.2978
10.2998
10.3034
10.2989
10.299
10.2971
10.2976
10.3029
10.2987
10.2994
10.2989
10.3003
10.3009
10.3021
10.2972
10.3032
10.2984
10.3027
10.3027
10.3005
10.2972
10.3032
10.2989
10.3007
10.3029
10.3023
10.2975
10.2977
10.3015
10.2979
10.3039
10.2976
10.3031
10.3031
10.3013
10.2976
10.2978
10.3036
10.2978
10.298
10.3032
10.2983
10.2978
10.2992
10.2978
10.2976
10.2976
10.3038
10.3057
10.2807
10.3044
10.3018
10.3013
10.2976
10.2981
10.2979
10.3035
10.2987
10.2984
10.2977
10.3012
10.3013
10.3054
10.2983
10.3054
10.2906
10.3017
10.3054
10.3
10.298
10.3034
10.2998
10.3038
10.3045
10.3034
10.3032
10.2985
10.2992
10.3021
10.3037
10.3038
10.3034
10.3033
10.3033
10.2989
10.3026
10.3033
10.3012
10.2994
10.2973
10.3003
10.3003
10.3017
10.3035
10.3019
10.3021
10.3016
10.3026
10.3034
10.2896
10.2986
10.3014
10.301
10.3024
10.3013
10.3036
10.3015
10.3035
10.3029
10.3007
10.3014
10.3035
10.3033
10.2872
10.3005
10.3017
10.3039
10.3059
10.3073
10.3017
10.3014
10.3044
10.3075
10.3025
10.3029
10.3032
10.3063
10.3041
10.3017
10.3022
10.3032
10.3068
10.3053
10.3066
10.3028
10.3015
10.3026
10.3026
10.3032
10.307
10.2838
10.3035
10.3043
10.3034
10.3007
10.2995
10.3014
10.3028
10.3006
10.2998
10.3056
10.3023
10.301
10.3027
10.3011
10.2986
10.3027
10.3022
10.3027
10.3031
10.3032
10.3019
10.2813
10.3033
10.2977
10.3018
10.2997
10.2999
10.3027
10.3014
10.3023
10.3014
10.3031
10.3025
10.3019
10.2999
10.2977
10.3017
10.303
10.302
10.3014
10.3035
10.2955
10.3035
10.3031
10.3047
10.305
10.3029
10.2856
10.2906
10.3052
10.3055
10.298
10.3048
10.3029
10.3012
10.2977
10.3025
10.3032
10.3027
10.3012
10.2976
10.3016
10.2984
10.3031
10.302
10.3036
10.3006
10.3018
10.3045
10.3036
10.2968
10.3019
10.3035
10.3035
10.302
10.3008
10.2982
10.3029
10.3012
10.3051
10.3013
10.305
10.3068
10.3005
10.3035
10.3044
10.3037
10.303
10.3012
10.3032
10.3014
10.3025
10.301
10.2983
10.3014
10.2978
10.3045
10.291
10.2816
10.298
10.3036
10.3016
10.3054
10.2978
10.2999
10.3036
10.2977
10.2893
10.3017
10.2993
10.3026
10.3022
10.3031
10.3036
10.2977
10.2825
10.3055
10.3029
10.2977
10.3012
10.3014
10.3034
10.2981
10.2978
10.3015
10.2809
10.3035
10.3024
10.3039
10.2978
10.3003
10.303
10.3063
10.3013
10.3023
10.3016
10.3013
10.2997
10.3036
10.302
10.307
10.3024
10.3015
10.2819
10.3
10.2988
10.2964
10.2966
10.2928
10.3015
10.3035
10.2865
10.3015
10.3026
10.3012
10.2989
10.3016
10.3031
10.3001
10.298
10.3042
10.3041
10.2941
10.3035
10.2977
10.303
10.3021
10.3032
10.3037
10.3011
10.2978
10.3031
10.3039
10.3035
10.302
10.3017
10.303
10.3034
10.3028
10.3008
10.3032
10.3031
10.2989
10.3012
10.2976
10.2857
10.3029
10.3016
10.3012
10.2982
10.3045
10.3018
10.3015
10.2851
10.2898
10.3031
10.3036
10.2988
10.3012
10.3017
10.3026
10.3018
10.298
10.2983
10.3034
10.2844
10.3021
10.2991
10.2984
10.3015
10.2978
10.298
10.2996
10.3025
10.306
10.3035
10.3028
10.2989
10.3025
10.3021
10.3016
10.3014
10.3045
10.3035
10.3014
10.303
10.3018
10.2866
10.2922
10.3013
10.3036
10.3027
10.3017
10.3019
)
;

boundaryField
{
    back
    {
        type            empty;
    }
    front
    {
        type            empty;
    }
    top
    {
        type            zeroGradient;
    }
    outer_arc
    {
        type            zeroGradient;
    }
    bottom
    {
        type            uniformFixedValue;
        uniformValue    
        {
            type            table;
            format          csv;
            file            "outlet_p.csv";
            nHeaderLine     1;
            refColumn       0;
            componentColumns List<label> 1(1);
            separator       ",";
            mergeSeparators 0;
        }
        value           uniform 10.2976;
    }
    inner_arc
    {
        type            zeroGradient;
    }
}


// ************************************************************************* //
