/*--------------------------------*- C++ -*----------------------------------*\
  =========                 |
  \\      /  F ield         | OpenFOAM: The Open Source CFD Toolbox
   \\    /   O peration     | Website:  https://openfoam.org
    \\  /    A nd           | Version:  9
     \\/     M anipulation  |
\*---------------------------------------------------------------------------*/
FoamFile
{
    format      ascii;
    class       volVectorField;
    location    "0.9";
    object      U;
}
// * * * * * * * * * * * * * * * * * * * * * * * * * * * * * * * * * * * * * //

dimensions      [0 1 -1 0 0 0 0];

internalField   nonuniform List<vector> 
1655
(
(-0.00557447 -0.0253376 -3.66849e-18)
(-0.00272535 0.0084532 2.4188e-17)
(-0.0388713 0.128078 1.95526e-17)
(0.119158 -0.0310895 -1.1609e-17)
(0.0437381 0.0554191 0)
(0.00843297 -0.00799979 7.38125e-18)
(-0.0754814 0.103524 0)
(0.0297688 0.102252 -1.30814e-17)
(0.0653976 0.152449 0)
(0.0447996 0.0517524 -6.38907e-18)
(0.066165 -0.0702731 2.91906e-17)
(0.0568455 -0.0722658 -2.87591e-17)
(0.019328 0.0591563 -4.66323e-22)
(0.00351846 -0.0269408 -1.52141e-17)
(-0.00361609 0.0788482 1.50245e-17)
(0.00699922 -0.00661158 0)
(-0.049335 -0.00583357 2.62712e-17)
(0.00703427 -0.057998 7.85693e-18)
(-0.0360155 -0.0178088 -2.93621e-17)
(0.00150116 -0.0214248 -8.44933e-18)
(0.00307088 -0.0337783 3.43879e-18)
(0.0628444 0.170173 0)
(0.0398974 0.0713825 -1.57891e-17)
(0.0334904 0.0637844 7.33161e-18)
(0.00884763 -0.0516921 -4.61093e-18)
(-0.0317106 -0.00708891 -3.12216e-17)
(0.00124199 -0.00245133 -1.36287e-17)
(0.0499975 0.15901 -1.57309e-17)
(0.041718 0.153752 2.12445e-17)
(0.00204532 -0.0282656 -1.52049e-17)
(-0.150233 0.0557384 3.77637e-17)
(0.0136252 0.180386 -4.01434e-18)
(0.00809261 -0.0717593 -5.58583e-18)
(0.0709017 0.0864749 0)
(0.0029129 -0.0510095 0)
(0.0877287 0.0681495 0)
(0.0222815 -0.00575581 -1.98646e-17)
(-0.00487833 0.0146902 0)
(0.00615663 -0.0696641 -7.64407e-18)
(-0.0103146 0.0169382 -2.61104e-17)
(-0.00114819 -0.0193056 1.47548e-17)
(0.0393063 0.0659169 1.27518e-17)
(0.00593257 -0.0628199 -7.99212e-18)
(-0.0393635 -0.005065 2.32499e-17)
(-0.00924849 0.00634338 0)
(0.164314 -0.0462454 0)
(0.174026 -0.0289155 3.60942e-17)
(-0.0108423 0.0102402 0)
(0.0467018 0.0265132 1.42315e-17)
(0.00617429 -0.0596351 1.94609e-18)
(0.0154705 -0.0107223 2.19194e-17)
(-0.0265756 0.151504 -1.45333e-17)
(0.0142848 0.103307 -1.60686e-17)
(0.0642829 0.15012 1.40758e-17)
(0.0354673 0.0242526 -1.8322e-17)
(-0.0158931 -0.00646389 0)
(-0.00523066 0.00442495 -7.14709e-18)
(0.0632678 -0.0586658 0)
(0.148531 -0.0743306 0)
(-0.00512577 0.00454106 1.5519e-17)
(-0.147991 0.054772 -3.77741e-17)
(-0.0229905 -0.0227672 0)
(-0.00708953 -0.0372518 0)
(0.0399843 0.114847 -3.61863e-18)
(-0.0170303 0.0244988 0)
(-0.117962 0.0792189 0)
(0.078405 0.0224268 3.38423e-17)
(0.0928117 -0.0707792 -1.67121e-17)
(-5.43257e-05 -0.0414798 0)
(0.0348678 0.0591942 -1.45888e-17)
(0.079879 -0.0576733 1.8599e-17)
(-0.0903552 0.0953109 -8.8638e-19)
(0.00562002 -0.0437481 -9.45699e-19)
(-0.0148458 0.0639549 1.37812e-17)
(-0.0316419 0.0442326 -1.75903e-17)
(0.0071214 0.00879677 8.29437e-18)
(0.0366687 0.13867 -4.8202e-18)
(-0.000550253 -0.0248083 0)
(-0.000621586 -0.00827926 0)
(0.00194532 -0.0295985 0)
(-0.0107895 0.030904 1.8742e-17)
(-0.000598135 0.0139835 -8.4347e-18)
(0.0333027 0.018207 1.87141e-17)
(-0.0332567 0.000833955 9.37694e-18)
(0.00552828 -0.0463589 0)
(-0.0455042 0.0158842 0)
(-0.0285221 0.0583028 -1.06474e-17)
(0.00344965 -0.0380616 0)
(-0.0171915 0.0411047 -7.32721e-18)
(-0.0257793 -0.00347431 0)
(-0.0303721 0.00103755 0)
(-0.0236912 0.127738 9.22207e-18)
(-0.0307388 -0.0128965 1.79746e-17)
(0.0312332 0.0153734 0)
(0.00450336 -0.00709371 0)
(-0.028256 -0.0158592 2.99138e-17)
(0.0671972 0.0189197 -2.87432e-17)
(0.134759 -0.0672204 0)
(0.026693 0.171553 -8.60858e-18)
(0.0100292 -0.0793396 1.8447e-17)
(-0.026898 0.10373 -5.79171e-17)
(0.0225586 0.0288027 -1.89908e-17)
(0.0420504 0.0295276 -1.8576e-17)
(0.00750833 0.0381895 1.99073e-17)
(0.0189767 -0.0321647 0)
(-0.0106156 -0.0213959 -1.15002e-18)
(0.0611294 0.119591 -1.59937e-17)
(0.000600151 -0.0207587 0)
(0.00696967 -0.0789367 0)
(-0.0186199 -0.0126825 -1.63974e-17)
(0.00389927 -0.0794606 1.286e-17)
(0.0355474 -0.0491167 1.48891e-17)
(-0.0112178 -0.0180795 9.9229e-18)
(0.00731412 -0.0539367 1.69316e-17)
(0.0612942 0.107576 1.51929e-17)
(-0.0462769 0.00937125 -9.6035e-18)
(0.0594635 0.113434 -1.62582e-17)
(0.162206 -0.0616069 0)
(-0.0194428 0.0398331 1.45113e-17)
(0.0181079 -0.0282225 -3.2542e-17)
(-0.0100793 -0.0152353 -2.79977e-17)
(-0.000672112 0.0268572 2.86339e-17)
(-0.0887179 0.0536832 -2.25222e-17)
(0.178641 0.112729 2.08315e-17)
(0.0470454 0.0333516 7.37593e-18)
(0.0410943 0.0905442 0)
(0.00452787 -0.0519215 -1.8386e-17)
(0.0095446 -0.0122406 1.65768e-17)
(0.00793363 -6.3545e-05 -2.30255e-18)
(0.00448551 -0.0630626 -2.20298e-18)
(0.0552903 0.0100913 4.20631e-18)
(0.00383877 -0.0803736 2.26945e-17)
(0.0463149 0.114517 1.40301e-17)
(0.0399361 0.0841324 1.47566e-17)
(-0.000760384 -0.00727323 0)
(-0.00251946 0.0284629 0)
(0.0435649 0.0609117 -8.6014e-18)
(0.00991063 0.0613271 1.45792e-17)
(-0.00233001 0.00248453 7.81127e-18)
(0.0994157 0.017146 -7.67233e-18)
(-0.00201728 0.0154875 1.0124e-17)
(-0.00349835 0.00575742 1.39838e-17)
(-0.000824757 0.0031414 0)
(-0.00579104 0.0116417 0)
(-0.116247 0.0137564 -8.63533e-18)
(-0.0247037 0.0148476 0)
(0.00868297 0.0105093 -3.01584e-17)
(0.00141662 -0.00752736 2.41954e-17)
(0.0129295 0.00230566 1.56266e-17)
(-0.217906 0.0363052 0)
(-0.195985 0.0315894 1.47035e-17)
(-0.191297 0.0304274 -7.92568e-18)
(-0.0697924 0.020834 1.54916e-17)
(-0.135278 0.0263794 1.34535e-17)
(-0.0568012 0.0244297 0)
(0.00311034 -0.0492211 2.96605e-17)
(-0.0292653 0.0123117 1.89414e-18)
(0.0226772 0.0117379 7.99763e-18)
(0.0635405 0.111998 0)
(-0.0107597 0.0265271 -2.02266e-17)
(0.00723653 0.00810813 2.28476e-17)
(0.0352315 -0.0349862 0)
(0.067905 0.134739 -5.71415e-22)
(0.0350055 0.0223324 0)
(-0.0111574 0.0130101 0)
(0.119832 -0.0760312 -7.72268e-18)
(0.0579415 0.152717 0)
(0.0553353 0.101612 -3.06268e-17)
(0.0324532 0.0250453 4.68266e-18)
(-0.000265026 0.0020632 0)
(-0.0894846 -0.0302764 0)
(0.0537898 0.0553268 0)
(0.00250397 -0.00800503 9.40053e-18)
(0.0672781 0.123827 1.61652e-17)
(0.00393612 -0.0401487 9.88476e-19)
(0.0659582 0.119413 1.61044e-17)
(0.05394 0.017538 4.22164e-18)
(-0.0043202 0.0164307 0)
(0.011933 -0.0658078 -1.75775e-17)
(0.00191935 -0.0219137 1.38153e-17)
(-0.0252323 0.00368322 2.01122e-17)
(0.0462156 0.0378354 1.26321e-17)
(-0.00462164 -0.0170955 -2.68489e-17)
(0.178669 0.0937114 -4.54564e-18)
(-0.00738456 0.00704184 -8.8631e-18)
(0.0170957 -0.0727069 0)
(-0.00167338 0.010152 0)
(0.0140303 -0.0707353 0)
(0.00543178 -0.0443541 0)
(0.0500198 0.0461319 -1.22829e-17)
(-0.00766773 0.00870255 -1.59513e-17)
(-0.0190635 -0.01835 0)
(0.010265 -0.0232235 -1.64558e-17)
(-0.0339452 0.143875 2.0415e-17)
(0.0228291 -0.0784942 0)
(-0.000101585 -0.0108626 -9.99808e-18)
(0.0114864 -0.0301428 0)
(0.0194805 -0.0765976 0)
(-0.0251992 0.052507 1.89987e-17)
(0.0390354 0.0294601 0)
(0.191993 0.0403673 1.04238e-17)
(0.173581 0.0325735 -4.67771e-18)
(-0.0464129 0.0813132 1.72314e-17)
(-0.100095 0.0696908 3.83131e-17)
(-0.00612894 -0.00101516 -1.46606e-17)
(0.00597016 -0.0379982 1.16276e-17)
(0.0176759 -0.0714992 0)
(-0.00101735 -0.0249623 0)
(0.00612349 -0.0676542 5.21814e-17)
(0.0439018 0.0659279 0)
(0.0420079 0.199136 2.73536e-17)
(-0.007457 0.157717 -7.55922e-18)
(-0.00296792 0.0195397 0)
(0.0496383 0.0994925 1.60235e-17)
(0.00357295 -0.0253587 -1.6427e-18)
(0.134097 0.045403 3.55413e-17)
(0.0722711 0.0509388 -8.95953e-18)
(0.00378148 0.00195288 0)
(0.0177076 0.139323 1.5624e-17)
(0.0368996 0.041019 0)
(-0.00886814 0.0157516 0)
(0.00519863 -0.0426155 -3.35991e-17)
(0.0111555 -0.0696064 2.36347e-17)
(0.0453072 0.0693369 1.63838e-17)
(0.0139171 -0.0725675 -1.70614e-17)
(0.0287992 -0.0830336 1.64064e-17)
(0.029325 -0.0824675 -1.63485e-17)
(-0.0219752 -0.000733906 0)
(-0.00198648 0.0655003 1.99416e-17)
(0.00625876 0.0209773 1.60342e-17)
(0.0421696 -0.0643052 0)
(-0.0151839 -0.0872949 -1.99658e-17)
(0.000948962 -0.124875 1.98989e-17)
(-0.0117799 -0.019998 -3.16251e-17)
(0.0205001 -0.0745813 -1.6851e-17)
(0.0413554 -0.0672762 1.64508e-17)
(0.025336 -0.0813342 0)
(-0.00415665 -0.0150158 0)
(0.0265014 -0.0792721 2.0372e-17)
(-0.00141016 -0.19054 1.58975e-17)
(-0.0366687 0.0122989 -1.53372e-17)
(-0.00819143 0.0112748 2.92037e-17)
(0.0165134 -0.194096 -1.98695e-17)
(-0.00210484 -0.0066606 1.39644e-17)
(0.036872 0.0612267 4.09772e-18)
(0.00028466 -0.025801 -2.07113e-17)
(-0.174903 0.0281128 1.21688e-17)
(0.0674607 0.131372 0)
(0.0231093 -0.076919 -4.0848e-18)
(0.0453319 0.0598262 0)
(-0.0341042 -0.00445283 -1.33004e-17)
(0.000710258 -0.0213856 3.31814e-18)
(0.022228 0.0186397 -1.6164e-17)
(0.0212022 0.191214 -1.14343e-17)
(0.0246216 -0.073742 1.6565e-17)
(0.0411401 0.175831 -1.95462e-17)
(0.0143508 -0.0785306 -1.70094e-17)
(0.0392406 0.0716836 -4.08114e-18)
(0.000245139 0.0405812 2.18066e-17)
(0.0115393 -0.0643554 1.55978e-17)
(0.0773999 -0.0585396 1.21138e-17)
(0.011868 -0.0621193 1.68171e-17)
(0.0328802 -0.0844368 1.62834e-17)
(-0.00912264 0.132382 1.57686e-17)
(0.00491039 0.0186355 1.62136e-17)
(0.0620013 0.104121 1.62153e-17)
(0.0149917 -0.0621335 0)
(0.00323599 -0.0383709 -2.29586e-17)
(0.0132524 -0.0759204 8.91147e-18)
(0.00501606 -0.0393497 0)
(0.0135055 0.0781875 -1.72336e-17)
(-0.0133254 -0.0327622 1.24326e-17)
(-0.00862756 0.0104707 8.56209e-18)
(0.0145834 -0.0645949 0)
(-0.0180382 -0.00415131 3.71274e-22)
(-0.0248537 -0.0231495 -1.25127e-17)
(-0.174539 0.0192481 0)
(0.0314406 0.0651259 2.0392e-17)
(0.0150158 -0.0219657 -2.07163e-17)
(0.0885932 -0.0988108 3.97203e-18)
(0.0261621 0.00131321 1.67924e-17)
(0.0619662 0.103444 4.06687e-18)
(-0.0369821 -0.0106557 1.65949e-17)
(0.00735623 0.0699942 1.45525e-17)
(-0.0177411 0.0542315 -2.74601e-17)
(-0.0222354 -0.0233048 -1.66589e-17)
(0.0198136 -0.0051282 1.65577e-17)
(0.0106716 -0.0798328 1.48075e-17)
(0.0182756 -0.0662937 0)
(-0.0047767 -0.047235 0)
(-0.00715949 -0.0360793 1.62718e-17)
(-0.00100209 -0.0176379 1.59059e-17)
(0.0113201 -0.050324 3.44011e-17)
(0.0615473 0.0745233 0)
(-0.00105297 -0.00152059 -1.65546e-17)
(0.0272525 -0.0814385 4.14788e-18)
(0.0176455 0.0655703 0)
(0.0211682 0.102506 -2.77271e-17)
(-0.00158952 -0.0029147 -1.62031e-17)
(0.0105049 -0.072147 -4.10057e-17)
(0.0160897 -0.0806232 -1.72402e-17)
(0.0126705 0.00557706 0)
(-0.00107439 -0.00493069 2.50526e-17)
(0.032384 -0.0836671 -4.1204e-18)
(0.0332466 -0.0840276 -3.25495e-17)
(0.0166032 -0.017672 -1.76323e-17)
(0.0215631 -0.081652 -4.17734e-18)
(0.0202961 -0.0725833 4.07921e-18)
(-0.024209 0.0210702 -4.11143e-18)
(0.0372206 -0.086178 -1.62116e-17)
(-0.0468268 -0.00160657 0)
(-0.141235 -0.00430269 8.67496e-18)
(0.0171848 -0.0700786 -4.10687e-18)
(0.0877937 -0.0803994 -4.0359e-18)
(0.0641941 0.106655 0)
(-0.00714225 0.0142681 0)
(-0.00288661 0.000419287 -1.6187e-17)
(0.0324466 0.0149873 -1.65472e-17)
(0.0376646 -0.086068 2.72842e-22)
(0.0161714 -0.0803162 1.80387e-17)
(0.032535 0.00869416 0)
(0.00959229 -0.0419838 -1.73225e-17)
(0.0141764 -0.0797925 2.27888e-18)
(0.030917 -0.0819965 -4.13644e-18)
(0.0197716 -0.0809508 -1.6778e-17)
(0.137146 -0.0517641 2.30885e-17)
(0.0779958 -0.0336206 7.93078e-18)
(0.0633657 0.104338 -2.04839e-17)
(0.0154139 -0.076863 0)
(0.060552 0.0146563 -1.60921e-17)
(0.0258292 -0.0688028 0)
(0.0169421 0.0103055 1.65436e-17)
(0.00158451 -0.00903511 7.37635e-18)
(0.0199266 -0.0704252 -1.64328e-17)
(-0.0356189 0.0126264 1.64603e-17)
(0.0264363 -0.0779593 -1.22524e-17)
(0.051666 0.0261844 1.2094e-17)
(0.0148101 -0.0552596 -1.72144e-17)
(0.0354712 -0.0861788 0)
(-0.0251035 -0.00258246 0)
(0.0145863 -0.0808878 1.77817e-17)
(0.0368548 -0.0859381 1.63689e-17)
(-0.0317583 0.00321245 0)
(-0.0125645 -0.00887856 -1.99731e-17)
(0.00764285 0.0341662 0)
(0.035698 -0.0846093 -2.87431e-17)
(0.00562527 -0.0362239 0)
(0.0252508 -0.0823299 4.15951e-18)
(0.0196537 -0.0812017 0)
(0.0138129 -0.0616123 0)
(0.0165261 0.0397276 0)
(0.00156807 0.00205284 1.60809e-17)
(-0.00114006 -0.0576473 0)
(0.0214568 -0.0795512 1.67335e-17)
(0.064324 0.0870964 0)
(0.0424269 -0.0883462 0)
(0.0345973 -0.0857952 0)
(0.0390079 -0.0875147 -2.9855e-22)
(0.00721636 0.0476202 -1.63295e-17)
(0.0339363 -0.0819794 2.03026e-17)
(-0.00409158 0.0336873 -1.3976e-17)
(0.0225713 -0.0642762 0)
(0.0671198 0.105168 -4.38027e-18)
(0.0786592 -0.107896 1.59808e-17)
(0.00283994 0.00324421 1.68795e-17)
(-0.0177328 0.0248477 -1.41754e-17)
(0.0134737 -0.0734708 4.30654e-18)
(0.0137195 0.0304129 -1.607e-17)
(0.0228961 0.0279213 0)
(0.0435288 -0.0826851 0)
(-0.00673001 0.00776781 0)
(0.0192782 -0.0776814 1.67477e-17)
(-0.00613902 0.0130139 0)
(0.044164 -0.0891435 0)
(0.0131625 0.0239937 0)
(-0.013132 0.0344266 4.09691e-18)
(0.131541 -0.00238316 1.20002e-17)
(0.0520602 0.106811 -4.78379e-22)
(0.0444973 -0.0730183 4.0733e-18)
(0.0312286 -0.0844826 -1.64262e-17)
(0.0397394 -0.0499708 -4.18622e-18)
(0.0852338 -0.111455 0)
(0.0575938 0.0991715 -1.68304e-17)
(0.0778597 -0.102814 -1.9951e-17)
(0.02667 -0.0829259 -4.13088e-18)
(0.0659138 0.0905063 0)
(0.0455542 -0.0899227 0)
(0.0140282 0.0479256 -5.49305e-22)
(-0.0470398 0.000608815 0)
(0.0300908 -0.0806964 -4.0724e-18)
(0.000995636 -0.00942056 1.54003e-17)
(0.0179998 0.00187006 -1.60941e-17)
(0.117986 0.0130827 -1.60135e-17)
(0.0619136 0.0790045 0)
(0.0399655 -0.0869 0)
(0.0508036 -0.0909405 -1.60959e-17)
(0.0431278 -0.0886747 1.61207e-17)
(-0.0299116 -0.00989274 0)
(0.0688548 0.118396 0)
(0.118984 -0.0106521 0)
(0.0399951 -0.0879556 -1.6211e-17)
(0.0322016 -0.0366472 3.42063e-17)
(0.0849702 -0.117611 3.98093e-18)
(0.0627671 0.104664 -2.02923e-17)
(0.0832643 -0.00707201 -4.01107e-18)
(0.0271001 -0.0768672 -1.66122e-17)
(0.0552915 0.0645994 1.64857e-17)
(0.0264291 -0.00730375 -2.0186e-17)
(-0.00235881 0.00735626 0)
(0.123668 -0.00890288 0)
(0.0141823 0.0176031 0)
(0.0759311 -0.121839 3.98155e-18)
(0.0706683 -0.100758 4.0095e-18)
(0.0954572 -0.00115342 0)
(0.0311836 -0.0768367 0)
(0.0661965 -0.124199 -1.59384e-17)
(0.0539012 0.0714852 0)
(-0.0108156 -0.149626 0)
(0.06877 -0.0970386 -1.20492e-17)
(0.0527938 -0.09241 1.60795e-17)
(0.101588 -0.0163229 1.60435e-17)
(0.0775726 -0.117468 -3.98312e-18)
(0.110919 0.0338171 4.02734e-18)
(0.0490347 -0.0911588 0)
(0.0621123 -0.0922135 1.60786e-17)
(-0.156756 -0.0217406 -1.01358e-17)
(0.00696832 -0.17784 0)
(0.0411811 -0.0878823 1.22103e-17)
(0.0232043 -0.0734949 1.63895e-17)
(0.0909368 0.0938285 1.99482e-17)
(0.0244598 -0.0819396 0)
(0.132808 0.0316059 1.11183e-21)
(0.059297 -0.0933717 0)
(0.039383 0.0400625 -5.26147e-18)
(0.0670621 -0.119512 1.19567e-17)
(0.0808077 -0.135636 -1.19324e-17)
(0.043595 -0.0820248 1.62902e-17)
(-0.00372036 -0.0086033 6.93584e-18)
(0.011279 0.0118559 0)
(0.0715954 -0.129794 0)
(-0.00412534 0.00872646 1.41094e-17)
(0.0585903 -0.0994793 0)
(0.0467083 -0.00899624 2.01345e-17)
(0.050037 -0.0920759 0)
(0.0654357 -0.100353 0)
(0.0794525 -0.131907 -1.98971e-17)
(0.126534 0.0350763 1.59485e-17)
(0.082518 0.0109516 0)
(0.112655 0.060964 6.47545e-22)
(0.0296389 0.00832598 1.60877e-17)
(0.0944127 0.110951 -3.9855e-18)
(0.145713 -0.157208 -1.57899e-17)
(0.0888704 0.156265 -3.97205e-18)
(0.0723805 -0.10784 3.9903e-18)
(0.0889585 0.135516 -3.18248e-17)
(0.0634122 -0.108971 1.99605e-17)
(0.130938 -0.029857 0)
(0.0580018 -0.0967224 0)
(0.0998753 0.0704214 0)
(0.128157 0.0168541 0)
(0.0921572 -0.106828 -3.9808e-18)
(0.0560452 -0.101144 -3.99707e-18)
(0.0911104 -0.108055 3.983e-18)
(0.1547 -0.15072 -1.58009e-17)
(0.0896176 -0.0100745 -1.60488e-17)
(0.0536088 0.0960485 3.23835e-17)
(0.0654281 -0.103119 -3.99521e-18)
(0.0571197 -0.094977 0)
(0.0498165 -0.104083 4.03064e-18)
(0.0928181 -0.117266 0)
(0.0850649 -0.113572 -1.59394e-17)
(0.040142 -0.0683386 1.21897e-17)
(0.0713701 -0.11157 3.98942e-18)
(0.0587527 -0.0033395 4.01918e-18)
(0.155563 -0.0941102 1.58229e-17)
(0.0843839 -0.122665 -3.98166e-18)
(0.0697475 -0.115341 -2.7898e-17)
(0.0802818 -0.137089 -1.19308e-17)
(0.0292112 -0.15783 1.20005e-17)
(0.112007 0.0758955 -7.65464e-18)
(0.0390136 -0.0854077 -2.02574e-17)
(0.139281 -0.0220393 0)
(0.0460836 -0.116525 -3.98782e-18)
(0.091685 0.147505 3.97371e-18)
(0.0769278 -0.131963 -3.97917e-18)
(0.0606254 -0.11207 -1.19728e-17)
(0.122661 0.0600261 -1.58505e-17)
(0.097995 0.125233 0)
(0.097873 -0.0165752 0)
(0.0513744 -0.0878705 -4.04663e-18)
(0.150857 -0.0489682 -3.57407e-17)
(0.136028 0.0340195 -1.59352e-17)
(0.0548146 -0.123451 3.98615e-18)
(0.0738086 0.14512 -3.97453e-18)
(0.149405 -0.150088 -1.58126e-17)
(0.0840604 -0.134194 3.97763e-18)
(-0.137286 -0.0105669 -2.25908e-19)
(0.0990461 0.105372 0)
(0.0819048 -0.137805 1.1931e-17)
(0.075816 0.153165 1.98722e-17)
(0.190126 -0.0297388 0)
(0.0695656 -0.121134 1.59399e-17)
(0.108311 0.0576876 8.0528e-18)
(0.177679 -0.0613747 1.97979e-17)
(-0.126153 -0.0625938 0)
(0.181187 -0.0933926 1.18645e-17)
(0.0870064 0.170111 -1.59082e-17)
(0.184704 -0.0591128 -3.96566e-18)
(0.148951 -0.16352 -3.7648e-21)
(0.104772 0.106036 -1.196e-17)
(0.0986094 0.069443 1.20603e-17)
(0.162517 -0.134921 -1.97613e-17)
(0.0418663 0.0320901 -4.01453e-18)
(0.0781473 -0.133751 -3.97941e-18)
(0.0865153 0.155517 0)
(0.0835156 0.161541 1.58874e-17)
(0.167694 -0.126407 0)
(0.10778 -0.172142 1.18882e-17)
(-0.129706 0.0065817 1.4354e-17)
(-0.114166 0.0518944 0)
(0.047606 -0.0276162 -1.60064e-17)
(0.0455336 -0.1686 0)
(0.0764211 -0.0946987 3.20509e-17)
(0.168608 -0.0924817 0)
(-0.13553 0.0361911 -1.53341e-17)
(0.0495172 -0.186461 1.98256e-17)
(0.180775 -0.0846387 -1.19497e-17)
(0.171517 -0.118217 1.95865e-21)
(0.110062 -0.161264 3.9597e-18)
(0.068593 0.142272 -1.98144e-17)
(0.192215 -0.0281385 1.59818e-17)
(0.121841 0.0619877 1.59367e-17)
(-0.0470396 0.0347165 -8.90573e-18)
(0.0637049 0.00480391 1.51351e-17)
(-0.0241371 -0.0190828 1.00483e-18)
(-0.00487346 0.012318 1.91203e-18)
(0.00580759 0.0060743 -4.29896e-23)
(-0.00100484 -0.0092986 -3.27036e-17)
(0.00834934 0.0120324 0)
(0.0990183 -0.0345073 -1.40387e-17)
(-0.0399601 -0.0174018 -2.36001e-17)
(-0.064415 0.115572 -4.15547e-17)
(-0.0357605 -0.0214892 -1.60251e-17)
(0.108115 -0.0117317 0)
(-0.0308159 0.0389415 2.34448e-17)
(-0.0130345 -0.0132313 1.61743e-17)
(-0.0401672 0.0183794 1.74803e-17)
(0.0515181 0.0023158 0)
(0.0806625 -0.131582 1.19355e-17)
(-0.0266246 -0.00412421 -2.49064e-17)
(0.0338972 -0.02146 0)
(0.123391 -0.147993 -3.96011e-18)
(-0.0625303 0.00300525 0)
(0.159528 -0.120394 -1.1876e-17)
(0.124238 -0.16181 3.96026e-18)
(-0.123143 -0.0447462 0)
(0.00119931 -0.00251074 0)
(0.068801 -0.126332 3.9827e-18)
(0.0820503 0.147858 -1.58902e-17)
(0.0990137 0.118467 -3.98447e-18)
(0.142735 -0.125346 1.18742e-17)
(0.059231 0.110888 -2.79175e-17)
(0.0432884 -0.16428 4.00573e-18)
(0.0640317 0.227975 -1.17176e-17)
(0.076518 -0.0287066 0)
(-0.0900283 0.0604906 -3.22815e-21)
(0.12999 -0.179022 1.97471e-17)
(0.0616834 -0.0958716 -4.007e-18)
(0.080134 0.199323 1.89e-21)
(0.0644576 0.177734 -1.17967e-17)
(0.0538911 -0.0915272 -4.03797e-18)
(0.0863729 0.185029 3.16769e-17)
(0.016401 0.0110224 1.47191e-17)
(0.0273532 0.0316733 3.61673e-17)
(0.0788861 0.229761 -1.96074e-17)
(0.128714 -0.185938 -1.1849e-17)
(0.136603 -0.1436 1.98005e-17)
(0.0569463 -0.0162503 -3.21895e-17)
(-0.102333 0.0024783 1.59821e-17)
(0.0881123 -0.121677 -1.9898e-17)
(0.170228 -0.10344 1.58803e-17)
(0.187675 -0.0606445 6.95039e-22)
(0.131092 -0.016613 0)
(-0.0649935 0.089265 2.70395e-17)
(0.063755 0.123831 1.19612e-17)
(0.194457 -0.00224339 1.61387e-17)
(0.0626191 0.202319 3.12549e-17)
(0.0703305 -0.175997 1.58794e-17)
(0.149197 0.1852 3.95604e-18)
(0.0671164 -0.209017 -1.18904e-17)
(0.0729247 -0.125539 -1.59328e-17)
(0.0729197 -0.111961 3.98189e-18)
(0.0784386 -0.0306403 0)
(0.0860574 0.0577807 -3.98936e-18)
(0.0629203 -0.188545 -3.96764e-18)
(-0.0847151 0.0275544 -1.59977e-17)
(0.0555525 -0.0804996 3.20042e-17)
(0.0132072 0.00571449 -1.49338e-17)
(0.0932329 0.139546 -1.19118e-17)
(0.0828823 0.208479 -1.58158e-17)
(0.0987881 0.207254 -1.18322e-17)
(-0.148855 0.0250606 3.97307e-18)
(0.027359 0.197369 1.15006e-17)
(0.116347 0.075759 1.59495e-17)
(-0.149003 0.0293746 7.81846e-18)
(-0.111978 0.0180948 0)
(-0.0328685 -0.00400231 -8.5823e-18)
(0.00261664 0.00984856 -2.74405e-17)
(-0.00379131 0.00786576 3.25729e-17)
(-0.0725637 0.0049278 3.72345e-18)
(0.102872 -0.142285 -1.58857e-17)
(0.11163 -0.13098 3.97216e-18)
(-0.00420781 0.00179549 0)
(-0.118986 0.0156103 -3.28883e-17)
(0.0182333 0.0134708 0)
(0.100413 0.240159 -1.96835e-17)
(-0.0991585 -0.0560768 1.59661e-17)
(0.144401 -0.1198 1.58555e-17)
(0.0550467 -0.141874 -1.59165e-17)
(-0.0360501 0.0975371 1.98797e-17)
(-0.0906175 -0.0338008 -1.59836e-17)
(0.0821759 -0.198796 0)
(-0.0877803 -0.10974 -3.19339e-17)
(0.0553269 0.218506 -1.89722e-17)
(0.0755805 -0.199896 1.98351e-17)
(0.0396953 0.0870972 1.60097e-17)
(0.0856936 -0.150221 -1.19114e-17)
(0.0885836 -0.0790131 0)
(0.0948583 0.00819511 3.9906e-18)
(0.164048 0.161812 -7.90182e-18)
(0.0730853 -0.136306 -3.98015e-18)
(0.141206 0.206128 1.18559e-17)
(0.100643 0.096751 0)
(0.197178 0.0234193 1.7449e-17)
(0.132662 -0.128108 -1.98181e-17)
(0.10488 0.173795 3.56068e-17)
(0.165498 -0.0887121 0)
(0.122103 -0.0930895 7.93031e-18)
(0.100959 -0.131224 0)
(0.111842 -0.191482 3.95125e-18)
(0.0935046 -0.103447 -1.991e-17)
(0.0754587 0.112259 -1.37513e-17)
(0.0803946 -0.128032 1.19387e-17)
(0.138849 -0.102665 0)
(0.107381 -0.117644 -2.09391e-17)
(0.0707046 -0.013461 1.60832e-17)
(0.0873385 -0.130227 -3.97849e-18)
(0.193575 -0.00218911 -1.73555e-17)
(0.0953337 0.198816 -1.58224e-17)
(-0.0796411 -0.0435744 -4.04942e-18)
(0.107704 0.233743 0)
(0.0529645 -0.109523 0)
(0.0871155 -0.196983 -3.95853e-18)
(0.0922557 -0.147356 0)
(0.0841179 -0.137369 1.98866e-17)
(0.0434437 -0.092586 0)
(0.0889541 -0.172623 3.97059e-18)
(0.0872271 0.189429 0)
(0.108503 -0.154098 1.18775e-17)
(-0.0609648 -0.0389382 0)
(0.092751 -0.139829 1.58857e-17)
(0.0909129 0.245906 3.9305e-18)
(0.0951797 0.156426 2.78217e-17)
(0.0941144 -0.16575 -1.98153e-17)
(0.0640813 -0.144534 0)
(0.0814549 0.232427 0)
(0.0899297 0.0502197 1.5674e-17)
(0.118086 -0.114968 2.45449e-17)
(0.150362 -0.0918566 0)
(0.0644904 -0.112718 0)
(0.0810147 0.211398 2.75241e-17)
(0.12515 0.090007 1.58766e-17)
(0.0773644 0.0914556 -4.06307e-18)
(0.106603 0.032279 0)
(0.0686749 0.118632 1.59634e-17)
(0.170548 0.142929 7.90122e-18)
(0.08061 0.0977426 -3.99069e-18)
(-0.0116081 0.0100514 0)
(0.0667798 0.227869 3.93105e-18)
(0.0461085 0.0568203 -7.19552e-18)
(0.0835807 0.139419 0)
(0.0895044 0.216447 0)
(0.133085 0.181222 -7.92278e-18)
(0.0704458 -0.162215 3.97505e-18)
(0.111602 0.198782 -7.91348e-18)
(-0.0836476 -0.0902454 3.99658e-18)
(0.111561 -0.0995952 7.91128e-18)
(0.0162107 -0.0112598 7.53122e-18)
(0.0935605 0.214598 0)
(0.100699 0.235053 7.88026e-18)
(0.0983166 0.187091 -1.29918e-21)
(0.0930487 0.134825 3.97532e-18)
(0.0698429 -0.0340732 0)
(0.107265 0.225056 3.94214e-17)
(0.0826149 -0.12024 1.99014e-17)
(0.0837719 0.16274 -3.96892e-18)
(0.0694191 0.0630068 -1.18995e-17)
(0.0876551 0.234148 0)
(0.0721585 -0.110985 -2.07089e-17)
(0.0844051 -0.105057 2.80769e-17)
(0.077921 -0.160089 -3.97008e-18)
(0.0910144 -0.118681 3.98073e-18)
(0.0328964 -0.0823367 1.70542e-17)
(0.116447 0.179321 -2.37487e-17)
(0.139079 -0.000998098 0)
(0.147139 -0.0276262 -1.99431e-17)
(0.0619877 0.09724 0)
(0.099604 -0.199491 -1.58125e-17)
(0.0808613 0.162373 3.57159e-17)
(0.112618 0.0755959 4.85183e-22)
(-0.0694394 -0.137115 1.59263e-17)
(0.150647 0.11478 1.98019e-17)
(-0.109882 -0.092012 0)
(0.10322 -0.199017 -3.95822e-18)
(0.116118 -0.182461 1.18585e-17)
(0.130087 -0.0246216 0)
(0.0128274 0.0569167 4.22717e-18)
(0.0497242 0.0643994 1.60295e-17)
(0.0772036 -0.138567 -1.19287e-17)
(-0.0396279 -0.0343299 0)
(0.119689 0.22222 0)
(0.0860629 0.179644 0)
(-0.0531613 0.0115559 0)
(0.0818989 -0.145164 1.59074e-17)
(0.062504 0.104311 2.02468e-17)
(-0.0458097 -0.152596 -1.59912e-17)
(0.0777011 0.118588 -3.9853e-18)
(0.0210901 0.0499926 -1.60594e-17)
(0.133389 -0.174832 1.18513e-17)
(0.0316124 0.0768666 0)
(-0.0881308 -0.074392 3.99478e-18)
(0.0102993 -0.0225484 3.62293e-17)
(0.0942429 0.0553774 0)
(0.118885 0.232554 -1.97159e-17)
(0.0373483 -0.031305 -4.01581e-18)
(0.0259214 0.0450744 -1.20481e-17)
(0.12443 0.021574 0)
(0.157362 0.149794 -3.91468e-21)
(0.0692009 0.133633 -3.18355e-17)
(0.106651 0.104316 -4.0502e-18)
(-0.0448773 -0.15449 0)
(0.06625 -0.0230229 0)
(0.0380233 -0.0947389 -1.32122e-17)
(-0.0324935 -0.136464 -4.17123e-21)
(0.0859788 0.184845 -1.58438e-17)
(0.12682 0.215007 -1.18304e-17)
(0.0724779 0.0805311 -1.59877e-17)
(0.0554937 -0.112717 0)
(0.0296758 0.0635845 1.87261e-17)
(0.138829 0.155605 7.99677e-18)
(0.0788494 0.0608801 2.5092e-23)
(0.0376951 0.083279 -4.07703e-18)
(0.13385 -0.025331 0)
(-0.0278568 -0.0314659 -2.80559e-17)
(-0.1157 -0.0794672 -3.21663e-17)
(-0.0113188 0.00761903 0)
(0.00557647 0.0245681 1.60978e-17)
(0.0604736 0.0803716 1.59998e-17)
(0.0847016 -0.129746 0)
(0.0473704 -0.0310892 -1.60625e-17)
(-0.0855967 -0.120142 -1.59243e-17)
(-0.103722 -0.103173 1.64214e-17)
(0.134935 -0.0125547 1.19761e-17)
(-0.00782618 0.0097386 0)
(0.0373635 -0.0205502 -1.58257e-17)
(0.0379832 0.0616321 -1.60303e-17)
(0.110516 0.133391 4.05642e-18)
(-0.0678136 -0.145454 0)
(0.0994922 0.0181501 0)
(0.101531 0.102482 -1.19552e-17)
(-0.0655273 -0.113013 1.59894e-17)
(0.0170085 0.0408936 -4.01584e-18)
(0.00312092 0.0217255 0)
(0.047798 -0.0168185 0)
(0.123944 -0.124663 -2.77117e-17)
(0.132342 0.124519 -3.96062e-18)
(0.0325253 -0.0754245 4.28822e-18)
(0.0705837 0.117971 1.99289e-17)
(0.14245 0.183378 1.18562e-17)
(0.152955 0.146337 -2.76734e-17)
(0.0535496 0.0479808 -2.00386e-17)
(0.0797303 0.0252484 -1.60146e-17)
(0.113358 -0.00273752 1.99926e-17)
(0.0695681 0.0457044 3.60297e-17)
(0.124141 0.165859 1.1876e-17)
(0.129591 0.197367 -1.18491e-17)
(0.00282186 -0.0199255 -4.09956e-18)
(0.0843008 -0.142485 0)
(0.060432 0.0965129 -3.19622e-17)
(0.133399 0.0423235 -1.58795e-17)
(0.000703377 0.0242216 -1.60921e-17)
(-0.0709671 -0.0805616 1.59921e-17)
(0.0731202 0.137806 -1.59161e-17)
(0.153558 -0.00251513 0)
(0.138825 -0.040096 0)
(0.0253489 -0.0795802 0)
(0.115105 -0.0826433 1.5892e-17)
(0.084464 -0.0187581 0)
(0.0212952 -0.0283908 -1.20694e-17)
(0.0158335 0.0434266 0)
(0.0150604 -0.0244625 0)
(0.0986062 -0.0276571 0)
(0.104487 -0.0383038 -3.99676e-18)
(0.00379376 0.0280062 0)
(0.0872373 -0.127716 1.59121e-17)
(0.122066 0.0033791 -3.98159e-18)
(0.140365 -0.0347569 0)
(0.0619444 -0.00586485 -2.03161e-17)
(-0.0165524 -0.0798298 -1.61175e-17)
(0.0475708 -0.0323523 0)
(0.129579 -0.0469041 3.97306e-18)
(0.06917 -0.0538177 0)
(0.0258166 -0.0588327 1.21969e-17)
(0.0690971 -0.0342533 0)
(0.101045 -0.0246326 0)
(-0.00212852 -0.0688444 -1.61528e-17)
(0.116036 -0.0385738 0)
(0.104404 -0.0141606 -1.60051e-17)
(0.0801583 -0.0368199 4.00719e-18)
(-0.0348733 -0.0616999 0)
(0.164694 0.13328 1.18712e-17)
(0.0814105 -0.0304198 4.00639e-18)
(0.0840632 -0.0164945 0)
(0.0451187 -0.00696346 -1.0944e-17)
(0.175281 -0.016581 -1.98661e-17)
(-0.0445126 -0.109173 2.12856e-21)
(0.162223 -0.0306231 -1.59513e-17)
(0.0854413 -0.0224718 1.60321e-17)
(0.116933 -0.0285059 -1.5987e-17)
(0.0341211 0.0744486 0)
(0.0999226 -0.0247942 -1.20274e-17)
(0.142088 -0.0335981 0)
(0.188476 0.011496 -1.58845e-17)
(0.080988 -0.00777168 0)
(0.0329859 0.0672284 4.00508e-18)
(0.153411 -0.012566 3.9923e-18)
(0.0495023 0.0143001 0)
(0.16442 -0.0354844 3.98359e-18)
(-0.00206266 -0.0194204 1.40714e-17)
(0.106424 -0.034594 1.19892e-17)
(-0.00249545 -0.043698 0)
(0.0557496 0.108569 -1.19694e-17)
(-0.0216907 -0.055175 0)
(0.0254241 -0.0242664 0)
(0.00588206 -0.0226027 -1.44973e-17)
(0.148127 -0.0388707 0)
(0.00655984 -0.0319861 0)
(0.0104462 0.0469315 -4.18773e-18)
(0.0544874 -0.019874 2.02075e-17)
(0.162831 -0.032654 -1.59531e-17)
(0.0522986 0.0922774 -1.59814e-17)
(0.0167145 -0.0649836 1.67831e-17)
(0.0539292 -0.0208451 1.63242e-17)
(0.171268 -0.0392216 0)
(0.0695341 -0.0181545 -4.01023e-18)
(0.0477316 -0.0224937 0)
(0.00459683 0.0303109 -8.334e-18)
(0.163992 -0.0402775 7.29509e-22)
(0.155769 -0.0137206 0)
(0.192905 0.033434 -2.01552e-17)
(0.0394604 -0.0273973 0)
(0.149073 -0.0332706 -3.99358e-18)
(0.0439171 -0.0193231 1.27531e-17)
(0.0171194 -0.0475208 1.6191e-17)
(0.163464 -0.0275829 1.59494e-17)
(0.0392235 0.0779288 1.20132e-17)
(0.0403863 -0.0147282 -6.73138e-18)
(0.057268 0.107373 3.19348e-17)
(0.168167 -0.0384859 1.59329e-17)
(0.134731 -0.0312824 -3.993e-18)
(0.146213 -0.0336641 0)
(0.136978 0.0186886 0)
(0.0604327 0.0990406 1.61838e-17)
(0.0404705 0.0736152 1.20149e-17)
(0.18877 0.0395191 2.01561e-17)
(0.0374543 -0.00225357 -4.01114e-18)
(0.0690589 0.0107094 0)
(0.0243433 0.0132624 0)
(0.154234 0.0356339 0)
(0.0143443 -0.0145101 -1.61576e-17)
(0.0488273 0.00695925 0)
(0.0570036 0.0945896 -1.64611e-17)
(-0.000277173 -0.0170755 2.85046e-17)
(0.144091 0.0176766 3.18613e-17)
(0.0192676 -0.0195576 -1.61049e-17)
(0.179804 0.0164283 0)
(0.00986058 -0.00813224 -1.61185e-17)
(0.0523018 0.100918 0)
(0.166461 -0.0372542 0)
(0.137479 0.00790387 0)
(0.0928989 0.0506172 1.21137e-17)
(0.00900754 0.0353 0)
(0.0187406 -0.0782909 0)
(0.0400922 0.0824066 0)
(0.0738371 0.0416203 0)
(0.0504521 -0.0891644 -4.04678e-18)
(0.0161795 0.0576026 0)
(0.160654 -0.0132455 1.98488e-17)
(0.151351 -0.00634282 -3.99455e-18)
(0.0217215 0.0426809 0)
(0.00665267 0.0152588 -1.61106e-17)
(0.0594127 0.117221 -3.98955e-18)
(0.0222965 0.00377115 4.17659e-18)
(0.110497 -0.0325073 0)
(0.0641931 0.0321024 -1.56256e-17)
(0.124088 0.0218138 -1.60384e-17)
(0.0187808 0.0539441 4.09285e-18)
(0.0862901 0.0405914 -1.20866e-17)
(-0.00460568 0.00305032 2.05482e-17)
(0.0492646 -0.0137246 -1.61099e-17)
(0.141843 0.0115257 0)
(0.0132304 -0.0392986 0)
(0.0166515 -0.0183764 0)
(0.0590051 0.0983378 0)
(0.0899705 0.0705146 -1.20873e-17)
(0.0565989 0.0479579 -4.03944e-18)
(0.112997 0.0377615 1.60506e-17)
(0.00169967 -0.0148052 9.67351e-18)
(-0.00450568 0.0021007 -4.06881e-18)
(0.0104152 0.0225887 1.68174e-17)
(0.161962 -0.0163321 0)
(0.0739815 0.0722639 -1.28164e-17)
(0.0373638 0.00110176 4.02184e-18)