/*--------------------------------*- C++ -*----------------------------------*\
  =========                 |
  \\      /  F ield         | OpenFOAM: The Open Source CFD Toolbox
   \\    /   O peration     | Website:  https://openfoam.org
    \\  /    A nd           | Version:  9
     \\/     M anipulation  |
\*---------------------------------------------------------------------------*/
FoamFile
{
    format      ascii;
    class       volScalarField;
    location    "0.88";
    object      p;
}
// * * * * * * * * * * * * * * * * * * * * * * * * * * * * * * * * * * * * * //

dimensions      [0 2 -2 0 0 0 0];

internalField   nonuniform List<scalar> 
464
(
3.75923e-20
-7.98065e-20
8.86549e-21
8.60034e-21
-9.3169e-20
9.10544e-21
1.67094e-20
8.36588e-21
-1.30458e-20
-8.92172e-21
3.69615e-20
8.67068e-20
1.25426e-20
8.83835e-20
2.02736e-20
1.45951e-20
-2.85852e-21
-2.18359e-21
8.36842e-21
7.34373e-21
7.75421e-21
8.98697e-21
8.69223e-21
8.6773e-21
8.94553e-21
8.65221e-21
5.66875e-20
8.30393e-21
4.99063e-20
8.82699e-21
8.73931e-21
2.69719e-21
3.20731e-21
-1.52021e-21
-1.31678e-21
-4.57193e-22
3.10352e-22
8.38085e-21
8.21027e-21
7.18488e-21
6.81799e-21
8.61633e-21
8.74872e-21
7.74465e-20
6.71594e-20
8.58037e-21
8.13356e-21
7.65612e-21
7.9973e-21
8.35445e-21
6.63855e-21
8.00381e-21
5.07502e-21
7.98067e-21
8.1164e-21
7.92601e-21
8.07761e-21
8.94018e-21
9.51291e-21
4.69272e-21
8.16838e-21
-4.94285e-20
7.71916e-21
8.00464e-21
-3.11308e-20
8.13738e-21
1.25809e-20
7.77422e-21
5.35683e-20
8.24112e-21
1.06861e-20
-4.20063e-20
3.72692e-20
7.73902e-21
-6.64393e-21
8.11551e-21
1.08176e-20
1.74191e-20
7.91816e-21
3.43187e-20
-7.61199e-20
8.83164e-21
-1.21769e-19
8.79729e-21
-7.69511e-20
9.46974e-21
-3.35533e-20
8.56587e-21
8.52038e-21
-4.98226e-21
-6.67037e-20
-5.63921e-20
1.03002e-20
7.79491e-20
1.14299e-20
9.993e-21
8.47351e-21
9.03406e-21
-3.98046e-20
-8.73934e-21
8.55615e-21
7.67287e-21
8.63757e-21
1.08896e-21
-2.60037e-21
-1.21468e-19
8.96741e-21
1.09186e-20
-6.53043e-20
8.01603e-21
8.30114e-21
7.9209e-21
1.25868e-20
-2.98843e-20
8.406e-21
8.48745e-21
-9.89391e-20
8.97374e-21
-5.24068e-20
8.82282e-21
7.86985e-21
1.1854e-20
-2.58657e-20
3.60813e-20
1.01981e-20
4.77425e-21
-8.02398e-21
1.05471e-20
-1.29239e-21
-1.09033e-19
8.96049e-21
1.00948e-19
8.30089e-21
8.58417e-21
9.12519e-21
-8.11446e-20
9.08867e-21
8.37248e-21
-1.01814e-20
9.52762e-21
9.49378e-21
8.32585e-21
1.19374e-20
8.47865e-21
9.26115e-21
-1.37914e-20
8.37549e-21
8.60058e-21
8.19776e-21
9.5059e-21
8.49174e-21
8.57089e-21
1.001e-20
2.95545e-21
-6.86509e-20
9.61465e-21
-6.93519e-21
8.24371e-21
-5.74301e-21
-5.38958e-20
-5.5805e-22
8.43865e-21
-1.08488e-21
9.0771e-21
8.74912e-21
9.20568e-21
5.0316e-21
8.13865e-21
1.67987e-21
8.16873e-21
1.45694e-20
-3.98714e-20
-1.57527e-20
9.02372e-21
2.39347e-21
1.31585e-20
8.09738e-21
8.21213e-21
2.06343e-20
-4.81676e-21
8.03833e-21
1.58576e-20
-1.21903e-20
-1.26013e-20
-7.30204e-21
-1.28805e-20
2.18168e-20
2.16781e-20
-6.69607e-21
2.08118e-20
7.79932e-21
2.28015e-20
7.07561e-21
7.6726e-21
9.66623e-21
1.03827e-20
7.67691e-21
7.9496e-21
-9.34589e-21
8.23242e-21
7.98243e-21
9.77276e-21
7.34619e-21
9.0605e-21
2.11886e-20
7.01737e-21
7.81133e-21
9.18339e-21
1.01644e-20
-2.66728e-20
9.59101e-21
2.00029e-20
7.5926e-21
6.99207e-22
7.94189e-21
1.70972e-20
-3.03791e-21
7.25787e-21
5.24735e-20
1.13239e-20
-1.04408e-20
8.29777e-21
8.62208e-21
8.05548e-21
7.96561e-21
8.03207e-21
7.80895e-21
6.82451e-21
7.529e-21
7.72922e-21
7.0631e-21
5.87154e-21
6.15822e-21
7.85894e-21
5.38303e-21
7.62287e-21
3.28478e-21
5.37214e-21
6.42036e-21
2.24745e-21
7.64216e-21
4.86425e-21
4.45773e-21
5.69125e-21
7.63243e-21
1.60838e-22
4.94959e-21
6.82778e-21
2.22063e-21
7.31355e-21
5.20035e-21
1.49892e-21
6.91074e-21
-6.43493e-22
7.54736e-21
4.68093e-21
8.30854e-21
6.51382e-21
7.11639e-21
5.2251e-21
3.2506e-21
4.52962e-21
6.78905e-21
7.00133e-21
3.71238e-21
6.85227e-21
5.53389e-21
8.31349e-21
1.58188e-20
5.45589e-21
8.85173e-21
2.93885e-21
2.44822e-21
8.87245e-21
1.42524e-20
4.14788e-21
3.72018e-21
1.13778e-20
1.40117e-20
-2.04602e-20
3.48774e-24
8.28299e-21
1.2735e-20
7.7748e-21
1.77522e-20
-4.93319e-21
1.58083e-20
-1.9484e-20
8.22261e-21
-2.85024e-21
-1.21002e-20
-5.84885e-21
8.182e-21
7.98302e-21
1.0047e-20
1.30367e-20
1.91115e-20
1.42832e-20
1.5509e-20
-2.55127e-20
1.35633e-20
7.08036e-21
2.97989e-20
8.76581e-20
2.78202e-21
9.62656e-21
7.9909e-21
3.12838e-21
-4.78368e-20
7.9284e-21
8.42185e-21
8.41379e-21
7.49703e-21
8.68527e-21
5.14782e-21
7.20432e-22
1.71989e-20
-2.74296e-20
8.2413e-21
1.15714e-20
8.9784e-21
1.49928e-20
-3.6876e-20
1.56284e-20
-3.50033e-21
7.0426e-21
7.34868e-21
2.57179e-20
8.19227e-21
-1.63549e-20
8.14242e-21
-2.65435e-20
8.77239e-21
6.06876e-21
8.79998e-21
8.20681e-21
8.77475e-21
8.43688e-21
3.84127e-21
8.44971e-21
8.02644e-21
5.5561e-20
-7.68121e-21
-1.53362e-20
2.34787e-21
8.53362e-21
7.23731e-21
1.17498e-20
9.49484e-21
8.86427e-21
8.01691e-21
7.53963e-21
1.47082e-20
1.35654e-20
7.993e-21
-5.20465e-20
9.02133e-21
-1.1551e-19
9.01146e-21
-7.70126e-20
8.56222e-21
5.1908e-21
8.95578e-21
-7.72867e-20
4.68151e-20
8.34854e-21
8.46494e-21
-5.15194e-21
1.1783e-19
9.09806e-21
8.70184e-21
9.94369e-20
2.52355e-20
-4.02206e-21
7.02772e-20
8.65365e-21
4.42221e-20
8.8247e-21
4.15799e-20
9.08981e-21
3.59908e-21
-1.55975e-21
-4.30477e-21
3.4683e-21
2.73624e-21
3.26996e-21
1.17079e-21
8.57789e-21
-1.10795e-20
-1.65972e-21
4.27175e-21
2.33574e-21
2.13847e-21
4.90772e-21
7.01475e-21
8.49569e-21
8.09164e-21
8.70025e-21
8.42374e-21
3.63531e-20
-4.37491e-20
7.84198e-21
7.67406e-20
8.09353e-21
3.00749e-21
3.51713e-20
1.02814e-19
8.11897e-21
5.44582e-20
8.05651e-21
-2.10382e-20
8.73398e-21
8.6406e-21
8.67984e-21
8.58757e-21
-3.91861e-20
1.37278e-19
8.47544e-21
9.26711e-21
-5.34514e-20
9.0017e-21
7.96343e-21
4.53373e-20
8.77651e-20
4.81013e-20
2.7065e-20
3.12863e-20
1.71995e-20
9.56745e-21
-1.24553e-19
8.93972e-21
3.55739e-21
-5.77267e-21
8.61046e-21
2.97819e-21
-8.23463e-21
-6.04671e-21
8.73224e-21
-4.15506e-21
9.22243e-21
3.61856e-21
3.39293e-21
7.38672e-21
7.49139e-21
8.48259e-21
7.87069e-21
8.53564e-21
8.9136e-21
8.44186e-21
6.34508e-21
3.12894e-21
1.16631e-20
7.31716e-21
8.76061e-21
5.62112e-21
-4.24236e-21
8.38771e-22
8.47603e-21
8.91955e-21
8.71919e-21
8.1183e-21
1.30701e-19
8.84641e-20
8.65493e-21
)
;

boundaryField
{
    back
    {
        type            empty;
    }
    front
    {
        type            empty;
    }
    left
    {
        type            zeroGradient;
    }
    top
    {
        type            zeroGradient;
    }
    right
    {
        type            zeroGradient;
    }
    bottom
    {
        type            uniformFixedValue;
        uniformValue    
        {
            type            scale;
            scale           
            {
                type            squarePulse;
                start           0.3;
                duration        0.3;
            }
            xScale          
            {
                type            constant;
                value           1;
            }
            value           
            {
                type            constant;
                value           15.1;
            }
        }
        value           uniform 0;
    }
}


// ************************************************************************* //
