/*--------------------------------*- C++ -*----------------------------------*\
  =========                 |
  \\      /  F ield         | OpenFOAM: The Open Source CFD Toolbox
   \\    /   O peration     | Website:  https://openfoam.org
    \\  /    A nd           | Version:  9
     \\/     M anipulation  |
\*---------------------------------------------------------------------------*/
FoamFile
{
    format      ascii;
    class       surfaceScalarField;
    location    "0.88";
    object      phi;
}
// * * * * * * * * * * * * * * * * * * * * * * * * * * * * * * * * * * * * * //

dimensions      [0 3 -1 0 0 0 0];

internalField   nonuniform List<scalar> 
663
(
-7.6915e-26
9.48234e-26
-1.79414e-26
1.8771e-26
9.88143e-26
-4.06917e-29
4.10624e-29
1.48471e-28
-9.43823e-29
-5.56571e-29
-4.35117e-26
6.22149e-26
-3.11798e-31
-1.88264e-29
-9.9647e-26
2.27721e-26
6.70643e-29
5.72296e-29
-1.18336e-25
5.01533e-26
6.82197e-26
-1.47437e-26
-1.03601e-25
-1.7207e-26
1.12055e-25
5.31711e-26
-1.78649e-26
-3.53428e-26
-4.94975e-26
4.64337e-26
6.75307e-27
2.28864e-26
-2.48927e-26
2.00798e-27
2.44533e-26
-1.56293e-27
-4.86908e-28
-3.03335e-27
3.52096e-27
1.5257e-28
-6.44539e-28
2.84932e-29
-2.83553e-29
-8.50841e-28
2.02625e-27
-1.1755e-27
1.11632e-27
-1.96329e-27
-2.1209e-28
6.47342e-28
-4.35671e-28
7.03765e-28
-9.10956e-28
-9.87658e-29
6.90246e-29
3.16825e-29
-7.87824e-30
-7.65501e-29
-3.92128e-29
-5.44445e-29
8.93607e-28
-7.80742e-27
6.93333e-27
7.59094e-29
-6.26318e-29
-1.34364e-29
2.16881e-26
-2.07283e-26
-1.38131e-28
4.21004e-29
9.62314e-29
-1.90727e-28
4.24428e-29
-2.54499e-26
2.19723e-26
3.47713e-27
8.88461e-28
-2.63326e-26
2.17859e-26
-1.82001e-26
-3.5897e-27
1.15399e-26
1.02409e-26
7.92189e-28
-6.47073e-28
-1.3607e-27
2.15125e-27
-2.46147e-29
5.57944e-29
-4.29583e-30
7.9227e-29
-2.29032e-26
1.16817e-27
2.17296e-26
1.78643e-27
2.43052e-28
-1.60766e-27
1.24499e-27
3.62472e-28
-8.95575e-28
-1.60248e-26
8.23859e-27
-3.37631e-26
1.53934e-27
-1.49297e-29
-7.44807e-28
7.59338e-28
7.33612e-28
-5.28485e-28
-2.05718e-28
-5.55962e-29
5.55373e-29
-9.37606e-29
-3.19744e-28
2.1081e-27
1.36508e-29
-5.91498e-29
4.5239e-29
2.25672e-27
-3.1019e-28
-1.94635e-27
-1.27573e-27
1.65517e-27
-3.79386e-28
-2.31951e-27
1.04692e-27
3.17285e-28
-3.00937e-28
3.06808e-28
2.08869e-27
-4.43562e-30
-2.08564e-27
-2.32968e-28
2.32471e-27
2.00098e-27
2.59059e-28
-5.62457e-29
2.47334e-27
3.76462e-26
-4.01177e-26
2.4805e-27
5.17489e-27
-7.65202e-27
-1.19293e-27
8.61655e-28
3.31545e-28
-7.70858e-26
6.23474e-26
1.6619e-27
-3.99484e-30
-6.83241e-27
1.54482e-27
5.28717e-27
-3.95428e-30
-5.24334e-26
-7.17036e-28
-1.60023e-27
-1.99822e-27
1.76791e-27
-7.46274e-26
2.40077e-26
-2.31284e-27
5.71815e-28
1.65343e-28
-3.05847e-27
2.88293e-26
-2.57723e-26
1.24438e-28
-7.6268e-27
7.97998e-28
-9.57439e-26
7.78138e-26
1.47449e-27
-1.47417e-27
-8.95316e-28
2.23732e-26
5.14445e-26
-7.37965e-26
-6.41291e-29
5.96609e-29
4.16792e-30
1.51305e-26
-1.91627e-26
4.08013e-27
3.87334e-29
1.74154e-29
-5.6299e-29
3.72297e-26
4.59862e-27
-2.11897e-27
5.67394e-26
-1.91473e-26
-6.1506e-29
5.45858e-30
-1.11968e-29
6.05222e-30
-3.04016e-26
2.73455e-26
-2.87362e-27
-2.32721e-26
1.86456e-26
-5.40144e-27
-1.32413e-26
-2.69499e-26
-4.61916e-26
7.31271e-26
1.02178e-26
8.427e-27
-2.44251e-27
2.84625e-28
5.72495e-32
7.06222e-29
2.02744e-27
1.16593e-26
-1.36784e-26
3.97483e-26
-8.92128e-26
1.68829e-29
-1.30295e-29
6.98991e-28
-1.22343e-27
-1.15119e-28
1.315e-28
4.37061e-27
1.76026e-26
-1.38134e-26
-1.9222e-26
2.69293e-29
1.25311e-26
-1.09787e-26
-1.00289e-26
7.13859e-27
5.61255e-28
-1.89224e-27
1.33054e-27
1.61077e-26
8.64484e-27
-2.47529e-26
-1.68773e-28
7.12732e-27
-2.46389e-26
2.66187e-26
8.48277e-29
-9.65401e-29
1.76601e-28
-2.93233e-28
-3.90734e-27
-6.10209e-27
-1.99502e-30
4.60835e-29
-4.39024e-29
1.16359e-26
8.65886e-29
-9.38969e-29
1.26422e-27
-3.09257e-26
7.06608e-26
2.98603e-26
2.6884e-26
-4.44529e-26
6.72186e-26
2.60746e-27
2.92829e-26
-1.31766e-26
5.6159e-26
-2.63096e-26
-1.4902e-26
2.35414e-26
-1.96313e-27
1.35042e-26
4.53051e-27
-4.52109e-27
-2.77388e-28
4.53121e-28
1.39955e-28
6.03975e-29
-2.0056e-28
-6.1615e-27
-4.48323e-29
6.02082e-29
-7.45044e-29
3.26691e-28
-3.26395e-28
-2.09405e-30
1.3889e-28
-1.45333e-26
1.97988e-27
-2.08085e-28
-2.04491e-28
1.73318e-29
-6.24584e-29
5.31624e-28
2.82972e-26
4.2753e-28
-7.03452e-28
1.44731e-29
1.67487e-27
-8.09205e-28
5.78011e-28
-2.52541e-28
-4.7001e-28
8.97625e-28
3.3712e-28
1.16984e-28
-3.86784e-27
2.31121e-26
-1.92358e-26
2.22843e-26
7.00194e-27
5.49419e-27
-1.51723e-28
-1.702e-28
-6.66152e-28
-2.3673e-27
6.85998e-28
-1.15338e-27
2.52258e-26
2.57655e-26
-1.87085e-26
5.33211e-27
-1.03822e-26
5.05831e-27
-6.36164e-28
1.32342e-27
2.07987e-27
-2.78561e-26
5.82446e-28
-3.47116e-28
9.28541e-28
2.09294e-27
3.24593e-27
1.19797e-27
-1.54203e-27
-2.1139e-27
2.47106e-26
-2.26046e-26
-1.11158e-26
1.11145e-26
-8.36937e-27
-2.7287e-27
6.60139e-27
-1.31743e-26
1.36921e-26
7.07543e-28
1.31921e-26
2.8283e-27
-1.7732e-26
8.91685e-28
-1.52673e-27
1.58615e-27
-6.92549e-28
-2.60278e-26
2.21669e-26
-2.18814e-27
-9.72784e-27
1.19105e-26
-1.34316e-28
1.72298e-27
1.91356e-27
4.6164e-27
-6.52613e-27
5.0147e-27
-5.01477e-27
2.81768e-27
7.46662e-27
-9.56336e-27
-7.44635e-27
2.42887e-27
3.05797e-27
-1.14657e-27
3.06517e-27
-5.54647e-27
8.36619e-27
9.54427e-28
8.37357e-28
-1.79157e-27
5.53643e-27
-2.47937e-27
-3.41339e-28
3.413e-28
-2.63809e-28
5.11085e-28
1.81847e-27
2.24257e-27
-1.72711e-27
2.31927e-27
1.50486e-27
-2.21948e-27
-2.79941e-28
2.29188e-27
-4.8918e-29
-8.75592e-28
5.96414e-28
1.99648e-27
2.9559e-28
-6.01076e-28
-8.78048e-28
-1.09553e-27
1.09546e-27
-1.13288e-27
-1.13468e-27
-4.13635e-30
8.34642e-28
-8.35313e-28
9.32093e-28
-9.56171e-27
-1.07896e-26
1.07935e-26
-1.13237e-27
2.81561e-27
2.18223e-28
1.30236e-27
9.7254e-28
-5.09777e-28
1.48176e-27
7.95385e-28
4.5558e-28
1.14442e-27
-1.60064e-27
-1.25311e-28
9.20857e-28
2.137e-28
6.73648e-28
1.97098e-27
-8.23491e-28
2.58254e-27
-6.10573e-28
-4.19285e-27
1.54889e-27
-2.3713e-27
-7.97833e-28
3.3093e-27
-5.29066e-27
1.98321e-27
-2.25503e-27
5.56425e-27
1.7874e-27
-3.96114e-27
-1.32842e-27
-2.40767e-27
9.25371e-27
-7.27219e-27
-2.86612e-27
3.16015e-27
-4.49282e-27
-4.46493e-28
4.76439e-27
5.9885e-29
2.25969e-27
1.54931e-27
-8.81986e-27
9.93825e-28
1.32567e-26
-1.17101e-26
-9.26302e-27
-1.51409e-26
1.86472e-27
1.32816e-26
-8.13215e-27
-6.79331e-27
1.15533e-26
6.46486e-27
-2.4794e-28
-9.04096e-28
9.93203e-28
-8.6812e-27
1.7498e-26
-2.15213e-26
4.0167e-27
7.37662e-27
-1.60521e-26
-1.73398e-26
-3.01796e-27
2.03621e-26
-1.01345e-26
1.75076e-26
-1.95966e-26
2.48639e-26
-5.26681e-27
7.37415e-27
-1.75035e-26
-9.96593e-27
-4.39839e-29
3.00606e-26
-2.80465e-26
8.95247e-27
1.59051e-26
5.31852e-28
5.50543e-27
-1.54689e-26
-1.1066e-27
4.3505e-27
2.47902e-26
2.62442e-26
-7.84727e-27
1.33545e-26
2.67971e-28
8.53964e-28
-8.53378e-28
3.65051e-27
1.67503e-26
-1.24008e-26
-3.87066e-28
1.82554e-28
-1.32483e-28
-5.61555e-27
-2.24301e-26
1.81026e-26
-1.34568e-27
-7.06236e-28
-1.46862e-28
7.8599e-27
-3.41598e-26
-8.00811e-29
7.71506e-27
2.31648e-26
-1.54404e-26
3.09834e-26
5.16958e-28
1.33313e-27
-9.11525e-27
-9.10465e-28
1.26788e-28
-1.26591e-27
-9.29421e-27
1.17581e-26
-2.75576e-26
-1.41861e-26
-4.22471e-26
1.89834e-26
2.32824e-26
1.96967e-26
-1.85248e-27
4.91691e-28
3.67417e-29
-1.75488e-26
1.52265e-28
-1.32403e-26
2.08306e-26
-2.40515e-27
4.2006e-26
-1.67987e-26
7.18445e-27
-2.05418e-26
-1.33511e-26
-1.42033e-26
9.9175e-30
5.65482e-29
1.60078e-26
-1.81955e-28
2.22387e-28
-1.23111e-27
1.36658e-28
-1.36369e-28
-2.96508e-26
-3.55067e-28
-1.60616e-27
1.11258e-25
-7.13296e-26
3.64981e-30
-3.24122e-30
-2.10499e-27
-1.92043e-28
-6.22644e-28
-1.44327e-28
1.43287e-28
8.95348e-28
-6.20516e-30
3.61002e-30
2.42492e-26
-1.24696e-25
2.59987e-26
-6.12094e-29
-1.17227e-29
3.40375e-27
-1.09506e-27
-2.49209e-27
3.08262e-26
-5.03624e-30
3.08872e-26
-4.83451e-30
3.42537e-27
9.53143e-26
5.79794e-29
-3.81823e-29
-2.747e-26
-2.16904e-29
-1.17057e-26
6.60164e-26
2.46456e-30
-3.42704e-29
-6.54486e-27
4.58966e-27
1.13716e-26
2.20674e-29
4.85784e-29
1.41957e-29
3.83337e-27
-2.47223e-26
-5.3571e-27
4.67503e-27
-3.82761e-27
-1.4764e-26
8.94947e-28
9.94218e-27
2.91144e-29
-8.38372e-27
1.08949e-26
-1.33205e-26
-3.92201e-27
1.78671e-27
1.93888e-26
1.42647e-26
-7.50612e-29
4.5453e-28
1.88363e-28
2.0423e-27
8.23798e-28
-6.86262e-28
6.86244e-28
-1.35293e-27
-1.02734e-27
1.20214e-28
-2.85997e-28
-6.44703e-28
2.56562e-27
1.03024e-25
3.00778e-29
9.0242e-26
1.75058e-29
8.36992e-26
-4.67957e-26
3.1059e-26
-3.10998e-26
-1.76382e-30
-4.5308e-26
-3.16272e-30
-7.18843e-26
-3.1745e-26
6.74871e-29
-7.69812e-29
8.03329e-29
-1.29275e-28
4.94653e-29
6.73848e-29
6.4828e-29
1.13565e-26
-4.92492e-29
3.65055e-29
-2.78255e-26
9.93921e-27
8.38083e-27
-6.23544e-29
4.53807e-28
-1.88598e-28
-4.31374e-28
-1.60351e-27
6.12764e-28
-2.98259e-28
1.99667e-29
-2.59958e-29
-2.30304e-31
6.37921e-29
)
;

boundaryField
{
    back
    {
        type            empty;
        value           nonuniform List<scalar> 0();
    }
    front
    {
        type            empty;
        value           nonuniform List<scalar> 0();
    }
    left
    {
        type            calculated;
        value           uniform 0;
    }
    top
    {
        type            calculated;
        value           uniform 0;
    }
    right
    {
        type            calculated;
        value           uniform 0;
    }
    bottom
    {
        type            calculated;
        value           nonuniform List<scalar> 8(-1.17464e-25 -3.98866e-26 1.00354e-25 -7.43566e-26 -9.95565e-26 7.65373e-26 1.18006e-25 3.68837e-26);
    }
}


// ************************************************************************* //
