/*--------------------------------*- C++ -*----------------------------------*\
  =========                 |
  \\      /  F ield         | OpenFOAM: The Open Source CFD Toolbox
   \\    /   O peration     | Website:  https://openfoam.org
    \\  /    A nd           | Version:  9
     \\/     M anipulation  |
\*---------------------------------------------------------------------------*/
FoamFile
{
    format      ascii;
    class       volVectorField;
    location    "0.88";
    object      U;
}
// * * * * * * * * * * * * * * * * * * * * * * * * * * * * * * * * * * * * * //

dimensions      [0 1 -1 0 0 0 0];

internalField   nonuniform List<vector> 
464
(
(-2.41779e-18 -1.21441e-18 -1.49998e-37)
(-1.56375e-18 3.02316e-18 0)
(8.6526e-22 1.1096e-22 0)
(3.63137e-21 -1.4619e-22 -5.27806e-37)
(-1.13301e-18 2.39988e-18 0)
(4.99925e-22 4.31386e-22 1.35977e-37)
(-2.28762e-18 -6.46761e-19 1.61691e-36)
(3.45397e-21 -3.88592e-22 0)
(-2.82633e-18 1.14649e-19 -1.65879e-37)
(-2.67241e-18 8.03547e-19 -1.15446e-36)
(-1.92466e-18 -1.60404e-18 1.2725e-37)
(-8.22817e-19 -8.2085e-19 -1.33203e-37)
(-2.48297e-18 -1.88395e-19 1.26006e-37)
(-5.8383e-19 -9.51879e-19 0)
(-1.6919e-20 8.26076e-19 3.24776e-37)
(1.86279e-20 7.22288e-19 -1.00531e-36)
(6.08682e-20 5.90693e-20 0)
(3.07938e-20 1.82628e-20 -7.32705e-38)
(2.65043e-22 -6.08477e-22 3.83105e-37)
(-2.23267e-20 -5.725e-20 -4.36356e-37)
(-2.21129e-20 -5.69739e-20 6.50077e-37)
(-1.48672e-20 -1.18754e-20 -1.26025e-37)
(-2.14448e-20 -1.61197e-20 6.70044e-38)
(2.31999e-21 1.09553e-21 0)
(2.68217e-21 -7.71295e-22 5.42086e-37)
(1.35403e-21 1.7467e-21 -2.44758e-37)
(-1.96557e-19 3.74981e-19 -1.71753e-36)
(5.20495e-22 -2.12413e-21 4.97907e-37)
(-2.78232e-19 5.20569e-19 0)
(-3.87691e-21 2.82979e-22 0)
(-3.78627e-21 9.06747e-22 -3.07933e-38)
(2.67812e-19 7.08775e-19 -8.68775e-40)
(2.04562e-19 7.95235e-19 4.02304e-38)
(2.448e-19 4.63387e-19 -7.86546e-38)
(2.96652e-19 3.88881e-19 7.92709e-38)
(2.24567e-20 -1.46441e-20 1.38732e-38)
(3.2564e-20 -2.61251e-20 -1.73551e-39)
(5.67524e-22 -1.46072e-21 6.04027e-38)
(-3.47151e-22 -2.05971e-21 -9.36324e-39)
(6.9687e-20 6.72823e-19 0)
(-1.42176e-20 -6.25202e-20 -5.9768e-37)
(-2.17171e-20 -3.03241e-20 0)
(-2.55394e-20 -2.43294e-20 1.78108e-37)
(-3.18013e-19 5.2319e-20 -4.10269e-36)
(-6.22299e-19 -2.33196e-19 4.18385e-36)
(7.07683e-20 7.93472e-19 3.11185e-38)
(-1.64889e-20 8.5866e-21 -4.67538e-37)
(-8.63369e-21 1.65782e-20 1.9696e-39)
(-2.10225e-22 -1.23168e-21 0)
(9.68026e-22 -1.98385e-21 -5.84811e-38)
(-8.90509e-21 -6.94519e-20 4.00616e-37)
(-2.59444e-21 3.82404e-22 2.91462e-38)
(-1.98461e-21 -6.06893e-20 2.23161e-37)
(-3.53436e-20 3.17472e-20 4.60644e-37)
(-2.91283e-20 4.65798e-20 1.50166e-38)
(-5.96361e-21 3.7057e-21 -4.63955e-37)
(-1.02429e-20 4.93178e-21 0)
(5.79814e-20 2.68024e-20 0)
(4.34135e-20 4.2093e-20 6.02388e-37)
(2.92616e-21 -6.54041e-20 0)
(5.30841e-23 -2.02517e-21 -4.83326e-37)
(-1.26545e-18 5.58338e-19 5.28807e-36)
(1.81533e-19 -1.86868e-20 -1.04017e-36)
(-8.89022e-21 2.79305e-20 4.80219e-37)
(-2.18628e-18 7.29064e-19 -3.08432e-38)
(-3.98215e-20 1.89432e-20 4.74346e-37)
(1.65981e-19 -1.28509e-19 7.00249e-37)
(-8.21639e-22 -9.48365e-22 4.27615e-37)
(-1.40498e-18 -1.12419e-18 -1.49498e-36)
(-2.16987e-20 5.70256e-20 -4.95999e-37)
(5.63141e-20 2.9226e-20 -6.0114e-37)
(-1.74741e-18 9.65981e-19 -2.8289e-36)
(-1.84886e-19 7.09282e-19 0)
(-1.05537e-20 1.27587e-20 -4.61927e-37)
(6.74608e-20 -8.44373e-19 -2.30275e-37)
(-2.18029e-21 -9.12644e-22 -4.85651e-37)
(1.64891e-19 -7.32863e-20 6.7348e-37)
(-2.76321e-18 -1.17697e-18 -1.60888e-36)
(3.3877e-20 2.40411e-20 4.8678e-37)
(-7.0549e-20 7.01986e-19 7.77029e-37)
(-1.09091e-18 1.46228e-18 0)
(1.00348e-21 1.3074e-21 -1.29425e-37)
(-2.51883e-19 4.36761e-19 -7.08372e-36)
(8.36042e-22 1.41989e-21 -5.41405e-37)
(-6.51025e-19 8.10753e-19 0)
(1.27249e-19 -2.94974e-21 -4.45557e-39)
(-1.23967e-18 1.84258e-19 -2.49089e-36)
(8.53748e-22 1.8001e-21 0)
(6.35844e-24 -4.28579e-22 0)
(8.97002e-20 -8.43216e-19 -1.67162e-37)
(-7.78449e-19 4.86012e-19 3.94649e-36)
(-1.66154e-18 1.5517e-18 0)
(2.93933e-19 -3.24065e-19 -6.59329e-37)
(-1.13396e-18 -2.07362e-18 -3.95536e-36)
(2.61261e-19 -4.27993e-19 6.48056e-37)
(2.10888e-19 -5.50507e-20 5.27369e-37)
(8.46141e-21 3.87589e-20 -4.8791e-37)
(1.75999e-21 7.62902e-22 1.18699e-37)
(-2.46643e-20 -4.74826e-19 -2.73905e-36)
(-2.15098e-18 2.58576e-20 -1.17733e-37)
(-1.43058e-23 1.96029e-22 0)
(-1.45024e-20 2.58467e-20 -2.9514e-38)
(-3.06974e-21 4.34393e-22 0)
(2.9508e-19 6.07757e-19 8.50114e-40)
(2.48056e-19 5.86573e-19 0)
(-1.67827e-19 4.14654e-19 -5.68078e-36)
(2.41046e-22 4.1399e-22 0)
(2.3498e-19 -1.82956e-19 -6.86746e-37)
(-4.2024e-19 6.3155e-20 -3.95073e-36)
(-2.97756e-20 3.24482e-20 0)
(2.6506e-19 -6.03035e-19 0)
(-1.73984e-20 1.39549e-20 4.77287e-37)
(2.22611e-19 -2.63775e-19 0)
(-9.17952e-20 -7.03465e-19 1.49381e-36)
(-2.79472e-21 -2.75445e-22 -1.59217e-38)
(-7.4648e-21 1.82746e-22 8.13795e-39)
(-1.50283e-19 -4.37406e-20 5.41673e-36)
(1.4571e-22 1.71611e-21 -5.79728e-37)
(-2.93058e-20 -2.46563e-19 2.20287e-36)
(-2.77822e-22 2.55671e-21 3.25248e-38)
(-2.34001e-20 2.71144e-20 -4.47349e-37)
(-1.77353e-18 -4.35166e-20 -2.43862e-38)
(-1.56494e-18 1.52074e-19 1.00538e-36)
(-1.79619e-18 -4.78618e-19 -1.44427e-36)
(9.8071e-20 5.20453e-22 0)
(2.92859e-19 -6.40433e-19 -2.30213e-37)
(-1.3502e-18 -3.66907e-20 -1.01414e-36)
(1.66019e-19 -5.84968e-19 0)
(2.59533e-19 2.89161e-19 0)
(-1.08072e-19 7.59242e-20 5.48771e-36)
(1.05245e-22 1.12082e-21 4.2047e-37)
(-1.25053e-19 -8.47953e-20 -4.62454e-36)
(1.62796e-22 -1.1789e-21 3.95394e-37)
(-1.21421e-20 -4.71512e-22 0)
(-5.16032e-21 -5.76804e-21 0)
(-6.38231e-20 -1.36061e-19 -4.29578e-36)
(-1.85279e-22 1.07959e-21 8.69491e-37)
(3.04899e-22 -1.67906e-21 5.13291e-37)
(-2.02683e-18 3.08046e-19 1.22168e-36)
(-1.90849e-21 -6.86228e-21 -4.54887e-37)
(-2.00347e-21 -2.49788e-21 0)
(3.20233e-19 -4.8475e-19 0)
(3.16182e-20 3.65711e-20 4.96313e-38)
(-6.96806e-21 4.39176e-22 -5.11084e-37)
(-9.56736e-22 6.6246e-22 -5.34981e-37)
(1.21241e-20 -7.82476e-19 -1.02599e-36)
(-1.77242e-20 -3.79824e-23 0)
(4.77245e-22 2.55653e-21 0)
(-2.17157e-20 3.89116e-20 1.2897e-39)
(-4.02063e-21 -1.77149e-20 1.09844e-36)
(-2.31614e-20 -2.21407e-21 -1.57737e-38)
(-1.07106e-20 -1.53611e-21 -5.0009e-37)
(-4.51909e-19 4.16835e-19 7.51426e-37)
(2.13981e-19 -7.56228e-19 2.31234e-37)
(-7.81356e-20 -3.3483e-19 -3.40047e-39)
(-2.87566e-21 -9.13788e-21 6.14875e-37)
(5.6652e-20 1.11559e-19 0)
(-2.9193e-20 -1.06249e-22 0)
(-1.43564e-18 -2.36292e-22 8.99739e-38)
(-4.83764e-19 -2.08906e-19 3.07408e-36)
(-2.60071e-19 -1.78886e-20 0)
(-3.39692e-20 -4.73471e-21 5.08819e-37)
(7.69361e-20 -7.30792e-19 1.47663e-37)
(-2.32548e-21 -1.25662e-20 -1.79597e-38)
(-4.55457e-21 -2.87268e-20 -5.30594e-37)
(-8.21613e-22 -1.79706e-22 0)
(-5.61684e-20 1.642e-19 2.24504e-37)
(-1.05147e-20 -4.50524e-20 -4.84737e-37)
(1.07243e-19 6.04907e-19 4.79882e-39)
(2.089e-20 -2.28189e-19 -7.95727e-37)
(4.41745e-20 -3.6477e-19 -2.66659e-37)
(-8.16768e-19 -1.45297e-19 -1.98191e-36)
(1.2706e-20 -5.02421e-19 -5.95898e-37)
(-1.0229e-20 -1.21944e-20 1.25208e-37)
(3.48445e-20 -4.54837e-19 4.43749e-37)
(1.13383e-19 -4.43551e-19 8.20643e-37)
(-3.86462e-20 -1.64476e-22 -5.04681e-37)
(-4.09222e-20 -7.70683e-21 1.93644e-39)
(-6.44121e-19 4.17132e-19 9.55667e-37)
(1.04638e-19 2.81662e-19 5.89753e-38)
(-3.69909e-20 -2.31681e-20 -4.78346e-37)
(7.86734e-20 -1.51034e-19 -9.35357e-37)
(2.14842e-20 1.04439e-19 0)
(3.8572e-20 1.53665e-19 -7.32734e-37)
(3.32176e-20 3.43603e-19 1.91807e-37)
(4.0535e-20 2.48866e-19 -1.64526e-38)
(2.8837e-20 -7.8666e-20 0)
(1.84073e-20 -6.11757e-20 1.06206e-36)
(1.23555e-20 -2.72056e-19 -6.39303e-37)
(4.41951e-20 -2.60464e-19 -1.98051e-39)
(-1.621e-20 4.16365e-20 4.58978e-40)
(3.8249e-20 -1.61024e-19 -1.32853e-36)
(-2.00821e-21 6.78691e-21 6.72927e-37)
(-1.06921e-20 2.98757e-20 4.67001e-37)
(1.72585e-20 5.83726e-20 -5.83079e-40)
(8.30463e-21 6.26937e-20 5.84926e-40)
(-1.4918e-20 -5.84363e-20 4.45702e-37)
(-2.56649e-20 4.24995e-20 -4.54096e-40)
(2.04758e-20 1.60418e-19 -3.95159e-37)
(-1.43841e-20 5.70924e-20 -5.02932e-37)
(-1.09758e-20 4.50522e-20 0)
(-7.14392e-22 6.19927e-20 0)
(-4.5728e-21 2.74908e-20 0)
(-6.74788e-21 6.65377e-20 -5.22142e-40)
(2.23993e-20 -1.12188e-19 0)
(-4.26029e-21 1.74816e-20 -1.40476e-39)
(-2.18053e-21 1.80594e-20 0)
(-1.23659e-21 2.27834e-20 4.17358e-37)
(-1.30745e-21 4.16555e-20 -6.4133e-37)
(-4.62528e-21 -2.84814e-19 1.01271e-36)
(-1.33508e-21 -2.95565e-21 -4.5618e-37)
(1.31658e-20 -2.18963e-20 0)
(-7.58885e-22 -8.71646e-23 -3.67495e-37)
(3.86051e-21 -2.07965e-20 6.76722e-38)
(-2.15889e-21 -1.94669e-20 0)
(2.38348e-20 -1.7057e-19 7.56232e-37)
(1.26387e-20 2.13452e-19 2.44683e-37)
(-2.39784e-21 1.22015e-20 -3.40916e-37)
(-3.26607e-20 2.47424e-19 7.02869e-37)
(7.50493e-22 2.38648e-20 5.13144e-37)
(2.1047e-20 5.99848e-20 5.47336e-37)
(-3.80653e-21 3.68562e-20 -5.21981e-37)
(-8.05483e-21 5.76122e-20 5.03537e-37)
(-3.21469e-20 2.50721e-20 -9.55829e-37)
(-4.16823e-20 -1.61127e-22 -4.85844e-37)
(-3.88052e-20 -1.14012e-20 4.61183e-37)
(-3.33237e-20 -6.81763e-22 0)
(7.64869e-21 -4.00432e-20 -1.97902e-37)
(-2.31526e-20 -1.31428e-20 1.3352e-38)
(-8.61081e-21 3.75858e-22 4.51005e-37)
(1.14475e-20 -1.31415e-20 -4.47022e-37)
(2.52632e-20 -4.57465e-20 4.01637e-38)
(5.84588e-20 -2.70702e-20 0)
(9.82186e-20 9.82803e-21 5.06847e-37)
(1.69342e-20 -6.14844e-20 -3.35304e-37)
(3.69791e-20 -9.57415e-23 0)
(1.52377e-19 3.27408e-20 1.69793e-38)
(1.28306e-19 4.57454e-21 3.52993e-38)
(6.70573e-20 -8.74167e-21 -4.17048e-37)
(1.09193e-19 3.18676e-20 -6.92724e-38)
(1.04683e-19 6.51635e-22 4.25525e-37)
(2.1365e-19 5.80809e-20 2.34674e-37)
(8.12575e-20 -1.89936e-20 -2.85963e-37)
(1.44325e-19 2.92541e-21 0)
(1.92845e-19 1.23277e-21 0)
(1.07522e-19 7.28633e-20 2.15985e-38)
(2.39006e-19 2.14062e-20 9.14887e-39)
(-8.56512e-21 -6.04291e-20 0)
(2.34898e-19 1.15841e-19 0)
(-2.92953e-21 -3.75028e-20 0)
(3.05098e-19 1.33224e-19 2.20498e-37)
(1.75292e-19 1.356e-19 1.06994e-37)
(3.62022e-19 -1.2854e-19 5.01605e-37)
(1.87934e-19 -7.55011e-19 1.67679e-37)
(2.92593e-19 4.41098e-22 0)
(3.37837e-19 4.25783e-20 0)
(-2.78033e-20 6.5735e-21 0)
(-1.74373e-22 -2.29075e-20 2.67808e-37)
(3.82964e-19 -7.55721e-21 3.18682e-37)
(4.10247e-19 3.27008e-19 0)
(4.13947e-19 6.88132e-20 -3.03679e-37)
(4.17387e-19 -2.8558e-19 -6.61708e-37)
(4.43149e-19 -8.92213e-21 -3.18873e-37)
(1.11054e-19 6.61083e-19 3.50597e-37)
(4.50243e-19 1.00831e-19 3.18881e-37)
(-4.21467e-20 5.17975e-19 -1.2346e-36)
(4.40264e-19 -1.81338e-20 5.97703e-40)
(-2.02698e-21 -8.98533e-22 1.55622e-38)
(-1.52633e-20 8.76093e-19 -4.90207e-37)
(2.29053e-19 5.05165e-19 -3.55348e-37)
(-8.5032e-21 -1.68223e-20 4.79299e-37)
(3.99664e-19 1.27897e-19 0)
(1.10969e-19 -1.70669e-20 -2.22318e-37)
(9.52033e-20 8.50263e-19 -9.69294e-38)
(-1.62044e-18 -1.39195e-19 3.21365e-37)
(3.37941e-19 -2.13884e-20 0)
(2.38234e-19 1.5624e-19 0)
(1.21317e-20 5.06277e-20 6.95229e-37)
(3.9356e-21 1.85617e-20 0)
(-5.76128e-20 -8.28503e-19 -4.80558e-37)
(1.12162e-19 -3.86753e-19 -5.72704e-40)
(-1.07403e-20 1.74833e-21 2.02609e-39)
(3.38312e-21 3.7293e-20 0)
(-5.42445e-21 6.33307e-21 4.7429e-37)
(-1.59078e-19 7.96366e-19 -7.57887e-37)
(-3.77045e-20 -5.39483e-19 -2.26281e-37)
(9.97756e-21 1.88796e-20 9.9415e-37)
(-9.52824e-19 -2.28727e-19 0)
(-8.41674e-21 2.12839e-21 0)
(-2.39949e-19 -3.64561e-19 2.32907e-37)
(-4.31789e-19 -4.53364e-19 3.32953e-39)
(-7.35314e-19 -2.55444e-19 -2.17863e-39)
(-2.08394e-20 6.12506e-21 4.97956e-37)
(-3.68051e-20 2.23457e-20 -9.69156e-37)
(2.97649e-19 -1.32139e-19 -5.12912e-37)
(3.05139e-20 1.55007e-20 -1.55179e-36)
(1.86966e-20 -1.87495e-20 0)
(1.60605e-19 -4.08021e-19 7.36859e-38)
(1.34341e-19 -2.44588e-19 9.37455e-37)
(-7.41884e-19 -3.57061e-19 1.96178e-36)
(-2.00852e-19 6.15029e-19 6.23453e-37)
(-4.98344e-19 1.31608e-19 7.13878e-38)
(-8.90365e-19 1.27263e-19 -4.03498e-36)
(-6.85906e-19 -1.49609e-18 5.04193e-36)
(2.06761e-20 -5.19401e-20 -1.06841e-37)
(3.68836e-19 -2.3048e-19 4.8175e-37)
(3.98828e-19 -3.4241e-19 7.96024e-37)
(7.94745e-21 -5.47711e-20 -7.21901e-38)
(-2.3656e-19 -4.38636e-19 -5.57075e-36)
(1.07866e-19 -6.02872e-19 3.50566e-37)
(-1.87604e-20 5.73733e-20 4.96108e-37)
(-1.68411e-20 2.65419e-21 2.9681e-39)
(2.75129e-19 -6.48424e-20 0)
(-1.09263e-18 6.24193e-20 5.62272e-38)
(3.59182e-19 -4.49251e-19 5.13823e-37)
(2.21739e-19 -5.24596e-19 0)
(8.02763e-21 4.1715e-21 -7.88185e-37)
(-4.27799e-19 -5.93349e-19 0)
(1.79764e-21 5.88406e-22 0)
(-9.92056e-19 2.0376e-19 -9.68934e-37)
(-7.16439e-21 -2.5156e-21 -4.15367e-37)
(9.88228e-20 -1.12923e-19 3.2136e-39)
(-2.4221e-19 -6.35063e-19 2.53487e-36)
(1.01031e-19 -2.858e-19 -8.92246e-37)
(-7.86725e-19 -1.80531e-20 -2.59522e-37)
(-3.23849e-21 8.77077e-21 4.82194e-39)
(-1.96388e-21 2.53432e-21 4.30318e-37)
(-1.19201e-18 7.30911e-20 1.24948e-36)
(-4.04717e-21 -1.55582e-23 0)
(-3.25723e-19 -6.67622e-19 -9.54324e-37)
(-2.72383e-20 -4.52692e-20 2.47408e-37)
(-2.94552e-18 1.02362e-18 -7.55773e-37)
(-3.40263e-23 3.64537e-24 2.01298e-37)
(4.19664e-19 -2.04601e-19 -8.83909e-37)
(-8.19659e-21 6.4684e-20 5.19561e-40)
(-3.68059e-20 1.24241e-20 4.79081e-37)
(-1.16429e-20 -5.5263e-21 3.849e-37)
(3.24119e-21 -1.77897e-22 4.29088e-37)
(1.38987e-19 -7.45017e-19 -2.68781e-37)
(-2.22999e-20 -4.07086e-20 -5.20059e-37)
(-4.50655e-23 -2.19162e-22 -1.94115e-37)
(-2.44209e-18 -2.58426e-18 0)
(-1.43857e-20 -7.82849e-19 -5.88965e-39)
(-1.22798e-19 -8.09402e-19 9.47106e-37)
(3.23982e-19 -3.52655e-19 -2.23395e-37)
(1.47409e-21 -1.59181e-21 -2.48348e-37)
(-1.41356e-21 2.57633e-21 -6.88698e-37)
(1.07657e-19 -3.1058e-20 -6.7152e-37)
(2.4402e-21 6.11856e-22 -5.25231e-37)
(4.53717e-21 5.83606e-20 0)
(-3.0586e-20 1.32373e-20 1.50234e-38)
(2.3083e-21 -5.14088e-22 2.20789e-37)
(5.35308e-20 -5.01694e-20 0)
(6.26543e-20 -1.97169e-20 7.93291e-37)
(-2.47441e-20 1.89453e-20 4.63676e-37)
(-5.26412e-19 1.99307e-18 6.92526e-36)
(3.48318e-24 1.04803e-22 0)
(-1.50119e-19 8.32895e-19 -3.7395e-36)
(1.03774e-22 5.38922e-23 2.01926e-37)
(-2.00578e-18 2.60337e-18 0)
(1.72822e-21 1.33555e-21 2.89207e-37)
(-2.97916e-18 -2.63089e-19 1.75884e-37)
(9.02684e-22 7.21552e-22 -1.45384e-37)
(-8.80852e-19 1.73353e-18 0)
(-1.7748e-18 -2.1199e-18 1.19293e-37)
(5.99988e-22 -4.32448e-22 -5.2559e-37)
(1.67283e-21 -5.83577e-22 0)
(2.07695e-19 2.54012e-19 0)
(-2.24343e-19 -3.95795e-19 0)
(-1.71724e-21 1.43833e-21 -2.95595e-37)
(1.20817e-21 5.29631e-22 0)
(-1.46613e-19 3.47931e-20 8.9781e-36)
(-2.67413e-19 7.39341e-19 -1.39851e-37)
(1.03792e-19 1.80652e-19 0)
(-6.46483e-20 3.02989e-19 6.09892e-37)
(1.91368e-21 4.46876e-22 0)
(-9.46049e-19 -1.54416e-19 2.27498e-36)
(-1.31817e-20 -2.49678e-20 -8.07273e-37)
(-2.64069e-20 4.42263e-19 4.77783e-36)
(-4.74492e-21 -2.78862e-21 -1.52651e-37)
(2.16562e-20 3.97652e-19 0)
(1.60098e-19 5.82499e-19 -2.30668e-39)
(1.49118e-19 3.94062e-19 0)
(3.72764e-19 4.48798e-19 1.08252e-37)
(3.17119e-19 2.07288e-19 -6.06044e-38)
(2.94727e-19 5.65794e-19 0)
(3.72245e-19 3.30598e-19 6.6019e-38)
(1.88041e-21 1.59309e-21 2.82699e-37)
(2.77853e-20 6.40082e-20 0)
(7.84274e-21 -2.08107e-20 0)
(3.02096e-20 -5.33054e-20 1.12735e-37)
(6.92963e-20 -4.64589e-21 0)
(2.66309e-21 -3.54936e-20 -9.58399e-39)
(-6.29159e-22 -3.81171e-20 -5.41236e-37)
(-9.34153e-21 -4.79353e-20 2.0533e-37)
(-3.21901e-20 -2.17554e-20 5.00525e-37)
(-3.45392e-20 -3.4173e-20 0)
(-1.43316e-20 -4.21112e-21 1.06581e-36)
(-1.41366e-20 -4.07264e-20 0)
(-5.70961e-19 3.86721e-19 2.09077e-36)
(-2.45592e-18 2.6102e-18 0)
(1.07975e-21 2.95677e-22 0)
(-2.07916e-18 -2.68191e-18 0)
(8.86024e-22 -6.82676e-23 1.91111e-37)
(-3.03682e-18 1.52195e-20 8.97101e-37)
(-2.74739e-18 -1.71034e-18 0)
(-1.85699e-19 -8.86185e-19 0)
(9.89503e-23 5.8907e-23 -3.64646e-37)
(-5.68204e-19 -2.02536e-18 0)
(6.64218e-23 -6.97258e-23 4.68784e-37)
(-2.64907e-18 1.35454e-18 5.88479e-37)
(2.4547e-21 -1.64768e-21 -2.78089e-37)
(3.63374e-21 1.18349e-21 0)
(-2.85708e-21 7.69486e-22 -2.64369e-37)
(2.52149e-21 5.39634e-22 0)
(-2.08705e-18 1.89342e-18 0)
(-9.89673e-20 -3.05853e-19 0)
(1.73274e-21 -1.78784e-21 -1.63401e-38)
(2.2129e-21 1.36311e-21 -2.60189e-37)
(-2.80421e-18 1.61292e-18 -5.8413e-37)
(2.07667e-21 -1.05344e-21 -3.03523e-37)
(1.00504e-21 3.23522e-22 -2.92052e-37)
(-1.44161e-18 -5.86808e-19 1.60212e-36)
(-4.36628e-20 9.84436e-20 -4.05715e-36)
(-1.57942e-18 -3.1185e-18 -3.39529e-36)
(-5.02004e-19 5.50883e-19 8.69311e-37)
(-2.71377e-21 2.42097e-19 -1.70423e-36)
(1.33548e-20 4.26599e-19 4.32452e-37)
(6.7016e-21 2.1285e-19 -3.12165e-37)
(-3.50584e-19 1.06608e-18 8.27291e-36)
(3.80221e-22 5.35988e-22 -3.0087e-37)
(3.7462e-19 3.82402e-19 -1.16403e-37)
(9.9255e-20 4.17857e-19 1.85429e-38)
(2.84112e-22 2.21459e-21 -5.14928e-37)
(3.83735e-19 1.99888e-19 -2.60278e-37)
(1.07598e-20 1.31032e-20 0)
(9.99428e-21 4.65548e-21 7.40116e-38)
(-6.30385e-21 -1.70874e-22 2.76749e-37)
(4.05803e-21 -6.07588e-21 0)
(-2.04163e-21 2.08441e-23 2.98313e-37)
(6.15193e-20 -2.88105e-20 0)
(3.01165e-22 -1.84194e-20 9.51431e-38)
(-2.23063e-20 -3.50036e-20 -2.28831e-38)
(-2.91368e-20 -4.23209e-20 2.60367e-37)
(-2.14727e-20 -6.1781e-21 -7.82351e-37)
(-3.58442e-20 -3.14245e-20 1.53942e-38)
(-2.50581e-20 -1.12317e-20 2.88161e-37)
(-9.09397e-21 -2.87125e-20 2.91634e-37)
(-3.1511e-20 -1.23402e-20 -3.16406e-37)
(-8.311e-21 -6.84221e-20 -1.80889e-37)
(1.39859e-19 7.32569e-19 0)
(-2.99517e-18 -9.71865e-19 -3.91398e-37)
(1.33696e-19 8.54917e-19 4.38618e-37)
(-7.54958e-22 1.42098e-21 0)
(2.93875e-21 -6.90026e-20 3.69762e-37)
(1.40535e-19 2.53526e-19 0)
(1.67205e-19 1.81354e-19 -7.38309e-38)
(9.95577e-22 -2.45786e-22 2.71862e-37)
(2.15797e-21 -7.9833e-22 4.58085e-39)
(1.5472e-21 -1.28169e-21 7.24422e-39)
(2.38641e-22 -2.73211e-23 -4.33024e-37)
(-2.72894e-19 -9.70879e-19 0)
(-1.09903e-18 -2.53326e-18 9.80631e-37)
(-1.4977e-21 1.68517e-21 6.48448e-37)
)
;

boundaryField
{
    back
    {
        type            empty;
    }
    front
    {
        type            empty;
    }
    left
    {
        type            noSlip;
    }
    top
    {
        type            uniformFixedValue;
        uniformValue    
        {
            type            scale;
            scale           
            {
                type            squarePulse;
                start           0.3;
                duration        0.3;
            }
            xScale          
            {
                type            constant;
                value           1;
            }
            value           
            {
                type            constant;
                value           (0 -0.7 0);
            }
        }
        value           uniform (0 -0 0);
    }
    right
    {
        type            noSlip;
    }
    bottom
    {
        type            zeroGradient;
    }
}


// ************************************************************************* //
