/*--------------------------------*- C++ -*----------------------------------*\
  =========                 |
  \\      /  F ield         | OpenFOAM: The Open Source CFD Toolbox
   \\    /   O peration     | Website:  https://openfoam.org
    \\  /    A nd           | Version:  9
     \\/     M anipulation  |
\*---------------------------------------------------------------------------*/
FoamFile
{
    format      ascii;
    class       surfaceScalarField;
    location    "0.44";
    object      phi;
}
// * * * * * * * * * * * * * * * * * * * * * * * * * * * * * * * * * * * * * //

dimensions      [0 3 -1 0 0 0 0];

internalField   nonuniform List<scalar> 
816
(
-1.36e-10
-1.72e-09
1.86e-09
-1.48e-10
-3.02e-09
3.17e-09
2.76e-09
-2.89e-09
3.69e-09
-3.71e-09
1.74e-11
1.93e-09
-1.93e-09
3.73e-09
7.22e-10
-4.45e-09
2e-09
-2e-09
-1.92e-09
1.92e-09
-3.51e-09
-3.2e-10
3.83e-09
-1.52e-09
1.37e-09
5.49e-09
-1.76e-09
4.44e-09
-3.15e-09
-1.29e-09
8.41e-10
2.95e-09
-3.79e-09
4.34e-09
-3.89e-09
-4.47e-10
4.33e-09
-3.67e-09
-6.65e-10
-2.99e-09
4.95e-09
-1.96e-09
1.19e-09
1.31e-09
-2.5e-09
-4.14e-09
2.62e-10
3.88e-09
5.34e-10
3.9e-09
1.81e-09
-5.32e-09
2.78e-09
9.12e-10
4.24e-10
-3.41e-09
2.46e-09
-4.75e-10
-1.99e-09
-2.62e-09
-1.25e-09
3.87e-09
-2.85e-09
2.28e-10
-3.71e-09
8.34e-10
2.88e-09
-3.32e-09
3.65e-09
-3.29e-10
-7.56e-12
1.05e-09
-1.04e-09
1.07e-09
-4.08e-09
1.59e-09
3.36e-09
-2.25e-09
2.24e-09
-2.72e-09
3.44e-09
5.65e-09
-4.07e-09
-4.29e-09
2.14e-09
2.14e-09
3.78e-10
3.95e-09
-8.23e-10
4.18e-09
3.91e-10
3.94e-09
-6.48e-10
-3.07e-09
-5.24e-09
1.91e-09
3.33e-09
1.25e-09
6.81e-10
-1.54e-09
-1.38e-09
1.27e-09
-3.67e-09
-1.22e-12
-2.65e-09
-7.84e-10
3.44e-09
1.26e-09
7.33e-10
-1.62e-09
3.53e-09
-3.85e-09
-2.48e-09
-3.12e-09
-2.02e-10
-1.07e-10
1.24e-09
-1.14e-09
3.59e-09
-2.75e-09
2.35e-09
1.16e-10
-1.6e-09
-2.69e-09
1.99e-09
1.73e-09
1.18e-09
-4.04e-09
2.87e-09
-4.75e-10
-2.65e-09
4.38e-09
-3.19e-09
1.49e-09
-2.31e-09
2.44e-10
-7.38e-10
2.05e-09
2.31e-09
-2.05e-09
-1.17e-10
-3.77e-09
-2.06e-09
-2.51e-09
4.57e-09
-3.8e-09
1.34e-10
3.71e-09
1.94e-09
2.42e-09
3.07e-09
-1.5e-09
4.85e-09
-3.36e-09
8.34e-10
3.02e-09
-3.85e-09
-7.07e-10
-2.82e-09
1.82e-09
-3.89e-09
3.02e-09
1.62e-09
-4.64e-09
1.72e-09
3.07e-09
-4.79e-09
1.66e-09
-1.66e-09
-2.06e-09
3.87e-09
-3e-09
9.39e-10
4.77e-09
6.48e-10
1.21e-09
-1.86e-09
-4.24e-09
4.4e-10
3.8e-09
-1.72e-09
1.77e-09
-1.77e-09
-1.89e-09
1.89e-09
1.96e-09
-4.17e-09
2.22e-09
-1.42e-09
-4.03e-10
1.24e-09
-3.25e-09
4.43e-09
-3.48e-11
-3.05e-09
3.09e-09
-2.71e-09
-9.1e-11
2.8e-09
1.4e-09
-1.91e-09
3.87e-09
-1.26e-11
-3.3e-09
3.31e-09
2.84e-09
1.88e-09
-4.72e-09
-3.45e-09
2.69e-10
3.07e-09
-3.34e-09
-1.9e-09
-2.06e-09
-1.52e-09
-2.83e-10
4.24e-09
2.71e-11
-3.83e-09
-2.55e-09
3.39e-09
-4.04e-09
2.86e-09
1.18e-09
2.56e-09
2.19e-09
1.53e-09
-3.94e-10
4.34e-09
-2.73e-09
1.54e-09
-1.42e-09
-1.35e-10
-1.52e-09
1.61e-09
2.58e-09
3.85e-09
3.18e-09
-4.42e-09
1.24e-09
-1.48e-09
-2.56e-09
-1.04e-09
-2.66e-09
-3.91e-10
-3.38e-09
3.77e-09
1.3e-10
-2.84e-09
3.99e-09
-1.81e-09
-1.82e-10
3.06e-09
-2.23e-09
3.47e-10
8.37e-10
3.02e-09
-2.38e-10
-4.62e-10
3.19e-09
-3.64e-09
4.47e-10
-2.29e-09
-1.95e-09
-3.45e-09
2.52e-09
9.28e-10
-3.16e-09
-6.55e-10
3.85e-09
-8.78e-11
-3.77e-09
3.89e-09
-6.99e-10
-1.16e-09
4e-09
-1.09e-09
1.09e-09
3.56e-09
2.93e-10
6.51e-11
-3.58e-09
3.51e-09
2.47e-11
-3.17e-09
-3.65e-09
-7.73e-10
2.74e-09
-2.83e-09
2.58e-11
-1.26e-09
1.23e-09
7.29e-10
2.77e-09
6.96e-11
2.76e-09
-2.83e-09
-1.27e-09
-2.22e-10
3.55e-09
3.38e-10
2.19e-09
-2.53e-09
-2.14e-09
1.48e-09
6.62e-10
-3.45e-09
2.8e-09
-4.11e-09
-1.29e-10
4.24e-09
-1.53e-09
1.53e-09
1.49e-09
1.81e-10
9.07e-10
-3.83e-10
-3.94e-09
4.32e-09
-1.11e-10
-3e-09
4.01e-09
-2.94e-09
-8.37e-10
3.7e-09
-2.86e-09
1.21e-09
3.74e-10
-4.49e-09
-3.4e-09
-1.26e-09
-3.54e-09
3.41e-09
-1.23e-09
1.23e-09
-3.11e-09
-1.16e-09
3e-09
-3.38e-09
-2.34e-09
1.5e-09
-1.63e-09
5.75e-09
-4.12e-09
-3.28e-10
-3.21e-09
1.38e-09
-1.36e-09
-1.48e-09
1.54e-09
1.75e-10
-1.07e-09
8.99e-10
3.32e-11
2.97e-09
2.85e-09
1.72e-09
-1.89e-09
4.75e-09
-3.58e-09
-2.01e-09
1.68e-09
1.9e-11
-2.81e-09
2.79e-09
1.41e-09
-1.38e-09
3.54e-10
-3.37e-09
3.02e-09
2.69e-09
-3.09e-09
2.88e-09
-9.14e-11
-3.49e-09
-2.14e-09
-2.31e-09
-1.67e-09
-1.77e-09
-3.85e-09
-3.7e-10
4.22e-09
-1.22e-09
1.23e-09
-3.79e-09
-3.78e-10
4.17e-09
3.53e-09
-1.18e-10
-3.19e-09
-1.95e-10
-1.37e-09
-3.38e-09
5.32e-09
-1.95e-09
-1.5e-09
1.37e-09
1.26e-10
-1.48e-09
1.37e-09
-3.59e-09
3.56e-09
3.22e-11
3.35e-09
-3.15e-09
-2.03e-10
-2.34e-09
4.76e-09
-1.33e-09
-4.41e-10
-5.01e-09
3.09e-09
1.66e-09
1.82e-10
-7.68e-11
-3.44e-09
-1.26e-10
2.32e-09
-4.52e-09
-1.76e-10
3.74e-09
5.13e-09
-2.04e-09
2.59e-09
2.37e-09
6.43e-10
7.73e-10
-8.99e-10
3.78e-09
2.68e-09
2.88e-10
-2.38e-09
2.56e-09
1.56e-09
-1.68e-09
-1.58e-09
1.38e-09
-2.35e-09
-3.45e-09
5.53e-09
-2.09e-09
-1.22e-09
-1.33e-09
-1.07e-09
-7.7e-10
-2.59e-09
-2.01e-09
1.56e-09
-1.58e-09
-1.13e-09
-1.3e-10
2.3e-09
-2.17e-09
1.41e-09
1.88e-09
1.53e-10
1.37e-09
1.23e-09
-1.23e-09
-2.82e-10
-1.48e-09
-2.84e-09
-1.83e-09
4.66e-09
3.18e-09
-3.27e-10
-3.31e-09
8.83e-11
3.35e-09
2.87e-10
-7.77e-10
4.9e-10
-1.14e-09
3.06e-09
-3.83e-09
1.74e-11
4.6e-09
-4.46e-09
7.77e-10
-9.07e-10
1.37e-09
1.39e-09
-2.04e-10
6.79e-10
-1.68e-09
-4.9e-10
-3.81e-09
6.25e-10
2.03e-09
3.5e-09
2.72e-09
-3.42e-09
5.45e-09
-3.79e-09
9.51e-10
7.73e-10
-1.54e-09
-1.93e-09
-3.07e-09
4.99e-09
1.36e-09
-5.24e-09
-2.06e-09
5.56e-09
-2.14e-09
5.31e-09
3.52e-09
1.61e-10
-8.41e-10
8.41e-10
-1.55e-09
-2.57e-09
3.41e-09
3.37e-09
2.39e-09
-1.15e-09
1.15e-09
-1.39e-09
-8.88e-10
-1.43e-09
1.16e-09
2.67e-10
1.43e-09
-2.78e-10
-6.2e-10
-1.55e-09
-3.45e-09
-3.46e-09
6.5e-10
-5.61e-09
2.02e-09
3.59e-09
-2.09e-09
3.89e-10
-3.34e-09
5.55e-09
-2.2e-09
-5.4e-09
2.05e-09
1.7e-09
-3.19e-09
5.22e-09
2.85e-09
-4.9e-09
-4.03e-10
2.82e-10
1.8e-09
-2.76e-09
3.47e-09
-1.76e-09
-2.7e-09
4.46e-09
-3.35e-09
5.66e-09
-2.19e-09
3.96e-09
1.81e-09
3.85e-09
4.58e-09
-4.55e-09
-4.55e-09
2.36e-09
3.45e-09
-5.68e-09
3.54e-09
-1.71e-09
3.44e-09
-6.78e-10
-3.23e-09
-1.67e-09
1.86e-09
3.69e-09
5.51e-09
-9.73e-10
-2.34e-09
3.32e-09
-1.13e-09
1.13e-09
-1.03e-09
1.03e-09
1.25e-09
-1.25e-09
1.22e-09
-1.22e-09
1.25e-09
1.26e-09
3.39e-09
-4.57e-09
1.18e-09
-1.62e-09
3.42e-09
2.09e-09
1.62e-09
-1.62e-09
-1.52e-09
1.59e-09
-1.59e-09
-4.88e-09
1.85e-09
3.03e-09
-7.38e-10
-5.28e-09
3.27e-09
2.01e-09
-1.14e-09
1.14e-09
-4.5e-09
1.81e-09
2.69e-09
-1.61e-09
-3.21e-09
-2.95e-09
2.31e-09
-1.42e-09
3.04e-09
-1.13e-09
-4.19e-09
-4.4e-09
2.35e-09
1.22e-09
1.16e-10
1.9e-10
6.11e-11
-2.56e-09
-5.18e-09
2.9e-09
2.27e-09
-3.33e-09
-1.6e-09
-1.21e-09
-1.08e-10
1.65e-09
-4.06e-09
1.71e-09
-2.25e-09
-3.06e-09
5.53e-09
-1.65e-09
-2.9e-09
1.15e-09
1.75e-09
-3.06e-10
-3.6e-09
9.26e-11
3.51e-09
-1.19e-09
1.07e-09
-1.07e-09
-6.68e-11
-2.19e-09
-1.9e-09
-2.35e-09
3.88e-09
3.78e-09
-1.09e-09
-3.66e-09
-2.6e-09
3.69e-11
4.69e-09
-2.45e-09
-1.74e-09
-3.58e-09
-2.64e-09
-3.55e-09
-6.53e-10
-2.4e-09
-1.01e-09
-2.29e-09
-1.63e-09
-3e-09
-4.32e-09
-9.35e-10
3.45e-09
-2.92e-09
-2.68e-09
-3.4e-09
3.04e-09
-3.62e-09
5.84e-10
-1.37e-09
-4.34e-10
-3.22e-10
3.19e-09
-1.37e-09
-7.94e-10
4.57e-09
6.92e-10
-5.27e-09
5.09e-09
1.47e-09
1.96e-09
-2.13e-09
3.78e-09
1.26e-09
-1.26e-09
3.18e-09
6.74e-10
1.67e-09
4.22e-10
-3.02e-09
3.12e-09
-4.22e-09
4.45e-09
2.54e-09
2.19e-09
-3.81e-09
1.62e-09
2.15e-11
4.48e-09
-1.45e-09
2.45e-09
3.64e-09
-2.95e-09
1.52e-10
1.05e-09
-2.84e-09
1.36e-09
1.55e-09
1.59e-09
2.55e-09
-3.19e-09
4.98e-10
-2.47e-09
2.39e-10
3.08e-09
-2.71e-09
2.94e-09
8.29e-10
-2.73e-09
1.33e-09
-1.16e-10
1.33e-09
-4.27e-09
-2.32e-10
-4.86e-09
6.57e-10
-1.57e-10
1.07e-09
4.19e-10
-2.88e-09
3.86e-09
3.81e-10
-3.98e-09
-1.04e-09
1.33e-09
2.93e-09
-2.27e-09
-2.83e-09
-1.74e-09
2.62e-09
1.72e-09
-2.95e-09
1.07e-09
1.47e-09
-3.94e-09
-4.14e-09
3.94e-09
-7.28e-11
-2.44e-09
-1.98e-09
1.98e-09
1.32e-09
-3.81e-09
-2.01e-09
2.01e-09
-3.05e-09
-3.99e-09
-3.1e-09
-3.11e-09
1.75e-09
1.69e-09
3.66e-09
-1.04e-09
-2.67e-09
2.78e-09
3.18e-09
-4.25e-09
1.99e-09
-2.38e-09
2.49e-09
-2.94e-09
-2.09e-09
-1.71e-09
-2.1e-09
-7.24e-10
-2.96e-09
-1.03e-09
1.75e-09
-2.35e-09
2.24e-09
4.86e-10
3.42e-09
5.38e-11
-3.91e-09
-3.69e-09
-2.17e-09
-3.46e-10
-3.06e-09
-1.68e-10
-3.22e-10
-6.18e-10
-1.86e-09
1.7e-09
3.85e-09
-4.36e-10
-2.42e-09
6.32e-11
2.31e-09
2.98e-09
-3.17e-09
-3.1e-09
-3.28e-09
-3.45e-09
-1.29e-09
9.53e-10
5e-10
)
;

boundaryField
{
    front
    {
        type            empty;
        value           nonuniform List<scalar> 0();
    }
    back
    {
        type            empty;
        value           nonuniform List<scalar> 0();
    }
    bottom
    {
        type            calculated;
        value           nonuniform List<scalar> 
12
(
1.82e-09
3.81e-09
3.36e-09
3.42e-09
1.97e-09
4.9e-10
4.9e-10
3.19e-09
3.95e-09
3.42e-09
1.98e-09
1.8e-09
)
;
    }
    left
    {
        type            calculated;
        value           uniform 0;
    }
    top
    {
        type            calculated;
        value           nonuniform List<scalar> 8(-3.72e-09 -3.72e-09 -3.7e-09 -3.7e-09 -3.7e-09 -3.72e-09 -3.72e-09 -3.7e-09);
    }
    right
    {
        type            calculated;
        value           uniform 0;
    }
    inner_arc
    {
        type            calculated;
        value           uniform 0;
    }
}


// ************************************************************************* //
