/*--------------------------------*- C++ -*----------------------------------*\
  =========                 |
  \\      /  F ield         | OpenFOAM: The Open Source CFD Toolbox
   \\    /   O peration     | Website:  https://openfoam.org
    \\  /    A nd           | Version:  9
     \\/     M anipulation  |
\*---------------------------------------------------------------------------*/
FoamFile
{
    format      ascii;
    class       volVectorField;
    location    "0.44";
    object      U;
}
// * * * * * * * * * * * * * * * * * * * * * * * * * * * * * * * * * * * * * //

dimensions      [0 1 -1 0 0 0 0];

internalField   nonuniform List<vector> 
578
(
(-0.0443 -0.0534 0)
(-0.0239 -0.0822 3.28e-16)
(-0.0662 -0.079 -1.17e-16)
(0.00462 -0.0895 -2.76e-17)
(0.0146 -0.0329 -5.29e-17)
(0.00579 -0.115 -1.02e-16)
(-0.0153 -0.0336 5.26e-17)
(0.0168 -0.0308 -2.77e-20)
(0.0743 -0.111 -2.25e-16)
(-0.0143 -0.052 4.92e-16)
(0.00712 -0.124 -1.51e-16)
(0.0476 -0.0927 0)
(0.0105 -0.107 1.13e-16)
(0.0487 -0.101 -8.71e-16)
(-0.0494 -0.102 4.38e-16)
(0.0853 -0.0926 -1.05e-16)
(-0.0556 -0.0516 4.78e-16)
(-0.0902 -0.0773 0)
(0.0438 -0.0849 0)
(0.081 -0.108 1.61e-16)
(0.0042 -0.1 0)
(0.068 -0.0852 0)
(0.0382 -0.0344 -5.68e-16)
(0.000225 -0.0926 0)
(-0.00142 -0.0742 0)
(0.0416 -0.0844 4.45e-16)
(-0.00416 -0.0857 -5.61e-17)
(-0.00031 -0.0431 3.1e-17)
(-0.0208 -0.0978 -5.36e-16)
(0.0885 -0.0963 4.28e-16)
(-0.00128 -0.0737 -5.24e-16)
(0.00555 -0.096 1.11e-16)
(0.0949 -0.102 -4.1e-16)
(-0.00145 -0.0996 2.17e-16)
(-0.0434 -0.0924 -4.34e-16)
(0.0756 -0.0803 -6.54e-16)
(0.0426 -0.0909 8.53e-16)
(0.0402 -0.0783 0)
(-0.0852 -0.0929 -4.25e-16)
(0.0236 -0.0503 0)
(0.024 -0.0545 -4.31e-16)
(0.0278 -0.0501 5.16e-16)
(0.0244 -0.0473 0)
(-0.0442 -0.0905 0)
(0.0683 -0.0662 5.57e-17)
(-0.0242 -0.0514 0)
(-0.0245 -0.0559 4.31e-16)
(0.0675 -0.102 -5.58e-17)
(-0.0845 -0.0929 6.34e-16)
(-0.0069 -0.101 -1.18e-16)
(0.0011 -0.0453 1.68e-17)
(0.0158 -0.111 -4.75e-16)
(0.0572 -0.0416 -2.34e-16)
(-0.00183 -0.101 0)
(0.0016 -0.1 3.9e-16)
(-0.00533 -0.12 9.36e-16)
(0.0149 -0.0129 9.28e-16)
(0.0464 -0.0382 -4.61e-16)
(-0.0725 -0.0734 -8.19e-16)
(0.0484 -0.0524 2.42e-16)
(-0.086 -0.0834 4.32e-16)
(-0.0478 -0.0339 0)
(-0.0726 -0.0558 6.28e-17)
(0.0439 -0.0906 4.06e-16)
(-0.00513 -0.109 1.08e-16)
(-0.0551 -0.103 2.39e-16)
(0.0909 -0.106 -4.94e-17)
(0.0126 -0.121 3.55e-16)
(0.0965 -0.091 -2.04e-16)
(0.0482 -0.103 4.78e-16)
(0.000553 -0.0789 0)
(0.00173 -0.0796 -1.56e-17)
(0.000205 -0.106 -1.17e-16)
(0.0495 -0.105 0)
(0.00204 -0.132 2.16e-16)
(0.0146 -0.0308 0)
(0.0653 -0.0938 2.88e-16)
(0.0537 -0.0762 -2.38e-16)
(0.00652 -0.11 0)
(-0.0437 -0.0473 -1.27e-16)
(0.0441 -0.0928 -4.05e-16)
(-0.0219 -0.0321 -4.47e-16)
(0.0136 -0.0322 -2.03e-16)
(0.0218 -0.0315 2.06e-16)
(-0.087 -0.107 -5.78e-17)
(-0.0177 -0.0513 0)
(0.000804 -0.0265 0)
(-0.00514 -0.131 -3.43e-16)
(0.0354 -0.0786 1.33e-20)
(-0.0377 -0.0868 3.89e-18)
(-0.00316 -0.0932 0)
(-0.0758 -0.0974 1.17e-16)
(-0.0358 -0.0801 0)
(0.0154 -0.12 2.09e-16)
(0.0896 -0.0937 6.39e-16)
(0.0642 -0.0871 -5.5e-16)
(0.000193 -0.101 1.16e-16)
(0.00569 -0.102 -8.28e-16)
(-0.00494 -0.0316 -8.82e-16)
(-0.0491 -0.103 0)
(-0.0522 -0.0926 0)
(0.0453 -0.1 -7.56e-16)
(-0.0161 -0.116 0)
(-0.0668 -0.0706 0)
(-0.00486 -0.101 0)
(0.0482 -0.102 -6.49e-16)
(0.00285 -0.121 -2.27e-16)
(0.0245 -0.0529 0)
(-0.0105 -0.0289 0)
(0.0277 -0.0553 -5.37e-16)
(0.0758 -0.0874 -1.75e-16)
(0.0463 -0.0984 0)
(0.0862 -0.104 4.79e-16)
(0.0732 -0.0894 -3.89e-16)
(0.0768 -0.0923 4.08e-16)
(-0.0158 -0.111 4.69e-16)
(0.00737 -0.101 2.43e-16)
(-0.0601 -0.0954 -3.58e-16)
(-0.0333 -0.0754 6.26e-17)
(-0.00561 -0.102 4.09e-16)
(0.0346 -0.0696 -4.25e-16)
(0.0346 -0.0528 5.95e-22)
(0.0472 -0.0948 -4.61e-16)
(0.00222 -0.0824 -6.21e-17)
(0.0287 -0.0512 0)
(-0.0399 -0.101 4.78e-16)
(0.0298 -0.0942 -4.5e-16)
(0.0931 -0.0949 -2.29e-16)
(-0.05 -0.106 2.4e-16)
(-0.0325 -0.101 0)
(-0.0495 -0.101 0)
(-0.039 -0.102 0)
(0.0134 -0.116 0)
(0.0103 -0.0206 4.6e-16)
(-0.0487 -0.104 -4.47e-16)
(-0.0505 -0.0857 0)
(0.0421 -0.0788 0)
(-0.00932 -0.106 -4.01e-16)
(0.0597 -0.0907 4.52e-16)
(-0.0433 -0.0848 0)
(-0.0227 -0.0427 5.59e-16)
(-0.0339 -0.101 0)
(-0.0375 -0.0725 0)
(-0.000273 -0.0788 0)
(0.0199 -0.039 0)
(-0.0899 -0.102 1.11e-20)
(-0.0305 -0.0708 5.07e-16)
(-0.00803 -0.0653 0)
(0.0498 -0.103 4.82e-16)
(-0.0325 -0.0937 0)
(0.0603 -0.111 0)
(-0.0237 -0.0333 0)
(0.0222 -0.0219 0)
(0.0176 -0.0355 5.49e-16)
(-0.0538 -0.108 -4.47e-16)
(-0.00718 -0.0889 -2.49e-16)
(-0.0239 -0.109 4.81e-16)
(0.0142 -0.0993 -1.11e-16)
(-0.0191 -0.0187 -1.11e-16)
(0.0637 -0.112 -3.81e-16)
(0.0549 -0.103 5.36e-16)
(0.0518 -0.0911 5.58e-16)
(-0.0124 -0.0236 -7.03e-18)
(0.0552 -0.0987 0)
(-0.000134 -0.0245 3.19e-20)
(-0.0354 -0.0893 5.89e-21)
(-0.000361 -0.0446 -5.51e-16)
(-0.0483 -0.0935 0)
(0.0094 -0.067 -1.23e-16)
(-0.00694 -0.126 -1.96e-16)
(0.0533 -0.0874 0)
(0.0255 -0.0459 0)
(-0.0305 -0.0518 0)
(-0.0175 -0.0354 -5.53e-16)
(-0.0423 -0.0799 0)
(-0.00599 -0.116 -1.11e-16)
(-0.000315 -0.12 -1.12e-16)
(-0.0575 -0.0898 4.16e-16)
(0.0332 -0.056 6.16e-17)
(-0.00278 -0.0806 2.55e-16)
(-0.0261 -0.0468 0)
(-0.0449 -0.0803 0)
(-0.0267 -0.082 0)
(0.00607 -0.117 8.3e-16)
(-0.0603 -0.0961 3.03e-16)
(-0.00611 -0.0483 -4.09e-16)
(0.0306 -0.0371 -2.07e-16)
(-0.0512 -0.107 1.09e-16)
(-0.0566 -0.111 4.66e-16)
(-0.00139 -0.0463 -5.55e-16)
(0.0554 -0.11 -4.63e-16)
(0.0471 -0.0875 0)
(0.0468 -0.0608 5.22e-16)
(-0.0447 -0.0846 0)
(-0.0299 -0.0525 0)
(-0.00179 -0.135 2.13e-16)
(0.00358 -0.0536 1.05e-15)
(-0.00342 -0.0529 -8.37e-16)
(-0.0472 -0.0878 0)
(0.0441 -0.0837 0)
(0.00725 -0.0503 -4.03e-16)
(0.0106 -0.121 -1.05e-15)
(0.0171 -0.0539 -2.59e-16)
(-0.00503 -0.131 0)
(-0.00117 -0.126 -3.37e-16)
(0.0482 -0.0929 0)
(-0.0548 -0.0989 0)
(-0.057 -0.0673 0)
(0.0568 -0.112 4.75e-16)
(-0.0274 -0.0314 0)
(-0.0244 -0.0567 5.15e-16)
(-0.0578 -0.113 -4.57e-16)
(-0.046 -0.098 -1.49e-17)
(0.00297 -0.129 1.1e-16)
(-0.0405 -0.082 -2.56e-16)
(0.00184 -0.0916 0)
(-0.0515 -0.0987 -4.85e-16)
(0.0507 -0.0977 4.86e-16)
(-0.0548 -0.111 4.72e-16)
(-0.0139 -0.0299 -5.69e-16)
(0.0537 -0.11 2.41e-16)
(-0.046 -0.0894 0)
(0.0297 -0.0626 -5.05e-16)
(0.0284 -0.0534 0)
(-0.0277 -0.0516 0)
(-0.0299 -0.0625 1.02e-15)
(1.8e-05 -0.14 -1.07e-16)
(0.00333 -0.0326 5.2e-20)
(-0.00265 -0.0321 2.17e-16)
(-0.000397 -0.0247 4.39e-16)
(-0.0117 -0.0294 -4.45e-16)
(0.0058 -0.029 -2.24e-16)
(-0.0102 -0.0204 -4.58e-16)
(0.0282 -0.0898 0)
(-0.0288 -0.0912 0)
(0.0204 -0.0327 1.57e-16)
(0.0157 -0.0298 0)
(-0.016 -0.03 0)
(0.0186 -0.116 1.74e-16)
(0.0243 -0.0565 0)
(-0.0141 -0.0256 0)
(0.0142 -0.0245 0)
(-0.00172 -0.138 -4.35e-16)
(-0.0238 -0.0445 0)
(-0.00174 -0.0282 8.54e-16)
(0.0114 -0.0227 0)
(-0.0121 -0.0227 -4.43e-16)
(-0.00469 -0.0516 1.03e-15)
(-0.017 -0.0272 0)
(-0.00235 -0.123 -1.09e-16)
(0.00173 -0.134 1.08e-16)
(-0.0441 -0.103 0)
(0.0085 -0.0844 0)
(0.0088 -0.0256 -4.45e-18)
(0.000739 -0.0234 0)
(0.0331 -0.0997 4.75e-16)
(-0.000553 -0.0457 5.48e-16)
(-0.064 -0.113 -7.3e-16)
(0.0168 -0.0301 0)
(0.00525 -0.0508 5.51e-16)
(0.014 -0.0299 5.64e-16)
(-0.0148 -0.0266 4.48e-16)
(0.00102 -0.0281 -8.73e-16)
(0.00136 -0.0499 5.86e-16)
(-0.0402 -0.0899 3.68e-16)
(0.0362 -0.0779 9.13e-16)
(0.0172 -0.0505 0)
(0.00629 -0.0148 -4.57e-16)
(-0.00117 -0.0259 -4.48e-16)
(0.00276 -0.0116 0)
(-0.00276 -0.0116 0)
(-0.0397 -0.0978 -4.63e-16)
(0.0233 -0.0646 0)
(-0.000267 -0.142 -3.15e-16)
(0.00766 -0.127 -2.31e-16)
(-0.00134 -0.14 -6.36e-16)
(-0.00311 -0.111 2.47e-16)
(-0.00626 -0.0147 0)
(-0.0286 -0.0525 0)
(-0.00121 -0.132 -5.57e-16)
(0.0271 -0.051 0)
(-0.00239 -0.134 9.59e-16)
(0.000404 -0.141 0)
(0.00356 -0.134 -1.08e-16)
(-0.00101 -0.14 2.16e-16)
(-0.02 -0.0389 -5.38e-16)
(0.00862 -0.0173 -9.03e-16)
(-0.00858 -0.0172 4.56e-16)
(-0.000582 -0.0192 0)
(3.49e-05 -0.0442 -5.46e-16)
(0.0277 -0.0835 0)
(-0.0451 -0.101 1.47e-17)
(-0.00492 -0.126 1.96e-16)
(-0.0167 -0.0289 0)
(0.00051 -0.0233 0)
(0.00131 -0.0465 6.77e-17)
(0.0145 -0.0263 -4.49e-16)
(0.0319 -0.0992 -1.16e-15)
(-0.000188 -0.0465 1.25e-16)
(0.000415 -0.047 -4.89e-16)
(-0.00156 -0.121 5.72e-16)
(-0.0282 -0.0849 0)
(3.08e-05 -0.0273 4.36e-16)
(-3.38e-05 -0.0232 0)
(0.000828 -0.0271 0)
(1.09e-05 -0.0287 8.25e-16)
(0.0318 -0.0924 4.69e-16)
(-0.00237 -0.0958 -1.11e-15)
(-0.000522 -0.144 -4.18e-16)
(-0.000545 -0.143 0)
(0.0302 -0.0706 2.55e-16)
(-0.00103 -0.141 3.15e-16)
(-0.000463 -0.144 -6.64e-16)
(-0.0236 -0.065 0)
(-0.000731 -0.139 4.33e-16)
(0.00155 -0.135 4.46e-16)
(-0.0419 -0.0942 0)
(-0.00884 -0.0256 0)
(-0.0174 -0.0507 0)
(-0.00103 -0.131 -5.35e-16)
(-0.0363 -0.0771 -5.11e-16)
(9.91e-05 -0.142 8.66e-16)
(-0.00332 -0.134 1.11e-16)
(0.00076 -0.126 -3.47e-16)
(-0.00604 -0.128 4.41e-16)
(0.00055 -0.138 -2.04e-16)
(-0.061 -0.112 4.38e-16)
(-0.0396 -0.0756 0)
(0.053 -0.107 0)
(0.000169 -0.14 8.01e-16)
(-0.0116 -0.119 1.13e-16)
(-0.0691 -0.111 -1.74e-16)
(-0.000299 -0.144 2.12e-16)
(0.000999 -0.128 -4.36e-16)
(-0.0343 -0.0687 7.61e-16)
(-5.68e-05 -0.138 2.19e-16)
(0.00641 -0.128 -2.02e-16)
(0.00113 -0.127 -4.54e-16)
(-0.000632 -0.0958 0)
(-0.00291 -0.112 0)
(0.00243 -0.133 -2.21e-16)
(0.00227 -0.137 3.26e-16)
(-0.00102 -0.141 3.15e-16)
(-0.00096 -0.0831 4.54e-16)
(-0.000154 -0.142 3.19e-16)
(0.0608 -0.0824 -1.29e-16)
(0.0329 -0.0951 2.55e-16)
(-0.0101 -0.0233 -4.52e-16)
(0.00966 -0.0222 1.15e-16)
(-0.0111 -0.0252 4.46e-16)
(0.0113 -0.0251 0)
(0.0115 -0.0241 4.55e-16)
(-0.0117 -0.0243 2.28e-16)
(-0.00216 -0.127 -2.17e-16)
(0.0123 -0.028 0)
(-0.0126 -0.0292 0)
(8.2e-05 -0.141 -3.18e-16)
(-0.0145 -0.0304 -4.39e-16)
(0.0179 -0.0327 0)
(-0.018 -0.0334 0)
(-0.00159 -0.138 -3.45e-16)
(-0.015 -0.0138 0)
(-0.000101 -0.142 1.07e-16)
(0.00988 -0.0242 5.06e-16)
(-0.000377 -0.143 -1.11e-16)
(0.000775 -0.117 -4.69e-16)
(-0.00165 -0.14 1.11e-16)
(0.0478 -0.0968 4.68e-16)
(0.00892 -0.124 1.94e-16)
(-0.0417 -0.0378 0)
(0.0442 -0.0969 0)
(-0.042 -0.0274 -5.53e-17)
(-0.0659 -0.0676 4.53e-16)
(0.0364 -0.102 -2.35e-16)
(-0.0944 -0.105 -2.4e-16)
(0.0417 -0.0256 4.22e-16)
(-0.0105 -0.124 -1.12e-16)
(-0.0194 -0.0444 -5.71e-16)
(0.0193 -0.0432 4.08e-16)
(-0.0312 -0.0619 -5.22e-16)
(-0.00137 -0.0999 -4.02e-16)
(0.0201 -0.0452 -2.84e-16)
(-0.0202 -0.0456 0)
(0.00431 -0.13 -5.43e-16)
(0.00182 -0.135 3.2e-16)
(-0.00112 -0.126 6.63e-16)
(-0.00219 -0.0245 -5.84e-16)
(-0.0248 -0.0539 5.29e-16)
(-0.028 -0.0552 0)
(0.0177 -0.0418 -3.51e-16)
(0.00454 -0.1 1.99e-16)
(0.0182 -0.0995 0)
(0.0117 -0.112 4.68e-16)
(0.0348 -0.0886 -2.28e-16)
(-0.098 -0.0956 4.06e-16)
(0.0124 -0.0661 2.43e-16)
(0.0777 -0.0562 4.09e-18)
(-0.000254 -0.122 5.9e-16)
(0.00659 -0.0877 5.05e-16)
(-0.00124 -0.0402 5.71e-16)
(-0.0926 -0.0982 -8.02e-16)
(0.00145 -0.0429 -5.2e-16)
(-0.00745 -0.0457 2.73e-16)
(-0.013 -0.0984 3.61e-16)
(-0.0143 -0.104 0)
(-0.00962 -0.109 0)
(0.0898 -0.0749 0)
(-0.0281 -0.0833 7.44e-16)
(0.0106 -0.124 -5.62e-16)
(0.0266 -0.11 -4.6e-16)
(-0.00978 -0.0951 -9.46e-16)
(-0.045 -0.099 1.17e-16)
(-0.00353 -0.116 7.35e-21)
(-0.0339 -0.0902 -9.72e-16)
(-0.0404 -0.0939 -1.18e-16)
(0.0173 -0.117 1.13e-16)
(0.0397 -0.0872 -5.16e-16)
(-0.0402 -0.0888 -2.59e-16)
(0.0503 -0.106 0)
(-0.00957 -0.118 1.11e-16)
(-0.0464 -0.102 6.07e-17)
(0.00012 -0.0228 -2.66e-20)
(0.0509 -0.104 0)
(-0.0491 -0.101 6.34e-16)
(-0.044 -0.0998 0)
(0.0386 -0.099 -2.43e-16)
(0.0172 -0.0507 6.91e-16)
(-0.0078 -0.111 -5.22e-16)
(0.00994 -0.0282 -4.19e-16)
(0.0378 -0.101 0)
(-0.0804 -0.107 0)
(0.0016 -0.137 -2.15e-16)
(0.0595 -0.0661 -1.23e-16)
(0.0128 -0.103 0)
(-0.011 -0.0258 -2.2e-16)
(0.0445 -0.1 -2.37e-16)
(0.039 -0.0851 0)
(-0.0339 -0.106 -4.61e-16)
(0.0259 -0.0804 0)
(-0.0184 -0.114 4.71e-16)
(-0.0308 -0.106 -3.63e-16)
(0.00455 -0.119 0)
(0.0122 -0.104 2.51e-16)
(0.000384 -0.0973 0)
(-0.0747 -0.112 0)
(-0.0054 -0.133 4.55e-16)
(-0.000601 -0.0784 -3.9e-16)
(-0.067 -0.0881 -4.62e-16)
(-0.0552 -0.0805 6.56e-16)
(0.000864 -0.0223 0)
(-0.0515 -0.105 1.24e-16)
(-0.0123 -0.101 0)
(-0.0454 -0.0996 1.22e-21)
(0.0109 -0.101 1.93e-16)
(-0.0531 -0.109 -4.48e-16)
(-0.00182 -0.0812 0)
(-0.00702 -0.0808 -8.09e-18)
(0.0435 -0.0803 2.34e-16)
(0.000722 -0.134 6.89e-16)
(-0.0706 -0.0936 0)
(0.0214 -0.0813 5.03e-16)
(-0.0309 -0.0346 2.63e-16)
(-0.0171 -0.119 -1.76e-16)
(0.018 -0.0479 -3.19e-16)
(-0.00273 -0.137 1.11e-16)
(0.0632 -0.0982 -1.97e-20)
(-0.0193 -0.0499 0)
(0.0306 -0.033 -2.69e-16)
(-0.014 -0.121 2.35e-16)
(0.0413 -0.0938 -7.27e-16)
(0.000753 -0.113 -5.16e-16)
(-0.00143 -0.0232 0)
(-0.0156 -0.0204 0)
(-0.0122 -0.0951 2.46e-16)
(-0.000723 -0.126 -4.75e-16)
(0.0445 -0.0982 2.3e-16)
(0.0428 -0.101 4.86e-16)
(0.0129 -0.0166 2.2e-16)
(0.0248 -0.0328 1.08e-16)
(0.0599 -0.0695 2.08e-16)
(0.000645 -0.116 0)
(0.00383 -0.134 2.25e-16)
(-0.0922 -0.0975 -3.47e-16)
(-0.000912 -0.134 -1.07e-15)
(-0.0111 -0.102 1.96e-16)
(0.0325 -0.0881 2.52e-16)
(-8.18e-05 -0.115 3.65e-16)
(-0.00245 -0.0512 0)
(-0.0189 -0.109 0)
(-0.0663 -0.104 -2.3e-16)
(0.0026 -0.0516 -2.01e-16)
(-0.0864 -0.107 5.65e-17)
(0.0388 -0.0967 2.9e-17)
(0.0208 -0.113 6.02e-17)
(-0.012 -0.121 -2.31e-16)
(-0.0188 -0.0441 5.56e-16)
(-0.00187 -0.09 2.56e-16)
(-0.0474 -0.103 2.33e-16)
(-0.0078 -0.0972 1.92e-16)
(0.00742 -0.098 0)
(0.0498 -0.105 -2.45e-16)
(-0.00673 -0.128 -4.6e-16)
(0.0297 -0.0755 0)
(0.00332 -0.122 6.83e-16)
(-0.0837 -0.0915 1.32e-16)
(-0.0189 -0.112 0)
(-0.033 -0.0743 2.71e-16)
(0.0113 -0.116 0)
(-0.0315 -0.0781 5.07e-16)
(-0.0238 -0.111 0)
(0.0014 -0.0966 4.66e-16)
(0.048 -0.0813 0)
(0.00172 -0.078 -5.14e-16)
(-0.0345 -0.0799 -2.82e-16)
(-0.0404 -0.089 -6.5e-17)
(0.000481 -0.0465 -5.16e-16)
(0.0487 -0.102 2.5e-16)
(0.0342 -0.0788 0)
(0.00123 -0.0896 0)
(0.0252 -0.111 4.78e-16)
(0.000759 -0.125 -3.39e-16)
(0.0328 -0.0613 -4.12e-16)
(-0.00183 -0.137 1.12e-16)
(0.0307 -0.0709 0)
(0.043 -0.0942 2.67e-16)
(0.00169 -0.112 -6.49e-16)
(-7.71e-05 -0.0911 3.34e-16)
(0.00704 -0.0869 -2.63e-16)
(0.0666 -0.0923 1.2e-16)
(-0.0059 -0.0925 2.65e-16)
(0.0393 -0.0591 0)
(0.0526 -0.108 0)
(-0.00277 -0.0462 -5.07e-16)
(0.000381 -0.116 0)
(0.026 -0.107 5.55e-16)
(-0.0309 -0.0462 -2.82e-16)
(0.0012 -0.0735 0)
(-0.0382 -0.0851 -3.3e-16)
(-0.0603 -0.0706 -3.18e-17)
(-0.0143 -0.083 5.4e-16)
(0.0155 -0.0844 1.09e-19)
(0.0181 -0.11 -3.07e-17)
(0.032 -0.0472 0)
(0.0352 -0.0794 2.81e-16)
(0.0153 -0.0944 0)
(-0.00113 -0.118 -2.45e-16)
(0.000532 -0.0909 0)
(-0.0623 -0.0886 0)
(0.0787 -0.0947 -1.19e-16)
(0.0352 -0.0833 2.61e-16)
(0.0821 -0.0759 3.35e-17)
(-0.051 -0.102 -1.35e-16)
(0.0421 -0.0971 -2.33e-16)
(-0.0644 -0.0936 1.22e-16)
(0.0579 -0.0784 -1.34e-16)
(-0.00757 -0.13 -1.14e-16)
(0.0684 -0.111 -3.11e-16)
(-0.000959 -0.136 1.31e-16)
(0.00139 -0.114 1.29e-16)
(-0.0146 -0.115 6.77e-17)
(-0.0176 -0.117 0)
(-0.0383 -0.0604 0)
(0.0309 -0.0694 -5.92e-16)
(-0.0251 -0.107 0)
(0.0261 -0.107 -2.52e-16)
(0.00113 -0.109 0)
(0.0184 -0.108 2.56e-16)
(-0.0121 -0.121 1.71e-16)
(-0.0271 -0.108 -2.75e-16)
(0.0265 -0.108 -2.75e-16)
(-0.0459 -0.1 2.54e-16)
(-0.0711 -0.0892 0)
(0.0697 -0.0628 -1.89e-16)
(-0.0121 -0.113 -5.37e-16)
(-0.0858 -0.0948 1.33e-16)
(0.000952 -0.111 0)
(-0.0833 -0.0985 2.76e-16)
(-0.0715 -0.0804 0)
)
;

boundaryField
{
    front
    {
        type            empty;
    }
    back
    {
        type            empty;
    }
    bottom
    {
        type            zeroGradient;
    }
    left
    {
        type            noSlip;
    }
    top
    {
        type            uniformFixedValue;
        uniformValue    
        {
            type            table;
            format          csv;
            file            "inlet_v.csv";
            nHeaderLine     1;
            refColumn       0;
            componentColumns List<label> 3(1 2 3);
            separator       ",";
            mergeSeparators 0;
        }
        value           uniform (0 -0.099 0);
    }
    right
    {
        type            noSlip;
    }
    inner_arc
    {
        type            noSlip;
    }
}


// ************************************************************************* //
