/*--------------------------------*- C++ -*----------------------------------*\
  =========                 |
  \\      /  F ield         | OpenFOAM: The Open Source CFD Toolbox
   \\    /   O peration     | Website:  https://openfoam.org
    \\  /    A nd           | Version:  9
     \\/     M anipulation  |
\*---------------------------------------------------------------------------*/
FoamFile
{
    format      ascii;
    class       volVectorField;
    location    "0.35";
    object      U;
}
// * * * * * * * * * * * * * * * * * * * * * * * * * * * * * * * * * * * * * //

dimensions      [0 1 -1 0 0 0 0];

internalField   nonuniform List<vector> 
942
(
(-0.0172707 -0.137442 0)
(0.0914868 0.00791764 3.3364e-17)
(0.0701651 0.134127 0)
(-0.0218305 -0.106038 -1.75104e-17)
(0.0683281 0.138962 1.06879e-17)
(0.0293607 -0.027105 1.86254e-17)
(-0.0163647 0.0509993 4.87137e-17)
(0.0549915 -0.0429881 0)
(0.0373742 -0.0614823 -3.83176e-17)
(0.0347164 -0.065139 3.90724e-17)
(0.0531912 0.0395705 0)
(0.117097 -0.0417233 0)
(-0.011653 -0.100946 1.63373e-17)
(0.0530454 0.0468395 0)
(0.136979 -0.0462891 0)
(0.0604299 0.00385179 -3.62847e-17)
(0.00878429 0.0222462 -1.44592e-17)
(-0.0316216 -0.129812 0)
(-0.114934 -0.0334559 -4.2857e-18)
(-0.0262231 -0.00764502 6.59487e-18)
(0.0422908 0.0572598 2.44836e-17)
(0.130343 -0.048997 1.95226e-17)
(-0.0803634 0.0982188 0)
(-0.0108168 -0.0846931 -3.89975e-17)
(0.0699499 0.0483773 0)
(0.0225547 -0.0173757 2.95032e-17)
(0.0508017 0.12683 0)
(-0.0727886 0.054451 2.44564e-17)
(-0.0178619 -0.0442027 0)
(-0.0593451 -0.0568009 1.55131e-17)
(0.0460194 0.0520337 1.97849e-17)
(0.0432599 0.11881 0)
(-0.0406361 -0.0633281 1.86409e-17)
(-0.143569 0.0266344 2.15779e-17)
(0.0558888 0.109338 -2.14965e-17)
(-0.129486 0.129 4.02806e-17)
(0.0490428 -0.101905 1.36538e-18)
(-0.0648247 -0.0317919 0)
(0.0447075 -0.109615 -6.97043e-19)
(-0.0376697 -0.100149 2.78831e-17)
(-0.103345 0.0446065 -3.86129e-17)
(0.13929 -0.0968489 0)
(-0.0724107 -0.192924 -1.91106e-17)
(-0.0150911 0.0496819 -1.62378e-17)
(-0.0392699 0.0558711 -4.10478e-17)
(-0.0881378 -0.0479156 9.38729e-18)
(-0.143206 -0.0288496 -1.8929e-17)
(-0.16738 0.0245289 -1.77942e-17)
(-0.168826 0.0708632 1.98413e-17)
(0.0701632 0.0585661 2.34746e-17)
(-0.0960728 -0.0376511 0)
(-0.129136 0.181951 0)
(-0.207798 0.198324 -2.69606e-17)
(0.0121274 -0.130182 2.20485e-17)
(0.0271981 -0.0729865 0)
(-0.0492015 0.0214974 -1.4599e-17)
(-0.0400012 0.00860145 -3.6842e-17)
(0.0222749 -0.0864575 -2.61416e-18)
(-0.0292988 0.00594485 4.7207e-17)
(0.0596882 0.0156902 2.05059e-17)
(-0.0703948 0.0241619 -1.92257e-17)
(0.0526633 0.116315 -5.05957e-17)
(-0.0737033 0.0103451 2.34055e-17)
(-0.022874 -0.118012 -1.88453e-17)
(-0.0693932 -0.0231252 1.78969e-17)
(0.0796434 -0.0054906 1.38922e-17)
(0.0455024 0.108709 3.9562e-17)
(-0.110992 -0.00564484 -1.78816e-17)
(-0.12687 0.0643108 1.83211e-17)
(0.0223403 -0.0538145 5.05109e-18)
(0.0765115 0.0070697 0)
(0.0180996 -0.00764306 0)
(-0.0372826 -0.00209294 -2.41451e-18)
(-0.0531289 -0.0875725 4.6494e-18)
(0.00797598 -0.105084 -2.08947e-17)
(-0.000959631 0.00272098 9.49204e-22)
(-0.000410655 -0.000687389 2.42881e-18)
(0.0475821 0.0993238 2.18474e-17)
(0.0526031 0.0660186 -2.36718e-17)
(0.0909307 0.000963263 -4.75465e-18)
(-0.0438782 0.0367564 2.79989e-17)
(0.0302192 0.0143756 -1.02722e-17)
(0.0496235 0.0297603 -2.57231e-18)
(0.0562948 -0.0059456 1.04675e-17)
(0.034159 -0.00428067 0)
(0.0390865 0.139251 0)
(-0.0127788 0.0135459 -2.15219e-17)
(0.065787 -0.0168425 5.88973e-18)
(0.0675098 0.0585672 0)
(0.0652461 0.0363261 2.94114e-17)
(0.139366 -0.0877666 -1.47706e-17)
(0.0181291 0.0300407 6.83402e-19)
(0.0111735 -0.089272 2.94385e-18)
(-0.00230941 0.00168513 0)
(-0.0122264 0.0020207 -5.7633e-18)
(0.079047 0.0268429 1.0647e-17)
(0.11461 -0.0917474 1.81668e-17)
(0.0397788 -0.0157069 -1.71309e-17)
(0.0076461 -0.0111517 -2.53532e-17)
(-0.0591684 0.0341741 -3.59948e-17)
(0.00999722 -0.00275237 -1.08505e-17)
(0.000320916 -0.0832899 1.21992e-17)
(-0.102923 -0.0232873 0)
(0.0190912 -0.0269433 1.38898e-17)
(0.057004 -0.0459062 -2.199e-17)
(-0.0798689 0.0804367 -3.5239e-17)
(-0.0663808 -0.044259 -1.26121e-17)
(-0.0723789 -0.0682322 0)
(-0.162895 0.00353073 1.92774e-17)
(-0.157886 -0.0125546 0)
(-0.151034 0.101255 0)
(-0.169624 0.0894449 -1.93282e-17)
(-0.03914 0.00964759 3.91587e-17)
(0.0270651 -0.030271 0)
(0.0714969 0.0508522 0)
(0.00291947 0.0012104 2.66638e-18)
(0.0569973 0.0235315 -2.10746e-17)
(-0.0267476 -0.117089 2.20638e-17)
(-0.0598453 0.100358 -1.54906e-22)
(0.115408 -0.0152348 -2.54973e-18)
(-0.0988912 0.156576 8.34919e-18)
(-0.124501 0.111778 -2.16672e-17)
(-0.0431177 -0.15792 0)
(-0.0228963 0.0106179 1.93725e-17)
(-0.0162697 0.00203948 1.5682e-17)
(0.05694 0.0491705 -4.1983e-17)
(-0.116911 0.145142 2.15642e-17)
(-0.0925717 -0.170085 -2.1016e-17)
(-0.115101 -0.160266 3.83875e-17)
(-0.165828 0.139111 1.96606e-17)
(-0.210002 -0.094641 -1.02793e-17)
(-0.189717 -0.114525 -2.38209e-17)
(-0.235661 -0.0707429 0)
(-0.277218 0.0157957 0)
(-0.269773 -0.0157422 -2.12343e-17)
(-0.161756 -0.124794 -1.49138e-17)
(-0.251616 0.152248 1.28292e-18)
(-0.257292 -0.0427283 0)
(-0.271746 0.125346 2.62777e-17)
(-0.281016 0.0919856 -9.00467e-18)
(-0.273866 0.0526124 2.11907e-17)
(-0.135154 -0.138887 0)
(-0.0031404 0.0181601 -2.1568e-17)
(0.0649163 0.0718336 2.33042e-17)
(0.0263066 -0.0205809 -5.39549e-18)
(-0.0157646 -0.0682731 -9.86835e-18)
(-0.00217798 -0.0110439 0)
(0.0176135 -0.0321419 -1.28837e-17)
(-0.0146723 -0.0174987 3.26189e-17)
(0.0456554 0.144555 0)
(0.0504529 -0.0331358 5.83381e-18)
(0.130845 -0.0032453 6.44802e-18)
(0.0509035 0.0817347 0)
(0.0260788 -0.0446843 1.20983e-17)
(0.0494459 0.0906594 -2.13738e-17)
(0.0110689 -0.0776572 0)
(0.0447488 -0.00171526 2.38884e-17)
(0.00718677 0.0508249 0)
(0.0820938 0.0260292 0)
(0.0607894 0.0180492 8.84145e-18)
(0.0713564 -0.00473008 -3.08796e-17)
(-0.0232017 -0.0268444 0)
(-0.0305989 -0.0859244 0)
(0.0381683 -0.0121212 1.08863e-17)
(0.0947556 0.00236337 0)
(0.0511496 0.0560114 -3.2574e-17)
(0.00634799 -0.0232704 0)
(0.0436146 -0.0760146 0)
(-0.0548728 -0.0417076 1.91924e-17)
(-0.104215 -0.0119521 2.2648e-17)
(-0.113742 0.0104802 -1.88633e-17)
(-0.128578 0.0552194 -2.49011e-18)
(-0.115067 0.0765018 -5.44625e-21)
(-0.0621008 0.0363959 1.20961e-17)
(0.0463768 0.159136 0)
(0.0382316 -0.123331 -2.34226e-17)
(0.0528607 0.0204453 -2.25366e-17)
(0.0352513 -0.123577 0)
(0.0566961 -0.0329853 7.79432e-19)
(0.0480265 -0.138771 0)
(0.00327561 -0.0178304 -1.421e-17)
(-0.0298263 -0.0330559 0)
(0.0339584 -0.0655898 -2.77809e-17)
(0.0422375 -0.140635 -7.24003e-22)
(-0.0457054 -0.11567 -1.39148e-17)
(0.0174689 -0.00695445 0)
(0.0830812 0.0443763 -1.11876e-17)
(0.0709291 0.121908 2.24616e-17)
(0.0518492 0.141783 3.20805e-17)
(0.0555562 -0.154157 1.0528e-17)
(0.0659031 0.113185 4.32906e-17)
(0.0626224 -0.151829 -1.05581e-17)
(-0.0411289 -0.0364192 -1.348e-17)
(0.0505901 0.0683878 -2.06643e-17)
(0.0707665 0.114895 1.13708e-17)
(-6.68909e-05 -0.11132 -1.0053e-17)
(0.0684868 0.109733 0)
(-0.0434826 -0.0756503 3.603e-17)
(-0.129747 0.0407232 -2.60531e-17)
(-0.0201244 -0.158644 1.97466e-17)
(-0.027815 0.0599703 0)
(0.00194376 -0.121768 1.0213e-17)
(0.0709741 0.10529 0)
(-0.00266028 0.0042156 -2.42328e-17)
(-0.0327605 0.012413 2.28562e-17)
(-0.0372441 0.0183615 0)
(-0.0446146 0.0186024 2.25767e-17)
(0.0675928 0.124819 -4.96697e-17)
(-0.0492155 -0.206444 -1.90862e-17)
(-0.0320571 -0.132353 1.90282e-17)
(0.068163 0.115512 -1.10365e-17)
(0.0146823 -0.123834 -4.18535e-22)
(0.0335033 -0.0862385 1.73326e-17)
(0.0578462 0.119856 1.05397e-17)
(0.0688042 0.0936847 0)
(0.019333 -0.159572 1.69929e-21)
(0.0557905 0.144436 -2.63436e-17)
(0.079867 0.099943 2.21063e-17)
(0.0672397 0.111263 2.18742e-17)
(0.0678487 0.10731 -2.38368e-21)
(0.0306121 -0.168268 0)
(0.00622221 -0.154786 -2.07223e-17)
(0.0716792 -0.16391 0)
(0.0143255 -0.144714 0)
(-0.00718447 0.0607889 -2.16696e-17)
(0.00933939 0.0294868 2.20565e-17)
(0.0609104 0.117129 -1.55249e-17)
(0.0466272 -0.169301 -2.12428e-17)
(-0.0572976 0.102614 3.16357e-17)
(0.0653305 0.0990439 0)
(0.0237201 0.0214144 -2.02739e-17)
(0.064572 0.122575 -3.88586e-17)
(0.00737206 0.0132201 2.13612e-17)
(-0.0223118 0.0725909 -1.14101e-17)
(0.0316903 -0.167072 -1.06943e-17)
(0.0213433 -0.114033 -6.34181e-22)
(0.0757833 0.100949 -2.29423e-17)
(0.0456714 -0.173734 2.13502e-17)
(0.0618644 0.0905057 -2.09009e-17)
(0.0688553 0.109114 2.16472e-17)
(0.0701598 0.106644 0)
(0.0376263 -0.0654944 -5.2442e-18)
(0.0735457 -0.175833 1.05225e-17)
(0.0313248 -0.0975172 -1.19563e-17)
(0.0412251 -0.112663 -2.11375e-17)
(0.0665377 0.099369 -2.17005e-17)
(0.0640951 -0.164861 1.05919e-17)
(0.023512 -0.154335 -1.14973e-17)
(0.0629969 -0.173457 -2.12577e-17)
(0.0636848 0.0982541 5.34312e-18)
(0.0631213 0.115883 -5.46865e-18)
(0.00747105 0.00335201 -1.99649e-17)
(0.0665157 0.110976 0)
(0.0636733 0.0896696 1.61369e-17)
(0.0591389 -0.126929 2.09815e-17)
(0.0198019 -0.134155 2.33157e-17)
(0.0683304 -0.174363 0)
(0.0790986 -0.159597 0)
(0.0866508 0.102561 -1.08e-17)
(0.0285046 -0.0864223 1.19116e-17)
(0.0162504 -0.16122 -1.04707e-17)
(0.088474 0.0975959 1.06183e-17)
(0.0609868 0.113336 -2.6696e-17)
(0.073083 -0.139305 -5.54388e-18)
(0.0475954 -0.149005 1.10285e-17)
(0.0367471 -0.0636222 0)
(0.0434557 -0.102286 0)
(0.0959522 -0.160846 0)
(0.0446137 0.0582976 2.04884e-17)
(0.0824152 -0.168704 1.07142e-17)
(0.0828773 -0.155657 2.02742e-17)
(0.0593982 0.129965 -1.99343e-17)
(-0.0240655 0.0218494 2.3326e-17)
(0.0584174 0.12369 -1.05045e-17)
(0.0666643 0.118447 2.20622e-17)
(0.0838228 0.0940153 -2.19947e-17)
(-0.0797174 -0.131389 0)
(0.106483 -0.115093 0)
(0.0668198 0.112425 -1.08773e-17)
(-0.168235 0.196992 -2.18559e-17)
(0.0576869 -0.121041 0)
(-0.0960976 0.0924087 -1.81071e-18)
(-0.112297 0.12103 2.23765e-17)
(0.116107 -0.133021 0)
(0.109105 0.0897616 4.24611e-17)
(0.129705 0.026628 -2.10425e-17)
(0.10286 -0.138927 3.15533e-17)
(0.112346 -0.157133 2.09325e-17)
(0.0723418 -0.12789 5.43177e-18)
(0.0890378 -0.142141 5.39929e-18)
(0.104249 0.0926277 -2.15354e-17)
(0.0336173 0.00222318 2.53648e-17)
(0.082111 0.0861212 -9.83465e-18)
(0.102764 -0.114177 2.36669e-17)
(0.0761045 -0.0813824 6.0088e-18)
(0.0376615 0.0423133 -1.95759e-17)
(0.138562 0.0132374 0)
(0.149445 0.0219363 1.09056e-17)
(0.159465 0.00569927 1.01324e-17)
(0.142755 0.0366074 0)
(0.135644 0.0594771 0)
(0.0977604 -0.124591 -1.07947e-17)
(0.185833 -0.0264965 -4.88561e-18)
(0.178655 -0.0559555 -3.39107e-17)
(0.122531 0.0615777 -3.39895e-17)
(0.0863879 -0.175626 1.04977e-17)
(0.167991 -0.0852514 -3.35798e-17)
(-0.0450585 0.0110648 0)
(-0.0306524 -0.00592095 -9.88602e-18)
(-0.000261512 -0.00465482 2.08456e-17)
(-0.0342659 0.0553768 1.6548e-17)
(-0.0312373 -0.0206296 -2.57121e-21)
(-0.0480425 0.0251783 -2.94463e-18)
(-0.0344598 0.00786127 -2.06174e-17)
(0.14335 -0.128793 -1.19382e-21)
(-0.0173908 -0.0191944 3.34704e-17)
(-0.0430023 0.0479271 -2.23849e-17)
(-0.0375191 0.0119678 3.98198e-21)
(-0.0349761 -0.0199127 -5.86089e-18)
(-0.0403624 0.0236379 0)
(-0.0366989 -0.0214623 -6.05419e-18)
(-0.0106548 -0.0205603 0)
(-0.0406177 0.0640826 2.34416e-17)
(-0.0437801 -0.0066239 -4.23523e-17)
(0.00853865 0.00617822 -2.6732e-17)
(0.0927119 0.0912999 -2.18397e-17)
(-0.0245508 -0.0196172 0)
(0.123777 -0.138834 -1.08694e-17)
(0.162993 -0.119053 0)
(-0.03919 0.0356352 0)
(0.0961637 0.0776673 -4.26007e-17)
(0.102202 -0.146866 -1.85402e-17)
(0.146059 -0.122703 1.05633e-17)
(0.18216 -0.0344945 -1.91587e-17)
(0.123518 -0.103502 0)
(0.102839 0.0778398 2.13065e-17)
(0.174043 -0.0647374 1.20958e-17)
(0.00337391 0.0139851 -6.33155e-19)
(0.0445554 0.0441367 0)
(-0.22487 0.177442 -2.06483e-17)
(0.0832306 0.0496414 3.13481e-17)
(0.125999 0.0417343 -2.13349e-17)
(0.165345 -0.0941839 -5.49859e-18)
(0.0914299 0.0640073 -5.32305e-17)
(0.170952 0.0360852 -2.15749e-17)
(0.0653748 0.065876 0)
(0.165403 0.0495805 2.19609e-17)
(0.158793 -0.12871 2.10401e-17)
(0.107334 -0.164971 2.09196e-17)
(0.177833 0.0221019 -1.06063e-17)
(0.0818964 0.0624972 2.13368e-17)
(0.185463 0.0066386 5.66583e-21)
(0.140514 -0.139657 -5.34951e-17)
(0.195622 -0.0100503 -1.11296e-17)
(0.0246543 0.0293201 -1.91426e-17)
(0.108152 -0.0993071 0)
(0.160138 0.0622578 2.1604e-17)
(0.121801 -0.150819 0)
(0.155941 0.0742329 1.06013e-17)
(0.149673 0.0514721 2.13313e-17)
(0.201186 -0.0278502 2.70754e-17)
(0.151294 -0.0843338 0)
(0.135283 -0.0357615 -2.99117e-18)
(0.099326 -0.15737 1.78779e-17)
(0.194713 -0.0560477 -2.13885e-17)
(0.158756 -0.0306291 1.12044e-17)
(0.129689 -0.0610316 -1.07881e-17)
(-0.151553 -0.0893443 4.87971e-17)
(0.184884 -0.0857707 3.18028e-17)
(0.118508 0.0339254 -5.55701e-18)
(0.0682735 -0.00220897 0)
(0.0679456 0.0493479 2.11139e-17)
(-0.167457 -0.0698228 -1.059e-17)
(0.174566 -0.116592 -2.03955e-17)
(0.125418 0.0738092 1.07362e-17)
(0.182206 0.0300482 1.06198e-17)
(0.134716 0.0714811 1.07473e-17)
(0.17572 0.0437521 2.20038e-17)
(0.112582 -0.16684 1.03229e-17)
(0.190221 0.0144454 1.05739e-17)
(-0.0594166 -0.15019 2.40195e-17)
(-0.0858757 0.136031 0)
(-0.204125 -0.00737517 2.12019e-17)
(-0.185377 0.118423 0)
(-0.133134 -0.0964487 5.31457e-18)
(0.198346 -0.00194138 3.33545e-17)
(0.199336 -0.0477444 4.21584e-17)
(0.1736 -0.049576 3.26424e-18)
(0.169084 0.0570384 -4.38909e-17)
(0.203067 -0.0196405 -4.46214e-17)
(-0.183232 -0.0483379 -1.0802e-17)
(-0.207476 0.0752239 -5.35721e-18)
(0.105307 -0.083427 0)
(0.168638 -0.0156896 2.18624e-17)
(-0.21426 0.0145107 5.65309e-18)
(0.148422 -0.105872 0)
(0.161408 -0.0720559 2.08885e-17)
(-0.196597 -0.0299345 5.5267e-18)
(-0.11081 -0.108001 1.10141e-17)
(-0.199912 0.0961564 -1.36785e-18)
(-0.209407 0.0469796 -9.46443e-18)
(0.165653 -0.135059 -3.13018e-17)
(0.128129 -0.0305266 0)
(0.126665 -0.0677799 1.0024e-17)
(0.189475 -0.076737 0)
(0.127746 0.0860375 0)
(-0.0463073 0.00356136 0)
(0.16284 0.068545 0)
(0.181102 -0.108407 1.04713e-17)
(-0.143212 0.148356 3.15511e-17)
(-0.0938295 -0.121458 -2.29918e-17)
(0.18667 -0.0386116 1.05882e-17)
(0.172107 -0.0933466 0)
(0.205859 -0.0374648 3.17318e-17)
(0.202878 -0.0662693 0)
(0.123904 -0.163817 -1.05328e-17)
(0.132037 -0.158052 1.05565e-17)
(0.174115 -0.111306 1.0453e-17)
(0.127507 0.0952937 2.13095e-17)
(0.177419 -0.121073 1.04468e-17)
(0.142763 -0.0871899 2.20205e-17)
(0.194442 -0.0959918 -4.21402e-17)
(0.121192 -0.0874387 0)
(0.151773 -0.136323 -1.04168e-17)
(0.198111 -0.074291 2.10667e-17)
(0.203674 -0.0460206 -2.11224e-17)
(0.134849 0.0823577 0)
(0.108425 0.0388989 2.2299e-17)
(0.197744 -0.0256237 2.12934e-17)
(0.131583 -0.0125805 -3.95429e-17)
(0.0888881 -0.0213677 0)
(0.202816 -0.0177352 2.12837e-17)
(0.154244 -0.025113 0)
(0.136847 0.0563018 0)
(-0.103348 0.0838713 0)
(0.159966 -0.104039 0)
(0.199005 0.0140953 3.17292e-17)
(0.15904 -0.121349 0)
(0.187204 -0.103639 1.05683e-17)
(0.176161 -0.021168 -2.232e-17)
(0.16809 -0.127039 1.04203e-17)
(0.164292 -0.0657664 -1.93456e-17)
(0.186428 0.043389 -2.1301e-17)
(0.183772 -0.00880202 0)
(0.124552 -0.158691 -2.09651e-17)
(0.19867 -0.0328671 -3.17434e-17)
(0.156254 0.078596 0)
(0.150392 0.0733868 0)
(0.183351 -0.105145 0)
(0.149738 -0.147278 2.0952e-17)
(0.170716 0.0668641 6.12366e-21)
(0.122902 0.0585088 -5.62836e-21)
(0.11473 0.0457251 -2.2036e-17)
(0.156512 -0.140969 0)
(0.160758 0.0751841 0)
(0.132842 0.0916868 0)
(0.150853 0.0841613 0)
(0.133787 0.00916608 0)
(0.141285 -0.153183 -1.04941e-17)
(0.138436 0.0636785 -2.16684e-17)
(0.20232 -0.00215158 3.18076e-17)
(0.19318 0.029378 -1.0615e-17)
(0.0122666 0.0124284 2.1696e-17)
(0.162586 0.0677992 -1.05895e-17)
(0.107938 0.102453 1.08343e-17)
(0.152289 0.0599487 -1.06362e-17)
(0.123852 -0.121408 0)
(0.200703 -0.0102299 -2.12651e-17)
(0.200262 0.00489867 -4.22241e-17)
(0.124466 0.0881846 0)
(0.196227 0.0202792 -2.11596e-17)
(0.18208 0.0318456 -2.15409e-17)
(0.189713 0.03464 0)
(0.202796 -0.0521135 0)
(0.12852 0.0974606 6.08713e-21)
(0.0864612 0.0848857 9.75622e-18)
(0.192336 -0.0882097 0)
(0.164499 0.0529878 -3.18654e-17)
(0.199769 -0.0597101 0)
(0.112255 0.0997139 0)
(0.0929938 -0.173503 -2.07995e-17)
(0.123804 0.100801 -2.131e-17)
(0.178999 0.0559852 0)
(0.133394 0.0934545 -2.12757e-17)
(0.198951 -0.0810638 -1.05366e-17)
(0.14365 0.0908349 2.12381e-17)
(0.189513 -0.0468142 -2.16624e-17)
(0.181943 0.0476996 2.12809e-17)
(0.179912 -0.0872548 0)
(0.120401 0.0908686 -1.0652e-17)
(0.104165 0.0692766 -3.77297e-17)
(0.148353 0.0799133 0)
(0.118602 0.0782411 0)
(0.172933 0.0588789 3.17872e-17)
(0.105085 -0.171595 -2.04548e-17)
(0.0931375 0.0972798 0)
(0.137531 0.0891623 2.12732e-17)
(0.080436 0.0954102 4.50859e-17)
(0.148013 0.08586 -2.12307e-17)
(0.139852 -0.14892 0)
(0.124227 0.0644548 4.52962e-17)
(0.119934 0.0986284 1.06398e-17)
(0.139029 -0.137512 0)
(0.102287 0.102266 2.1347e-17)
(0.137912 0.035128 -1.16683e-17)
(0.0884173 0.105873 0)
(0.174545 0.0431575 0)
(0.14806 0.0174778 0)
(0.0862224 0.0971178 1.88111e-17)
(0.148398 0.00929928 -1.02608e-17)
(0.18362 -0.0709397 -2.5718e-17)
(0.115276 0.100734 0)
(0.0962905 0.0903537 1.09774e-17)
(0.109439 0.104076 -2.13217e-17)
(0.100264 0.0716697 3.60071e-17)
(0.127338 -0.149049 0)
(0.0921272 0.0796958 -9.27493e-18)
(0.104031 0.0955136 0)
(0.175944 0.0223957 0)
(0.0738347 0.0893219 0)
(0.169988 -0.0533108 0)
(0.160957 0.0437863 1.06692e-17)
(0.186558 0.0189173 0)
(0.10874 0.0948923 0)
(0.177683 0.00971058 -1.06981e-17)
(0.175102 -0.00339947 -1.05173e-17)
(0.134133 0.0804273 0)
(0.0926192 0.105929 0)
(0.13641 0.0751404 0)
(0.186903 0.0051125 4.22538e-17)
(0.170051 0.0338953 3.22013e-17)
(0.119898 0.0744361 0)
(0.186085 -0.0631723 1.81908e-17)
(0.0693702 0.110597 -2.16468e-17)
(0.105006 0.105946 2.13278e-17)
(0.0832773 0.107023 -2.14358e-17)
(0.0524296 0.0754335 4.00083e-21)
(0.096373 0.0783489 0)
(0.0893732 -0.166951 0)
(0.0646057 0.11131 2.07845e-17)
(-0.00363701 -0.129758 0)
(0.109196 0.0846234 0)
(0.0902203 0.0960062 -1.90018e-17)
(0.085837 -0.128828 -2.6629e-17)
(0.0740533 0.0942398 0)
(0.0643134 0.0940029 -2.14033e-17)
(0.10643 0.0863486 0)
(0.0954708 0.104536 -2.13631e-17)
(0.0715681 0.0987581 -1.07235e-17)
(0.0709105 0.101679 4.28944e-17)
(0.0917162 0.105887 0)
(0.0976794 0.102534 -2.13302e-17)
(0.0737886 0.10822 1.07832e-17)
(0.0829667 0.102763 0)
(0.0633538 0.118055 2.70507e-17)
(0.0804235 0.104659 -1.07178e-17)
(0.0731953 0.108209 -2.15258e-17)
(0.106692 0.0556924 -1.99752e-17)
(0.0607967 0.121752 -1.08872e-17)
(0.104728 0.0604007 0)
(0.0823246 0.102718 -2.16232e-17)
(0.0559522 -0.172909 0)
(0.000543659 -0.152245 3.12257e-17)
(0.0800995 0.10749 3.2193e-17)
(0.0696736 0.108943 2.15851e-17)
(0.0481939 0.068153 4.32689e-17)
(0.0579703 0.0798047 -1.1423e-17)
(0.0260625 0.0360035 -2.189e-17)
(0.0708765 0.106254 0)
(0.0327969 -0.0929785 0)
(0.0706945 0.109113 -2.16116e-17)
(0.0621535 0.124041 4.50374e-17)
(0.0592358 0.0843973 0)
(0.0754271 0.107012 -3.22228e-17)
(0.0314875 -0.149906 5.31051e-22)
(0.0670243 0.113758 1.09091e-17)
(0.0744709 0.10472 0)
(0.0761714 0.106129 1.09366e-17)
(0.0684408 0.105371 -3.24618e-17)
(0.0578166 0.100433 0)
(-0.01393 -0.140626 2.41338e-17)
(0.0742933 0.15168 -4.65724e-17)
(0.00548812 -0.0897489 0)
(0.0798172 0.105895 0)
(0.0523142 -0.166971 -2.10708e-17)
(0.0412881 -0.164108 0)
(0.0645955 0.106837 2.16173e-17)
(0.0816083 0.14271 6.26291e-19)
(0.0291143 -0.110037 -2.31345e-17)
(0.06493 0.116715 -2.1914e-17)
(0.0788416 -0.0651848 -1.74653e-17)
(0.0399202 -0.154631 2.11772e-17)
(-0.00977096 -0.0966162 0)
(0.0859306 0.118843 0)
(0.0805811 0.0629785 7.43699e-17)
(-0.0237884 -0.0729733 -4.73054e-17)
(0.0577281 -0.0424349 -4.75227e-17)
(0.0202855 -0.00176175 0)
(0.0648718 0.160138 2.31505e-17)
(0.0273052 -0.131155 -3.30769e-17)
(0.0326071 -0.136871 3.32799e-17)
(-0.033564 -0.0470159 0)
(0.0132056 -0.146277 -2.38661e-17)
(0.054439 0.178346 -7.15118e-17)
(0.0205003 -0.052439 -2.21393e-17)
(0.0379228 0.0528835 -6.99974e-22)
(0.0738194 0.142418 2.01313e-17)
(0.0308552 -0.117953 -2.27303e-17)
(0.0231047 0.0327761 1.11887e-17)
(0.0809896 0.129474 0)
(0.0581891 0.0669101 -2.54682e-17)
(0.0652808 0.148683 5.23362e-17)
(0.0823099 0.099426 -2.50265e-17)
(0.0668231 0.0287678 -2.36484e-21)
(0.0308214 -0.0164552 3.49146e-17)
(0.118083 -0.00638344 -3.97258e-21)
(0.123421 -0.0217874 4.19281e-17)
(0.129815 0.00301248 1.52549e-17)
(0.0146218 -0.150922 0)
(-0.0566725 -0.0598829 2.37361e-17)
(0.0342895 -0.0816744 0)
(0.0853183 0.0237003 -1.41218e-17)
(0.0568768 0.162134 -7.49851e-19)
(0.0160047 -0.00142052 0)
(0.0524539 0.157537 6.89279e-19)
(0.0653885 0.130384 2.40966e-17)
(0.00473403 -0.193109 -2.7765e-17)
(-0.0609225 -0.00391239 -6.68351e-18)
(-0.0703562 -0.0682577 5.6423e-18)
(-0.0242281 0.0141932 3.31101e-17)
(0.0801345 0.017514 2.48783e-17)
(0.090459 0.0455706 -2.6457e-17)
(-0.162498 0.0488329 2.03981e-17)
(0.0287001 -0.141823 0)
(0.0493034 -0.0141566 1.24281e-17)
(0.103164 0.014708 0)
(0.0378314 0.0074228 2.0112e-17)
(0.0312517 -0.101171 0)
(-0.0631994 -0.0891825 -4.74943e-17)
(0.00350195 0.0192278 -2.57805e-17)
(0.143913 -0.00104781 -2.07725e-17)
(-0.0357128 0.051284 -1.77453e-17)
(0.113725 -0.0345368 0)
(-0.0255182 0.0183581 1.17727e-18)
(0.047441 0.0110352 0)
(0.102189 -0.0436433 -3.68568e-17)
(0.0523515 -0.011085 -1.75237e-17)
(0.062901 -0.0249245 -6.14928e-18)
(-0.0372477 0.0576899 4.50903e-17)
(0.0185766 -0.0397769 0)
(0.030668 -0.100605 1.94229e-17)
(0.046895 0.0548988 0)
(0.0489593 -0.029479 -3.34869e-17)
(0.0174484 -0.075896 -2.5171e-17)
(0.0832941 0.0363599 2.36922e-17)
(0.134135 0.018468 0)
(0.1305 0.0271652 -6.14659e-18)
(0.0548965 0.127166 0)
(-0.0469651 -0.0626158 2.35229e-17)
(-0.0498887 -0.0785508 7.43425e-19)
(0.0285673 -0.0578702 4.96871e-17)
(0.0318208 -0.157728 0)
(-0.0237896 -0.0860575 2.16042e-17)
(-0.0381146 -0.0763271 2.30828e-17)
(-0.00276548 -0.0844278 1.21846e-17)
(0.00823447 -0.0385962 2.43769e-21)
(-0.00121251 0.0171112 -3.25879e-17)
(0.062673 0.132222 0)
(0.0957653 -0.09813 0)
(0.0232424 0.078619 -1.19761e-17)
(0.0597051 0.0327347 2.43492e-17)
(0.0219196 0.0664684 0)
(-0.00961311 0.0752432 1.15353e-17)
(0.0239202 0.0569895 -1.99624e-17)
(-0.021815 0.0795361 0)
(0.00951516 -0.104924 0)
(0.0114155 0.0415442 6.38976e-22)
(0.00912628 0.0240339 2.07503e-17)
(-0.0186305 0.0671056 1.12735e-17)
(0.0272817 -0.0968916 -1.18501e-17)
(0.150987 -0.060002 0)
(0.0719265 0.0987028 2.34541e-17)
(0.0817924 -0.121258 -1.18579e-17)
(0.00280377 -0.00145419 -1.17905e-17)
(-0.00615478 -0.00206776 0)
(-0.00827496 -0.006452 0)
(-0.0134218 -0.000876158 1.0521e-17)
(0.0172459 0.0219459 -2.27067e-17)
(-0.02075 -0.02636 0)
(-0.00626495 -0.00343748 1.97217e-17)
(-0.0408684 0.0232428 0)
(0.00299177 0.0013481 1.16713e-17)
(-0.0399975 0.0501621 -2.22057e-17)
(-0.0135418 -0.00860261 3.00445e-18)
(-0.0195987 -0.00693436 1.80437e-17)
(0.012542 0.012427 -2.40291e-17)
(0.00750661 0.00577168 -2.4259e-17)
(-0.0443839 0.0571696 0)
(-0.00433611 -0.00379386 2.20691e-17)
(-0.0221806 -0.0196189 0)
(-0.0322104 -0.0194521 -2.83753e-18)
(-0.0320193 -0.00955164 0)
(-0.00517204 -0.0147991 0)
(-0.0147406 -0.0235787 -1.17248e-17)
(-0.0439395 0.0290728 -2.19539e-21)
(-0.04439 0.0486021 0)
(-0.026183 -0.0187028 -1.86052e-17)
(0.138445 -0.00904624 -1.24516e-17)
(0.0902739 0.0700933 -2.30076e-17)
(-0.0309404 0.0163096 0)
(0.0068894 -0.0677821 -2.29517e-21)
(0.0752229 0.0917986 -3.75792e-17)
(-0.00763693 0.000340746 -2.74694e-17)
(-0.0654491 -0.060478 0)
(-0.036851 0.0332343 -4.5289e-17)
(0.068172 0.0999223 -1.14549e-17)
(0.0561041 0.132663 0)
(0.092901 0.0593096 2.3236e-17)
(-0.0127378 -0.128704 -1.2856e-17)
(0.0599181 0.0919737 2.60965e-17)
(-0.0468482 0.029849 2.29461e-17)
(0.0581304 0.0635964 1.248e-17)
(0.0813969 0.0844577 3.63965e-17)
(-0.11848 -0.0594751 1.29864e-17)
(0.0995442 -0.0693538 0)
(-0.0390292 0.0195461 -4.51966e-17)
(-0.0342226 0.015382 -5.52904e-18)
(0.0326919 -0.0454944 3.46146e-17)
(-0.0141827 -0.0850565 -2.40095e-17)
(0.154911 -0.033538 -3.90429e-17)
(-0.0958401 -0.0381421 1.9303e-17)
(0.0750652 0.13129 -3.19224e-17)
(-0.0451201 -0.0957086 6.08794e-18)
(0.12633 0.038696 2.35854e-17)
(0.124447 0.0499422 -3.54567e-17)
(0.103551 0.0476029 4.93691e-17)
(-0.107669 0.0932242 0)
(-0.00314216 -0.147276 -2.49744e-17)
(0.0207033 0.0376518 4.00846e-17)
(0.0287279 -0.0347515 -2.30397e-17)
(-0.00474659 -0.132175 1.35547e-17)
(-0.0165364 0.00517379 -6.20214e-18)
(0.0112142 0.0553878 0)
(0.146187 0.0281251 -1.18953e-17)
(0.0643761 -0.138689 -2.49797e-17)
(0.0618251 -0.0750773 2.32631e-17)
(-0.0231909 -0.133088 1.50363e-17)
(0.00563038 0.00903169 -2.58934e-17)
(0.0251036 -0.0781068 1.3469e-17)
(0.0895513 0.0133737 -1.9076e-17)
(0.0295928 -0.077123 0)
(0.0656426 0.0670407 4.40403e-17)
(0.0833574 -0.0181306 -2.39934e-17)
(0.109847 -0.0143848 3.04683e-17)
(-0.0479894 0.0193966 2.88597e-17)
(0.173753 -0.0189916 6.05897e-18)
(0.15694 -0.00104137 -1.29631e-17)
(-0.0401703 -0.00730821 -2.69566e-17)
(-0.0274204 0.0038049 2.56876e-17)
(0.0551076 0.0716172 0)
(-0.00445602 -0.00589381 0)
(0.00181723 -0.0834494 -2.64051e-17)
(-0.0224066 0.0170339 -1.2922e-17)
(-0.0118105 -0.170883 -2.59385e-17)
(-0.00589756 -0.0907283 -5.69071e-21)
(0.00881886 -0.0168864 1.18469e-17)
(-0.0389466 0.0247966 -2.38762e-17)
(-0.0121646 -0.00913393 0)
(0.002381 -0.237222 0)
(-0.00631244 0.00056116 4.35833e-17)
(0.00532922 0.0694539 -4.35772e-17)
(-0.0477471 0.0386206 -1.20772e-17)
(0.06262 0.0669908 1.41829e-17)
(-0.00591974 0.0522721 2.43076e-17)
(0.0408939 0.129167 2.83281e-17)
(0.0724603 0.0280736 0)
(0.0896755 0.0672111 0)
(0.0486379 0.0211115 -1.26296e-17)
(0.0295956 0.137819 1.48487e-17)
(0.0829281 0.0777666 -1.15104e-17)
(-0.0280706 0.0832216 -1.85884e-17)
(0.0186983 -0.0259812 1.24828e-17)
(0.0407641 -0.00157224 -3.11974e-18)
(0.027409 0.000844863 -4.30792e-17)
(0.0615624 0.146105 -3.04107e-17)
(0.0497828 -0.0408164 7.26093e-18)
(0.0729266 0.0843816 3.11337e-17)
(-0.0562589 0.00807531 -1.69949e-21)
(0.120963 -0.10659 2.14595e-17)
(-0.044604 -0.00532152 2.52971e-17)
(0.0687066 0.0380974 -1.22413e-17)
(0.0474088 0.133582 -4.13237e-17)
(0.0291869 -0.0356344 2.63371e-17)
(-0.0406725 0.0237932 -1.24638e-17)
(-0.0431873 0.00907537 -2.49273e-17)
(0.0621235 -0.0644306 2.15544e-17)
(0.0517258 0.0721659 -2.98933e-18)
(-0.0461522 0.041317 6.07982e-18)
(0.020685 0.0450188 5.52624e-18)
(-0.0417371 -0.00940725 0)
(-0.0280757 -0.00989065 8.35924e-18)
(0.0632493 0.141155 1.35454e-17)
(-0.0408133 0.0244665 2.94067e-17)
(0.0823629 0.099689 0)
(0.0346506 -0.00765768 -5.2027e-18)
(0.147832 -0.0692046 2.94523e-17)
(0.0954366 -0.024868 1.65075e-17)
(0.0577121 0.0231013 0)
(0.00181605 0.0345399 -2.55015e-17)
(0.0800615 -0.106002 1.3423e-17)
(-0.0532181 -0.000570672 -3.44799e-18)
(0.0805051 0.116023 -1.80339e-18)
(0.00872405 0.0312479 6.63311e-18)
(0.0126246 0.0106915 2.80238e-17)
(0.0441648 -0.0471634 0)
(0.0912564 -0.0410243 0)
(0.06593 -0.0699713 0)
(0.00996191 0.0153981 -1.46985e-17)
(0.0834603 0.0750768 0)
(0.0101012 0.0175458 2.42382e-17)
(0.0197139 -0.105396 -1.38797e-17)
(0.00543041 -0.0118157 -1.42928e-17)
(0.0560121 0.00268384 0)
(0.124666 -0.0388918 -7.28188e-18)
(0.0520275 0.0376119 0)
(-0.0228718 0.0110001 8.25562e-19)
(-0.0264258 -0.227642 1.37717e-17)
(-0.0437666 0.050042 2.00844e-17)
(-0.0262252 -0.0601991 0)
(-0.00779872 0.00410705 2.6186e-17)
(0.0657468 0.0617182 0)
(0.0709638 0.0421177 0)
(-0.0588652 -0.0911675 1.73964e-18)
(0.0854819 -0.0149762 -2.56365e-17)
(-0.037399 0.0741645 -1.48388e-18)
(0.023676 -0.0143997 0)
(-0.0236311 0.00661488 5.08369e-17)
(0.0386186 -0.021639 1.44848e-18)
(0.0221573 0.093689 -1.28729e-17)
(-0.0347504 0.0310247 0)
(0.09155 0.0553021 -1.12974e-17)
(-0.0452546 -0.0170066 -3.05053e-17)
(0.0405536 -0.0278882 2.81069e-17)
(0.0742784 0.082785 1.35255e-17)
(-0.0295001 -0.0304316 1.23211e-17)
(0.0863593 0.0832317 -1.34321e-17)
(-0.00409633 0.0630052 -2.67399e-17)
(0.111272 -0.0690312 -2.53767e-17)
(0.0499511 0.027859 0)
(0.109685 -0.0521473 1.79332e-17)
(-0.00811229 -0.105497 6.15248e-18)
(0.153217 -0.042177 2.39837e-17)
(0.0513442 0.136201 6.56223e-18)
(0.0589248 0.137066 0)
(0.0756239 -0.0456191 2.36797e-17)
(0.119444 -0.0693208 3.81476e-17)
(0.0671388 0.00456207 0)
(0.0195711 -0.0991196 3.91609e-18)
(-0.0313632 0.0678648 -1.75297e-17)
(0.0488023 0.00637849 0)
(-0.0658407 -0.0785787 -1.65774e-18)
(0.0605879 0.0386256 -2.42309e-17)
(0.0986959 0.0414368 -5.4886e-21)
(0.140245 0.0483725 8.09712e-21)
(0.00906757 -0.115105 -6.33799e-18)
(0.0258998 -0.0342482 -2.88343e-17)
(0.056908 0.00555022 3.20766e-17)
(0.0757091 0.10249 5.73554e-17)
(0.0882798 0.0427235 -2.93971e-17)
(-0.0529043 0.0196073 4.23835e-17)
(-0.01327 0.00624033 6.10792e-18)
(0.00591828 0.00812915 1.4121e-17)
(0.0799173 0.127514 2.83176e-17)
(0.0652811 -0.0943843 0)
(0.0888275 -0.0536714 -3.93824e-17)
(0.0118169 -0.0227358 -2.46903e-17)
(0.0520909 0.0452731 6.91268e-18)
(0.0466471 -0.0478136 0)
(0.0755581 0.113755 -3.03923e-17)
(0.0576366 -0.0785598 -2.88041e-17)
(-0.00305095 0.0178127 0)
(-0.00710138 0.0152108 1.57647e-17)
(-0.0359276 -0.115563 1.75683e-17)
(0.0422281 -0.132296 -1.44458e-17)
(0.0754883 -0.0936749 1.75912e-18)
(0.0283891 -0.0747138 0)
(-0.00145444 -0.0852538 -6.02489e-22)
(0.0707858 0.0925823 0)
(-0.0447197 0.0449034 2.52786e-17)
(0.0497913 -0.078658 -3.58575e-18)
(-0.00259369 0.00897565 1.4994e-17)
(-0.0552505 -0.0297526 0)
(0.0282242 -0.204263 3.13282e-17)
(-0.0401719 0.0176317 2.92889e-17)
(0.0774385 -0.0679567 -7.2693e-18)
(-0.0130002 0.000946328 -2.38803e-17)
(-0.0928364 0.0792821 -4.91426e-17)
(0.0731782 0.121293 0)
(0.124662 -0.0177922 0)
(0.0599313 0.0724819 -3.07574e-17)
(0.0509219 0.0619133 3.98882e-17)
(0.124587 -0.0472677 1.25206e-17)
(0.184031 -0.00965648 1.42662e-17)
(0.0553883 -0.0917785 1.02715e-17)
(0.0372506 -0.0341407 -1.55818e-17)
(0.057472 0.148786 0)
(0.0604302 0.0816035 0)
(0.054573 -0.0775509 0)
(0.00496358 -0.144367 -1.03007e-18)
(-0.0494096 -0.0131301 1.63503e-17)
(0.108034 0.0224288 7.7443e-18)
(0.0467973 0.171777 4.11807e-17)
(0.0214567 -0.0714834 2.31803e-21)
(0.0748004 -0.0197582 3.06894e-17)
(0.0928849 -0.0508173 7.66796e-18)
(0.0222484 0.107976 7.29879e-22)
(0.0366047 0.0490217 0)
(0.0405905 -0.0531577 -2.64788e-17)
(0.0772308 0.0754035 0)
(0.071011 0.0826105 -2.72719e-17)
(0.090634 0.0143008 0)
(0.012393 -0.0125473 2.29457e-17)