/*--------------------------------*- C++ -*----------------------------------*\
  =========                 |
  \\      /  F ield         | OpenFOAM: The Open Source CFD Toolbox
   \\    /   O peration     | Website:  https://openfoam.org
    \\  /    A nd           | Version:  9
     \\/     M anipulation  |
\*---------------------------------------------------------------------------*/
FoamFile
{
    format      ascii;
    class       volScalarField;
    location    "0.86";
    object      p;
}
// * * * * * * * * * * * * * * * * * * * * * * * * * * * * * * * * * * * * * //

dimensions      [0 2 -2 0 0 0 0];

internalField   nonuniform List<scalar> 
578
(
-8.86089e-18
-2.17392e-17
-6.68352e-18
1.54591e-18
-2.15265e-17
1.40115e-17
1.89477e-17
-1.79484e-17
-1.56149e-17
-3.29265e-17
7.59485e-18
-1.79447e-17
7.28147e-19
-2.04818e-17
1.76739e-17
-1.16737e-18
-1.05079e-17
-9.67737e-18
-1.40895e-17
-1.0755e-17
1.66582e-18
4.7994e-20
4.08746e-18
6.12634e-18
5.9381e-18
-1.32092e-17
-4.26441e-19
-1.92965e-18
-1.54125e-17
-6.00539e-19
-8.68161e-19
1.57175e-17
-7.25422e-18
2.21068e-18
1.58095e-17
-7.87224e-18
-1.83866e-17
-1.70971e-17
-8.95881e-19
-2.49098e-17
-1.97507e-17
-1.58735e-17
-1.97048e-17
1.85873e-17
-5.80707e-18
2.32909e-17
1.76055e-17
-1.68556e-17
-1.05728e-18
-8.21642e-19
2.13603e-17
6.97112e-19
1.97092e-17
2.03961e-18
3.73499e-19
-8.11281e-18
3.79618e-18
2.2575e-18
-5.27251e-18
-1.16233e-17
-1.02407e-17
-1.44012e-17
-1.4192e-17
-2.2593e-17
2.40553e-19
1.71242e-17
-4.54271e-18
9.9985e-18
5.79515e-18
-1.29002e-17
2.84073e-18
1.51432e-17
3.20927e-19
-1.51298e-17
7.48041e-18
-2.39799e-17
-1.94922e-17
-1.61519e-17
3.96195e-19
1.29113e-17
1.6621e-17
-1.6847e-17
2.47939e-17
2.28322e-17
3.51233e-18
1.2729e-17
2.46416e-17
-5.25549e-18
-1.45899e-17
1.19658e-17
-3.77605e-19
8.22883e-18
1.51053e-17
1.05079e-18
7.52324e-18
1.42587e-17
3.02373e-19
3.68428e-19
-3.08904e-17
1.75948e-17
1.65289e-17
-1.4604e-17
-3.45931e-19
1.03887e-17
1.09176e-20
-2.06478e-17
8.26842e-18
-2.42634e-17
1.51904e-17
-2.15071e-17
-7.30528e-18
-1.38173e-17
-1.18389e-17
1.10672e-17
1.23021e-17
-8.74896e-20
1.32667e-18
-1.07861e-17
1.16809e-17
1.69897e-19
-1.16722e-17
3.18372e-17
-1.62189e-17
1.33456e-18
1.87872e-17
7.92293e-18
1.38918e-17
-1.04677e-18
1.44804e-17
2.11065e-18
1.47736e-17
7.02412e-18
1.08991e-18
-1.27611e-17
1.31817e-17
1.38057e-17
-2.11249e-17
-5.17109e-20
7.28049e-18
1.48839e-17
1.61403e-17
4.4405e-18
1.43527e-17
-4.28437e-18
-1.46327e-17
4.90848e-18
5.48825e-18
-1.25183e-18
-1.62607e-17
-5.55225e-20
-1.78538e-17
6.45234e-18
-2.11466e-17
-1.17657e-17
1.72317e-17
-8.05209e-19
-1.17604e-17
1.28676e-18
1.88616e-17
-1.81125e-17
-1.89413e-17
-1.84756e-17
1.70714e-17
-1.7405e-17
-7.69265e-18
4.74831e-18
-4.87469e-18
1.74349e-17
1.81275e-18
2.46204e-19
-1.59562e-17
-2.16871e-17
1.41957e-17
1.08211e-17
1.69667e-17
7.13786e-20
4.13272e-19
-1.00792e-17
-1.73647e-17
-1.29497e-17
1.86691e-17
-1.72938e-17
1.01873e-17
4.24985e-19
1.44624e-17
-8.81131e-19
-1.51404e-18
1.92657e-17
1.70369e-17
-1.88599e-17
-1.92465e-17
-1.86958e-17
6.13326e-18
1.71216e-17
-2.59229e-17
4.77643e-19
2.58339e-18
-1.7209e-18
1.64292e-17
-1.92757e-17
1.50665e-18
6.62338e-19
3.41899e-17
-6.6906e-20
2.3642e-19
-1.96299e-17
1.59264e-17
-1.30418e-18
-1.86385e-17
2.30283e-18
2.98917e-18
1.59207e-17
1.25494e-17
6.09163e-19
1.29525e-17
1.09274e-18
1.69696e-17
-1.9114e-17
1.70315e-17
6.7183e-18
-1.8946e-17
1.68383e-17
-8.46164e-18
-1.93215e-17
1.87201e-17
7.87865e-18
6.39087e-19
2.09888e-18
-1.35718e-18
-1.45412e-17
-2.94709e-17
3.26958e-17
1.21947e-17
-7.68335e-18
7.52641e-18
-1.44943e-17
-1.98079e-17
1.79537e-17
8.96252e-19
-3.14934e-18
1.80844e-17
-2.17993e-17
2.56145e-19
1.82143e-17
-1.63029e-18
-1.47295e-17
1.49891e-17
-2.86584e-17
1.2125e-17
8.85099e-19
5.06535e-19
1.06191e-17
1.7872e-17
2.20116e-18
1.62554e-17
-4.63715e-18
-1.11113e-17
1.61452e-17
-1.63266e-17
2.93133e-17
-7.12918e-18
1.86966e-17
2.60388e-18
2.91214e-18
-1.7158e-17
-1.01921e-17
5.20406e-18
-3.60414e-18
-2.3282e-17
6.23823e-18
-6.31556e-18
6.19604e-18
2.78151e-18
5.20292e-19
7.95846e-19
9.04415e-19
-5.08451e-20
3.36485e-18
1.741e-17
1.57495e-18
-2.03918e-17
4.42456e-19
5.48193e-19
6.86234e-19
9.40544e-19
1.41671e-17
-8.79989e-18
8.27619e-18
3.33709e-18
2.48003e-18
2.51106e-18
1.00654e-17
-2.10717e-19
1.57434e-17
2.31211e-18
2.72755e-18
-2.02913e-17
-2.18535e-18
-6.19575e-19
2.1987e-18
1.1049e-18
-2.63659e-18
4.95006e-19
-2.55863e-18
2.70921e-18
9.66664e-19
-2.14459e-20
-1.02189e-17
1.28171e-18
1.01496e-18
-5.58964e-18
-6.14087e-19
8.2899e-19
-2.95658e-18
2.07854e-18
6.15482e-19
9.21827e-18
-2.39159e-18
-5.30875e-18
2.07226e-18
9.69098e-18
5.04669e-19
5.66075e-19
4.24136e-18
2.48889e-19
-1.62154e-19
1.57964e-17
1.67052e-17
-1.91022e-17
-4.01969e-19
5.06311e-20
1.3731e-17
3.43921e-19
-4.82043e-21
1.17925e-17
3.01944e-18
9.61694e-19
1.78863e-19
-5.60558e-18
-2.02566e-19
6.30079e-19
6.61972e-19
-7.30064e-19
-8.0816e-18
1.77557e-18
1.56736e-17
8.77246e-18
1.36355e-17
-1.49203e-17
1.57394e-17
-1.66357e-17
-1.84695e-17
1.67893e-17
-5.15849e-18
-2.33539e-17
2.17729e-17
3.12144e-18
2.06904e-17
-2.44443e-17
2.19255e-17
1.00667e-19
-7.82434e-18
2.2104e-18
-1.18058e-17
6.92982e-19
9.30315e-19
-9.8062e-19
1.38821e-17
8.5983e-19
-1.9057e-18
-1.74619e-17
-1.55722e-17
5.93734e-18
9.32992e-18
6.02101e-18
2.33733e-17
-3.0338e-19
1.5459e-17
-1.74795e-17
-4.01811e-18
1.72698e-19
-1.78692e-17
1.6905e-17
3.75391e-18
2.37041e-18
-1.45075e-19
-6.46683e-20
2.07339e-17
1.93606e-17
-1.36719e-17
5.70353e-19
3.53641e-18
4.26082e-18
-4.86056e-18
-2.20966e-18
1.654e-18
1.47672e-17
-2.3145e-18
2.70659e-18
6.19952e-18
-5.86579e-19
1.28739e-17
-6.8831e-20
-1.07695e-17
-4.94664e-20
-2.24844e-18
9.72021e-18
-4.67705e-18
5.9347e-18
1.07906e-17
-1.46541e-18
-1.45223e-17
-7.14255e-18
8.83592e-18
-5.3115e-18
6.88709e-18
-1.55623e-17
1.37025e-17
-2.03246e-17
-6.66935e-19
1.52463e-17
9.53731e-18
-1.66178e-17
1.82828e-17
1.18195e-17
-7.86817e-18
-1.24103e-17
-1.10931e-17
-1.54468e-17
-7.37741e-18
1.08038e-17
3.89138e-18
3.21079e-18
6.03526e-19
1.04558e-17
-1.02566e-17
-1.77811e-17
-9.68032e-18
-1.03751e-17
-4.37285e-18
-8.03837e-18
1.17756e-18
1.43446e-18
-7.08718e-19
1.35037e-17
-3.25309e-18
-1.18317e-18
1.17191e-17
1.15178e-17
-3.76466e-19
1.56639e-17
-2.70283e-19
1.20035e-17
8.78727e-19
1.55092e-17
5.49572e-19
-2.0509e-17
4.80979e-18
4.44738e-18
-1.18891e-17
2.56826e-17
1.38581e-17
-9.46999e-18
-1.05344e-17
-2.93253e-18
-1.37139e-17
1.05941e-17
-2.0495e-17
-5.98015e-18
-9.89335e-18
-2.06818e-18
-2.20194e-18
1.02277e-17
-7.68337e-19
-3.17786e-18
-1.59328e-17
-1.14722e-17
-1.30802e-17
-7.27214e-18
-1.14784e-17
4.41941e-18
6.28565e-18
-5.33715e-18
-1.717e-18
-6.81634e-19
-9.29879e-18
-4.85001e-18
-5.83349e-19
-3.25418e-19
1.48587e-17
1.23035e-18
1.07843e-17
-6.17742e-18
1.19376e-18
-1.5744e-19
1.22936e-17
2.47872e-19
1.4072e-17
-4.98919e-19
1.14611e-18
-1.97657e-17
-2.54762e-18
-1.02119e-17
1.07638e-18
-1.00725e-17
-5.40712e-19
1.3825e-17
1.68892e-18
9.5161e-18
-3.32436e-19
-7.51259e-19
1.76879e-17
1.2103e-18
2.27067e-17
1.55644e-17
-4.57461e-19
-1.76619e-17
-2.39053e-17
1.16897e-17
1.02383e-18
6.23539e-18
7.49966e-18
-3.84624e-18
-1.38839e-17
-1.51693e-17
8.13758e-19
-2.54708e-18
1.79716e-18
-1.6736e-17
-1.45053e-17
-1.75522e-17
-1.73592e-17
-1.83043e-18
-8.74146e-19
1.50848e-17
1.12104e-17
1.05844e-17
1.30892e-17
1.12409e-17
-7.72271e-19
1.38466e-18
1.44547e-17
-9.69049e-18
-1.31993e-17
1.79568e-17
2.74379e-18
7.37228e-18
-1.02413e-17
-8.88114e-18
-1.22405e-17
8.96783e-18
1.68156e-17
-1.19258e-17
1.5543e-17
1.00411e-17
-5.82856e-18
-1.83218e-17
-1.54093e-18
6.93721e-19
-5.93105e-19
-3.61842e-19
1.67234e-17
-1.59174e-17
-5.76674e-19
1.22286e-18
1.0398e-17
8.38407e-19
-9.13089e-18
-3.63622e-19
1.01557e-18
1.45283e-17
-1.076e-17
1.02714e-17
-1.41786e-17
-6.19757e-18
7.09541e-18
7.76932e-18
5.34948e-18
)
;

boundaryField
{
    front
    {
        type            empty;
    }
    back
    {
        type            empty;
    }
    bottom
    {
        type            uniformFixedValue;
        uniformValue    
        {
            type            scale;
            scale           
            {
                type            squarePulse;
                start           0.3;
                duration        0.3;
            }
            xScale          
            {
                type            constant;
                value           1;
            }
            value           
            {
                type            constant;
                value           15.1;
            }
        }
        value           uniform 0;
    }
    left
    {
        type            zeroGradient;
    }
    top
    {
        type            zeroGradient;
    }
    right
    {
        type            zeroGradient;
    }
    inner_arc
    {
        type            zeroGradient;
    }
}


// ************************************************************************* //
