/*--------------------------------*- C++ -*----------------------------------*\
  =========                 |
  \\      /  F ield         | OpenFOAM: The Open Source CFD Toolbox
   \\    /   O peration     | Website:  https://openfoam.org
    \\  /    A nd           | Version:  9
     \\/     M anipulation  |
\*---------------------------------------------------------------------------*/
FoamFile
{
    format      ascii;
    class       surfaceScalarField;
    location    "0.86";
    object      phi;
}
// * * * * * * * * * * * * * * * * * * * * * * * * * * * * * * * * * * * * * //

dimensions      [0 3 -1 0 0 0 0];

internalField   nonuniform List<scalar> 
816
(
4.60497e-25
1.52037e-23
-1.56642e-23
-5.30774e-24
2.12765e-23
-1.59687e-23
-2.64644e-23
2.69249e-23
1.36268e-24
-1.85017e-24
4.8749e-25
1.49048e-23
-1.49048e-23
-8.32337e-24
1.03476e-23
-2.02425e-24
-1.55782e-23
1.55782e-23
-1.39877e-23
1.39877e-23
-3.16902e-23
9.4687e-26
3.15955e-23
3.84979e-24
-9.15751e-24
7.86192e-24
-1.61853e-23
3.70858e-23
-2.68524e-23
-1.02335e-23
5.51561e-25
-4.39094e-25
-1.12468e-25
3.58495e-23
-3.24795e-23
-3.37007e-24
-3.5408e-23
3.12509e-23
4.15711e-24
-2.72017e-23
4.47937e-23
-1.7592e-23
-1.70144e-23
-4.82236e-24
2.18368e-23
3.24108e-23
-2.62169e-24
-2.97891e-23
4.3496e-24
3.27362e-23
1.4884e-23
-4.65742e-23
2.60166e-24
-1.239e-24
3.36706e-24
-3.05688e-23
1.77876e-23
-7.47832e-24
-1.03093e-23
4.55404e-24
2.11689e-24
-6.67093e-24
5.28154e-24
-7.27508e-25
-3.04819e-23
7.45731e-24
2.30246e-23
2.08166e-24
-1.87337e-24
-2.08292e-25
6.39456e-25
-1.31054e-24
6.71089e-25
1.01976e-23
1.1079e-23
1.55977e-23
2.91959e-23
2.30547e-24
-1.66597e-24
3.12025e-24
7.2274e-24
4.73497e-23
-3.1752e-23
6.32423e-24
-4.41231e-24
-1.91192e-24
-3.49994e-24
-3.1908e-23
-7.67424e-24
3.68702e-23
3.28758e-24
3.25619e-23
-4.45792e-24
-2.6024e-23
4.61078e-23
-1.67871e-23
-2.93207e-23
9.26428e-24
5.64055e-24
-1.16171e-23
-9.63809e-24
9.52979e-24
3.14674e-23
-2.16556e-25
-1.60366e-23
-7.67828e-24
2.37149e-23
-9.35828e-24
-6.21993e-24
1.20782e-23
2.93358e-23
-2.92411e-23
1.96433e-23
6.72157e-25
1.40951e-24
-1.73277e-24
-4.57183e-25
2.18995e-24
4.62732e-25
8.88278e-26
1.29749e-23
4.81283e-24
3.72163e-24
2.60257e-24
-1.93574e-25
1.93574e-25
1.00796e-23
-3.08053e-24
-6.99905e-24
-7.47832e-24
-1.60366e-23
-3.67805e-23
1.97661e-23
1.26563e-23
-2.03305e-23
-4.36968e-24
6.0292e-24
-1.08516e-23
-1.34733e-23
1.08516e-23
-1.05103e-24
-3.14284e-23
6.9866e-25
-4.45976e-25
-2.52683e-25
3.17511e-23
-2.83691e-25
3.03285e-23
1.70212e-23
-1.31289e-23
2.09908e-23
-1.34785e-23
3.94303e-23
-2.59518e-23
7.17226e-24
2.63112e-23
-3.34835e-23
8.6919e-25
1.38748e-24
6.6932e-25
2.93258e-26
2.67713e-23
1.2908e-23
-3.96793e-23
7.39717e-24
-8.66937e-24
1.2722e-24
1.26681e-23
-1.26681e-23
-1.88067e-23
3.36907e-23
-2.54263e-23
6.61971e-24
2.30227e-25
-5.76564e-24
-9.89856e-24
1.56642e-23
-2.55489e-23
-1.01445e-23
3.56934e-23
1.52037e-23
1.15029e-23
-1.15029e-23
-1.69634e-23
1.69634e-23
-1.82846e-23
3.56348e-23
-1.73502e-23
9.12365e-24
2.8054e-24
-4.57186e-25
9.33104e-24
7.48533e-25
-7.96092e-25
-2.49238e-23
2.57199e-23
2.18229e-23
9.43398e-25
-2.27663e-23
4.32131e-25
1.30439e-23
-3.13285e-23
8.70397e-25
2.68461e-23
-2.77165e-23
1.21092e-24
-1.04351e-24
-1.67416e-25
-3.10705e-23
-3.36002e-25
2.82547e-23
-2.79187e-23
-1.64253e-25
8.10977e-26
3.8498e-24
2.50358e-24
-3.44116e-23
-3.94741e-25
3.21458e-23
-2.22087e-23
2.93809e-23
3.42286e-25
4.56886e-25
-7.99172e-25
-2.25527e-23
8.65836e-26
-8.6583e-26
-4.43551e-24
3.69975e-23
5.37294e-24
1.16171e-23
9.12365e-24
-1.17324e-24
-1.14949e-23
1.62456e-23
2.06246e-23
3.37685e-23
3.14065e-23
-3.88931e-23
7.48655e-24
5.23654e-25
-1.81375e-25
-1.37655e-24
-4.73629e-25
1.4312e-23
2.06211e-23
-3.49331e-23
-4.24949e-25
2.22479e-23
-7.76701e-26
1.64254e-25
-1.44624e-24
2.44708e-23
-1.92776e-23
2.31411e-24
6.71221e-24
2.21063e-24
3.91037e-25
-7.77472e-24
-2.87011e-23
3.11667e-23
-2.46568e-24
-4.80408e-24
-2.07448e-23
2.84307e-23
-1.99693e-23
-8.46134e-24
2.73098e-23
5.95682e-24
-3.25159e-23
1.84955e-25
3.23309e-23
-3.34585e-23
4.75738e-24
4.60607e-25
7.50302e-25
-8.08354e-24
8.08354e-24
-2.94091e-23
-3.10676e-24
-2.32093e-25
2.96065e-23
-2.93744e-23
-4.50642e-25
-2.64017e-23
-2.37323e-23
-1.51608e-23
-2.3151e-23
2.3336e-23
-4.00094e-25
8.7505e-24
-8.3504e-24
-6.14867e-24
-2.35512e-23
2.89509e-25
4.99563e-24
-5.28513e-24
-9.52979e-24
-3.39648e-25
-2.8981e-23
-3.35776e-24
-1.73947e-23
2.07525e-23
2.33489e-26
-1.74088e-25
1.50739e-25
2.97799e-23
-2.38231e-23
-3.62865e-23
-9.62189e-25
3.72487e-23
1.04802e-23
-1.04802e-23
1.26563e-23
1.41645e-24
6.66708e-24
3.50472e-24
3.31939e-23
-3.66986e-23
-2.88732e-25
9.60885e-25
-1.36759e-23
2.38734e-23
1.27702e-25
3.196e-25
-4.47302e-25
-9.89857e-24
3.26589e-24
-3.95524e-23
-2.81626e-23
8.75049e-24
-2.84493e-23
2.74871e-23
-2.85197e-24
2.85197e-24
2.64222e-23
-2.56245e-24
-2.38502e-23
2.73549e-23
-1.8057e-26
1.4576e-25
2.70644e-24
-2.87226e-24
1.65828e-25
-2.71546e-24
-2.57339e-23
9.63809e-24
-1.00887e-23
1.08457e-23
-1.10778e-23
-9.73864e-25
7.48908e-24
-6.51522e-24
5.12561e-25
-2.43628e-23
9.89814e-25
-1.2425e-24
1.29036e-24
-3.00555e-25
3.40781e-23
-1.44742e-23
1.17587e-23
-1.66128e-24
-6.74685e-25
2.33596e-24
-9.53986e-24
1.00524e-23
-6.0462e-24
2.88684e-23
-2.28223e-23
-2.15139e-23
2.43193e-23
1.52057e-24
1.08257e-24
2.85239e-23
2.33459e-26
-2.03305e-23
1.37854e-23
1.46452e-23
3.40761e-23
1.62139e-24
-3.56975e-23
-2.24405e-24
5.82818e-25
-3.38787e-23
-1.62849e-24
3.55071e-23
2.85686e-23
-1.08149e-24
2.67814e-23
5.7349e-25
9.15752e-24
-1.54682e-24
-1.10501e-24
2.65183e-24
-1.45761e-25
4.52345e-25
-3.06584e-25
1.74081e-25
-4.62815e-25
2.79511e-23
-2.84029e-23
4.51778e-25
2.75286e-23
-2.69401e-23
-5.88501e-25
-1.80459e-26
4.77046e-25
-3.4827e-24
-8.02016e-24
1.15962e-24
1.7166e-24
-2.01716e-24
1.12693e-24
-1.42327e-24
2.3524e-23
1.23343e-24
-1.86281e-23
3.82332e-23
1.88234e-24
-3.12914e-23
4.08298e-26
1.67576e-24
-2.16688e-23
3.0939e-24
-8.83291e-25
-5.28181e-24
6.51523e-24
3.10716e-23
-2.25466e-23
-1.81614e-24
-1.97414e-23
2.11579e-23
1.06772e-23
-1.17587e-23
1.06259e-23
-1.00524e-23
1.97786e-23
-2.39369e-24
-4.02474e-25
2.79617e-24
-2.24412e-24
-3.48266e-24
7.48906e-24
-5.79008e-24
-2.18355e-23
-1.44742e-23
1.06772e-23
1.06259e-23
2.95308e-25
-1.35066e-24
1.88293e-23
-1.74786e-23
-9.53983e-24
-3.49869e-24
-7.89337e-25
-4.62819e-25
-8.35041e-24
-5.82777e-25
4.43257e-24
1.08457e-23
7.11483e-25
3.91514e-24
-4.62662e-24
2.69266e-24
2.86345e-24
2.83033e-23
3.93989e-24
3.28747e-24
1.64048e-24
-5.31639e-24
3.67591e-24
2.18997e-24
2.72701e-23
-3.30602e-23
6.07866e-25
-3.68099e-23
3.65263e-23
5.31642e-24
-6.66705e-24
4.52347e-25
9.39827e-25
1.28997e-23
4.72938e-24
-1.44327e-23
3.68426e-24
3.11795e-23
4.39654e-24
-3.62817e-24
3.22572e-24
2.15281e-24
-1.02961e-24
-2.59857e-24
3.05331e-24
-2.34184e-24
-5.2818e-24
1.10777e-23
3.90535e-24
9.04993e-25
-4.81034e-24
1.00887e-23
2.88553e-24
2.14171e-24
1.08401e-24
1.76626e-24
9.26405e-25
1.30677e-24
-8.6134e-25
1.84658e-24
-1.84658e-24
2.71578e-24
-2.36625e-23
-2.84279e-23
6.1317e-25
-3.48544e-24
-1.33084e-24
1.33084e-24
-9.39828e-25
-5.98819e-24
-2.44407e-24
2.56247e-24
-1.184e-25
2.44405e-24
-1.11323e-24
4.1792e-24
2.71578e-24
-2.96507e-23
-5.76677e-24
5.09212e-24
1.328e-24
-2.3489e-24
1.02091e-24
2.63474e-24
3.67925e-24
5.11511e-25
2.57445e-24
-3.08596e-24
-5.74313e-25
1.08584e-24
-1.44489e-23
1.28997e-24
-3.63889e-24
4.25189e-24
-2.11018e-24
2.7516e-24
-1.59754e-24
-3.52038e-24
2.25302e-23
3.71877e-24
1.17294e-24
3.31541e-24
-4.48835e-24
-8.57538e-25
3.04529e-24
6.73484e-25
3.21986e-23
-4.46589e-25
3.49187e-24
-7.85634e-25
3.76089e-23
-3.77529e-24
4.44879e-24
-2.46596e-24
-1.52656e-24
3.29282e-24
4.76596e-25
5.15894e-24
-1.63298e-25
-3.72258e-24
1.61242e-24
6.07338e-24
-3.49894e-24
-1.38012e-24
1.42969e-23
-3.19584e-23
1.76615e-23
7.78596e-24
-7.78596e-24
-7.1302e-24
7.1302e-24
-8.48788e-24
8.48788e-24
8.46811e-24
-8.46811e-24
9.26428e-24
-9.35828e-24
-2.01156e-24
-4.52809e-24
6.53964e-24
1.20782e-23
-4.89091e-24
3.5108e-24
-1.18617e-23
1.18617e-23
-1.14949e-23
-1.1467e-23
1.1467e-23
-2.52478e-24
1.84647e-23
-1.594e-23
6.02919e-24
-1.18251e-24
-9.84699e-24
1.10295e-23
-7.28391e-24
7.28391e-24
-4.73419e-24
2.94583e-23
-2.47241e-23
-1.23717e-23
-3.38769e-23
6.2626e-25
-1.34733e-23
-1.28539e-23
2.57619e-23
1.00508e-23
-1.958e-23
3.52951e-23
1.29748e-23
-1.64317e-24
-7.01904e-25
1.33793e-24
1.88818e-23
2.955e-24
-4.63969e-24
-1.94118e-23
2.40515e-23
1.38251e-23
-2.41459e-23
-1.44913e-24
-1.53764e-25
8.10975e-26
-1.15103e-23
-2.04482e-23
1.79481e-23
-2.59715e-23
-4.53459e-23
1.55568e-23
-7.09017e-24
-1.74327e-23
2.45229e-23
-3.06174e-24
-4.28545e-24
-1.85454e-25
4.4709e-24
-2.75383e-23
-2.57409e-24
2.57412e-24
-3.84145e-25
-6.01756e-25
1.16807e-23
-1.05892e-26
-7.59948e-26
8.52743e-25
-2.55769e-23
-2.90136e-23
2.66856e-23
-2.37306e-23
1.09226e-23
-2.88707e-23
9.29072e-24
3.35208e-23
2.18536e-23
1.03475e-23
-4.95043e-24
-1.99733e-23
8.29791e-24
1.85482e-23
-1.44618e-23
-2.52175e-23
1.57533e-24
8.43824e-24
-2.84076e-23
-2.46953e-23
2.20833e-23
2.92466e-23
2.68251e-23
-3.18175e-23
4.99235e-24
-8.97035e-24
-2.92848e-24
-6.16681e-24
-8.3228e-25
-8.97035e-24
-6.2351e-24
-3.9413e-23
-3.51994e-24
4.29329e-23
2.36019e-24
1.0064e-23
1.36509e-23
2.49316e-27
7.86044e-26
-8.2109e-24
8.2109e-24
2.74772e-23
6.29134e-24
1.2866e-23
1.98449e-23
-2.4764e-23
-3.01924e-23
4.61553e-24
2.05381e-24
7.80215e-25
4.11363e-24
-5.2402e-24
1.12657e-24
-1.80412e-24
1.29015e-24
-1.72301e-23
3.99522e-24
-2.97445e-23
2.62245e-23
-1.22058e-24
-1.31054e-24
2.38695e-23
-1.05877e-26
-1.23283e-23
2.50605e-27
-2.20534e-23
4.0078e-24
-1.40523e-24
3.83081e-24
-1.42136e-23
3.1875e-23
4.78305e-24
-2.42082e-23
-1.07249e-23
-1.28242e-23
-9.62509e-24
-2.73484e-25
1.82403e-23
5.6331e-24
-1.68643e-24
-3.04072e-24
7.95683e-24
9.12751e-25
7.85441e-24
4.80187e-24
2.28558e-23
3.22066e-23
1.28987e-24
-5.57534e-24
6.71104e-25
-9.62509e-24
-2.96835e-25
4.47569e-25
-4.30758e-24
-2.20499e-25
2.26647e-23
1.43328e-23
-2.55261e-23
7.85443e-24
1.0064e-23
5.43231e-24
3.52002e-23
3.30643e-24
6.64056e-25
-1.97717e-23
-8.32968e-27
8.32979e-27
-2.5737e-25
3.03417e-23
8.93909e-27
-8.93916e-27
2.55827e-23
-1.51997e-25
-6.78384e-26
2.61399e-23
-8.3278e-27
8.96342e-27
3.01679e-23
-7.50325e-24
-2.14581e-23
3.66624e-24
-2.85779e-23
2.44611e-25
2.02957e-25
1.92783e-23
-1.99802e-23
-1.27594e-26
-1.98065e-24
-3.25954e-24
3.58206e-24
-2.19458e-24
1.54776e-26
-1.67474e-25
2.94677e-25
-1.77571e-23
1.76034e-23
3.55315e-24
2.78294e-24
1.43095e-24
-3.06721e-23
-1.14541e-23
3.19791e-24
2.26774e-24
2.59511e-23
3.16743e-26
-2.69588e-26
9.53673e-24
-1.4204e-23
-3.47302e-24
-3.35472e-23
-3.85479e-24
-2.15271e-23
-9.86823e-25
1.67143e-23
-1.64815e-23
5.96218e-25
1.89151e-26
-1.14695e-26
3.17835e-24
-1.08484e-23
-6.62227e-24
-3.39837e-24
)
;

boundaryField
{
    front
    {
        type            empty;
        value           nonuniform List<scalar> 0();
    }
    back
    {
        type            empty;
        value           nonuniform List<scalar> 0();
    }
    bottom
    {
        type            calculated;
        value           nonuniform List<scalar> 
12
(
-1.1929e-23
-3.32666e-23
2.76256e-23
-2.76626e-23
1.60732e-23
3.67593e-24
-3.68426e-24
2.80591e-23
3.32583e-23
-2.80023e-23
-1.60465e-23
1.18988e-23
)
;
    }
    left
    {
        type            calculated;
        value           uniform 0;
    }
    top
    {
        type            calculated;
        value           uniform 0;
    }
    right
    {
        type            calculated;
        value           uniform 0;
    }
    inner_arc
    {
        type            calculated;
        value           uniform 0;
    }
}


// ************************************************************************* //
