/*--------------------------------*- C++ -*----------------------------------*\
  =========                 |
  \\      /  F ield         | OpenFOAM: The Open Source CFD Toolbox
   \\    /   O peration     | Website:  https://openfoam.org
    \\  /    A nd           | Version:  9
     \\/     M anipulation  |
\*---------------------------------------------------------------------------*/
FoamFile
{
    format      ascii;
    class       volVectorField;
    location    "0.86";
    object      U;
}
// * * * * * * * * * * * * * * * * * * * * * * * * * * * * * * * * * * * * * //

dimensions      [0 1 -1 0 0 0 0];

internalField   nonuniform List<vector> 
578
(
(3.88145e-16 4.77848e-16 0)
(3.06325e-16 3.81962e-16 -1.21343e-33)
(5.98718e-16 7.18302e-16 0)
(-1.94048e-17 -4.38598e-17 8.95732e-35)
(1.11354e-16 -2.38091e-16 0)
(2.52137e-16 -3.50276e-17 -5.75575e-34)
(1.14988e-16 2.44965e-16 -1.07471e-34)
(1.15252e-16 -2.10089e-16 -1.00307e-33)
(5.90148e-16 -9.63759e-16 0)
(1.55727e-16 2.31295e-16 1.50792e-33)
(3.98721e-16 -1.02126e-16 3.98071e-34)
(4.03997e-16 -7.76033e-16 -6.31361e-35)
(-1.26534e-17 -3.68631e-18 0)
(4.19331e-16 -8.58134e-16 1.26598e-33)
(4.22329e-16 8.5789e-16 0)
(7.52459e-16 -8.59375e-16 5.17125e-35)
(5.58318e-16 2.66433e-16 2.99861e-34)
(6.46887e-16 5.88453e-16 -9.60135e-34)
(3.61812e-16 -6.95718e-16 3.03801e-34)
(6.43709e-16 -9.47809e-16 6.64821e-34)
(-3.13775e-17 -6.25454e-17 -9.22272e-35)
(6.28664e-16 -7.8531e-16 1.69936e-34)
(3.45291e-16 -1.55977e-16 -4.06947e-34)
(-1.36165e-18 1.6183e-16 -4.3224e-35)
(-6.49187e-18 1.43633e-16 0)
(3.53102e-16 -7.15199e-16 6.44024e-35)
(-1.72493e-17 4.48516e-17 0)
(-8.13446e-18 4.01988e-17 -4.45291e-36)
(3.64649e-16 3.07457e-16 7.46585e-34)
(7.49237e-16 -8.74352e-16 0)
(-1.68806e-17 6.67149e-17 3.93884e-35)
(1.72013e-16 -3.32824e-17 -7.85403e-35)
(7.54581e-16 -9.0013e-16 5.69865e-35)
(-3.1698e-17 1.4994e-16 -3.03321e-35)
(3.67697e-16 7.60467e-16 -9.71247e-34)
(6.43833e-16 -7.34012e-16 -2.14386e-34)
(3.64925e-16 -7.54489e-16 -1.11849e-33)
(3.37194e-16 -6.48776e-16 0)
(7.18139e-16 8.31004e-16 5.62515e-35)
(1.83816e-16 -3.85242e-16 0)
(1.92708e-16 -4.24388e-16 1.07627e-33)
(2.07486e-16 -3.62033e-16 5.49036e-34)
(1.85032e-16 -3.586e-16 1.25245e-33)
(3.61817e-16 7.42864e-16 -3.39961e-35)
(4.44935e-16 -4.84679e-16 0)
(1.87955e-16 3.95477e-16 4.31757e-35)
(1.95e-16 4.33522e-16 1.07412e-33)
(5.17859e-16 -8.57776e-16 4.88054e-34)
(7.29228e-16 8.45551e-16 -5.73965e-35)
(-2.32911e-17 3.96289e-17 0)
(2.34827e-17 5.52657e-17 3.33798e-35)
(-1.14568e-17 -5.50171e-18 6.87083e-37)
(3.8794e-16 -2.16688e-16 7.20904e-34)
(-3.77824e-17 1.35948e-16 2.99984e-35)
(-3.2516e-18 -3.51456e-19 0)
(2.32621e-16 -1.06392e-17 -2.08568e-34)
(1.52381e-16 -4.72948e-17 -4.26808e-35)
(2.52284e-16 -2.3755e-16 0)
(7.04729e-16 4.9365e-16 5.04294e-34)
(4.13048e-16 -4.63708e-16 -2.35167e-34)
(7.25537e-16 6.30186e-16 2.82386e-34)
(3.09441e-16 1.55082e-16 5.08411e-34)
(3.94111e-16 3.50498e-16 7.04037e-34)
(3.63819e-16 -7.52167e-16 -5.95335e-34)
(-1.93043e-17 2.67905e-18 1.61301e-35)
(4.49931e-16 8.67023e-16 5.34657e-34)
(7.08342e-16 -9.08369e-16 -4.43422e-34)
(4.95385e-16 -1.89796e-16 0)
(7.57969e-16 -7.72368e-16 5.40603e-35)
(4.26652e-16 -8.97209e-16 -4.15952e-34)
(-1.85403e-17 1.40101e-16 0)
(7.28007e-17 5.37264e-17 -9.61525e-34)
(-1.59779e-17 -3.8926e-19 -3.85831e-35)
(4.42284e-16 -9.01201e-16 -1.10639e-33)
(2.03516e-16 4.61046e-17 0)
(1.08219e-16 -2.28039e-16 -5.88289e-34)
(5.25461e-16 -8.07867e-16 -1.55441e-33)
(4.20286e-16 -6.44414e-16 8.62472e-34)
(-2.02109e-17 -4.19982e-18 2.09865e-35)
(3.60067e-16 3.98995e-16 2.29444e-34)
(5.84426e-16 -5.74745e-16 -1.16546e-33)
(1.9983e-16 2.68017e-16 -1.85995e-33)
(1.41511e-16 -2.02458e-16 -1.92562e-33)
(1.94617e-16 -2.67111e-16 0)
(6.6731e-16 8.93697e-16 2.01112e-34)
(1.36e-16 3.34328e-16 -1.11778e-33)
(2.34169e-17 1.38335e-17 0)
(3.27312e-16 1.70302e-17 -4.8195e-35)
(2.9728e-16 -6.31156e-16 9.06879e-34)
(3.05991e-16 6.97556e-16 5.04661e-36)
(-2.62193e-17 6.13764e-17 -3.73366e-35)
(5.54093e-16 7.85465e-16 1.81875e-36)
(2.97114e-16 6.41149e-16 8.28487e-34)
(-2.37391e-17 -1.50187e-17 2.6488e-35)
(7.84278e-16 -8.3016e-16 -6.02402e-35)
(6.47628e-16 -7.42022e-16 0)
(-7.18886e-18 3.06853e-21 1.40581e-35)
(-5.42795e-18 -1.20964e-18 0)
(6.52854e-17 7.75401e-17 3.7127e-34)
(4.26901e-16 8.68334e-16 -9.73283e-34)
(4.02286e-16 7.54127e-16 -6.03608e-35)
(3.92921e-16 -8.56195e-16 -4.64007e-34)
(-1.90251e-17 1.06561e-17 0)
(5.62818e-16 6.2247e-16 0)
(-1.59701e-18 6.72614e-19 -4.93076e-37)
(4.24897e-16 -8.70163e-16 -1.10465e-33)
(1.82062e-16 4.82724e-17 0)
(1.93982e-16 -4.12566e-16 -7.07289e-34)
(6.33155e-17 1.73078e-16 6.93711e-34)
(2.12514e-16 -4.28374e-16 1.38818e-33)
(6.26813e-16 -7.87527e-16 -2.75713e-34)
(4.0635e-16 -8.57921e-16 -3.29453e-34)
(6.98948e-16 -9.33497e-16 -4.43738e-35)
(7.58159e-16 -6.79771e-16 8.65067e-35)
(7.49376e-16 -7.79296e-16 -8.60039e-35)
(-1.2208e-17 5.66136e-18 -4.38254e-36)
(-2.19575e-17 -3.68771e-17 0)
(7.39449e-16 6.54399e-16 1.93727e-34)
(2.62311e-16 5.82799e-16 0)
(-5.32474e-18 1.14938e-18 1.05562e-35)
(2.82516e-16 -5.69498e-16 8.40011e-34)
(3.23818e-16 -4.44548e-16 0)
(4.08679e-16 -8.05791e-16 1.1327e-34)
(-2.19125e-17 -7.06272e-17 8.80486e-35)
(2.95318e-16 -3.87413e-16 0)
(3.44487e-16 8.51893e-16 2.47566e-34)
(4.75869e-16 -4.72168e-16 1.19902e-33)
(6.96493e-16 -7.75339e-16 -6.23583e-35)
(4.42598e-16 9.01577e-16 -9.10072e-34)
(3.10291e-16 8.71581e-16 0)
(4.3099e-16 8.60126e-16 1.08989e-33)
(3.44798e-16 8.79286e-16 0)
(-2.3247e-17 -2.18032e-17 4.31639e-35)
(6.99855e-17 -1.41212e-16 -6.55046e-34)
(4.29372e-16 8.89351e-16 -9.81981e-34)
(3.95958e-16 7.00265e-16 0)
(3.44367e-16 -6.35852e-16 1.33984e-33)
(-1.20128e-17 3.10002e-18 3.99987e-36)
(7.61955e-16 -6.09362e-16 -2.42392e-36)
(3.61908e-16 6.98081e-16 -9.10021e-34)
(1.62912e-16 3.02342e-16 0)
(3.10621e-16 8.58385e-16 0)
(3.02248e-16 5.77895e-16 0)
(-4.32873e-18 -1.49493e-16 0)
(1.52392e-16 -2.99572e-16 8.23088e-34)
(7.3454e-16 9.05955e-16 0)
(2.56802e-16 5.84665e-16 5.62634e-34)
(-2.10214e-18 3.60161e-18 -8.14152e-35)
(4.43513e-16 -8.95387e-16 0)
(2.97282e-16 8.07565e-16 0)
(5.06565e-16 -9.53325e-16 0)
(1.46517e-16 2.13508e-16 -6.28571e-35)
(1.69773e-16 -1.82122e-16 1.19654e-33)
(1.29197e-16 -2.61431e-16 5.95963e-34)
(4.64901e-16 9.14464e-16 -2.99767e-35)
(-1.20308e-17 2.34437e-17 -4.52583e-35)
(5.54344e-16 3.6427e-16 -8.40941e-34)
(-6.36377e-18 -8.80544e-18 6.96e-35)
(1.40698e-16 1.51366e-16 3.92438e-34)
(5.25216e-16 -9.67462e-16 0)
(4.49275e-16 -8.68424e-16 0)
(4.03455e-16 -7.52941e-16 0)
(8.47856e-17 1.57569e-16 0)
(4.48612e-16 -8.17012e-16 1.60695e-35)
(9.71563e-19 -5.92019e-17 0)
(3.12063e-16 7.63e-16 -3.11722e-34)
(-4.55385e-18 -1.00585e-16 0)
(3.9863e-16 7.64341e-16 -8.3607e-36)
(-1.99243e-18 -3.17734e-18 0)
(-5.28138e-17 4.69579e-17 0)
(4.17884e-16 -7.15859e-16 1.00286e-33)
(1.8805e-16 -3.42479e-16 0)
(2.18603e-16 3.81373e-16 0)
(1.27102e-16 2.53187e-16 -1.09275e-35)
(3.35676e-16 6.32412e-16 0)
(-2.9668e-17 5.44068e-18 0)
(-3.83091e-17 5.73277e-19 -2.56164e-35)
(7.61607e-16 5.37777e-16 -6.01751e-35)
(2.41046e-16 -4.16864e-16 -9.45994e-34)
(6.91728e-17 -5.60777e-17 0)
(1.86277e-16 3.42487e-16 8.83002e-36)
(4.71031e-16 6.2468e-16 1.27389e-33)
(2.25928e-16 6.19539e-16 0)
(-3.11768e-17 -6.31616e-18 5.32041e-35)
(4.78716e-16 8.12006e-16 0)
(-7.58612e-19 2.03136e-19 3.77354e-35)
(2.54301e-16 -3.14285e-16 7.06137e-35)
(4.44031e-16 9.0944e-16 9.53505e-34)
(4.82692e-16 9.37281e-16 0)
(2.3473e-17 -5.55014e-17 0)
(4.80529e-16 -9.35713e-16 0)
(3.78289e-16 -6.9674e-16 1.16429e-33)
(4.10687e-16 -5.47615e-16 -1.82931e-34)
(3.56475e-16 6.683e-16 8.20117e-36)
(2.76736e-16 4.03317e-16 1.21438e-33)
(-7.27637e-17 1.32272e-17 -1.92032e-35)
(-4.14292e-18 -1.11791e-17 -1.43621e-34)
(-4.23014e-18 1.16341e-17 -1.04256e-34)
(3.74013e-16 6.91254e-16 0)
(3.58953e-16 -6.69287e-16 0)
(-7.60301e-19 -2.23674e-19 0)
(-3.36971e-17 -1.42578e-17 -3.01052e-35)
(1.78046e-16 -2.445e-16 1.73963e-33)
(-6.13661e-17 2.65041e-17 2.373e-35)
(-5.01768e-17 2.5964e-18 7.35291e-36)
(4.10225e-16 -7.71269e-16 -2.41428e-33)
(4.43704e-16 8.18503e-16 0)
(3.68104e-16 4.79888e-16 2.37617e-35)
(4.87769e-16 -9.59557e-16 0)
(2.26777e-16 2.64117e-16 -3.00891e-34)
(1.9765e-16 4.45073e-16 -2.57935e-34)
(4.90409e-16 9.603e-16 0)
(4.016e-16 8.35524e-16 0)
(-5.69083e-17 -1.00754e-17 -2.11481e-35)
(3.38289e-16 6.75281e-16 0)
(-3.05818e-17 -9.23811e-17 -7.53525e-35)
(4.20685e-16 7.97898e-16 0)
(4.22015e-16 -7.98733e-16 -4.51641e-36)
(4.76505e-16 9.45391e-16 1.08026e-33)
(1.0279e-16 2.16959e-16 0)
(4.74037e-16 -9.41991e-16 1.26969e-33)
(3.79541e-16 7.27403e-16 1.00047e-33)
(2.41567e-16 -5.1074e-16 -1.18209e-33)
(2.08863e-16 -3.87444e-16 -1.14724e-33)
(1.96725e-16 3.61025e-16 0)
(2.39642e-16 5.01621e-16 6.37273e-36)
(-8.70859e-17 -5.2951e-18 3.89351e-35)
(-1.67522e-18 -2.71193e-18 0)
(-1.69618e-18 3.07646e-18 6.22457e-35)
(8.7166e-18 -4.84025e-17 6.10371e-34)
(1.18714e-16 1.78372e-16 0)
(6.23142e-17 -7.10909e-17 1.48793e-33)
(6.80578e-17 1.34053e-16 8.72611e-36)
(2.67035e-16 -7.35646e-16 0)
(2.67979e-16 7.36159e-16 0)
(1.40758e-16 -2.30627e-16 -5.44881e-34)
(1.04504e-16 -1.93077e-16 -9.69273e-34)
(1.04817e-16 1.91766e-16 -8.69042e-34)
(-1.49635e-17 -9.34713e-18 -5.55968e-35)
(1.98221e-16 -4.48699e-16 0)
(9.2388e-17 1.71478e-16 -8.62423e-34)
(9.61273e-17 -1.62541e-16 -1.07064e-33)
(-8.16871e-17 2.17279e-17 -5.50577e-36)
(1.74184e-16 3.22315e-16 -1.71159e-35)
(-2.69378e-18 8.99704e-18 1.5848e-34)
(7.74108e-17 -1.5892e-16 -8.35025e-34)
(7.87808e-17 1.49003e-16 0)
(6.78798e-17 5.01425e-17 0)
(1.15482e-16 1.90793e-16 0)
(-6.24217e-17 1.02824e-16 1.978e-35)
(-6.92721e-17 -1.04314e-17 0)
(3.83468e-16 8.7973e-16 8.90488e-36)
(1.71561e-16 -1.16453e-16 9.22008e-34)
(6.89009e-17 -1.83969e-16 0)
(7.39279e-18 4.87761e-17 0)
(3.07741e-16 -8.57823e-16 -1.99789e-34)
(6.0848e-18 -9.50492e-17 -7.95652e-34)
(5.22512e-16 9.707e-16 -5.10489e-34)
(1.11677e-16 -2.05201e-16 -7.99061e-34)
(6.61167e-17 -4.70424e-17 -1.93718e-33)
(1.03178e-16 -2.1906e-16 3.22271e-34)
(9.84661e-17 1.80775e-16 -7.07321e-36)
(-3.07326e-18 -9.00028e-18 2.54006e-34)
(-7.13676e-18 -2.49573e-17 -3.46125e-34)
(4.92438e-16 5.6593e-16 -1.87296e-33)
(3.04423e-16 -6.54129e-16 4.87344e-34)
(1.46011e-16 -4.04323e-16 0)
(3.98313e-17 -9.31683e-17 -2.60171e-34)
(2.44029e-17 -1.29518e-17 -1.75625e-35)
(1.71224e-17 -8.4262e-17 0)
(1.73626e-17 8.44502e-17 0)
(3.49298e-16 8.41777e-16 0)
(2.03985e-16 -5.33662e-16 0)
(-9.0395e-17 3.36839e-19 -2.13349e-35)
(-4.71701e-17 -2.08735e-17 -2.99502e-35)
(-8.53984e-17 4.74503e-17 4.90912e-35)
(-4.75154e-17 9.67566e-17 3.08417e-36)
(4.00011e-17 9.27082e-17 -1.15151e-38)
(2.07321e-16 3.78176e-16 0)
(-6.41127e-17 1.09159e-16 8.10421e-35)
(1.96775e-16 -3.62823e-16 9.5874e-36)
(-7.76509e-17 7.17904e-17 -1.99308e-35)
(-8.5361e-17 -4.0938e-17 0)
(-7.09788e-17 -3.27856e-17 2.48769e-35)
(-7.80845e-17 6.1822e-17 3.08365e-35)
(1.4736e-16 2.81691e-16 0)
(5.59511e-17 -1.18801e-16 3.02021e-36)
(5.60062e-17 1.1706e-16 -4.01573e-34)
(-1.28248e-18 4.28276e-17 6.99025e-35)
(-8.7291e-18 8.59798e-17 2.09667e-35)
(2.57285e-16 -7.25085e-16 9.96121e-35)
(3.94604e-16 8.67555e-16 0)
(-5.79299e-17 6.22616e-17 -1.13547e-35)
(1.12031e-16 1.9933e-16 -7.59431e-34)
(-4.69242e-18 -2.79164e-17 6.09522e-35)
(-8.51034e-18 -4.29475e-17 -8.94028e-35)
(9.89389e-17 -1.8331e-16 0)
(3.07559e-16 -8.71329e-16 3.72985e-34)
(-1.00514e-17 -9.01764e-17 -9.43438e-35)
(-1.05644e-17 -6.75427e-17 -2.22693e-35)
(-5.86634e-17 1.21802e-16 -8.25754e-35)
(2.58477e-16 7.23381e-16 0)
(-5.87138e-18 -4.77563e-17 2.93591e-36)
(-3.33129e-18 -5.26707e-17 7.94668e-35)
(-4.24824e-18 -1.87045e-17 1.31886e-34)
(-6.59751e-18 5.01193e-17 -8.18124e-35)
(2.94706e-16 -8.09142e-16 -1.43153e-34)
(7.17161e-17 -1.04875e-16 0)
(-4.81315e-17 3.00199e-17 -1.71054e-35)
(-7.16564e-17 1.94574e-17 -4.14176e-35)
(2.56644e-16 -5.89718e-16 0)
(6.44245e-17 -5.79651e-17 0)
(2.58117e-17 -1.06644e-17 -3.98478e-35)
(2.0436e-16 5.31214e-16 -3.59982e-39)
(-3.2975e-17 8.95301e-17 -1.65267e-34)
(-7.86518e-17 -7.70245e-17 -2.42737e-35)
(3.61936e-16 8.05818e-16 0)
(6.91764e-17 1.83486e-16 1.44502e-38)
(1.46378e-16 4.03592e-16 0)
(-4.68367e-17 1.23922e-16 1.94441e-34)
(3.01518e-16 6.35596e-16 0)
(-7.79397e-17 -3.86572e-17 -1.15328e-35)
(-7.54417e-17 5.44297e-17 1.29366e-35)
(1.4948e-17 1.37074e-16 8.07305e-35)
(-5.11175e-17 1.70825e-17 -4.09451e-36)
(-5.95558e-17 -8.92314e-17 1.06265e-35)
(5.06449e-16 9.55298e-16 0)
(3.18946e-16 5.99509e-16 0)
(4.66966e-16 -9.07302e-16 1.1743e-33)
(-3.51109e-17 -8.46436e-17 6.61385e-35)
(-2.93013e-17 1.22732e-17 1.89318e-36)
(5.53103e-16 9.56275e-16 0)
(-2.35253e-17 -2.1014e-17 -4.77739e-37)
(-5.83623e-17 -1.23566e-16 -1.3256e-36)
(2.75262e-16 5.4519e-16 0)
(4.2e-18 9.6819e-17 3.84964e-35)
(-5.5924e-17 -4.76631e-17 2.72635e-36)
(-6.51272e-17 -1.11004e-16 1.11753e-35)
(1.30939e-17 -1.58312e-16 0)
(-4.52446e-17 7.50001e-17 0)
(-7.48604e-17 -6.79002e-17 0)
(-8.0784e-17 -3.74746e-17 -3.88386e-35)
(1.37409e-16 -4.31413e-17 -1.37093e-34)
(2.67184e-17 -1.34534e-16 1.71734e-35)
(4.45976e-17 4.79143e-17 -3.44524e-35)
(5.7309e-16 -7.35791e-16 0)
(7.80552e-16 -3.60493e-16 -2.8655e-34)
(6.72904e-17 1.51749e-16 -2.99027e-34)
(6.59993e-17 -1.45664e-16 3.66715e-34)
(7.48271e-17 1.61698e-16 -3.82471e-34)
(7.67304e-17 -1.63629e-16 -6.19063e-34)
(8.1654e-17 -1.63674e-16 0)
(8.33435e-17 1.65531e-16 2.45963e-34)
(1.17127e-16 -1.00003e-16 0)
(9.08108e-17 -2.00825e-16 0)
(9.0574e-17 2.07904e-16 0)
(1.11575e-16 4.61811e-17 -3.85335e-35)
(1.03118e-16 2.16793e-16 -3.83591e-34)
(1.24898e-16 -2.3401e-16 -9.8772e-34)
(1.22732e-16 2.30487e-16 -2.22175e-34)
(4.77893e-16 6.85064e-18 6.72712e-36)
(1.381e-16 3.21961e-17 0)
(2.771e-16 1.47904e-18 1.82436e-34)
(6.05202e-17 -1.51974e-16 0)
(1.75751e-16 3.03936e-18 1.16003e-34)
(7.88673e-16 -1.58128e-17 0)
(3.52695e-16 -2.51569e-18 -6.4783e-36)
(7.17346e-16 -5.90767e-16 1.59318e-33)
(-4.46506e-17 -3.69904e-17 1.99867e-35)
(2.19874e-16 2.27491e-16 0)
(3.88377e-16 -8.14958e-16 9.69524e-34)
(2.08665e-16 1.46974e-16 -3.57735e-34)
(4.14571e-16 4.82611e-16 2.16988e-34)
(7.4813e-16 -4.61805e-16 -4.34574e-34)
(7.28198e-16 8.94256e-16 -1.51529e-34)
(2.16641e-16 -1.3464e-16 5.68581e-34)
(-3.85814e-17 2.0034e-17 -3.6576e-36)
(1.39865e-16 3.09281e-16 0)
(1.39844e-16 -3.04164e-16 -4.917e-34)
(6.19844e-16 1.77791e-16 -3.73482e-34)
(-2.91054e-18 3.86021e-19 -2.00624e-35)
(1.51244e-16 -3.29319e-16 2.7362e-34)
(1.5303e-16 3.295e-16 0)
(6.38187e-16 -7.37944e-17 -3.87379e-35)
(5.22385e-16 -3.82128e-17 -2.53906e-34)
(7.1109e-16 2.30456e-18 -6.61398e-35)
(2.75389e-16 -4.23382e-18 5.73081e-35)
(1.89938e-16 4.11635e-16 0)
(2.07988e-16 4.1521e-16 -1.60454e-34)
(1.25575e-16 -2.89607e-16 0)
(-1.46998e-18 -6.80497e-19 0)
(7.99943e-16 -2.05668e-16 0)
(7.90547e-16 -1.64788e-16 -3.37998e-34)
(3.09062e-16 -7.65825e-16 0)
(7.44745e-16 8.06722e-16 7.89202e-35)
(6.42845e-16 -8.64843e-17 1.74594e-34)
(4.51314e-16 -3.61155e-16 0)
(-1.01559e-17 -1.51736e-16 1.08481e-34)
(7.67896e-16 -6.7285e-17 -3.38965e-35)
(-3.25721e-18 9.21514e-17 0)
(6.78786e-16 7.96242e-16 -2.31361e-34)
(2.51587e-18 9.32851e-17 0)
(5.22185e-16 3.11079e-17 -6.28397e-35)
(2.82706e-16 2.05857e-16 0)
(-2.08761e-18 1.19882e-18 6.30958e-37)
(8.06021e-16 1.13405e-16 2.841e-35)
(6.72562e-16 -5.71028e-16 -3.52416e-34)
(7.53556e-16 2.31809e-16 -1.4975e-34)
(6.35424e-16 -1.75883e-16 5.07171e-35)
(6.85483e-16 -3.90252e-16 0)
(7.94607e-16 9.65798e-17 -2.8558e-35)
(6.48355e-16 5.88448e-16 2.80828e-34)
(1.351e-16 -8.04146e-17 0)
(2.76805e-16 7.16959e-16 -2.52044e-34)
(7.79362e-16 4.00376e-16 1.51657e-34)
(7.20945e-16 -2.50759e-16 4.37244e-34)
(3.45149e-16 -7.21279e-16 -5.35103e-34)
(3.42633e-16 7.25228e-16 -5.26397e-34)
(4.53837e-16 -9.14488e-16 8.82162e-34)
(-3.61081e-17 4.08911e-17 0)
(4.12052e-16 8.57453e-16 1.05193e-33)
(-2.41586e-19 5.76989e-17 0)
(4.45344e-16 -8.87571e-16 -4.93542e-35)
(4.20519e-16 8.55368e-16 4.92976e-34)
(3.7914e-16 8.44443e-16 0)
(3.34829e-16 -8.45759e-16 1.99996e-34)
(1.34572e-16 -3.32794e-16 0)
(2.36002e-16 3.93472e-17 0)
(6.06066e-17 -1.71971e-16 -3.95712e-35)
(3.38939e-16 -8.7842e-16 -2.46811e-34)
(6.32111e-16 9.34348e-16 3.24787e-34)
(3.03754e-16 3.02004e-18 -1.82712e-34)
(3.85329e-16 -4.7341e-16 -8.51821e-35)
(-1.74162e-18 -1.16861e-18 0)
(6.67726e-17 1.63093e-16 0)
(3.90307e-16 -8.7518e-16 5.74818e-34)
(3.27634e-16 -6.87614e-16 -1.0555e-33)
(6.69412e-16 4.64992e-16 -2.63396e-34)
(2.24898e-16 -6.20017e-16 -2.39111e-36)
(7.6857e-16 2.46047e-16 3.79808e-34)
(7.59925e-16 3.86434e-16 -1.07507e-34)
(-4.91174e-17 -6.56599e-17 0)
(-1.24474e-17 -1.69889e-17 -2.07116e-35)
(-3.27304e-17 -1.41366e-16 -2.78734e-35)
(5.88808e-16 9.6567e-16 8.24975e-34)
(5.39012e-16 6.07029e-17 1.843e-34)
(-1.85859e-17 -1.34527e-16 5.79794e-35)
(5.27195e-16 7.58427e-16 3.76461e-34)
(4.25952e-16 6.68571e-16 -7.10639e-34)
(-6.25624e-18 2.77307e-17 0)
(4.50307e-16 8.94902e-16 0)
(-8.65279e-20 4.29882e-19 0)
(3.8534e-16 8.26492e-16 -5.45526e-34)
(1.10089e-19 -3.26037e-19 2.26288e-35)
(4.59881e-16 9.25675e-16 -1.00964e-33)
(-2.32554e-17 1.07589e-16 0)
(1.33248e-16 9.91154e-17 5.37159e-34)
(7.28609e-16 -3.61107e-16 1.81035e-34)
(1.21293e-16 8.07075e-17 0)
(7.3776e-16 7.35e-16 0)
(2.87135e-16 -3.41249e-16 -1.21045e-33)
(2.32033e-16 2.82214e-16 -1.20715e-33)
(5.7802e-16 2.53426e-16 -7.21276e-35)
(1.17771e-16 -3.21178e-16 3.79532e-34)
(2.89986e-16 -1.45238e-17 1.99037e-34)
(5.00293e-16 -8.35854e-16 5.4293e-34)
(1.26729e-16 3.33722e-16 3.052e-34)
(2.36652e-16 -2.78557e-16 0)
(6.83075e-16 2.06656e-16 -2.64156e-34)
(3.59859e-16 -8.15167e-16 3.08577e-35)
(-2.38998e-17 -1.59886e-16 1.76111e-35)
(-2.85284e-18 1.56261e-17 4.82255e-35)
(1.06734e-16 1.5077e-16 -4.89741e-34)
(-6.26231e-18 9.6193e-18 7.42379e-36)
(5.8647e-17 -1.24452e-16 -3.34219e-34)
(3.87667e-16 -8.2627e-16 -6.58284e-35)
(3.71171e-16 -8.71702e-16 -6.39782e-34)
(8.87085e-17 -1.23984e-16 -6.27292e-34)
(1.51134e-16 -2.1173e-16 5.51822e-35)
(4.78909e-16 -6.05019e-16 -8.33512e-35)
(-1.22756e-17 1.58879e-16 0)
(4.17852e-16 -4.40847e-17 4.8396e-34)
(7.74441e-16 8.62001e-16 0)
(-8.55766e-18 -1.16229e-16 -9.79621e-35)
(-1.3501e-17 1.91441e-17 4.29153e-35)
(2.67722e-16 -7.09057e-16 3.05171e-34)
(1.92254e-17 -1.50438e-16 1.33136e-34)
(1.77684e-20 -2.91862e-19 -3.97182e-35)
(-5.94048e-18 3.45834e-18 -1.03614e-35)
(5.09437e-16 8.65561e-16 -7.78941e-34)
(3.57226e-20 2.68089e-19 0)
(6.89175e-16 9.37792e-16 -9.64369e-35)
(3.44558e-16 -8.45164e-16 -3.07332e-35)
(-7.31101e-18 -6.84722e-18 -7.75316e-35)
(-3.21606e-17 2.79206e-17 0)
(1.33186e-16 3.06019e-16 8.17256e-34)
(-2.91869e-17 9.72228e-17 -3.03947e-36)
(4.14831e-16 8.81947e-16 7.86935e-34)
(2.66458e-19 -5.64492e-20 2.51965e-35)
(2.63589e-19 9.73357e-20 1.25096e-35)
(4.45502e-16 -9.01797e-16 -5.39639e-34)
(6.58953e-16 9.20837e-17 1.77882e-34)
(2.27089e-16 -5.81245e-16 -6.61224e-34)
(-5.95095e-17 -8.16286e-17 0)
(7.70943e-16 7.58845e-16 -1.34079e-34)
(-7.96225e-18 8.0386e-18 -1.1734e-35)
(2.65095e-16 5.73603e-16 -3.78734e-34)
(-3.15457e-17 -3.39531e-17 -2.11972e-35)
(2.41759e-16 6.00892e-16 -3.15158e-34)
(-4.42499e-18 4.23981e-18 7.94776e-36)
(-3.4343e-17 -1.29832e-16 -5.57468e-36)
(5.29863e-16 -5.923e-16 0)
(-2.0516e-17 -1.01118e-16 2.52294e-35)
(2.82683e-16 6.48913e-16 2.03102e-34)
(3.40217e-16 7.20924e-16 -1.18913e-33)
(-1.23939e-17 6.79522e-17 0)
(4.31759e-16 -8.64855e-16 5.10421e-34)
(2.87209e-16 -6.44321e-16 6.78347e-34)
(6.14389e-17 1.02174e-16 5.4483e-34)
(-3.57274e-18 -3.33778e-18 -4.15559e-35)
(6.01034e-17 1.25331e-16 -7.94359e-35)
(6.01824e-16 -2.083e-16 -2.56213e-34)
(1.82527e-16 -5.55028e-17 1.94432e-34)
(2.36786e-16 -5.4612e-16 -5.3958e-35)
(3.68936e-16 -7.85481e-16 4.9842e-34)
(-4.95919e-17 -9.98454e-17 0)
(-1.65532e-17 -1.58313e-16 -1.94847e-35)
(-1.03553e-17 -2.18845e-17 -8.58283e-36)
(4.87534e-16 -7.45237e-16 -3.30018e-34)
(1.37507e-16 1.13914e-17 -5.72075e-34)
(2.73541e-16 -4.30153e-16 -1.83375e-34)
(4.62214e-16 -9.21019e-16 -5.58059e-34)
(-5.13245e-18 2.27814e-17 -1.79998e-34)
(-4.22804e-17 -1.49075e-16 -2.53009e-35)
(5.64413e-16 -3.91858e-16 4.93094e-34)
(2.25401e-16 3.50214e-16 0)
(1.70039e-17 1.25176e-16 -3.51535e-34)
(3.19215e-16 6.8216e-16 4.40679e-34)
(4.81775e-16 6.1163e-16 5.34245e-34)
(-2.28773e-19 -4.12732e-20 -3.01496e-35)
(-3.03332e-19 1.17789e-19 -4.22491e-35)
(4.5082e-16 -2.67373e-16 0)
(2.28923e-16 -3.59955e-16 9.53377e-34)
(2.85421e-16 -6.25716e-16 5.58303e-34)
(3.01294e-16 -2.33331e-16 0)
(-3.30916e-17 1.52843e-16 -7.89319e-35)
(1.6617e-17 1.53428e-16 5.34306e-35)
(6.33259e-16 7.45296e-16 -4.00215e-34)
(5.74343e-16 -7.6633e-16 2.46335e-34)
(2.7809e-16 -6.62156e-16 2.21046e-35)
(7.02373e-16 -5.61219e-16 3.23034e-34)
(4.38921e-16 8.6021e-16 -1.14981e-33)
(3.5795e-16 -8.19802e-16 0)
(4.69798e-16 7.51362e-16 0)
(7.26215e-16 -4.57618e-16 0)
(4.49349e-16 8.0902e-17 -1.39603e-34)
(5.54605e-16 -9.61862e-16 0)
(3.69865e-17 -1.00622e-16 1.07486e-34)
(-5.32186e-17 -1.18245e-16 1.54963e-35)
(-2.124e-17 2.11878e-17 5.50294e-36)
(-1.64077e-17 1.3284e-17 1.51766e-35)
(2.64996e-16 4.34845e-16 3.37036e-34)
(2.46506e-16 -5.36215e-16 6.77798e-35)
(-1.06684e-18 1.47531e-18 3.72438e-36)
(-9.01982e-19 -1.09414e-18 1.16563e-34)
(9.82404e-17 1.00717e-16 -1.78627e-34)
(-4.99203e-18 -2.85352e-18 -5.19944e-36)
(4.56786e-16 1.65959e-16 7.00258e-35)
(1.2179e-19 1.99377e-19 -4.07264e-36)
(2.61601e-19 -5.80447e-20 -5.74683e-35)
(4.00062e-16 8.39876e-16 0)
(6.67964e-16 7.82253e-16 0)
(6.31171e-16 -4.07004e-16 -4.97595e-34)
(3.43444e-16 1.44842e-16 0)
(7.65985e-16 8.32181e-16 1.44619e-34)
(5.5938e-17 1.36979e-16 0)
(6.7704e-16 8.71857e-16 4.18636e-35)
(5.84183e-16 7.11001e-16 2.71094e-34)
)
;

boundaryField
{
    front
    {
        type            empty;
    }
    back
    {
        type            empty;
    }
    bottom
    {
        type            zeroGradient;
    }
    left
    {
        type            noSlip;
    }
    top
    {
        type            uniformFixedValue;
        uniformValue    
        {
            type            scale;
            scale           
            {
                type            squarePulse;
                start           0.3;
                duration        0.3;
            }
            xScale          
            {
                type            constant;
                value           1;
            }
            value           
            {
                type            constant;
                value           (0 -0.7 0);
            }
        }
        value           uniform (0 -0 0);
    }
    right
    {
        type            noSlip;
    }
    inner_arc
    {
        type            noSlip;
    }
}


// ************************************************************************* //
