/*--------------------------------*- C++ -*----------------------------------*\
  =========                 |
  \\      /  F ield         | OpenFOAM: The Open Source CFD Toolbox
   \\    /   O peration     | Website:  https://openfoam.org
    \\  /    A nd           | Version:  9
     \\/     M anipulation  |
\*---------------------------------------------------------------------------*/
FoamFile
{
    format      ascii;
    class       volScalarField;
    location    "0.3";
    object      p;
}
// * * * * * * * * * * * * * * * * * * * * * * * * * * * * * * * * * * * * * //

dimensions      [0 2 -2 0 0 0 0];

internalField   nonuniform List<scalar> 
578
(
16.8508
17.4244
16.8635
19.1097
15.8498
18.0176
16.3089
15.3696
16.2816
17.4427
17.8935
15.4733
19.6839
15.9308
16.388
16.9669
17.0519
16.9087
15.3925
16.3571
19.0169
17.044
17.095
18.478
18.5639
15.3309
19.2327
19.0779
17.4974
16.809
19.0732
18.0323
16.7971
18.6736
16.3225
16.6684
15.8642
15.3622
16.6886
15.7941
15.8927
15.4216
15.3295
16.4581
16.8747
16.2428
16.3625
16.3501
16.7767
19.2569
18.211
19.6721
17.0941
18.7555
19.8665
17.8064
17.0704
16.952
17.0232
16.6719
16.9688
17.0293
16.9256
16.0053
19.6007
16.5031
16.6477
17.7637
17.0456
15.3874
18.6722
18.1801
19.6572
15.497
18.1069
16.1063
16.2142
16.2481
19.611
16.5993
17.4717
17.001
17.5098
17.1926
16.6198
15.179
18.1103
17.7765
15.6456
15.5926
19.1711
16.6509
16.0528
19.4935
17.0957
17.3154
19.789
19.8119
17.5709
16.2632
16.5477
15.3894
19.4871
16.6124
19.8061
15.8102
18.1148
16.0079
15.2812
16.2292
16.5198
15.3403
16.5053
17.2676
17.2273
19.5895
19.2154
17.1363
15.706
19.7665
15.3034
17.3154
15.3807
18.9003
17.4295
15.4185
17.5987
16.9065
15.9289
15.1499
15.7779
15.3355
19.3949
15.2715
15.699
16.4311
15.5569
19.6486
17.333
15.7632
15.6754
15.2269
15.6816
18.1504
15.2899
16.6621
15.2689
19.4486
15.4157
15.1872
15.9627
16.7436
16.5043
15.2506
16.1226
19.288
17.427
19.54
16.5144
16.0639
16.0915
16.212
15.7535
15.9417
18.0896
15.263
18.1735
16.0801
19.5539
19.1933
16.0244
15.5505
16.4226
15.3337
15.9988
19.4858
19.4379
17.1035
16.0001
17.8521
15.9842
17.1715
15.2547
19.5061
16.4877
19.5368
16.8406
16.02
16.2599
17.8577
15.825
15.8684
17.002
16.138
17.1466
19.1345
19.3124
19.32
16.2893
15.7284
19.6633
19.4389
17.6528
19.2069
19.3398
15.6534
16.3713
16.7522
15.8988
16.7115
15.219
16.3459
15.5868
19.2779
15.5883
18.7748
16.2275
15.8099
16.2064
15.2215
15.7707
15.9229
15.2599
15.8547
16.1222
15.3296
18.9135
19.4376
19.3632
17.937
17.2951
17.8098
15.4093
15.1231
15.1754
16.0928
15.793
16.1842
19.5882
15.1993
15.9041
15.4663
19.016
15.83
19.2743
15.3122
15.5848
17.6692
16.4834
18.8593
19.167
15.4949
17.93
15.1331
18.3102
15.1446
18.0073
16.4759
15.9219
17.9573
15.195
16.0489
19.1844
19.0801
17.2855
15.2836
15.125
15.1623
17.7801
15.1189
15.1139
15.3301
15.1571
18.7704
19.3196
18.7523
18.9718
15.1798
16.2675
18.6189
15.7239
18.8741
18.6528
19.0841
18.6156
15.4916
15.2318
15.2774
18.6494
18.7192
15.1359
15.4956
19.0958
16.3428
18.7391
18.8611
15.6454
15.1282
18.3762
18.6115
18.7455
15.1366
18.4916
18.2683
18.9711
18.8028
15.1641
17.9205
18.3679
18.489
15.2416
18.0909
18.1742
15.1633
18.3813
18.6954
15.3967
15.1383
15.1252
18.5144
15.3949
18.5058
18.9978
18.3426
19.3002
18.3797
16.4081
15.8361
15.6825
18.2603
19.4406
16.502
18.255
18.4216
15.4857
18.3039
19.1156
18.5777
18.0627
19.0833
18.8455
18.9524
18.0203
17.9994
18.199
17.2129
17.3054
15.7932
15.3449
15.9947
15.5549
15.7328
16.1691
17.9665
15.9431
16.4191
18.1378
16.5357
16.3805
16.6415
17.7786
17.0651
17.9823
15.1981
18.0446
17.4099
17.8675
17.3999
19.2398
16.8505
15.5297
16.9793
16.7998
17.416
16.7013
17.0862
19.3463
15.894
15.4581
17.0788
19.8408
15.657
16.0814
17.6534
17.7782
17.5334
17.0781
16.4729
16.581
15.2775
19.8834
17.3001
17.4108
15.2188
16.8412
17.1329
17.0451
18.1526
17.2034
18.5344
16.7519
18.3918
17.0938
17.6031
19.7423
17.3062
17.1187
17.1393
17.6556
17.5227
17.2054
17.2479
17.8909
15.3843
17.1528
17.528
15.6997
16.1213
15.5341
19.2391
15.9121
18.4697
15.4906
16.1129
15.6072
15.2141
15.1191
17.7295
15.1456
15.1944
16.535
17.985
16.7828
19.8442
15.5483
15.2958
15.5838
17.3114
15.1366
17.3293
17.2566
19.026
19.4231
18.4152
16.5294
17.6591
18.3463
16.5052
16.4931
18.9552
15.8649
19.8
16.2074
19.9126
16.0455
18.8383
17.681
17.2295
18.1643
17.074
17.6869
16.5072
17.4829
15.165
17.8719
16.1107
15.4308
16.3977
17.4449
15.2769
18.2381
19.2031
16.5268
19.4046
18.0157
15.7382
15.2775
16.3096
16.6966
16.3938
18.4868
17.8928
16.8256
18.1621
19.3467
15.1679
18.0691
19.7656
19.6272
16.5806
19.9004
16.5803
15.2317
19.6166
19.3104
15.6772
18.9415
15.7043
19.8626
19.9967
15.6565
17.5434
15.2013
18.8875
16.9827
19.4743
15.9148
19.2735
15.4782
19.5741
18.5379
17.4149
18.6348
16.2097
15.9782
18.8721
15.5783
15.7472
18.2645
19.7146
18.2843
17.1329
17.9358
15.3197
15.4654
18.7715
18.2299
19.3103
16.5006
17.7648
16.5245
15.5968
19.2343
18.3434
17.6167
16.5198
18.3515
15.8139
16.5077
19.631
19.7643
17.7408
16.1984
15.4336
17.7992
18.5428
18.3744
17.0669
16.6442
15.2772
17.1904
15.9321
15.3215
16.606
17.2168
17.6825
16.1578
18.0881
18.6228
19.3509
19.4269
16.6952
15.4892
19.6273
19.7639
18.2393
19.7385
17.5962
19.7565
19.8864
15.8296
16.9523
17.1943
17.6398
16.9244
18.3034
16.5858
16.5609
)
;

boundaryField
{
    front
    {
        type            empty;
    }
    back
    {
        type            empty;
    }
    bottom
    {
        type            uniformFixedValue;
        uniformValue    
        {
            type            scale;
            scale           
            {
                type            squarePulse;
                start           0.3;
                duration        0.3;
            }
            xScale          
            {
                type            constant;
                value           1;
            }
            value           
            {
                type            constant;
                value           15.1;
            }
        }
        value           uniform 15.1;
    }
    left
    {
        type            zeroGradient;
    }
    top
    {
        type            zeroGradient;
    }
    right
    {
        type            zeroGradient;
    }
    inner_arc
    {
        type            zeroGradient;
    }
}


// ************************************************************************* //
