/*--------------------------------*- C++ -*----------------------------------*\
  =========                 |
  \\      /  F ield         | OpenFOAM: The Open Source CFD Toolbox
   \\    /   O peration     | Website:  https://openfoam.org
    \\  /    A nd           | Version:  9
     \\/     M anipulation  |
\*---------------------------------------------------------------------------*/
FoamFile
{
    format      ascii;
    class       volVectorField;
    location    "0.3";
    object      U;
}
// * * * * * * * * * * * * * * * * * * * * * * * * * * * * * * * * * * * * * //

dimensions      [0 1 -1 0 0 0 0];

internalField   nonuniform List<vector> 
578
(
(-0.467128 -0.660815 0)
(-0.234741 -0.784922 7.00958e-16)
(-0.485314 -0.628118 0)
(-0.00175929 -0.747773 1.06311e-15)
(0.179591 -0.42738 0)
(0.0309637 -0.744647 -9.62207e-16)
(-0.180022 -0.448138 -9.61102e-17)
(0.203878 -0.409454 8.94395e-16)
(0.297831 -0.547338 0)
(-0.176234 -0.814853 -9.56826e-16)
(0.0425351 -0.791554 4.9093e-16)
(0.287842 -0.594502 4.97482e-17)
(0.0281374 -0.781752 0)
(0.353487 -0.595394 -9.38946e-16)
(-0.282599 -0.569432 0)
(0.429 -0.644882 2.3806e-16)
(-0.295806 -0.360877 -4.77748e-16)
(-0.52768 -0.531863 1.43208e-15)
(0.282784 -0.598069 -3.12993e-16)
(0.35816 -0.648452 -9.70293e-16)
(-0.00166122 -0.700491 -1.09461e-15)
(0.438468 -0.625979 9.78817e-16)
(0.232791 -0.21354 -6.81785e-16)
(-0.0296586 -0.80808 -1.1602e-16)
(0.0395981 -0.809779 0)
(0.241913 -0.569845 -1.10611e-18)
(-0.0020062 -0.761335 0)
(0.0159572 -0.689521 6.23841e-17)
(-0.154532 -0.75763 -9.70784e-16)
(0.545741 -0.57843 0)
(-0.019058 -0.765572 -1.13801e-15)
(0.0663147 -0.786359 7.40115e-18)
(0.474803 -0.642388 -2.43576e-16)
(-0.00387474 -0.760733 -2.66749e-16)
(-0.266092 -0.581938 -9.50826e-16)
(0.467072 -0.576456 4.70278e-16)
(0.323389 -0.580427 9.3069e-16)
(0.246093 -0.55528 0)
(-0.450787 -0.574684 -9.66878e-16)
(0.260648 -0.531014 0)
(0.279893 -0.535754 -8.96073e-16)
(0.241729 -0.552163 -4.52127e-16)
(0.289075 -0.474384 -1.09954e-15)
(-0.300419 -0.597644 -3.13918e-17)
(0.496723 -0.545888 0)
(-0.254781 -0.538838 2.60137e-19)
(-0.265367 -0.509917 1.0406e-15)
(0.40752 -0.609868 -4.77696e-16)
(-0.424561 -0.628338 9.8656e-16)
(-0.0266033 -0.674101 0)
(0.0236735 -0.722242 3.33995e-17)
(0.0293372 -0.706614 -2.40443e-18)
(0.266756 -0.316362 9.46318e-16)
(0.0138039 -0.698022 2.63815e-16)
(0.0165371 -0.665649 0)
(-0.0570168 -0.686073 5.53891e-16)
(0.110719 -0.14391 -4.11245e-16)
(0.404159 -0.292902 0)
(-0.359411 -0.463257 -1.08747e-15)
(0.506076 -0.558795 2.34301e-16)
(-0.418292 -0.497433 -4.80095e-16)
(-0.323302 -0.22207 -4.94519e-16)
(-0.54084 -0.39127 -9.89329e-16)
(0.288899 -0.626708 4.80154e-16)
(-0.0325702 -0.755281 1.12228e-15)
(-0.297217 -0.614161 5.27936e-16)
(0.473072 -0.607375 1.02333e-15)
(0.086532 -0.700182 0)
(0.432795 -0.565404 1.15774e-16)
(0.181042 -0.530266 4.78985e-16)
(-0.0102948 -0.69834 0)
(0.0173995 -0.816773 -1.12469e-15)
(-0.00668931 -0.823445 -2.3688e-15)
(0.2377 -0.552528 1.01902e-15)
(0.00806394 -0.737429 0)
(0.168419 -0.44877 3.95129e-16)
(0.35823 -0.542449 1.44922e-15)
(0.312856 -0.514447 -7.1756e-16)
(0.000279667 -0.748554 1.15292e-15)
(-0.441901 -0.510413 4.85606e-16)
(0.285927 -0.713089 -1.34839e-15)
(-0.316543 -0.539859 1.66344e-15)
(0.157219 -0.576254 -1.20546e-15)
(0.366624 -0.485746 0)
(-0.486812 -0.575054 6.3791e-16)
(-0.165016 -0.692334 -1.21617e-15)
(0.0237514 -0.525019 0)
(-0.0102473 -0.754337 5.53511e-16)
(0.229488 -0.54708 -8.62113e-16)
(-0.21346 -0.557409 7.30126e-18)
(0.0071379 -0.730419 1.15524e-15)
(-0.451831 -0.586876 8.06296e-18)
(-0.233515 -0.603733 8.63157e-16)
(0.0189923 -0.761344 5.37978e-16)
(0.448365 -0.556543 -2.77317e-16)
(0.382055 -0.601869 0)
(0.00660472 -0.639101 1.18137e-15)
(0.016437 -0.63665 0)
(-0.0621453 -0.59677 -2.11184e-16)
(-0.274278 -0.56506 -9.13287e-16)
(-0.36378 -0.618395 -6.36208e-17)
(0.263979 -0.569957 4.80165e-16)
(-0.00848697 -0.732756 0)
(-0.487824 -0.513699 0)
(-0.0359808 -0.648057 4.83778e-16)
(0.28888 -0.582898 8.84403e-16)
(0.0340113 -0.779771 0)
(0.28998 -0.572103 4.83135e-16)
(-0.26175 -0.440597 7.54779e-16)
(0.323265 -0.603839 -9.82081e-16)
(0.451403 -0.532943 3.80724e-16)
(0.261064 -0.581724 3.52637e-16)
(0.409033 -0.62289 -1.25745e-16)
(0.371927 -0.526406 1.27977e-16)
(0.284122 -0.580916 -1.27233e-16)
(-0.0560236 -0.726925 1.21773e-15)
(-0.00182975 -0.710282 0)
(-0.2825 -0.567948 -2.66105e-16)
(-0.243554 -0.575846 0)
(-0.0489424 -0.659415 1.26823e-15)
(0.190844 -0.529092 -1.05105e-15)
(0.363126 -0.708679 0)
(0.253342 -0.5043 -1.14455e-16)
(0.0043449 -0.739639 1.28244e-15)
(0.26702 -0.743707 0)
(-0.0904623 -0.639128 4.56681e-16)
(0.202526 -0.696296 1.04923e-15)
(0.548465 -0.618094 2.66536e-16)
(-0.21109 -0.504457 -9.74024e-16)
(-0.0425043 -0.530529 0)
(-0.229008 -0.571344 1.17157e-15)
(-0.117188 -0.580921 0)
(0.0236884 -0.716633 6.32823e-16)
(0.135913 -0.283927 7.29888e-16)
(-0.242139 -0.538264 -1.1245e-15)
(-0.278683 -0.532294 0)
(0.317439 -0.565421 -1.02833e-15)
(-0.0645541 -0.795328 -1.2481e-15)
(0.24492 -0.529789 -4.11057e-18)
(-0.300122 -0.554959 -9.6776e-16)
(-0.264534 -0.44881 0)
(-0.000859125 -0.489362 0)
(-0.246478 -0.545485 0)
(-0.0454088 -0.762079 0)
(0.233771 -0.446998 -9.18632e-16)
(-0.456436 -0.545499 0)
(-0.149568 -0.439635 1.84071e-15)
(-0.0677142 -0.7066 1.24363e-15)
(0.300894 -0.579281 0)
(-0.0257765 -0.461302 0)
(0.348432 -0.572298 0)
(-0.179262 -0.373807 -3.76138e-16)
(0.338381 -0.3104 -9.76327e-16)
(0.213004 -0.396711 -9.0414e-16)
(-0.325822 -0.592418 -2.95612e-17)
(-0.0128791 -0.748998 1.18651e-15)
(-0.161607 -0.705017 1.09347e-15)
(0.0130441 -0.745534 1.1041e-15)
(-0.296849 -0.239579 3.93852e-16)
(0.309124 -0.642501 0)
(0.37649 -0.604113 0)
(0.297335 -0.64279 0)
(-0.146471 -0.348387 0)
(0.323112 -0.574048 -1.54072e-17)
(-0.0206958 -0.485048 0)
(-0.0924637 -0.511374 -9.29821e-16)
(0.0230095 -0.705955 0)
(-0.357113 -0.549081 -7.79347e-18)
(0.0145351 -0.717493 0)
(0.0355347 -0.754562 0)
(0.317746 -0.532929 -9.67707e-16)
(0.285018 -0.526511 0)
(-0.312831 -0.490235 0)
(-0.179525 -0.400325 -1.45945e-17)
(-0.324003 -0.585185 0)
(-0.0317639 -0.79609 0)
(0.0216735 -0.764621 -1.19126e-15)
(-0.269958 -0.523588 1.30625e-16)
(0.303527 -0.543007 9.12743e-16)
(-0.0105301 -0.805315 0)
(-0.316754 -0.513367 7.56987e-18)
(-0.363908 -0.717595 -1.38306e-15)
(-0.144811 -0.665128 0)
(-0.0210881 -0.79627 2.15153e-15)
(-0.36375 -0.533196 0)
(0.0361839 -0.510771 -9.03788e-16)
(0.404827 -0.500013 -7.85431e-16)
(-0.287757 -0.457365 8.78025e-16)
(-0.314105 -0.536788 0)
(-0.00696154 -0.726148 0)
(0.309773 -0.573706 0)
(0.342622 -0.615852 -9.71765e-16)
(0.547776 -0.636903 -1.05367e-15)
(-0.335551 -0.573642 7.64476e-18)
(-0.375671 -0.74476 -9.75556e-16)
(0.0376513 -0.751682 -2.01613e-15)
(0.00557262 -0.687185 -1.05368e-15)
(-0.0556208 -0.663515 1.199e-15)
(-0.299171 -0.568731 0)
(0.316999 -0.581317 0)
(-0.0060701 -0.547285 0)
(0.00979612 -0.753111 -1.07699e-15)
(0.190375 -0.783301 1.03074e-15)
(-0.0354551 -0.762217 2.0481e-15)
(-0.0059881 -0.765743 5.85476e-16)
(0.374803 -0.559727 1.90088e-15)
(-0.334925 -0.562187 0)
(-0.462017 -0.608303 -8.29131e-18)
(0.311259 -0.591939 0)
(-0.372297 -0.433862 -1.20791e-15)
(-0.0955452 -0.394845 -9.23927e-16)
(-0.324564 -0.55298 0)
(-0.184454 -0.528388 0)
(0.0337149 -0.753679 -5.80577e-16)
(-0.238196 -0.482124 0)
(0.00374063 -0.693209 -1.17851e-15)
(-0.309274 -0.540513 0)
(0.35546 -0.560234 3.78385e-18)
(-0.326594 -0.535499 1.01367e-15)
(-0.148501 -0.323388 0)
(0.330164 -0.546191 -1.01654e-15)
(-0.302593 -0.542429 9.47122e-16)
(0.167526 -0.515216 1.85815e-15)
(0.297036 -0.518284 9.57517e-16)
(-0.302412 -0.505677 0)
(-0.167016 -0.44176 1.45822e-17)
(0.0339484 -0.7677 1.13311e-15)
(0.0194147 -0.481858 0)
(0.0164321 -0.449985 -9.24555e-16)
(-0.0135305 -0.478644 -8.54884e-16)
(-0.189472 -0.541049 0)
(0.109478 -0.562175 8.58954e-16)
(-0.160964 -0.264474 1.16544e-17)
(0.0407431 -0.657069 0)
(-0.0887834 -0.667528 0)
(0.259925 -0.393611 7.50478e-16)
(0.208326 -0.365558 7.72706e-16)
(-0.191557 -0.352487 -7.83391e-16)
(0.0220683 -0.729624 -1.23782e-15)
(0.0846842 -0.411362 0)
(-0.177634 -0.356046 -7.5852e-16)
(0.204607 -0.310422 7.59611e-16)
(-0.0170218 -0.742013 -2.86022e-16)
(-0.276143 -0.516834 -1.49634e-17)
(-0.0261586 -0.458849 -1.78745e-15)
(0.129053 -0.310913 7.47826e-16)
(-0.152499 -0.332777 0)
(-0.0700641 -0.768532 0)
(-0.167496 -0.315382 0)
(0.00715511 -0.725106 5.59385e-16)
(-0.00529523 -0.737086 0)
(-0.188903 -0.531717 1.48232e-17)
(0.0917841 -0.792978 9.85972e-16)
(0.0537264 -0.276103 0)
(0.0183405 -0.482556 0)
(0.180457 -0.576098 9.04262e-16)
(0.00940016 -0.722881 1.12282e-15)
(-0.346278 -0.57814 -5.06265e-16)
(0.193478 -0.368213 7.79252e-16)
(0.0703023 -0.793137 -1.1183e-15)
(0.170529 -0.312085 -9.15307e-16)
(-0.190162 -0.348713 -6.06378e-18)
(-0.00621421 -0.487166 1.82038e-15)
(-0.011709 -0.687231 -2.36808e-15)
(-0.25163 -0.699233 1.88898e-15)
(0.18324 -0.524232 -8.17397e-16)
(0.0396864 -0.296678 0)
(0.0712208 -0.167323 7.36128e-16)
(-0.0148891 -0.525602 1.34122e-17)
(0.0438299 -0.111459 0)
(-0.0370569 -0.119909 0)
(-0.143477 -0.524609 0)
(0.0460981 -0.404283 0)
(-0.00795702 -0.753888 -5.61471e-16)
(-0.0137357 -0.757182 -6.09344e-16)
(0.0199616 -0.758207 1.12406e-15)
(0.0159907 -0.738193 6.17821e-16)
(-0.0537992 -0.183457 -3.59064e-19)
(-0.291619 -0.501332 0)
(0.0244326 -0.720655 1.13083e-15)
(0.340928 -0.502383 -7.51625e-18)
(-0.0152252 -0.752585 -5.63651e-16)
(0.0113935 -0.773002 0)
(0.0157286 -0.762889 5.83081e-16)
(-0.0181755 -0.758489 5.49867e-16)
(-0.217149 -0.418896 0)
(0.0978307 -0.250319 -5.77057e-18)
(-0.112706 -0.224887 -7.41282e-16)
(0.00955546 -0.406607 4.44724e-16)
(0.000460463 -0.676601 5.74504e-16)
(-0.0188558 -0.443064 1.23254e-15)
(-0.165441 -0.542769 0)
(-0.00746653 -0.744345 -1.02208e-15)
(-0.177006 -0.340742 -7.88344e-16)
(0.0146026 -0.487407 4.55043e-16)
(-0.0273014 -0.67865 -6.96278e-16)
(0.19696 -0.340131 0)
(-0.0250988 -0.581439 -2.49586e-15)
(0.0343529 -0.70326 2.02823e-15)
(-0.0173039 -0.696187 -2.54774e-16)
(-0.0229022 -0.767613 -1.15222e-15)
(-0.0495539 -0.407459 0)
(-0.01374 -0.549183 -8.76483e-16)
(-0.0269565 -0.481318 -8.83436e-16)
(0.0252067 -0.501983 8.91284e-16)
(0.0387537 -0.51791 -8.46918e-16)
(0.124706 -0.476912 -2.43763e-19)
(0.00481097 -0.76799 0)
(-0.00934876 -0.783681 -2.74492e-16)
(0.00295964 -0.754895 -8.36286e-16)
(0.148248 -0.460684 0)
(0.0162096 -0.745787 0)
(-0.00141805 -0.775562 -5.61533e-16)
(-0.0604171 -0.364543 -3.61121e-18)
(0.00265018 -0.739275 -1.40312e-15)
(-0.00733087 -0.735829 -1.15081e-15)
(-0.152995 -0.495731 0)
(-0.0475852 -0.233703 4.50587e-19)
(-0.0638057 -0.315646 0)
(-0.00363286 -0.757885 1.63695e-15)
(-0.193765 -0.491883 0)
(-0.00771954 -0.775665 -1.11897e-15)
(0.0415578 -0.766604 1.16447e-15)
(-0.0510151 -0.766728 2.81687e-16)
(0.0312628 -0.74516 -1.45482e-15)
(-0.00429499 -0.753293 1.03104e-15)
(-0.296787 -0.582138 0)
(-0.2863 -0.573332 0)
(0.294901 -0.575692 -9.50631e-16)
(-0.0258869 -0.776929 -1.55659e-15)
(-0.0256929 -0.749174 -2.96297e-16)
(-0.281871 -0.561516 0)
(-0.0154148 -0.760448 5.49557e-16)
(-0.0256545 -0.712528 -2.62593e-16)
(-0.204471 -0.460295 0)
(0.00710341 -0.773507 2.76905e-16)
(-0.0120699 -0.753114 2.21106e-18)
(0.00435523 -0.704779 8.50389e-16)
(-0.0106824 -0.73647 0)
(-0.0199787 -0.752893 0)
(0.0224243 -0.748799 0)
(-0.00315149 -0.736401 -1.1303e-15)
(-0.0398098 -0.76307 1.58888e-15)
(-0.0192572 -0.775339 -3.19562e-17)
(0.000975228 -0.802006 5.30364e-19)
(0.418329 -0.664796 0)
(0.145762 -0.499776 -5.49957e-16)
(-0.170111 -0.371573 -3.8166e-16)
(0.178642 -0.354834 -3.77152e-16)
(-0.183426 -0.380256 -3.88674e-16)
(0.21211 -0.36775 5.72328e-16)
(0.186334 -0.344311 0)
(-0.178582 -0.390839 2.01102e-16)
(-0.032304 -0.717281 0)
(0.142605 -0.381802 0)
(-0.151237 -0.380947 0)
(0.0078399 -0.783445 -5.31025e-16)
(-0.182101 -0.389236 -3.02989e-16)
(0.184947 -0.460952 6.86705e-16)
(-0.164398 -0.440995 -1.96712e-16)
(-0.027478 -0.635861 -2.8125e-16)
(-0.0865508 -0.134105 0)
(-0.00352729 -0.714493 1.07743e-15)
(0.150752 -0.36334 0)
(0.0163779 -0.784273 5.60977e-16)
(-0.0195039 -0.55238 0)
(0.0118966 -0.757725 2.70847e-16)
(0.233324 -0.552443 2.08721e-15)
(0.0227759 -0.74334 5.24611e-16)
(-0.326436 -0.325806 0)
(0.28725 -0.493621 -9.15371e-16)
(-0.286871 -0.23553 4.22173e-16)
(-0.518187 -0.547184 1.44511e-15)
(0.146031 -0.578731 -5.4397e-16)
(-0.440008 -0.574857 -5.33825e-16)
(0.300573 -0.164969 4.15641e-16)
(-0.0115908 -0.775459 1.44535e-15)
(-0.225657 -0.543579 0)
(0.242479 -0.524919 4.59796e-16)
(-0.124829 -0.323406 5.32926e-16)
(-0.0160446 -0.66656 -1.95245e-15)
(0.253627 -0.557424 -2.47414e-16)
(-0.261939 -0.556629 0)
(-0.00598939 -0.636816 5.37091e-16)
(0.02338 -0.73293 -1.03973e-15)
(-0.0126756 -0.655363 -1.59391e-15)
(0.000580543 -0.104335 2.70816e-16)
(-0.254763 -0.547838 0)
(-0.301346 -0.58008 -1.32931e-16)
(0.209398 -0.516036 0)
(0.0400636 -0.649956 0)
(0.0694798 -0.49974 0)
(0.0555257 -0.593633 -1.05856e-15)
(0.0913469 -0.486217 0)
(-0.485949 -0.571065 -9.37161e-16)
(0.0785818 -0.348666 7.71274e-16)
(0.455226 -0.432667 0)
(0.00576514 -0.688839 -5.51142e-16)
(0.0192652 -0.485077 -2.66045e-16)
(0.00755463 -0.67546 0)
(-0.596695 -0.613876 1.12213e-18)
(-0.00858896 -0.692994 0)
(-0.0395401 -0.320977 7.75864e-16)
(-0.138724 -0.743456 0)
(-0.0781826 -0.672138 -6.1906e-16)
(-0.0614336 -0.581565 -2.63983e-16)
(0.486581 -0.505783 -6.69176e-16)
(-0.135417 -0.474033 5.1395e-16)
(0.0785342 -0.669705 2.74108e-16)
(0.148226 -0.591869 0)
(-0.0421051 -0.457782 2.65359e-16)
(-0.243366 -0.641905 -2.54061e-16)
(-0.0225253 -0.77535 0)
(-0.181838 -0.633718 -4.63368e-16)
(-0.173348 -0.49281 -5.20494e-16)
(0.0616647 -0.622303 1.33145e-15)
(0.325824 -0.455739 5.03792e-16)
(-0.195098 -0.50043 -5.31905e-16)
(0.18236 -0.469374 -7.42818e-16)
(-0.0346088 -0.750336 0)
(-0.197563 -0.524402 1.12161e-15)
(0.0485558 -0.459362 0)
(0.323639 -0.515541 -1.01751e-18)
(-0.285245 -0.491424 4.98135e-16)
(-0.1794 -0.567345 0)
(0.138103 -0.562001 -4.14445e-16)
(0.177926 -0.624539 0)
(-0.0416259 -0.732084 0)
(0.124859 -0.468556 4.64641e-17)
(0.0762334 -0.564255 4.98165e-16)
(-0.416254 -0.600354 4.75494e-16)
(0.0370202 -0.775911 -1.07906e-15)
(0.45331 -0.574445 5.89524e-16)
(0.0555172 -0.691004 0)
(-0.164205 -0.378625 0)
(0.17299 -0.546626 -8.19524e-16)
(0.295427 -0.556783 1.0059e-15)
(-0.177196 -0.591376 5.1505e-16)
(0.150057 -0.755458 3.68509e-18)
(-0.0981807 -0.532172 -1.06357e-15)
(-0.146154 -0.594893 5.29603e-16)
(-0.0130634 -0.73644 0)
(0.00127342 -0.717658 -3.18003e-16)
(-0.0155226 -0.720939 4.23139e-16)
(-0.388589 -0.561461 9.6227e-16)
(-0.0346791 -0.716765 -8.14559e-16)
(-0.0181255 -0.724276 -1.13299e-15)
(-0.383849 -0.525202 5.18785e-16)
(-0.302534 -0.558362 -1.00896e-15)
(0.0716796 -0.431755 0)
(-0.296498 -0.557779 0)
(-0.0558718 -0.639453 0)
(-0.2188 -0.513174 -5.0482e-16)
(0.0495822 -0.634412 4.71237e-16)
(-0.263073 -0.57097 -9.27731e-16)
(-0.0180743 -0.760871 0)
(-0.0824853 -0.818371 -5.48741e-16)
(0.198192 -0.423355 5.04804e-16)
(-0.00258847 -0.784714 0)
(-0.333254 -0.548025 0)
(0.208986 -0.73241 -1.07528e-15)
(-0.314623 -0.398363 -1.44698e-15)
(-0.0983996 -0.602019 1.36048e-16)
(0.215244 -0.520841 -5.40784e-16)
(-0.0293437 -0.679377 -8.0964e-16)
(0.321312 -0.543238 -5.33685e-16)
(-0.218703 -0.592844 4.692e-16)
(0.350258 -0.397012 0)
(-0.108475 -0.659684 1.08721e-15)
(0.184701 -0.541177 -5.86034e-17)
(-0.020336 -0.719847 -1.38524e-16)
(-0.0749848 -0.41408 -4.61515e-16)
(-0.184771 -0.242973 -7.91365e-16)
(-0.0300995 -0.730804 -1.46697e-16)
(-0.0117884 -0.690278 1.76861e-15)
(0.287568 -0.525819 1.46313e-18)
(0.202999 -0.591379 8.92372e-16)
(0.223277 -0.262552 7.82165e-16)
(0.20728 -0.392097 -3.89266e-16)
(0.414156 -0.500008 1.4246e-16)
(0.0058115 -0.77518 0)
(0.00693242 -0.687487 1.66355e-15)
(-0.503069 -0.602689 0)
(-0.041774 -0.692941 1.42901e-15)
(-0.0444444 -0.7073 -1.10305e-15)
(0.136284 -0.592889 -4.74347e-16)
(-0.0146024 -0.727885 -5.4937e-16)
(0.032733 -0.394541 1.33863e-15)
(-0.0723521 -0.778355 6.17675e-16)
(-0.375599 -0.591276 -9.15085e-16)
(-0.0330007 -0.398857 0)
(-0.345074 -0.574503 -2.02136e-16)
(0.137616 -0.520013 5.83669e-17)
(0.0090715 -0.73608 -1.22992e-15)
(-0.0243308 -0.709608 0)
(-0.220376 -0.544873 9.9232e-16)
(4.91709e-05 -0.722151 -6.08867e-16)
(-0.248898 -0.54054 9.05489e-16)
(-0.0284185 -0.659331 -9.23976e-16)
(0.0265752 -0.659553 2.31942e-16)
(0.266131 -0.509693 4.73089e-16)
(-0.0481891 -0.581506 -2.71879e-16)
(0.196844 -0.643345 9.93622e-16)
(-0.014343 -0.711359 0)
(-0.408709 -0.573078 2.85249e-16)
(-0.0291203 -0.743623 5.18289e-16)
(-0.257 -0.513525 -4.52101e-16)
(-0.00923805 -0.704754 -2.97302e-16)
(-0.176433 -0.653805 -4.84041e-16)
(-0.0718156 -0.735295 -4.98875e-16)
(-0.0147169 -0.7231 1.41058e-16)
(0.340176 -0.642175 0)
(-0.0103982 -0.720663 2.8864e-16)
(-0.247379 -0.592719 2.71739e-16)
(-0.258316 -0.555567 -1.2406e-15)
(-0.00466215 -0.639147 0)
(0.266017 -0.491533 -4.84608e-16)
(0.239808 -0.506442 -5.31068e-16)
(0.0435565 -0.736948 8.96335e-16)
(0.0595512 -0.692859 -6.20414e-16)
(0.0307508 -0.747117 -2.7717e-16)
(0.139785 -0.375065 -8.37223e-16)
(0.0306564 -0.772548 -1.37476e-15)
(0.227002 -0.605768 6.14416e-17)
(0.191068 -0.533953 -5.15776e-16)
(-0.0199555 -0.693361 0)
(-0.00637561 -0.718688 1.53261e-16)
(-0.0040038 -0.705847 -7.71154e-17)
(0.397118 -0.647865 2.60443e-16)
(-0.0446598 -0.725281 5.84409e-16)
(0.294199 -0.611842 1.47704e-16)
(0.291879 -0.465647 5.1077e-16)
(-0.0102987 -0.634651 1.89319e-15)
(-0.0480843 -0.697744 5.87112e-16)
(0.129004 -0.660052 5.96742e-16)
(-0.303764 -0.446374 0)
(-0.00789341 -0.777212 -5.77193e-16)
(-0.236892 -0.562426 5.19466e-16)
(-0.449555 -0.543441 5.17734e-16)
(-0.0326332 -0.714799 6.14275e-16)
(0.0313146 -0.711788 -6.41042e-16)
(0.121786 -0.645244 0)
(0.363012 -0.50075 -1.28879e-15)
(0.267317 -0.504863 -5.96224e-16)
(0.0940703 -0.75003 0)
(0.00881867 -0.676114 -6.01239e-16)
(0.0429867 -0.770991 1.43416e-16)
(-0.355075 -0.677087 5.24327e-16)
(0.409045 -0.641129 -8.32913e-16)
(0.234476 -0.543371 -2.99789e-17)
(0.38808 -0.40867 5.96552e-16)
(-0.298346 -0.569927 -1.0885e-15)
(0.149038 -0.573951 0)
(-0.44054 -0.620447 0)
(0.223809 -0.367768 0)
(-0.0460122 -0.636651 5.43276e-16)
(0.346368 -0.575169 0)
(-0.0400518 -0.731015 -9.33953e-16)
(0.0217555 -0.675003 6.18692e-16)
(-0.0213341 -0.704103 -1.67683e-16)
(-0.0427002 -0.702431 -6.70102e-16)
(-0.347687 -0.579963 2.98409e-16)
(0.260022 -0.515938 -5.03352e-19)
(-0.0711044 -0.758933 -1.58631e-16)
(0.0592888 -0.749227 1.94882e-15)
(0.0248724 -0.757652 -2.95041e-16)
(0.0445402 -0.750791 -6.31444e-19)
(-0.0835445 -0.704525 -1.32084e-16)
(-0.118749 -0.664601 1.73465e-16)
(0.110337 -0.675784 -1.13891e-15)
(-0.235582 -0.525761 0)
(-0.40914 -0.607275 0)
(0.31383 -0.393502 -6.19156e-16)
(-0.0468601 -0.670309 0)
(-0.395067 -0.532921 -3.07672e-16)
(0.0249091 -0.757098 0)
(-0.423301 -0.526415 7.63106e-17)
(-0.371211 -0.527809 5.70159e-16)
)
;

boundaryField
{
    front
    {
        type            empty;
    }
    back
    {
        type            empty;
    }
    bottom
    {
        type            zeroGradient;
    }
    left
    {
        type            noSlip;
    }
    top
    {
        type            uniformFixedValue;
        uniformValue    
        {
            type            scale;
            scale           
            {
                type            squarePulse;
                start           0.3;
                duration        0.3;
            }
            xScale          
            {
                type            constant;
                value           1;
            }
            value           
            {
                type            constant;
                value           (0 -0.7 0);
            }
        }
        value           uniform (0 -0.7 0);
    }
    right
    {
        type            noSlip;
    }
    inner_arc
    {
        type            noSlip;
    }
}


// ************************************************************************* //
