/*--------------------------------*- C++ -*----------------------------------*\
  =========                 |
  \\      /  F ield         | OpenFOAM: The Open Source CFD Toolbox
   \\    /   O peration     | Website:  https://openfoam.org
    \\  /    A nd           | Version:  9
     \\/     M anipulation  |
\*---------------------------------------------------------------------------*/
FoamFile
{
    format      ascii;
    class       volVectorField;
    location    "2.55";
    object      U;
}
// * * * * * * * * * * * * * * * * * * * * * * * * * * * * * * * * * * * * * //

dimensions      [0 1 -1 0 0 0 0];

internalField   nonuniform List<vector> 
1655
(
(0.032577 -0.0116027 -4.57814e-18)
(0.00981987 -0.0213763 3.02197e-17)
(-0.0839551 0.019517 2.45064e-17)
(-0.0166222 0.00499573 -1.46487e-17)
(0.0534431 0.0551333 0)
(0.0191781 0.00912363 9.2109e-18)
(-0.115357 0.0292355 0)
(0.0438919 0.159029 -1.62752e-17)
(0.095163 0.262831 0)
(0.0517474 0.049493 -7.98098e-18)
(0.0310629 -0.00721096 3.66481e-17)
(0.0432857 -0.0128616 -3.61042e-17)
(0.0294762 0.0948771 -1.97111e-21)
(0.0173585 -0.00557176 -1.90431e-17)
(0.00272628 -0.0920438 1.86972e-17)
(-0.152032 0.0106324 0)
(-0.187867 0.0945983 3.23646e-17)
(0.0225462 -0.134193 9.73466e-18)
(0.00989262 0.00263914 -3.67774e-17)
(0.00961471 -0.00158947 -1.05715e-17)
(-0.0122175 -0.0633707 4.28862e-18)
(0.089783 0.280795 0)
(0.0645268 0.104362 -1.96559e-17)
(0.0521145 0.0904506 9.13481e-18)
(0.0365177 -0.0118776 -5.75764e-18)
(-0.185106 0.0900973 -3.82522e-17)
(-0.0646956 -0.0204023 -1.69774e-17)
(0.0694259 0.245841 -1.94671e-17)
(0.057483 0.231773 2.62751e-17)
(0.0393203 -0.037062 -1.89791e-17)
(-0.164107 0.0448045 4.71807e-17)
(-0.00111351 0.0210962 -5.09164e-18)
(0.0125438 -0.059061 -6.99054e-18)
(-0.0847115 -0.0169473 0)
(0.0121294 -0.133842 0)
(-0.0844896 -0.0234716 0)
(0.0257998 0.0136442 -2.47867e-17)
(0.00757566 -0.0254718 0)
(0.0100026 -0.0584843 -9.56703e-18)
(0.0156514 -0.0320269 -3.26267e-17)
(0.00709315 -0.0703352 1.8366e-17)
(0.0618138 0.0874176 1.59e-17)
(0.00922424 -0.0524417 -1.00035e-17)
(0.0051097 -0.000473826 2.91337e-17)
(-0.00520966 -0.0432844 0)
(-0.0191306 0.0071058 0)
(-0.0228305 0.00449885 4.55676e-17)
(-0.0074514 -0.0106465 0)
(0.0433976 0.0289177 1.77877e-17)
(0.00968823 -0.0486984 2.43586e-18)
(0.0292249 0.0142028 2.73859e-17)
(-0.0359578 0.0261766 -1.83351e-17)
(0.0112551 0.0140259 -2.0149e-17)
(0.0933211 0.25577 1.73892e-17)
(0.0766764 0.0982437 -2.27043e-17)
(-0.027738 -0.00765568 0)
(0.0220246 -0.0630169 -8.89534e-18)
(0.00955763 -0.00458624 0)
(0.0214618 -0.00269008 0)
(0.0111774 0.0371045 1.9317e-17)
(-0.177803 0.0322782 -4.71493e-17)
(0.00988323 0.00508974 0)
(0.0465982 -0.0161631 0)
(0.0590889 0.180507 -4.49398e-18)
(0.0182141 0.00248235 0)
(-0.112124 0.046678 0)
(0.00642476 -0.00153903 4.25621e-17)
(0.0163332 -0.000549291 -2.10744e-17)
(-0.00460322 -0.148162 0)
(0.0548746 0.0813629 -1.81793e-17)
(0.000888169 0.000711557 2.34044e-17)
(-0.0916944 0.0337931 -1.11237e-18)
(0.0517284 -0.0424025 -1.17902e-18)
(-3.40501e-05 -0.10896 1.71037e-17)
(-0.149068 -0.0259189 -2.18081e-17)
(-0.00743149 -0.00865881 1.03738e-17)
(0.0516758 0.211209 -5.96717e-18)
(-0.00880409 -0.149742 0)
(-0.00101121 -0.0612253 0)
(0.052373 -0.0385693 0)
(0.0179149 0.00337212 2.34337e-17)
(-0.00968026 0.00752368 -1.05563e-17)
(0.070886 0.0875329 2.3186e-17)
(0.0147541 0.00162602 1.17544e-17)
(0.0569355 -0.0401287 0)
(-0.025162 -0.125713 0)
(-0.144541 -0.0183915 -1.31638e-17)
(0.0456888 -0.0512723 0)
(0.0613566 -0.0570094 -9.12755e-18)
(-0.0626274 -0.0697792 0)
(-0.0663929 -0.104096 0)
(-0.0923387 0.0129566 1.1495e-17)
(0.0197049 0.00689153 2.25128e-17)
(0.0251565 0.0149247 0)
(0.000557586 0.0277469 0)
(0.0177204 0.00476815 3.74855e-17)
(-0.00341697 -0.00269729 -3.6051e-17)
(0.0028501 0.000242113 0)
(-0.0209056 0.017912 -1.09092e-17)
(0.0280941 -0.0592459 2.31129e-17)
(-0.116205 0.00743315 -7.25192e-17)
(-0.0121282 -0.00338756 -2.37917e-17)
(0.0371809 0.0269728 -2.32168e-17)
(0.0052437 -0.00473167 2.49544e-17)
(0.0373785 -0.0192672 0)
(0.0173957 0.00792311 -1.43957e-18)
(0.0944021 0.202884 -1.9809e-17)
(0.0231508 -0.0259976 0)
(0.0241469 -0.0621992 0)
(-0.0572354 -0.0169773 -2.0393e-17)
(0.00968153 -0.0648944 1.60933e-17)
(0.0159265 -0.000432454 1.86489e-17)
(-0.0666165 -0.0055649 1.23202e-17)
(0.0570431 -0.0426468 2.11342e-17)
(0.103971 0.18034 1.88348e-17)
(-0.0346309 -0.128997 -1.18937e-17)
(0.0943034 0.191003 -2.01377e-17)
(0.00733852 0.00294499 0)
(0.0657003 -0.0530227 1.80876e-17)
(0.0370161 -0.0132342 -4.05987e-17)
(-0.0623584 -0.00276614 -3.48222e-17)
(-0.137652 -0.037949 3.54235e-17)
(-0.162779 0.00496035 -2.80399e-17)
(0.0996149 -0.00130328 2.6301e-17)
(-0.000114494 0.000825962 9.25688e-18)
(0.0644525 0.143799 0)
(0.0094382 -0.0432304 -2.30076e-17)
(0.00182587 0.0225281 2.07215e-17)
(-0.176178 0.0278717 -2.83413e-18)
(0.0348282 -0.0507233 -2.7564e-18)
(0.0634367 0.0390023 5.24853e-18)
(0.00958781 -0.0658926 2.83954e-17)
(0.069142 0.183845 1.74088e-17)
(0.0639731 0.132323 1.83415e-17)
(0.0150517 -0.0203057 0)
(0.0472547 -0.0691129 0)
(0.0616164 0.0679994 -1.07255e-17)
(0.0215045 0.0168648 1.82614e-17)
(0.017229 -0.0565387 9.71257e-18)
(0.0050747 -0.00267169 -9.65462e-18)
(0.0188647 0.0484282 1.25933e-17)
(-0.00751096 -0.03284 1.74216e-17)
(-0.0737908 0.00778862 0)
(-0.116987 -0.0437401 0)
(-0.213738 0.0976264 -1.07004e-17)
(-0.124535 -0.0368514 0)
(-0.0943734 -0.0343812 -3.74205e-17)
(-0.0327587 0.016565 3.01351e-17)
(-0.0579026 -0.00848958 1.94658e-17)
(-0.202302 0.0555271 0)
(-0.177469 0.0282977 1.84035e-17)
(-0.217235 0.0791882 -9.90267e-18)
(-0.138442 -0.0198261 1.92748e-17)
(-0.157068 0.000876892 1.68128e-17)
(-0.0160273 -0.147999 0)
(0.0061409 -0.0408183 3.71163e-17)
(0.00572008 -0.00235301 2.37113e-18)
(-0.123375 -0.034741 9.89242e-18)
(0.104617 0.192148 0)
(-0.0110009 0.00193876 -2.53162e-17)
(-0.113998 -0.0346236 2.82907e-17)
(0.13151 -0.0939223 0)
(0.102854 0.247649 -1.55559e-21)
(-0.126948 -0.0384573 0)
(-0.132989 -0.0441232 0)
(0.0185498 -0.00240037 -9.76212e-18)
(0.0810892 0.246587 0)
(0.0920868 0.167978 -3.80197e-17)
(-0.0098529 -0.00194888 5.85851e-18)
(-0.00964848 -0.162866 0)
(-0.203857 0.106742 0)
(0.100106 0.146387 0)
(-0.0887353 -0.014944 1.16361e-17)
(0.104031 0.221796 1.99897e-17)
(0.0596477 -0.0416948 1.23201e-18)
(0.104325 0.211371 1.99192e-17)
(0.0570653 0.0359697 5.2675e-18)
(-0.012845 -0.177197 0)
(0.051107 -0.0396803 -2.19733e-17)
(0.00766012 -0.0126651 1.7297e-17)
(-0.0263115 -0.0297836 2.50069e-17)
(0.0926536 0.113786 1.56481e-17)
(0.011524 0.00340609 -3.35373e-17)
(0.0733059 -0.000853646 -5.75597e-18)
(0.0161597 -0.0548658 -1.10458e-17)
(0.0309554 -0.0314866 0)
(-0.00312364 -0.0147499 0)
(0.0392038 -0.0358142 0)
(0.0356624 -0.0717899 0)
(0.101192 0.123876 -1.52196e-17)
(0.0048379 -0.0379548 -1.99084e-17)
(0.0194625 0.0098087 0)
(0.0309776 -0.0294461 -2.05056e-17)
(-0.0178428 0.0267683 2.57681e-17)
(-0.00941718 -0.0300149 0)
(0.0200534 -0.0219383 -1.24657e-17)
(0.0415616 -0.0443089 0)
(0.0185973 -0.0269261 0)
(0.038017 -0.0323889 2.37461e-17)
(0.0933696 0.0922642 0)
(0.0197739 0.00124342 1.3213e-17)
(-0.00487402 0.000323128 -5.91992e-18)
(-0.147339 -0.0039612 2.1402e-17)
(-0.154649 0.0203329 4.77932e-17)
(-0.0777561 -0.0789615 -1.81449e-17)
(-0.066384 -0.0495415 1.44499e-17)
(0.0124889 -0.059509 0)
(0.0172379 -0.0522887 0)
(0.0402631 -0.0522537 6.53145e-17)
(-0.109597 -0.0232915 0)
(0.0842952 0.0207398 3.45803e-17)
(0.0294693 0.0246959 -9.56167e-18)
(0.0359593 -0.0663969 0)
(0.0800228 0.162436 1.98839e-17)
(0.014077 -0.0163183 -2.05526e-18)
(0.0258354 0.00162892 4.49196e-17)
(-0.111724 -0.0294445 -1.11669e-17)
(0.105039 -0.0769158 0)
(0.0832196 0.0190454 1.96618e-17)
(0.105828 0.105036 0)
(-0.00651537 -0.00323998 0)
(0.00664312 -0.0547034 -4.19373e-17)
(0.0133634 -0.0577007 2.95938e-17)
(0.131311 0.138778 2.02615e-17)
(0.0141769 -0.0583931 -2.13635e-17)
(-0.058035 -0.0420442 2.05304e-17)
(-0.0984474 -0.05329 -2.03766e-17)
(-0.0686835 -0.102281 0)
(0.0857071 0.0171974 2.49234e-17)
(0.102538 0.0138867 1.99759e-17)
(0.00205334 -0.0886762 0)
(0.100494 0.0156649 -2.4964e-17)
(0.119141 0.011755 2.49729e-17)
(-0.0106514 -0.144968 -3.90047e-17)
(0.0108824 -0.0590045 -2.10986e-17)
(0.00281514 -0.0827043 2.05461e-17)
(-0.0143498 -0.0297077 0)
(0.0236412 -0.0428611 0)
(-0.0994992 -0.0484592 2.53812e-17)
(0.123585 0.0156002 1.99696e-17)
(-0.022442 -0.0550138 -1.91214e-17)
(0.00791868 -0.0258542 3.64752e-17)
(0.144313 0.00871217 -2.49848e-17)
(0.0343102 -0.0552256 1.73919e-17)
(0.129816 0.116169 5.06825e-18)
(0.0449673 -0.0595298 -2.57673e-17)
(-0.181646 0.0682805 1.51748e-17)
(0.102345 0.238813 0)
(-0.0327709 -0.0338177 -5.11945e-18)
(0.122375 0.135544 0)
(0.017124 0.000483778 -1.6665e-17)
(0.0489048 -0.0526606 4.13088e-18)
(-0.00121161 -0.0244264 -2.02017e-17)
(0.0504501 0.0237148 -1.44959e-17)
(0.00719263 -0.0611407 2.07406e-17)
(0.0977707 0.019307 -2.46814e-17)
(0.0309214 -0.0491574 -2.13262e-17)
(0.138828 0.11849 -5.04832e-18)
(-0.0127168 -0.190228 2.6828e-17)
(0.0142244 -0.0545239 1.95205e-17)
(0.146168 -0.139823 1.4999e-17)
(0.0497086 -0.034069 2.10225e-17)
(-0.132731 -0.0805858 2.02253e-17)
(0.0476599 0.0242133 1.99128e-17)
(-0.00492508 -0.0437691 2.02444e-17)
(0.113075 0.167627 2.01126e-17)
(0.0162262 -0.0574032 0)
(0.00660186 -0.0309551 -2.87266e-17)
(0.0145827 -0.0600419 1.11616e-17)
(0.0183379 -0.0348876 0)
(0.010903 0.0205683 -2.16375e-17)
(-0.0036156 -0.128161 1.53833e-17)
(0.000231444 -0.0305898 1.0686e-17)
(0.0251651 -0.0321482 0)
(-0.0129973 -0.162705 -3.18672e-23)
(-0.00467724 -0.120368 -1.54895e-17)
(-0.184384 0.0739047 0)
(0.136172 0.0953956 2.52364e-17)
(0.0461614 -0.0109185 -2.57898e-17)
(0.175286 -0.174243 4.90908e-18)
(0.0605783 0.0315775 2.08484e-17)
(0.119572 0.153757 5.04953e-18)
(-0.0103028 -0.143787 2.05024e-17)
(0.0277111 0.0380919 1.81986e-17)
(-2.01779e-05 -0.0555388 -3.42392e-17)
(-0.00191694 -0.0978863 -2.06527e-17)
(0.0533387 0.0113486 2.05773e-17)
(0.0190065 -0.0613507 1.85513e-17)
(0.0147082 -0.0595991 0)
(0.0102698 -0.11993 0)
(0.011243 -0.079895 2.02248e-17)
(0.0362859 -0.073126 1.9783e-17)
(0.0244099 -0.0513584 4.30146e-17)
(0.112851 0.17678 0)
(0.0560328 0.00119649 -2.05516e-17)
(-0.00284446 -0.0535356 5.19751e-18)
(0.025971 0.101865 0)
(0.0985636 0.0162752 -3.48045e-17)
(0.0239406 -0.0450595 -2.01527e-17)
(0.0438161 -0.047869 -5.13445e-17)
(0.0188182 -0.0551943 -2.1613e-17)
(0.00510947 0.000948816 0)
(-0.00174855 -0.00461227 3.12943e-17)
(-0.0304733 -0.060379 -5.15686e-18)
(-0.173683 -0.0936277 -4.02512e-17)
(0.0499305 -0.00496058 -2.19687e-17)
(0.0103892 -0.0480954 -5.23918e-18)
(-0.0318043 -0.0349347 5.11047e-18)
(0.0727411 -0.0118718 -5.11348e-18)
(-0.166155 -0.119883 -2.00523e-17)
(-0.000109239 -0.119399 0)
(-0.210765 0.103605 1.07691e-17)
(0.0206001 -0.028415 -5.14799e-18)
(0.164759 -0.152321 -4.99712e-18)
(0.114219 0.179135 0)
(0.0810585 0.0181533 0)
(0.0290047 -0.0787792 -2.01292e-17)
(0.0720067 0.0704369 -2.05453e-17)
(-0.177028 -0.12127 6.28643e-21)
(0.0241359 -0.0490534 2.26262e-17)
(0.0667482 0.0479042 0)
(0.02839 -0.0437672 -2.16538e-17)
(0.017758 -0.0592807 2.85548e-18)
(-0.0132136 -0.0608328 -5.18316e-18)
(0.0128421 -0.0542466 -2.10332e-17)
(-0.0194255 0.00534383 2.91147e-17)
(-0.017193 0.00387987 9.97167e-18)
(0.121436 0.1646 -2.54326e-17)
(0.0306408 -0.0424048 0)
(0.0517516 0.0257566 -2.01195e-17)
(0.009356 -0.0643579 0)
(0.0667372 0.0317772 2.0538e-17)
(0.00352597 0.00573513 9.22695e-18)
(-0.0647822 -0.0440744 -2.05292e-17)
(0.0408111 -0.0557851 2.04823e-17)
(-0.147596 -0.0602437 -1.52024e-17)
(0.0609027 0.023315 1.51209e-17)
(0.0225133 -0.0577645 -2.15165e-17)
(-0.119595 -0.0882215 0)
(0.018305 -0.0625603 0)
(0.0231226 -0.0558783 2.22909e-17)
(-0.0668246 -0.0813736 2.04321e-17)
(-0.012769 -0.165033 0)
(0.0918064 0.0159682 -2.48585e-17)
(0.0210283 0.0428289 0)
(-0.0427016 -0.0775468 -3.59799e-17)
(0.023295 -0.0274959 0)
(-0.000789668 -0.0503072 5.21676e-18)
(0.0157656 -0.0474141 0)
(0.00746445 -0.0412207 0)
(0.0274728 0.0667805 0)
(-0.0620792 -0.0636009 1.99776e-17)
(0.109577 0.012261 0)
(0.00975134 -0.055449 2.09684e-17)
(0.110029 0.19912 0)
(-0.141058 -0.139928 0)
(-0.0794013 -0.0724292 0)
(-0.118026 -0.120421 -5.07927e-21)
(0.118403 0.0385464 -2.02364e-17)
(-0.191232 -0.0933895 2.50326e-17)
(0.0238168 0.0504036 -1.74163e-17)
(0.0133651 -0.0641794 0)
(0.108948 0.219697 -5.40329e-18)
(0.171714 -0.151662 1.97705e-17)
(-0.00805004 0.0231729 2.10616e-17)
(0.00194259 -0.0255965 -1.76691e-17)
(0.0392771 -0.0445034 5.39266e-18)
(0.0238319 0.0495701 -2.00273e-17)
(0.0986411 0.0752511 0)
(-0.0215616 -0.100485 0)
(-0.00828375 0.000553813 0)
(0.0117937 -0.0583879 2.09821e-17)
(-0.00995714 0.0169815 0)
(-0.116562 -0.162616 0)
(0.0206109 0.0328633 0)
(0.0998227 0.00145578 5.08768e-18)
(0.101581 0.0638794 1.4999e-17)
(0.0818901 0.175821 -1.33179e-21)
(-0.00333513 -0.0912048 5.08636e-18)
(-0.0544531 -0.0485655 -2.05592e-17)
(0.00389685 -0.0861675 -5.2223e-18)
(0.197498 -0.147425 0)
(0.101399 0.158995 -2.09025e-17)
(0.143253 -0.168273 -2.46819e-17)
(-0.00928692 -0.0432344 -5.18115e-18)
(0.113074 0.19817 0)
(-0.11537 -0.160946 0)
(0.125764 0.0676234 -4.54805e-22)
(-0.00587422 -0.144772 0)
(-0.181911 -0.0795669 -5.02827e-18)
(-0.0453786 -0.0390573 1.91269e-17)
(-0.0545296 -0.0374731 -2.00289e-17)
(0.10512 0.0650464 -2.00147e-17)
(0.117874 0.177628 0)
(-0.0677587 -0.107748 0)
(-0.072127 -0.181196 -1.99407e-17)
(-0.12736 -0.127702 1.99647e-17)
(0.00215452 -0.0931929 0)
(0.108995 0.230543 0)
(0.117851 0.0711585 0)
(-0.144338 -0.134202 -2.00681e-17)
(0.0137444 -0.0655251 4.27361e-17)
(0.214731 -0.131412 4.92133e-18)
(0.126685 0.149448 -2.52001e-17)
(0.0412155 0.0324614 -5.02774e-18)
(0.00297053 -0.0602365 -2.07967e-17)
(0.116702 0.155344 2.03992e-17)
(-0.0682544 -0.0235224 -2.51216e-17)
(0.00206356 -0.0101142 0)
(0.0851911 0.0546946 0)
(0.0142724 0.0155243 0)
(0.221193 -0.0947353 4.92626e-18)
(0.0975438 -0.163413 4.97832e-18)
(0.0669143 0.0443852 0)
(-0.00220717 -0.0644725 0)
(0.217338 -0.0592422 -1.97432e-17)
(0.12371 0.158023 0)
(0.111434 0.0161593 0)
(0.0688624 -0.179122 -1.49669e-17)
(-0.0545599 -0.168511 1.99268e-17)
(0.112132 0.0655656 1.99653e-17)
(0.209095 -0.109982 -4.92526e-18)
(-0.0517542 -0.0111957 5.06106e-18)
(-0.0806047 -0.141774 0)
(0.0223793 -0.205338 1.9902e-17)
(-0.156492 0.0817568 -1.26701e-17)
(0.130965 0.0115802 0)
(-0.096089 -0.126411 1.51754e-17)
(-0.138922 -0.0520577 2.03225e-17)
(0.130514 0.0452055 2.49029e-17)
(-0.0035322 -0.0405494 0)
(0.0156448 0.0115249 -2.30582e-22)
(-0.0048442 -0.183555 0)
(0.0372218 0.0343818 -6.57632e-18)
(0.210843 -0.0709674 1.48126e-17)
(0.21771 -0.0796636 -1.48141e-17)
(-0.0154515 -0.110333 2.03349e-17)
(-0.106153 -0.0606081 8.58859e-18)
(0.00883146 0.00797568 0)
(0.22503 -0.0646002 0)
(-0.0394687 -0.00821716 1.76247e-17)
(0.0674274 -0.0881546 0)
(-0.0374113 -0.00670982 2.52024e-17)
(-0.0613795 -0.124162 0)
(0.0683914 -0.134784 0)
(0.226523 -0.0819607 -2.46453e-17)
(0.108583 0.0487538 1.9955e-17)
(0.0718677 0.0420791 0)
(0.111091 0.0454332 -3.34941e-22)
(-0.00797842 -0.00379958 2.01446e-17)
(0.118846 0.0402403 -4.98535e-18)
(0.185829 -0.0266727 -1.98498e-17)
(0.108468 0.0326006 -4.98826e-18)
(0.151274 -0.125723 4.94183e-18)
(0.123052 0.037447 -3.98719e-17)
(0.154743 -0.0797996 2.47633e-17)
(0.126695 0.0734899 0)
(0.0114244 -0.120388 0)
(0.127568 0.0487128 0)
(-0.00790538 0.00708763 0)
(0.195245 -0.144112 -4.92734e-18)
(0.0967276 -0.0682144 -4.98135e-18)
(0.19635 -0.160296 4.92407e-18)
(0.179167 -0.0275117 -1.98675e-17)
(0.101809 0.0602863 -1.99965e-17)
(0.0914472 0.155363 4.01909e-17)
(0.0971094 -0.116066 -4.97016e-18)
(-0.0100185 -0.138577 0)
(0.153737 -0.038049 5.00604e-18)
(0.204733 -0.130888 0)
(0.193596 -0.115939 -1.97726e-17)
(-0.00111186 -0.096836 1.52217e-17)
(0.17696 -0.107491 4.94292e-18)
(0.0189375 0.0171964 5.03428e-18)
(0.183046 -0.0196042 1.98595e-17)
(0.196218 -0.105405 -4.93882e-18)
(0.179163 -0.0920605 -3.4656e-17)
(0.200355 -0.0685179 -1.48432e-17)
(0.157864 -0.00222251 1.50019e-17)
(-0.0196095 -0.000162987 -9.66638e-18)
(-0.150134 -0.103401 -2.50749e-17)
(0.0832145 0.0555719 0)
(0.169219 -0.0259528 -4.96167e-18)
(0.0845958 0.0289623 5.0027e-18)
(0.193499 -0.0817065 -4.94619e-18)
(0.175999 -0.0628821 -1.48528e-17)
(0.0275778 0.0153186 -2e-17)
(0.0246324 0.0132348 0)
(0.0408575 0.0341096 0)
(-0.0277422 -0.192197 -5.00985e-18)
(0.182404 -0.0150877 -4.46898e-17)
(0.069376 0.0352635 -2.00223e-17)
(0.203726 -0.038253 4.94697e-18)
(0.159951 0.026754 -4.97058e-18)
(0.15552 -0.0284069 -1.99029e-17)
(0.209279 -0.0897859 4.93543e-18)
(-0.0965795 0.0627642 -2.82748e-19)
(-0.00399757 0.00603623 0)
(0.213415 -0.0716137 1.48109e-17)
(0.162848 0.0300561 2.48413e-17)
(0.144849 -0.0132533 0)
(0.177909 -0.0840977 1.97993e-17)
(-0.0449856 -0.00916561 1.01222e-17)
(0.171392 -0.0174359 2.48487e-17)
(-0.0830273 0.062457 0)
(0.145897 -0.019023 1.4937e-17)
(0.0625496 0.023734 -2.00737e-17)
(0.155577 -0.0163608 -4.98203e-18)
(0.173739 -0.0310436 3.53737e-22)
(0.0553507 0.0224178 -1.50526e-17)
(0.111781 0.0833304 1.50458e-17)
(0.145427 -0.0245849 -2.48793e-17)
(0.14279 0.0515879 -4.97503e-18)
(0.189602 -0.074066 -4.94694e-18)
(0.0363717 0.0166744 0)
(0.159378 0.0219054 1.98796e-17)
(0.172852 -0.0242848 0)
(0.192494 -0.0419198 1.48624e-17)
(-0.08205 0.054086 1.79776e-17)
(-0.0812872 0.0466828 0)
(0.142442 0.00194033 -1.99415e-17)
(0.160811 -0.00401761 0)
(0.174989 -0.114268 3.97203e-17)
(0.177648 -0.020574 0)
(-0.10576 0.0564066 -1.92262e-17)
(0.190301 -0.0154455 2.4801e-17)
(0.121491 -0.0156661 -1.50615e-17)
(0.15616 -0.0224416 -2.61459e-22)
(0.181042 -0.0415702 4.96185e-18)
(0.135 0.0114807 -2.48933e-17)
(0.120896 -0.0109899 2.00928e-17)
(0.0720654 0.0328803 2.00241e-17)
(0.0131421 -0.00996138 -1.11813e-17)
(-0.0205468 0.000893006 1.89687e-17)
(-0.0101837 -0.00828158 1.25778e-18)
(0.0129679 -0.0177507 2.38908e-18)
(0.00280529 0.00221846 -1.13058e-22)
(-0.00770011 0.00521596 -4.08574e-17)
(-0.0207199 -0.00421669 0)
(-0.0176167 0.0042101 -1.7686e-17)
(-0.0151184 -0.00698765 -2.95813e-17)
(-0.0382552 0.0334987 -5.23835e-17)
(-0.0121058 -0.00686871 -2.00845e-17)
(-0.0209115 0.0048183 0)
(0.0197485 -0.0161641 2.93921e-17)
(-0.00731215 -0.00533019 2.02213e-17)
(0.00517174 -0.00243927 2.19275e-17)
(-0.0253362 -0.00414793 0)
(0.176522 -0.057303 1.48814e-17)
(-0.0241092 -0.00609661 -3.11404e-17)
(-0.016159 0.00856377 0)
(0.153473 -0.034031 -4.97495e-18)
(-0.15326 0.0717507 0)
(0.11988 -0.0201276 -1.49759e-17)
(0.173862 -0.0378301 4.96223e-18)
(-0.066696 0.0586181 0)
(-0.0747611 -0.0297576 0)
(0.167705 -0.064856 4.9608e-18)
(0.148981 0.0181549 -1.99033e-17)
(0.0791006 0.0305464 -5.00346e-18)
(0.185281 -0.0221611 1.48949e-17)
(0.116101 0.0131322 -3.4935e-17)
(0.190189 -0.0165196 4.98679e-18)
(0.100634 0.0221806 -1.48544e-17)
(0.107286 0.0579594 0)
(-0.0335931 0.0396444 -1.44292e-21)
(0.188923 -0.0291244 2.48105e-17)
(0.0178546 -0.168255 -4.97156e-18)
(0.071147 0.0239709 4.69794e-24)
(0.124168 0.0149743 -1.48538e-17)
(0.158456 -0.0893348 -5.01135e-18)
(0.114443 0.0308258 3.99095e-17)
(-0.0671547 -0.027842 1.82576e-17)
(0.136545 0.0461152 4.48044e-17)
(0.125539 0.0199288 -2.4792e-17)
(0.189081 -0.0339063 -1.48762e-17)
(0.143435 -0.0299305 2.48749e-17)
(-0.0289951 0.00944727 -4.02558e-17)
(-0.0283391 0.0435074 2.01126e-17)
(0.216568 -0.122185 -2.46297e-17)
(0.106455 -0.0164989 2.00273e-17)
(0.107585 -0.0124833 -2.7099e-22)
(0.124936 0.075039 0)
(-0.015104 0.0329225 3.40598e-17)
(0.13565 0.0176839 1.49399e-17)
(0.106487 -0.0083754 2.03314e-17)
(0.0458148 0.0207316 3.95828e-17)
(0.175268 -0.0135453 1.98928e-17)
(0.164453 0.00715559 4.97087e-18)
(0.187374 -0.0186275 -1.49068e-17)
(0.161319 -0.0587566 -1.9845e-17)
(0.166029 -0.00927773 4.97609e-18)
(0.159602 -0.00449001 0)
(0.155492 0.00114478 -4.9786e-18)
(0.201668 -0.0271762 -4.95855e-18)
(-0.0102651 0.0383341 -2.01176e-17)
(0.157283 -0.0972126 3.97015e-17)
(0.0018888 0.00989028 -1.86416e-17)
(0.153289 0.00740904 -1.4929e-17)
(0.0981211 0.0269194 -1.99739e-17)
(0.152623 0.0139529 -1.49164e-17)
(-0.123985 0.0192022 4.9753e-18)
(0.0346396 0.0235526 1.45737e-17)
(0.05001 0.0249866 2.00749e-17)
(-0.141762 0.0391241 9.76767e-18)
(-0.146745 0.0552507 0)
(-0.0814663 -0.0243352 -1.06442e-17)
(0.0174634 0.0452761 -3.41661e-17)
(0.00932125 -0.0387774 4.06005e-17)
(-0.0936146 -0.0131254 4.6335e-18)
(0.172654 -0.0448727 -1.98432e-17)
(0.139587 -0.0348025 4.97541e-18)
(-0.0763045 0.0272665 0)
(-0.106092 0.000502841 -4.11057e-17)
(-0.0334762 -0.0119328 0)
(0.153198 0.0206344 -2.48579e-17)
(-0.0214814 0.0467059 2.0103e-17)
(0.103508 -0.0203396 1.9967e-17)
(0.205782 -0.0318968 -1.979e-17)
(0.0291083 0.0268857 2.50006e-17)
(-0.00480866 0.04153 -2.01199e-17)
(0.185335 -0.0194858 0)
(-0.0134679 0.0461959 -4.02099e-17)
(0.0583547 0.0235723 -2.40868e-17)
(0.197511 -0.0266293 2.48311e-17)
(0.0994015 0.0116702 1.99849e-17)
(0.175682 -0.0142606 -1.49275e-17)
(0.168681 -0.00921284 0)
(0.16394 -0.00349367 4.97926e-18)
(0.160967 0.00260686 -9.9411e-18)
(0.221751 -0.0570128 -4.93731e-18)
(0.171202 0.00947432 1.4898e-17)
(0.160988 0.00290926 0)
(0.0617551 -0.00289769 2.20715e-17)
(0.116624 -0.0241865 -2.49576e-17)
(0.159374 0.00971549 4.47478e-17)
(0.073478 -0.0100788 0)
(0.0503581 -0.00966293 9.99158e-18)
(0.14955 -0.0393251 0)
(0.193354 -0.0364986 4.95825e-18)
(0.0914068 -0.0253174 -2.49691e-17)
(-0.0491133 -0.00230159 -1.72918e-17)
(0.226288 -0.0932349 1.47885e-17)
(0.0701278 -0.0126706 0)
(0.112217 -0.0274121 -2.63126e-17)
(0.0931598 0.0533441 2.00079e-17)
(0.169189 -0.052096 -4.96021e-18)
(0.0762617 -0.0052504 -2.19047e-17)
(0.166923 0.023685 -1.9865e-17)
(-0.179482 0.0915351 -4.99803e-18)
(0.15882 0.0166049 0)
(0.153769 -0.0702376 0)
(0.1996 -0.0342669 -4.95779e-18)
(0.195013 -0.0513893 0)
(0.194869 -0.0624374 2.47404e-17)
(0.107218 -0.0412651 0)
(0.203528 -0.0420321 4.95247e-18)
(0.134341 0.0315736 0)
(0.183272 -0.0203214 1.48956e-17)
(0.0426241 0.0304919 0)
(0.180221 -0.0492638 1.98432e-17)
(0.136547 0.0225161 4.97295e-18)
(0.146105 0.0135455 3.48273e-17)
(0.197878 -0.0451959 -2.47725e-17)
(0.215482 -0.0419574 0)
(0.106411 0.0256685 0)
(0.0436639 -0.00145267 1.96608e-17)
(0.0993709 -0.0232936 3.0838e-17)
(0.0554894 -0.00921744 0)
(0.133573 -0.0465814 0)
(0.134735 0.0168748 3.47566e-17)
(0.171884 -0.000500053 1.98693e-17)
(0.080899 0.00299369 -5.08478e-18)
(0.134081 0.0568718 0)
(0.111802 0.00937211 1.99603e-17)
(0.144744 0.00122757 9.96001e-18)
(0.143831 0.0462006 -4.9737e-18)
(0.0560282 0.0109091 0)
(0.089648 0.0230097 4.97692e-18)
(0.0331776 -0.000785617 -9.00573e-18)
(0.139599 0.0387528 0)
(0.139917 0.0285351 0)
(0.154518 0.00846401 -9.94413e-18)
(0.210717 -0.0383808 4.94821e-18)
(0.166094 0.0160464 -9.93444e-18)
(0.00450355 0.042892 5.02665e-18)
(0.0659913 -0.0138535 9.96683e-18)
(-0.0986487 -0.0337624 9.34117e-18)
(0.154458 0.0275364 0)
(0.158862 0.0234779 9.9402e-18)
(0.166462 0.0209224 -4.87819e-22)
(0.127814 0.0100459 4.98585e-18)
(0.123579 0.0601431 0)
(0.167263 0.0214396 4.96658e-17)
(0.143048 -0.0443548 2.4881e-17)
(0.143663 0.0352072 -4.97629e-18)
(0.0511889 0.000494722 -1.49262e-17)
(0.129185 0.0252941 0)
(0.124636 -0.0422437 -2.58522e-17)
(0.102412 -0.0295542 3.52123e-17)
(0.209054 -0.0450543 -4.95023e-18)
(0.132919 -0.0391331 4.97643e-18)
(0.131041 -0.0647035 2.11763e-17)
(0.157713 0.0130866 -2.98357e-17)
(0.118982 0.0582447 0)
(0.126544 0.0661738 -2.49156e-17)
(0.0870313 0.00576743 0)
(0.190574 -0.026625 -1.98522e-17)
(0.155596 0.0345663 4.473e-17)
(0.0947751 0.0386725 -3.04088e-22)
(0.0115743 0.0416458 2.01173e-17)
(0.177637 -0.0002196 2.48296e-17)
(-0.0587536 0.056884 0)
(0.195621 -0.0326647 -4.95877e-18)
(0.188507 -0.0254808 1.48887e-17)
(0.0624715 0.0464179 0)
(0.0590895 0.00584314 5.27955e-18)
(0.150746 0.0483138 1.9887e-17)
(0.21623 -0.060383 -1.48294e-17)
(-0.197077 0.0861844 0)
(0.168767 0.0142141 0)
(0.165109 0.028373 0)
(0.0143131 -0.117617 0)
(0.210463 -0.0549688 1.97743e-17)
(0.123289 0.139302 2.51545e-17)
(0.0150866 0.0395716 -2.01989e-17)
(0.146779 0.0423308 -4.97341e-18)
(0.126505 0.0321276 -1.99339e-17)
(0.18042 -0.034413 1.48946e-17)
(0.0753929 0.00724292 0)
(-0.137976 0.0711969 4.97214e-18)
(0.0922927 0.038663 4.49889e-17)
(0.136282 0.0532058 0)
(0.169794 0.0167736 -2.48319e-17)
(0.102533 0.048209 -4.99324e-18)
(0.137589 0.0422433 -1.49345e-17)
(0.120894 0.0549845 0)
(0.131358 0.00228059 -3.90327e-22)
(0.161627 0.0347737 -3.97475e-17)
(0.0982789 0.00347506 -5.08751e-18)
(0.0596885 0.030631 0)
(0.0956011 0.0524244 0)
(0.114245 -0.0469343 -1.64681e-17)
(-0.00935332 0.035866 3.8727e-21)
(0.158878 0.0303716 -1.98786e-17)
(0.17128 0.0143215 -1.48995e-17)
(0.148292 0.0492387 -1.98882e-17)
(0.148346 -0.063736 0)
(0.0416618 0.000960488 2.34748e-17)
(0.137542 0.00608362 1.00592e-17)
(0.146077 0.053329 -5.55821e-22)
(0.0705003 0.00456711 -5.0982e-18)
(0.0103348 0.0186496 0)
(-0.176599 0.0693728 -3.45691e-17)
(-0.122482 0.0740144 -4.0134e-17)
(0.0562713 0.0137684 0)
(0.111389 0.0323096 1.99624e-17)
(0.153865 0.0476735 1.98814e-17)
(0.210584 -0.0998213 0)
(0.115521 0.0533377 -1.99474e-17)
(-0.0504679 0.0521837 -2.00036e-17)
(-0.0752103 0.0581903 2.05967e-17)
(0.127965 0.0631783 1.49458e-17)
(0.0778588 0.0213156 0)
(-0.099261 -0.0109391 -1.96856e-17)
(0.147855 0.0441677 -1.98944e-17)
(0.122683 0.00617971 5.08021e-18)
(-0.00963054 0.041594 0)
(0.139241 0.0602772 0)
(0.0986535 0.0368631 -1.49838e-17)
(-0.0698587 0.0485846 2.00014e-17)
(0.12633 0.0359087 -4.98376e-18)
(0.0942254 0.0248005 0)
(-0.0981405 -0.0137884 0)
(0.183062 -0.0189991 -3.47679e-17)
(0.174039 0.00210203 -4.96691e-18)
(0.133922 -0.070903 5.33234e-18)
(0.155713 0.0414414 2.48506e-17)
(0.174876 0.00721438 1.48975e-17)
(0.175066 0.00240698 -3.47623e-17)
(0.149219 0.0525463 -2.48609e-17)
(0.145348 0.0592299 -1.98937e-17)
(0.137463 0.0638744 2.48858e-17)
(0.14719 0.0552649 4.47567e-17)
(0.170157 0.00684638 1.49009e-17)
(0.17202 0.00952518 -1.4899e-17)
(0.0782669 0.0314174 -5.09594e-18)
(0.200973 -0.0558946 0)
(0.155655 0.0432526 -3.97605e-17)
(0.176265 -0.00528087 -1.98728e-17)
(0.0740779 0.0150314 -2.00316e-17)
(-0.110394 0.060998 1.99127e-17)
(0.158103 0.03709 -1.98772e-17)
(0.0879809 0.0463349 0)
(0.131356 0.0730204 0)
(0.00331251 -0.0572982 0)
(0.177981 -0.0141925 1.98684e-17)
(0.00468813 0.0190837 0)
(0.0904828 0.0404286 -1.49952e-17)
(0.110169 0.0254936 0)
(0.0766531 0.0363389 0)
(0.114779 0.0645283 0)
(0.126275 0.0676394 -4.98242e-18)
(0.0939623 0.0219147 0)
(0.221473 -0.108838 1.96969e-17)
(0.174339 -0.00759109 -4.96773e-18)
(0.131582 0.0694243 0)
(0.0803958 0.0479677 -2.53148e-17)
(-0.0725497 0.0359348 -2.01038e-17)
(0.100383 0.0496245 0)
(0.179119 -0.0123545 4.96778e-18)
(0.109311 -0.167686 0)
(-0.116486 -0.016284 1.51312e-17)
(0.109966 0.0567814 0)
(-0.0223827 0.0126798 0)
(-0.0521594 0.0273944 -2.01679e-17)
(0.132722 0.0705716 0)
(0.138802 0.0655539 -1.99062e-17)
(0.121149 0.0619689 4.98407e-18)
(-0.128515 0.0524025 0)
(0.169514 0.000611433 1.49114e-17)
(0.132902 0.0639671 4.97875e-18)
(-0.0640296 -0.00213594 0)
(0.0669612 0.0386199 -1.36193e-17)
(0.175746 -0.0134764 -2.48547e-17)
(-0.0475953 0.0437775 -2.97209e-21)
(0.0994446 0.062615 -1.9999e-17)
(-0.0357895 0.00702955 2.01528e-17)
(0.137155 0.0686689 -1.99087e-17)
(0.102701 0.0150801 0)
(0.0114001 0.0265732 -1.51015e-17)
(0.130115 0.0751382 0)
(0.153672 -0.0101657 -1.99389e-17)
(0.141077 0.0629916 0)
(0.140088 0.0345952 4.97873e-18)
(0.112945 0.0704651 4.99465e-18)
(0.141196 0.0553529 0)
(0.114308 0.0637983 4.98975e-18)
(0.0617398 0.0264969 1.75176e-17)
(0.134546 0.0681356 1.49345e-17)
(0.018309 -0.0932889 0)
(0.138105 0.0221154 -1.49424e-17)
(-0.107635 0.0415267 0)
(0.0756633 0.0377071 0)
(0.0604693 0.028267 -1.80474e-17)
(0.130429 0.0720527 0)
(-0.129308 0.0293815 0)
(0.0634629 0.00813474 -5.23106e-18)
(0.116011 -0.129137 2.50096e-17)
(0.121987 0.0727499 -1.99529e-17)
(0.1561 0.0402231 -1.98816e-17)
(-0.0544509 -0.0434511 2.09486e-17)
(-0.0704994 -0.000786054 2.0361e-17)
(0.0991863 0.0614802 0)
(0.13493 0.0612252 -4.97905e-18)
(0.0855004 0.0452702 0)
(0.0814493 -0.0824751 -1.03529e-17)
(0.122221 0.0707933 6.60118e-22)
(0.10356 0.0544531 0)
(0.118259 -0.00634919 -2.53927e-17)
(0.0875066 0.0444731 0)
(0.0422362 0.0339819 -5.02654e-18)
(-0.074553 -0.00105238 1.59146e-17)
(-0.0791024 0.0134429 2.01499e-17)
(0.111729 0.0692534 1.99693e-17)
(0.139734 0.0302582 1.49361e-17)
(0.069666 0.0377501 -8.38522e-18)
(0.156954 0.0355774 3.97618e-17)
(0.113486 0.0659354 1.99653e-17)
(0.0397483 0.0364143 -5.0268e-18)
(0.0625572 0.0468754 0)
(0.124778 0.079799 0)
(0.111507 0.133673 2.01275e-17)
(0.148659 0.0397805 1.49201e-17)
(0.142309 -0.00757669 2.53539e-17)
(0.106521 -0.107186 -4.9603e-18)
(0.142865 0.0594984 0)
(0.0840512 -0.106869 0)
(0.18 -0.00772809 0)
(-0.220792 0.0254747 -1.98747e-17)
(0.0152401 0.0057258 0)
(0.103891 0.134199 -2.04625e-17)
(-0.192586 0.0582653 3.49963e-17)
(0.0470109 0.0247294 4.012e-17)
(0.106553 0.0437618 -1.99706e-17)
(0.169135 -0.0105152 0)
(0.108348 0.0413844 -1.99717e-17)
(0.151296 0.0314586 0)
(0.0835715 0.053412 0)
(0.124958 0.0792738 0)
(0.0980507 0.0709203 1.512e-17)
(0.108927 0.0586271 0)
(0.0218222 -0.0411844 0)
(0.123221 0.0205696 0)
(0.0759909 0.0548046 0)
(-0.0542916 -0.194528 -5.01398e-18)
(0.12692 0.0474995 0)
(0.180576 -0.0123569 2.48316e-17)
(0.121011 0.0754346 -4.9906e-18)
(0.115026 0.0874978 0)
(0.110613 0.0354846 -1.99663e-17)
(0.15069 0.0267679 -4.97388e-18)
(0.068708 -0.103835 5.17081e-18)
(0.124 0.0692556 0)
(0.0651292 0.0445738 -1.95077e-17)
(0.116556 0.0727798 -2.00189e-17)
(0.0863769 0.0132512 5.09936e-18)
(0.0899069 0.0637888 -1.50823e-17)
(0.0784147 0.0234394 2.55167e-17)
(0.0998913 -0.129368 -1.99386e-17)
(0.122375 0.0774805 0)
(-0.110761 0.0148561 0)
(-0.193058 0.0254099 0)
(0.108086 0.146539 0)
(0.102366 0.0791662 -1.50827e-17)
(0.099466 0.0459175 -5.03581e-18)
(0.119996 0.0756082 2.00341e-17)
(-0.191856 0.0817992 1.18196e-17)
(0.0951513 0.0307962 -5.04341e-18)
(0.0710176 -0.0841387 2.08624e-17)
(0.0668535 0.0401349 0)
(0.0869778 0.0736237 -1.59935e-17)
(0.131631 0.052602 4.98172e-18)
(0.178056 -0.00495017 0)
(0.126416 0.0755368 -1.99504e-17)