/*--------------------------------*- C++ -*----------------------------------*\
  =========                 |
  \\      /  F ield         | OpenFOAM: The Open Source CFD Toolbox
   \\    /   O peration     | Website:  https://openfoam.org
    \\  /    A nd           | Version:  9
     \\/     M anipulation  |
\*---------------------------------------------------------------------------*/
FoamFile
{
    format      ascii;
    class       volVectorField;
    location    "0.1";
    object      U;
}
// * * * * * * * * * * * * * * * * * * * * * * * * * * * * * * * * * * * * * //

dimensions      [0 1 -1 0 0 0 0];

internalField   nonuniform List<vector> 
578
(
(-0.18 -0.237 0)
(-0.103 -0.42 2.05e-16)
(-0.271 -0.357 -7.95e-17)
(0.0328 -0.502 -1.54e-17)
(0.0646 -0.137 -4.18e-17)
(0.0252 -0.562 -5.83e-17)
(-0.0686 -0.144 4.1e-17)
(0.0841 -0.155 -6.25e-20)
(0.398 -0.532 -1.28e-16)
(-0.0684 -0.277 3.68e-16)
(0.0273 -0.584 -7.93e-17)
(0.242 -0.465 0)
(0.0157 -0.493 6.75e-17)
(0.283 -0.505 -4.75e-16)
(-0.287 -0.514 2.37e-16)
(0.345 -0.411 -5.98e-17)
(-0.258 -0.298 3.21e-16)
(-0.44 -0.418 0)
(0.221 -0.424 0)
(0.395 -0.491 8.35e-17)
(0.0337 -0.547 0)
(0.271 -0.379 0)
(0.195 -0.203 -3.75e-16)
(-0.00723 -0.486 0)
(-0.0106 -0.409 0)
(0.214 -0.431 2.54e-16)
(-0.0321 -0.487 -3.09e-17)
(-0.00935 -0.271 2.44e-17)
(-0.0878 -0.493 -3.05e-16)
(0.368 -0.428 2.41e-16)
(-0.0188 -0.439 -3.37e-16)
(0.0247 -0.494 6.64e-17)
(0.436 -0.483 -2.08e-16)
(-0.0193 -0.529 1.17e-16)
(-0.242 -0.459 -2.36e-16)
(0.307 -0.346 -3.97e-16)
(0.237 -0.448 4.69e-16)
(0.201 -0.399 0)
(-0.35 -0.407 -2.35e-16)
(0.101 -0.205 0)
(0.112 -0.242 -3.27e-16)
(0.139 -0.251 3.65e-16)
(0.117 -0.233 0)
(-0.267 -0.463 0)
(0.416 -0.384 2.97e-17)
(-0.106 -0.214 0)
(-0.116 -0.252 3.22e-16)
(0.398 -0.534 -2.96e-17)
(-0.347 -0.413 3.52e-16)
(-0.04 -0.549 -6.74e-17)
(0.00941 -0.256 1.29e-17)
(0.0259 -0.498 -2.87e-16)
(0.326 -0.27 -1.48e-16)
(-0.0208 -0.529 0)
(0.00204 -0.482 2.47e-16)
(-0.0199 -0.584 5.22e-16)
(0.0896 -0.0649 8.88e-16)
(0.331 -0.255 -2.82e-16)
(-0.31 -0.379 -4.71e-16)
(0.18 -0.215 1.78e-16)
(-0.374 -0.42 2.45e-16)
(-0.29 -0.226 0)
(-0.467 -0.352 3.71e-17)
(0.265 -0.457 2.17e-16)
(-0.00837 -0.496 6.27e-17)
(-0.334 -0.531 1.24e-16)
(0.443 -0.513 -2.55e-17)
(0.0487 -0.574 1.86e-16)
(0.433 -0.441 -1.11e-16)
(0.247 -0.52 2.61e-16)
(-0.00645 -0.439 0)
(0.0081 -0.423 -9.51e-18)
(5e-05 -0.49 -6.84e-17)
(0.252 -0.526 0)
(0.00474 -0.619 1.19e-16)
(0.085 -0.154 0)
(0.305 -0.403 1.73e-16)
(0.233 -0.311 -1.61e-16)
(0.0101 -0.498 0)
(-0.159 -0.189 -9.93e-17)
(0.176 -0.46 -2.36e-16)
(-0.0931 -0.153 -3.53e-16)
(0.0578 -0.17 -1.57e-16)
(0.0941 -0.145 1.64e-16)
(-0.449 -0.533 -3.14e-17)
(-0.0817 -0.187 0)
(0.00408 -0.153 0)
(-0.0173 -0.609 -1.9e-16)
(0.161 -0.362 4.88e-20)
(-0.179 -0.4 2.53e-18)
(-0.0308 -0.522 0)
(-0.439 -0.522 6.15e-17)
(-0.167 -0.372 0)
(0.0392 -0.534 1.22e-16)
(0.372 -0.443 3.79e-16)
(0.262 -0.418 -3.47e-16)
(0.000217 -0.484 6.79e-17)
(0.00777 -0.485 -4.86e-16)
(-0.0209 -0.178 -6.82e-16)
(-0.266 -0.503 0)
(-0.322 -0.486 0)
(0.222 -0.487 -4.42e-16)
(-0.0348 -0.517 0)
(-0.268 -0.299 0)
(-0.00603 -0.483 0)
(0.261 -0.495 -3.56e-16)
(0.00645 -0.584 -1.23e-16)
(0.131 -0.247 0)
(-0.0473 -0.114 0)
(0.168 -0.291 -3.79e-16)
(0.319 -0.374 -1.03e-16)
(0.239 -0.498 0)
(0.4 -0.474 2.5e-16)
(0.292 -0.441 -2.24e-16)
(0.314 -0.442 2.51e-16)
(-0.027 -0.501 2.76e-16)
(0.0416 -0.544 1.3e-16)
(-0.238 -0.466 -2.16e-16)
(-0.15 -0.344 4e-17)
(-0.0081 -0.485 2.36e-16)
(0.179 -0.355 -2.54e-16)
(0.149 -0.25 1e-19)
(0.241 -0.48 -2.55e-16)
(0.0243 -0.474 -3.55e-17)
(0.12 -0.248 0)
(-0.214 -0.481 2.74e-16)
(0.118 -0.464 -2.49e-16)
(0.452 -0.483 -1.18e-16)
(-0.26 -0.532 1.38e-16)
(-0.211 -0.489 0)
(-0.255 -0.51 0)
(-0.223 -0.499 0)
(0.0461 -0.551 0)
(0.0497 -0.0991 3.91e-16)
(-0.252 -0.526 -2.51e-16)
(-0.24 -0.364 0)
(0.212 -0.387 0)
(-0.0144 -0.492 -2.34e-16)
(0.231 -0.445 2.58e-16)
(-0.219 -0.426 0)
(-0.109 -0.208 4.42e-16)
(-0.207 -0.481 0)
(-0.188 -0.364 0)
(0.00259 -0.43 0)
(0.0968 -0.189 0)
(-0.396 -0.46 9.34e-21)
(-0.179 -0.37 3.2e-16)
(-0.0378 -0.411 0)
(0.254 -0.52 2.62e-16)
(-0.216 -0.484 0)
(0.33 -0.525 0)
(-0.176 -0.224 0)
(0.0825 -0.09 0)
(0.0884 -0.174 4.47e-16)
(-0.283 -0.529 -2.41e-16)
(-0.0411 -0.501 -1.43e-16)
(-0.0953 -0.531 2.66e-16)
(0.0546 -0.526 -6.4e-17)
(-0.0679 -0.0718 -9.96e-17)
(0.354 -0.536 -2.1e-16)
(0.333 -0.526 2.96e-16)
(0.321 -0.477 3.01e-16)
(-0.0598 -0.114 -5.81e-18)
(0.28 -0.442 0)
(-0.00044 -0.143 1.9e-19)
(-0.216 -0.465 -4.52e-21)
(-0.000455 -0.254 -4.21e-16)
(-0.244 -0.451 0)
(0.0414 -0.42 -7.65e-17)
(-0.0343 -0.571 -1.05e-16)
(0.256 -0.375 0)
(0.126 -0.227 0)
(-0.138 -0.216 0)
(-0.0877 -0.173 -4.52e-16)
(-0.21 -0.391 0)
(-0.0111 -0.508 -6.36e-17)
(-0.000789 -0.514 -6.48e-17)
(-0.222 -0.45 2.54e-16)
(0.149 -0.231 4.76e-17)
(-0.0108 -0.43 1.55e-16)
(-0.127 -0.229 0)
(-0.188 -0.39 0)
(-0.145 -0.353 0)
(0.0106 -0.509 4.83e-16)
(-0.287 -0.412 1.82e-16)
(-0.0223 -0.302 -2.82e-16)
(0.123 -0.164 -1.6e-16)
(-0.268 -0.528 6.53e-17)
(-0.306 -0.536 2.52e-16)
(-0.00822 -0.259 -4.25e-16)
(0.302 -0.53 -2.52e-16)
(0.237 -0.394 0)
(0.192 -0.268 3.76e-16)
(-0.223 -0.399 0)
(-0.136 -0.257 0)
(-0.00658 -0.556 1.21e-16)
(0.026 -0.352 7.21e-16)
(-0.0256 -0.345 -5.66e-16)
(-0.234 -0.393 0)
(0.223 -0.397 0)
(0.0257 -0.311 -2.72e-16)
(0.0243 -0.526 -6.21e-16)
(0.0836 -0.289 -1.87e-16)
(-0.0178 -0.551 0)
(-0.0029 -0.527 -1.95e-16)
(0.246 -0.453 0)
(-0.274 -0.44 0)
(-0.384 -0.41 0)
(0.318 -0.541 2.56e-16)
(-0.107 -0.135 0)
(-0.148 -0.302 3.28e-16)
(-0.322 -0.549 -2.44e-16)
(-0.24 -0.499 -8.23e-18)
(0.00841 -0.539 6.28e-17)
(-0.209 -0.415 -1.57e-16)
(0.023 -0.509 0)
(-0.261 -0.459 -2.89e-16)
(0.262 -0.457 2.89e-16)
(-0.297 -0.547 2.53e-16)
(-0.0781 -0.152 -4.78e-16)
(0.293 -0.54 1.29e-16)
(-0.232 -0.444 0)
(0.161 -0.324 -3.16e-16)
(0.139 -0.24 0)
(-0.134 -0.246 0)
(-0.161 -0.321 6.41e-16)
(0.00187 -0.578 -5.95e-17)
(0.0206 -0.232 2.69e-19)
(-0.017 -0.227 1.6e-16)
(-0.00213 -0.142 3.57e-16)
(-0.0506 -0.155 -3.6e-16)
(0.026 -0.164 -1.78e-16)
(-0.049 -0.0986 -3.9e-16)
(0.159 -0.385 0)
(-0.164 -0.392 0)
(0.0827 -0.124 1.27e-16)
(0.0767 -0.139 0)
(-0.0779 -0.14 0)
(0.0427 -0.524 9.7e-17)
(0.148 -0.303 0)
(-0.0688 -0.126 0)
(0.069 -0.118 0)
(-0.00841 -0.569 -2.45e-16)
(-0.115 -0.217 0)
(-0.0141 -0.2 6.47e-16)
(0.0543 -0.113 0)
(-0.0584 -0.111 -3.69e-16)
(-0.0269 -0.286 7.63e-16)
(-0.0705 -0.103 0)
(-0.0248 -0.586 -5.95e-17)
(0.00627 -0.551 6.21e-17)
(-0.228 -0.502 0)
(0.0367 -0.44 0)
(0.0617 -0.142 -3.75e-18)
(0.00498 -0.135 0)
(0.201 -0.471 2.68e-16)
(-0.00234 -0.257 4.19e-16)
(-0.353 -0.54 -3.76e-16)
(0.0782 -0.128 0)
(0.0265 -0.285 4.15e-16)
(0.0784 -0.152 4.73e-16)
(-0.0735 -0.131 3.64e-16)
(0.0103 -0.199 -6.55e-16)
(0.0162 -0.321 4.08e-16)
(-0.167 -0.445 2.21e-16)
(0.195 -0.4 5.44e-16)
(0.127 -0.297 0)
(0.0375 -0.0769 -4e-16)
(-0.00531 -0.147 -3.63e-16)
(0.0228 -0.0753 0)
(-0.023 -0.0755 0)
(-0.23 -0.498 -2.56e-16)
(0.161 -0.35 0)
(-0.000225 -0.589 -1.77e-16)
(0.021 -0.54 -1.31e-16)
(-0.0112 -0.598 -3.49e-16)
(-0.028 -0.563 1.36e-16)
(-0.0374 -0.0767 0)
(-0.138 -0.238 0)
(-0.0156 -0.604 -2.98e-16)
(0.132 -0.245 0)
(-0.0193 -0.594 5.29e-16)
(0.00766 -0.598 0)
(0.0163 -0.568 -6e-17)
(-0.011 -0.607 1.17e-16)
(-0.0977 -0.189 -4.3e-16)
(0.044 -0.085 -7.87e-16)
(-0.0438 -0.0848 3.98e-16)
(-0.00361 -0.118 0)
(-0.00481 -0.256 -3.84e-16)
(0.196 -0.449 0)
(-0.241 -0.512 8.17e-18)
(-0.0308 -0.583 1.05e-16)
(-0.0772 -0.123 0)
(0.00592 -0.151 0)
(0.0144 -0.289 4.79e-17)
(0.0728 -0.13 -3.65e-16)
(0.206 -0.48 -5.82e-16)
(0.00446 -0.271 9.25e-17)
(0.00515 -0.285 -3.64e-16)
(-0.0202 -0.588 3.05e-16)
(-0.201 -0.457 0)
(0.00222 -0.168 3.35e-16)
(0.00149 -0.138 0)
(0.00912 -0.184 0)
(-0.00261 -0.177 6.32e-16)
(0.211 -0.476 2.63e-16)
(-0.00759 -0.498 -6.52e-16)
(-0.00444 -0.62 -2.27e-16)
(-0.00397 -0.612 0)
(0.178 -0.37 1.59e-16)
(0.000509 -0.628 1.68e-16)
(-0.000425 -0.63 -3.55e-16)
(-0.161 -0.351 0)
(-0.0105 -0.621 2.33e-16)
(0.0163 -0.599 2.46e-16)
(-0.229 -0.482 0)
(-0.0621 -0.142 0)
(-0.128 -0.297 0)
(-0.0147 -0.608 -2.92e-16)
(-0.194 -0.393 -3.15e-16)
(0.00505 -0.607 4.68e-16)
(-0.0207 -0.584 6.01e-17)
(-0.00704 -0.603 -1.88e-16)
(-0.0168 -0.536 2.52e-16)
(0.0107 -0.61 -1.1e-16)
(-0.331 -0.529 2.29e-16)
(-0.197 -0.376 0)
(0.281 -0.526 0)
(0.00827 -0.619 4.33e-16)
(-0.0249 -0.518 6.53e-17)
(-0.359 -0.513 -9.03e-17)
(0.000725 -0.624 1.16e-16)
(0.0156 -0.601 -2.44e-16)
(-0.176 -0.347 4.7e-16)
(-0.00825 -0.624 1.17e-16)
(0.0311 -0.575 -1.08e-16)
(0.0179 -0.594 -2.49e-16)
(0.0021 -0.504 0)
(-0.0287 -0.566 0)
(0.0195 -0.588 -1.23e-16)
(0.0131 -0.579 1.81e-16)
(-0.0012 -0.632 1.68e-16)
(-0.00146 -0.444 2.64e-16)
(-0.00477 -0.631 1.69e-16)
(0.255 -0.385 -7.86e-17)
(0.124 -0.468 1.5e-16)
(-0.0394 -0.0941 -3.97e-16)
(0.038 -0.0891 1.02e-16)
(-0.0421 -0.101 3.87e-16)
(0.0425 -0.1 0)
(0.0458 -0.0907 3.96e-16)
(-0.0481 -0.0937 1.97e-16)
(-0.00161 -0.606 -1.2e-16)
(0.0578 -0.119 0)
(-0.0597 -0.127 0)
(-0.00303 -0.633 -1.69e-16)
(-0.0841 -0.152 -3.38e-16)
(0.126 -0.196 0)
(-0.125 -0.198 0)
(-0.00574 -0.621 -1.86e-16)
(-0.0947 -0.0817 0)
(-0.000972 -0.634 5.79e-17)
(0.0396 -0.0977 4.43e-16)
(-0.00265 -0.635 -5.89e-17)
(0.00215 -0.546 -2.57e-16)
(-0.00579 -0.629 6.09e-17)
(0.187 -0.472 2.73e-16)
(0.0358 -0.56 1.06e-16)
(-0.312 -0.258 0)
(0.215 -0.47 0)
(-0.268 -0.174 -3.67e-17)
(-0.413 -0.392 2.4e-16)
(0.139 -0.497 -1.31e-16)
(-0.451 -0.509 -1.26e-16)
(0.261 -0.165 2.76e-16)
(-0.0281 -0.534 -6.49e-17)
(-0.078 -0.187 -4.72e-16)
(0.0775 -0.18 3.43e-16)
(-0.132 -0.336 -3.29e-16)
(-0.00188 -0.482 -2.52e-16)
(0.0762 -0.186 -2.37e-16)
(-0.0791 -0.189 0)
(0.0161 -0.598 -2.9e-16)
(0.00561 -0.615 1.73e-16)
(-0.00545 -0.58 3.73e-16)
(-0.0193 -0.154 -4.4e-16)
(-0.133 -0.256 3.86e-16)
(-0.168 -0.29 0)
(0.0721 -0.177 -2.96e-16)
(0.00592 -0.482 1.26e-16)
(0.0699 -0.483 0)
(0.0426 -0.528 2.65e-16)
(0.212 -0.46 -1.28e-16)
(-0.452 -0.464 2.05e-16)
(0.0514 -0.354 1.53e-16)
(0.47 -0.345 2.27e-18)
(0.0116 -0.592 3.4e-16)
(0.0241 -0.436 3.11e-16)
(-0.00748 -0.233 4.48e-16)
(-0.458 -0.498 -4.08e-16)
(0.00697 -0.244 -4.13e-16)
(-0.0346 -0.255 2.09e-16)
(-0.0534 -0.493 1.94e-16)
(-0.0211 -0.487 0)
(-0.0373 -0.517 0)
(0.42 -0.4 0)
(-0.109 -0.42 4.78e-16)
(0.0387 -0.578 -3.05e-16)
(0.102 -0.527 -2.57e-16)
(-0.0368 -0.466 -5.5e-16)
(-0.178 -0.485 7.07e-17)
(-0.0104 -0.572 -2.06e-20)
(-0.173 -0.405 -6.25e-16)
(-0.157 -0.462 -6.99e-17)
(0.0653 -0.552 6.12e-17)
(0.192 -0.413 -3.15e-16)
(-0.199 -0.425 -1.51e-16)
(0.258 -0.527 0)
(-0.0443 -0.569 6.34e-17)
(-0.232 -0.502 3.51e-17)
(-0.000846 -0.133 -1.5e-19)
(0.265 -0.532 0)
(-0.256 -0.502 3.94e-16)
(-0.22 -0.483 0)
(0.206 -0.469 -1.39e-16)
(0.0792 -0.185 5.21e-16)
(-0.0298 -0.548 -3.07e-16)
(0.0441 -0.111 -3.59e-16)
(0.216 -0.489 0)
(-0.388 -0.486 0)
(0.00328 -0.627 -1.16e-16)
(0.393 -0.405 -6.23e-17)
(0.0169 -0.483 0)
(-0.0446 -0.105 -1.89e-16)
(0.237 -0.507 -1.29e-16)
(0.179 -0.395 0)
(-0.134 -0.517 -2.61e-16)
(0.14 -0.344 0)
(-0.0691 -0.536 2.63e-16)
(-0.117 -0.509 -2.12e-16)
(0.0311 -0.574 0)
(0.0528 -0.549 1.37e-16)
(0.0157 -0.522 0)
(-0.392 -0.531 0)
(-0.0205 -0.607 2.54e-16)
(0.00526 -0.438 -2.43e-16)
(-0.297 -0.373 -2.8e-16)
(-0.247 -0.329 4.03e-16)
(0.00387 -0.14 0)
(-0.265 -0.53 6.68e-17)
(-0.0186 -0.485 0)
(-0.246 -0.492 -5.66e-20)
(0.0154 -0.483 1.23e-16)
(-0.28 -0.546 -2.41e-16)
(-0.0185 -0.461 0)
(-0.0354 -0.425 -5.17e-18)
(0.173 -0.413 1.43e-16)
(-0.00394 -0.621 3.68e-16)
(-0.28 -0.452 0)
(0.0938 -0.42 3.17e-16)
(-0.116 -0.127 2.26e-16)
(-0.0682 -0.567 -9.72e-17)
(0.0798 -0.198 -2.6e-16)
(-0.00809 -0.626 6.07e-17)
(0.305 -0.429 -6.11e-20)
(-0.0859 -0.207 0)
(0.116 -0.12 -2.23e-16)
(-0.0536 -0.565 1.31e-16)
(0.226 -0.478 -3.99e-16)
(0.0138 -0.568 -2.9e-16)
(-0.0139 -0.16 0)
(-0.0549 -0.0662 0)
(-0.0525 -0.517 1.49e-16)
(0.00447 -0.599 -2.51e-16)
(0.24 -0.48 1.23e-16)
(0.22 -0.489 2.78e-16)
(0.0463 -0.0517 2.01e-16)
(0.184 -0.227 7.97e-17)
(0.25 -0.289 1.33e-16)
(-0.0091 -0.576 0)
(0.014 -0.618 1.19e-16)
(-0.386 -0.456 -2e-16)
(0.00611 -0.615 -6.23e-16)
(-0.0493 -0.545 1.12e-16)
(0.165 -0.392 1.61e-16)
(0.00787 -0.575 2.13e-16)
(-0.000762 -0.291 0)
(-0.0337 -0.501 0)
(-0.393 -0.544 -1.21e-16)
(0.00171 -0.294 -1.5e-16)
(-0.409 -0.493 2.85e-17)
(0.225 -0.49 1.59e-17)
(0.0637 -0.552 3.38e-17)
(-0.0447 -0.559 -1.29e-16)
(-0.0768 -0.19 4.56e-16)
(-0.0206 -0.5 1.43e-16)
(-0.238 -0.511 1.39e-16)
(-0.0191 -0.497 1.23e-16)
(0.0184 -0.499 0)
(0.261 -0.519 -1.37e-16)
(-0.0261 -0.589 -2.56e-16)
(0.14 -0.331 0)
(0.0267 -0.585 3.73e-16)
(-0.345 -0.444 8.15e-17)
(-0.0631 -0.555 0)
(-0.15 -0.342 1.77e-16)
(0.0457 -0.56 0)
(-0.15 -0.347 3.27e-16)
(-0.0677 -0.538 0)
(0.0191 -0.515 2.54e-16)
(0.195 -0.407 0)
(0.0187 -0.452 -3.24e-16)
(-0.168 -0.378 -1.84e-16)
(-0.19 -0.42 -3.8e-17)
(-0.000245 -0.281 -3.7e-16)
(0.249 -0.499 1.39e-16)
(0.166 -0.368 0)
(0.00492 -0.47 0)
(0.068 -0.534 2.7e-16)
(-0.00361 -0.6 -1.86e-16)
(0.143 -0.348 -2.73e-16)
(-0.00307 -0.623 6.08e-17)
(0.136 -0.318 0)
(0.204 -0.449 1.59e-16)
(0.0224 -0.564 -3.67e-16)
(0.00659 -0.49 1.96e-16)
(0.0421 -0.498 -1.57e-16)
(0.392 -0.494 6.14e-17)
(-0.0252 -0.478 1.59e-16)
(0.253 -0.35 0)
(0.278 -0.536 0)
(-0.0243 -0.298 -3.48e-16)
(0.0146 -0.578 0)
(0.106 -0.523 3.08e-16)
(-0.128 -0.178 -2.27e-16)
(0.00384 -0.403 0)
(-0.178 -0.398 -2.07e-16)
(-0.247 -0.287 -2.09e-17)
(-0.0426 -0.466 3.34e-16)
(0.0453 -0.471 4.14e-19)
(0.0701 -0.536 -1.75e-17)
(0.132 -0.186 0)
(0.16 -0.364 1.86e-16)
(0.0628 -0.479 0)
(-0.0176 -0.58 -1.35e-16)
(-0.00351 -0.48 0)
(-0.249 -0.413 0)
(0.446 -0.505 -6.2e-17)
(0.165 -0.379 1.71e-16)
(0.355 -0.387 1.84e-17)
(-0.264 -0.516 -8.02e-17)
(0.207 -0.464 -1.36e-16)
(-0.385 -0.504 6.21e-17)
(0.23 -0.408 -8.4e-17)
(-0.0282 -0.604 -6.35e-17)
(0.363 -0.515 -1.61e-16)
(0.00217 -0.62 7.29e-17)
(0.0196 -0.573 7.31e-17)
(-0.0529 -0.558 4.02e-17)
(-0.0518 -0.547 0)
(-0.246 -0.351 0)
(0.138 -0.315 -4.19e-16)
(-0.0789 -0.542 0)
(0.0773 -0.539 -1.5e-16)
(0.00217 -0.543 0)
(0.0311 -0.497 1.46e-16)
(-0.0471 -0.578 9.54e-17)
(-0.0699 -0.529 -1.6e-16)
(0.0664 -0.525 -1.57e-16)
(-0.225 -0.489 1.44e-16)
(-0.284 -0.413 0)
(0.313 -0.343 -1.2e-16)
(-0.0527 -0.555 -3.11e-16)
(-0.35 -0.442 7.19e-17)
(-0.00133 -0.551 0)
(-0.362 -0.435 1.59e-16)
(-0.295 -0.342 0)
)
;

boundaryField
{
    front
    {
        type            empty;
    }
    back
    {
        type            empty;
    }
    bottom
    {
        type            zeroGradient;
    }
    left
    {
        type            noSlip;
    }
    top
    {
        type            uniformFixedValue;
        uniformValue    
        {
            type            table;
            format          csv;
            file            "inlet_v.csv";
            nHeaderLine     1;
            refColumn       0;
            componentColumns List<label> 3(1 2 3);
            separator       ",";
            mergeSeparators 0;
        }
        value           uniform (0 -0.481 0);
    }
    right
    {
        type            noSlip;
    }
    inner_arc
    {
        type            noSlip;
    }
}


// ************************************************************************* //
