/*--------------------------------*- C++ -*----------------------------------*\
  =========                 |
  \\      /  F ield         | OpenFOAM: The Open Source CFD Toolbox
   \\    /   O peration     | Website:  https://openfoam.org
    \\  /    A nd           | Version:  9
     \\/     M anipulation  |
\*---------------------------------------------------------------------------*/
FoamFile
{
    format      ascii;
    class       volScalarField;
    location    "0.94";
    object      p;
}
// * * * * * * * * * * * * * * * * * * * * * * * * * * * * * * * * * * * * * //

dimensions      [0 2 -2 0 0 0 0];

internalField   nonuniform List<scalar> 
90
(
-7.37976e-23
-5.66129e-23
6.8397e-22
1.8521e-21
9.5605e-22
-1.2728e-21
4.00806e-24
-1.87275e-22
-1.60676e-22
-1.88112e-22
1.62497e-22
-3.82383e-22
-1.31154e-22
4.63564e-22
-4.34725e-22
-2.95296e-21
3.94596e-21
-5.35734e-22
-6.13848e-22
-1.74112e-22
1.00905e-23
-1.86757e-22
8.43826e-23
1.39955e-22
-4.37817e-24
4.39575e-22
-3.0747e-22
6.20656e-23
8.93741e-22
-1.95225e-22
-1.16609e-22
7.60356e-22
4.955e-22
3.06692e-22
4.43474e-22
-3.20379e-21
-1.75438e-22
6.09856e-21
5.24104e-22
-3.5952e-22
-4.27717e-22
-5.17171e-22
5.87049e-22
-5.71848e-23
-1.89747e-23
7.34273e-22
-2.71096e-22
-1.50807e-21
-7.58315e-22
8.10374e-22
-2.01779e-22
-3.35037e-22
-4.03394e-22
5.40056e-22
-4.24653e-22
-1.0155e-21
-5.38804e-24
3.60098e-23
-8.32722e-23
8.98079e-22
-3.10077e-22
7.63922e-22
1.25854e-21
-2.21626e-22
-6.4379e-22
-1.89552e-22
6.68884e-22
8.58218e-22
5.09528e-21
5.13003e-22
-1.889e-21
-1.94035e-22
2.92029e-22
-1.50983e-21
-2.808e-21
-3.25818e-22
-1.94875e-22
4.07918e-22
1.31456e-22
3.43454e-24
5.758e-21
-4.37337e-23
4.87482e-23
-3.03303e-21
7.27919e-23
1.15189e-21
-1.16911e-22
-1.52878e-22
-2.14249e-21
-3.09384e-22
)
;

boundaryField
{
    back
    {
        type            empty;
    }
    front
    {
        type            empty;
    }
    bottom
    {
        type            zeroGradient;
    }
    outer_arc
    {
        type            zeroGradient;
    }
    right
    {
        type            uniformFixedValue;
        uniformValue    
        {
            type            scale;
            scale           
            {
                type            squarePulse;
                start           0.3;
                duration        0.3;
            }
            xScale          
            {
                type            constant;
                value           1;
            }
            value           
            {
                type            constant;
                value           15.1;
            }
        }
        value           uniform 0;
    }
    inner_arc
    {
        type            zeroGradient;
    }
}


// ************************************************************************* //
