/*--------------------------------*- C++ -*----------------------------------*\
  =========                 |
  \\      /  F ield         | OpenFOAM: The Open Source CFD Toolbox
   \\    /   O peration     | Website:  https://openfoam.org
    \\  /    A nd           | Version:  9
     \\/     M anipulation  |
\*---------------------------------------------------------------------------*/
FoamFile
{
    format      ascii;
    class       surfaceScalarField;
    location    "0.94";
    object      phi;
}
// * * * * * * * * * * * * * * * * * * * * * * * * * * * * * * * * * * * * * //

dimensions      [0 3 -1 0 0 0 0];

internalField   nonuniform List<scalar> 
122
(
-2.91522e-30
1.44829e-29
-4.78471e-30
7.7719e-30
-3.69628e-29
9.68539e-30
-3.64145e-30
-4.22712e-30
-6.32411e-29
-2.37509e-29
3.8782e-29
2.271e-29
-1.74971e-29
-7.52085e-30
5.61094e-30
1.7695e-29
-2.08461e-29
2.14856e-29
-2.29915e-29
2.37297e-30
3.98428e-30
2.589e-30
-2.61249e-30
2.7293e-30
-3.59764e-29
6.51575e-29
-2.25552e-29
3.79805e-29
-6.4871e-29
-1.29263e-28
1.10752e-28
8.44912e-29
-8.8027e-29
-6.49332e-29
1.75356e-29
-2.37037e-29
1.87269e-29
2.50432e-30
1.20351e-30
7.08466e-30
-1.32956e-30
1.8843e-29
-2.61049e-30
-8.27295e-31
2.05902e-29
1.76922e-29
1.54122e-29
3.61335e-30
2.77799e-29
-2.07328e-29
-1.27657e-29
1.32419e-29
1.58386e-29
1.11017e-28
6.56905e-29
-7.2529e-31
-1.93217e-29
-3.9058e-30
-8.0693e-31
1.00814e-29
1.38319e-29
-9.89881e-30
-3.373e-29
-2.39701e-29
2.24181e-30
-9.49598e-29
-2.53166e-29
2.11137e-30
1.39482e-31
1.85072e-29
1.67895e-29
3.01778e-30
-7.99466e-29
4.37787e-30
2.32152e-30
-1.38856e-30
-1.06575e-29
-5.44689e-30
2.12163e-29
9.79153e-30
-7.75866e-30
2.33893e-29
-1.38007e-29
-3.92217e-29
-2.57084e-29
5.85908e-29
6.16295e-30
4.69241e-30
-1.15705e-30
-1.27891e-29
3.42438e-29
-9.451e-30
1.40396e-29
1.67149e-29
-1.82603e-30
-3.43034e-30
-4.47386e-30
-1.02735e-29
2.25413e-30
2.60877e-30
3.61595e-29
6.53912e-30
2.71533e-29
9.77728e-30
-3.34724e-29
2.89046e-30
2.05258e-29
5.80439e-30
-1.09084e-29
2.79768e-29
2.84625e-29
9.40343e-30
-1.20712e-29
2.68504e-29
-1.15115e-30
-2.23893e-30
-1.65232e-28
2.38449e-31
4.27427e-30
-6.48624e-30
-3.23704e-29
6.47503e-30
)
;

boundaryField
{
    back
    {
        type            empty;
        value           nonuniform List<scalar> 0();
    }
    front
    {
        type            empty;
        value           nonuniform List<scalar> 0();
    }
    bottom
    {
        type            calculated;
        value           uniform 0;
    }
    outer_arc
    {
        type            calculated;
        value           uniform 0;
    }
    right
    {
        type            calculated;
        value           nonuniform List<scalar> 4(5.48179e-30 1.43438e-29 1.13949e-29 2.17272e-29);
    }
    inner_arc
    {
        type            calculated;
        value           uniform 0;
    }
}


// ************************************************************************* //
