/*--------------------------------*- C++ -*----------------------------------*\
  =========                 |
  \\      /  F ield         | OpenFOAM: The Open Source CFD Toolbox
   \\    /   O peration     | Website:  https://openfoam.org
    \\  /    A nd           | Version:  9
     \\/     M anipulation  |
\*---------------------------------------------------------------------------*/
FoamFile
{
    format      ascii;
    class       volVectorField;
    location    "0.94";
    object      U;
}
// * * * * * * * * * * * * * * * * * * * * * * * * * * * * * * * * * * * * * //

dimensions      [0 1 -1 0 0 0 0];

internalField   nonuniform List<vector> 
90
(
(-6.97006e-23 -9.32731e-25 2.98868e-39)
(-5.69895e-22 -3.15713e-23 -7.06331e-38)
(-2.8687e-21 3.37836e-21 6.58571e-38)
(8.67712e-22 2.60552e-21 -6.52224e-38)
(-7.91054e-22 -1.9545e-22 -1.67336e-37)
(3.54296e-22 3.29767e-22 5.61161e-38)
(6.02026e-23 -2.96879e-23 -3.36405e-39)
(-4.21562e-22 2.14139e-22 -9.70716e-39)
(1.1833e-22 4.3587e-22 0)
(7.24544e-23 4.16666e-23 0)
(9.49613e-23 -1.80324e-24 1.27191e-38)
(3.09609e-22 2.9907e-22 1.86197e-39)
(-3.47307e-22 3.75796e-22 -1.63835e-39)
(2.11779e-21 -1.27076e-21 -5.2785e-39)
(1.93282e-21 1.56157e-21 0)
(1.86941e-21 3.31569e-22 0)
(-1.31306e-21 2.88804e-21 2.32013e-37)
(-6.01966e-21 -1.77232e-21 3.04985e-38)
(-1.72489e-21 -6.07075e-22 0)
(-6.05658e-22 3.09799e-22 -1.95032e-39)
(4.03145e-23 2.2737e-22 -4.17098e-39)
(5.37156e-22 -3.8834e-23 -1.44992e-38)
(3.10609e-22 5.07265e-22 1.57964e-38)
(-4.29784e-22 -4.34496e-22 2.22217e-40)
(-1.50937e-22 -3.64287e-22 4.6554e-39)
(-3.91651e-22 9.41186e-22 -1.3469e-38)
(-3.76826e-22 -1.06995e-22 8.64391e-39)
(1.24607e-22 3.54131e-22 -9.24862e-39)
(-4.44661e-21 1.21152e-21 0)
(-7.54044e-22 8.48398e-23 9.22465e-39)
(-3.46783e-22 5.03186e-22 -4.91099e-39)
(-2.31567e-22 5.11604e-22 4.568e-38)
(-2.86139e-22 -2.17906e-22 1.14781e-38)
(-1.057e-22 -2.16814e-22 -2.37052e-38)
(-1.18234e-22 -3.58262e-22 7.81577e-39)
(1.98451e-21 2.13186e-21 7.59855e-38)
(-1.13727e-21 6.35432e-22 0)
(-2.19175e-21 2.68592e-21 0)
(-1.10039e-23 1.54004e-22 -1.20077e-38)
(9.93835e-23 8.38275e-23 -4.64026e-39)
(-2.59165e-22 -2.96212e-23 1.18379e-38)
(-6.80973e-22 5.49823e-22 3.79452e-38)
(1.9813e-21 -7.41674e-22 3.68265e-39)
(1.41834e-22 7.13124e-23 3.15106e-39)
(3.30293e-22 8.417e-23 1.43278e-39)
(8.0408e-22 1.05659e-21 -2.80906e-38)
(-1.79226e-22 6.64789e-22 -3.6437e-39)
(1.56919e-22 -5.66784e-22 -3.58089e-38)
(-9.62783e-22 -5.00122e-22 4.08556e-38)
(9.53381e-22 -2.49716e-21 -2.47597e-39)
(-2.17134e-22 -2.12361e-22 0)
(-1.26998e-22 -8.82645e-23 1.36989e-38)
(2.4386e-21 7.79612e-22 1.19986e-40)
(6.52057e-22 2.52554e-22 0)
(-1.06996e-22 1.83166e-22 -2.65363e-38)
(6.01388e-22 7.75e-22 3.75922e-40)
(2.22037e-22 5.19903e-23 -1.22502e-39)
(6.64721e-22 6.94163e-22 0)
(3.60292e-22 2.48432e-22 0)
(-2.78407e-22 6.91509e-22 -5.13574e-38)
(-9.81222e-22 9.68625e-22 -2.39075e-38)
(3.43491e-22 1.43125e-21 0)
(1.41086e-22 5.25335e-22 -5.88149e-38)
(-1.9012e-22 -6.16303e-22 7.12725e-39)
(-2.48061e-22 -8.02656e-23 -4.18373e-38)
(-2.45047e-21 2.04853e-21 -6.38835e-39)
(-6.9393e-22 7.14023e-22 0)
(-4.19497e-22 -3.70407e-22 0)
(-3.35228e-21 3.19723e-22 -2.14758e-38)
(-4.48911e-22 -1.42138e-21 -3.79026e-38)
(-4.87344e-22 -7.38236e-22 0)
(1.94849e-22 5.16201e-23 -8.26101e-39)
(1.12655e-21 -1.05518e-21 0)
(1.47664e-21 1.91546e-22 -1.15551e-37)
(-5.97022e-21 4.91426e-23 3.82681e-38)
(-6.49786e-22 3.16223e-23 1.24067e-38)
(1.75346e-23 1.8151e-23 2.01234e-39)
(1.10631e-21 -4.7353e-22 0)
(-2.22929e-22 -5.20063e-22 1.42637e-38)
(2.37716e-22 5.87667e-23 -4.71476e-39)
(-1.78727e-21 8.33775e-22 -2.39731e-37)
(2.70681e-22 9.49278e-23 -2.14442e-40)
(-4.34137e-22 2.25174e-22 5.61566e-39)
(-1.75437e-21 -6.38667e-23 -8.13771e-38)
(1.62682e-21 4.44355e-22 -4.08925e-39)
(3.86858e-22 -5.6762e-22 3.29057e-38)
(1.27094e-22 1.21993e-22 -4.39808e-39)
(-1.61754e-22 2.55514e-22 7.96497e-40)
(3.15954e-22 7.09737e-23 2.00172e-37)
(-2.10521e-22 2.14226e-23 8.00019e-39)
)
;

boundaryField
{
    back
    {
        type            empty;
    }
    front
    {
        type            empty;
    }
    bottom
    {
        type            uniformFixedValue;
        uniformValue    
        {
            type            scale;
            scale           
            {
                type            squarePulse;
                start           0.3;
                duration        0.3;
            }
            xScale          
            {
                type            constant;
                value           1;
            }
            value           
            {
                type            constant;
                value           (0 0.7 0);
            }
        }
        value           uniform (0 0 0);
    }
    outer_arc
    {
        type            noSlip;
    }
    right
    {
        type            zeroGradient;
    }
    inner_arc
    {
        type            noSlip;
    }
}


// ************************************************************************* //
