/*--------------------------------*- C++ -*----------------------------------*\
  =========                 |
  \\      /  F ield         | OpenFOAM: The Open Source CFD Toolbox
   \\    /   O peration     | Website:  https://openfoam.org
    \\  /    A nd           | Version:  9
     \\/     M anipulation  |
\*---------------------------------------------------------------------------*/
FoamFile
{
    format      ascii;
    class       volVectorField;
    location    "2.9";
    object      U;
}
// * * * * * * * * * * * * * * * * * * * * * * * * * * * * * * * * * * * * * //

dimensions      [0 1 -1 0 0 0 0];

internalField   nonuniform List<vector> 
1655
(
(-0.0282937 -0.00989659 -3.66715e-18)
(-0.00287941 0.0053709 2.41806e-17)
(-0.0228193 0.0934721 1.95949e-17)
(0.100668 -0.0119135 -1.16327e-17)
(0.0336041 0.0404391 0)
(-0.00303705 -0.0128754 7.37804e-18)
(-0.0605965 0.0684875 0)
(0.025101 0.0845983 -1.30907e-17)
(0.0592966 0.139695 0)
(0.0341401 0.0368677 -6.39593e-18)
(0.035144 -0.0646729 2.92611e-17)
(0.0235806 -0.0633849 -2.88254e-17)
(0.016049 0.0471803 -3.10671e-22)
(0.00315933 -0.0284188 -1.52009e-17)
(-0.00736565 0.062073 1.5035e-17)
(0.0124604 -0.0160337 0)
(0.00489205 -0.00303527 2.6347e-17)
(0.00483539 -0.0331172 7.86825e-18)
(-0.0422313 -0.0188153 -2.93269e-17)
(0.002214 -0.0218235 -8.44315e-18)
(0.00883616 -0.0361926 3.436e-18)
(0.0573004 0.156 0)
(0.0352969 0.0593291 -1.57959e-17)
(0.0270236 0.0500326 7.3366e-18)
(-0.0208675 -0.0340419 -4.60672e-18)
(0.00841697 -0.0069899 -3.12457e-17)
(0.00586939 -0.0105351 -1.36102e-17)
(0.0462513 0.147911 -1.57399e-17)
(0.0378955 0.141399 2.12622e-17)
(0.0037484 -0.0288414 -1.51932e-17)
(-0.127811 0.0204716 3.78697e-17)
(0.0316531 0.143021 -4.025e-18)
(0.00779894 -0.0714606 -5.58226e-18)
(0.0647908 0.0733302 0)
(-0.00133021 -0.0273811 0)
(0.0709297 0.0550149 0)
(0.0107752 -0.0113119 -1.98534e-17)
(-0.00542777 0.0107589 0)
(0.00583335 -0.069524 -7.63918e-18)
(-0.00904206 0.00939369 -2.61072e-17)
(0.00448584 -0.0240636 1.47415e-17)
(0.033356 0.0531571 1.27598e-17)
(0.00551219 -0.0628042 -7.98664e-18)
(-0.0454822 -0.00720245 2.32169e-17)
(-0.00197247 0.00772142 0)
(0.139431 -0.0250893 0)
(0.12507 -0.00449765 3.61736e-17)
(-0.00204693 0.00973695 0)
(0.0328716 0.0165246 1.42454e-17)
(0.00561567 -0.0595869 1.94477e-18)
(0.00406206 -0.0139496 2.19136e-17)
(-0.00673809 0.113665 -1.45664e-17)
(0.00851012 0.0827209 -1.60819e-17)
(0.058772 0.138607 1.40865e-17)
(0.0364577 0.0328281 -1.8304e-17)
(-0.0200913 -0.00761657 0)
(-0.00170435 -0.00223198 -7.14397e-18)
(0.0436298 -0.0534423 0)
(0.136779 -0.0571176 0)
(-0.00909322 0.00244349 1.55091e-17)
(-0.130158 0.0279408 -3.78268e-17)
(-0.0297261 -0.0244976 0)
(-0.0305475 -0.00889414 0)
(0.0370011 0.103295 -3.61982e-18)
(-0.0265924 0.0218838 0)
(-0.0970402 0.0376647 0)
(0.0601933 0.0196675 3.38766e-17)
(0.0742174 -0.0668366 -1.67254e-17)
(-0.00415258 -0.0240586 0)
(0.0286368 0.0458483 -1.45988e-17)
(0.0672551 -0.053319 1.86189e-17)
(-0.0698093 0.056152 -8.8963e-19)
(0.00991271 -0.0438675 -9.45034e-19)
(-0.0191027 0.048029 1.37997e-17)
(-0.0477987 0.0297564 -1.75864e-17)
(0.0133158 -0.0022749 8.28794e-18)
(0.0337191 0.125486 -4.82344e-18)
(-0.00887645 -0.0127879 0)
(0.00324146 -0.0143869 0)
(0.00472567 -0.0301981 0)
(-0.0198075 0.0262168 1.87203e-17)
(0.00843955 0.00108532 -8.43537e-18)
(0.0340167 0.028028 1.86975e-17)
(-0.0432593 -0.00116972 9.36114e-18)
(0.00825821 -0.0465514 0)
(-0.0391513 0.00738897 0)
(-0.0403236 0.0403833 -1.06475e-17)
(0.00812424 -0.0387151 0)
(-0.0128356 0.0373277 -7.3276e-18)
(-0.0281943 -0.00451218 0)
(-0.0302076 -0.000585033 0)
(-0.011396 0.0958383 9.23246e-18)
(-0.0393314 -0.0151774 1.79475e-17)
(0.016188 0.00474485 0)
(0.00264656 -0.013447 0)
(-0.0354938 -0.0180805 2.98739e-17)
(0.0517203 0.0162091 -2.87543e-17)
(0.125306 -0.0559991 0)
(0.0436296 0.138074 -8.62709e-18)
(0.0114358 -0.0789194 1.8434e-17)
(-0.0229237 0.0781788 -5.80371e-17)
(0.0153006 0.0229417 -1.89946e-17)
(0.027335 0.0169423 -1.85946e-17)
(0.000356257 0.0300222 1.99045e-17)
(0.0194522 -0.0149862 0)
(-0.0191436 -0.0228034 -1.14842e-18)
(0.0580328 0.112436 -1.59961e-17)
(0.00166841 -0.0211711 0)
(0.00800575 -0.0787433 0)
(-0.0249325 -0.0123043 -1.63747e-17)
(0.00414748 -0.0792937 1.28504e-17)
(0.0107297 -0.0391437 1.49176e-17)
(-0.0205481 -0.0153641 9.91029e-18)
(0.0104368 -0.0538851 1.69201e-17)
(0.0592442 0.101773 1.51932e-17)
(-0.0393265 0.00416506 -9.60545e-18)
(0.0567808 0.106724 -1.62607e-17)
(0.151017 -0.0402206 0)
(-0.0140911 0.0420391 1.45072e-17)
(0.0190917 -0.0118806 -3.25677e-17)
(-0.0202509 -0.014429 -2.79704e-17)
(-0.0220208 0.020811 2.86311e-17)
(-0.0897994 0.0356661 -2.25188e-17)
(0.14241 0.0809881 2.09199e-17)
(0.0334645 0.0269976 7.37945e-18)
(0.0379597 0.0804833 0)
(0.00414419 -0.0520059 -1.8373e-17)
(0.0041693 -0.0193689 1.6562e-17)
(0.0125943 -0.0108189 -2.29795e-18)
(0.00595428 -0.0629922 -2.20145e-18)
(0.0450093 0.00872223 4.20789e-18)
(0.00409811 -0.0802616 2.26766e-17)
(0.0437684 0.10566 1.40352e-17)
(0.0367429 0.0735234 1.47628e-17)
(0.000235103 -0.00734752 0)
(-0.00296367 0.0126375 0)
(0.0362754 0.0470562 -8.60835e-18)
(0.0068076 0.0474733 1.45909e-17)
(-0.00051156 -0.00198027 7.80507e-18)
(0.0747996 0.00776328 -7.68241e-18)
(-0.0036475 0.0109664 1.01204e-17)
(-0.000467906 9.89067e-05 1.39807e-17)
(0.00367671 0.000295657 0)
(-0.0168166 0.00385869 0)
(-0.0252922 -0.00728931 -8.69008e-18)
(-0.0381709 0.00790624 0)
(-0.00712833 -0.00199176 -3.01674e-17)
(-0.0101189 -0.00967543 2.41837e-17)
(-0.0059779 -0.00853663 1.56274e-17)
(-0.144912 0.00485993 0)
(-0.154658 0.0106696 1.47505e-17)
(-0.0935503 -0.00255151 -7.97743e-18)
(-0.0773098 0.0105265 1.54766e-17)
(-0.123113 0.0121195 1.34639e-17)
(-0.0454272 0.0143845 0)
(0.00297641 -0.0493334 2.96375e-17)
(-0.0351888 0.00989582 1.8918e-18)
(0.00580851 -0.000768709 8.00606e-18)
(0.0608313 0.10593 0)
(-0.0123311 0.0209295 -2.02183e-17)
(-0.00718719 -0.00526427 2.28458e-17)
(0.0183307 0.00472949 0)
(0.0611 0.123456 -4.57838e-22)
(0.0135989 0.00842548 0)
(-0.0236243 0.0020896 0)
(0.106 -0.0680293 -7.73003e-18)
(0.054134 0.142411 0)
(0.0536321 0.0955678 -3.06281e-17)
(0.0239281 0.0192312 4.6822e-18)
(-0.00888335 0.00013763 0)
(-0.0124094 -0.0229445 0)
(0.0446821 0.0555055 0)
(-0.011813 -0.0145284 9.38621e-18)
(0.0626938 0.116254 1.61684e-17)
(0.00726706 -0.0404528 9.87798e-19)
(0.0620856 0.112791 1.61073e-17)
(0.0409761 0.0124311 4.2234e-18)
(-0.0138373 0.0146095 0)
(0.0154936 -0.0653427 -1.75661e-17)
(0.00169215 -0.0220655 1.38042e-17)
(-0.0260253 -0.00140983 2.00901e-17)
(0.0374327 0.0421903 1.26339e-17)
(-0.0131123 -0.0209313 -2.68104e-17)
(0.134693 0.0554855 -4.5652e-18)
(-0.00579732 0.00437069 -8.85885e-18)
(0.0213799 -0.0716894 0)
(0.00736137 0.00661403 0)
(0.017656 -0.0700436 0)
(0.00334631 -0.0189691 0)
(0.0374955 0.0503581 -1.22819e-17)
(-0.00409775 0.00787875 -1.59438e-17)
(-0.0270291 -0.0208995 0)
(0.00332192 0.00153089 -1.64818e-17)
(-0.012759 0.104223 2.04755e-17)
(0.0277171 -0.0766086 0)
(0.000969076 -0.0116755 -9.98862e-18)
(0.00703546 -0.00692478 0)
(0.0236976 -0.0752149 0)
(-0.0142469 0.0323021 1.90213e-17)
(0.0279039 0.0399286 0)
(0.153367 0.0258679 1.04618e-17)
(0.107433 0.00608471 -4.70282e-18)
(-0.0517988 0.0574749 1.72285e-17)
(-0.0925844 0.041887 3.83573e-17)
(-0.00905574 0.00376254 -1.465e-17)
(0.0131457 -0.0412572 1.16178e-17)
(0.016333 -0.0700831 0)
(-0.0097706 0.00118803 0)
(0.00784488 -0.0675041 5.21446e-17)
(0.028481 0.0531844 0)
(0.0600722 0.159567 2.74456e-17)
(0.0124279 0.117024 -7.5868e-18)
(-0.00298232 0.00810471 0)
(0.0474193 0.0921646 1.60258e-17)
(0.00342262 -0.0258286 -1.64098e-18)
(0.0900587 0.0146278 3.56885e-17)
(0.0483271 0.0439047 -8.96741e-18)
(-0.00176536 0.0285008 0)
(0.0341853 0.100022 1.56817e-17)
(0.029164 0.0505515 0)
(-0.000346608 0.00994837 0)
(0.0109373 -0.0431141 -3.35727e-17)
(0.0103432 -0.0691318 2.36199e-17)
(0.0466862 0.076085 1.63628e-17)
(0.0132491 -0.0716777 -1.70514e-17)
(0.0341526 -0.0798285 1.63993e-17)
(0.0357693 -0.0793938 -1.63428e-17)
(-0.022156 0.0013513 0)
(0.0122653 0.0278661 2.00172e-17)
(0.0170672 -0.0160648 1.60431e-17)
(0.0387216 -0.0507802 0)
(-0.0110175 -0.120381 -1.99203e-17)
(0.0020285 -0.148638 1.98734e-17)
(-0.0177287 -0.00754744 -3.16235e-17)
(0.0196505 -0.0725007 -1.68435e-17)
(0.0353338 -0.0560648 1.64584e-17)
(0.0300294 -0.078878 0)
(-0.0136171 0.0108486 0)
(0.0330798 -0.0769121 2.03621e-17)
(0.00592404 -0.161119 1.59473e-17)
(-0.0313764 0.00415203 -1.53353e-17)
(-0.00635731 0.00901836 2.91881e-17)
(0.0230762 -0.143846 -1.99641e-17)
(0.000862862 -0.0101823 1.3954e-17)
(0.040344 0.0704279 4.09189e-18)
(0.00456478 -0.0273841 -2.06947e-17)
(-0.133905 -0.0117076 1.22572e-17)
(0.0614558 0.121701 0)
(0.0288667 -0.075128 -4.08314e-18)
(0.043183 0.0672524 0)
(-0.0429489 -0.0082321 -1.32805e-17)
(0.00370446 -0.0228525 3.31573e-18)
(0.03114 0.0316848 -1.6136e-17)
(0.0400957 0.1512 -1.1469e-17)
(0.0232091 -0.0705999 1.65578e-17)
(0.0572598 0.137346 -1.96105e-17)
(0.0167054 -0.0776782 -1.69989e-17)
(0.0443949 0.0790244 -4.07536e-18)
(-0.00873763 0.0352463 2.18044e-17)
(0.0103633 -0.0639392 1.55879e-17)
(0.0593489 -0.0184876 1.21471e-17)
(0.0159793 -0.0617178 1.68069e-17)
(0.040042 -0.0805612 1.62698e-17)
(0.00995124 0.0921357 1.5823e-17)
(0.014945 0.0293147 1.61847e-17)
(0.0610063 0.0986913 1.62142e-17)
(0.0128358 -0.0615434 0)
(0.00310005 -0.038526 -2.29388e-17)
(0.0130406 -0.0751371 8.9054e-18)
(0.00433324 -0.0398143 0)
(0.00892924 0.0639869 -1.72463e-17)
(-0.0184134 -0.013413 1.24391e-17)
(-0.00584511 0.0102667 8.55756e-18)
(0.0194681 -0.0640101 0)
(-0.0247156 0.00301515 2.82026e-22)
(-0.0269098 -0.00523471 -1.25129e-17)
(-0.127974 -0.0184683 0)
(0.039311 0.0746863 2.03629e-17)
(0.0175012 -0.00649157 -2.07249e-17)
(0.0873211 -0.0674438 3.97677e-18)
(0.022415 0.014381 1.67802e-17)
(0.0623575 0.0978274 4.06648e-18)
(-0.036133 0.00140627 1.65947e-17)
(0.00451961 0.0529675 1.45647e-17)
(-0.017024 0.0379827 -2.74823e-17)
(-0.0255412 -0.0036148 -1.66575e-17)
(0.00862851 0.0150602 1.6554e-17)
(0.0112681 -0.0792544 1.4798e-17)
(0.0162034 -0.0649107 0)
(-0.00896662 -0.0221782 0)
(-0.0129424 -0.00835114 1.62934e-17)
(0.00298253 -0.0205202 1.58909e-17)
(0.00915818 -0.0507894 3.4375e-17)
(0.0517521 0.0717967 0)
(-0.00582351 0.023618 -1.65141e-17)
(0.0288768 -0.0777969 4.1469e-18)
(0.0142806 0.0526246 0)
(0.0352596 0.0645591 -2.7825e-17)
(9.80969e-05 -0.00478814 -1.61841e-17)
(0.0130012 -0.0716994 -4.0979e-17)
(0.0172695 -0.0793695 -1.7231e-17)
(0.000250467 -0.00415019 0)
(-0.00525322 -0.00858438 2.50166e-17)
(0.0356508 -0.0786687 -4.11956e-18)
(0.0416625 -0.080296 -3.25254e-17)
(0.0164609 -0.00018576 -1.76416e-17)
(0.0235979 -0.0794911 -4.17567e-18)
(0.026066 -0.0712961 4.0771e-18)
(-0.00742292 0.0353405 -4.10642e-18)
(0.0462211 -0.081529 -1.61939e-17)
(-0.0412113 0.0086666 0)
(-0.0573542 -0.0261055 8.73659e-18)
(0.0221442 -0.0691481 -4.10474e-18)
(0.0758044 -0.0396014 -4.04694e-18)
(0.0624423 0.101445 0)
(-0.000532572 0.0355279 0)
(0.000493585 -0.00586074 -1.61749e-17)
(0.0310328 0.025673 -1.65351e-17)
(0.0480701 -0.0814522 3.29117e-22)
(0.0183173 -0.0791952 1.80289e-17)
(0.0207743 0.0241226 0)
(0.00760803 -0.0428112 -1.73077e-17)
(0.0147995 -0.0787897 2.27746e-18)
(0.0329219 -0.0770844 -4.13478e-18)
(0.0210444 -0.0790452 -1.67694e-17)
(0.125631 -0.0400544 2.31112e-17)
(0.073227 -0.0297762 7.93122e-18)
(0.0631205 0.0994854 -2.04821e-17)
(0.0183911 -0.0759376 0)
(0.0717073 0.032454 -1.60586e-17)
(0.0230932 -0.0654427 0)
(0.0067109 0.0275851 1.6514e-17)
(0.00104151 -0.00817073 7.37092e-18)
(0.0265414 -0.0692375 -1.6425e-17)
(-0.0237894 0.0240486 1.64558e-17)
(0.0340858 -0.0757394 -1.22469e-17)
(0.0636189 0.0419983 1.20688e-17)
(0.0122699 -0.0550383 -1.72021e-17)
(0.0423753 -0.0813444 0)
(-0.0261046 0.0124179 0)
(0.0161092 -0.0799288 1.77707e-17)
(0.0421738 -0.0799005 1.63592e-17)
(-0.0333746 0.00832368 0)
(-0.00361643 -0.0496451 -1.99257e-17)
(0.00551302 0.0252895 0)
(0.0396883 -0.078342 -2.8725e-17)
(0.00456803 -0.0372785 0)
(0.0275891 -0.0793047 4.15784e-18)
(0.0221371 -0.0795248 0)
(0.0193747 -0.0610645 0)
(0.0123215 0.0286966 0)
(0.00492554 0.0117131 1.60544e-17)
(0.00558236 -0.0908153 0)
(0.0221219 -0.0772996 1.67267e-17)
(0.0549119 0.0807211 0)
(0.053101 -0.0825218 0)
(0.040294 -0.080806 0)
(0.0464591 -0.0818331 -3.32968e-22)
(0.0211524 0.0591037 -1.63013e-17)
(0.0461962 -0.0784253 2.02794e-17)
(-0.00346446 0.0247987 -1.39776e-17)
(0.0191626 -0.062169 0)
(0.0579879 0.0958087 -4.38243e-18)
(0.0872136 -0.088726 1.59813e-17)
(0.00452368 -0.00708314 1.68588e-17)
(-0.0154253 0.0154527 -1.41792e-17)
(0.0165136 -0.0727915 4.30382e-18)
(0.00876271 0.0204451 -1.60759e-17)
(0.0201079 0.0444375 0)
(0.0468072 -0.0707296 0)
(-0.00377768 0.00612206 0)
(0.0192508 -0.0758783 1.67387e-17)
(0.000812721 0.00246944 0)
(0.0528644 -0.0825818 0)
(0.00782363 0.0139866 0)
(0.00365939 0.0452518 4.08929e-18)
(0.135443 0.0173167 1.19814e-17)
(0.0498251 0.0999034 -4.41041e-22)
(0.0438158 -0.0579652 4.07476e-18)
(0.0362357 -0.0804266 -1.64217e-17)
(0.0362195 -0.0390596 -4.18725e-18)
(0.0919844 -0.087108 0)
(0.0564428 0.0931092 -1.68308e-17)
(0.0842424 -0.0821571 -1.99515e-17)
(0.0299857 -0.0797698 -4.12973e-18)
(0.0564362 0.0845199 0)
(0.0555072 -0.0831205 0)
(0.026234 0.0622972 -5.2845e-22)
(-0.0428435 0.00923277 0)
(0.0386473 -0.0777984 -4.06863e-18)
(0.00662212 -0.0179289 1.53809e-17)
(0.0213285 0.0138972 -1.60737e-17)
(0.124699 0.0305404 -1.59883e-17)
(0.053254 0.0774303 0)
(0.0460113 -0.0798874 0)
(0.0599568 -0.0826456 -1.60824e-17)
(0.0553874 -0.0827289 1.61024e-17)
(-0.0313792 0.00640327 0)
(0.0619278 0.109428 0)
(0.109684 0.00149326 0)
(0.0486561 -0.0823373 -1.61963e-17)
(0.0208203 -0.0359191 3.42197e-17)
(0.0932327 -0.0968525 3.98157e-18)
(0.0641021 0.0996287 -2.02907e-17)
(0.0930406 0.0124646 -4.00288e-18)
(0.0266416 -0.0730452 -1.66082e-17)
(0.0472176 0.0672058 1.64843e-17)
(0.0285308 0.00592078 -2.01659e-17)
(-0.00353789 0.00575177 0)
(0.131096 0.0126029 0)
(0.00699469 0.00843305 0)
(0.0863576 -0.108553 3.97969e-18)
(0.079174 -0.0847504 4.00866e-18)
(0.105941 0.0187987 0)
(0.0306509 -0.0713003 0)
(0.0754157 -0.114193 -1.59272e-17)
(0.0496742 0.0748166 0)
(-0.00828705 -0.164555 0)
(0.0756775 -0.0811553 -1.20466e-17)
(0.0633036 -0.0835205 1.60661e-17)
(0.094238 -0.00497612 1.60359e-17)
(0.088233 -0.101229 -3.98119e-18)
(0.0989238 0.0291569 4.02912e-18)
(0.0610432 -0.0834672 0)
(0.0672154 -0.0791941 1.60749e-17)
(-0.104306 -0.0527319 -1.01788e-17)
(0.00749874 -0.170108 0)
(0.0484038 -0.0812123 1.22012e-17)
(0.0308215 -0.0718666 1.63802e-17)
(0.106778 0.0831707 1.99187e-17)
(0.0282236 -0.0794653 0)
(0.137431 0.0316559 1.22908e-21)
(0.0677752 -0.0819444 0)
(0.0258474 0.0250332 -5.26697e-18)
(0.0790887 -0.108832 1.19484e-17)
(0.0774749 -0.122388 -1.1939e-17)
(0.0480086 -0.068451 1.62857e-17)
(-0.00756373 -0.00259819 6.93197e-18)
(0.00466036 0.00415109 0)
(0.0770601 -0.120972 0)
(-0.00119601 0.00352073 1.41046e-17)
(0.0741031 -0.0897938 0)
(0.0500593 0.00702955 2.01111e-17)
(0.0637227 -0.0842381 0)
(0.077363 -0.087035 0)
(0.0833395 -0.12008 -1.98948e-17)
(0.140179 0.0335543 1.59227e-17)
(0.094491 0.0298616 0)
(0.128716 0.0544302 6.28701e-22)
(0.0370319 0.023143 1.60592e-17)
(0.111533 0.0997024 -3.97925e-18)
(0.105483 -0.149214 -1.58498e-17)
(0.106933 0.138855 -3.97358e-18)
(0.0839095 -0.0921793 3.9879e-18)
(0.105682 0.121937 -3.18264e-17)
(0.0777396 -0.0976885 1.99412e-17)
(0.123042 -0.0130287 0)
(0.0719474 -0.0865202 0)
(0.115013 0.0623774 0)
(0.121951 0.0186366 0)
(0.0886401 -0.0691082 -3.98765e-18)
(0.0726872 -0.0925914 -3.99228e-18)
(0.0924803 -0.0775811 3.98772e-18)
(0.111045 -0.14057 -1.58603e-17)
(0.0825467 -0.00038712 -1.6047e-17)
(0.0519828 0.089603 3.2385e-17)
(0.0784946 -0.0905718 -3.99228e-18)
(0.0696061 -0.0846592 0)
(0.0668853 -0.0989097 4.02542e-18)
(0.0894932 -0.0822274 0)
(0.0746225 -0.0726541 -1.59779e-17)
(0.0431081 -0.052273 1.219e-17)
(0.0836102 -0.0978053 3.98709e-18)
(0.0664259 0.0147494 4.01165e-18)
(0.12289 -0.0958853 1.58668e-17)
(0.0712664 -0.0860047 -3.9911e-18)
(0.050046 -0.0751241 -2.79833e-17)
(0.0650687 -0.125874 -1.19471e-17)
(0.0446158 -0.10902 1.205e-17)
(0.115463 0.0647405 -7.65007e-18)
(0.0519071 -0.0805771 -2.02295e-17)
(0.143018 0.000866589 0)
(0.0620174 -0.10281 -3.98728e-18)
(0.109843 0.131051 3.97647e-18)
(0.0598867 -0.108096 -3.98705e-18)
(0.0748349 -0.102112 -1.19612e-17)
(0.13151 0.0532755 -1.58347e-17)
(0.112395 0.107153 0)
(0.106008 0.00299333 0)
(0.0564458 -0.0780376 -4.04488e-18)
(0.124717 -0.056594 -3.58061e-17)
(0.14911 0.0339939 -1.59087e-17)
(0.0663722 -0.111075 3.98545e-18)
(0.0760471 0.124897 -3.97955e-18)
(0.104132 -0.135485 -1.58757e-17)
(0.0756965 -0.113841 3.98235e-18)
(-0.111672 -0.0561149 -2.26096e-19)
(0.106717 0.0888623 0)
(0.0744157 -0.127741 1.19376e-17)
(0.0821141 0.133381 1.98974e-17)
(0.162749 -0.0165652 0)
(0.045556 -0.0857155 1.59885e-17)
(0.100287 0.0480448 8.05715e-18)
(0.144885 -0.0561304 1.98564e-17)
(-0.0881678 -0.0887438 0)
(0.14352 -0.0778115 1.19085e-17)
(0.104747 0.146463 -1.59286e-17)
(0.151393 -0.0478063 -3.97745e-18)
(0.103271 -0.146992 -2.27329e-21)
(0.1217 0.093753 -1.19412e-17)
(0.0927263 0.0675337 1.20602e-17)
(0.118373 -0.118437 -1.98416e-17)
(0.0514342 0.024629 -4.0101e-18)
(0.0573841 -0.114611 -3.98737e-18)
(0.101578 0.132914 0)
(0.0825378 0.136141 1.59173e-17)
(0.125605 -0.116427 0)
(0.0760535 -0.150745 1.19247e-17)
(-0.107586 -0.0388127 1.43675e-17)
(-0.0921328 0.00937803 0)
(0.0484908 -0.0576728 -1.59913e-17)
(0.0349055 -0.173463 0)
(0.0586457 -0.0462812 3.2155e-17)
(0.131877 -0.0884947 0)
(-0.113358 -0.0107869 -1.53518e-17)
(0.0478543 -0.137062 1.99063e-17)
(0.146247 -0.0650867 -1.19878e-17)
(0.129382 -0.10491 1.6752e-21)
(0.0751685 -0.145152 3.97357e-18)
(0.0787473 0.107469 -1.98743e-17)
(0.167518 -0.00914265 1.6008e-17)
(0.138465 0.0559534 1.59101e-17)
(-0.0309334 0.0268536 -8.91373e-18)
(0.0351393 -0.00142845 1.51561e-17)
(-0.0249145 -0.0185222 1.00385e-18)
(-0.00248422 0.00587385 1.912e-18)
(-0.00104746 -0.000977211 3.34146e-23)
(-0.00396351 -0.00801765 -3.27024e-17)
(0.00761604 0.010375 0)
(0.0877479 -0.0254377 -1.40496e-17)
(-0.0359346 -0.0147309 -2.359e-17)
(-0.0430299 0.0744231 -4.17086e-17)
(-0.0336526 -0.0193776 -1.60153e-17)
(0.0655856 0.0021608 0)
(-0.0145083 0.0220391 2.34833e-17)
(-0.0151708 -0.0134207 1.61531e-17)
(-0.0343988 0.0174885 1.74732e-17)
(0.042838 0.00214824 0)
(0.0550589 -0.121274 1.19596e-17)
(-0.0204953 -0.00206954 -2.48972e-17)
(0.0327659 -0.021058 0)
(0.081779 -0.136341 -3.97455e-18)
(-0.0081871 -0.0105353 0)
(0.119264 -0.103855 -1.19182e-17)
(0.0837759 -0.145889 3.97409e-18)
(-0.0981261 -0.0823245 0)
(-0.0111045 -0.00303285 0)
(0.0419317 -0.104908 3.99083e-18)
(0.0757717 0.122871 -1.59189e-17)
(0.117869 0.1061 -3.97828e-18)
(0.108267 -0.126772 1.1906e-17)
(0.0473408 0.0931564 -2.79477e-17)
(0.0516599 -0.118129 4.01722e-18)
(0.0821764 0.189191 -1.17544e-17)
(0.0726651 -0.0169662 0)
(-0.0687927 0.0179265 -1.25819e-21)
(0.0908131 -0.167316 1.98189e-17)
(0.0715035 -0.0837434 -4.00472e-18)
(0.0970431 0.169663 1.66874e-21)
(0.0785517 0.141184 -1.18363e-17)
(0.0282672 -0.0441145 -4.05367e-18)
(0.103664 0.161424 3.17277e-17)
(0.00169681 0.000594112 1.47183e-17)
(0.0362989 0.0234409 3.61313e-17)
(0.0964535 0.192233 -1.96705e-17)
(0.088007 -0.164615 -1.19002e-17)
(0.0929762 -0.130515 1.98733e-17)
(0.0600297 -0.000649026 -3.21657e-17)
(-0.0831799 -0.0425997 1.59896e-17)
(0.0917469 -0.0956935 -1.99082e-17)
(0.134654 -0.0830039 1.59373e-17)
(0.160369 -0.0381141 9.71058e-22)
(0.122033 -0.00217888 0)
(-0.0442284 0.047016 2.71451e-17)
(0.0569702 0.105215 1.19747e-17)
(0.179079 0.019625 1.61421e-17)
(0.0808868 0.170264 3.1321e-17)
(0.0513816 -0.177901 1.58828e-17)
(0.14251 0.154328 3.95948e-18)
(0.0489091 -0.177529 -1.19243e-17)
(0.0428265 -0.108057 -1.5975e-17)
(0.0600307 -0.130405 3.98435e-18)
(0.072187 -0.0553628 0)
(0.0865655 0.0286924 -3.99629e-18)
(0.0554993 -0.143061 -3.98325e-18)
(-0.0648901 -0.0170517 -1.60347e-17)
(0.0344399 -0.0327358 3.21239e-17)
(-0.00133391 -0.00135019 -1.49241e-17)
(0.0997306 0.108461 -1.19409e-17)
(0.101473 0.178234 -1.58486e-17)
(0.112135 0.175201 -1.18685e-17)
(-0.108289 0.0111908 3.98808e-18)
(0.0467541 0.158753 1.15346e-17)
(0.13236 0.0682224 1.59245e-17)
(-0.0884193 0.00336126 7.86797e-18)
(-0.0423435 -0.00744495 0)
(-0.038911 -0.00475722 -8.56515e-18)
(-0.00351592 0.00387574 -2.74152e-17)
(-0.00135278 0.00284019 3.25615e-17)
(-0.0697339 0.00196273 3.71956e-18)
(0.0702228 -0.132801 -1.5924e-17)
(0.0719665 -0.123658 3.98366e-18)
(-0.000142662 0.00154627 0)
(-0.0990915 0.00980627 -3.29205e-17)
(0.00354764 0.00101981 0)
(0.116628 0.202484 -1.97436e-17)
(-0.0799287 -0.0956284 1.59806e-17)
(0.105645 -0.105489 1.59092e-17)
(0.0628759 -0.117523 -1.59358e-17)
(-0.0176822 0.0565862 1.99553e-17)
(-0.0727368 -0.0755586 -1.59909e-17)
(0.0588511 -0.180315 0)
(-0.0615788 -0.124827 -3.19497e-17)
(0.0734645 0.181491 -1.90224e-17)
(0.057993 -0.159333 1.99017e-17)
(0.0281367 0.0750425 1.60183e-17)
(0.0662627 -0.158961 -1.1932e-17)
(0.0764394 -0.0984406 0)
(0.0891068 -0.0171918 3.99651e-18)
(0.154767 0.144074 -7.91445e-18)
(0.074006 -0.125926 -3.97956e-18)
(0.139667 0.172596 1.18759e-17)
(0.101345 0.0677731 0)
(0.183807 0.039947 1.7457e-17)
(0.091581 -0.117376 -1.98852e-17)
(0.114072 0.146313 3.5668e-17)
(0.137738 -0.0671001 0)
(0.0944512 -0.0835483 7.94837e-18)
(0.0647409 -0.124222 0)
(0.0768168 -0.165939 3.96761e-18)
(0.0543939 -0.097686 -1.99651e-17)
(0.0820579 0.0942695 -1.37435e-17)
(0.0865623 -0.112714 1.19373e-17)
(0.107265 -0.0893562 0)
(0.067578 -0.111982 -2.10009e-17)
(0.0660259 -0.00435571 1.6076e-17)
(0.0580781 -0.121516 -3.98689e-18)
(0.186455 0.0248792 -1.73431e-17)
(0.101963 0.16425 -1.58663e-17)
(-0.00227376 -0.0214604 -4.06802e-18)
(0.121946 0.199373 0)
(0.0241788 -0.0731372 0)
(0.064426 -0.16088 -3.97391e-18)
(0.069804 -0.13584 0)
(0.0647236 -0.12815 1.99137e-17)
(0.00670815 -0.0675446 0)
(0.0693066 -0.145943 3.97997e-18)
(0.103135 0.16395 0)
(0.0807402 -0.158027 1.19043e-17)
(-0.0480153 -0.0807745 0)
(0.0654602 -0.130597 1.5924e-17)
(0.108114 0.206722 3.94265e-18)
(0.0845546 0.126326 2.78856e-17)
(0.0701897 -0.144713 -1.98762e-17)
(0.0661815 -0.124088 0)
(0.099112 0.195967 0)
(0.0643221 0.0407758 1.56969e-17)
(0.0790055 -0.10772 2.46155e-17)
(0.125306 -0.0731504 0)
(0.0309065 -0.094992 0)
(0.0965105 0.176441 2.76051e-17)
(0.120386 0.0671775 1.5906e-17)
(0.0560571 0.0741454 -4.06927e-18)
(0.118106 0.0293066 0)
(0.0542334 0.0974976 1.59842e-17)
(0.156376 0.124985 7.91476e-18)
(0.0951809 0.0864143 -3.98546e-18)
(-0.0184497 0.00724746 0)
(0.0855401 0.190666 3.94213e-18)
(0.0304072 0.0452199 -7.20139e-18)
(0.0995997 0.125135 0)
(0.104715 0.182824 0)
(0.118632 0.138033 -7.94263e-18)
(0.0648916 -0.133366 3.98238e-18)
(0.10924 0.156631 -7.94002e-18)
(-0.0652761 -0.119372 3.99155e-18)
(0.0781218 -0.0931316 7.92923e-18)
(0.0115016 -0.00209773 7.53159e-18)
(0.106524 0.1795 0)
(0.11241 0.192793 7.90758e-18)
(0.098937 0.151752 -3.49993e-22)
(0.0761027 0.107672 3.98417e-18)
(0.0713292 -0.0229369 0)
(0.115715 0.183407 3.9553e-17)
(0.0490827 -0.111203 1.995e-17)
(0.0987856 0.145025 -3.97317e-18)
(0.0482457 0.0526477 -1.1917e-17)
(0.105904 0.197944 0)
(0.0357171 -0.0963832 -2.07694e-17)
(0.0462653 -0.0988229 2.81547e-17)
(0.0670879 -0.136708 -3.97927e-18)
(0.0542891 -0.112 3.99112e-18)
(0.00255371 -0.0427918 1.71018e-17)
(0.105538 0.138586 -2.38275e-17)
(0.146969 0.00563324 0)
(0.148675 -0.0128236 -1.99402e-17)
(0.0439378 0.0797186 0)
(0.0692094 -0.180819 -1.58638e-17)
(0.0944351 0.143355 3.57539e-17)
(0.130071 0.0680794 5.61101e-22)
(-0.0422544 -0.129314 1.59459e-17)
(0.145232 0.102398 1.9827e-17)
(-0.0727005 -0.100899 0)
(0.0723681 -0.168911 -3.97271e-18)
(0.0828055 -0.171794 1.19e-17)
(0.135314 -0.00198059 0)
(-0.000682612 0.049911 4.22745e-18)
(0.0601474 0.0527844 1.60129e-17)
(0.0722144 -0.129708 -1.19377e-17)
(0.0171345 -0.0133156 0)
(0.131106 0.190652 0)
(0.0947633 0.152957 0)
(-0.0408262 0.0178901 0)
(0.0713381 -0.133587 1.59192e-17)
(0.0640878 0.0981696 2.02453e-17)
(-0.00542948 -0.0983738 -1.60751e-17)
(0.0921893 0.105519 -3.98489e-18)
(0.0254887 0.040444 -1.60614e-17)
(0.0903406 -0.157128 1.19008e-17)
(0.016851 0.0649664 0)
(-0.0130974 -0.0422496 4.02214e-18)
(0.0178586 -0.0174184 3.61988e-17)
(0.107794 0.0480179 0)
(0.124872 0.189406 -1.97839e-17)
(0.0406409 -0.0222014 -4.01462e-18)
(0.0347711 0.0348052 -1.20434e-17)
(0.13621 0.0216405 0)
(0.129752 0.111603 -1.77241e-21)
(0.0777024 0.117624 -3.18607e-17)
(0.078235 0.0797423 -4.06219e-18)
(-0.0278535 -0.151008 0)
(0.0625518 -0.0127347 0)
(0.00414286 -0.0636464 -1.32338e-17)
(0.0159078 -0.0698401 -8.4669e-22)
(0.0979979 0.159859 -1.58722e-17)
(0.128462 0.174625 -1.1872e-17)
(0.0855344 0.0693796 -1.59678e-17)
(0.0228776 -0.0802598 0)
(0.0153829 0.0513988 1.87361e-17)
(0.113729 0.115262 8.02344e-18)
(0.0912887 0.0519897 -1.09211e-22)
(0.0232573 0.0681525 -4.07966e-18)
(0.130488 -0.00850636 0)
(0.0182762 -0.01295 -2.80844e-17)
(-0.0441337 -0.0603318 -3.23429e-17)
(-0.0173159 0.0039073 0)
(0.0127959 0.0180229 1.60968e-17)
(0.0720967 0.0688426 1.59821e-17)
(0.0793666 -0.104242 0)
(0.0504046 -0.0219757 -1.60585e-17)
(-0.0301763 -0.0850736 -1.59848e-17)
(-0.0465393 -0.0890128 1.65032e-17)
(0.14065 -0.0038794 1.19615e-17)
(-0.00584615 0.0061547 0)
(0.0308922 -0.013132 -1.58277e-17)
(0.0470063 0.0499551 -1.60258e-17)
(0.0882106 0.102463 4.06467e-18)
(-0.0240209 -0.110634 0)
(0.109216 0.0169956 0)
(0.119595 0.09176 -1.19351e-17)
(-0.00235627 -0.0594554 1.60658e-17)
(0.0241081 0.0311068 -4.01676e-18)
(0.00536821 0.0151339 0)
(0.0412853 -0.0114363 0)
(0.0963331 -0.131507 -2.77754e-17)
(0.131758 0.105335 -3.96357e-18)
(0.00533741 -0.0300441 4.30424e-18)
(0.0832099 0.104519 1.99303e-17)
(0.146434 0.164456 1.18661e-17)
(0.152876 0.137378 -2.76849e-17)
(0.0636193 0.0385661 -2.00179e-17)
(0.0888837 0.0214444 -1.59964e-17)
(0.119865 0.00196692 1.9968e-17)
(0.0805984 0.0376691 3.59884e-17)
(0.12932 0.143151 1.18931e-17)
(0.13777 0.174769 -1.18621e-17)
(0.00831508 -0.0160946 -4.09918e-18)
(0.067732 -0.132738 0)
(0.0716203 0.0841226 -3.19628e-17)
(0.122151 0.0231989 -1.59089e-17)
(-0.00567747 0.0190149 -1.60893e-17)
(-0.00269077 -0.0381376 1.60673e-17)
(0.0845953 0.122221 -1.59296e-17)
(0.161036 0.00673967 0)
(0.133744 -0.0211715 0)
(0.0259799 -0.0763154 0)
(0.094565 -0.0963563 1.59131e-17)
(0.0899586 -0.00116271 0)
(0.0259291 -0.0206831 -1.20631e-17)
(0.0165436 0.035595 0)
(0.019245 -0.0177019 0)
(0.092506 -0.0144432 0)
(0.100967 -0.022879 -3.999e-18)
(0.00381462 0.0225255 0)
(0.090042 -0.106753 1.59201e-17)
(0.108976 -0.0151974 -3.99061e-18)
(0.139997 -0.0186883 0)
(0.0563696 0.000852698 -2.03143e-17)
(0.0270174 -0.0398203 -1.61497e-17)
(0.0482079 -0.0218575 0)
(0.109848 -0.0608797 3.97798e-18)
(0.0531308 -0.0301439 0)
(0.0451492 -0.0634225 1.21706e-17)
(0.0674417 -0.0220628 0)
(0.0981096 -0.0106203 0)
(0.0350517 -0.0511882 -1.61656e-17)
(0.113208 -0.022497 0)
(0.109407 -0.00741838 -1.59875e-17)
(0.0786253 -0.0236386 4.0083e-18)
(0.0187149 -0.0229733 0)
(0.160439 0.128471 1.18769e-17)
(0.0832715 -0.0198737 4.00636e-18)
(0.0763806 -0.00811539 0)
(0.0385536 -0.00329033 -1.09411e-17)
(0.148385 -0.0165849 -1.99182e-17)
(0.010371 -0.0537819 1.65175e-22)
(0.159184 -0.0056499 -1.59454e-17)
(0.0847998 -0.0084273 1.60335e-17)
(0.118417 -0.0162239 -1.59896e-17)
(0.0247082 0.0653283 0)
(0.103507 -0.00751859 -1.20211e-17)
(0.134909 -0.014848 0)
(0.165728 0.0203251 -1.59106e-17)
(0.0865305 -0.0039854 0)
(0.0379834 0.0566493 4.00641e-18)
(0.149063 0.00854636 3.98909e-18)
(0.0575105 0.0109821 0)
(0.163198 -0.016083 3.98381e-18)
(0.00067326 -0.0178393 1.40636e-17)
(0.106768 -0.0212761 1.19913e-17)
(-0.00675457 -0.0171178 0)
(0.0516609 0.0938313 -1.19782e-17)
(0.0244741 -0.0298608 0)
(0.0264481 -0.0165166 0)
(0.0046071 -0.0182303 -1.44955e-17)
(0.144407 -0.0195135 0)
(0.0318458 -0.0315809 0)
(-0.00272902 0.0424832 -4.18724e-18)
(0.0358638 0.00329471 2.02197e-17)
(0.155635 -0.0103381 -1.59548e-17)
(0.061114 0.080098 -1.59872e-17)
(0.0232298 -0.0641598 1.67738e-17)
(0.0523897 -0.00915371 1.63268e-17)
(0.166098 -0.0138827 0)
(0.0744536 -0.012139 -4.00788e-18)
(0.0464593 -0.0133392 0)
(0.000939796 0.03173 -8.33119e-18)
(0.157919 -0.0177324 7.76141e-22)
(0.16126 -0.00225248 0)
(0.181153 0.0515935 -2.01599e-17)
(0.040154 -0.0179713 0)
(0.146485 -0.012301 -3.99275e-18)
(0.042151 -0.00724888 1.27543e-17)
(0.0414643 -0.0533388 1.61512e-17)
(0.157068 -0.00395425 1.59496e-17)
(0.0413237 0.0677866 1.20161e-17)
(0.0370121 -0.00895559 -6.73045e-18)
(0.0642475 0.0944548 3.19523e-17)
(0.16423 -0.0157645 1.59415e-17)
(0.135705 -0.00996947 -3.99259e-18)
(0.147375 -0.0101677 0)
(0.128902 0.029881 0)
(0.0604949 0.0914222 1.61867e-17)
(0.0482026 0.0617824 1.20186e-17)
(0.174298 0.0520538 2.01684e-17)
(0.0228948 0.0150504 -4.01332e-18)
(0.0772665 0.00930107 0)
(0.0130677 0.0157046 0)
(0.13749 0.0235855 0)
(0.0244106 -0.0279603 -1.61228e-17)
(0.0570165 0.0238533 0)
(0.056577 0.0870992 -1.64624e-17)
(0.0248 -0.0144494 2.84366e-17)
(0.150613 0.0210275 3.18236e-17)
(0.0260167 -0.0153212 -1.60915e-17)
(0.158012 0.0178307 0)
(0.0191033 -0.00748801 -1.60988e-17)
(0.0555743 0.0883058 0)
(0.164429 -0.0125271 0)
(0.127083 0.0195681 0)
(0.0844188 0.0498943 1.21164e-17)
(0.0186977 0.0521438 0)
(0.0222397 -0.0769276 0)
(0.0351462 0.072699 0)
(0.0625396 0.0361171 0)
(0.0571977 -0.0805982 -4.04419e-18)
(0.0294817 0.0673059 0)
(0.137468 -0.0202744 1.98963e-17)
(0.143973 0.0120413 -3.99244e-18)
(0.0258431 0.0555354 0)
(0.0145938 0.00929992 -1.61001e-17)
(0.0602268 0.102236 -3.99256e-18)
(0.0110889 0.00388563 4.17752e-18)
(0.104692 -0.0174216 0)
(0.0513258 0.0253509 -1.56346e-17)
(0.125957 0.0357167 -1.60203e-17)
(0.00884418 0.0482121 4.09238e-18)
(0.077051 0.0398888 -1.20881e-17)
(-0.00177039 -0.000649186 2.05409e-17)
(0.0333696 -0.000665103 -1.61385e-17)
(0.136006 0.0260692 0)
(0.037342 -0.0460463 0)
(0.029649 -0.0330231 0)
(0.0585366 0.0916588 0)
(0.0832419 0.0662464 -1.20898e-17)
(0.0697323 0.0600736 -4.03117e-18)
(0.116749 0.0485271 1.60324e-17)
(0.0132652 -0.0065505 9.65714e-18)
(0.00452158 5.04866e-05 -4.06595e-18)