/*--------------------------------*- C++ -*----------------------------------*\
  =========                 |
  \\      /  F ield         | OpenFOAM: The Open Source CFD Toolbox
   \\    /   O peration     | Website:  https://openfoam.org
    \\  /    A nd           | Version:  9
     \\/     M anipulation  |
\*---------------------------------------------------------------------------*/
FoamFile
{
    format      ascii;
    class       surfaceScalarField;
    location    "0.05";
    object      phi;
}
// * * * * * * * * * * * * * * * * * * * * * * * * * * * * * * * * * * * * * //

dimensions      [0 3 -1 0 0 0 0];

internalField   nonuniform List<scalar> 
2420
(
8.12193e-07
-7.98487e-07
-1.37058e-08
-9.01335e-07
9.01335e-07
-1.32045e-06
-4.09337e-07
1.72979e-06
-8.55392e-07
8.55392e-07
-9.94642e-07
4.55312e-07
5.3933e-07
8.01545e-07
-7.70363e-07
-3.11817e-08
-1.47075e-06
1.50296e-07
-8.00881e-07
1.26541e-07
6.7434e-07
6.65756e-07
-1.02752e-06
3.61759e-07
-6.21752e-07
-3.7289e-07
-8.79912e-07
3.97878e-07
4.82033e-07
-6.16109e-07
-2.63802e-07
-8.00881e-07
-2.82765e-07
-4.57405e-07
7.4017e-07
-3.08219e-07
-1.31673e-06
1.62495e-06
-1.11654e-06
1.65303e-06
-5.3649e-07
-2.11049e-06
7.00083e-07
1.41041e-06
-1.0864e-06
1.16222e-06
-7.58136e-08
-7.63684e-07
8.10793e-07
-4.71088e-08
-5.52506e-07
2.69741e-07
3.41107e-07
9.5316e-07
-1.29427e-06
-1.79308e-07
-6.59471e-07
7.2325e-07
-6.37783e-08
-8.11288e-07
1.51817e-07
2.48172e-07
5.64021e-07
-1.21566e-06
-8.9483e-07
3.2112e-07
-1.43766e-06
-4.11297e-07
-4.92279e-07
9.03575e-07
-8.45756e-07
4.34459e-07
7.701e-07
-1.12143e-07
-6.57957e-07
1.66347e-06
1.6128e-07
-1.82475e-06
-1.06174e-06
1.31883e-06
-2.57094e-07
-1.41159e-06
1.46541e-06
-5.38185e-08
1.7815e-06
-1.0828e-06
-6.987e-07
1.71269e-07
-1.25767e-06
1.03129e-06
7.50207e-07
2.53247e-07
5.48298e-07
-6.45807e-07
-2.55529e-07
-2.48897e-08
-1.3867e-06
2.22918e-07
6.78417e-07
1.18693e-06
-8.45826e-07
6.65536e-07
2.13176e-07
-8.78712e-07
1.23999e-06
-1.26488e-06
-7.50576e-07
7.36949e-07
1.3627e-08
-6.31748e-07
8.06917e-07
-1.75169e-07
-1.55678e-07
-6.99714e-07
5.12588e-07
3.42804e-07
-8.11642e-07
1.79894e-07
-6.9495e-07
8.4052e-07
-1.4557e-07
-1.62384e-08
1.25623e-06
-6.51986e-07
-1.18377e-07
-1.47107e-06
-1.54412e-06
1.2359e-06
-4.85137e-07
-5.42379e-07
1.02787e-06
-4.57845e-07
-5.70024e-07
2.73059e-08
-1.23629e-06
1.20899e-06
-1.21117e-07
-1.08396e-06
1.20507e-06
6.91627e-07
-2.93748e-07
-6.63552e-07
7.79727e-07
-1.16175e-07
1.75353e-06
-1.72623e-06
-1.39184e-08
1.67739e-06
7.78152e-07
-7.44237e-07
-3.39148e-08
-6.19097e-07
-1.79389e-07
-6.46718e-07
7.73259e-07
-8.10966e-07
5.77483e-07
2.33483e-07
1.51789e-06
-1.35661e-06
6.73914e-07
-8.40907e-07
1.66993e-07
-5.74712e-07
6.89494e-07
-1.14782e-07
-1.03011e-06
1.20138e-06
-1.45752e-07
1.16914e-07
4.71457e-08
1.32495e-06
-8.19716e-07
-5.05229e-07
-7.68529e-08
-1.23988e-06
-1.16833e-06
-2.28845e-07
1.39718e-06
7.42442e-07
-2.13001e-08
-7.21142e-07
-7.6319e-07
-8.25654e-08
3.65697e-07
-1.39581e-06
1.06582e-06
-3.02289e-07
1.07239e-06
-4.49527e-07
-3.61439e-07
7.60399e-07
-1.79573e-08
5.62457e-07
4.65412e-07
-2.31838e-07
-5.18739e-07
-2.03681e-07
1.12201e-06
-9.18325e-07
-1.00333e-06
1.52396e-06
-5.20628e-07
-1.51112e-06
3.42786e-07
9.10977e-07
4.13968e-07
8.8331e-07
-3.99318e-07
-4.83991e-07
8.71401e-07
6.15052e-07
-1.48645e-06
1.26611e-06
-3.94712e-07
9.2533e-07
8.04458e-07
-1.97749e-07
-5.65935e-07
5.92536e-08
-7.54203e-07
-2.50535e-08
-5.46451e-07
5.71504e-07
2.12167e-07
5.98626e-07
7.40944e-07
-6.70295e-08
-7.3835e-07
7.47977e-08
9.20442e-07
3.9839e-07
-1.54897e-06
4.68325e-07
1.08064e-06
-1.36007e-07
1.06134e-06
5.60897e-07
-6.94745e-07
1.33847e-07
4.97872e-07
3.42648e-07
6.12405e-07
-5.1508e-08
-1.11231e-06
5.60286e-07
5.52021e-07
2.22479e-07
5.55673e-07
-9.00602e-07
3.68199e-07
5.32402e-07
2.72692e-07
-3.84835e-07
-5.68445e-07
-9.80521e-07
-1.7198e-06
4.83512e-07
-2.68767e-08
-1.13484e-06
1.16171e-06
1.26352e-07
-7.42461e-07
-1.29593e-06
-4.23876e-07
9.19927e-07
-1.12361e-06
9.07793e-07
-3.22924e-07
-5.84869e-07
2.62786e-07
-6.03717e-07
-2.96884e-07
6.2405e-07
3.03259e-07
5.80051e-07
-4.98684e-07
-6.13622e-07
1.40353e-07
-1.43628e-06
-8.60823e-09
1.72679e-06
-1.71818e-06
1.80556e-07
1.64713e-06
-1.82768e-06
-8.95351e-08
-6.60322e-07
7.49857e-07
5.58764e-07
1.8218e-07
-8.73503e-07
3.05623e-07
5.6788e-07
-1.00922e-06
9.92983e-07
6.28933e-07
-6.53986e-07
1.01049e-06
6.42538e-07
3.96917e-07
-1.26541e-06
8.68496e-07
7.29804e-07
-1.75951e-07
-5.53853e-07
-1.16211e-06
1.13523e-06
-9.39307e-07
2.9259e-07
-4.58657e-07
-4.14846e-07
-4.43425e-07
4.43425e-07
-8.53283e-07
2.21195e-07
6.32088e-07
-4.14864e-07
-3.67526e-07
7.8239e-07
-1.54412e-06
-1.08396e-06
-5.18652e-07
-3.22255e-07
1.75353e-06
1.52619e-06
-1.20507e-06
-1.52619e-06
1.28638e-06
2.39812e-07
-2.63596e-07
-1.36282e-06
1.62641e-06
2.13598e-07
-1.41041e-06
1.19681e-06
1.36282e-06
-1.37143e-06
2.97616e-07
-1.62641e-06
1.3288e-06
-1.58587e-06
1.72623e-06
-2.57076e-07
1.58587e-06
-1.3288e-06
1.43363e-06
-1.40534e-06
-2.82977e-08
-1.43363e-06
1.41971e-06
1.40534e-06
-1.19681e-06
-2.08526e-07
1.37143e-06
-1.60027e-06
1.60027e-06
-1.41971e-06
9.10281e-07
6.13674e-07
1.94186e-08
-1.02864e-06
-1.51216e-07
7.287e-07
1.24579e-06
-1.82869e-06
5.82906e-07
3.04076e-07
1.62878e-07
1.5434e-06
-3.42023e-07
-4.71839e-07
8.13861e-07
-9.12343e-07
4.27207e-07
-1.10643e-06
-7.22263e-07
-1.37003e-06
-1.12088e-07
-6.26262e-07
-1.03466e-06
5.25332e-07
-8.48256e-07
-1.35981e-07
-9.67595e-07
1.33329e-06
-1.06468e-06
1.76476e-06
-6.12941e-07
-4.14003e-07
1.02694e-06
1.04687e-06
-1.30394e-06
-9.21965e-07
3.6647e-07
5.55495e-07
-5.53765e-07
1.1481e-07
6.14993e-07
3.37464e-07
-1.30506e-06
-2.52183e-07
1.32706e-06
-1.07487e-06
-5.64057e-07
1.15504e-08
1.82404e-06
-1.03943e-06
4.26485e-07
3.02549e-08
-6.8224e-07
-6.57391e-07
5.67856e-07
-5.93168e-07
-8.38668e-08
6.77035e-07
-1.13106e-06
-3.02642e-07
1.4337e-06
6.74418e-07
8.59816e-08
-1.38324e-06
-4.69688e-07
-7.66481e-07
1.23617e-06
-6.66899e-07
-3.72527e-07
5.51781e-07
2.55136e-07
-1.81319e-07
-5.62918e-07
1.135e-06
-7.58066e-07
-3.76932e-07
-1.05455e-07
-1.36562e-06
-1.11062e-06
-2.5385e-07
1.36447e-06
-1.70734e-07
6.65309e-07
-1.41326e-06
2.70015e-07
-6.69333e-07
-1.03672e-06
3.69817e-07
1.41614e-07
-6.39018e-07
4.97403e-07
-4.74342e-07
6.15956e-07
1.36267e-06
2.70198e-08
-1.38969e-06
-4.01068e-07
1.35423e-06
-1.35463e-06
9.54089e-07
4.0054e-07
-1.14479e-06
3.86721e-07
-9.09305e-07
1.30622e-06
-1.4038e-06
3.21008e-07
1.78526e-07
-1.15582e-06
9.77289e-07
1.10275e-06
-1.20821e-06
-6.30365e-07
8.30955e-07
-1.33693e-07
-4.30363e-07
1.9485e-07
-7.13502e-07
-3.56766e-07
1.38806e-06
-8.13206e-07
4.71183e-07
1.04659e-06
6.87811e-08
-1.11537e-06
-3.18135e-07
-7.18581e-07
-1.37224e-07
-3.8329e-07
9.46766e-07
5.1864e-07
-7.1673e-07
9.90008e-07
-2.73278e-07
-4.07863e-07
1.26686e-06
-1.07813e-06
-1.88725e-07
2.8235e-07
9.84508e-07
9.67962e-07
-1.06181e-06
1.09078e-06
-2.89656e-08
-1.13072e-06
6.89059e-08
-9.31266e-07
8.88694e-07
4.25716e-08
-9.3346e-07
1.15262e-06
-2.19164e-07
-1.16459e-06
2.31133e-07
-4.44289e-07
-9.5152e-07
1.2591e-06
-3.0501e-07
-8.49192e-07
-8.2074e-08
-1.33198e-06
-3.19798e-07
-8.24988e-07
-1.01219e-06
1.29454e-06
-7.9083e-07
1.16069e-06
-3.69859e-07
1.30341e-06
-7.49963e-07
1.56795e-07
3.60439e-07
-1.15127e-06
-3.30468e-07
7.73893e-07
-9.86792e-07
2.70062e-07
-7.41921e-07
1.15589e-06
-1.87075e-06
8.79172e-07
9.91574e-07
-5.01094e-07
-4.1125e-07
3.52283e-07
6.71873e-07
5.89377e-07
1.47572e-07
1.08235e-06
-1.12046e-06
3.81031e-08
1.28128e-06
2.52826e-07
1.00627e-06
-1.09228e-07
1.82743e-07
1.33213e-06
-1.51487e-06
-7.64172e-07
-2.2262e-07
1.30912e-06
-9.71652e-07
1.23313e-06
-7.14493e-07
3.71876e-07
-9.00398e-07
5.28522e-07
9.37419e-07
3.89639e-07
1.22223e-06
-2.37725e-07
-1.13943e-06
1.07012e-06
1.2232e-08
8.66464e-07
-6.27189e-07
-2.39274e-07
7.705e-07
4.62634e-07
7.22618e-07
-7.03199e-07
1.04032e-06
-1.44819e-06
8.79256e-07
-4.73426e-07
-4.0583e-07
1.2359e-06
-1.26967e-06
8.25382e-07
-1.98182e-07
-4.255e-07
1.36292e-06
-1.34101e-06
3.89488e-07
-8.76854e-07
-3.92816e-07
-1.09334e-06
-7.77404e-07
2.14936e-07
-9.79107e-07
-1.07559e-06
6.04807e-07
4.70784e-07
9.83529e-07
-3.98858e-07
-5.84671e-07
4.10282e-07
6.70332e-07
-1.08061e-06
8.58539e-07
-6.64098e-07
-1.94441e-07
4.18293e-07
-1.29515e-06
-1.43357e-07
-1.40077e-06
-1.4457e-06
1.30235e-06
8.12052e-07
-1.20487e-06
7.10797e-07
-1.08773e-06
1.50114e-06
-1.03955e-06
-4.61585e-07
1.17104e-06
-4.32291e-07
1.19877e-06
3.10064e-07
4.66988e-07
5.94304e-07
-1.06129e-06
5.55396e-07
-9.69399e-07
-1.08838e-06
7.68578e-07
1.14946e-06
-8.90732e-09
-1.14055e-06
6.7434e-07
-2.45892e-08
7.73893e-07
1.30756e-06
-1.0752e-06
-2.32359e-07
-1.11775e-06
1.41393e-06
-2.96187e-07
-5.98353e-07
6.57607e-07
-5.98353e-07
-1.12736e-06
1.04153e-06
8.58259e-08
9.04888e-07
3.17344e-07
-1.24958e-06
1.25596e-06
-6.38022e-09
-1.0082e-06
1.36048e-06
8.22839e-07
2.63647e-07
-1.08649e-06
1.1915e-06
-2.86613e-07
3.33281e-07
8.83136e-07
-1.21642e-06
1.54135e-06
-1.32775e-06
-5.51365e-07
9.23241e-07
2.81595e-07
-2.65537e-07
1.09682e-06
8.39745e-07
3.51757e-07
-1.18629e-06
1.36904e-06
-4.21851e-07
8.88839e-07
3.8339e-07
2.21028e-08
1.64353e-07
-6.24916e-07
6.99714e-07
-6.24916e-07
2.3135e-07
7.56828e-08
1.25645e-06
1.06889e-06
-9.41746e-07
-1.27143e-07
-8.42918e-07
1.09574e-06
-3.1915e-07
-6.04116e-07
6.04116e-07
9.41452e-07
4.19028e-07
1.14672e-06
-8.83073e-07
9.33996e-07
3.6054e-07
9.91703e-07
7.71865e-08
1.05694e-06
-1.17306e-06
9.35338e-07
3.21732e-07
-1.48248e-06
-1.11134e-06
1.5505e-07
9.5629e-07
-9.22715e-07
-1.00517e-06
-1.25553e-07
-1.40077e-06
-6.98085e-08
1.24705e-06
1.36266e-06
8.93998e-07
4.68921e-07
6.38238e-07
-6.38238e-07
-1.13062e-06
1.15764e-06
1.47456e-07
-1.1187e-06
1.28306e-06
5.07709e-07
-9.38898e-07
4.31189e-07
-3.28299e-07
1.16804e-06
-1.01801e-06
1.14859e-06
-2.13253e-07
2.07075e-07
8.18271e-07
-1.02535e-06
8.11589e-07
-1.22362e-06
4.12035e-07
3.52766e-07
3.28121e-07
-4.10759e-07
9.18467e-07
5.65023e-07
-1.03597e-06
4.70952e-07
6.43429e-07
-6.43429e-07
1.65618e-06
-6.27768e-07
6.27768e-07
-1.03773e-06
8.94911e-07
6.71537e-08
-9.62065e-07
-6.87193e-07
6.87193e-07
-1.42371e-06
6.44523e-07
-6.44523e-07
1.12701e-06
-8.61977e-07
-2.65033e-07
6.21703e-07
-6.21703e-07
-8.7941e-07
1.03699e-06
-2.26605e-07
-8.10387e-07
5.34071e-07
8.85681e-07
3.01342e-09
-1.20674e-06
8.39547e-07
-7.96975e-07
1.01119e-06
-4.46171e-07
5.66046e-07
-8.05321e-07
-6.19131e-07
-4.16843e-07
1.26143e-07
1.12091e-06
-3.83502e-07
7.98711e-07
1.03321e-06
-9.61866e-07
1.25134e-06
-3.7184e-07
-1.21913e-06
8.85125e-08
1.70742e-07
8.6625e-07
-6.16305e-07
-3.53094e-07
1.0952e-06
-1.38911e-07
1.10496e-06
-3.06247e-07
7.7798e-07
3.90064e-07
-9.11852e-07
-6.49185e-07
-2.39845e-07
8.89029e-07
7.35033e-07
-8.93122e-07
1.58088e-07
4.9819e-07
5.13004e-07
-8.54536e-07
1.90438e-07
2.13637e-07
9.62263e-07
-1.1759e-06
1.14878e-06
-1.42504e-07
-9.88832e-07
-1.05447e-06
-1.64658e-07
-6.45807e-07
8.8011e-07
-1.10671e-06
-6.49584e-07
6.49584e-07
-1.03556e-06
5.54537e-07
4.81021e-07
-1.0584e-06
4.39273e-07
1.09375e-06
1.02816e-06
1.20618e-07
-1.05718e-06
4.44127e-07
6.13048e-07
-3.16959e-07
-8.64469e-07
-3.00123e-07
-6.79192e-07
-3.79213e-07
3.67395e-07
7.37564e-07
2.41907e-07
-8.91091e-07
-5.37368e-07
6.69701e-07
-1.47356e-06
8.03858e-07
1.14537e-06
3.459e-07
-1.04536e-06
6.9946e-07
-2.39485e-07
-1.08428e-06
1.32376e-06
2.96219e-07
8.81948e-07
1.30199e-06
-6.64976e-07
1.12682e-06
-4.61849e-07
-1.20584e-06
7.42616e-07
-1.37723e-06
6.34614e-07
1.08346e-06
4.28391e-07
1.84883e-07
-6.13274e-07
-5.02638e-07
-4.27353e-07
-5.37351e-07
9.64704e-07
-7.20336e-08
9.66945e-07
-1.26043e-06
-1.29262e-07
-5.94083e-07
5.94083e-07
-5.73253e-07
1.01738e-06
1.12251e-06
-4.99878e-07
-6.22628e-07
1.96823e-07
-1.2513e-06
7.1571e-07
4.29664e-07
-6.5664e-07
1.09591e-06
-1.00061e-06
-1.17226e-06
5.51152e-07
6.21112e-07
1.52001e-07
-5.37937e-07
-6.34327e-07
-1.03194e-06
-1.15216e-06
4.87183e-07
1.50143e-07
7.76622e-07
-9.26765e-07
7.43122e-07
4.2555e-07
-1.16867e-06
-5.96036e-07
1.06699e-06
-4.09038e-07
-5.64626e-07
-5.29619e-07
1.09424e-06
9.3584e-07
-2.88617e-07
-6.47223e-07
-1.11998e-06
4.63342e-07
5.88888e-07
1.41232e-06
-5.37358e-07
9.57752e-07
-4.20394e-07
5.5788e-07
-7.24628e-07
8.74771e-07
-6.10315e-07
8.52222e-07
-2.8221e-07
-4.04272e-07
1.11499e-06
-5.91607e-07
-5.2338e-07
4.89668e-07
4.68084e-07
9.3062e-07
-4.40952e-07
9.06505e-07
-2.0824e-08
1.15909e-06
8.15604e-07
9.69373e-08
-9.12542e-07
4.42656e-07
4.87964e-07
9.03164e-07
-4.60508e-07
-3.77331e-07
-5.50017e-07
9.27349e-07
4.11445e-07
7.22188e-07
-1.13363e-06
7.63164e-07
-1.48652e-06
7.23352e-07
1.20165e-06
-2.92182e-07
-8.14532e-07
4.62788e-07
6.52199e-07
-8.08469e-07
1.23402e-06
-4.12116e-07
-5.04871e-07
9.16987e-07
-6.14067e-07
5.44651e-07
7.88849e-07
-1.3335e-06
-8.89335e-07
-2.86566e-07
2.46238e-07
-1.01428e-06
7.68041e-07
-7.58503e-08
8.91455e-07
-1.26166e-06
6.72499e-07
5.89159e-07
1.07584e-06
2.76173e-07
-9.30923e-07
6.5475e-07
-1.61438e-07
8.39606e-07
-6.78168e-07
-9.49467e-07
1.60365e-06
-1.05729e-06
-5.46358e-07
-9.41864e-07
5.87372e-07
-7.03385e-07
9.79558e-07
-8.07124e-07
3.62645e-08
7.70859e-07
3.98293e-07
6.41604e-08
-8.57988e-07
7.93827e-07
1.35891e-06
-9.81612e-07
-3.77301e-07
7.42964e-07
8.33257e-08
-8.26289e-07
4.42985e-07
-1.25145e-06
-8.86066e-07
-5.13266e-07
1.30211e-06
7.25351e-08
7.51826e-07
-8.24361e-07
7.12568e-07
1.27038e-07
-4.51447e-07
-5.15885e-07
9.67332e-07
3.6697e-07
-8.90515e-07
-2.27934e-07
-7.02989e-07
7.61051e-07
1.13721e-07
2.48091e-07
6.89344e-07
-9.37435e-07
1.42681e-06
1.76841e-07
-1.44451e-06
8.78976e-08
9.43257e-08
9.74735e-07
-1.06906e-06
2.35859e-07
8.58033e-07
-1.09389e-06
4.68128e-07
-9.0908e-07
-1.77009e-08
-1.08598e-06
3.5111e-07
7.34873e-07
-6.94926e-07
7.78252e-07
8.91088e-07
-6.42997e-07
1.06102e-06
-5.94196e-08
-1.0016e-06
-7.18175e-07
7.54439e-07
-6.88048e-07
-5.7361e-07
5.66001e-07
-5.66001e-07
5.66361e-07
-5.66361e-07
-6.17092e-07
6.17092e-07
6.78417e-07
6.57607e-07
-6.12166e-07
6.12166e-07
5.64106e-07
-5.64106e-07
-6.28828e-07
6.28828e-07
-1.31847e-06
6.17426e-07
-6.17426e-07
5.12588e-07
6.66702e-07
-6.66702e-07
-6.16166e-07
6.16166e-07
5.76324e-07
-5.76324e-07
6.33269e-07
-6.33269e-07
-5.61377e-07
8.92004e-07
-3.30626e-07
5.75768e-07
-5.75768e-07
-4.44769e-07
4.44769e-07
-2.05554e-07
8.48958e-07
-6.43404e-07
7.94996e-07
-6.67958e-07
6.85534e-07
3.01619e-07
8.82136e-07
-5.15166e-07
6.5588e-07
-8.83814e-07
7.20753e-07
-1.35919e-07
2.29046e-07
6.15962e-07
-8.45008e-07
-6.74539e-07
-2.00002e-07
1.17729e-06
2.77488e-07
6.06687e-07
-8.84174e-07
1.29447e-06
-1.20657e-06
-7.34246e-07
-1.92519e-07
-8.97204e-07
-3.54251e-07
9.51791e-07
-8.80854e-07
4.20345e-07
-8.21223e-07
-3.47449e-07
-9.36646e-07
4.852e-07
8.89901e-07
-1.0899e-06
-9.34779e-07
2.00532e-07
1.70789e-07
-9.77339e-07
-2.73956e-07
1.30029e-06
-1.12345e-06
9.81087e-07
1.0007e-07
6.00771e-08
6.95996e-07
-2.40081e-08
8.84926e-07
1.18151e-08
7.42624e-07
-1.30467e-06
4.07471e-07
-7.9585e-07
1.03171e-06
-8.656e-07
1.27277e-07
7.38323e-07
1.03746e-06
-7.39824e-07
-2.9764e-07
3.20759e-07
-8.49874e-07
1.01744e-06
-1.67561e-07
-8.99846e-07
9.94172e-07
-9.4428e-07
9.61733e-07
-1.74532e-08
1.03594e-06
-6.8483e-07
9.37225e-08
-4.12725e-07
-9.81101e-07
9.21682e-07
-1.17547e-06
-1.01081e-06
8.72693e-07
1.38113e-07
1.02419e-06
2.49234e-07
-8.92231e-07
-8.52609e-07
2.09206e-07
1.28638e-06
-1.02929e-06
2.11699e-07
8.17587e-07
1.32785e-06
-1.02623e-06
-8.04203e-07
1.36245e-07
4.01297e-07
-1.16344e-06
2.04401e-07
2.41613e-07
1.32674e-06
-9.32185e-07
-3.94554e-07
-2.80487e-07
2.96117e-07
-2.26785e-07
8.42747e-07
1.81836e-07
1.17589e-07
4.98924e-08
-9.10188e-08
-7.74581e-07
6.28531e-07
3.88849e-07
9.19347e-07
-7.92069e-07
-1.93684e-08
-6.56846e-07
2.15161e-08
6.3533e-07
-6.33414e-07
-8.91234e-08
-6.63647e-07
7.63716e-07
6.43577e-07
-7.55665e-07
-6.03375e-07
-2.45435e-07
5.65048e-07
-8.12622e-07
2.47574e-07
-1.64056e-06
-5.19585e-07
7.79822e-07
7.74253e-07
-8.43833e-07
2.33519e-07
6.00881e-07
2.91123e-07
-6.45031e-07
-2.25556e-07
-7.56628e-07
9.82185e-07
-1.68683e-06
6.22157e-07
-1.56593e-07
-4.74962e-07
8.73255e-07
-6.89156e-07
9.85273e-07
2.91351e-07
6.43412e-07
-9.34762e-07
5.96722e-07
5.11901e-07
-9.85607e-07
4.73705e-07
2.94023e-07
-9.83179e-07
-1.10208e-06
7.54634e-07
-7.88931e-07
9.70767e-07
1.22423e-06
-1.01983e-06
1.1016e-06
-1.85249e-07
-6.98565e-07
1.02983e-06
-8.96804e-07
-2.78669e-07
7.80554e-07
-6.13562e-07
1.4084e-07
8.3266e-07
8.93239e-07
-9.12608e-07
-1.61678e-07
8.06244e-07
-6.44565e-07
-1.09424e-06
5.77267e-07
5.16969e-07
-6.53583e-07
-1.91425e-07
7.23816e-07
-8.14835e-07
-1.07861e-06
6.16763e-07
9.0996e-07
-4.96434e-07
-4.13527e-07
-6.18876e-07
8.01056e-07
-1.09448e-06
6.85439e-07
-2.79152e-07
-8.22931e-07
8.77743e-07
-1.39421e-07
3.44998e-07
9.28546e-07
-1.79178e-07
-7.49368e-07
3.00509e-07
-6.14825e-07
-1.42509e-06
-1.03792e-06
7.5877e-07
-2.20335e-07
-8.38832e-07
-5.48063e-07
9.21493e-07
-3.7343e-07
-9.76963e-07
-5.63353e-07
8.54476e-07
-3.39842e-07
2.69307e-07
-2.51101e-07
-5.61521e-07
-6.38181e-07
-8.14361e-07
3.39399e-07
-1.12842e-06
4.7485e-07
6.53569e-07
-1.08152e-06
4.05673e-07
6.75846e-07
6.14819e-07
-7.39838e-07
9.8145e-07
-1.03757e-06
6.97727e-07
-1.20794e-06
3.84413e-07
-1.3166e-06
4.88041e-08
8.30522e-07
-8.79326e-07
-1.37617e-06
-1.18152e-06
-5.48014e-07
7.76142e-07
-2.28128e-07
-5.75032e-07
-4.17431e-07
9.92463e-07
9.76221e-07
-1.03797e-06
-6.48864e-07
8.06984e-07
-9.63577e-07
2.78799e-07
-2.61323e-07
-9.55094e-07
3.3804e-07
-1.5799e-07
-6.96546e-07
-1.28807e-06
8.396e-07
4.48471e-07
-3.93173e-07
9.03074e-07
-3.47459e-07
-5.55615e-07
-7.748e-07
1.48967e-06
-8.67514e-07
-4.6908e-07
8.57675e-07
-3.88595e-07
-5.05348e-07
-1.69979e-07
-3.58623e-07
-5.15857e-07
8.74481e-07
-5.3869e-07
-3.97956e-07
8.24509e-07
-1.00693e-07
3.31404e-07
6.48154e-07
1.53743e-07
-7.98309e-07
1.23861e-06
-8.54197e-07
-5.66346e-07
-3.58089e-07
-6.27518e-07
-5.38263e-07
-7.49808e-07
1.05544e-06
-4.38674e-07
1.59981e-07
6.41075e-07
6.85089e-07
5.50089e-07
8.77851e-07
4.62237e-07
-1.34009e-06
6.84729e-07
-1.7227e-06
4.65098e-07
1.02457e-06
3.51367e-07
5.58594e-07
-5.05118e-07
-3.81129e-07
8.86247e-07
-1.01371e-06
-4.61503e-07
-9.06687e-07
9.11068e-07
4.76998e-07
-1.38807e-06
-6.06669e-07
-4.74303e-07
8.25669e-07
-1.44213e-06
3.05053e-07
1.13707e-06
-9.56121e-07
-5.39793e-07
1.05676e-06
-5.79071e-07
-8.08995e-07
-8.55432e-07
-9.48945e-07
-4.93183e-07
8.34848e-07
9.42043e-07
-3.94016e-07
6.35957e-07
-1.02913e-06
-9.02727e-07
1.10657e-07
-7.22046e-08
4.76578e-07
-1.02667e-06
4.86873e-07
4.50093e-07
8.5292e-07
3.56989e-07
-8.2607e-07
-3.77749e-07
-9.26479e-07
1.3871e-08
3.33295e-07
-8.29729e-07
-1.44659e-06
5.01924e-07
7.08347e-07
-1.21027e-06
-6.40877e-07
9.84461e-07
-3.43584e-07
9.52437e-07
-1.2639e-06
3.41818e-07
5.22137e-07
-8.69595e-07
8.0063e-07
-4.58812e-07
-2.84405e-07
-3.33142e-07
-5.98486e-07
9.31628e-07
-8.76586e-07
-6.27413e-07
1.03309e-06
-5.60306e-07
7.93825e-07
-7.09676e-07
1.34726e-06
-6.37582e-07
5.61167e-07
3.13313e-07
-2.91548e-07
-6.26313e-07
9.17862e-07
5.84792e-07
-1.28035e-06
6.95559e-07
-3.23007e-07
-4.80684e-07
1.35853e-06
-1.29884e-06
5.89159e-07
-9.74019e-07
1.01628e-06
-5.66189e-07
-7.61857e-07
-8.46786e-07
5.8515e-07
-9.5858e-07
-1.42963e-06
-9.34195e-07
3.73889e-07
8.34949e-07
-4.11219e-08
-1.10792e-06
2.93391e-07
3.72756e-07
9.85779e-07
3.88869e-07
2.69189e-07
5.73558e-07
-8.91149e-07
6.95844e-07
7.83038e-07
-1.21787e-08
4.27548e-07
-9.93737e-07
-9.18754e-07
3.63139e-07
-1.04451e-06
2.34123e-07
5.06864e-07
4.60468e-07
1.09912e-06
-4.23274e-07
9.01456e-07
-5.44466e-07
6.12278e-07
2.72649e-07
-1.39944e-06
5.30337e-07
2.70293e-07
4.42644e-07
6.89502e-07
-6.66294e-07
-7.33144e-07
2.48479e-07
5.27663e-07
5.51061e-07
-8.7678e-07
3.2572e-07
-1.04275e-06
7.5112e-07
2.91632e-07
-9.70731e-07
5.92982e-07
1.31303e-06
1.29083e-06
-7.45869e-07
-3.62053e-07
-5.31031e-07
-8.4365e-07
2.77305e-07
3.08436e-07
-7.92427e-07
-3.5325e-07
1.15549e-06
4.32267e-09
7.38302e-07
1.26068e-06
-7.98438e-07
1.01688e-06
-6.7256e-07
-6.26275e-07
-6.04823e-07
-3.13932e-07
-6.5689e-07
-3.22576e-07
3.69526e-07
-8.1199e-07
-7.41549e-07
-1.84024e-07
9.25573e-07
6.55008e-07
-8.12998e-07
7.87361e-07
8.59496e-07
-8.26058e-07
2.78116e-07
5.47942e-07
-8.50333e-07
8.64204e-07
8.28499e-07
-1.43438e-06
6.05885e-07
8.00043e-07
-1.45035e-07
-6.96946e-07
-1.02575e-06
1.30711e-06
-8.88702e-07
5.00107e-07
8.22771e-07
-4.35486e-07
-4.53215e-07
-9.27399e-07
-1.17404e-06
-9.33641e-07
1.92092e-07
-6.78612e-07
7.93304e-07
-1.14692e-07
7.67669e-07
-1.56815e-07
8.81466e-07
-6.48795e-07
-1.27806e-07
7.76601e-07
-8.13686e-07
1.05992e-06
-1.57721e-07
-8.67625e-07
9.83954e-07
-7.49831e-07
4.58817e-07
4.2743e-07
-6.04863e-07
-7.94365e-07
-7.9993e-07
9.70672e-07
8.22038e-07
-8.06417e-07
3.99511e-07
4.26158e-07
-5.98664e-07
-1.33885e-06
1.43009e-06
-6.01592e-07
6.05602e-07
-7.07186e-07
7.79721e-07
3.58013e-08
-9.91323e-07
9.55521e-07
8.45753e-07
1.24919e-07
-1.47297e-06
1.54369e-06
-7.07223e-08
8.58328e-07
-2.44485e-07
1.24026e-06
-5.31915e-07
-5.33057e-08
7.02307e-07
-6.49002e-07
9.37612e-07
-4.77144e-07
-1.51223e-08
9.87476e-07
4.0658e-07
-8.08349e-07
-1.70758e-07
-8.90213e-07
9.49867e-07
-1.04115e-07
-1.25841e-07
-6.87157e-07
8.61123e-07
-2.2362e-09
-8.58887e-07
8.19077e-07
2.047e-08
-8.86802e-07
8.29042e-07
5.77599e-08
-7.26416e-07
7.56007e-07
-2.95911e-08
8.61178e-08
2.52995e-07
-8.57858e-07
5.67535e-07
-3.02061e-07
-7.53677e-07
-2.91683e-07
-4.08214e-07
-9.1263e-07
-7.54062e-07
-2.37645e-07
-5.64889e-07
-7.75198e-07
8.07648e-07
1.46965e-06
-6.65793e-07
8.34471e-07
-7.69925e-07
-4.1103e-08
8.11028e-07
1.04628e-07
-1.11532e-06
1.01069e-06
6.26503e-07
-1.14988e-06
4.41824e-07
3.91375e-08
7.48223e-07
7.3222e-07
1.02981e-06
-2.56783e-08
8.87361e-07
6.25067e-08
-5.27782e-07
-9.06602e-07
-1.3028e-06
-1.70896e-07
1.47369e-06
-6.66119e-08
9.06973e-07
1.88772e-07
-8.71867e-07
4.05113e-07
8.9516e-07
-1.03407e-06
-5.19977e-07
-3.09752e-07
-7.64131e-07
6.38289e-07
-6.76173e-08
6.97025e-07
3.59913e-07
-7.45348e-07
6.69389e-07
7.59594e-08
-4.20957e-07
-7.14904e-07
6.8761e-07
2.72933e-08
7.38521e-08
9.11796e-07
-9.85648e-07
1.05026e-06
-1.35565e-06
7.35409e-07
1.78311e-07
-9.1372e-07
-8.47428e-07
-5.82201e-07
9.23162e-07
9.08786e-07
-7.97439e-08
1.68587e-07
-8.17501e-07
6.48914e-07
1.01825e-06
-6.8937e-07
-6.37218e-07
9.20926e-07
-8.23921e-07
-5.31733e-07
8.89944e-07
3.09821e-08
9.14136e-07
-8.51466e-07
7.06431e-07
-6.60768e-07
-1.03362e-07
-5.77379e-08
-8.96961e-07
2.59743e-07
9.47704e-07
-1.3297e-07
8.02359e-07
7.62608e-07
-1.30519e-07
-9.6607e-07
-1.03673e-06
9.66918e-07
7.98253e-07
8.36944e-07
1.30001e-07
-7.93738e-07
1.15202e-07
-1.29166e-07
8.64199e-07
-1.99719e-07
8.49978e-07
9.77259e-08
9.03996e-07
9.6484e-07
-1.27896e-07
6.8274e-07
2.21256e-07
-8.87056e-07
1.81824e-07
7.05231e-07
5.27655e-07
-1.15028e-06
-1.04001e-06
-8.41798e-07
1.45252e-07
7.78952e-07
1.85888e-07
-9.45517e-07
-1.35344e-08
9.59051e-07
-7.26596e-07
3.21136e-08
-8.62319e-07
8.30205e-07
-1.16093e-07
-2.14221e-07
-5.06388e-07
-6.98277e-07
1.20467e-06
-1.01174e-09
-1.07386e-06
-1.3517e-06
1.02516e-06
-9.78357e-07
1.02515e-06
3.17951e-07
-1.27982e-06
1.20245e-06
-1.09782e-06
8.30366e-07
-1.74483e-07
6.72355e-07
-8.30879e-07
1.33752e-07
6.97127e-07
-6.27017e-07
-5.93229e-07
1.22025e-06
9.34575e-07
-5.08417e-07
-4.05237e-07
9.57263e-07
-1.02759e-06
-7.41804e-07
-1.1444e-06
-1.07872e-06
-7.56972e-07
-7.3907e-08
-8.76961e-07
-4.74742e-07
-4.72714e-07
1.57371e-06
-1.101e-06
-7.79968e-07
7.54086e-07
-9.24844e-07
1.03155e-06
9.4348e-07
-5.16274e-07
-4.57789e-07
-5.65805e-07
7.98452e-07
8.27627e-07
5.13618e-07
1.2503e-06
8.8745e-07
9.07865e-07
-7.33937e-08
-7.40867e-07
8.03883e-07
-5.20569e-08
9.3591e-07
2.70469e-07
-8.98455e-07
6.27986e-07
1.0755e-09
7.73216e-07
-7.74292e-07
7.1329e-07
5.30549e-07
3.5829e-07
7.92693e-07
-1.33767e-06
4.60705e-07
-1.17779e-06
4.90851e-07
6.86941e-07
9.54666e-07
8.55463e-10
1.39543e-06
-1.07748e-06
3.79473e-07
-7.49173e-07
8.25132e-07
9.41855e-07
-2.28565e-07
5.45382e-07
-9.28884e-07
-9.0249e-07
-4.35176e-07
6.68577e-07
-1.21965e-06
2.64555e-07
-7.34523e-07
-4.46114e-07
6.49184e-07
8.88601e-07
-4.51968e-08
1.30356e-06
-4.13591e-07
-8.89967e-07
1.32151e-07
-8.73955e-07
1.05932e-06
-9.85465e-07
7.75419e-07
-8.55162e-07
8.35741e-07
-1.51489e-07
-6.84252e-07
-4.27694e-07
-8.12541e-07
1.20374e-07
7.15891e-07
-8.36264e-07
-1.88095e-07
6.17874e-07
-9.39046e-07
6.22087e-07
-1.25054e-07
1.13574e-06
2.05452e-07
6.46769e-07
-9.31566e-07
5.78472e-07
8.9567e-07
-5.02847e-07
-4.06233e-07
-8.0051e-07
5.13369e-08
-8.28391e-07
8.23326e-07
-8.90462e-07
2.329e-07
6.57561e-07
1.96771e-07
8.29504e-07
-8.28428e-07
1.01526e-06
4.58429e-07
-3.09479e-07
-5.74679e-07
-9.50223e-07
-5.358e-07
3.50412e-07
-9.04177e-07
2.10476e-07
-8.85975e-07
2.70879e-08
1.04364e-06
-1.02619e-06
9.85361e-08
6.58885e-07
5.25725e-07
1.16987e-06
2.33197e-07
7.24066e-07
-6.67105e-07
-1.1924e-06
1.96749e-07
-1.07616e-06
1.41913e-07
7.83661e-07
1.09868e-06
8.99435e-07
9.34263e-07
7.21048e-07
1.00952e-06
1.99946e-07
6.89084e-07
-9.40306e-07
-4.10743e-07
1.08917e-06
-9.21605e-07
9.47647e-07
-1.00124e-06
7.09555e-07
-1.03066e-06
-8.03826e-07
-8.23468e-07
7.3504e-07
-5.0214e-07
4.01825e-07
5.17903e-07
6.11765e-07
5.72844e-07
-1.239e-06
9.38487e-07
1.32791e-06
1.09531e-06
-7.97673e-07
-4.37398e-07
-1.20317e-06
8.0134e-07
-8.53397e-07
8.51118e-08
-9.0858e-07
-1.41897e-07
-1.22406e-06
9.09581e-07
2.53792e-07
3.42192e-07
-7.29686e-07
8.71599e-07
-1.2562e-06
-7.89586e-07
8.93086e-07
4.08906e-07
-6.41589e-07
1.00151e-06
-3.59925e-07
-1.21566e-06
7.2048e-08
-7.68286e-07
-1.25329e-06
3.04937e-07
-9.31251e-07
-1.0208e-06
6.00102e-07
-1.30834e-06
8.73165e-07
1.27256e-06
-3.6881e-07
-1.11166e-06
-2.3556e-07
8.46715e-07
-8.81175e-07
8.25323e-07
-5.56016e-07
9.82388e-07
9.45322e-07
-7.48128e-07
-5.01526e-07
-2.99355e-07
-5.17475e-07
-7.62876e-07
2.39267e-07
3.56717e-07
3.43183e-07
-1.17971e-06
4.81434e-07
-8.4289e-07
1.25492e-06
9.66965e-07
-6.62028e-07
-1.18523e-06
5.92003e-07
4.29669e-07
1.30283e-06
-1.03313e-07
1.06071e-06
-6.39393e-07
-5.09947e-07
-4.2908e-07
7.6556e-07
7.72225e-07
-2.73815e-07
9.8337e-07
-6.43954e-07
-1.62463e-07
-1.79372e-07
5.69099e-07
1.44309e-06
8.28092e-07
6.71508e-07
-5.53208e-07
6.02118e-07
-7.24459e-07
1.21531e-06
-6.88236e-07
3.9234e-08
7.71695e-07
-4.66516e-07
1.29461e-06
-1.36733e-07
7.60782e-07
-6.57576e-07
-7.75585e-07
6.72244e-08
-8.78072e-07
-6.67037e-07
8.24992e-07
1.13738e-07
7.88409e-07
-5.57733e-07
-1.24193e-06
6.0704e-07
-3.21342e-07
7.77167e-07
-7.09943e-07
6.26983e-07
-6.8706e-07
4.20298e-08
4.53525e-07
5.39523e-07
1.83094e-07
1.56401e-06
-6.17501e-07
2.36207e-07
-8.66572e-07
6.32326e-08
-6.46697e-07
-1.06936e-08
6.33075e-07
-2.04684e-07
4.01136e-07
-6.21651e-07
9.70882e-07
-5.36423e-07
4.0768e-07
8.35872e-07
-1.86958e-07
-5.22805e-07
3.43497e-07
5.28114e-07
1.4222e-07
-6.70335e-07
-7.53302e-07
6.77488e-07
-8.04587e-07
3.8884e-07
9.22548e-07
-2.2267e-07
-6.45364e-07
3.4955e-07
7.75267e-07
-5.04974e-07
6.86896e-07
-2.31584e-07
2.72032e-07
-8.54764e-07
4.60748e-07
6.77337e-07
-1.38006e-07
4.02194e-07
4.25316e-07
2.97934e-07
1.40822e-06
-3.61359e-07
2.56123e-07
-3.09811e-07
8.21388e-07
-5.11577e-07
6.18989e-07
5.53512e-08
7.62706e-07
3.8077e-07
-1.13677e-08
8.06907e-07
-4.67508e-07
4.39497e-07
5.31385e-07
-7.26934e-07
-5.27982e-07
8.50874e-07
1.49144e-07
6.49164e-07
6.18989e-07
-9.15571e-07
5.26792e-07
-7.37513e-07
-7.61146e-07
4.51394e-07
5.71076e-07
-1.02887e-06
-6.53115e-07
1.30187e-06
-6.05386e-07
-2.34418e-08
5.91759e-07
-1.59906e-08
-6.24745e-07
1.25787e-08
-5.83512e-07
-3.35808e-08
6.47347e-07
7.26984e-07
7.38518e-07
5.81719e-07
5.83512e-07
-6.47347e-07
-5.81719e-07
-3.57075e-08
6.38451e-07
-6.21263e-08
-7.26984e-07
-7.38518e-07
-6.05386e-07
5.91759e-07
-6.24745e-07
6.38451e-07
-1.47036e-06
9.77173e-07
5.6624e-07
-9.73873e-07
1.30957e-06
-4.75952e-07
4.75952e-07
5.6624e-07
-1.12462e-06
-1.27326e-06
5.19557e-07
1.42316e-06
-6.5094e-07
-1.46158e-06
-1.55608e-06
1.1322e-06
5.69569e-07
-3.56879e-09
-5.69569e-07
-6.75484e-09
-4.92722e-07
-5.41935e-07
5.41736e-07
-7.76337e-07
-1.09033e-07
6.37147e-07
5.18123e-07
-1.35687e-07
7.15738e-07
7.55867e-07
-9.03972e-07
-7.39689e-07
-1.50943e-06
4.34231e-07
7.21877e-07
6.32024e-07
-9.36073e-07
4.08091e-07
-4.53627e-07
5.1386e-07
4.91243e-07
-3.34375e-07
-7.06166e-07
1.28189e-06
-1.15178e-06
-1.30108e-07
6.46456e-07
-2.2114e-07
3.22825e-07
-3.22825e-07
-3.48477e-07
-5.81129e-07
-5.33879e-07
6.55036e-07
-6.98308e-07
6.94739e-07
-1.59656e-07
1.44155e-06
6.42652e-07
-1.5286e-06
4.89049e-07
-6.81224e-07
4.76515e-07
-1.24842e-06
8.04336e-07
-9.95567e-07
6.65123e-07
-4.42933e-07
6.30086e-08
-7.72951e-07
6.27135e-07
4.37006e-07
5.61684e-07
7.40194e-07
-6.77185e-07
-5.46451e-07
-1.01415e-06
-1.36712e-07
7.04592e-07
-5.04486e-07
-5.07299e-07
5.07299e-07
-5.31015e-07
-3.49855e-08
5.31015e-07
-1.90518e-08
6.62481e-07
-6.62481e-07
-1.06102e-06
-4.75281e-07
5.47898e-07
-1.09833e-06
5.32522e-07
-7.29607e-07
1.20177e-07
6.14863e-07
7.49109e-07
-5.71403e-07
-1.69781e-07
-5.93409e-07
-6.18296e-07
-9.37784e-07
5.89567e-07
1.10564e-07
1.02651e-06
-1.70734e-07
-4.55795e-07
1.1058e-06
-1.1058e-06
5.79444e-07
-4.30259e-07
-7.25785e-07
-5.21706e-07
5.37443e-09
-1.12076e-06
1.11538e-06
2.3161e-07
-2.61869e-08
5.74485e-07
-4.63933e-07
5.89979e-07
-1.0721e-06
4.26433e-08
-3.29884e-07
1.42104e-07
-6.44244e-07
-1.58465e-07
1.58465e-07
4.52068e-07
3.6932e-07
5.01526e-07
5.97027e-07
-2.07864e-07
-3.89164e-07
2.74772e-07
5.49116e-08
4.89012e-07
-5.61684e-07
4.73168e-07
-4.89012e-07
-6.29083e-07
2.22911e-07
4.06172e-07
1.1316e-06
-2.86435e-07
6.5814e-07
5.71504e-07
-8.20268e-07
5.34918e-07
2.8535e-07
-3.34375e-07
-4.06629e-07
-5.11578e-07
4.06629e-07
2.60185e-07
8.37459e-09
-6.47767e-07
-3.71171e-07
-3.89399e-07
3.71171e-07
3.89399e-07
3.58497e-07
-3.58497e-07
-1.13131e-06
-3.96687e-07
-4.76226e-07
-4.02486e-07
-1.9336e-07
-5.04948e-07
-1.62805e-07
-4.03555e-07
4.03555e-07
-5.36423e-07
-4.66408e-07
-5.89979e-07
-3.66888e-07
5.76654e-08
4.30259e-07
-6.46987e-07
-2.07102e-07
-1.51211e-07
4.93399e-07
1.00029e-06
1.85362e-07
-6.52871e-07
-2.80571e-08
3.18078e-10