/*--------------------------------*- C++ -*----------------------------------*\
  =========                 |
  \\      /  F ield         | OpenFOAM: The Open Source CFD Toolbox
   \\    /   O peration     | Website:  https://openfoam.org
    \\  /    A nd           | Version:  9
     \\/     M anipulation  |
\*---------------------------------------------------------------------------*/
FoamFile
{
    format      ascii;
    class       volScalarField;
    location    "0.93";
    object      p;
}
// * * * * * * * * * * * * * * * * * * * * * * * * * * * * * * * * * * * * * //

dimensions      [0 2 -2 0 0 0 0];

internalField   nonuniform List<scalar> 
464
(
1.52762e-21
-3.86638e-21
-8.74801e-22
-8.91768e-22
-4.41345e-21
-8.69029e-22
5.07913e-22
-8.89163e-22
-6.88151e-22
-3.71591e-22
1.44268e-21
4.04765e-21
3.56467e-22
3.84572e-21
3.17063e-22
4.7973e-22
-1.01913e-21
-3.30408e-22
-9.13326e-22
-7.52603e-22
-7.18532e-22
-7.90639e-22
-7.99266e-22
-8.81795e-22
-8.88657e-22
-8.67809e-22
2.03681e-21
-9.05645e-22
2.87642e-21
-8.37603e-22
-8.25732e-22
-5.82297e-22
-8.94422e-22
-8.7246e-22
-7.02905e-22
-8.87604e-22
-1.18463e-21
-9.15449e-22
-8.56948e-22
-1.36475e-22
-7.0509e-22
-7.59059e-22
-7.75766e-22
3.0792e-21
3.80395e-21
-1.17844e-21
-8.60014e-22
-8.63543e-22
-8.98163e-22
-9.58673e-22
-6.40507e-22
-8.8889e-22
-8.88351e-22
-7.74942e-22
-7.59816e-22
-8.8072e-22
-8.61596e-22
-5.77789e-22
-5.49169e-22
-8.52009e-22
-8.65471e-22
-2.34995e-21
-5.37957e-22
-6.95718e-22
-1.46595e-21
-7.75524e-22
-2.71124e-22
-9.1551e-22
2.49706e-21
-7.26722e-22
-4.36232e-22
-2.01313e-21
1.75983e-21
-8.64905e-22
-7.81014e-22
-8.56733e-22
-3.87992e-22
6.70744e-22
-6.54357e-22
2.01879e-21
-3.46086e-21
-8.62876e-22
-5.65709e-21
-8.51022e-22
-3.68487e-21
-4.69013e-22
-1.71594e-21
-8.36216e-22
-8.76294e-22
-7.60703e-22
-3.17478e-21
-2.64317e-21
-3.06379e-22
3.20034e-21
-1.86263e-22
-4.99529e-22
-6.26465e-22
-8.67669e-22
-2.09892e-21
-7.02992e-22
-8.793e-22
-8.47789e-22
-8.71582e-22
-5.22461e-22
-9.50292e-22
-5.51891e-21
-8.65966e-22
-3.78487e-22
-3.06292e-21
-8.02867e-22
-2.65386e-22
-8.45813e-22
-1.99313e-22
-1.7375e-21
-8.6816e-22
-8.76147e-22
-4.63723e-21
-8.35518e-22
-2.52381e-21
-8.37097e-22
-8.21305e-22
-1.51723e-23
-1.32444e-21
1.43415e-21
-4.11722e-22
-3.90259e-22
-5.42013e-22
-1.4957e-22
-9.43678e-22
-5.19068e-21
-8.29491e-22
3.49442e-21
-8.55733e-22
-8.52165e-22
-7.87949e-22
-3.76201e-21
-8.18044e-22
-8.85361e-22
-5.20101e-22
-7.34626e-22
-7.51106e-22
-3.07361e-22
-3.88644e-22
-8.7226e-22
-8.02342e-22
-1.08646e-21
-8.6411e-22
-8.37527e-22
-7.0917e-22
-7.0125e-22
-8.31477e-22
-8.40826e-22
6.29092e-23
-4.09271e-22
-3.21504e-21
-7.31681e-22
-9.75251e-22
-8.38006e-22
-6.16594e-22
-2.70022e-21
-3.11058e-22
-8.059e-22
-5.2334e-22
-7.5711e-22
-7.52026e-22
-7.61481e-22
-1.28017e-22
-7.01638e-22
-4.01965e-22
-1.52503e-22
5.71543e-23
-2.1411e-21
-1.10349e-21
-7.63894e-22
-3.15315e-22
-8.18609e-23
-8.08141e-22
-7.98712e-22
4.01599e-22
-8.1817e-22
-8.06585e-22
-7.35203e-23
-1.13781e-21
-6.16829e-22
-5.39766e-22
-1.7077e-21
1.8691e-22
2.0946e-22
-6.87188e-22
2.79417e-22
-8.19632e-22
3.03585e-22
-8.9935e-22
-8.45903e-22
-5.84083e-22
-5.88099e-22
-7.07688e-22
-7.92727e-22
-1.62623e-21
-7.18106e-22
-7.7423e-22
-6.07955e-22
-8.04766e-22
-6.1092e-22
2.79659e-22
-8.96874e-22
-7.01546e-22
-6.54321e-22
-6.49994e-22
-1.64443e-21
-7.5396e-22
4.10499e-23
-9.32801e-22
-7.5285e-22
-8.64183e-22
1.23695e-22
9.22334e-22
-8.78449e-22
1.80226e-21
-6.07256e-22
-4.51689e-23
-6.53809e-22
-6.559e-22
-7.48083e-22
-7.91807e-22
-7.84202e-22
-7.69562e-22
-7.21688e-22
-7.74513e-22
-7.23166e-22
-7.37046e-22
-6.77959e-22
-6.56828e-22
-5.88314e-22
-6.99769e-22
-6.85045e-22
-8.61076e-22
-5.63422e-22
-6.97119e-22
-1.09383e-21
-5.76972e-22
-6.71571e-22
-6.70359e-22
-5.83229e-22
-4.43294e-22
-1.56754e-21
-5.05585e-22
-7.62176e-22
-9.74369e-22
-8.71154e-22
-3.08485e-22
-1.47859e-21
-4.65167e-22
-5.62911e-22
-4.09075e-22
-3.96609e-22
-8.34465e-22
-9.57204e-22
-2.74642e-22
-3.00333e-22
-4.37068e-22
-4.71705e-22
-4.28869e-22
-3.94817e-22
-5.04503e-22
-5.32475e-23
-3.51601e-22
-8.47872e-22
-4.77219e-22
-5.31898e-23
-7.61258e-22
-3.48742e-22
-3.47181e-22
-9.56303e-22
-6.15424e-23
-3.46991e-22
-2.1436e-22
-5.37633e-22
-3.90219e-22
-1.45434e-21
-5.55884e-22
-8.81872e-22
-4.85725e-22
-8.90968e-22
1.92237e-22
-7.36722e-22
-1.97245e-22
-1.08272e-21
-8.59708e-22
-5.17732e-22
-8.88211e-22
-3.9288e-22
-8.64365e-22
-7.91744e-22
-4.33636e-22
-2.20952e-22
-2.64996e-24
-4.13185e-23
-6.68408e-23
-1.47072e-21
1.60608e-22
1.29414e-22
1.2597e-21
3.7658e-21
-1.00471e-21
-3.30696e-22
-3.48297e-22
-1.07521e-21
-2.31886e-21
-2.22397e-22
-6.85626e-22
-8.67879e-22
-5.92095e-22
-5.52587e-23
-3.97914e-22
-5.40654e-22
-2.2116e-22
-1.59094e-21
-9.09462e-22
-2.53591e-22
-8.14186e-22
-5.55066e-23
-1.91883e-21
-3.59224e-23
-2.71364e-22
-8.88126e-22
-9.26277e-22
3.78096e-22
-8.6061e-22
-1.25242e-21
-7.54399e-22
-1.33168e-21
-8.98251e-22
-4.82686e-22
-6.42991e-22
-7.92724e-22
-8.01461e-22
-8.83308e-22
-3.71524e-22
-7.20894e-22
-8.74033e-22
2.65322e-21
-8.94651e-22
-1.23266e-21
-5.24116e-22
-9.1711e-22
-9.07216e-22
-2.72451e-22
-8.89525e-22
-6.083e-22
-8.22832e-22
-8.72141e-22
-8.79217e-23
-1.58045e-22
-8.28777e-22
-2.47088e-21
-8.74388e-22
-5.347e-21
-8.8241e-22
-3.70384e-21
-8.67123e-22
2.04976e-22
-8.64259e-22
-3.43282e-21
1.83506e-21
-8.71056e-22
-8.67884e-22
-1.52808e-21
5.62525e-21
-8.29754e-22
-8.88352e-22
2.81486e-21
7.05979e-22
-1.75117e-21
1.2906e-21
-8.65247e-22
2.55042e-21
-7.37553e-22
2.96502e-21
-8.02383e-22
1.15103e-21
-9.37988e-22
-1.07169e-21
-2.95596e-22
-4.22624e-22
-2.46694e-22
-5.18473e-22
-8.59591e-22
-9.41043e-23
-4.02605e-22
-7.38738e-22
-8.48898e-22
-1.2131e-21
-1.00611e-21
-7.63257e-22
-7.94802e-22
-7.80823e-22
-8.16367e-22
-7.07057e-22
1.79746e-21
-2.16769e-21
-8.66458e-22
3.5019e-21
-7.68402e-22
9.45217e-23
1.65844e-21
4.79214e-21
-7.83321e-22
2.59276e-21
-7.61701e-22
-9.35021e-22
-9.7298e-22
-8.82964e-22
-8.57089e-22
-8.70887e-22
-1.76511e-21
6.46272e-21
-9.95333e-22
-8.66634e-22
-2.60617e-21
-9.46266e-22
-8.69307e-22
2.29493e-21
1.23055e-21
2.28967e-21
9.95964e-22
3.0283e-21
1.97896e-21
2.06758e-21
-5.62435e-21
-8.74505e-22
-2.25155e-22
-1.06968e-21
-8.52135e-22
-3.57645e-22
4.1296e-22
5.0384e-23
-8.36295e-22
1.77194e-22
-8.21193e-22
-7.32011e-22
-1.18788e-21
-7.77251e-22
-7.89384e-22
-8.23369e-22
-7.86267e-22
-8.12285e-22
-7.02544e-22
-8.07742e-22
-6.68183e-22
-4.26783e-22
5.53783e-22
-1.27754e-21
-8.56958e-22
-7.14465e-22
-1.25453e-21
-1.49656e-21
-9.14305e-22
-9.81237e-22
-1.009e-21
-7.84371e-22
6.04496e-21
4.13874e-21
-8.51525e-22
)
;

boundaryField
{
    back
    {
        type            empty;
    }
    front
    {
        type            empty;
    }
    left
    {
        type            zeroGradient;
    }
    top
    {
        type            zeroGradient;
    }
    right
    {
        type            zeroGradient;
    }
    bottom
    {
        type            uniformFixedValue;
        uniformValue    
        {
            type            scale;
            scale           
            {
                type            squarePulse;
                start           0.3;
                duration        0.3;
            }
            xScale          
            {
                type            constant;
                value           1;
            }
            value           
            {
                type            constant;
                value           15.1;
            }
        }
        value           uniform 0;
    }
}


// ************************************************************************* //
