/*--------------------------------*- C++ -*----------------------------------*\
  =========                 |
  \\      /  F ield         | OpenFOAM: The Open Source CFD Toolbox
   \\    /   O peration     | Website:  https://openfoam.org
    \\  /    A nd           | Version:  9
     \\/     M anipulation  |
\*---------------------------------------------------------------------------*/
FoamFile
{
    format      ascii;
    class       surfaceScalarField;
    location    "0.93";
    object      phi;
}
// * * * * * * * * * * * * * * * * * * * * * * * * * * * * * * * * * * * * * //

dimensions      [0 3 -1 0 0 0 0];

internalField   nonuniform List<scalar> 
663
(
-3.62189e-27
4.28092e-27
-6.37422e-28
8.91913e-28
4.46542e-27
-2.5091e-30
2.44951e-30
1.59186e-30
-1.30487e-29
1.16879e-29
-1.99099e-27
2.83492e-27
-8.66482e-31
6.11847e-31
-4.50486e-27
8.77788e-28
-8.95477e-30
1.42131e-29
-5.36606e-27
2.13453e-27
3.21679e-27
-7.484e-28
-4.59805e-27
-9.65281e-28
5.23417e-27
2.45413e-27
-9.11746e-28
-1.52932e-27
-2.35679e-27
2.19643e-27
2.33933e-28
9.99481e-28
-1.17256e-27
1.28793e-28
1.13916e-27
-1.24232e-28
-1.03769e-28
-1.02352e-28
1.93203e-28
-8.12207e-30
-4.07727e-29
3.89523e-30
-5.20651e-30
-1.05226e-28
1.71814e-28
-6.78981e-29
5.83421e-29
-1.58331e-28
3.10823e-29
3.22865e-29
-6.33288e-29
8.90474e-29
-5.47571e-29
1.01649e-29
4.54318e-30
-1.51146e-29
-7.22083e-30
-2.43423e-30
-7.33423e-30
2.11999e-29
-9.12441e-30
-3.43885e-28
3.52588e-28
7.50528e-30
-1.29148e-29
5.91112e-30
1.00928e-27
-8.47597e-28
-2.80313e-29
3.28229e-29
-5.10455e-30
6.31739e-31
-2.42496e-29
-1.11502e-27
9.34748e-28
1.84406e-28
7.91151e-30
-1.14666e-27
9.36761e-28
-7.70816e-28
-1.74212e-28
4.56609e-28
4.93456e-28
1.9529e-29
-6.94372e-29
-1.28979e-28
1.02967e-28
4.70713e-30
1.23295e-30
-4.43729e-30
1.89307e-29
-9.55924e-28
-1.4995e-29
9.661e-28
1.24537e-28
4.89854e-29
-1.15193e-28
1.15731e-28
-8.48447e-31
-2.31237e-29
-7.28317e-28
3.98635e-28
-1.46397e-27
7.02208e-29
-3.22278e-29
-1.54465e-29
4.74008e-29
2.5903e-29
-1.20083e-29
-1.39633e-29
-6.99441e-30
7.17386e-30
-5.16361e-30
-3.42561e-29
1.65664e-28
1.57196e-29
-7.50257e-30
-8.20601e-30
1.54998e-28
-1.88062e-29
-1.38826e-28
-6.81811e-29
2.82045e-29
3.95679e-29
-8.20118e-29
1.64615e-29
2.44401e-29
-5.40228e-30
-2.30982e-30
9.58847e-29
-6.70439e-29
-2.8206e-29
2.64012e-29
6.98017e-29
1.46065e-28
1.81513e-29
-7.01555e-30
1.72732e-28
1.59115e-27
-1.76553e-27
3.77981e-29
3.21921e-28
-3.60166e-28
3.15067e-30
-1.92256e-29
1.59987e-29
-3.45773e-27
2.69483e-27
8.56215e-29
-5.49273e-29
-3.66264e-28
1.3591e-28
2.30826e-28
3.16294e-30
-2.4495e-27
-3.8495e-29
-4.27924e-29
-4.87516e-29
7.79832e-29
-3.30799e-27
1.03713e-27
-5.50213e-29
3.40294e-29
-5.29823e-30
-1.55374e-28
1.39444e-27
-1.23881e-27
1.67819e-29
-3.45037e-28
-1.98274e-29
-4.33651e-27
3.69104e-27
3.10839e-30
-6.89172e-29
-9.15535e-29
1.03027e-27
2.30174e-27
-3.34073e-27
1.05026e-30
5.33173e-30
-6.40654e-30
6.51521e-28
-8.66365e-28
1.96833e-28
3.0264e-30
-1.28755e-30
-1.93512e-30
1.6136e-27
2.11235e-28
-1.69848e-28
2.52084e-27
-9.44449e-28
1.12342e-29
5.63764e-30
1.84897e-29
-2.39096e-29
-1.50746e-27
1.34741e-27
-1.75181e-28
-1.05125e-27
9.26038e-28
-3.25706e-28
-6.03452e-28
-1.34985e-27
-2.08109e-27
3.41255e-27
5.54066e-28
3.78503e-28
-2.67819e-29
1.19413e-29
1.43255e-29
-5.77645e-30
7.53457e-29
5.52148e-28
-6.30233e-28
1.65897e-27
-4.02368e-27
3.35405e-29
-2.50902e-29
4.11614e-29
-5.08872e-29
2.39946e-29
1.1683e-29
1.66653e-28
7.88089e-28
-6.221e-28
-8.96368e-28
1.29426e-30
6.33116e-28
-4.99609e-28
-4.04243e-28
2.40306e-28
-5.99467e-30
-6.59096e-29
7.15587e-29
8.30308e-28
3.91216e-28
-1.22005e-27
2.38427e-29
3.21128e-28
-1.20399e-27
1.26304e-27
3.74923e-29
-1.58159e-29
4.87976e-29
-2.35347e-29
-1.35128e-28
-2.96147e-28
3.04033e-30
-4.41491e-30
1.12847e-30
5.45271e-28
-9.10773e-30
1.54571e-29
3.94329e-29
-1.51734e-27
3.1684e-27
1.19308e-27
1.30995e-27
-2.08926e-27
2.97629e-27
1.6385e-28
1.44001e-27
-6.07554e-28
2.50211e-27
-1.29849e-27
-7.33182e-28
1.12832e-27
-1.11224e-28
5.76706e-28
1.54225e-28
-1.80076e-28
2.42019e-29
2.70959e-29
3.65367e-30
3.0503e-29
-3.42449e-29
-3.16668e-28
4.16919e-30
2.3501e-29
-1.34727e-29
2.72147e-29
-2.79118e-29
-9.54841e-30
1.71335e-29
-6.62066e-28
8.08832e-29
-1.77377e-30
1.6858e-29
4.59166e-30
-3.12715e-31
3.63054e-29
1.35677e-27
6.92539e-29
-4.39099e-29
4.69654e-30
2.47637e-29
-4.20839e-29
4.28888e-29
-1.19112e-29
2.43917e-29
4.74494e-29
6.43977e-29
-3.52217e-29
-1.05267e-28
9.41349e-28
-8.34806e-28
1.11821e-27
3.25793e-28
2.22157e-28
-1.97067e-29
-5.11231e-30
5.29216e-29
-1.56174e-28
9.16271e-29
-6.59402e-29
9.87749e-28
1.12471e-27
-9.15745e-28
9.77645e-29
-4.22876e-28
3.26013e-28
2.2592e-29
7.12982e-29
9.54812e-29
-1.33683e-27
4.23934e-29
-2.05499e-29
6.442e-29
5.36996e-29
4.74665e-29
1.00937e-28
-1.15225e-28
-1.00209e-28
1.12599e-27
-9.9716e-28
-5.2036e-28
5.19653e-28
-3.96755e-28
-1.2271e-28
1.50183e-28
-6.19048e-28
6.54756e-28
7.03138e-29
6.2348e-28
1.2069e-28
-8.55491e-28
1.06752e-28
-8.25103e-29
7.98075e-29
2.78569e-29
-1.04691e-27
9.37712e-28
-1.26139e-28
-3.8929e-28
5.25146e-28
-7.7522e-29
1.58442e-28
8.17145e-29
2.45243e-28
-3.30179e-28
1.91068e-28
-1.9256e-28
9.25806e-29
3.92262e-28
-4.95171e-28
-3.34716e-28
9.16347e-29
1.43487e-28
-5.45222e-29
1.46827e-28
-2.65838e-28
3.92923e-28
3.29055e-29
4.41275e-29
-7.82808e-29
2.57746e-28
-1.07218e-28
-1.51075e-29
1.48068e-29
-1.43075e-29
2.23466e-29
4.88765e-29
9.08096e-29
-6.95965e-29
1.63818e-28
6.07105e-29
-9.76752e-29
-1.49122e-29
9.67344e-29
-1.50359e-30
-4.62111e-29
3.0948e-29
8.34916e-29
1.81899e-29
-2.90072e-29
-4.30973e-29
-4.99747e-29
5.02617e-29
-5.39198e-29
-5.24486e-29
2.61081e-30
3.22439e-29
-2.80704e-29
6.14979e-29
-4.34037e-28
-4.24382e-28
4.17007e-28
-5.59856e-29
1.1399e-28
1.27849e-29
6.73069e-29
1.16599e-28
4.51662e-29
7.08407e-29
1.15083e-28
2.87711e-29
1.40817e-28
-1.70292e-28
6.88391e-29
4.5492e-29
8.87546e-29
1.17656e-28
1.8384e-28
-3.74844e-29
1.26415e-28
5.76734e-29
-1.96393e-28
1.51353e-28
-1.86565e-28
4.94326e-29
5.1978e-29
-2.42995e-28
1.83492e-28
-1.93995e-28
2.64774e-28
1.71797e-28
-7.9823e-29
-1.59823e-28
-2.3877e-29
4.21148e-28
-2.28144e-28
-1.36567e-28
2.4019e-28
-1.13396e-28
4.7891e-29
3.23275e-28
4.18665e-30
1.58072e-28
1.4245e-28
-3.79738e-28
6.36868e-29
6.13251e-28
-4.31686e-28
-3.47833e-28
-7.03797e-28
-5.17472e-30
7.04131e-28
-3.87362e-28
-2.18499e-28
5.40198e-28
3.97327e-28
-5.77714e-29
-6.56123e-30
6.05055e-29
-2.94946e-28
8.15931e-28
-8.96527e-28
8.52547e-29
4.52828e-28
-7.46574e-28
-8.03242e-28
-2.50465e-28
1.0499e-27
-3.60676e-28
8.03091e-28
-8.03576e-28
1.03193e-27
-2.24358e-28
4.48438e-28
-7.20969e-28
-3.51369e-28
1.45664e-29
1.33563e-27
-1.24957e-27
4.45739e-28
6.25273e-28
6.73134e-29
3.79329e-28
-7.2843e-28
-1.94399e-28
2.33665e-28
1.10928e-27
1.0585e-27
-2.59446e-28
6.31921e-28
9.16882e-30
4.20349e-29
-4.39759e-29
1.31385e-28
9.11542e-28
-6.83676e-28
-3.18059e-29
4.83517e-29
-8.37643e-30
-2.33167e-28
-9.94428e-28
9.35489e-28
-2.65286e-29
-3.31007e-29
-3.16986e-30
1.84693e-28
-1.49133e-27
-3.14074e-29
5.11954e-28
1.15492e-27
-6.46312e-28
1.34906e-27
-6.98815e-30
2.08733e-29
-5.0309e-28
-2.20236e-29
8.71117e-30
-5.88598e-29
-4.67308e-28
5.72714e-28
-1.34599e-27
-4.93592e-28
-1.82503e-27
8.66303e-28
9.41075e-28
8.80579e-28
-1.23327e-28
-4.19206e-30
1.08395e-28
-9.09616e-28
1.91546e-29
-6.92561e-28
1.01214e-27
-8.20395e-29
1.86601e-27
-8.76996e-28
4.47178e-28
-1.07099e-27
-5.67554e-28
-7.79856e-28
-1.00784e-29
3.46153e-30
7.96848e-28
2.10733e-29
1.44131e-29
-8.12426e-29
6.05741e-30
-6.19172e-30
-1.44871e-27
-7.14868e-29
-8.75184e-29
4.95868e-27
-3.248e-27
2.68962e-30
-2.95797e-30
-6.42247e-29
-5.92605e-29
-3.68377e-29
-8.88276e-31
1.43222e-30
5.11561e-29
4.03702e-31
9.9132e-31
9.80814e-28
-5.72912e-27
1.31892e-27
-5.36833e-31
-1.16956e-29
1.51938e-28
-6.33762e-29
-1.3189e-28
1.43566e-27
3.7289e-31
1.40909e-27
2.07698e-31
1.32487e-28
4.28171e-27
7.88593e-31
4.61489e-30
-1.1031e-27
-1.48061e-30
-5.06649e-28
3.16409e-27
-3.39677e-30
1.12511e-30
-2.94158e-28
1.60664e-28
5.34531e-28
1.44639e-29
-5.989e-30
8.43472e-30
2.0288e-28
-1.06929e-27
-2.25915e-28
1.95099e-28
-1.55122e-28
-5.50989e-28
7.06265e-29
4.37754e-28
-1.53707e-29
-4.02606e-28
4.68338e-28
-5.90431e-28
-1.00186e-28
1.59399e-28
8.22055e-28
5.77179e-28
1.05844e-29
-2.74972e-30
-4.61597e-30
1.58883e-28
-2.72162e-29
-4.24999e-29
4.5237e-29
-1.24058e-28
-9.83147e-29
7.38266e-29
2.97479e-29
-6.24576e-29
1.17507e-28
4.63819e-27
2.46117e-30
4.17827e-27
5.60787e-31
3.85373e-27
-2.01273e-27
1.47169e-27
-1.45684e-27
-8.66507e-31
-2.09117e-27
6.80865e-31
-3.23839e-27
-1.35321e-27
-1.70663e-30
-1.01258e-29
9.5746e-30
-4.89399e-30
-5.01917e-30
3.01605e-29
-1.62704e-29
5.46886e-28
-6.32292e-30
-3.09547e-30
-1.37635e-27
4.69333e-28
3.69857e-28
1.53914e-29
2.75221e-29
-1.83566e-29
-7.78805e-29
-1.46142e-28
7.9113e-29
2.57169e-29
7.62671e-30
7.24069e-30
-5.69525e-30
2.86121e-30
)
;

boundaryField
{
    back
    {
        type            empty;
        value           nonuniform List<scalar> 0();
    }
    front
    {
        type            empty;
        value           nonuniform List<scalar> 0();
    }
    left
    {
        type            calculated;
        value           uniform 0;
    }
    top
    {
        type            calculated;
        value           uniform 0;
    }
    right
    {
        type            calculated;
        value           uniform 0;
    }
    bottom
    {
        type            calculated;
        value           nonuniform List<scalar> 8(-5.44007e-27 -1.74001e-27 4.81476e-27 -3.46556e-27 -4.56182e-27 3.62529e-27 5.61001e-27 1.85669e-27);
    }
}


// ************************************************************************* //
