/*--------------------------------*- C++ -*----------------------------------*\
  =========                 |
  \\      /  F ield         | OpenFOAM: The Open Source CFD Toolbox
   \\    /   O peration     | Website:  https://openfoam.org
    \\  /    A nd           | Version:  9
     \\/     M anipulation  |
\*---------------------------------------------------------------------------*/
FoamFile
{
    format      ascii;
    class       volVectorField;
    location    "0.93";
    object      U;
}
// * * * * * * * * * * * * * * * * * * * * * * * * * * * * * * * * * * * * * //

dimensions      [0 1 -1 0 0 0 0];

internalField   nonuniform List<vector> 
464
(
(-1.09323e-19 -5.95894e-20 -2.13585e-39)
(-7.05136e-20 1.39641e-19 0)
(4.97777e-23 -6.62914e-25 0)
(5.61983e-23 -3.81839e-22 5.35362e-38)
(-5.14271e-20 1.09638e-19 0)
(6.32681e-23 -4.96197e-24 -1.30499e-38)
(-1.03094e-19 -3.35165e-20 6.02458e-38)
(-8.47468e-24 -3.67701e-22 0)
(-1.27917e-19 1.55012e-21 -2.09502e-39)
(-1.20708e-19 3.35752e-20 -5.30418e-38)
(-8.66826e-20 -7.73968e-20 5.0714e-39)
(-3.62759e-20 -4.04466e-20 -6.80084e-39)
(-1.12075e-19 -1.23959e-20 -1.91022e-38)
(-2.56497e-20 -4.5781e-20 0)
(3.67939e-22 3.79414e-20 -1.07857e-38)
(2.03172e-21 3.35807e-20 -2.36912e-38)
(3.68772e-21 9.53428e-22 0)
(2.14721e-21 -2.34848e-22 -6.05078e-39)
(2.4852e-23 -9.16682e-23 -4.07244e-38)
(-9.714e-22 -4.99041e-21 4.26113e-38)
(-9.44938e-22 -4.78091e-21 -6.24911e-38)
(-6.5796e-22 -1.95057e-21 1.08842e-38)
(-1.03725e-21 -2.39038e-21 -6.0583e-39)
(4.71949e-23 -5.23504e-22 0)
(1.23831e-22 -2.87153e-22 -5.49846e-38)
(4.88684e-23 -5.63134e-22 2.45378e-38)
(-9.52082e-21 1.64213e-20 -4.3257e-38)
(-1.56115e-22 -3.46776e-22 -5.31717e-38)
(-1.19065e-20 2.28935e-20 0)
(-1.55003e-22 -8.62022e-22 0)
(-1.80989e-22 -8.71784e-22 2.97937e-39)
(1.2091e-20 3.0287e-20 2.50666e-40)
(9.38541e-21 3.4357e-20 -8.23743e-39)
(1.11245e-20 1.93204e-20 -4.36407e-38)
(1.35024e-20 1.56255e-20 4.39826e-38)
(1.65765e-21 -1.42519e-21 6.10471e-38)
(1.61989e-21 -2.80033e-21 -5.88898e-38)
(-7.79845e-23 -1.17046e-22 -6.76595e-39)
(-1.90553e-22 -3.34035e-22 1.86297e-39)
(4.63676e-21 2.95992e-20 0)
(-4.72484e-22 -5.29051e-21 6.09505e-38)
(-9.99349e-22 -3.10568e-21 0)
(-1.20701e-21 -2.9393e-21 -1.62888e-38)
(-1.48716e-20 2.2791e-21 -1.94551e-37)
(-2.73166e-20 -1.1999e-20 1.99433e-37)
(3.95882e-21 3.55111e-20 -4.81544e-39)
(-1.07645e-21 -3.72184e-22 4.96814e-38)
(-5.34745e-22 5.46462e-22 -5.08464e-40)
(-2.39986e-23 -1.52514e-22 0)
(-1.22136e-22 -2.23339e-22 6.5507e-39)
(-2.90445e-22 -5.46388e-21 -3.99502e-38)
(-2.61967e-22 -3.01111e-22 -3.33354e-39)
(-1.839e-22 -4.15513e-21 -3.36857e-38)
(-1.83374e-21 7.38842e-23 -4.37418e-38)
(-1.54859e-21 1.23546e-21 -1.43163e-39)
(-4.4512e-22 -2.12714e-22 5.23654e-38)
(-7.50852e-22 -3.88136e-22 0)
(2.69834e-21 -5.54336e-22 0)
(1.96877e-21 7.21949e-22 -2.93883e-38)
(1.40696e-22 -4.69926e-21 0)
(-5.43366e-23 -2.49464e-22 5.05092e-38)
(-5.6102e-20 2.28448e-20 2.55508e-37)
(8.49678e-21 -3.26574e-21 6.09446e-38)
(-4.64583e-22 -4.9977e-22 -4.16393e-38)
(-9.80789e-20 3.02492e-20 -4.06685e-39)
(-2.07674e-21 -6.98844e-22 -4.61255e-38)
(7.36405e-21 -7.43074e-21 -1.93733e-38)
(-9.11033e-23 -1.92906e-22 -5.16126e-38)
(-6.26754e-20 -5.51514e-20 -7.2663e-38)
(-1.13944e-21 1.929e-21 4.20413e-38)
(2.52786e-21 3.41608e-22 2.93274e-38)
(-7.81413e-20 4.15601e-20 -1.34993e-37)
(-6.62793e-21 3.24956e-20 0)
(-6.48443e-22 2.24814e-22 5.18574e-38)
(3.41707e-21 -4.07645e-20 -3.8859e-38)
(-3.1743e-22 -4.50911e-22 5.09804e-38)
(7.4094e-21 -5.08925e-21 -1.97201e-38)
(-1.24949e-19 -5.78821e-20 -6.41033e-38)
(1.56878e-21 -8.87105e-22 -3.80295e-38)
(-1.99228e-21 3.23036e-20 3.33745e-38)
(-4.85923e-20 6.61791e-20 0)
(1.56484e-22 -1.38171e-22 1.25428e-38)
(-1.06451e-20 1.98356e-20 -3.32837e-37)
(8.06284e-23 -8.60247e-24 5.12664e-38)
(-2.82445e-20 3.6156e-20 0)
(5.87468e-21 -2.13839e-21 1.48085e-39)
(-5.48534e-20 5.36492e-21 -1.21992e-37)
(1.36291e-22 -1.50992e-22 0)
(-2.18297e-22 -7.18808e-22 0)
(4.61141e-21 -4.1549e-20 -3.94068e-38)
(-3.39542e-20 2.00859e-20 1.86486e-37)
(-7.4322e-20 6.94161e-20 0)
(1.33065e-20 -1.7172e-20 1.50456e-38)
(-5.08811e-20 -9.77336e-20 -1.63027e-37)
(1.17749e-20 -2.17458e-20 -1.47033e-38)
(9.65176e-21 -4.83472e-21 -3.08889e-38)
(3.58318e-22 1.51743e-22 3.81178e-38)
(1.34172e-22 -2.66187e-22 -1.15034e-38)
(-7.95787e-22 -2.22365e-20 -1.37259e-37)
(-9.67862e-20 -2.49316e-21 9.86009e-39)
(-1.34233e-22 -7.66339e-22 0)
(-8.38261e-22 8.78374e-22 2.59703e-39)
(-2.67686e-22 -9.16318e-22 0)
(1.33342e-20 2.57943e-20 -2.45282e-40)
(1.13364e-20 2.52663e-20 0)
(-7.34973e-21 1.91586e-20 -2.57181e-37)
(3.47912e-23 1.7834e-23 0)
(1.05738e-20 -1.03278e-20 1.88417e-38)
(-1.78332e-20 1.08406e-21 -1.86686e-37)
(-1.6263e-21 6.54262e-22 0)
(1.20589e-20 -3.00611e-20 0)
(-1.07994e-21 -1.18807e-24 -5.07174e-38)
(9.99896e-21 -1.39048e-20 0)
(-3.53214e-21 -3.37198e-20 9.47862e-38)
(-4.01365e-22 -7.59519e-22 1.63431e-39)
(-5.51175e-22 -1.02771e-21 -8.38658e-40)
(-5.79086e-21 -3.14313e-21 2.5265e-37)
(7.96134e-23 -1.12312e-22 5.3147e-38)
(-1.15923e-21 -1.15267e-20 1.10422e-37)
(6.79118e-23 -3.21761e-22 -3.05652e-39)
(-1.3376e-21 6.07811e-22 4.64355e-38)
(-7.95051e-20 -5.7839e-21 7.20077e-41)
(-6.95334e-20 3.33949e-21 5.54394e-38)
(-7.98533e-20 -2.52141e-20 -3.90903e-38)
(4.47023e-21 -1.37891e-21 0)
(1.3466e-20 -3.22415e-20 2.38306e-38)
(-5.98954e-20 -5.6314e-21 -5.59225e-38)
(7.46979e-21 -2.84427e-20 0)
(1.13524e-20 1.10526e-20 0)
(-4.34852e-21 3.14913e-21 2.57847e-37)
(6.4605e-23 -1.27534e-23 -3.98149e-38)
(-5.64518e-21 -2.69595e-21 -1.44621e-37)
(-4.6055e-23 -6.81237e-23 -4.1322e-38)
(-7.481e-22 -1.23475e-21 0)
(-1.7122e-22 -1.04012e-21 0)
(-2.54655e-21 -6.80324e-21 -2.00366e-37)
(1.81705e-23 -3.98378e-23 -7.81724e-38)
(-1.67045e-22 -4.80693e-22 -5.47393e-38)
(-9.09316e-20 1.05732e-20 5.86836e-38)
(-9.3824e-23 -5.63004e-22 3.43151e-38)
(-2.10317e-23 -5.12584e-22 0)
(1.45479e-20 -2.48451e-20 0)
(1.35565e-21 1.2955e-21 9.46882e-39)
(-5.86332e-22 -9.09734e-22 5.34642e-38)
(1.71031e-23 -1.88927e-22 4.72405e-38)
(9.42174e-22 -3.76117e-20 -7.61139e-38)
(-1.06552e-21 -1.28226e-21 0)
(1.39973e-22 -3.48003e-22 0)
(-1.10816e-21 3.07261e-22 -1.53699e-39)
(-2.19258e-22 -1.39056e-21 -8.45196e-38)
(-1.29086e-21 -1.58137e-21 1.53746e-39)
(-5.78077e-22 -1.32043e-21 4.80311e-38)
(-1.93834e-20 1.59264e-20 7.11432e-39)
(9.9549e-21 -3.73649e-20 -2.39363e-38)
(-3.03848e-21 -1.62267e-20 -1.61548e-40)
(-1.10505e-22 -9.29446e-22 -4.7672e-38)
(3.989e-21 3.64578e-21 0)
(-1.61905e-21 -1.52816e-21 0)
(-6.39678e-20 -4.02921e-21 -2.01815e-38)
(-2.10704e-20 -1.18495e-20 1.51723e-37)
(-1.05539e-20 -4.46121e-21 0)
(-1.80443e-21 -1.95125e-21 -4.96125e-38)
(3.58933e-21 -3.50176e-20 6.55123e-38)
(-1.22138e-22 -9.0384e-22 -1.2128e-39)
(-2.77557e-22 -2.05012e-21 4.49093e-38)
(4.74159e-24 -1.24837e-22 0)
(-1.45021e-21 4.08967e-21 -1.42306e-38)
(-5.14799e-22 -3.41195e-21 4.30774e-38)
(5.1812e-21 2.75118e-20 3.82306e-38)
(9.76534e-22 -1.06152e-20 1.34468e-38)
(1.95946e-21 -1.72218e-20 -8.24896e-39)
(-3.56979e-20 -9.74519e-21 -1.09404e-37)
(8.44251e-22 -2.38422e-20 -2.85542e-38)
(-4.14472e-22 -1.6664e-21 -1.08136e-38)
(1.64146e-21 -2.14434e-20 1.59607e-38)
(4.99665e-21 -2.14817e-20 -3.6632e-39)
(-2.05372e-21 -1.73839e-21 4.92701e-38)
(-2.10128e-21 -2.31211e-21 -1.91166e-40)
(-2.76473e-20 1.61835e-20 4.53495e-39)
(5.48548e-21 1.20461e-20 4.83258e-39)
(-1.82386e-21 -3.16795e-21 4.61871e-38)
(3.49778e-21 -7.69066e-21 4.1855e-39)
(1.03289e-21 3.76892e-21 0)
(2.16165e-21 5.75804e-21 -2.42672e-38)
(1.54161e-21 1.73586e-20 7.82256e-38)
(1.68795e-21 1.06855e-20 -2.48864e-39)
(1.24008e-21 -3.76923e-21 0)
(8.03046e-22 -2.84357e-21 1.22496e-38)
(6.50247e-22 -1.27953e-20 -6.67192e-38)
(1.85915e-21 -1.23747e-20 -1.15314e-41)
(-8.75897e-22 1.62775e-21 -4.70019e-41)
(1.62849e-21 -7.63679e-21 -1.53231e-38)
(-1.07775e-22 3.09686e-22 -8.54827e-38)
(-5.93983e-22 1.20237e-21 -5.15998e-38)
(7.71889e-22 1.78935e-21 3.40871e-41)
(3.31419e-22 2.46959e-21 -3.41951e-41)
(-6.44809e-22 -4.40516e-21 -3.96085e-38)
(-1.37451e-21 1.30082e-21 4.65019e-41)
(4.858e-22 8.03834e-21 -5.10884e-38)
(-7.76479e-22 2.36354e-21 4.09938e-38)
(-5.88729e-22 1.9584e-21 0)
(-5.85284e-23 2.64233e-21 0)
(-2.48051e-22 1.39237e-21 0)
(-3.88439e-22 2.73827e-21 3.66508e-41)
(9.43243e-22 -5.24466e-21 0)
(-2.23315e-22 8.00979e-22 1.43612e-39)
(-1.32702e-22 9.57749e-22 0)
(-6.29391e-23 1.05109e-21 -3.12321e-38)
(-5.11061e-23 1.93229e-21 3.75234e-38)
(4.94725e-23 -1.33098e-20 6.55989e-38)
(-4.47713e-23 -3.64989e-22 3.52805e-38)
(5.68961e-22 -9.69255e-22 0)
(-4.87244e-23 -5.92175e-23 4.4207e-38)
(2.10461e-22 -5.835e-22 -4.6185e-38)
(-1.13542e-22 -1.30682e-21 0)
(1.04472e-21 -8.00596e-21 4.31894e-39)
(8.74899e-22 1.08408e-20 -8.57875e-39)
(-1.06331e-22 6.42554e-22 4.23975e-38)
(-1.36269e-21 9.24934e-21 -4.00808e-38)
(4.31632e-23 1.18867e-21 -3.00234e-38)
(9.92548e-22 2.17202e-21 1.5589e-38)
(-1.91172e-22 1.72923e-21 3.90614e-38)
(-4.53188e-22 2.54023e-21 -4.10431e-38)
(-1.6389e-21 -5.05357e-22 8.82167e-38)
(-2.13809e-21 -1.94674e-21 4.78633e-38)
(-1.93501e-21 -2.70488e-21 -4.54293e-38)
(-1.6681e-21 -2.13005e-21 0)
(4.70965e-22 -4.44928e-21 2.1267e-38)
(-1.12582e-21 -2.93246e-21 -1.39178e-39)
(-4.17462e-22 -2.22157e-21 -4.44921e-38)
(5.9238e-22 -3.09534e-21 4.40991e-38)
(1.34321e-21 -4.74096e-21 -4.91698e-39)
(2.90349e-21 -3.96426e-21 0)
(4.58087e-21 -1.65797e-21 -3.08038e-38)
(8.95359e-22 -5.24553e-21 4.27643e-38)
(1.76083e-21 -2.42714e-21 0)
(6.86117e-21 -1.38336e-21 3.48541e-39)
(5.98415e-21 -2.64187e-21 5.74525e-39)
(3.2251e-21 -2.99979e-21 3.78067e-38)
(4.84769e-21 -1.34848e-21 7.69538e-38)
(4.94284e-21 -2.43605e-21 -3.84637e-38)
(9.64281e-21 -1.86545e-22 -4.49698e-38)
(3.9168e-21 -3.57153e-21 3.58228e-38)
(6.82525e-21 -2.53484e-21 0)
(9.06228e-21 -2.59197e-21 0)
(5.24094e-21 9.43182e-22 1.11766e-38)
(1.10607e-20 -1.91109e-21 -1.0973e-39)
(-5.24773e-22 -4.1796e-21 0)
(1.01507e-20 2.85751e-21 0)
(-2.11524e-22 -2.4422e-21 0)
(1.39438e-20 3.55356e-21 -2.12582e-38)
(7.56482e-21 3.96727e-21 -1.68856e-37)
(1.6701e-20 -8.7033e-21 -2.66421e-38)
(8.96089e-21 -3.77565e-20 3.95286e-38)
(1.37075e-20 -2.81895e-21 0)
(1.57412e-20 -9.02512e-22 0)
(-1.60796e-21 -9.63266e-22 0)
(5.66606e-24 -1.41437e-21 -4.63583e-38)
(1.77567e-20 -3.44342e-21 -2.18268e-38)
(1.91104e-20 1.21418e-20 0)
(1.92035e-20 -1.16112e-22 2.08507e-38)
(1.92433e-20 -1.64639e-20 5.03785e-38)
(2.04583e-20 -3.74322e-21 2.8338e-38)
(4.90934e-21 2.771e-20 -1.23996e-38)
(2.08856e-20 1.42956e-21 -2.83387e-38)
(-1.07559e-21 2.09465e-20 -6.44505e-39)
(2.04018e-20 -4.17905e-21 -4.86665e-41)
(-3.37298e-22 -6.36359e-22 -1.59741e-39)
(-1.37865e-22 3.92613e-20 2.12804e-38)
(1.09348e-20 2.00365e-20 1.25676e-38)
(-3.73359e-22 -1.81822e-21 -4.07253e-38)
(1.87615e-20 2.43497e-21 0)
(6.02888e-21 -4.4461e-21 1.3918e-38)
(4.02737e-21 3.75804e-20 4.39232e-38)
(-7.21898e-20 -9.51839e-21 3.08472e-38)
(1.60644e-20 -4.51341e-21 0)
(1.17604e-20 3.65439e-21 0)
(5.01404e-22 2.14732e-21 -2.76178e-38)
(1.85284e-22 9.81138e-22 0)
(-1.97322e-21 -4.01215e-20 -1.9449e-38)
(5.91365e-21 -2.14674e-20 2.11595e-40)
(-7.99656e-22 -8.31002e-22 -1.25886e-40)
(1.28719e-22 1.80144e-21 0)
(-3.46491e-22 2.85583e-23 -5.35447e-38)
(-6.85837e-21 3.50875e-20 -1.53876e-38)
(-7.60549e-22 -2.83839e-20 -3.66668e-38)
(5.28166e-22 8.56846e-22 -1.26144e-38)
(-4.16747e-20 -1.44072e-20 0)
(-7.05213e-22 -5.99891e-22 0)
(-9.67947e-21 -2.0528e-20 3.75474e-38)
(-1.81607e-20 -2.44579e-20 2.50479e-40)
(-3.18218e-20 -1.56203e-20 -1.54884e-40)
(-1.28335e-21 -7.68411e-22 -5.19761e-38)
(-1.96406e-21 -2.47297e-22 9.45459e-38)
(1.35843e-20 -8.49442e-21 2.71007e-38)
(1.3237e-21 4.29004e-22 2.96999e-38)
(8.90153e-22 -8.75854e-22 0)
(7.20279e-21 -2.01056e-20 1.37035e-39)
(6.03453e-21 -1.2356e-20 -4.19489e-39)
(-3.22302e-20 -1.99299e-20 1.08371e-37)
(-8.32953e-21 2.55523e-20 1.07718e-39)
(-2.14617e-20 2.48743e-21 -4.69183e-39)
(-3.77036e-20 3.85892e-21 -1.98938e-37)
(-3.01025e-20 -7.07769e-20 2.11912e-37)
(7.2517e-22 -4.3504e-21 2.72772e-38)
(1.6835e-20 -1.3419e-20 -2.47311e-38)
(1.8211e-20 -1.8796e-20 -4.94379e-38)
(3.79408e-22 -3.94909e-21 3.18302e-38)
(-9.97185e-21 -2.19971e-20 -2.76597e-37)
(4.85753e-21 -2.89848e-20 -1.77181e-38)
(-9.77266e-22 1.67601e-21 -4.20503e-38)
(-1.078e-21 -9.60046e-22 -5.21003e-40)
(1.27233e-20 -5.53112e-21 0)
(-4.8549e-20 -1.06329e-21 1.04494e-38)
(1.65752e-20 -2.39915e-20 -5.36235e-38)
(1.05918e-20 -2.76098e-20 0)
(4.0299e-22 2.25552e-22 9.99126e-39)
(-1.83289e-20 -3.01744e-20 0)
(3.34707e-23 -2.73186e-22 0)
(-4.37151e-20 5.9195e-21 -4.79112e-39)
(-3.00047e-22 -1.12636e-21 3.80093e-38)
(4.36381e-21 -6.12195e-21 -3.80778e-41)
(-1.01333e-20 -3.11889e-20 1.26805e-37)
(4.47902e-21 -1.40039e-20 2.30399e-39)
(-3.4388e-20 -4.81426e-21 1.44544e-38)
(-1.94564e-22 3.67992e-22 -2.33748e-40)
(-1.22551e-22 4.29654e-23 -5.41016e-38)
(-5.22384e-20 4.47013e-22 1.03815e-38)
(-4.58508e-22 -5.89006e-22 0)
(-1.36282e-20 -3.38785e-20 -7.48155e-38)
(-1.22864e-21 -4.21085e-21 -2.09864e-38)
(-1.32516e-19 4.43591e-20 -4.02126e-38)
(6.64642e-23 -2.1171e-23 -2.13423e-38)
(1.91772e-20 -1.25371e-20 4.87872e-38)
(-4.70544e-22 2.21643e-21 -3.64697e-41)
(-2.00218e-21 -8.26687e-22 -4.68868e-38)
(-5.36203e-22 -1.53111e-21 -3.48223e-38)
(1.4214e-23 -4.86413e-23 -4.23323e-38)
(6.41511e-21 -3.60378e-20 -8.97466e-39)
(-1.00165e-21 -3.72308e-21 4.60619e-38)
(3.51634e-24 -3.58315e-23 2.17004e-38)
(-1.10257e-19 -1.23827e-19 0)
(1.80136e-22 -3.91773e-20 -7.61742e-40)
(-4.62182e-21 -4.01432e-20 7.42602e-38)
(1.52072e-20 -1.97722e-20 2.74949e-38)
(-5.67484e-23 -4.50846e-22 2.5682e-38)
(-8.38627e-23 1.38398e-22 8.65791e-38)
(4.81609e-21 -2.70503e-21 1.96628e-38)
(6.74302e-23 -1.05211e-22 5.18174e-38)
(1.85025e-22 1.59465e-21 0)
(-1.73129e-21 -5.54238e-22 -1.54986e-39)
(3.15094e-23 -1.21428e-22 -2.46823e-38)
(2.4179e-21 -2.76885e-21 0)
(2.75031e-21 -1.57109e-21 -1.13104e-38)
(-1.44909e-21 4.75785e-23 -4.82446e-38)
(-2.39227e-20 9.27003e-20 3.23198e-37)
(-7.02222e-26 -5.49579e-24 0)
(-6.69013e-21 3.82406e-20 -1.74521e-37)
(-2.04497e-24 -1.33961e-24 -1.9762e-38)
(-9.00494e-20 1.17947e-19 0)
(7.31618e-23 -4.98787e-23 -2.82042e-38)
(-1.34726e-19 -1.58796e-20 1.16555e-38)
(9.0874e-23 -6.61156e-23 1.39527e-38)
(-3.93604e-20 7.90162e-20 0)
(-8.02264e-20 -1.00603e-19 4.82531e-39)
(-4.79581e-23 -1.39134e-22 5.58708e-38)
(-8.05646e-23 -5.33576e-22 0)
(9.15262e-21 1.00647e-20 0)
(-9.93854e-21 -1.78362e-20 0)
(-1.68937e-23 -5.4824e-22 2.66242e-38)
(-8.42295e-23 -1.80762e-22 0)
(-7.18684e-21 2.38602e-21 2.51602e-37)
(-1.09583e-20 3.29032e-20 -1.23899e-38)
(5.08067e-21 6.7242e-21 0)
(-3.34545e-21 1.25882e-20 -5.05008e-39)
(-1.15598e-23 -5.79856e-22 0)
(-4.05528e-20 -8.93076e-21 1.18042e-37)
(-5.84988e-22 -2.44062e-21 6.73693e-38)
(-9.3983e-22 1.88647e-20 3.09428e-37)
(-1.72766e-22 -9.13977e-22 1.36472e-38)
(2.41099e-21 1.82346e-20 0)
(7.53802e-21 2.58383e-20 -4.11849e-38)
(6.92914e-21 1.68093e-20 0)
(1.72774e-20 1.78689e-20 -7.94945e-39)
(1.43697e-20 6.65354e-21 -1.04179e-39)
(1.36848e-20 2.34433e-20 0)
(1.71613e-20 1.24299e-20 -1.34087e-38)
(1.03959e-22 -4.44426e-22 -2.83415e-38)
(2.37968e-21 2.40263e-21 0)
(9.66596e-22 -7.50695e-22 0)
(1.36865e-21 -4.80105e-21 -2.74231e-38)
(3.02256e-21 -2.74399e-21 0)
(2.59938e-22 -1.84091e-21 2.57247e-38)
(-1.4607e-22 -2.41272e-21 1.06976e-37)
(-3.25119e-22 -4.79269e-21 -2.19549e-38)
(-1.58493e-21 -3.0014e-21 -4.92588e-38)
(-1.63211e-21 -3.8098e-21 0)
(-7.13535e-22 -1.57524e-21 -1.0174e-37)
(-6.2319e-22 -3.31204e-21 0)
(-2.36386e-20 1.60701e-20 9.73008e-38)
(-1.10613e-19 1.19266e-19 0)
(4.14822e-23 -2.54235e-23 0)
(-9.42256e-20 -1.26865e-19 0)
(-7.13243e-23 -6.896e-23 -1.83293e-38)
(-1.36838e-19 -3.01742e-21 4.56212e-38)
(-1.23863e-19 -8.25466e-20 0)
(-8.52417e-21 -4.14854e-20 0)
(-1.67335e-23 -5.25513e-23 3.48146e-38)
(-2.60805e-20 -9.57574e-20 0)
(6.77767e-24 -1.90919e-23 -4.47758e-38)
(-1.19489e-19 5.89204e-20 2.79936e-38)
(-1.17002e-23 -3.37683e-22 3.04343e-38)
(1.26185e-22 -2.22526e-22 0)
(-1.98083e-22 -9.01913e-22 2.57145e-38)
(1.08601e-22 -3.40095e-22 0)
(-9.35912e-20 8.47127e-20 0)
(-4.45859e-21 -1.45043e-20 0)
(-8.04796e-23 -2.2478e-22 1.86486e-39)
(1.40048e-22 -1.8284e-22 2.53743e-38)
(-1.26449e-19 7.10537e-20 -2.77867e-38)
(5.01459e-23 -2.64349e-22 3.26709e-38)
(1.10236e-22 -8.00286e-23 3.09644e-38)
(-6.35281e-20 -3.00116e-20 7.78707e-38)
(-2.14744e-21 4.63083e-21 -7.55502e-38)
(-7.13183e-20 -1.48021e-19 -1.59772e-37)
(-2.10295e-20 2.3544e-20 2.83654e-38)
(-5.67341e-24 1.09199e-20 -1.42146e-37)
(1.91973e-21 1.97524e-20 6.52629e-38)
(4.16287e-22 9.86604e-21 -4.71099e-38)
(-1.53652e-20 4.88903e-20 3.74533e-37)
(3.71245e-23 2.02401e-24 2.94455e-38)
(1.75842e-20 1.45618e-20 8.54803e-39)
(4.40112e-21 1.83235e-20 2.80483e-39)
(8.10904e-23 -5.05622e-22 5.07903e-38)
(1.7782e-20 6.06919e-21 4.00226e-38)
(5.97142e-22 5.39853e-22 0)
(8.56352e-22 1.6186e-22 2.00553e-39)
(-3.31463e-22 -1.08807e-21 -2.69187e-38)
(3.19838e-22 -2.18715e-22 0)
(-4.90886e-23 -5.29435e-22 -2.6869e-38)
(2.93034e-21 -3.83416e-21 0)
(1.42488e-23 -1.13274e-21 -2.57091e-38)
(-1.03842e-21 -4.13188e-21 2.03488e-39)
(-1.36279e-21 -4.40761e-21 -2.74166e-38)
(-1.12509e-21 -1.84791e-21 7.48802e-38)
(-1.72679e-21 -3.80882e-21 -1.52121e-39)
(-1.27961e-21 -2.2215e-21 -2.76669e-38)
(-4.20977e-22 -2.41993e-21 -2.36184e-38)
(-1.62148e-21 -2.41035e-21 3.00007e-38)
(-4.78496e-22 -4.90145e-21 2.42067e-38)
(6.92418e-21 3.22007e-20 0)
(-1.34936e-19 -4.8891e-20 -1.74387e-38)
(5.90209e-21 3.78681e-20 -6.05771e-38)
(-8.12338e-23 -7.34591e-22 0)
(1.9481e-22 -5.39652e-21 -4.73996e-38)
(6.6011e-21 1.09965e-20 0)
(7.37383e-21 6.27168e-21 1.01875e-37)
(-1.14205e-22 -2.03114e-22 -3.04175e-38)
(-6.57868e-24 -2.27177e-22 1.02093e-39)
(-8.03561e-23 -1.87964e-22 -1.04063e-39)
(-1.1938e-23 -1.22677e-22 4.14971e-38)
(-1.19267e-20 -4.57285e-20 0)
(-4.96312e-20 -1.18843e-19 5.02107e-38)
(-5.61984e-23 -6.83897e-22 -6.38878e-38)
)
;

boundaryField
{
    back
    {
        type            empty;
    }
    front
    {
        type            empty;
    }
    left
    {
        type            noSlip;
    }
    top
    {
        type            uniformFixedValue;
        uniformValue    
        {
            type            scale;
            scale           
            {
                type            squarePulse;
                start           0.3;
                duration        0.3;
            }
            xScale          
            {
                type            constant;
                value           1;
            }
            value           
            {
                type            constant;
                value           (0 -0.7 0);
            }
        }
        value           uniform (0 -0 0);
    }
    right
    {
        type            noSlip;
    }
    bottom
    {
        type            zeroGradient;
    }
}


// ************************************************************************* //
