/*--------------------------------*- C++ -*----------------------------------*\
  =========                 |
  \\      /  F ield         | OpenFOAM: The Open Source CFD Toolbox
   \\    /   O peration     | Website:  https://openfoam.org
    \\  /    A nd           | Version:  9
     \\/     M anipulation  |
\*---------------------------------------------------------------------------*/
FoamFile
{
    format      ascii;
    class       surfaceScalarField;
    location    "0.39";
    object      phi;
}
// * * * * * * * * * * * * * * * * * * * * * * * * * * * * * * * * * * * * * //

dimensions      [0 3 -1 0 0 0 0];

internalField   nonuniform List<scalar> 
816
(
1.62002e-09
-1.19344e-08
1.03143e-08
-2.36023e-09
-2.17161e-08
2.40764e-08
1.92565e-08
-1.76365e-08
3.04513e-08
-3.01383e-08
-3.13045e-10
1.24676e-08
-1.24676e-08
2.63314e-08
5.03363e-09
-3.1365e-08
1.33421e-08
-1.33421e-08
-1.3257e-08
1.3257e-08
-2.33732e-08
-3.5357e-09
2.69089e-08
-1.31638e-08
1.08035e-08
3.76521e-08
-1.13207e-08
3.22456e-08
-2.29035e-08
-9.34206e-09
8.16725e-09
1.798e-08
-2.61473e-08
3.22898e-08
-3.1932e-08
-3.57811e-10
3.24241e-08
-3.11945e-08
-1.22953e-09
-2.02869e-08
3.12039e-08
-1.0917e-08
5.07894e-09
1.26283e-08
-1.77073e-08
-3.0449e-08
3.65857e-09
2.67904e-08
4.08649e-09
2.81591e-08
1.2409e-08
-3.57822e-08
2.30579e-08
7.39344e-09
1.16734e-09
-2.14542e-08
1.95202e-08
-3.75577e-09
-1.57645e-08
-2.21421e-08
-8.74948e-09
3.08915e-08
-2.39959e-08
1.85379e-09
-2.68272e-08
6.07626e-09
2.0751e-08
-2.7307e-08
3.09002e-08
-3.59316e-09
9.01691e-10
1.03879e-08
-1.12896e-08
8.82076e-09
-3.05369e-08
1.16652e-08
1.95387e-08
-1.92577e-08
2.01594e-08
-2.17407e-08
2.67743e-08
3.87172e-08
-2.7052e-08
-3.36444e-08
1.71128e-08
1.65316e-08
2.26391e-09
3.01602e-08
-5.85732e-09
2.5396e-08
1.97537e-09
3.03144e-08
-4.23081e-09
-2.25964e-08
-3.23168e-08
1.10137e-08
2.1303e-08
6.99639e-09
5.47117e-09
-1.04922e-08
-9.17046e-09
9.02613e-09
-2.96364e-08
-1.55814e-09
-2.53475e-08
-7.19328e-09
3.25408e-08
7.17146e-09
6.17067e-09
-1.10782e-08
2.80789e-08
-3.16146e-08
-1.30602e-08
-2.54605e-08
-1.84651e-09
-9.39659e-10
1.09985e-08
-1.00588e-08
2.40387e-08
-1.58714e-08
2.06848e-08
-1.16457e-09
-1.0961e-08
-2.26834e-08
1.35716e-08
1.26784e-08
8.53797e-09
-2.88735e-08
2.03355e-08
-3.75577e-09
-2.53475e-08
2.86221e-08
-2.35432e-08
7.80775e-09
-1.36651e-08
-1.82689e-09
-6.56441e-09
1.91927e-08
2.28513e-08
-1.91927e-08
-2.88486e-09
-2.90471e-08
-1.40493e-08
-1.53398e-08
2.93891e-08
-3.30498e-08
3.41338e-09
2.48586e-08
1.38586e-08
1.69315e-08
2.07206e-08
-1.27911e-08
3.42453e-08
-2.14541e-08
5.80274e-09
2.31049e-08
-2.89076e-08
-6.88302e-09
-2.26803e-08
1.25736e-08
-2.66229e-08
2.3345e-08
1.11544e-08
-3.44994e-08
1.15374e-08
2.00969e-08
-3.16342e-08
1.3377e-08
-1.3377e-08
-1.20965e-08
2.45054e-08
-1.74131e-08
5.31663e-09
3.05536e-08
4.49848e-09
5.81586e-09
-1.03143e-08
-3.13995e-08
5.69719e-09
2.57023e-08
-1.19344e-08
1.40447e-08
-1.40447e-08
-1.24977e-08
1.24977e-08
1.54335e-08
-3.08219e-08
1.53884e-08
-7.04977e-09
-1.37288e-09
1.09985e-08
-2.09382e-08
2.94762e-08
-4.53988e-10
-2.155e-08
2.20039e-08
-1.87036e-08
-3.55641e-10
1.90592e-08
1.16425e-08
-1.71337e-08
3.25673e-08
-6.09023e-10
-2.35674e-08
2.41765e-08
1.9773e-08
9.68178e-09
-2.94548e-08
-2.37081e-08
5.79511e-09
1.80515e-08
-2.38466e-08
-1.30513e-08
-1.34688e-08
-1.31638e-08
-7.33262e-10
3.08934e-08
-1.78179e-09
-3.1268e-08
-1.90068e-08
2.48095e-08
-2.61332e-08
1.62815e-08
9.85169e-09
1.55122e-08
1.41965e-08
1.20535e-08
-2.30378e-09
3.26182e-08
-1.98277e-08
1.04922e-08
-7.04977e-09
1.40776e-09
-1.47848e-08
1.09236e-08
1.44724e-08
2.91812e-08
1.7913e-08
-2.84283e-08
1.05153e-08
-1.20554e-08
-1.40778e-08
-8.349e-09
-2.17893e-08
1.18692e-09
-2.51989e-08
2.4012e-08
5.58854e-10
-1.92624e-08
2.73952e-08
-1.31987e-08
-1.29929e-09
2.20503e-08
-1.59005e-08
3.40273e-09
5.56266e-09
2.60035e-08
-2.94558e-09
-1.85572e-09
2.56581e-08
-2.63659e-08
7.07868e-10
-1.83732e-08
-1.30263e-08
-2.52793e-08
1.7535e-08
7.74431e-09
-2.50697e-08
-2.43013e-09
2.84209e-08
5.03126e-11
-2.84712e-08
2.79481e-08
-2.29003e-09
-7.20065e-09
2.69737e-08
-7.72684e-09
7.72684e-09
2.60803e-08
2.34064e-09
1.31376e-09
-2.30704e-08
2.17567e-08
-2.70121e-10
-2.26334e-08
-2.60511e-08
-2.37723e-09
2.05985e-08
-2.05482e-08
3.96134e-10
-8.24511e-09
7.84898e-09
2.87842e-09
2.09947e-08
3.50504e-10
2.27796e-08
-2.31301e-08
-9.02613e-09
-1.14257e-10
2.14173e-08
1.63776e-09
1.77293e-08
-1.9367e-08
-2.01657e-08
1.58508e-08
4.31494e-09
-2.68424e-08
2.44123e-08
-3.16604e-08
1.56336e-09
3.00971e-08
-1.48374e-08
1.48374e-08
7.80775e-09
1.08118e-09
6.64567e-09
-2.17553e-09
-2.90819e-08
3.12574e-08
-9.67988e-10
-2.44925e-08
2.85391e-08
-1.97183e-08
-5.40992e-09
2.79042e-08
-2.24943e-08
5.81586e-09
-4.39554e-10
-3.12209e-08
-2.94867e-08
-8.24511e-09
-2.0905e-08
2.24683e-08
-1.09846e-08
1.09846e-08
-2.52046e-08
-1.06341e-08
2.05704e-08
-2.27459e-08
-2.14994e-08
1.60894e-08
-1.01825e-08
3.71781e-08
-2.69956e-08
-7.11548e-10
-2.01934e-08
9.17046e-09
-9.44058e-09
-7.88941e-09
9.20318e-09
6.22432e-10
-7.12913e-09
6.5067e-09
-4.37155e-10
2.10075e-08
1.73446e-08
1.20446e-08
-1.13248e-08
2.86693e-08
-2.23562e-08
-1.01837e-08
9.47218e-09
8.54685e-11
-2.23505e-08
2.2265e-08
9.03786e-09
-9.47501e-09
1.13083e-09
-2.29081e-08
2.17772e-08
1.80893e-08
-1.94622e-08
1.92288e-08
-3.0513e-09
-2.00191e-08
-2.01657e-08
-1.36651e-08
-1.34967e-08
-1.17826e-08
-2.99935e-08
1.78363e-10
2.98152e-08
-1.06454e-08
1.07309e-08
-2.97393e-08
3.05945e-10
2.94333e-08
2.24185e-08
4.98595e-11
-2.26122e-08
-1.33713e-10
-1.08035e-08
-1.9549e-08
3.07929e-08
-1.12439e-08
-1.60895e-08
1.50037e-08
1.08577e-09
-1.58508e-08
1.48828e-08
-2.28394e-08
2.24338e-08
4.05548e-10
2.28059e-08
-2.27244e-08
-8.14579e-11
-2.14994e-08
2.89106e-08
-1.14386e-08
-2.60615e-09
-2.97315e-08
1.84059e-08
1.02634e-08
1.72498e-10
-1.08274e-09
-3.19711e-08
-7.26397e-10
1.84557e-08
-3.12231e-08
-1.33539e-09
2.74157e-08
2.99917e-08
-1.15858e-08
1.96593e-08
2.01433e-08
5.86017e-09
5.7803e-09
-6.5067e-09
2.71295e-08
1.97555e-08
1.25208e-09
-1.86914e-08
1.97725e-08
9.52204e-09
-9.47218e-09
-9.60873e-09
9.47502e-09
-1.87446e-08
-1.97895e-08
3.19377e-08
-1.21482e-08
-1.06454e-08
-1.14386e-08
-7.12913e-09
-2.69816e-09
-1.78761e-08
-1.01837e-08
9.52204e-09
-9.60873e-09
-5.41613e-09
-8.46886e-10
1.86501e-08
-1.78033e-08
9.03787e-09
1.10034e-08
7.92753e-10
1.48828e-08
7.84898e-09
-1.07309e-08
-2.43286e-09
-7.88941e-09
-2.06859e-08
-1.12798e-08
3.19656e-08
1.87479e-08
-1.55556e-09
-2.48104e-08
4.40127e-10
2.63342e-08
9.76615e-10
-5.79878e-09
4.82217e-09
-1.00588e-08
2.44785e-08
-2.71767e-08
3.39188e-10
3.23058e-08
-2.88924e-08
5.79878e-09
-6.64567e-09
1.50037e-08
1.46906e-08
1.16829e-09
3.3589e-09
-1.65587e-08
-4.86077e-09
-2.74947e-08
2.09143e-09
1.17601e-08
2.01776e-08
1.73248e-08
-2.10044e-08
3.27645e-08
-2.75397e-08
6.85383e-09
5.7803e-09
-9.20318e-09
-1.16898e-08
-2.10046e-08
3.26944e-08
9.44058e-09
-3.22842e-08
-1.28739e-08
3.30515e-08
-1.27453e-08
3.14932e-08
2.10747e-08
7.19853e-10
-7.83477e-09
7.83476e-09
-1.47178e-08
-2.39771e-08
2.58601e-08
2.12808e-08
1.58972e-08
-1.17451e-08
1.17451e-08
-1.46906e-08
-2.57052e-09
-1.36863e-08
1.06341e-08
3.05218e-09
1.36863e-08
-1.94123e-09
-1.86406e-09
-1.47178e-08
-2.65476e-08
-2.7708e-08
5.35752e-09
-3.34294e-08
1.20195e-08
2.14099e-08
-1.23548e-08
1.96929e-09
-2.01544e-08
3.451e-08
-1.43557e-08
-3.25927e-08
1.24383e-08
1.65916e-08
-2.09262e-08
3.29457e-08
1.77917e-08
-3.06656e-08
-1.63455e-09
9.19531e-10
1.17682e-08
-2.03791e-08
2.06967e-08
-1.11866e-08
-1.95503e-08
3.07369e-08
-1.94681e-08
3.54204e-08
-1.47237e-08
2.7302e-08
1.11828e-08
2.42376e-08
2.83261e-08
-3.19437e-08
-3.04659e-08
1.57423e-08
2.17592e-08
-3.59495e-08
2.32041e-08
-1.26742e-08
2.73688e-08
-4.58918e-09
-1.9345e-08
-1.13205e-08
1.15127e-08
2.29973e-08
3.41975e-08
-8.34089e-09
-1.484e-08
2.31808e-08
-6.18605e-09
6.18605e-09
-5.56816e-09
5.56816e-09
6.56244e-09
-6.56244e-09
6.5424e-09
-6.5424e-09
6.99639e-09
7.17146e-09
2.35159e-08
-3.16222e-08
8.10622e-09
-1.10782e-08
2.13134e-08
1.28841e-08
1.26364e-08
-1.26364e-08
-1.47848e-08
1.44181e-08
-1.44181e-08
-3.03806e-08
1.15453e-08
1.88353e-08
-6.5644e-09
-3.28262e-08
2.02153e-08
1.26109e-08
-5.83386e-09
5.83386e-09
-2.90154e-08
1.15973e-08
1.74181e-08
-1.01653e-08
-2.03539e-08
-1.86247e-08
2.28513e-08
-1.09078e-08
2.20622e-08
-9.11979e-09
-2.86948e-08
-3.09362e-08
2.06848e-08
8.85802e-09
3.76392e-10
9.74238e-10
1.49415e-09
-1.92014e-08
-3.29324e-08
1.86143e-08
1.43181e-08
-2.13871e-08
-1.04012e-08
-1.03202e-08
-2.65701e-10
1.27812e-08
-2.72013e-08
1.23613e-08
-1.56039e-08
-2.45783e-08
4.0056e-08
-1.32656e-08
-2.05529e-08
8.82602e-09
1.17269e-08
-4.6627e-09
-2.63294e-08
1.39963e-09
2.49298e-08
-8.19165e-09
9.68856e-09
-9.68856e-09
-3.70234e-10
-1.69586e-08
-1.35783e-08
-1.36818e-08
2.57353e-08
2.51417e-08
-7.72362e-09
-2.61168e-08
-1.69501e-08
-2.25135e-09
3.12496e-08
-1.56457e-08
-1.30491e-08
-2.40306e-08
-1.87544e-08
-2.46076e-08
-4.07167e-09
-1.74783e-08
-7.07086e-09
-1.64966e-08
-1.2336e-08
-2.21633e-08
-2.88421e-08
-7.32446e-09
2.48594e-08
-2.16781e-08
-2.05675e-08
-2.5166e-08
2.36214e-08
-2.64651e-08
2.8437e-09
-6.83559e-09
-1.57685e-09
-2.87354e-09
2.3209e-08
-6.83559e-09
-3.5553e-09
3.02252e-08
3.99698e-09
-3.42222e-08
3.27078e-08
1.46576e-08
1.78832e-08
-1.27902e-08
2.55713e-08
6.74491e-09
-6.74491e-09
2.47747e-08
4.40647e-09
1.10961e-08
4.50848e-09
-1.9453e-08
2.00991e-08
-2.78227e-08
3.05976e-08
2.07035e-08
1.75838e-08
-3.06651e-08
1.30813e-08
-1.71851e-09
2.86932e-08
-9.85795e-09
2.0636e-08
2.19135e-08
-1.79165e-08
1.89436e-09
1.03879e-08
-2.07269e-08
1.25682e-08
1.03259e-08
1.34598e-08
1.94748e-08
-2.70132e-08
4.32984e-09
-1.93914e-08
4.03754e-09
1.91433e-08
-1.87501e-08
2.11181e-08
2.8939e-09
-2.09794e-08
5.99506e-09
-1.79199e-10
9.53064e-09
-2.9249e-08
-1.00173e-09
-3.11035e-08
4.31199e-09
-3.04861e-10
4.8671e-09
2.94065e-09
-1.82921e-08
2.81336e-08
2.4941e-09
-2.88235e-08
-1.12896e-08
5.99505e-09
2.28104e-08
-1.84954e-08
-2.03406e-08
-1.12815e-08
2.06111e-08
1.20071e-08
-2.20586e-08
4.8671e-09
1.46576e-08
-2.82998e-08
-2.63258e-08
2.56372e-08
-1.68214e-09
-1.66093e-08
-1.61266e-08
1.61266e-08
1.16574e-08
-3.29865e-08
-1.61019e-08
1.61019e-08
-1.88338e-08
-2.79104e-08
-1.99841e-08
-2.28254e-08
1.01234e-08
1.01481e-08
2.6235e-08
-5.62395e-09
-1.7611e-08
1.9277e-08
1.92912e-08
-3.03099e-08
1.18145e-08
-1.6852e-08
1.72284e-08
-1.86525e-08
-1.82021e-08
-1.2463e-08
-1.71601e-08
-5.52025e-09
-1.82105e-08
-9.69993e-09
1.19867e-08
-1.51258e-08
1.48601e-08
3.05542e-09
2.51372e-08
1.27221e-10
-3.17418e-08
-2.60754e-08
-1.75303e-08
-2.03404e-09
-1.80957e-08
-4.03916e-09
-5.39749e-09
-5.35481e-09
-1.20704e-08
1.33612e-08
2.46711e-08
-2.75093e-09
-1.56015e-08
-4.19218e-10
1.67661e-08
1.96182e-08
-2.16662e-08
-2.26916e-08
-2.3608e-08
-2.53479e-08
-9.63073e-09
7.03462e-09
2.58347e-09
)
;

boundaryField
{
    front
    {
        type            empty;
        value           nonuniform List<scalar> 0();
    }
    back
    {
        type            empty;
        value           nonuniform List<scalar> 0();
    }
    bottom
    {
        type            calculated;
        value           nonuniform List<scalar> 
12
(
8.42265e-09
2.74998e-08
2.05743e-08
2.09678e-08
1.75353e-08
4.82217e-09
4.86077e-09
2.60685e-08
2.7049e-08
2.62763e-08
1.75111e-08
8.41244e-09
)
;
    }
    left
    {
        type            calculated;
        value           uniform 0;
    }
    top
    {
        type            calculated;
        value           nonuniform List<scalar> 8(-2.625e-08 -2.625e-08 -2.625e-08 -2.625e-08 -2.625e-08 -2.625e-08 -2.625e-08 -2.625e-08);
    }
    right
    {
        type            calculated;
        value           uniform 0;
    }
    inner_arc
    {
        type            calculated;
        value           uniform 0;
    }
}


// ************************************************************************* //
