/*--------------------------------*- C++ -*----------------------------------*\
  =========                 |
  \\      /  F ield         | OpenFOAM: The Open Source CFD Toolbox
   \\    /   O peration     | Website:  https://openfoam.org
    \\  /    A nd           | Version:  9
     \\/     M anipulation  |
\*---------------------------------------------------------------------------*/
FoamFile
{
    format      ascii;
    class       surfaceScalarField;
    location    "0.39";
    object      phi;
}
// * * * * * * * * * * * * * * * * * * * * * * * * * * * * * * * * * * * * * //

dimensions      [0 3 -1 0 0 0 0];

internalField   nonuniform List<scalar> 
816
(
-9.6e-12
-2.96e-10
3.05e-10
-2.22e-11
-4.64e-10
4.86e-10
4.18e-10
-4.28e-10
5.16e-10
-5.29e-10
1.29e-11
3.12e-10
-3.12e-10
5.13e-10
1.1e-10
-6.23e-10
3.2e-10
-3.2e-10
-2.98e-10
2.98e-10
-4.96e-10
-1.57e-11
5.12e-10
-2.64e-10
2.42e-10
7.53e-10
-2.41e-10
6.18e-10
-4.37e-10
-1.81e-10
1.12e-10
4.33e-10
-5.45e-10
6.11e-10
-5.52e-10
-5.92e-11
6.07e-10
-5.16e-10
-9.05e-11
-4.6e-10
7.16e-10
-2.56e-10
1.45e-10
1.57e-10
-3.02e-10
-5.54e-10
5.82e-11
4.96e-10
8.08e-11
5.37e-10
2.3e-10
-7.26e-10
4.07e-10
1.09e-10
6.09e-11
-5.21e-10
2.86e-10
-5.5e-11
-2.31e-10
-3.97e-10
-1.78e-10
5.74e-10
-4.37e-10
4.02e-11
-5.19e-10
1.24e-10
3.95e-10
-4.79e-10
5.22e-10
-4.23e-11
-6.21e-12
1.82e-10
-1.76e-10
1.4e-10
-6.03e-10
2.45e-10
4.71e-10
-3.36e-10
3.3e-10
-4.08e-10
5.18e-10
7.78e-10
-5.33e-10
-6.2e-10
3.21e-10
2.99e-10
5.49e-11
5.52e-10
-1.31e-10
6.03e-10
5.57e-11
5.56e-10
-9.6e-11
-4.23e-10
-7.51e-10
2.71e-10
4.81e-10
2.05e-10
1.07e-10
-2.57e-10
-2.17e-10
2.02e-10
-5.18e-10
2.06e-12
-3.38e-10
-1.29e-10
4.67e-10
2.07e-10
1.13e-10
-2.65e-10
5.05e-10
-5.2e-10
-3.33e-10
-4.29e-10
-5.03e-11
-1.57e-11
2.15e-10
-1.99e-10
5.1e-10
-3.98e-10
2.78e-10
8.28e-12
-2.3e-10
-3.9e-10
2.91e-10
2.36e-10
1.58e-10
-5.63e-10
4.05e-10
-5.5e-11
-3.38e-10
5.69e-10
-4.24e-10
2.46e-10
-3.77e-10
1.43e-11
-7.89e-11
2.36e-10
2.94e-10
-2.36e-10
-1.67e-11
-5.35e-10
-3e-10
-3.73e-10
6.74e-10
-5.26e-10
7.9e-12
4.85e-10
2.94e-10
3.14e-10
4.39e-10
-2.39e-10
6.62e-10
-4.24e-10
1.21e-10
4e-10
-5.21e-10
-1.16e-10
-4.24e-10
2.67e-10
-5.67e-10
4.06e-10
2.18e-10
-6.24e-10
2.38e-10
4.1e-10
-6.48e-10
2.73e-10
-2.73e-10
-3.01e-10
5.31e-10
-4.31e-10
1.3e-10
7e-10
1.05e-10
2.01e-10
-3.05e-10
-6.33e-10
5.24e-11
5.81e-10
-2.96e-10
3.13e-10
-3.13e-10
-3.16e-10
3.16e-10
2.87e-10
-5.67e-10
2.79e-10
-2.43e-10
-9.84e-11
2.15e-10
-4.38e-10
5.96e-10
-9.73e-12
-4.29e-10
4.39e-10
-3.8e-10
-2.65e-11
4.07e-10
1.86e-10
-2.5e-10
5.37e-10
-5.95e-12
-4.61e-10
4.67e-10
4.09e-10
2.44e-10
-6.53e-10
-4.95e-10
5.72e-11
4.54e-10
-5.11e-10
-2.76e-10
-3.1e-10
-2.64e-10
-3e-11
5.82e-10
1.41e-11
-5.4e-10
-3.48e-10
4.68e-10
-5.76e-10
3.96e-10
1.8e-10
3.75e-10
3.31e-10
1.96e-10
-4.48e-11
6e-10
-3.85e-10
2.57e-10
-2.43e-10
-3.3e-11
-2.4e-10
2.42e-10
3.61e-10
5.24e-10
4.38e-10
-6.15e-10
1.78e-10
-2.05e-10
-3.71e-10
-1.64e-10
-3.64e-10
-5.81e-11
-4.79e-10
5.37e-10
2.3e-11
-4.03e-10
5.78e-10
-2.47e-10
-3.18e-11
4.27e-10
-3.82e-10
6.64e-11
1.14e-10
4.38e-10
-3.19e-11
-6.96e-11
4.05e-10
-5.03e-10
9.79e-11
-3.4e-10
-2.93e-10
-4.63e-10
3.35e-10
1.27e-10
-3.86e-10
-1.28e-10
5.19e-10
-1.24e-11
-5.06e-10
5.36e-10
-1.31e-10
-1.38e-10
5.47e-10
-1.7e-10
1.7e-10
4.74e-10
4.52e-11
5.11e-12
-4.88e-10
4.83e-10
7.58e-12
-4.44e-10
-5.08e-10
-1.07e-10
3.84e-10
-3.96e-10
4.49e-12
-2.01e-10
1.96e-10
1.49e-10
3.88e-10
1.03e-11
4.14e-10
-4.24e-10
-2.02e-10
-7.19e-12
4.88e-10
7.12e-11
2.74e-10
-3.45e-10
-2.96e-10
2.22e-10
7.39e-11
-4.53e-10
3.25e-10
-5.49e-10
-2.15e-11
5.7e-10
-2.26e-10
2.26e-10
2.46e-10
3.4e-11
1.36e-10
-4.33e-11
-5.32e-10
5.75e-10
-3.75e-12
-4.25e-10
5.55e-10
-4.16e-10
-9.8e-11
4.99e-10
-4.01e-10
2.01e-10
6.36e-11
-6.12e-10
-4.72e-10
-2.01e-10
-4.86e-10
4.64e-10
-2.17e-10
2.17e-10
-3.82e-10
-2.06e-10
4.18e-10
-4.61e-10
-3.21e-10
2.23e-10
-2.45e-10
7.96e-10
-5.51e-10
-5.52e-11
-4.31e-10
2.17e-10
-2.1e-10
-2.23e-10
2.28e-10
3.31e-11
-1.69e-10
1.35e-10
1e-11
4.08e-10
4.15e-10
2.59e-10
-2.72e-10
6.87e-10
-4.82e-10
-3.06e-10
2.5e-10
2.82e-12
-4.21e-10
4.19e-10
2.22e-10
-2.12e-10
5.38e-11
-5.22e-10
4.69e-10
3.68e-10
-4.66e-10
4.28e-10
1.92e-12
-4.9e-10
-2.96e-10
-3.77e-10
-2.34e-10
-2.29e-10
-5.17e-10
-4.5e-11
5.62e-10
-2.12e-10
2.15e-10
-5.11e-10
-4.6e-11
5.57e-10
4.8e-10
-1.6e-11
-4.38e-10
-2.34e-11
-2.42e-10
-4.6e-10
7.31e-10
-2.71e-10
-2.23e-10
2.2e-10
3.26e-12
-2.22e-10
2.19e-10
-4.9e-10
4.83e-10
6.53e-12
4.59e-10
-4.34e-10
-2.48e-11
-3.21e-10
6.72e-10
-2.34e-10
-7.86e-11
-7.05e-10
4.42e-10
2.45e-10
1.5e-11
-6.71e-12
-4.76e-10
-2.82e-11
3.02e-10
-6.07e-10
-3.13e-11
5.05e-10
7.17e-10
-2.75e-10
3.57e-10
3.54e-10
8.48e-11
1.07e-10
-1.35e-10
5.12e-10
3.75e-10
3.32e-11
-3.16e-10
3.5e-10
2.34e-10
-2.5e-10
-2.35e-10
2.12e-10
-3.12e-10
-4.67e-10
7.47e-10
-2.8e-10
-2.12e-10
-2.34e-10
-1.69e-10
-1.54e-10
-3.58e-10
-3.06e-10
2.34e-10
-2.35e-10
-1.43e-10
-2.85e-11
3.01e-10
-2.73e-10
2.22e-10
2.64e-10
2.11e-11
2.19e-10
1.96e-10
-2.15e-10
-4.93e-11
-2.23e-10
-3.87e-10
-2.58e-10
6.45e-10
4.46e-10
-6.48e-11
-4.38e-10
1.91e-11
4.99e-10
4.54e-11
-1.08e-10
6.23e-11
-1.99e-10
3.8e-10
-5.33e-10
4.75e-12
6.14e-10
-6.06e-10
1.08e-10
-1.36e-10
2.2e-10
2.33e-10
-3.68e-11
1.11e-10
-1.97e-10
-6.2e-11
-5.12e-10
1.04e-10
2.76e-10
4.71e-10
3.97e-10
-4.56e-10
7.32e-10
-5.32e-10
1.44e-10
1.07e-10
-2.28e-10
-2.63e-10
-4.16e-10
6.79e-10
2.1e-10
-7.14e-10
-2.73e-10
7.44e-10
-2.79e-10
7.26e-10
4.69e-10
2.74e-11
-1.5e-10
1.5e-10
-2.66e-10
-2.99e-10
4.4e-10
4.5e-10
3.46e-10
-2.01e-10
2.01e-10
-2.33e-10
-1.56e-10
-2.49e-10
2.06e-10
4.31e-11
2.49e-10
-4.84e-11
-1.04e-10
-2.66e-10
-4.55e-10
-5.16e-10
9.49e-11
-7.47e-10
2.71e-10
4.75e-10
-2.78e-10
7.68e-11
-4.43e-10
7.37e-10
-2.94e-10
-7.16e-10
2.73e-10
1.98e-10
-4.27e-10
6.99e-10
3.91e-10
-6.64e-10
-7.23e-11
4.53e-11
2.51e-10
-3.84e-10
4.66e-10
-2.39e-10
-3.73e-10
6.12e-10
-4.6e-10
7.58e-10
-2.92e-10
5.27e-10
2.4e-10
5.18e-10
6.54e-10
-6.04e-10
-6.21e-10
3.29e-10
4.6e-10
-7.8e-10
5.01e-10
-2.3e-10
5.12e-10
-9.76e-11
-4.46e-10
-2.18e-10
2.46e-10
4.92e-10
7.33e-10
-1.12e-10
-3.11e-10
4.23e-10
-1.81e-10
1.81e-10
-1.66e-10
1.66e-10
2.01e-10
-2.01e-10
1.95e-10
-1.95e-10
2.05e-10
2.07e-10
4.68e-10
-6.25e-10
1.57e-10
-2.65e-10
4.53e-10
2.8e-10
2.63e-10
-2.63e-10
-2.4e-10
2.49e-10
-2.49e-10
-6.41e-10
2.42e-10
3.99e-10
-7.89e-11
-6.99e-10
4.31e-10
2.68e-10
-1.85e-10
1.85e-10
-5.76e-10
2.35e-10
3.41e-10
-2.11e-10
-4.56e-10
-3.83e-10
2.94e-10
-2.01e-10
4.19e-10
-1.82e-10
-5.68e-10
-5.74e-10
2.78e-10
1.94e-10
1.95e-11
2.96e-11
2.7e-12
-3.05e-10
-6.79e-10
3.73e-10
3.06e-10
-4.37e-10
-2.03e-10
-1.34e-10
-1.99e-11
2.14e-10
-5.14e-10
2.03e-10
-2.79e-10
-3.79e-10
7.55e-10
-2.59e-10
-3.45e-10
1.31e-10
2.13e-10
-6.04e-11
-5e-10
1.2e-11
4.88e-10
-1.42e-10
1.91e-10
-1.91e-10
-8.61e-12
-3.25e-10
-2.79e-10
-3.57e-10
5.53e-10
4.69e-10
-1.28e-10
-4.84e-10
-3.27e-10
2.2e-11
6.2e-10
-3.42e-10
-2.26e-10
-5.16e-10
-3.68e-10
-4.6e-10
-8.54e-11
-3.44e-10
-1.35e-10
-3.26e-10
-2.13e-10
-4.11e-10
-6.01e-10
-1.32e-10
4.67e-10
-3.95e-10
-3.69e-10
-4.64e-10
3.9e-10
-5.06e-10
1.16e-10
-2.35e-10
-1.03e-10
-4.45e-11
4.5e-10
-2.35e-10
-1.43e-10
6.3e-10
7.75e-11
-7.08e-10
6.78e-10
2.14e-10
2.53e-10
-3.23e-10
5.37e-10
2.04e-10
-2.04e-10
4.1e-10
1.14e-10
2.38e-10
3.92e-11
-4.61e-10
4.21e-10
-5.48e-10
6.1e-10
3.61e-10
3.24e-10
-5.52e-10
2.28e-10
2.59e-11
5.86e-10
-1.87e-10
3.67e-10
5.02e-10
-4.25e-10
1.25e-11
1.82e-10
-3.79e-10
1.66e-10
2.13e-10
2.03e-10
3.46e-10
-4.74e-10
8.35e-11
-3.74e-10
1.78e-11
4.06e-10
-3.68e-10
4.25e-10
1.12e-10
-4.19e-10
2.11e-10
-1.02e-11
1.65e-10
-5.8e-10
-4.99e-11
-6.49e-10
1e-10
-3.85e-11
1.75e-10
7.02e-11
-3.83e-10
5.22e-10
5.71e-11
-5.57e-10
-1.76e-10
2.11e-10
3.96e-10
-3.22e-10
-3.9e-10
-2.35e-10
3.64e-10
2.36e-10
-3.92e-10
1.75e-10
2.14e-10
-5.5e-10
-5.92e-10
5.3e-10
-2.91e-11
-3.45e-10
-2.69e-10
2.69e-10
1.82e-10
-5.15e-10
-2.75e-10
2.75e-10
-4.28e-10
-5.45e-10
-4.07e-10
-4.19e-10
2.57e-10
2.49e-10
4.96e-10
-1.32e-10
-3.95e-10
3.92e-10
4.39e-10
-5.78e-10
2.56e-10
-3.36e-10
3.55e-10
-3.96e-10
-3.05e-10
-2.47e-10
-3.18e-10
-1.06e-10
-4.05e-10
-1.39e-10
2.43e-10
-3.39e-10
3.19e-10
7.16e-11
4.77e-10
2.65e-11
-5.47e-10
-5.19e-10
-3.26e-10
-4.8e-11
-4.35e-10
-2.69e-11
-4.64e-11
-8.03e-11
-2.67e-10
2.48e-10
5.81e-10
-7.59e-11
-3.07e-10
2.25e-11
2.98e-10
4.09e-10
-4.36e-10
-4.23e-10
-4.52e-10
-4.91e-10
-1.71e-10
1.53e-10
5.97e-11
)
;

boundaryField
{
    front
    {
        type            empty;
        value           nonuniform List<scalar> 0();
    }
    back
    {
        type            empty;
        value           nonuniform List<scalar> 0();
    }
    bottom
    {
        type            calculated;
        value           nonuniform List<scalar> 
12
(
3.41e-10
5.14e-10
5.12e-10
5.17e-10
2.43e-10
6.23e-11
6.2e-11
4.03e-10
5.36e-10
4.29e-10
2.43e-10
3.38e-10
)
;
    }
    left
    {
        type            calculated;
        value           uniform 0;
    }
    top
    {
        type            calculated;
        value           nonuniform List<scalar> 8(-5.26e-10 -5.26e-10 -5.24e-10 -5.24e-10 -5.24e-10 -5.26e-10 -5.26e-10 -5.24e-10);
    }
    right
    {
        type            calculated;
        value           uniform 0;
    }
    inner_arc
    {
        type            calculated;
        value           uniform 0;
    }
}


// ************************************************************************* //
