/*--------------------------------*- C++ -*----------------------------------*\
  =========                 |
  \\      /  F ield         | OpenFOAM: The Open Source CFD Toolbox
   \\    /   O peration     | Website:  https://openfoam.org
    \\  /    A nd           | Version:  9
     \\/     M anipulation  |
\*---------------------------------------------------------------------------*/
FoamFile
{
    format      ascii;
    class       volScalarField;
    location    "0.02";
    object      p;
}
// * * * * * * * * * * * * * * * * * * * * * * * * * * * * * * * * * * * * * //

dimensions      [0 2 -2 0 0 0 0];

internalField   nonuniform List<scalar> 
942
(
10.8346
10.7264
10.6096
10.8556
10.6071
10.7917
10.8238
10.7895
10.8648
10.8663
10.68
10.7628
10.8578
10.6704
10.7605
10.7289
10.6698
10.8382
10.6898
10.7122
10.6707
10.7652
10.8148
10.6228
10.6823
10.624
10.622
10.8182
10.6411
10.8337
10.6297
10.6199
10.6377
10.7382
10.6329
10.7962
10.8029
10.8434
10.8064
10.6276
10.7518
10.7809
10.6264
10.8263
10.8212
10.6689
10.7022
10.7325
10.7551
10.6727
10.6932
10.8145
10.7942
10.6093
10.8652
10.7722
10.7506
10.8634
10.7481
10.7251
10.8322
10.6277
10.7401
10.8311
10.8404
10.7373
10.6254
10.718
10.7708
10.8291
10.7237
10.857
10.7317
10.8378
10.614
10.7095
10.7149
10.6306
10.6263
10.7319
10.8018
10.6289
10.6897
10.7339
10.7393
10.61
10.7244
10.7585
10.6679
10.692
10.7765
10.6413
10.8637
10.7678
10.7771
10.7057
10.7834
10.7571
10.8018
10.8372
10.847
10.8658
10.6993
10.8261
10.7774
10.8267
10.6724
10.6585
10.7224
10.7121
10.7757
10.7649
10.7193
10.8596
10.6775
10.6392
10.7168
10.8511
10.8355
10.746
10.8252
10.784
10.6195
10.7289
10.7338
10.6219
10.8088
10.6365
10.647
10.7871
10.689
10.6781
10.6999
10.7311
10.7202
10.668
10.7739
10.7103
10.7632
10.7524
10.7414
10.6573
10.7152
10.6193
10.7868
10.6329
10.8318
10.8547
10.7992
10.6123
10.7842
10.739
10.6409
10.8147
10.6358
10.8087
10.7425
10.8623
10.7214
10.709
10.744
10.8073
10.8561
10.7725
10.7375
10.6607
10.8444
10.8232
10.6637
10.7081
10.7283
10.761
10.7806
10.8233
10.6072
10.8389
10.7037
10.8423
10.7696
10.8329
10.8169
10.6462
10.7999
10.8362
10.8397
10.633
10.7063
10.6152
10.6126
10.8299
10.632
10.8267
10.8258
10.634
10.6181
10.8569
10.6247
10.83
10.7464
10.6097
10.839
10.8529
10.6173
10.6648
10.71
10.7627
10.7809
10.6161
10.6157
10.6172
10.6217
10.8517
10.8588
10.6269
10.6202
10.8377
10.6111
10.6498
10.6282
10.6314
10.8307
10.838
10.8236
10.8446
10.8553
10.6188
10.6295
10.8236
10.8302
10.6381
10.6375
10.6195
10.6293
10.8449
10.8341
10.8545
10.6466
10.8271
10.6344
10.6348
10.6381
10.8204
10.8203
10.838
10.8324
10.624
10.8165
10.8409
10.8202
10.631
10.6292
10.7594
10.6351
10.6272
10.8265
10.8478
10.8236
10.8205
10.6537
10.835
10.8309
10.6562
10.6324
10.8205
10.8163
10.8605
10.8293
10.8143
10.6378
10.8132
10.8094
10.6173
10.7541
10.6238
10.6223
10.6555
10.6395
10.8003
10.6318
10.8046
10.8234
10.7933
10.8057
10.8028
10.6796
10.7223
10.8086
10.8082
10.8175
10.8145
10.6756
10.7512
10.6577
10.7946
10.8008
10.6807
10.7304
10.7263
10.7336
10.719
10.705
10.806
10.7472
10.7591
10.7008
10.8171
10.771
10.7605
10.707
10.644
10.8293
10.6878
10.78
10.7268
10.7892
10.664
10.8092
10.7463
10.6977
10.7703
10.7171
10.654
10.8194
10.7363
10.7469
10.6621
10.6782
10.7957
10.7828
10.7945
10.6815
10.8024
10.7905
10.751
10.7914
10.6858
10.7631
10.6876
10.6858
10.7833
10.6994
10.7072
10.7749
10.6922
10.7197
10.6789
10.7129
10.7867
10.811
10.7265
10.6879
10.7333
10.7931
10.7401
10.6928
10.7947
10.7061
10.7996
10.6996
10.7065
10.7468
10.7766
10.7556
10.8063
10.7578
10.7503
10.771
10.6818
10.7693
10.7103
10.7445
10.6949
10.6927
10.7806
10.6941
10.7233
10.6982
10.7165
10.8071
10.73
10.6297
10.8187
10.7244
10.7774
10.6717
10.7365
10.754
10.7564
10.7099
10.7431
10.7035
10.7566
10.7891
10.7416
10.7346
10.7851
10.7699
10.714
10.6605
10.7668
10.7451
10.7881
10.7528
10.7746
10.7654
10.6878
10.8029
10.7034
10.7768
10.7989
10.6513
10.7509
10.7749
10.7494
10.7601
10.8042
10.8006
10.7802
10.6817
10.7822
10.7799
10.7713
10.786
10.7928
10.7638
10.753
10.6918
10.7049
10.7452
10.741
10.7515
10.7425
10.7471
10.7009
10.8019
10.7817
10.73
10.7872
10.775
10.7447
10.7858
10.7665
10.717
10.7388
10.8048
10.7485
10.6972
10.6963
10.7767
10.7942
10.7045
10.6956
10.702
10.7918
10.6985
10.6857
10.6934
10.7268
10.7978
10.6976
10.7363
10.7235
10.6416
10.7021
10.67
10.7031
10.7972
10.7393
10.7331
10.6803
10.7268
10.7208
10.7204
10.7555
10.6801
10.661
10.7697
10.7089
10.7589
10.6741
10.8137
10.6763
10.7107
10.6821
10.7661
10.6875
10.7542
10.7142
10.7714
10.6767
10.6804
10.6928
10.6821
10.7081
10.8106
10.6596
10.6857
10.6523
10.6913
10.7988
10.6923
10.6747
10.7962
10.664
10.7127
10.6542
10.7148
10.7241
10.6632
10.7297
10.7643
10.6711
10.6653
10.6687
10.6772
10.8022
10.6674
10.6663
10.724
10.6601
10.7594
10.7122
10.7269
10.6698
10.7299
10.7356
10.6872
10.6578
10.6907
10.7329
10.718
10.6855
10.7607
10.6349
10.665
10.6513
10.6417
10.6706
10.8173
10.6352
10.827
10.6753
10.6674
10.8117
10.6563
10.6416
10.672
10.6624
10.6488
10.6451
10.6587
10.6605
10.6413
10.6557
10.6261
10.6519
10.6414
10.6905
10.6233
10.6871
10.6504
10.827
10.8346
10.6479
10.6381
10.6455
10.653
10.6456
10.641
10.8552
10.6381
10.6201
10.6491
10.6448
10.8403
10.6286
10.644
10.6443
10.6409
10.6381
10.8435
10.6015
10.8744
10.6475
10.8302
10.8337
10.6379
10.602
10.8531
10.6257
10.7818
10.8367
10.8694
10.6016
10.6017
10.8552
10.6019
10.7633
10.6014
10.8468
10.8432
10.8487
10.6018
10.6013
10.8698
10.6535
10.6036
10.8495
10.6499
10.6037
10.667
10.6031
10.6035
10.6037
10.767
10.7382
10.7503
10.7324
10.8272
10.8492
10.6039
10.711
10.6028
10.8622
10.6061
10.6135
10.6075
10.8442
10.8419
10.7531
10.7139
10.6924
10.7428
10.82
10.7473
10.7211
10.6204
10.8446
10.649
10.6999
10.7353
10.8319
10.758
10.7289
10.7155
10.767
10.768
10.7615
10.8346
10.82
10.848
10.6634
10.7705
10.8711
10.7135
10.7214
10.7158
10.6212
10.6548
10.8512
10.8693
10.8236
10.8629
10.8561
10.8633
10.8346
10.7378
10.6141
10.7904
10.6156
10.7091
10.6209
10.8524
10.6262
10.8474
10.8596
10.6137
10.6238
10.8501
10.8608
10.7648
10.6462
10.8012
10.666
10.6756
10.6902
10.7044
10.6462
10.6685
10.6852
10.7822
10.6611
10.8118
10.6949
10.6996
10.6511
10.6561
10.8166
10.6804
10.6738
10.693
10.7025
10.649
10.6587
10.7847
10.8144
10.6835
10.7437
10.6727
10.7026
10.8735
10.6515
10.6549
10.8466
10.7917
10.6434
10.6179
10.6824
10.8486
10.6433
10.7896
10.6744
10.6693
10.6799
10.7838
10.7774
10.7727
10.8094
10.8635
10.7525
10.6856
10.6094
10.8522
10.7148
10.708
10.697
10.7877
10.842
10.6363
10.8043
10.8493
10.6734
10.6081
10.7185
10.8095
10.8038
10.8419
10.6341
10.8435
10.7301
10.854
10.6631
10.7485
10.7434
10.7753
10.7442
10.7376
10.7434
10.7388
10.6605
10.6709
10.8711
10.8449
10.6022
10.8686
10.8119
10.787
10.8459
10.5992
10.7919
10.6028
10.7991
10.6583
10.8601
10.6151
10.701
10.6762
10.6991
10.6
10.6632
10.8422
10.8495
10.7232
10.72
10.6065
10.7941
10.6538
10.756
10.7878
10.758
10.6871
10.6172
10.8646
10.7629
10.7678
10.7987
10.646
10.8045
10.6313
10.7242
10.7196
10.6084
10.7885
10.6072
10.7537
10.7688
10.7573
10.6139
10.8646
10.7973
10.7413
10.6088
10.6622
10.8674
10.6081
10.7672
10.7892
10.6577
10.6666
10.678
10.8582
10.8685
10.6098
10.7592
10.6752
10.6849
10.607
10.8428
10.8228
10.8371
10.6154
10.6075
10.8455
10.7529
10.8371
10.7819
10.6955
10.616
10.6107
10.7966
10.686
10.8188
10.7795
10.6569
10.8152
10.6734
10.8574
10.7809
10.6848
10.7699
10.8232
10.757
10.6157
10.6117
10.7744
10.7742
10.7336
10.8127
10.8398
10.7405
10.8473
10.7018
10.7001
10.7121
10.8197
10.799
10.7182
10.6138
10.6956
10.7658
10.7332
10.8523
10.6071
10.812
10.7789
10.8067
10.6658
10.7852
10.6117
10.8094
10.7073
10.8421
10.8486
10.813
10.8064
10.85
10.8745
10.6487
10.8067
10.815
10.6504
10.8451
10.6042
10.7451
10.7955
10.7847
10.8102
10.6121
10.7466
10.6536
10.651
10.7628
10.7408
10.8176
10.8676
10.6081
10.6486
10.7959
10.8455
10.7222
10.7163
10.6027
10.8401
10.7607
10.7757
10.6054
10.6572
10.7921
10.6092
10.613
10.7188
10.7772
10.6946
10.8397
10.6772
10.6053
10.7748
10.656
10.8459
10.8158
10.6967
10.8661
10.7951
10.7964
10.8501
10.7638
10.7703
10.811
10.8663
10.6808
10.8435
10.8451
)
;

boundaryField
{
    back
    {
        type            empty;
    }
    front
    {
        type            empty;
    }
    top
    {
        type            zeroGradient;
    }
    outer_arc
    {
        type            zeroGradient;
    }
    bottom
    {
        type            uniformFixedValue;
        uniformValue    
        {
            type            table;
            format          csv;
            file            "outlet_p.csv";
            nHeaderLine     1;
            refColumn       0;
            componentColumns List<label> 1(1);
            separator       ",";
            mergeSeparators 0;
        }
        value           uniform 10.5998;
    }
    inner_arc
    {
        type            zeroGradient;
    }
}


// ************************************************************************* //
