/*--------------------------------*- C++ -*----------------------------------*\
  =========                 |
  \\      /  F ield         | OpenFOAM: The Open Source CFD Toolbox
   \\    /   O peration     | Website:  https://openfoam.org
    \\  /    A nd           | Version:  9
     \\/     M anipulation  |
\*---------------------------------------------------------------------------*/
FoamFile
{
    format      ascii;
    class       surfaceScalarField;
    location    "0.02";
    object      phi;
}
// * * * * * * * * * * * * * * * * * * * * * * * * * * * * * * * * * * * * * //

dimensions      [0 3 -1 0 0 0 0];

internalField   nonuniform List<scalar> 
2420
(
4.72792e-07
-4.70662e-07
-2.13035e-09
-5.37293e-07
5.37293e-07
-7.90026e-07
-2.34434e-07
1.02446e-06
-5.23634e-07
5.23634e-07
-5.84725e-07
2.57784e-07
3.26941e-07
4.6654e-07
-4.57118e-07
-9.42224e-09
-8.73553e-07
8.35273e-08
-4.83719e-07
7.86615e-08
4.05058e-07
3.58539e-07
-5.81652e-07
2.23113e-07
-3.66278e-07
-2.18447e-07
-5.25469e-07
2.38775e-07
2.86693e-07
-3.64857e-07
-1.60612e-07
-4.83719e-07
-2.48738e-07
-2.41628e-07
4.90366e-07
-1.73044e-07
-7.93935e-07
9.66978e-07
-7.2002e-07
1.01583e-06
-2.95806e-07
-1.33174e-06
4.26696e-07
9.05048e-07
-6.09397e-07
6.9528e-07
-8.58829e-08
-4.51809e-07
4.70589e-07
-1.87797e-08
-4.04952e-07
1.56214e-07
1.15225e-07
6.57507e-07
-7.72732e-07
-1.19093e-07
-3.78071e-07
4.18527e-07
-4.04566e-08
-4.68804e-07
9.07333e-08
1.28935e-07
3.43857e-07
-7.91336e-07
-5.40408e-07
1.90126e-07
-9.10145e-07
-2.3217e-07
-2.7068e-07
5.02851e-07
-4.71927e-07
2.39757e-07
6.34194e-07
1.77961e-08
-6.5199e-07
9.79281e-07
9.45442e-08
-1.07383e-06
-6.42391e-07
7.99618e-07
-1.57227e-07
-7.68866e-07
7.99773e-07
-3.09068e-08
1.07178e-06
-6.52016e-07
-4.19761e-07
1.53856e-07
-7.63253e-07
6.06633e-07
4.65144e-07
1.3457e-07
3.3197e-07
-3.91e-07
-1.46294e-07
5.52604e-08
-8.24127e-07
1.08726e-07
4.28567e-07
7.57447e-07
-6.42222e-07
3.94518e-07
1.27696e-07
-5.22215e-07
7.8097e-07
-7.2571e-07
-4.38084e-07
4.30727e-07
7.35686e-09
-3.66213e-07
4.78188e-07
-1.11974e-07
-9.69287e-08
-4.26706e-07
3.46107e-07
1.77528e-07
-4.6333e-07
9.7117e-08
-4.1199e-07
5.04957e-07
-9.29673e-08
8.0099e-08
7.00871e-07
-3.89141e-07
-6.79765e-08
-8.76825e-07
-1.02138e-06
8.48334e-07
-2.65944e-07
-3.15708e-07
5.9781e-07
-2.84241e-07
-3.1357e-07
1.76077e-08
-7.37437e-07
7.19829e-07
-3.38229e-08
-7.782e-07
8.12023e-07
3.84431e-07
-1.45656e-07
-3.95081e-07
4.69623e-07
-7.4542e-08
1.1038e-06
-1.08619e-06
-3.2647e-08
1.01193e-06
4.52019e-07
-4.39002e-07
-1.30169e-08
-3.66142e-07
-1.0452e-07
-3.62439e-07
4.411e-07
-4.99394e-07
3.53702e-07
1.45692e-07
9.04253e-07
-8.09709e-07
4.03451e-07
-5.02765e-07
9.93132e-08
-3.43827e-07
4.06697e-07
-6.28696e-08
-5.91815e-07
7.45671e-07
-7.42856e-08
4.0604e-08
3.06993e-08
7.82562e-07
-6.18562e-07
-1.64001e-07
-6.59471e-08
-7.27988e-07
-6.70219e-07
-1.5019e-07
8.20409e-07
4.30425e-07
-4.3713e-09
-4.26054e-07
-4.3073e-07
-4.11971e-08
2.70845e-07
-8.6266e-07
7.23624e-07
-1.2679e-07
7.60984e-07
-2.92179e-07
-2.07215e-07
4.42379e-07
-1.19535e-08
3.07309e-07
2.90501e-07
-1.18593e-07
-3.19492e-07
-1.66616e-07
7.45352e-07
-5.78736e-07
-6.1432e-07
9.18526e-07
-3.04205e-07
-8.73735e-07
2.03516e-07
6.5699e-07
1.25573e-07
5.2205e-07
-2.36918e-07
-2.85131e-07
5.41152e-07
3.74052e-07
-9.15204e-07
7.66708e-07
-2.25556e-07
5.25521e-07
4.98939e-07
-1.00001e-07
-3.51809e-07
3.52945e-08
-4.47284e-07
-1.53959e-09
-3.64355e-07
3.65894e-07
1.09996e-07
3.60593e-07
4.2607e-07
-2.26189e-08
-4.43447e-07
4.83661e-08
5.63102e-07
2.36517e-07
-8.39063e-07
1.07705e-07
7.31358e-07
-1.10296e-07
6.35817e-07
3.38149e-07
-4.02471e-07
6.43213e-08
2.98359e-07
2.06598e-07
3.74797e-07
-3.66471e-08
-6.51308e-07
3.62633e-07
2.88675e-07
1.16581e-07
3.35438e-07
-5.2493e-07
2.16641e-07
3.08288e-07
3.21298e-07
-3.03502e-07
-1.58379e-07
-6.80683e-07
-1.04331e-06
3.05877e-07
4.01388e-08
-6.92353e-07
6.52215e-07
6.89685e-08
-4.33825e-07
-7.80758e-07
-2.62556e-07
5.97919e-07
-7.64535e-07
5.31989e-07
-1.98956e-07
-3.33033e-07
1.52388e-07
-3.45835e-07
-1.79095e-07
3.72694e-07
1.7342e-07
3.4863e-07
-3.17599e-07
-3.33709e-07
8.19795e-08
-8.62737e-07
1.05765e-08
1.01923e-06
-1.02981e-06
1.11425e-07
9.84031e-07
-1.09546e-06
-5.20138e-08
-3.95663e-07
4.47677e-07
3.26546e-07
9.95249e-08
-5.0474e-07
1.75857e-07
3.28883e-07
-5.00346e-07
5.80445e-07
3.86241e-07
-3.8778e-07
5.93133e-07
4.22692e-07
-7.66698e-08
-7.16578e-07
7.93248e-07
4.41092e-07
-1.02176e-07
-3.38916e-07
-6.71135e-07
7.11273e-07
-5.33548e-07
1.71109e-07
-2.6599e-07
-2.38749e-07
-5.33866e-07
5.33866e-07
-4.79624e-07
1.26617e-07
3.53007e-07
-2.37355e-07
-2.13517e-07
4.50872e-07
-1.02138e-06
-7.782e-07
-3.10494e-07
-1.92271e-07
1.1038e-06
1.00215e-06
-8.12023e-07
-1.00215e-06
8.31511e-07
1.70638e-07
-1.56999e-07
-8.76396e-07
1.03339e-06
1.03545e-07
-9.05048e-07
8.01503e-07
8.76396e-07
-8.65819e-07
1.76614e-07
-1.03339e-06
8.5678e-07
-1.00421e-06
1.08619e-06
-1.47434e-07
1.00421e-06
-8.5678e-07
9.37232e-07
-9.30151e-07
-7.08093e-09
-9.37232e-07
9.04585e-07
9.30151e-07
-8.01503e-07
-1.28648e-07
8.65819e-07
-1.01601e-06
1.01601e-06
-9.04585e-07
5.73657e-07
3.44868e-07
1.3165e-07
-6.31996e-07
-5.83161e-08
4.12018e-07
7.2368e-07
-1.07709e-06
3.53412e-07
1.86154e-07
8.26178e-08
9.00295e-07
-1.97831e-07
-2.83101e-07
4.80932e-07
-5.24017e-07
2.58073e-07
-6.49145e-07
-4.27947e-07
-8.06144e-07
-7.24603e-08
-3.70986e-07
-5.86388e-07
3.03478e-07
-5.02434e-07
-7.59252e-08
-5.60317e-07
8.31162e-07
-6.08967e-07
1.03566e-06
-3.40725e-07
-2.57608e-07
5.98334e-07
6.12892e-07
-7.60326e-07
-5.30749e-07
2.22865e-07
3.07883e-07
-3.14107e-07
6.8931e-08
3.72161e-07
2.55593e-07
-8.1591e-07
-1.23721e-07
7.41247e-07
-6.17526e-07
-3.75244e-07
-2.97088e-08
1.09388e-06
-6.111e-07
2.70374e-07
1.61491e-08
-4.05291e-07
-3.87063e-07
3.35049e-07
-3.40334e-07
-5.95846e-08
3.99919e-07
-6.59461e-07
-9.8912e-08
7.58373e-07
3.82992e-07
5.93864e-08
-7.83182e-07
-3.0456e-07
-4.31621e-07
7.36181e-07
-3.75604e-07
-2.35496e-07
3.19476e-07
1.58712e-07
-9.10449e-08
-3.47957e-07
6.7186e-07
-4.30559e-07
-2.41301e-07
-6.15658e-08
-8.15259e-07
-6.40445e-07
-8.76419e-08
7.28086e-07
-2.12567e-07
3.673e-07
-7.39357e-07
1.42023e-07
-3.78941e-07
-6.15597e-07
2.39993e-07
1.07763e-07
-3.94899e-07
2.87136e-07
-2.73261e-07
3.81024e-07
8.12405e-07
1.21386e-08
-8.24544e-07
-1.72551e-07
8.30058e-07
-7.18256e-07
5.4389e-07
1.74367e-07
-6.89989e-07
2.5943e-07
-7.81381e-07
7.04711e-07
-8.61415e-07
2.09399e-07
1.07984e-07
-6.92138e-07
5.84155e-07
6.61387e-07
-7.22952e-07
-3.70898e-07
4.79334e-07
-6.65531e-08
-3.0869e-07
1.24617e-07
-4.35111e-07
-2.13087e-07
8.1972e-07
-4.77937e-07
2.80106e-07
6.28544e-07
3.86691e-08
-6.67213e-07
-2.03301e-07
-4.12296e-07
-8.03378e-08
-1.15742e-07
5.23475e-07
2.76298e-07
-4.13234e-07
5.86081e-07
-1.72847e-07
-1.94781e-07
6.89561e-07
-6.12893e-07
-7.66683e-08
1.14309e-07
5.75252e-07
5.86849e-07
-6.34255e-07
6.54326e-07
-2.0071e-08
-6.77284e-07
4.30286e-08
-5.28332e-07
5.14907e-07
1.34241e-08
-5.58011e-07
6.91914e-07
-1.33903e-07
-6.9961e-07
1.41599e-07
-2.96511e-07
-5.66149e-07
6.67985e-07
-1.24096e-07
-4.97667e-07
-3.0665e-08
-7.00535e-07
-2.11419e-07
-4.78569e-07
-6.03581e-07
7.1789e-07
-4.69426e-07
6.97166e-07
-2.2774e-07
7.89676e-07
-4.24536e-07
8.42013e-08
2.21175e-07
-6.90601e-07
-1.17548e-07
6.51414e-07
-5.86876e-07
1.73642e-07
-6.43436e-07
7.69008e-07
-1.08121e-06
5.05222e-07
5.75987e-07
-2.75859e-07
-2.48158e-07
1.24506e-07
3.8278e-07
3.60712e-07
7.00151e-08
6.5644e-07
-6.71228e-07
1.47876e-08
7.6937e-07
1.00324e-07
5.67661e-07
-6.35946e-08
2.46216e-08
7.62181e-07
-7.86803e-07
-4.44607e-07
-1.42269e-07
8.12862e-07
-5.57269e-07
6.69013e-07
-3.92714e-07
2.14801e-07
-5.30293e-07
3.15491e-07
6.05925e-07
1.35323e-07
6.83288e-07
-1.08036e-07
-6.84283e-07
6.3079e-07
2.56498e-08
5.05636e-07
-3.6383e-07
-1.41805e-07
4.64212e-07
2.04801e-07
5.05958e-07
-3.74308e-07
5.9112e-07
-7.85901e-07
5.58602e-07
-2.78233e-07
-2.80369e-07
8.48334e-07
-7.66673e-07
4.70162e-07
-1.0506e-07
-1.36589e-07
7.42514e-07
-8.26554e-07
2.60404e-07
-5.01721e-07
-2.64952e-07
-6.20409e-07
-4.608e-07
1.39516e-07
-5.84123e-07
-6.43662e-07
3.41843e-07
3.01819e-07
5.79412e-07
-2.29247e-07
-3.50165e-07
2.76362e-07
3.69401e-07
-6.45762e-07
5.06142e-07
-3.87452e-07
-1.18689e-07
2.84253e-07
-7.85975e-07
-1.18877e-07
-9.025e-07
-8.72262e-07
7.53385e-07
4.65282e-07
-7.30234e-07
4.05769e-07
-6.4707e-07
7.95507e-07
-6.46409e-07
-1.49098e-07
6.38578e-07
-2.93091e-07
7.24712e-07
1.26786e-07
2.1717e-07
3.93199e-07
-6.10369e-07
3.08268e-07
-5.65876e-07
-6.52845e-07
4.41426e-07
6.2358e-07
-4.29187e-09
-6.19288e-07
4.05058e-07
-1.28865e-08
6.51414e-07
7.00343e-07
-7.51884e-07
5.15417e-08
-6.44335e-07
7.27178e-07
-8.28433e-08
-3.6671e-07
4.02005e-07
-3.6671e-07
-6.18499e-07
5.82459e-07
3.60401e-08
5.38426e-07
1.44862e-07
-6.73409e-07
6.67811e-07
5.5986e-09
-6.21785e-07
7.4629e-07
4.79369e-07
1.74406e-07
-6.53775e-07
6.79227e-07
-1.40801e-07
2.28385e-07
5.13474e-07
-7.41859e-07
8.83991e-07
-7.80446e-07
-3.28946e-07
5.43747e-07
1.72603e-07
-1.73476e-07
6.39775e-07
5.04782e-07
1.74445e-07
-6.8801e-07
7.12631e-07
-3.16974e-07
5.34144e-07
1.51172e-07
5.08044e-09
5.37687e-08
-3.7834e-07
4.26706e-07
-3.7834e-07
1.42312e-07
8.28395e-08
6.79342e-07
6.37442e-07
-5.67585e-07
-6.98571e-08
-5.0418e-07
6.04504e-07
-2.05645e-07
-4.15945e-07
4.15945e-07
5.88453e-07
1.57838e-07
6.95329e-07
-5.20923e-07
5.66229e-07
1.51661e-07
5.97312e-07
4.01299e-08
5.98e-07
-6.52313e-07
5.44276e-07
2.16759e-07
-7.70853e-07
-6.18179e-07
7.17421e-08
5.46437e-07
-5.423e-07
-6.01339e-07
-7.59447e-08
-9.025e-07
-3.57202e-08
6.63519e-07
7.1823e-07
5.89582e-07
1.52931e-07
3.88145e-07
-3.88145e-07
-6.79429e-07
6.91568e-07
9.05749e-08
-6.18196e-07
6.71965e-07
2.78993e-07
-5.43841e-07
2.64847e-07
-1.70365e-07
6.75146e-07
-5.8057e-07
6.49616e-07
-1.0534e-07
1.36253e-07
4.78258e-07
-6.14512e-07
4.96945e-07
-7.06903e-07
2.09959e-07
2.01301e-07
1.34398e-07
-2.49917e-07
5.2891e-07
3.40421e-07
-6.10607e-07
2.70186e-07
4.00784e-07
-4.00784e-07
9.90977e-07
-3.92257e-07
3.92257e-07
-6.1794e-07
5.11111e-07
3.86174e-08
-5.49728e-07
-4.11858e-07
4.11858e-07
-7.42292e-07
3.95079e-07
-3.95079e-07
6.46133e-07
-5.08815e-07
-1.37318e-07
3.7581e-07
-3.7581e-07
-5.17522e-07
6.18974e-07
-1.32094e-07
-4.8688e-07
3.0024e-07
5.06108e-07
8.79922e-09
-6.57239e-07
4.82357e-07
-4.68933e-07
5.97848e-07
-2.57427e-07
3.23041e-07
-4.64846e-07
-3.72792e-07
-2.37815e-07
4.232e-08
6.21199e-07
-2.35573e-07
4.75768e-07
6.17774e-07
-5.5759e-07
7.11092e-07
-1.86521e-07
-7.26544e-07
4.71144e-08
9.82826e-08
5.20692e-07
-3.46684e-07
-2.19192e-07
6.17474e-07
-7.10366e-08
6.40031e-07
-1.64263e-07
4.70116e-07
2.0503e-07
-5.25776e-07
-3.88083e-07
-1.41624e-07
5.29707e-07
4.41698e-07
-5.13836e-07
7.21378e-08
2.88793e-07
3.09055e-07
-5.05758e-07
1.18305e-07
1.24211e-07
5.79226e-07
-7.03437e-07
6.20338e-07
-5.26774e-08
-5.8218e-07
-6.36072e-07
-9.04714e-08
-3.91e-07
5.29495e-07
-6.61589e-07
-3.97404e-07
3.97404e-07
-6.14355e-07
3.2311e-07
2.91245e-07
-6.21284e-07
2.48491e-07
6.53706e-07
5.75386e-07
4.49528e-08
-6.29323e-07
2.69906e-07
3.59417e-07
-1.994e-07
-5.15385e-07
-1.84225e-07
-4.08223e-07
-2.13061e-07
1.98175e-07
4.41857e-07
1.44602e-07
-5.32685e-07
-3.25562e-07
3.96458e-07
-8.90792e-07
4.94334e-07
6.68291e-07
1.90571e-07
-6.06995e-07
4.16424e-07
-1.34934e-07
-6.46655e-07
7.81589e-07
1.81781e-07
5.12134e-07
7.40113e-07
-3.98263e-07
6.75507e-07
-2.77243e-07
-6.58215e-07
4.50075e-07
-8.28743e-07
3.78668e-07
6.32428e-07
2.54937e-07
1.14878e-07
-3.69816e-07
-3.06212e-07
-2.58484e-07
-3.15363e-07
5.73847e-07
-4.26676e-08
5.53778e-07
-7.57393e-07
-6.71503e-08
-3.60914e-07
3.60914e-07
-3.36118e-07
6.06024e-07
6.65862e-07
-2.85258e-07
-3.80604e-07
1.14745e-07
-7.50817e-07
4.33593e-07
2.34698e-07
-3.98213e-07
6.46704e-07
-5.94602e-07
-7.02658e-07
3.28979e-07
3.73679e-07
8.61211e-08
-3.23379e-07
-3.79279e-07
-6.24113e-07
-6.91082e-07
2.92819e-07
9.16194e-08
4.62681e-07
-5.54301e-07
4.46097e-07
2.55062e-07
-7.01159e-07
-3.61446e-07
6.31633e-07
-2.44985e-07
-3.4453e-07
-3.06071e-07
6.50601e-07
5.58711e-07
-1.70756e-07
-3.87956e-07
-6.57798e-07
2.59585e-07
3.52128e-07
8.46533e-07
-3.21985e-07
5.65556e-07
-2.43571e-07
3.21332e-07
-4.31388e-07
5.23007e-07
-3.61545e-07
5.06147e-07
-1.79393e-07
-2.24205e-07
6.65244e-07
-3.44389e-07
-3.20855e-07
2.93469e-07
2.72087e-07
5.5191e-07
-2.58441e-07
5.21461e-07
-1.53529e-08
6.93971e-07
4.86475e-07
5.94979e-08
-5.45973e-07
2.6662e-07
2.8529e-07
5.33557e-07
-2.66936e-07
-2.28021e-07
-3.2471e-07
5.52732e-07
2.52061e-07
4.2634e-07
-6.78401e-07
4.58197e-07
-8.83844e-07
4.25648e-07
7.01974e-07
-1.71921e-07
-4.89669e-07
2.8293e-07
3.82314e-07
-4.87509e-07
7.42571e-07
-2.47711e-07
-2.96614e-07
5.44325e-07
-3.70547e-07
3.28734e-07
4.71745e-07
-8.00479e-07
-5.35104e-07
-1.68333e-07
1.32625e-07
-5.82881e-07
4.50255e-07
-4.70741e-08
5.33549e-07
-7.57309e-07
4.05421e-07
3.51887e-07
6.42346e-07
1.65117e-07
-5.56805e-07
3.91688e-07
-9.79512e-08
5.01647e-07
-4.03695e-07
-5.63074e-07
9.64656e-07
-6.43866e-07
-3.20789e-07
-5.5511e-07
3.45825e-07
-4.21161e-07
5.86278e-07
-4.82868e-07
2.34749e-08
4.59393e-07
2.36943e-07
3.95226e-08
-5.13143e-07
4.73621e-07
8.21375e-07
-5.93051e-07
-2.28324e-07
4.43345e-07
5.00657e-08
-4.93411e-07
2.63472e-07
-7.50981e-07
-5.29339e-07
-3.09963e-07
7.81708e-07
4.33044e-08
4.46841e-07
-4.90145e-07
4.24049e-07
7.75971e-08
-2.70191e-07
-3.0851e-07
5.78701e-07
2.19615e-07
-5.37007e-07
-1.35939e-07
-4.20866e-07
4.53645e-07
6.93616e-08
1.50111e-07
4.09445e-07
-5.59557e-07
8.6563e-07
9.90251e-08
-8.65933e-07
5.62241e-08
5.85604e-08
5.82361e-07
-6.40921e-07
1.44501e-07
5.11579e-07
-6.5608e-07
2.76738e-07
-5.35179e-07
-3.02206e-10
-6.49708e-07
2.14614e-07
4.35094e-07
-4.12259e-07
4.62325e-07
5.32903e-07
-3.82791e-07
6.34248e-07
-3.39559e-08
-6.00292e-07
-4.303e-07
4.53775e-07
-4.11162e-07
-3.46147e-07
3.49108e-07
-3.49108e-07
3.46556e-07
-3.46556e-07
-3.78759e-07
3.78759e-07
4.28567e-07
4.02005e-07
-3.78712e-07
3.78712e-07
3.51323e-07
-3.51323e-07
-3.84423e-07
3.84423e-07
-7.8456e-07
3.78279e-07
-3.78279e-07
3.46107e-07
3.97296e-07
-3.97296e-07
-3.85485e-07
3.85485e-07
3.5404e-07
-3.5404e-07
3.85546e-07
-3.85546e-07
-3.26668e-07
5.27267e-07
-2.00599e-07
3.75625e-07
-3.75625e-07
-3.02025e-07
3.02025e-07
-1.25477e-07
5.0624e-07
-3.80763e-07
4.75727e-07
-3.9813e-07
4.07426e-07
1.77509e-07
5.26506e-07
-3.06891e-07
3.92352e-07
-5.28291e-07
4.32607e-07
-8.3292e-08
1.37558e-07
3.65513e-07
-5.03071e-07
-3.97648e-07
-1.1918e-07
7.03335e-07
1.64275e-07
3.64209e-07
-5.28484e-07
7.76908e-07
-7.20684e-07
-4.36833e-07
-1.17467e-07
-5.42097e-07
-2.08885e-07
5.70653e-07
-5.24171e-07
2.57235e-07
-4.94256e-07
-2.06904e-07
-5.60813e-07
2.90622e-07
5.33317e-07
-6.52498e-07
-5.58746e-07
1.21913e-07
1.02545e-07
-5.90884e-07
-1.59933e-07
7.73234e-07
-6.74209e-07
5.81142e-07
6.34682e-08
3.20241e-08
4.17088e-07
-7.65179e-09
5.2991e-07
1.32475e-08
4.40528e-07
-7.77499e-07
2.35403e-07
-4.73535e-07
6.18037e-07
-5.17118e-07
7.54192e-08
4.41699e-07
6.21138e-07
-4.39169e-07
-1.81969e-07
1.99838e-07
-5.06733e-07
6.09564e-07
-1.02831e-07
-5.3707e-07
5.9563e-07
-5.64048e-07
5.7626e-07
-1.22113e-08
6.1966e-07
-4.05046e-07
5.25504e-08
-2.47433e-07
-5.86369e-07
5.52413e-07
-7.0314e-07
-6.04575e-07
5.2273e-07
8.18446e-08
6.12143e-07
1.49707e-07
-5.32498e-07
-5.08971e-07
1.28208e-07
8.31511e-07
-6.15522e-07
1.25561e-07
4.89961e-07
7.98522e-07
-6.21014e-07
-4.82239e-07
8.41093e-08
2.44699e-07
-6.91935e-07
1.24313e-07
1.47603e-07
8.05111e-07
-5.59111e-07
-2.46e-07
-1.65357e-07
1.80492e-07
-1.41075e-07
5.06588e-07
1.11304e-07
7.24943e-08
3.15821e-08
-5.26747e-08
-4.64444e-07
3.70119e-07
2.35905e-07
5.49819e-07
-4.74399e-07
-1.0109e-08
-3.96849e-07
1.24664e-08
3.84382e-07
-3.79695e-07
-5.21618e-08
-3.9403e-07
4.57498e-07
3.84463e-07
-4.56923e-07
-3.59264e-07
-1.49301e-07
3.33364e-07
-4.84586e-07
1.51222e-07
-9.74872e-07
-3.03358e-07
4.68572e-07
4.61572e-07
-5.06806e-07
1.45261e-07
3.56922e-07
1.70345e-07
-3.83601e-07
-1.34234e-07
-4.53227e-07
5.87461e-07
-1.00768e-06
3.9871e-07
-9.27923e-08
-2.82308e-07
5.19251e-07
-4.08502e-07
5.88994e-07
1.75576e-07
3.81149e-07
-5.56725e-07
3.52133e-07
2.93868e-07
-5.89509e-07
2.95641e-07
1.78408e-07
-5.8691e-07
-6.59786e-07
4.52882e-07
-4.69829e-07
5.81133e-07
7.354e-07
-6.11088e-07
6.58878e-07
-1.09954e-07
-4.18337e-07
6.14818e-07
-5.37978e-07
-1.65162e-07
4.70807e-07
-3.71494e-07
8.18775e-08
4.93706e-07
5.35036e-07
-5.45145e-07
-9.42535e-08
4.81006e-07
-3.86752e-07
-6.5557e-07
3.46924e-07
3.08646e-07
-3.9179e-07
-1.11281e-07
4.3537e-07
-4.88044e-07
-6.46453e-07
3.69209e-07
5.48421e-07
-2.89172e-07
-2.59249e-07
-3.76553e-07
4.76078e-07
-6.55931e-07
4.10946e-07
-1.66069e-07
-4.93716e-07
5.24422e-07
-8.2723e-08
2.09772e-07
5.551e-07
-1.06085e-07
-4.49015e-07
1.84097e-07
-3.75046e-07
-8.47865e-07
-6.20966e-07
4.54896e-07
-1.31005e-07
-5.01743e-07
-3.28335e-07
5.50359e-07
-2.22024e-07
-5.84231e-07
-3.38381e-07
5.08726e-07
-2.03049e-07
1.55325e-07
-1.49462e-07
-3.35124e-07
-3.77138e-07
-4.79477e-07
1.97169e-07
-6.75903e-07
2.82885e-07
3.93017e-07
-6.47277e-07
2.41185e-07
4.06092e-07
3.69725e-07
-4.39693e-07
5.87296e-07
-6.21197e-07
4.18148e-07
-7.25427e-07
2.36138e-07
-7.95249e-07
2.80936e-08
4.9732e-07
-5.25413e-07
-8.39051e-07
-7.07025e-07
-3.18068e-07
4.60866e-07
-1.42798e-07
-3.43979e-07
-2.5035e-07
5.94329e-07
5.8173e-07
-6.20829e-07
-3.86848e-07
4.83428e-07
-5.7622e-07
1.663e-07
-1.72095e-07
-5.69764e-07
2.04592e-07
-9.82821e-08
-4.07476e-07
-7.75709e-07
4.98105e-07
2.77604e-07
-2.35507e-07
5.4228e-07
-2.10488e-07
-3.31792e-07
-4.59143e-07
9.11501e-07
-5.12792e-07
-2.8665e-07
5.15791e-07
-2.29141e-07
-3.03442e-07
-1.00804e-07
-2.14499e-07
-3.05329e-07
5.19828e-07
-3.21949e-07
-2.38865e-07
4.92222e-07
-5.68521e-08
1.98164e-07
3.88115e-07
9.22447e-08
-4.78997e-07
7.45118e-07
-5.0898e-07
-3.42531e-07
-2.1236e-07
-3.77149e-07
-3.33901e-07
-4.41808e-07
6.32323e-07
-2.63114e-07
8.94182e-08
3.8666e-07
4.09499e-07
3.28881e-07
5.30228e-07
2.72899e-07
-8.03127e-07
4.31119e-07
-1.05195e-06
2.91741e-07
6.19761e-07
2.00837e-07
3.47584e-07
-3.03415e-07
-2.23433e-07
5.26848e-07
-6.07093e-07
-2.77784e-07
-5.42835e-07
5.4731e-07
2.97144e-07
-8.44455e-07
-3.64391e-07
-2.91534e-07
4.92371e-07
-8.84576e-07
1.82938e-07
7.01638e-07
-5.72298e-07
-3.24045e-07
6.32691e-07
-3.65596e-07
-4.78858e-07
-5.14966e-07
-5.70677e-07
-3.13899e-07
4.97841e-07
5.6313e-07
-2.22242e-07
3.80804e-07
-6.16312e-07
-5.39652e-07
6.52523e-08
-4.2332e-08
2.85819e-07
-6.14699e-07
2.90655e-07
2.683e-07
5.10968e-07
2.05127e-07
-4.91777e-07
-2.26288e-07
-5.54843e-07
9.69784e-09
2.07302e-07
-4.96473e-07
-8.78388e-07
2.9886e-07
4.26707e-07
-7.25567e-07
-3.8439e-07
5.88187e-07
-2.03797e-07
5.70335e-07
-7.59217e-07
2.10462e-07
3.07665e-07
-5.18153e-07
4.77442e-07
-2.6698e-07
-1.68476e-07
-1.97902e-07
-3.5853e-07
5.56432e-07
-5.23261e-07
-3.76586e-07
6.17771e-07
-3.28926e-07
4.74186e-07
-4.14944e-07
8.1276e-07
-3.97816e-07
3.36655e-07
1.83173e-07
-1.68251e-07
-3.69613e-07
5.37864e-07
3.30229e-07
-7.6415e-07
4.33921e-07
-1.91829e-07
-2.81627e-07
8.11856e-07
-7.81473e-07
3.6653e-07
-5.82291e-07
6.0794e-07
-3.3964e-07
-4.4727e-07
-5.06776e-07
3.50937e-07
-5.72961e-07
-8.52304e-07
-5.6088e-07
2.31954e-07
4.99621e-07
-2.60008e-08
-6.62592e-07
1.72924e-07
2.24401e-07
5.87455e-07
2.31355e-07
1.59287e-07
3.473e-07
-5.34816e-07
4.17432e-07
4.68151e-07
-8.75782e-09
2.55063e-07
-5.94703e-07
-5.49345e-07
2.17553e-07
-6.23995e-07
1.37116e-07
3.04049e-07
2.74652e-07
6.57547e-07
-2.51455e-07
5.4452e-07
-3.39393e-07
3.66757e-07
1.63153e-07
-8.45086e-07
3.20901e-07
1.56541e-07
2.7754e-07
4.13973e-07
-3.85402e-07
-4.59684e-07
1.42654e-07
3.18211e-07
3.24274e-07
-5.13862e-07
1.89588e-07
-6.23249e-07
4.51072e-07
1.72177e-07
-5.81033e-07
3.54745e-07
7.4742e-07
7.70392e-07
-4.48271e-07
-2.14321e-07
-3.17898e-07
-5.04074e-07
1.61543e-07
1.82856e-07
-4.67987e-07
-2.09276e-07
6.91877e-07
2.26036e-09
4.38268e-07
7.53534e-07
-4.80635e-07
6.10459e-07
-4.2106e-07
-3.60413e-07
-3.61922e-07
-1.87423e-07
-3.99336e-07
-1.92919e-07
2.18718e-07
-4.88307e-07
-4.44365e-07
-1.07004e-07
5.51369e-07
3.73424e-07
-4.71706e-07
4.70411e-07
5.0713e-07
-4.82458e-07
1.61831e-07
3.20627e-07
-5.07548e-07
5.17246e-07
5.27546e-07
-8.75082e-07
3.47535e-07
4.74456e-07
-1.01032e-07
-4.0503e-07
-6.46918e-07
7.8409e-07
-5.28778e-07
2.99637e-07
4.90864e-07
-2.61059e-07
-2.6772e-07
-5.5484e-07
-7.02628e-07
-5.56861e-07
1.12496e-07
-4.04076e-07
4.71401e-07
-6.73246e-08
4.44299e-07
-6.00148e-08
5.26045e-07
-3.85543e-07
-7.5357e-08
4.609e-07
-4.78016e-07
6.10641e-07
-1.03803e-07
-5.10708e-07
5.86951e-07
-4.49836e-07
2.69969e-07
2.56879e-07
-3.55841e-07
-4.7851e-07
-4.79947e-07
5.78229e-07
4.89955e-07
-4.79433e-07
2.46371e-07
2.46e-07
-3.52032e-07
-8.06462e-07
8.64714e-07
-3.37168e-07
3.55767e-07
-4.19139e-07
4.62443e-07
1.52706e-08
-5.89485e-07
5.74215e-07
5.07376e-07
7.08535e-08
-8.87081e-07
9.27256e-07
-4.01746e-08
5.1634e-07
-1.4736e-07
7.42842e-07
-3.16135e-07
-3.03991e-08
4.13206e-07
-3.82807e-07
5.61095e-07
-2.86442e-07
-8.16716e-09
5.89609e-07
2.43197e-07
-4.73558e-07
-1.10565e-07
-5.20283e-07
5.64833e-07
-5.7457e-08
-6.39525e-08
-4.07754e-07
5.09412e-07
4.28317e-09
-5.13695e-07
4.78823e-07
3.53424e-09
-5.29874e-07
4.88755e-07
4.11186e-08
-4.32044e-07
4.42883e-07
-1.08389e-08
5.22617e-08
1.46367e-07
-5.02208e-07
3.38621e-07
-1.79532e-07
-4.46378e-07
-1.60617e-07
-2.37406e-07
-5.47501e-07
-4.76233e-07
-1.39773e-07
-3.35171e-07
-4.67955e-07
4.82696e-07
8.86107e-07
-3.91773e-07
4.78794e-07
-4.68393e-07
-1.598e-08
4.84373e-07
7.11176e-08
-6.6834e-07
5.97223e-07
3.64595e-07
-6.8545e-07
2.62206e-07
2.40793e-08
4.46332e-07
4.40421e-07
6.121e-07
-2.04625e-08
5.32237e-07
3.25961e-08
-2.91848e-07
-5.83233e-07
-7.99436e-07
-1.11853e-07
9.11289e-07
-4.17124e-08
5.27743e-07
7.67611e-08
-5.32458e-07
2.48621e-07
5.13429e-07
-5.84466e-07
-3.10423e-07
-1.8605e-07
-4.48317e-07
3.84365e-07
-5.51869e-08
4.42594e-07
1.55406e-07
-4.38064e-07
3.92199e-07
4.58645e-08
-2.43156e-07
-4.26903e-07
4.09711e-07
1.7192e-08
5.27101e-08
5.38649e-07
-5.91359e-07
5.80466e-07
-8.13401e-07
4.27454e-07
1.00093e-07
-5.27547e-07
-5.11361e-07
-3.40942e-07
5.47507e-07
5.42168e-07
-5.34125e-08
9.93609e-08
-4.7528e-07
3.75919e-07
6.06813e-07
-4.21465e-07
-3.73916e-07
5.5179e-07
-5.23268e-07
-2.90133e-07
5.26053e-07
2.57376e-08
5.49356e-07
-5.12061e-07
4.11029e-07
-3.8464e-07
-6.36766e-08
-2.83529e-08
-5.21149e-07
1.47233e-07
5.67171e-07
-9.1808e-08
4.84007e-07
4.34436e-07
-8.14294e-08
-5.77361e-07
-5.81568e-07
5.45848e-07
4.6347e-07
4.82656e-07
7.11223e-08
-4.76448e-07
7.62535e-08
-5.39235e-08
4.95621e-07
-1.09079e-07
5.00489e-07
6.66824e-08
5.26815e-07
5.55065e-07
-7.24091e-08
4.02053e-07
1.24763e-07
-5.26767e-07
1.15702e-07
4.11065e-07
2.99613e-07
-6.80217e-07
-6.47048e-07
-5.00046e-07
9.25707e-08
4.53536e-07
1.01529e-07
-5.42031e-07
1.1024e-09
5.40929e-07
-4.23793e-07
1.76029e-08
-5.08478e-07
4.90875e-07
-7.68723e-08
-1.19096e-07
-3.13395e-07
-4.09982e-07
7.23377e-07
1.38727e-07
-7.56253e-07
-8.15116e-07
5.84551e-07
-5.5159e-07
5.76993e-07
2.23157e-07
-7.80746e-07
7.28136e-07
-6.57019e-07
4.81073e-07
-1.02982e-07
4.01342e-07
-4.81597e-07
7.5083e-08
4.06514e-07
-3.89e-07
-3.41147e-07
7.30147e-07
5.63598e-07
-3.17598e-07
-2.33309e-07
5.53629e-07
-5.72696e-07
-4.34196e-07
-6.93018e-07
-6.15334e-07
-4.34993e-07
-4.6604e-08
-5.68123e-07
-2.46993e-07
-3.24091e-07
9.71769e-07
-6.47678e-07
-4.52464e-07
4.40158e-07
-5.50723e-07
6.16283e-07
5.36718e-07
-2.78644e-07
-2.8887e-07
-3.01629e-07
5.2393e-07
4.55567e-07
3.20442e-07
7.63771e-07
5.45165e-07
5.24873e-07
-4.60798e-08
-4.45383e-07
4.74197e-07
-2.73562e-08
5.5586e-07
1.68168e-07
-5.28193e-07
3.60025e-07
4.38143e-09
4.58977e-07
-4.63358e-07
4.13591e-07
3.60501e-07
1.73643e-07
4.65296e-07
-8.03625e-07
2.35502e-07
-6.93071e-07
2.7244e-07
4.20632e-07
5.65621e-07
8.59376e-09
8.66391e-07
-6.43234e-07
1.78634e-07
-4.41892e-07
4.87757e-07
5.5708e-07
-1.43489e-07
3.0291e-07
-5.38483e-07
-5.95419e-07
-2.08206e-07
3.84233e-07
-7.33443e-07
1.63679e-07
-3.99256e-07
-3.13431e-07
4.02452e-07
5.23859e-07
-3.755e-08
7.6797e-07
-1.6154e-07
-6.0643e-07
8.54269e-08
-5.19623e-07
6.35854e-07
-5.83144e-07
4.5566e-07
-5.09072e-07
4.97797e-07
-8.79139e-08
-4.09883e-07
-2.96023e-07
-4.51557e-07
6.87663e-08
4.22242e-07
-4.91008e-07
-1.1716e-07
3.72011e-07
-5.52401e-07
3.53001e-07
-8.34974e-08
6.8072e-07
1.19478e-07
3.86669e-07
-5.45237e-07
3.26045e-07
5.2937e-07
-3.00176e-07
-2.35003e-07
-4.76169e-07
3.42766e-08
-4.81352e-07
4.91488e-07
-5.15907e-07
1.04235e-07
4.11672e-07
1.032e-07
4.95258e-07
-4.90877e-07
6.17067e-07
2.94222e-07
-1.92236e-07
-3.40705e-07
-5.58193e-07
-2.87714e-07
2.12438e-07
-5.26546e-07
1.18715e-07
-5.25667e-07
1.19725e-08
6.2539e-07
-6.13178e-07
6.39637e-08
5.37811e-07
1.75759e-07
7.17218e-07
1.29294e-07
4.24334e-07
-3.85882e-07
-7.12006e-07
1.29458e-07
-6.46979e-07
8.19395e-08
4.6943e-07
6.59456e-07
5.8588e-07
5.52357e-07
4.30472e-07
6.05331e-07
1.17508e-07
4.122e-07
-5.45865e-07
-3.13402e-07
6.53178e-07
-5.50346e-07
5.6356e-07
-5.7955e-07
4.18933e-07
-6.20694e-07
-4.74795e-07
-4.93071e-07
4.32054e-07
-3.27819e-07
6.50055e-08
4.89008e-07
3.09716e-07
4.03853e-07
-7.4499e-07
5.60893e-07
7.98504e-07
6.56268e-07
-4.74299e-07
-2.61498e-07
-7.13374e-07
4.78904e-07
-5.0626e-07
4.72122e-08
-5.40283e-07
-9.46229e-08
-7.3672e-07
5.32628e-07
-2.85375e-08
3.87538e-07
-4.36782e-07
5.18721e-07
-7.55202e-07
-4.74829e-07
5.58965e-07
1.81148e-07
-3.83342e-07
5.87979e-07
-2.04637e-07
-7.91336e-07
6.01993e-08
-4.59048e-07
-7.49413e-07
1.73256e-07
-5.42869e-07
-5.96403e-07
3.40392e-07
-7.67028e-07
5.58822e-07
7.37599e-07
-2.66997e-07
-6.66809e-07
-1.02164e-07
5.04177e-07
-5.24696e-07
4.95736e-07
-3.40411e-07
6.43537e-07
5.49097e-07
-4.58373e-07
-3.10693e-07
-1.73026e-07
-2.84955e-07
-4.79194e-07
4.84373e-08
3.10564e-07
1.97159e-07
-7.06069e-07
2.96087e-07
-5.26004e-07
7.35962e-07
5.65671e-07
-3.92414e-07
-7.05265e-07
3.64118e-07
2.11595e-07
7.70418e-07
-5.96731e-08
6.02816e-07
-3.78353e-07
-3.04517e-07
-2.64261e-07
3.93136e-07
5.33175e-07
-1.53461e-07
5.72394e-07
-3.85139e-07
-9.42939e-08
-1.06349e-07
3.14093e-07
8.79039e-07
5.23424e-07
3.95636e-07
-3.41474e-07
3.57918e-07
-4.48705e-07
7.21144e-07
-4.10179e-07
2.73722e-08
4.60471e-07
-2.45903e-07
7.69328e-07
-8.97093e-08
4.62403e-07
-4.05652e-07
-4.59116e-07
2.66885e-08
-5.18104e-07
-3.88673e-07
4.79398e-07
-1.9152e-07
4.90059e-07
-3.15492e-07
-7.3366e-07
3.61034e-07
-1.7998e-07
4.49929e-07
-4.2324e-07
3.67789e-07
-3.99813e-07
1.6212e-08
2.43601e-07
3.46922e-07
1.59036e-07
9.17065e-07
-3.82433e-07
1.36081e-07
-5.06979e-07
3.57106e-08
-3.85275e-07
-1.7882e-09
3.56334e-07
-1.01396e-07
2.33499e-07
-3.66127e-07
5.66723e-07
-3.26966e-07
2.49003e-07
4.85223e-07
-1.09303e-07
-2.98534e-07
1.79441e-07
2.7371e-07
1.06086e-07
-3.79796e-07
-4.57559e-07
3.71676e-07
-7.70255e-07
2.94113e-07
5.17761e-07
-1.2331e-07
-3.77842e-07
2.02613e-07
4.67313e-07
-3.10772e-07
4.02962e-07
-1.45179e-07
1.65607e-07
-5.08602e-07
2.8636e-07
3.89838e-07
-6.28965e-08
2.50266e-07
2.34637e-07
1.8389e-07
8.40928e-07
-2.28036e-07
-1.67439e-07
-1.7632e-07
5.10828e-07
-3.34508e-07
3.68163e-07
3.68949e-08
4.59666e-07
2.04316e-07
-8.92248e-10
4.81669e-07
-2.845e-07
2.57606e-07
3.09117e-07
-4.37375e-07
-2.86083e-07
4.98141e-07
8.81726e-08
3.90825e-07
3.68163e-07
-5.55506e-07
3.26205e-07
-4.21675e-07
-4.63903e-07
2.77853e-07
3.08871e-07
-5.97741e-07
-4.15993e-07
7.49057e-07
-3.75519e-07
-8.90386e-09
3.68162e-07
7.46267e-09
-3.84516e-07
5.80353e-09
-3.65262e-07
-1.34962e-08
3.94908e-07
4.33941e-07
4.47681e-07
3.65643e-07
3.65262e-07
-3.94908e-07
-3.65643e-07
-1.26363e-08
3.86646e-07
-3.26061e-08
-4.33941e-07
-4.47681e-07
-3.75519e-07
3.68162e-07
-3.84516e-07
3.86646e-07
-8.98577e-07
5.84678e-07
3.62927e-07
-5.75685e-07
7.33242e-07
-3.01524e-07
3.01524e-07
3.62927e-07
-6.25808e-07
-7.22172e-07
3.02212e-07
8.30025e-07
-2.9685e-07
-8.74978e-07
-9.39033e-07
6.76477e-07
3.47774e-07
1.33365e-09
-3.47774e-07
-6.26613e-09
-2.65946e-07
-3.20442e-07
3.08157e-07
-4.49091e-07
-8.06334e-08
3.54344e-07
2.87076e-07
-5.9566e-08
4.08196e-07
4.45557e-07
-5.14104e-07
-5.40819e-07
-8.07329e-07
5.54451e-08
4.24576e-07
3.62657e-07
-5.38775e-07
2.52692e-07
-2.75103e-07
4.86437e-08
2.87143e-07
-2.59731e-07
-4.17599e-07
7.72922e-07
-7.07639e-07
-6.52831e-08
3.65461e-07
-1.30824e-07
2.8944e-07
-2.8944e-07
-2.06221e-07
-3.32297e-07
-2.88509e-07
3.78901e-07
-4.01821e-07
4.03155e-07
-1.18333e-07
8.91255e-07
3.70572e-07
-8.91082e-07
2.44673e-07
-3.98748e-07
2.73177e-07
-7.70228e-07
5.69241e-07
-7.58686e-07
3.94121e-07
-2.61493e-07
2.74565e-08
-4.50697e-07
3.66524e-07
2.55217e-07
3.42629e-07
4.32303e-07
-4.04846e-07
-3.64355e-07
-6.63148e-07
-7.74518e-08
4.06335e-07
-3.06586e-07
-3.14741e-07
3.14741e-07
-3.3773e-07
-1.13781e-08
3.3773e-07
-6.2485e-09
4.07033e-07
-4.07033e-07
-6.57899e-07
-2.76347e-07
3.47138e-07
-6.4095e-07
3.39321e-07
-4.37915e-07
5.34952e-08
3.78559e-07
4.39736e-07
-3.04976e-07
-8.76035e-08
-3.43127e-07
-3.72822e-07
-5.66212e-07
3.50013e-07
9.14106e-08
6.10227e-07
-2.12567e-07
-2.28143e-07
7.83051e-07
-7.83051e-07
3.39194e-07
-2.87002e-07
-4.30438e-07
-3.10842e-07
4.14442e-09
-6.92372e-07
6.88228e-07
1.26712e-07
-2.01354e-08
3.52106e-07
-3.25871e-07
3.6535e-07
-6.3909e-07
-8.40362e-08
-2.24446e-07
5.77738e-08
-3.85593e-07
-1.46516e-07
1.46516e-07
2.81251e-07
2.29578e-07
3.10693e-07
3.35662e-07
-1.04401e-07
-2.31261e-07
1.43391e-07
-1.79845e-08
3.06798e-07
-3.42629e-07
2.5934e-07
-3.06798e-07
-3.55312e-07
1.07624e-07
2.47688e-07
6.68048e-07
-1.48714e-07
4.16263e-07
3.65894e-07
-4.61922e-07
3.10875e-07
1.51047e-07
-2.59731e-07
-2.61433e-07
-3.34508e-07
2.61433e-07
1.37887e-07
1.36016e-09
-3.79713e-07
-2.5329e-07
-2.59518e-07
2.5329e-07
2.59518e-07
2.42155e-07
-2.42155e-07
-6.75602e-07
-2.55273e-07
-2.77509e-07
-2.44706e-07
-1.00569e-07
-3.01252e-07
-8.10824e-08
-2.65473e-07
2.65473e-07
-3.26966e-07
-2.90431e-07
-3.6535e-07
-2.38867e-07
5.15903e-08
2.87002e-07
-3.75672e-07
-1.22128e-07
-9.18653e-08
3.2609e-07
5.7894e-07
1.01183e-07
-3.85683e-07
-2.18093e-08
-2.20816e-08
3.47138e-07
-3.50449e-07
-6.09327e-07
2.78622e-07