/*--------------------------------*- C++ -*----------------------------------*\
  =========                 |
  \\      /  F ield         | OpenFOAM: The Open Source CFD Toolbox
   \\    /   O peration     | Website:  https://openfoam.org
    \\  /    A nd           | Version:  9
     \\/     M anipulation  |
\*---------------------------------------------------------------------------*/
FoamFile
{
    format      ascii;
    class       volVectorField;
    location    "0.02";
    object      U;
}
// * * * * * * * * * * * * * * * * * * * * * * * * * * * * * * * * * * * * * //

dimensions      [0 1 -1 0 0 0 0];

internalField   nonuniform List<vector> 
942
(
(0.0570559 -0.111853 0)
(0.0874065 0.00733948 2.60731e-17)
(0.0190934 0.0997256 0)
(0.0520824 -0.136045 -1.39356e-17)
(0.0174574 0.0999087 8.23095e-18)
(0.0672718 -0.0541321 1.46843e-17)
(0.030598 -0.0629469 3.86322e-17)
(0.068349 -0.0515543 0)
(-0.0197831 -0.0972657 -3.05368e-17)
(-0.0210518 -0.103309 3.11255e-17)
(0.070019 0.0476585 0)
(0.0821658 -0.0349596 0)
(0.0384115 -0.148105 1.29897e-17)
(0.0636842 0.0547494 0)
(0.0856477 -0.0320416 0)
(0.0843912 0.00592319 -2.83457e-17)
(0.106164 0.0850433 -1.10943e-17)
(0.0580853 -0.113258 0)
(0.133862 0.0675012 -3.32118e-18)
(0.0656078 0.0121927 5.11369e-18)
(0.0958707 0.076752 1.89118e-17)
(0.083759 -0.02661 1.54284e-17)
(0.0779179 -0.118682 0)
(0.0466899 0.136362 -2.98768e-17)
(0.0690096 0.0512476 0)
(0.0421866 0.126879 2.24932e-17)
(0.0237428 0.0845444 0)
(0.0720767 -0.115564 1.93878e-17)
(0.0783746 0.122572 0)
(0.0619269 -0.113986 1.23088e-17)
(0.0477551 0.11562 1.51597e-17)
(0.0228355 0.0818657 0)
(0.0717976 0.129612 1.42696e-17)
(0.144352 -0.0153959 1.69138e-17)
(0.0328343 0.0789282 -1.65714e-17)
(0.102838 -0.102951 3.19707e-17)
(0.0857754 -0.0944356 1.08134e-18)
(0.0656801 -0.098299 0)
(0.0810181 -0.091443 -5.52502e-19)
(0.0545517 0.13779 2.13468e-17)
(0.134224 -0.0426144 -3.03238e-17)
(0.0941231 -0.0621748 0)
(0.0686525 0.159505 -1.47277e-17)
(0.0457132 -0.0796024 -1.28834e-17)
(0.0475788 -0.0816196 -3.25343e-17)
(0.114349 0.0977424 7.24086e-18)
(0.144019 0.0450952 -1.47327e-17)
(0.154811 -0.00722268 -1.39484e-17)
(0.141503 -0.0458079 1.56233e-17)
(0.0626774 0.0586179 1.81686e-17)
(0.136265 0.0568845 0)
(0.0842917 -0.142534 0)
(0.12012 -0.12547 -2.15175e-17)
(0.0266731 0.139091 1.68549e-17)
(-0.0117692 -0.129843 0)
(0.11916 -0.0642585 -1.14413e-17)
(0.0659603 -0.0177861 -2.8815e-17)
(-0.00186215 -0.124705 -2.08694e-18)
(0.0879662 -0.0156026 3.69018e-17)
(0.126738 0.00663941 1.59924e-17)
(0.0580967 -0.116355 -1.52759e-17)
(0.0289593 0.0806641 -3.89948e-17)
(0.137196 -0.0149552 1.82357e-17)
(0.0598086 -0.108508 -1.50185e-17)
(0.0617251 -0.103086 1.42298e-17)
(0.0824836 -0.00106739 1.08662e-17)
(0.026677 0.080967 3.04875e-17)
(0.144288 0.0163926 -1.39669e-17)
(0.126882 -0.0698084 1.44771e-17)
(0.0422314 -0.0803244 4.00095e-18)
(0.084914 0.00910233 0)
(0.0105063 -0.0900858 0)
(0.0660258 -0.00113167 -1.8807e-18)
(0.0630743 -0.110748 3.68697e-18)
(0.0330952 0.137869 -1.59906e-17)
(0.083147 0.0266268 -6.52429e-22)
(0.0797824 0.0217407 1.88444e-18)
(0.030868 0.0798549 1.684e-17)
(0.0442527 0.114943 -1.81321e-17)
(0.0844596 0.00352638 -3.71686e-18)
(0.0640243 -0.0601951 2.21396e-17)
(0.051401 0.123619 -7.8265e-18)
(0.0743378 0.0390345 -1.99465e-18)
(0.0852229 0.00265421 8.18011e-18)
(0.0813324 -0.00242297 0)
(0.0173634 0.0888691 0)
(0.132913 0.00810985 -1.6694e-17)
(0.0824748 -0.0226965 4.62181e-18)
(0.0618005 0.0610221 0)
(0.0743639 0.0423945 2.28036e-17)
(0.0990145 -0.0592823 -1.17166e-17)
(0.0401464 0.0785161 5.23686e-19)
(0.00633284 -0.141288 2.34447e-18)
(0.119003 -0.0574191 0)
(0.11427 -0.0710426 -4.51276e-18)
(0.0814261 0.025604 8.28068e-18)
(0.0951626 -0.0651634 1.43964e-17)
(0.0759194 -0.0258434 -1.34271e-17)
(0.0587427 -0.0590669 -1.99926e-17)
(0.053109 -0.110152 -2.85465e-17)
(0.024083 -0.0883049 -8.60347e-18)
(0.0141335 -0.153783 9.6975e-18)
(0.139027 0.039911 0)
(0.0443275 -0.0775813 1.1009e-17)
(0.108228 -0.0654638 -1.73107e-17)
(0.0621687 -0.117105 -2.79807e-17)
(0.118389 0.0895639 -9.70937e-18)
(0.103161 0.10989 0)
(0.152399 0.00814038 1.50766e-17)
(0.149394 0.0274667 0)
(0.126901 -0.0794898 0)
(0.137584 -0.0643475 -1.52597e-17)
(0.134139 0.0153974 3.04013e-17)
(0.00344268 -0.0897167 0)
(0.0679934 0.0535141 0)
(0.0313323 0.0583983 2.04182e-18)
(0.124014 0.0220332 -1.64005e-17)
(0.0530074 -0.125662 1.7588e-17)
(0.0472037 -0.122425 5.01076e-21)
(0.119726 -0.0211723 -2.00317e-18)
(0.0635823 -0.137571 6.6641e-18)
(0.117526 -0.0923016 -1.71428e-17)
(0.0449471 0.12027 0)
(0.0888014 0.00709711 1.50894e-17)
(0.0876314 0.000903204 1.22231e-17)
(0.0371939 0.11892 -3.21278e-17)
(0.0644129 -0.103654 1.72243e-17)
(0.089263 0.15143 -1.62022e-17)
(0.105785 0.13709 2.96555e-17)
(0.0941479 -0.0889207 1.56855e-17)
(0.162206 0.0715171 -8.01026e-18)
(0.150121 0.0920372 -1.85317e-17)
(0.168758 0.0516712 0)
(0.175353 -0.0107704 0)
(0.178398 0.0102814 -1.6725e-17)
(0.138308 0.10788 -1.15736e-17)
(0.147206 -0.0963156 1.02074e-18)
(0.174346 0.0298957 0)
(0.159091 -0.0766771 2.08811e-17)
(0.167894 -0.0556503 -7.13225e-18)
(0.174534 -0.036402 1.67712e-17)
(0.12304 0.126677 0)
(0.131708 0.0202537 -1.66989e-17)
(0.0331452 0.116102 1.78389e-17)
(0.0686292 -0.048647 -4.24747e-18)
(0.0602668 0.129001 -7.552e-18)
(0.039762 -0.080129 0)
(0.0156931 -0.0899002 -1.02301e-17)
(0.0895964 -0.0962863 2.56441e-17)
(0.0168587 0.0864985 0)
(0.0716667 -0.0462157 4.59134e-18)
(0.114414 -0.010004 5.06633e-18)
(0.0395471 0.0758788 0)
(0.0535689 -0.0675282 9.56379e-18)
(0.0352166 0.0778264 -1.64772e-17)
(0.0770943 -0.0951345 0)
(0.0793531 -0.011108 1.8663e-17)
(0.00179647 -0.0776184 0)
(0.12429 0.0120377 0)
(0.0808599 0.0196318 6.88272e-18)
(0.0816191 -0.00911248 -2.41565e-17)
(0.0838888 -0.100444 0)
(0.0522876 -0.151464 0)
(0.0737721 -0.0374224 8.5497e-18)
(0.121401 -0.00512041 0)
(0.0571163 0.0610986 -2.51618e-17)
(0.0292884 -0.0872748 0)
(0.0474301 -0.0779297 0)
(0.104188 0.0994905 1.47711e-17)
(0.142804 0.0344558 1.7638e-17)
(0.144409 -0.00250643 -1.47617e-17)
(0.135199 -0.0558578 -1.96243e-18)
(0.115767 -0.0802356 2.5928e-21)
(0.0601916 -0.119923 9.57023e-18)
(0.00748049 0.086346 0)
(0.0373432 -0.092412 -1.87106e-17)
(0.0784968 0.0276425 -1.75178e-17)
(0.0334653 -0.0948811 0)
(0.10975 -0.0544019 6.12704e-19)
(0.0439236 -0.0896381 0)
(0.0516586 -0.0681961 -1.12169e-17)
(0.0842999 0.117336 0)
(0.084491 -0.0907425 -2.19675e-17)
(0.0413779 -0.0924902 1.81151e-21)
(0.0611328 -0.111667 -1.11154e-17)
(0.0594109 0.122634 0)
(0.119956 0.0333571 -8.6942e-18)
(0.0218869 0.102018 1.72692e-17)
(0.0161893 0.0880852 2.47192e-17)
(0.0474457 -0.089348 8.43097e-18)
(0.0367464 0.0894015 3.33924e-17)
(0.0495854 -0.0866806 -8.44382e-18)
(0.0650767 -0.114241 -1.06396e-17)
(0.0531438 0.111062 -1.58461e-17)
(0.0272315 0.10632 8.74984e-18)
(0.0321007 -0.131143 -8.02661e-18)
(0.0336165 0.103555 0)
(0.0583391 -0.112925 2.85976e-17)
(0.140882 -0.0366486 -2.04168e-17)
(0.024925 0.1217 1.51886e-17)
(0.0252602 -0.0796349 0)
(0.0357569 -0.1238 8.13989e-18)
(0.0286592 0.111243 0)
(0.0980159 0.0907523 -1.85748e-17)
(0.133312 0.0306207 1.76822e-17)
(0.125684 -0.0527675 0)
(0.113268 -0.0768519 1.76907e-17)
(0.0211505 0.098239 -3.82301e-17)
(0.0454986 0.168617 -1.46791e-17)
(0.0368712 0.142329 1.45582e-17)
(0.0295992 0.101863 -8.48945e-18)
(0.0302183 -0.115585 1.42435e-21)
(0.00588417 -0.103901 1.38451e-17)
(0.0280439 0.0862173 8.12841e-18)
(0.0313422 0.111735 0)
(0.047498 -0.103699 -2.77879e-21)
(0.00762527 0.0861219 -2.03183e-17)
(0.0504338 0.0778286 1.70989e-17)
(0.0375937 0.100435 1.68521e-17)
(0.0416762 0.100332 2.23776e-21)
(0.0537659 -0.0998232 0)
(0.0507067 -0.109601 -1.6558e-17)
(0.0530115 -0.0856778 0)
(0.0405212 -0.108858 0)
(0.010579 -0.0671531 -1.72832e-17)
(0.0182799 0.0658404 1.68789e-17)
(0.0329779 0.0855966 -1.19758e-17)
(0.0597718 -0.095855 -1.7014e-17)
(0.032087 -0.0999953 2.52024e-17)
(0.0522886 0.100813 0)
(0.0631289 0.117831 -1.54674e-17)
(0.0260744 0.0966879 -2.99172e-17)
(0.0239216 0.0630459 1.63525e-17)
(0.019964 -0.0670124 -9.09784e-18)
(0.0498468 -0.100304 -8.56327e-18)
(0.0234039 -0.116205 1.18642e-21)
(0.0482752 0.0797112 -1.77354e-17)
(0.0561172 -0.0968089 1.70905e-17)
(0.0485022 0.10495 -1.60791e-17)
(0.0449721 0.0968543 1.6687e-17)
(0.0490166 0.0961897 0)
(0.0473699 -0.0764553 -4.161e-18)
(0.0593528 -0.0887626 8.42971e-18)
(0.0370684 -0.0878037 -9.52493e-18)
(0.0421656 -0.0857409 -1.68612e-17)
(0.0357307 0.108865 -1.66779e-17)
(0.0653827 -0.0920015 8.48051e-18)
(0.0427016 -0.104623 -9.19956e-18)
(0.0620369 -0.092801 -1.70096e-17)
(0.0450358 0.104902 4.11241e-18)
(0.0331725 0.0895572 -4.21981e-18)
(0.121801 -0.0466145 -1.55865e-17)
(0.03885 0.0867547 0)
(0.0400716 0.109085 1.24038e-17)
(0.04747 -0.0833141 1.67495e-17)
(0.0346985 -0.110184 1.86275e-17)
(0.0555853 -0.0896003 0)
(0.0549109 -0.0828882 0)
(0.0586475 0.0782249 -8.36186e-18)
(0.0397959 -0.0849916 9.48669e-18)
(0.05579 -0.10398 -8.37177e-18)
(0.0597043 0.0751843 8.2224e-18)
(0.0331961 0.0837493 -2.06009e-17)
(0.0524287 -0.0790341 -4.42656e-18)
(0.0681178 -0.0953635 8.79406e-18)
(-0.000444616 -0.0987653 0)
(0.0446396 -0.0831773 0)
(0.0600455 -0.0788971 0)
(0.0581756 0.109976 1.57116e-17)
(0.0683696 -0.0885263 8.57068e-18)
(0.0717389 -0.0876163 1.62095e-17)
(0.0216499 0.090929 -1.53357e-17)
(0.128339 -0.0390855 1.81491e-17)
(0.0264902 0.086903 -8.09827e-18)
(0.0283154 0.0976467 1.69888e-17)
(0.0560278 0.0724207 -1.70206e-17)
(0.075992 0.107085 0)
(0.0662806 -0.0647613 0)
(0.0389174 0.0931784 -8.38921e-18)
(0.101881 -0.135632 -1.74712e-17)
(0.049439 -0.0806641 0)
(0.0962048 -0.10246 -1.43474e-18)
(0.0902802 -0.114857 1.77813e-17)
(0.0658991 -0.0665497 0)
(0.0930563 0.0674417 3.29962e-17)
(0.117422 0.0128504 -1.64921e-17)
(0.0621928 -0.0714807 2.51687e-17)
(0.0647764 -0.0744902 1.67308e-17)
(0.0538766 -0.0769588 4.33657e-18)
(0.0568126 -0.0753932 4.31002e-18)
(0.0902585 0.0697556 -1.67306e-17)
(0.128203 -0.0318268 1.97544e-17)
(0.0560884 0.0694572 -7.61234e-18)
(0.0877127 -0.0770179 1.87767e-17)
(0.0642589 -0.062726 4.76085e-18)
(0.106111 0.0727322 -1.50962e-17)
(0.115102 0.00192959 0)
(0.115693 0.00586777 8.54164e-18)
(0.115841 -0.000995327 7.96878e-18)
(0.114951 0.015857 0)
(0.109833 0.0355577 0)
(0.0629406 -0.0683641 -8.61053e-18)
(0.107267 -0.022237 -3.86122e-18)
(0.104882 -0.0332912 -2.68621e-17)
(0.108831 0.0406726 -2.65247e-17)
(0.0610858 -0.0857088 8.4016e-18)
(0.099967 -0.0472487 -2.66674e-17)
(0.0607502 -0.0250503 0)
(0.0644407 0.015883 -7.66388e-18)
(0.0342478 0.0565896 1.5975e-17)
(0.0307225 -0.063366 1.31386e-17)
(0.0592783 0.0327138 2.0575e-21)
(0.0562045 -0.034916 -2.31734e-18)
(0.0637874 -5.03917e-05 -1.60611e-17)
(0.0869881 -0.0666321 4.17254e-21)
(0.0453695 0.0457947 2.57274e-17)
(0.0415751 -0.0528525 -1.77252e-17)
(0.061746 -0.01465 -3.81439e-21)
(0.0614773 0.0269018 -4.53898e-18)
(0.0574949 -0.0307595 0)
(0.0647357 0.0160803 -4.70656e-18)
(0.0393343 0.0518979 0)
(0.0355188 -0.0568209 1.86045e-17)
(0.0674741 -0.00384581 -3.3035e-17)
(0.13112 -0.0253944 -2.07733e-17)
(0.0615872 0.0691202 -1.69315e-17)
(0.0549304 0.0394629 0)
(0.083161 -0.0738473 -8.66163e-18)
(0.0904791 -0.058435 0)
(0.0478618 -0.0445817 0)
(0.0971316 0.0666406 -3.30775e-17)
(0.0777048 -0.0825028 -1.4773e-17)
(0.0754575 -0.059625 8.42473e-18)
(0.106582 -0.0254375 -1.51559e-17)
(0.0730819 -0.0579818 0)
(0.100564 0.0583017 1.65487e-17)
(0.103417 -0.0405639 9.58925e-18)
(0.121107 0.06104 -4.86672e-19)
(0.113379 0.0644426 0)
(0.136745 -0.113462 -1.64799e-17)
(0.113546 0.044953 2.43423e-17)
(0.087343 0.0302099 -1.66633e-17)
(0.0965526 -0.0537136 -4.37073e-18)
(0.108783 0.0525436 -4.13283e-17)
(0.108829 0.0174811 -1.69499e-17)
(0.0982086 0.0674128 0)
(0.106772 0.0259169 1.7228e-17)
(0.08628 -0.0632801 1.67702e-17)
(0.0632345 -0.0774203 1.67382e-17)
(0.109713 0.00698196 -8.34563e-18)
(0.106424 0.0591629 1.65596e-17)
(0.108846 -0.00244648 -5.24726e-21)
(0.0834474 -0.0700844 -4.2632e-17)
(0.106764 -0.00892816 -8.78485e-18)
(0.122268 0.0530312 -1.47531e-17)
(0.0697723 -0.0564263 0)
(0.103749 0.0338145 1.69365e-17)
(0.0782945 -0.0771495 0)
(0.0999817 0.0408617 8.2992e-18)
(0.0898805 0.0297202 1.67122e-17)
(0.102394 -0.0177077 2.14272e-17)
(0.080614 -0.0431104 0)
(0.0913034 -0.0177503 -2.36228e-18)
(0.0733279 -0.084472 1.42606e-17)
(0.101392 -0.0316526 -1.69667e-17)
(0.0895254 -0.0177354 8.84995e-18)
(0.0818535 -0.0385128 -8.54428e-18)
(0.118547 0.0570756 3.80383e-17)
(0.0968665 -0.0435479 2.52931e-17)
(0.0877704 0.0266987 -4.34415e-18)
(0.123388 -0.0228813 0)
(0.112102 0.0508663 1.63731e-17)
(0.123326 0.0423502 -8.27242e-18)
(0.0892045 -0.0553292 -1.62555e-17)
(0.103698 0.0491166 8.3738e-18)
(0.107605 0.0114534 8.34608e-18)
(0.105621 0.0425667 8.39411e-18)
(0.106539 0.0209208 1.72839e-17)
(0.0701152 -0.0791195 8.2499e-18)
(0.107461 0.00193628 8.31788e-18)
(0.0630199 0.113271 1.85077e-17)
(0.053294 -0.105206 0)
(0.129874 -0.00437947 1.67008e-17)
(0.0996894 -0.0828554 0)
(0.109763 0.0694758 4.1282e-18)
(0.106205 -0.00514409 2.6338e-17)
(0.103021 -0.0255607 3.34295e-17)
(0.0869125 -0.0210726 2.58791e-18)
(0.104556 0.0283186 -3.44228e-17)
(0.103675 -0.0111628 -3.53084e-17)
(0.129221 0.0234601 -8.46829e-18)
(0.118685 -0.0568722 -4.25662e-18)
(0.0701902 -0.0552157 0)
(0.092315 -0.00683913 1.72609e-17)
(0.127249 -0.023161 4.46726e-18)
(0.0768701 -0.0533186 0)
(0.0836883 -0.0407595 1.65772e-17)
(0.129969 0.00899152 4.34508e-18)
(0.0978831 0.0851918 8.53713e-18)
(0.110681 -0.0677546 -1.0889e-18)
(0.127884 -0.0382371 -7.48378e-18)
(0.0824226 -0.0608595 -2.49727e-17)
(0.0888368 -0.020551 0)
(0.079056 -0.0376764 7.93629e-18)
(0.0989562 -0.0388659 0)
(0.0968538 0.0555593 0)
(0.0915667 -0.100902 0)
(0.100734 0.0355719 0)
(0.092109 -0.0520218 8.34032e-18)
(0.076382 -0.101986 2.52174e-17)
(0.0905959 0.0932123 -1.77779e-17)
(0.0922959 -0.0186809 8.39345e-18)
(0.0853272 -0.043416 0)
(0.0999036 -0.0194158 2.51584e-17)
(0.0983608 -0.0315715 0)
(0.0714497 -0.0757979 -8.41868e-18)
(0.0753034 -0.0735987 8.42449e-18)
(0.0834354 -0.0507222 8.33476e-18)
(0.0899378 0.0613888 1.6601e-17)
(0.0849286 -0.0540243 8.33243e-18)
(0.0778285 -0.0476982 1.74994e-17)
(0.0926772 -0.0436398 -3.35607e-17)
(0.0745339 -0.0511852 0)
(0.0763386 -0.0617431 -8.3067e-18)
(0.0962112 -0.0357877 1.67522e-17)
(0.0994132 -0.0223032 -1.67494e-17)
(0.0987764 0.0502222 0)
(0.0850448 0.0287466 1.74111e-17)
(0.0960986 -0.0134926 1.68614e-17)
(0.0894392 -0.00521881 -3.1088e-17)
(0.0831078 -0.0166584 0)
(0.0986533 -0.0104334 1.68351e-17)
(0.0899386 -0.014131 0)
(0.0868944 0.0347667 0)
(0.092908 -0.10821 0)
(0.0796518 -0.0494554 0)
(0.102325 0.00336477 2.50169e-17)
(0.0781244 -0.0556884 0)
(0.0901649 -0.0485832 8.41383e-18)
(0.0922232 -0.0123722 -1.76248e-17)
(0.0819299 -0.0577789 8.31645e-18)
(0.0850317 -0.0307518 -1.53439e-17)
(0.101585 0.0194261 -1.67445e-17)
(0.0949067 -0.00424083 0)
(0.0682166 -0.0725889 -1.67495e-17)
(0.0957963 -0.0187847 -2.51389e-17)
(0.0963154 0.042252 0)
(0.0886905 0.0409306 0)
(0.0858677 -0.0472334 0)
(0.0797981 -0.0674194 1.67216e-17)
(0.0959994 0.0337713 -4.65882e-21)
(0.0832758 0.0391179 4.35144e-21)
(0.0826534 0.0319604 -1.71892e-17)
(0.0792681 -0.0643072 0)
(0.0919503 0.0398581 0)
(0.0932493 0.0563206 0)
(0.0947104 0.0472258 0)
(0.0898147 0.00746503 0)
(0.0759843 -0.070502 -8.38193e-18)
(0.0851904 0.0383826 -1.69286e-17)
(0.100725 -0.00357044 2.51231e-17)
(0.10267 0.011382 -8.35479e-18)
(0.0699438 0.115152 1.65419e-17)
(0.0931373 0.0355285 -8.30217e-18)
(0.0803293 0.0729055 8.41349e-18)
(0.0895097 0.0337056 -8.32566e-18)
(0.0692528 -0.060675 0)
(0.0980296 -0.00643926 -1.68202e-17)
(0.100315 8.34669e-05 -3.33352e-17)
(0.0780204 0.0573153 0)
(0.101238 0.00763438 -1.66795e-17)
(0.0958481 0.0146436 -1.69278e-17)
(0.101006 0.015264 0)
(0.0954256 -0.0244908 0)
(0.0845002 0.0608647 -4.22265e-21)
(0.0572993 0.0691442 7.55716e-18)
(0.0898518 -0.0415998 0)
(0.0919213 0.0278054 -2.49816e-17)
(0.094333 -0.0305684 0)
(0.0848952 0.0674958 0)
(0.0654588 -0.0839462 -1.66618e-17)
(0.08175 0.0647142 -1.65994e-17)
(0.0990556 0.0267141 0)
(0.0826 0.0567269 -1.65991e-17)
(0.0916389 -0.0361992 -8.38345e-18)
(0.0889323 0.0532031 1.65934e-17)
(0.0919032 -0.0211752 -1.71677e-17)
(0.0992423 0.0221934 1.67279e-17)
(0.0872828 -0.0407045 0)
(0.0765323 0.0607646 -8.29122e-18)
(0.0731599 0.0552021 -2.93275e-17)
(0.0872822 0.0453998 0)
(0.0751616 0.054227 0)
(0.0963842 0.0292533 2.49401e-17)
(0.0663205 -0.0807941 -1.63694e-17)
(0.0614263 0.0735928 0)
(0.0852016 0.0524531 1.65971e-17)
(0.0515445 0.0752167 3.48862e-17)
(0.091124 0.0481583 -1.65876e-17)
(0.0720926 -0.0671662 0)
(0.0793782 0.043513 3.53326e-17)
(0.07901 0.0629002 8.28113e-18)
(0.0730319 -0.0634958 0)
(0.0696435 0.0720029 1.65599e-17)
(0.0886069 0.0228328 -9.13167e-18)
(0.0619103 0.0820065 0)
(0.0946203 0.0213344 0)
(0.0900621 0.0118436 0)
(0.0809883 0.08166 1.45613e-17)
(0.0913086 0.00489402 -8.05882e-18)
(0.0911755 -0.0306231 -2.04168e-17)
(0.0755297 0.0670934 0)
(0.065883 0.0658649 8.51752e-18)
(0.0765865 0.0717227 -1.65583e-17)
(0.07202 0.0553904 2.79847e-17)
(0.0687458 -0.0696524 0)
(0.0650757 0.0633005 -7.19272e-18)
(0.0682676 0.0693885 0)
(0.0948593 0.0103045 0)
(0.078065 0.0857295 0)
(0.0839158 -0.0321538 0)
(0.0926005 0.0234409 8.37069e-18)
(0.0959434 0.00714717 0)
(0.0702654 0.066557 0)
(0.0947548 0.00347433 -8.43483e-18)
(0.0945582 -0.0021859 -8.29106e-18)
(0.0824177 0.0503887 0)
(0.0659455 0.0795307 0)
(0.0830497 0.0473781 0)
(0.0955889 0.000293309 3.3308e-17)
(0.093998 0.0175107 2.53042e-17)
(0.0804002 0.0498269 0)
(0.0930018 -0.0303006 1.44461e-17)
(0.0423431 0.0926941 -1.66995e-17)
(0.0732436 0.0744925 1.6563e-17)
(0.0609797 0.085542 -1.6575e-17)
(0.0607953 0.104867 -2.97388e-21)
(0.0658027 0.0630045 0)
(0.0585834 -0.0819482 0)
(0.036568 0.0830897 1.60389e-17)
(0.0623933 -0.106394 0)
(0.0743143 0.0584149 0)
(0.0834325 0.0772635 -1.47254e-17)
(0.0586979 -0.072527 -2.12447e-17)
(0.0718714 0.087564 0)
(0.0567255 0.0999481 -1.64902e-17)
(0.0689473 0.06273 0)
(0.0740308 0.0789092 -1.65597e-17)
(0.0636289 0.093398 -8.26832e-18)
(0.0591503 0.0954975 3.30869e-17)
(0.0695627 0.0825801 0)
(0.0657807 0.0752589 -1.65467e-17)
(0.0482335 0.0888734 8.32526e-18)
(0.0678931 0.0866074 0)
(0.0306093 0.0916177 2.08512e-17)
(0.0639182 0.0890984 -8.28208e-18)
(0.0513212 0.0924174 -1.66135e-17)
(0.0776302 0.0463271 -1.55576e-17)
(0.0273714 0.0907718 -8.39271e-18)
(0.0773467 0.0469449 0)
(0.0550521 0.0802131 -1.67275e-17)
(0.0533679 -0.0926969 0)
(0.0534478 -0.107566 2.49732e-17)
(0.0569051 0.0871623 2.48883e-17)
(0.0423198 0.0859632 1.66648e-17)
(0.066867 0.10331 3.32424e-17)
(0.0740123 0.0953081 -8.79849e-18)
(0.0704686 0.108919 -1.67353e-17)
(0.0441412 0.0828528 0)
(0.0146603 -0.101501 0)
(0.0446036 0.0897942 -1.66789e-17)
(0.0248406 0.0933054 3.46843e-17)
(0.0693358 0.0978441 0)
(0.0555895 0.0909229 -2.48878e-17)
(0.0402235 -0.100003 -1.85406e-21)
(0.0358887 0.0956777 8.40433e-18)
(0.0475069 0.0819516 0)
(0.0498583 0.0857889 8.44835e-18)
(0.0410461 0.0799669 -2.50695e-17)
(0.0377152 0.0768363 0)
(0.049208 -0.111211 1.93352e-17)
(0.00604975 0.0988725 -3.58312e-17)
(-0.000171493 -0.138846 0)
(0.0536845 0.0840939 0)
(0.0497048 -0.093302 -1.68737e-17)
(0.0472501 -0.0963842 0)
(0.0376566 0.081516 1.6692e-17)
(0.00769562 0.102475 4.8132e-19)
(0.0201367 -0.106333 -1.84936e-17)
(0.0323118 0.0955943 -1.6887e-17)
(0.102314 -0.0678878 -1.3758e-17)
(0.0433263 -0.0966655 1.69486e-17)
(0.010608 -0.151749 0)
(0.00708979 0.112853 0)
(0.00954854 0.118764 5.67251e-17)
(0.0172176 -0.114966 -3.75604e-17)
(0.00966744 0.127132 -3.59702e-17)
(0.0758153 -0.0255293 0)
(0.00845863 0.0922971 1.78329e-17)
(0.0321968 -0.10361 -2.6463e-17)
(0.0357565 -0.100236 2.66107e-17)
(0.0211385 -0.0783598 0)
(0.00807 0.134489 -1.80331e-17)
(0.00618088 0.0869306 -5.52296e-17)
(-0.00911139 -0.0767304 -1.76608e-17)
(0.0811807 0.102686 1.25432e-21)
(0.00969595 0.0985788 1.54723e-17)
(0.0258465 -0.102894 -1.81564e-17)
(0.0773393 0.106187 8.56234e-18)
(0.0110511 0.109016 0)
(0.0878317 0.0835937 -1.96276e-17)
(0.00886987 0.0985738 4.02525e-17)
(0.0122902 0.114895 -1.91661e-17)
(0.0125395 0.1226 4.18659e-22)
(0.0743143 -0.0329832 2.73717e-17)
(0.0880309 -0.00715465 2.59666e-21)
(0.117468 -0.0247017 3.29569e-17)
(0.0891161 0.00164275 1.19839e-17)
(0.0605897 -0.103032 0)
(0.0525145 -0.102727 1.88926e-17)
(0.0141663 0.13146 0)
(0.0853605 0.0253164 -1.10052e-17)
(0.00825613 0.0867461 -5.78031e-19)
(-0.00115086 -0.0794109 0)
(0.0108217 0.0858412 5.31103e-19)
(0.0181472 0.098435 1.85664e-17)
(0.0185282 0.146752 -2.13648e-17)
(0.0549084 -0.0734902 -5.32812e-18)
(0.0632643 -0.107885 4.49184e-18)
(0.0846261 -0.0136963 2.58881e-17)
(0.0852444 0.0252253 1.93835e-17)
(0.0730228 0.0440277 -2.05705e-17)
(0.146461 -0.0306953 1.60425e-17)
(0.0664887 -0.0993391 0)
(0.0832394 -0.0133966 9.73219e-18)
(0.0843353 0.0145391 0)
(0.0390226 0.125213 1.52994e-17)
(0.030078 -0.0946098 0)
(0.0864653 0.118101 -3.64923e-17)
(0.125447 0.0484212 -1.98502e-17)
(0.0902216 -0.00230332 -1.63246e-17)
(0.0413077 -0.081012 -1.41021e-17)
(0.0864167 -0.019413 0)
(0.135219 0.0017912 9.15324e-19)
(0.0792467 0.0218713 0)
(0.0835658 -0.0263367 -2.91066e-17)
(0.0796365 -0.032543 -1.37417e-17)
(0.0832353 -0.0238772 -4.82508e-18)
(0.0278352 -0.0637321 3.58669e-17)
(0.0445608 -0.0714324 0)
(0.0270094 -0.0961424 1.55079e-17)
(0.0885726 0.0942578 0)
(0.082163 -0.035617 -2.62754e-17)
(-0.0117381 -0.131325 -2.00303e-17)
(0.12151 0.0247247 1.84323e-17)
(0.0893834 0.012292 0)
(0.0873486 0.0205851 -4.81395e-18)
(0.0239994 0.0898271 0)
(0.0972431 0.11105 1.8051e-17)
(0.068908 -0.133504 5.91634e-19)
(-0.0225124 -0.101867 3.96574e-17)
(0.0624756 -0.0992165 0)
(0.0312157 -0.148763 1.71717e-17)
(0.0425769 -0.132872 1.83483e-17)
(0.0213803 -0.161543 9.67384e-18)
(0.0372448 -0.0822657 -1.96918e-21)
(0.13246 -0.0175946 -2.52983e-17)
(0.013587 0.09224 0)
(0.091145 -0.074061 0)
(0.0181896 0.0908895 -9.17188e-18)
(0.122775 0.029689 1.89144e-17)
(0.0240155 0.0876013 0)
(0.0189419 -0.0902966 9.20897e-18)
(0.023525 0.0859578 -1.52877e-17)
(0.0259748 -0.0897711 0)
(0.0183277 -0.131837 0)
(0.0134625 0.0646676 -1.26077e-21)
(0.0234022 0.0634707 1.58896e-17)
(0.0146933 -0.0672897 8.9944e-18)
(0.00404448 -0.112732 -9.44583e-18)
(0.10543 -0.0433949 0)
(0.0462889 0.0772047 1.81288e-17)
(0.0814121 -0.085156 -9.40698e-18)
(0.0599273 0.0646348 -9.06657e-18)
(0.0682609 0.056866 0)
(0.073827 0.0453028 0)
(0.0833298 0.0305872 8.15065e-18)
(0.0434619 0.0761053 -1.73962e-17)
(0.0490508 0.0464986 0)
(0.0730818 0.0485443 1.52299e-17)
(0.0751832 -0.0460923 0)
(0.0561894 0.068076 8.96263e-18)
(0.0569814 -0.0691681 -1.75939e-17)
(0.0770645 0.0420633 2.32455e-18)
(0.0819186 0.0361645 1.39663e-17)
(0.0486185 0.0731926 -1.84204e-17)
(0.053529 0.0701428 -1.8615e-17)
(0.0545284 -0.073244 0)
(0.0699115 0.0536699 1.70208e-17)
(0.050251 0.0396845 0)
(0.05785 0.0282964 -2.19529e-18)
(0.0625162 0.0204291 0)
(0.0367743 0.0542118 0)
(0.0434829 0.0522266 -9.00455e-18)
(0.0537721 -0.0389054 1.89304e-21)
(0.0411738 -0.0544183 0)
(0.0544077 0.0333859 -1.43543e-17)
(0.117215 -0.022284 -9.78263e-18)
(0.0622889 0.0597018 -1.78495e-17)
(0.128032 0.0422688 0)
(-0.00283263 -0.118586 1.71403e-21)
(0.0499735 0.0732088 -2.90684e-17)
(0.0882414 0.104285 -2.09683e-17)
(0.076846 -0.103416 0)
(0.0689182 -0.0547648 -3.57128e-17)
(0.0416448 0.078402 -8.84977e-18)
(0.0206016 0.0864349 0)
(0.0687909 0.0515209 1.8056e-17)
(0.0436511 -0.121968 -1.02911e-17)
(0.0422607 0.0745376 2.01331e-17)
(0.0512395 -0.0410552 1.80987e-17)
(0.0996729 0.0732408 9.63225e-18)
(0.085567 0.0803978 2.8159e-17)
(0.126713 0.0775751 1.00411e-17)
(0.0733214 -0.0479435 0)
(0.0777077 -0.0389313 -3.55551e-17)
(0.0784329 -0.0331602 -4.34585e-18)
(0.0565149 -0.0644191 2.7352e-17)
(0.012137 -0.142166 -1.90603e-17)
(0.109919 -0.0254903 -3.07893e-17)
(0.130354 0.0688643 1.49315e-17)
(0.0150099 0.0993665 -2.45761e-17)
(0.0687598 -0.132188 4.84792e-18)
(0.116042 0.0229922 1.84499e-17)
(0.112265 0.0331527 -2.77167e-17)
(0.0792381 0.0370569 3.84589e-17)
(0.107339 -0.095999 0)
(0.0482839 -0.110973 -1.99853e-17)
(0.0351154 0.0816734 3.06998e-17)
(0.0592903 -0.0614902 -1.81677e-17)
(0.0446087 -0.118793 1.08321e-17)
(0.110223 0.0871528 -4.74593e-18)
(0.0107379 0.0680677 0)
(0.0888781 0.0168754 -9.32278e-18)
(0.0765569 -0.088479 -1.98833e-17)
(0.0614922 -0.063995 1.84455e-17)
(0.0560453 -0.11113 1.2007e-17)
(0.0286127 0.0604026 -1.98309e-17)
(0.0272123 -0.0884055 1.07203e-17)
(0.124691 -0.0015562 -1.48699e-17)
(0.0134846 -0.0949197 0)
(0.056371 0.0656361 3.4034e-17)
(0.0865125 -0.0158867 -1.88271e-17)
(0.0869822 -0.00547455 2.39397e-17)
(0.0557748 -0.0308674 2.26968e-17)
(0.111809 -0.017082 4.78442e-18)
(0.11453 -0.0063432 -1.02055e-17)
(0.0899751 -0.0083546 -2.10515e-17)
(0.0858118 -0.000821835 2.0026e-17)
(0.0829317 0.091076 0)
(0.0640169 0.0616546 0)
(0.00376146 -0.151644 -2.09866e-17)
(0.00598109 -0.0399522 -1.02765e-17)
(0.0210309 0.125294 -1.9949e-17)
(0.0129303 -0.155933 5.52362e-21)
(0.0544694 -0.0665236 9.36022e-18)
(0.0723877 -0.0490187 -1.88123e-17)
(0.0209203 -0.0419838 0)
(0.0115373 0.150665 0)
(0.100613 -0.0861369 3.41653e-17)
(-0.00167672 0.0695832 -3.33773e-17)
(0.0476717 -0.0475914 -9.54427e-18)
(0.05467 0.0683678 1.0952e-17)
(0.00300949 -0.0619806 1.9397e-17)
(0.0133178 0.0859682 2.18347e-17)
(0.0773594 0.0332911 0)
(0.0692193 0.04941 0)
(0.0759228 0.03252 -9.8028e-18)
(0.00205629 0.0883031 1.14328e-17)
(0.0555152 0.0661794 -8.91507e-18)
(0.0308818 -0.0878385 -1.48146e-17)
(0.0210846 -0.0887079 9.88453e-18)
(0.0800357 0.00866211 -2.42734e-18)
(0.0790674 0.0157807 -3.34475e-17)
(0.0132976 0.0964776 -2.34343e-17)
(0.0666067 -0.054879 5.72216e-18)
(0.048984 0.0704129 2.40801e-17)
(0.0642909 -0.0154971 1.25786e-21)
(0.0916162 -0.0700471 1.70266e-17)
(0.0848508 -0.0251333 1.98277e-17)
(0.073179 0.0456957 -9.48568e-18)
(0.018629 0.0852836 -3.18361e-17)
(-0.0144939 -0.0802286 2.10098e-17)
(0.0812782 -0.0227301 -9.78069e-18)
(0.0815457 -0.033842 -1.95652e-17)
(0.0637926 -0.061587 1.70783e-17)
(0.0430842 0.0738832 -2.30499e-18)
(0.0459026 -0.0482484 4.80863e-18)
(0.0314949 0.0838114 4.23158e-18)
(0.090782 0.00838361 0)
(0.0825295 0.0205768 6.48999e-18)
(0.0168681 0.0938754 1.0438e-17)
(0.107286 -0.0853565 2.30178e-17)
(0.0165717 0.11374 0)
(0.0786772 -0.0160277 -4.07392e-18)
(0.105323 -0.045922 2.33258e-17)
(0.118259 -0.0372311 1.2954e-17)
(0.0259749 0.124042 0)
(-0.00107876 -0.051769 -2.03593e-17)
(0.0863334 -0.082041 1.06556e-17)
(0.0661876 -0.00380581 -2.69384e-18)
(0.0173953 0.110474 -1.3825e-18)
(0.0967779 0.0914095 5.07039e-18)
(-0.00127546 -0.0309862 2.23661e-17)
(0.0207526 0.131028 0)
(0.111293 -0.0500554 0)
(0.0978658 -0.0769506 0)
(0.090586 0.0990779 -1.12085e-17)
(0.062218 0.0572989 0)
(0.106829 0.0812649 1.86141e-17)
(0.0165567 -0.120363 -1.10835e-17)
(-0.00888636 -0.0372711 -1.14226e-17)
(0.0212062 0.126396 0)
(0.112538 -0.0362606 -5.74043e-18)
(0.0643429 0.0572689 0)
(0.117779 0.0668235 6.35739e-19)
(0.0244748 0.171224 1.0594e-17)
(0.0411172 -0.0800502 1.59727e-17)
(0.0675727 -0.109166 0)
(0.0351305 -0.0822582 2.07098e-17)
(0.0263559 0.118078 0)
(0.0187235 0.12271 0)
(0.0692846 -0.11224 1.38422e-18)
(0.12263 -0.0320126 -2.01059e-17)
(0.0365245 -0.0844261 -1.18105e-18)
(0.071249 -0.0445911 0)
(0.126798 0.0548998 3.90893e-17)
(0.0323644 0.128462 1.10246e-18)
(0.0150301 0.0930776 -9.8606e-18)
(0.0664429 -0.0564038 0)
(0.0750084 0.0410748 -8.77504e-18)
(0.0719687 -0.110915 -2.40041e-17)
(0.073806 -0.0416154 2.20761e-17)
(0.0537643 0.0625147 1.04649e-17)
(0.0748732 -0.109015 9.73237e-18)
(0.0924937 0.0755359 -1.04031e-17)
(0.0115871 -0.0870723 -2.13361e-17)
(0.0762117 -0.0461573 -2.00965e-17)
(0.0699588 0.0500379 0)
(0.0761133 -0.0420345 1.4169e-17)
(0.0661651 -0.106945 4.89211e-18)
(0.111515 -0.0334187 1.8949e-17)
(0.023819 0.0880349 5.06155e-18)
(0.0180765 0.0915507 0)
(0.106927 -0.065667 1.86257e-17)
(0.101999 -0.0568995 3.01569e-17)
(0.127351 -0.00391091 0)
(0.0731387 -0.102415 3.10624e-18)
(0.0236873 -0.0649536 -1.39656e-17)
(0.128371 -0.0153504 0)
(0.0774184 -0.117793 -1.31984e-18)
(0.120236 0.0427808 -1.87959e-17)
(0.0810562 0.0328829 4.47392e-21)
(0.112081 0.0258942 -5.90462e-21)
(0.0681835 -0.10372 -5.03958e-18)
(0.0630962 -0.0575582 -2.2718e-17)
(0.0844336 0.0197408 2.4948e-17)
(0.0210891 0.111397 4.39741e-17)
(0.0795751 0.0351637 -2.28768e-17)
(0.0606812 -0.0227446 3.32764e-17)
(0.135049 -0.00552865 4.73268e-18)
(0.0190482 -0.0869715 1.12042e-17)
(0.0133602 0.107957 2.17874e-17)
(0.0571042 -0.0703356 0)
(0.0754934 -0.0447249 -3.11129e-17)
(0.0574748 -0.0643929 -1.94832e-17)
(0.0565138 0.0637494 5.34021e-18)
(0.100634 -0.0772211 0)
(0.022182 0.111108 -2.33038e-17)
(0.0573248 -0.0689367 -2.28791e-17)
(0.128083 0.0317423 0)
(0.0304909 -0.0837988 1.24696e-17)
(0.0589452 -0.119585 1.40033e-17)
(0.0739377 -0.0967898 -1.15099e-17)
(0.0604116 -0.065508 1.3967e-18)
(0.0234936 -0.0925825 0)
(0.00257468 -0.160117 1.32176e-21)
(0.0463028 0.0741953 0)
(0.0598107 -0.0666397 2.00064e-17)
(0.0537247 -0.0719131 -2.85007e-18)
(0.0789927 0.10689 1.14242e-17)
(0.0466673 -0.0721234 0)
(0.00673206 0.140347 2.41051e-17)
(0.137236 -0.0251116 2.28144e-17)
(0.0667592 -0.0516607 -5.75274e-18)
(0.109287 -0.0790331 -1.87227e-17)
(0.0828597 -0.112566 -3.90616e-17)
(0.021483 0.109069 0)
(0.0848288 -0.0148016 0)
(0.0482214 0.0712717 -2.37388e-17)
(0.0467701 0.0719595 3.07736e-17)
(0.11219 -0.0426929 9.87342e-18)
(0.109445 -0.00901399 1.12537e-17)
(0.0513132 -0.0738539 8.16597e-18)
(-0.0266334 -0.0653249 -1.2408e-17)
(0.00825111 0.0882806 0)
(0.0452413 0.072017 0)
(0.0921864 -0.0851874 0)
(0.0446093 -0.111403 -8.24011e-19)
(0.0624649 0.0095677 1.27298e-17)
(0.0823954 0.0191634 6.04692e-18)
(0.00909601 0.0875841 3.17502e-17)
(0.0352286 -0.0860515 -2.04912e-21)
(0.113665 -0.0425433 2.41165e-17)
(0.0771775 -0.0339815 6.05611e-18)
(0.00863522 0.0974898 -1.36679e-21)
(0.0860584 0.0975627 0)
(0.097458 -0.0845952 -2.08745e-17)
(0.0195774 0.116598 0)
(0.0238395 0.115115 -2.08571e-17)
(0.087709 0.0163102 0)
(0.074891 -0.0379562 1.80184e-17)
(0.0733729 0.0410999 -5.84841e-18)
(0.032553 -0.0846112 -1.33855e-17)
(0.123953 0.0771693 0)