/*--------------------------------*- C++ -*----------------------------------*\
  =========                 |
  \\      /  F ield         | OpenFOAM: The Open Source CFD Toolbox
   \\    /   O peration     | Website:  https://openfoam.org
    \\  /    A nd           | Version:  9
     \\/     M anipulation  |
\*---------------------------------------------------------------------------*/
FoamFile
{
    format      ascii;
    class       volVectorField;
    location    "0.46";
    object      U;
}
// * * * * * * * * * * * * * * * * * * * * * * * * * * * * * * * * * * * * * //

dimensions      [0 1 -1 0 0 0 0];

internalField   nonuniform List<vector> 
578
(
(-0.055 -0.0661 0)
(-0.0293 -0.103 3.1e-16)
(-0.0824 -0.0982 -1.11e-16)
(0.00643 -0.116 -2.58e-17)
(0.0181 -0.0405 -5.1e-17)
(0.00719 -0.146 -9.5e-17)
(-0.0189 -0.0416 5.07e-17)
(0.021 -0.0389 -3.24e-20)
(0.0967 -0.141 -2.1e-16)
(-0.0177 -0.0656 4.75e-16)
(0.00869 -0.157 -1.38e-16)
(0.0605 -0.119 0)
(0.0116 -0.135 1.05e-16)
(0.0624 -0.129 -8.09e-16)
(-0.0634 -0.13 4.07e-16)
(0.107 -0.115 -9.73e-17)
(-0.0725 -0.0687 4.51e-16)
(-0.118 -0.1 0)
(0.0556 -0.109 0)
(0.105 -0.137 1.47e-16)
(0.00622 -0.129 0)
(0.0842 -0.105 0)
(0.0507 -0.0462 -5.36e-16)
(-3.4e-05 -0.118 0)
(-0.00172 -0.0942 0)
(0.0531 -0.108 4.15e-16)
(-0.00604 -0.111 -5.23e-17)
(-0.000586 -0.0559 3.01e-17)
(-0.0256 -0.124 -5.01e-16)
(0.112 -0.12 3.96e-16)
(-0.00211 -0.0953 -4.98e-16)
(0.0067 -0.122 1.05e-16)
(0.122 -0.129 -3.75e-16)
(-0.0025 -0.127 2.02e-16)
(-0.0551 -0.117 -4.03e-16)
(0.0951 -0.1 -6.1e-16)
(0.054 -0.115 7.93e-16)
(0.051 -0.1 0)
(-0.107 -0.116 -3.92e-16)
(0.029 -0.0623 0)
(0.0297 -0.0677 -4.14e-16)
(0.035 -0.0636 4.94e-16)
(0.0305 -0.0596 0)
(-0.0568 -0.114 0)
(0.0902 -0.0855 5.2e-17)
(-0.0299 -0.0639 0)
(-0.0304 -0.0696 4.13e-16)
(0.0881 -0.13 -5.19e-17)
(-0.106 -0.116 5.85e-16)
(-0.00977 -0.131 -1.1e-16)
(0.00137 -0.0576 1.63e-17)
(0.0182 -0.14 -4.44e-16)
(0.0768 -0.0561 -2.21e-16)
(-0.00285 -0.128 0)
(0.00164 -0.127 3.68e-16)
(-0.00663 -0.153 8.68e-16)
(0.0202 -0.0173 9.08e-16)
(0.0628 -0.0504 -4.36e-16)
(-0.0927 -0.095 -7.57e-16)
(0.06 -0.0649 2.32e-16)
(-0.111 -0.107 4e-16)
(-0.0648 -0.0458 0)
(-0.0982 -0.0738 5.92e-17)
(0.0564 -0.114 3.78e-16)
(-0.00582 -0.137 1e-16)
(-0.0716 -0.131 2.22e-16)
(0.118 -0.135 -4.53e-17)
(0.0152 -0.153 3.26e-16)
(0.124 -0.115 -1.89e-16)
(0.0617 -0.132 4.43e-16)
(0.000305 -0.101 0)
(0.00215 -0.101 -1.47e-17)
(0.000209 -0.133 -1.09e-16)
(0.0628 -0.135 0)
(0.00248 -0.169 1.99e-16)
(0.0184 -0.0382 0)
(0.084 -0.118 2.68e-16)
(0.0684 -0.0955 -2.25e-16)
(0.00733 -0.138 0)
(-0.0541 -0.0583 -1.23e-16)
(0.0538 -0.117 -3.79e-16)
(-0.0269 -0.0398 -4.32e-16)
(0.0163 -0.04 -1.97e-16)
(0.0271 -0.039 1.99e-16)
(-0.114 -0.137 -5.35e-17)
(-0.0228 -0.0621 0)
(0.00102 -0.0339 0)
(-0.00621 -0.167 -3.17e-16)
(0.0441 -0.0991 1.52e-20)
(-0.0481 -0.11 3.67e-18)
(-0.00479 -0.12 0)
(-0.0993 -0.125 1.09e-16)
(-0.0448 -0.101 0)
(0.0191 -0.151 1.94e-16)
(0.113 -0.118 5.97e-16)
(0.0798 -0.108 -5.2e-16)
(0.000155 -0.128 1.08e-16)
(0.00602 -0.129 -7.73e-16)
(-0.00594 -0.0401 -8.54e-16)
(-0.0623 -0.13 0)
(-0.0679 -0.118 0)
(0.0578 -0.128 -7.05e-16)
(-0.0194 -0.147 0)
(-0.0839 -0.088 0)
(-0.00511 -0.128 0)
(0.0612 -0.129 -6.02e-16)
(0.00337 -0.154 -2.1e-16)
(0.0306 -0.0656 0)
(-0.0133 -0.0354 0)
(0.0353 -0.0694 -5.17e-16)
(0.0959 -0.11 -1.63e-16)
(0.0594 -0.126 0)
(0.111 -0.131 4.39e-16)
(0.0918 -0.114 -3.61e-16)
(0.0962 -0.116 3.83e-16)
(-0.0182 -0.14 4.36e-16)
(0.0102 -0.13 2.26e-16)
(-0.0744 -0.121 -3.35e-16)
(-0.0421 -0.0953 5.89e-17)
(-0.006 -0.129 3.81e-16)
(0.0442 -0.0886 -4e-16)
(0.0426 -0.0655 2.78e-21)
(0.06 -0.122 -4.28e-16)
(0.00341 -0.106 -5.82e-17)
(0.0356 -0.0633 0)
(-0.0524 -0.128 4.45e-16)
(0.0361 -0.118 -4.19e-16)
(0.121 -0.121 -2.1e-16)
(-0.0637 -0.136 2.24e-16)
(-0.0446 -0.129 0)
(-0.0632 -0.13 0)
(-0.052 -0.131 0)
(0.0174 -0.148 0)
(0.0128 -0.0256 4.48e-16)
(-0.0624 -0.133 -4.15e-16)
(-0.0649 -0.109 0)
(0.0535 -0.101 0)
(-0.0103 -0.134 -3.74e-16)
(0.0739 -0.115 4.19e-16)
(-0.0551 -0.109 0)
(-0.0286 -0.054 5.4e-16)
(-0.0459 -0.129 0)
(-0.0476 -0.0926 0)
(-0.00033 -0.1 0)
(0.025 -0.0488 0)
(-0.115 -0.128 1.09e-20)
(-0.0405 -0.091 4.78e-16)
(-0.0107 -0.0858 0)
(0.0634 -0.132 4.46e-16)
(-0.0445 -0.121 0)
(0.0783 -0.142 0)
(-0.0312 -0.0431 0)
(0.0275 -0.0272 0)
(0.0223 -0.0446 5.32e-16)
(-0.0689 -0.139 -4.13e-16)
(-0.00971 -0.115 -2.33e-16)
(-0.0293 -0.139 4.46e-16)
(0.0182 -0.129 -1.03e-16)
(-0.0235 -0.0232 -1.08e-16)
(0.0827 -0.143 -3.52e-16)
(0.0711 -0.13 4.99e-16)
(0.0673 -0.115 5.2e-16)
(-0.0156 -0.0298 -6.81e-18)
(0.0714 -0.126 0)
(-0.000173 -0.0313 4.21e-20)
(-0.0475 -0.115 6.69e-21)
(-0.000332 -0.0567 -5.33e-16)
(-0.0618 -0.12 0)
(0.0123 -0.088 -1.16e-16)
(-0.00979 -0.16 -1.8e-16)
(0.0687 -0.111 0)
(0.0322 -0.0585 0)
(-0.0389 -0.0657 0)
(-0.0223 -0.0447 -5.36e-16)
(-0.0539 -0.103 0)
(-0.00703 -0.145 -1.03e-16)
(-0.000369 -0.149 -1.04e-16)
(-0.0718 -0.116 3.88e-16)
(0.0425 -0.0709 5.9e-17)
(-0.00337 -0.102 2.41e-16)
(-0.0332 -0.0597 0)
(-0.0552 -0.1 0)
(-0.0352 -0.102 0)
(0.00717 -0.146 7.73e-16)
(-0.0776 -0.122 2.82e-16)
(-0.00764 -0.0637 -3.91e-16)
(0.0378 -0.0461 -1.99e-16)
(-0.0651 -0.136 1.02e-16)
(-0.0729 -0.142 4.3e-16)
(-0.00179 -0.0589 -5.37e-16)
(0.0713 -0.141 -4.27e-16)
(0.0607 -0.112 0)
(0.058 -0.0754 4.98e-16)
(-0.0573 -0.109 0)
(-0.037 -0.0653 0)
(-0.00244 -0.169 1.96e-16)
(0.00495 -0.0704 1.01e-15)
(-0.00491 -0.0694 -8.02e-16)
(-0.0608 -0.112 0)
(0.0564 -0.107 0)
(0.00909 -0.0663 -3.84e-16)
(0.0131 -0.152 -9.75e-16)
(0.0212 -0.0677 -2.49e-16)
(-0.00685 -0.165 0)
(-0.00145 -0.157 -3.13e-16)
(0.0616 -0.119 0)
(-0.0707 -0.126 0)
(-0.0754 -0.087 0)
(0.0734 -0.143 4.38e-16)
(-0.0338 -0.0389 0)
(-0.0326 -0.0731 4.86e-16)
(-0.0749 -0.145 -4.21e-16)
(-0.0592 -0.126 -1.39e-17)
(0.00396 -0.161 1.01e-16)
(-0.0518 -0.105 -2.41e-16)
(0.00289 -0.117 0)
(-0.0662 -0.127 -4.51e-16)
(0.0652 -0.125 4.52e-16)
(-0.0704 -0.143 4.35e-16)
(-0.0182 -0.0382 -5.52e-16)
(0.0689 -0.141 2.22e-16)
(-0.0587 -0.115 0)
(0.0384 -0.0797 -4.77e-16)
(0.0365 -0.0682 0)
(-0.0353 -0.066 0)
(-0.0387 -0.0798 9.6e-16)
(0.000219 -0.176 -9.84e-17)
(0.00446 -0.0433 7.26e-20)
(-0.00348 -0.0426 2.1e-16)
(-0.00051 -0.0314 4.27e-16)
(-0.0144 -0.0369 -4.32e-16)
(0.00717 -0.0367 -2.18e-16)
(-0.0128 -0.0256 -4.45e-16)
(0.0379 -0.112 0)
(-0.0386 -0.114 0)
(0.026 -0.0409 1.51e-16)
(0.02 -0.0382 0)
(-0.0204 -0.0384 0)
(0.0223 -0.146 1.61e-16)
(0.0322 -0.0726 0)
(-0.0178 -0.0325 0)
(0.0178 -0.031 0)
(-0.00255 -0.173 -4e-16)
(-0.03 -0.0565 0)
(-0.00242 -0.0371 8.27e-16)
(0.0142 -0.0284 0)
(-0.0152 -0.0286 -4.3e-16)
(-0.00578 -0.0654 9.92e-16)
(-0.0215 -0.0341 0)
(-0.00397 -0.157 -1.01e-16)
(0.00245 -0.167 9.97e-17)
(-0.0571 -0.131 0)
(0.0102 -0.106 0)
(0.0119 -0.0332 -4.32e-18)
(0.00103 -0.03 0)
(0.0449 -0.127 4.41e-16)
(-0.000705 -0.0581 5.31e-16)
(-0.0833 -0.144 -6.71e-16)
(0.0214 -0.0384 0)
(0.00639 -0.0646 5.33e-16)
(0.0181 -0.038 5.48e-16)
(-0.0189 -0.034 4.33e-16)
(0.0014 -0.037 -8.45e-16)
(0.00204 -0.0651 5.64e-16)
(-0.0494 -0.113 3.46e-16)
(0.0468 -0.0994 8.57e-16)
(0.0236 -0.0662 0)
(0.00826 -0.0188 -4.45e-16)
(-0.00141 -0.033 -4.35e-16)
(0.00378 -0.0154 0)
(-0.00384 -0.0156 0)
(-0.0527 -0.125 -4.3e-16)
(0.0318 -0.0836 0)
(-0.000315 -0.179 -2.9e-16)
(0.00984 -0.159 -2.14e-16)
(-0.00216 -0.177 -5.83e-16)
(-0.0047 -0.141 2.29e-16)
(-0.00827 -0.0189 0)
(-0.0367 -0.067 0)
(-0.00211 -0.168 -5.11e-16)
(0.0345 -0.0654 0)
(-0.00386 -0.17 8.82e-16)
(0.000955 -0.178 0)
(0.00515 -0.168 -9.9e-17)
(-0.00177 -0.178 1.97e-16)
(-0.0253 -0.0491 -5.2e-16)
(0.0109 -0.0217 -8.79e-16)
(-0.0109 -0.0218 4.43e-16)
(-0.000814 -0.0247 0)
(0.000136 -0.0563 -5.26e-16)
(0.0382 -0.108 0)
(-0.0584 -0.13 1.37e-17)
(-0.00739 -0.16 1.8e-16)
(-0.0213 -0.0367 0)
(0.000752 -0.0301 0)
(0.00175 -0.06 6.52e-17)
(0.0184 -0.0337 -4.34e-16)
(0.0437 -0.127 -1.06e-15)
(-9.49e-05 -0.0594 1.21e-16)
(0.000564 -0.0604 -4.72e-16)
(-0.00277 -0.154 5.27e-16)
(-0.0391 -0.11 0)
(8.74e-05 -0.035 4.22e-16)
(-2.38e-05 -0.0297 0)
(0.0012 -0.0353 0)
(-0.000106 -0.0368 7.99e-16)
(0.0436 -0.119 4.36e-16)
(-0.00289 -0.121 -1.05e-15)
(-0.000844 -0.183 -3.82e-16)
(-0.00084 -0.182 0)
(0.04 -0.0904 2.41e-16)
(-0.00115 -0.18 2.88e-16)
(-0.000577 -0.184 -6.06e-16)
(-0.0323 -0.0844 0)
(-0.00134 -0.177 3.97e-16)
(0.00274 -0.171 4.11e-16)
(-0.0546 -0.121 0)
(-0.012 -0.0334 0)
(-0.0239 -0.0668 0)
(-0.00192 -0.166 -4.93e-16)
(-0.0469 -0.0985 -4.81e-16)
(0.000364 -0.181 7.91e-16)
(-0.00502 -0.17 1.02e-16)
(0.000434 -0.161 -3.2e-16)
(-0.00782 -0.16 4.07e-16)
(0.00112 -0.175 -1.87e-16)
(-0.0792 -0.144 4.03e-16)
(-0.0504 -0.0968 0)
(0.0677 -0.137 0)
(0.000565 -0.178 7.34e-16)
(-0.0141 -0.15 1.05e-16)
(-0.0898 -0.142 -1.6e-16)
(-0.000349 -0.183 1.94e-16)
(0.00182 -0.163 -4.04e-16)
(-0.0439 -0.0876 7.16e-16)
(-0.000493 -0.175 2e-16)
(0.0091 -0.162 -1.85e-16)
(0.00231 -0.161 -4.19e-16)
(-0.000638 -0.121 0)
(-0.00498 -0.144 0)
(0.00409 -0.168 -2.03e-16)
(0.00351 -0.173 2.99e-16)
(-0.0013 -0.181 2.87e-16)
(-0.00117 -0.105 4.26e-16)
(-0.000459 -0.181 2.91e-16)
(0.0755 -0.102 -1.21e-16)
(0.0405 -0.123 2.37e-16)
(-0.0126 -0.0291 -4.4e-16)
(0.012 -0.0277 1.12e-16)
(-0.0138 -0.0314 4.33e-16)
(0.0139 -0.0312 0)
(0.0142 -0.0297 4.42e-16)
(-0.0144 -0.0301 2.21e-16)
(-0.00245 -0.161 -2.01e-16)
(0.0151 -0.0342 0)
(-0.0156 -0.0358 0)
(-3.26e-05 -0.18 -2.9e-16)
(-0.0183 -0.0377 -4.24e-16)
(0.0232 -0.0415 0)
(-0.0234 -0.0424 0)
(-0.00205 -0.176 -3.16e-16)
(-0.0204 -0.0188 0)
(-0.000136 -0.181 9.82e-17)
(0.0124 -0.0301 4.92e-16)
(-0.000583 -0.182 -1.01e-16)
(0.000711 -0.151 -4.3e-16)
(-0.00203 -0.179 1.02e-16)
(0.0587 -0.123 4.37e-16)
(0.0121 -0.158 1.79e-16)
(-0.0566 -0.0501 0)
(0.056 -0.124 0)
(-0.0569 -0.0367 -5.25e-17)
(-0.0875 -0.0873 4.23e-16)
(0.0445 -0.131 -2.17e-16)
(-0.122 -0.133 -2.2e-16)
(0.0562 -0.0341 4e-16)
(-0.0132 -0.155 -1.04e-16)
(-0.0241 -0.0557 -5.52e-16)
(0.024 -0.054 3.95e-16)
(-0.0399 -0.0822 -4.89e-16)
(-0.00144 -0.127 -3.78e-16)
(0.0247 -0.0563 -2.75e-16)
(-0.0251 -0.0569 0)
(0.00508 -0.167 -4.97e-16)
(0.00217 -0.173 2.93e-16)
(-0.00156 -0.162 6.11e-16)
(-0.003 -0.0332 -5.59e-16)
(-0.0311 -0.0672 5.09e-16)
(-0.0358 -0.0694 0)
(0.0222 -0.0524 -3.4e-16)
(0.00476 -0.127 1.88e-16)
(0.0223 -0.129 0)
(0.0142 -0.144 4.32e-16)
(0.0466 -0.114 -2.12e-16)
(-0.127 -0.121 3.72e-16)
(0.0158 -0.0878 2.27e-16)
(0.104 -0.0739 3.82e-18)
(9.6e-05 -0.155 5.5e-16)
(0.0081 -0.115 4.72e-16)
(-0.00161 -0.0513 5.54e-16)
(-0.121 -0.125 -7.35e-16)
(0.00185 -0.0547 -5.05e-16)
(-0.00968 -0.0613 2.62e-16)
(-0.0158 -0.124 3.35e-16)
(-0.0159 -0.132 0)
(-0.012 -0.141 0)
(0.116 -0.0965 0)
(-0.0352 -0.109 7.01e-16)
(0.0128 -0.158 -5.17e-16)
(0.0324 -0.14 -4.26e-16)
(-0.0122 -0.124 -8.76e-16)
(-0.0552 -0.126 1.09e-16)
(-0.00434 -0.148 8.97e-21)
(-0.0442 -0.114 -9.16e-16)
(-0.0501 -0.122 -1.1e-16)
(0.021 -0.15 1.04e-16)
(0.0497 -0.11 -4.84e-16)
(-0.0505 -0.112 -2.42e-16)
(0.0639 -0.136 0)
(-0.0131 -0.151 1.03e-16)
(-0.0588 -0.13 5.65e-17)
(0.000233 -0.0291 -3.7e-20)
(0.0647 -0.134 0)
(-0.0621 -0.129 5.98e-16)
(-0.0565 -0.127 0)
(0.0507 -0.126 -2.26e-16)
(0.0221 -0.0613 6.62e-16)
(-0.00946 -0.14 -4.89e-16)
(0.0125 -0.0344 -4.07e-16)
(0.0504 -0.128 0)
(-0.104 -0.136 0)
(0.00192 -0.176 -1.98e-16)
(0.0786 -0.0854 -1.14e-16)
(0.014 -0.131 0)
(-0.0138 -0.0321 -2.14e-16)
(0.0577 -0.129 -2.2e-16)
(0.0489 -0.108 0)
(-0.0416 -0.136 -4.29e-16)
(0.0344 -0.1 0)
(-0.0227 -0.146 4.34e-16)
(-0.0379 -0.136 -3.37e-16)
(0.00684 -0.151 0)
(0.016 -0.135 2.33e-16)
(0.00102 -0.124 0)
(-0.0972 -0.143 0)
(-0.00672 -0.17 4.19e-16)
(-0.000551 -0.0999 -3.7e-16)
(-0.0856 -0.111 -4.3e-16)
(-0.0706 -0.101 6.12e-16)
(0.00124 -0.0287 0)
(-0.0657 -0.135 1.15e-16)
(-0.0138 -0.129 0)
(-0.0577 -0.126 6.75e-22)
(0.0121 -0.128 1.82e-16)
(-0.0679 -0.141 -4.13e-16)
(-0.00274 -0.104 0)
(-0.00877 -0.102 -7.67e-18)
(0.0544 -0.105 2.19e-16)
(0.000599 -0.171 6.33e-16)
(-0.0877 -0.118 0)
(0.0261 -0.102 4.76e-16)
(-0.0386 -0.0426 2.54e-16)
(-0.0212 -0.152 -1.63e-16)
(0.0227 -0.0596 -3.08e-16)
(-0.00337 -0.176 1.02e-16)
(0.0814 -0.124 -2.3e-20)
(-0.0245 -0.0621 0)
(0.0383 -0.0407 -2.59e-16)
(-0.0173 -0.155 2.16e-16)
(0.0539 -0.12 -6.75e-16)
(0.00125 -0.144 -4.8e-16)
(-0.0021 -0.0302 0)
(-0.0193 -0.0251 0)
(-0.0158 -0.123 2.31e-16)
(-0.000716 -0.16 -4.37e-16)
(0.0564 -0.124 2.13e-16)
(0.0554 -0.129 4.52e-16)
(0.0161 -0.0204 2.15e-16)
(0.0327 -0.0427 1.04e-16)
(0.0758 -0.0869 1.95e-16)
(0.000246 -0.147 0)
(0.00474 -0.172 2.06e-16)
(-0.117 -0.123 -3.23e-16)
(-0.000828 -0.171 -9.93e-16)
(-0.0147 -0.132 1.83e-16)
(0.0424 -0.111 2.37e-16)
(0.000162 -0.147 3.4e-16)
(-0.00265 -0.0664 0)
(-0.0219 -0.138 0)
(-0.0867 -0.133 -2.14e-16)
(0.00282 -0.0669 -1.93e-16)
(-0.111 -0.135 5.15e-17)
(0.0515 -0.124 2.69e-17)
(0.0261 -0.145 5.58e-17)
(-0.016 -0.154 -2.14e-16)
(-0.0236 -0.0554 5.37e-16)
(-0.00298 -0.115 2.4e-16)
(-0.0606 -0.132 2.18e-16)
(-0.00913 -0.125 1.81e-16)
(0.00868 -0.126 0)
(0.063 -0.134 -2.27e-16)
(-0.00848 -0.164 -4.23e-16)
(0.0382 -0.0949 0)
(0.0052 -0.156 6.31e-16)
(-0.106 -0.116 1.24e-16)
(-0.0238 -0.144 0)
(-0.0414 -0.0938 2.56e-16)
(0.0149 -0.148 0)
(-0.0404 -0.0982 4.78e-16)
(-0.0291 -0.142 0)
(0.00229 -0.123 4.34e-16)
(0.0587 -0.102 0)
(0.00256 -0.1 -4.87e-16)
(-0.0431 -0.101 -2.67e-16)
(-0.0508 -0.113 -6.07e-17)
(0.000275 -0.0596 -4.98e-16)
(0.0615 -0.13 2.32e-16)
(0.0427 -0.0992 0)
(0.00148 -0.113 0)
(0.0306 -0.142 4.43e-16)
(0.000748 -0.159 -3.14e-16)
(0.0422 -0.0819 -3.89e-16)
(-0.00212 -0.174 1.03e-16)
(0.0388 -0.0895 0)
(0.0545 -0.12 2.49e-16)
(0.00313 -0.142 -6.04e-16)
(0.000183 -0.116 3.14e-16)
(0.00951 -0.113 -2.47e-16)
(0.0869 -0.117 1.11e-16)
(-0.00737 -0.117 2.5e-16)
(0.0512 -0.0753 0)
(0.067 -0.138 0)
(-0.0039 -0.0601 -4.88e-16)
(0.00102 -0.148 0)
(0.0319 -0.136 5.15e-16)
(-0.0391 -0.0577 -2.71e-16)
(0.00155 -0.0931 0)
(-0.0482 -0.108 -3.1e-16)
(-0.0761 -0.0882 -2.99e-17)
(-0.0176 -0.108 5.11e-16)
(0.019 -0.11 1.37e-19)
(0.0219 -0.139 -2.86e-17)
(0.0405 -0.0592 0)
(0.0444 -0.101 2.66e-16)
(0.0188 -0.119 0)
(-0.00199 -0.15 -2.27e-16)
(0.000566 -0.115 0)
(-0.0771 -0.11 0)
(0.103 -0.121 -1.1e-16)
(0.0449 -0.105 2.46e-16)
(0.105 -0.0973 3.09e-17)
(-0.0651 -0.132 -1.26e-16)
(0.054 -0.124 -2.17e-16)
(-0.0841 -0.119 1.13e-16)
(0.0728 -0.102 -1.25e-16)
(-0.00942 -0.166 -1.05e-16)
(0.0889 -0.141 -2.85e-16)
(-0.0012 -0.173 1.21e-16)
(0.00249 -0.145 1.2e-16)
(-0.0189 -0.148 6.32e-17)
(-0.0221 -0.149 0)
(-0.0498 -0.077 0)
(0.0388 -0.0877 -5.64e-16)
(-0.0308 -0.137 0)
(0.0317 -0.138 -2.35e-16)
(0.00138 -0.138 0)
(0.021 -0.136 2.37e-16)
(-0.0149 -0.155 1.59e-16)
(-0.0323 -0.138 -2.56e-16)
(0.0313 -0.138 -2.56e-16)
(-0.0583 -0.128 2.36e-16)
(-0.088 -0.111 0)
(0.0899 -0.0818 -1.77e-16)
(-0.015 -0.143 -5.02e-16)
(-0.108 -0.119 1.23e-16)
(0.00109 -0.141 0)
(-0.106 -0.124 2.56e-16)
(-0.09 -0.101 0)
)
;

boundaryField
{
    front
    {
        type            empty;
    }
    back
    {
        type            empty;
    }
    bottom
    {
        type            zeroGradient;
    }
    left
    {
        type            noSlip;
    }
    top
    {
        type            uniformFixedValue;
        uniformValue    
        {
            type            table;
            format          csv;
            file            "inlet_v.csv";
            nHeaderLine     1;
            refColumn       0;
            componentColumns List<label> 3(1 2 3);
            separator       ",";
            mergeSeparators 0;
        }
        value           uniform (0 -0.126 0);
    }
    right
    {
        type            noSlip;
    }
    inner_arc
    {
        type            noSlip;
    }
}


// ************************************************************************* //
