/*--------------------------------*- C++ -*----------------------------------*\
  =========                 |
  \\      /  F ield         | OpenFOAM: The Open Source CFD Toolbox
   \\    /   O peration     | Website:  https://openfoam.org
    \\  /    A nd           | Version:  9
     \\/     M anipulation  |
\*---------------------------------------------------------------------------*/
FoamFile
{
    format      ascii;
    class       surfaceScalarField;
    location    "1.48";
    object      phi;
}
// * * * * * * * * * * * * * * * * * * * * * * * * * * * * * * * * * * * * * //

dimensions      [0 3 -1 0 0 0 0];

internalField   nonuniform List<scalar> 
1363
(
-2.36106e-07
-5.71357e-07
8.07463e-07
-2.18725e-07
2.96199e-07
-7.7474e-08
1.0896e-06
-7.39398e-07
-3.50207e-07
2.23521e-08
2.97393e-07
-3.19745e-07
9.42412e-07
1.47192e-07
3.80145e-07
-2.13064e-08
-3.58839e-07
-1.12171e-07
1.12171e-07
2.16962e-07
1.63183e-07
-2.31383e-07
3.03029e-07
-7.16459e-08
1.69376e-08
-2.48321e-07
-3.11471e-07
2.90448e-07
2.10233e-08
5.4528e-07
-6.44181e-07
9.89015e-08
3.75681e-07
-3.53329e-07
-3.80995e-07
3.49905e-07
3.10896e-08
1.8127e-07
3.6401e-07
-2.39957e-07
2.12314e-08
4.59063e-08
-3.25096e-07
2.7919e-07
-4.15789e-07
1.79683e-07
6.16168e-07
1.3751e-07
-7.53679e-07
-1.54694e-07
1.54694e-07
1.53758e-07
-1.07852e-07
-2.21491e-07
-4.22691e-07
1.08216e-06
-3.52636e-07
-7.29521e-07
7.67822e-08
7.27406e-07
-8.04188e-07
-1.6917e-07
-1.42301e-07
5.18427e-07
-4.41645e-07
8.00419e-07
-7.14884e-07
-8.55344e-08
7.06229e-07
3.75928e-07
-7.57353e-07
7.96592e-07
-3.92397e-08
-4.14816e-07
3.23455e-07
9.13618e-08
3.2138e-08
-1.44796e-07
1.12658e-07
2.52577e-08
7.75161e-07
-2.54407e-08
-7.31912e-07
-8.2997e-07
1.26546e-07
7.03424e-07
7.02199e-07
-5.88059e-07
-1.14139e-07
-2.22193e-07
-8.51271e-07
1.07346e-06
-1.37105e-07
-1.0855e-09
1.38191e-07
1.06788e-07
-4.61585e-08
-6.06291e-08
-6.45786e-08
-7.25268e-08
-9.71268e-08
8.24532e-07
7.29912e-07
-7.48346e-07
1.8434e-08
9.71351e-07
-5.17737e-07
-4.53614e-07
-7.96948e-07
6.99821e-07
-6.73497e-08
-4.48211e-08
-8.09701e-10
1.12981e-07
6.20119e-07
7.52724e-08
-6.95391e-07
-6.95912e-07
6.48779e-08
6.31034e-07
-2.16612e-08
-8.08309e-07
-8.37072e-08
8.13619e-07
-1.68198e-07
-2.12797e-07
6.37027e-07
-2.08584e-08
-7.08501e-07
3.55866e-07
-1.22332e-06
1.00113e-06
8.62179e-07
-4.23603e-07
-4.38577e-07
3.24389e-07
-3.07452e-07
1.33607e-07
-3.19644e-07
1.86037e-07
-2.55347e-07
2.55347e-07
-2.61328e-08
3.50522e-07
-2.19383e-07
-3.59645e-08
7.27309e-08
2.52469e-07
-3.252e-07
-2.24726e-09
-4.12569e-07
7.93523e-07
-6.67701e-07
-1.25822e-07
-1.80953e-07
3.07499e-07
-8.14468e-07
2.43111e-07
-7.93284e-08
1.86116e-07
1.74084e-07
-5.02254e-08
-1.23859e-07
7.86388e-08
7.87022e-07
-6.85547e-07
-1.01476e-07
9.92183e-07
-8.58576e-07
5.2432e-07
-2.74214e-07
-2.50107e-07
1.96334e-07
9.98653e-08
-1.3647e-07
1.7884e-07
-4.23695e-08
-2.11541e-07
2.11541e-07
4.54168e-07
-1.30714e-07
7.08425e-07
1.53754e-07
2.84965e-08
-1.8319e-07
1.02155e-07
5.2539e-08
3.44974e-08
-1.72974e-07
2.05112e-07
-1.73319e-07
-6.66379e-08
2.90158e-08
-5.95473e-08
3.05315e-08
3.73631e-07
-2.08913e-07
2.17561e-08
1.87157e-07
7.65543e-10
-1.79063e-08
-3.23191e-08
-9.71945e-07
9.29316e-07
4.2629e-08
-1.05673e-07
1.78404e-07
6.35069e-08
6.94658e-08
-1.32973e-07
8.0566e-08
2.69339e-07
-1.40474e-07
-6.84389e-08
4.15638e-07
5.55713e-07
2.55249e-07
-5.12825e-08
-2.03966e-07
-3.42686e-07
3.16553e-07
-1.40547e-07
-1.79098e-07
-1.50865e-07
3.36902e-07
-2.07399e-07
1.49435e-07
5.79639e-08
2.59243e-07
-7.7698e-07
3.64805e-08
2.70263e-08
-1.80559e-07
2.09575e-07
-8.15757e-08
1.72136e-07
-1.42122e-09
-1.70715e-07
-2.28258e-09
-3.40403e-07
-5.88847e-08
4.5697e-07
-3.70658e-07
2.19793e-07
-4.15878e-07
3.30888e-09
-5.95882e-08
6.79707e-07
1.34387e-08
7.52793e-07
-7.66232e-07
7.39641e-08
7.13058e-07
4.90734e-08
-7.3462e-07
1.02355e-07
8.89827e-07
3.85203e-08
-8.97096e-07
-2.07148e-07
-2.24869e-08
-1.13984e-07
5.99754e-08
2.30473e-07
2.55249e-07
1.07524e-07
-3.22613e-07
2.15089e-07
4.91476e-07
-1.94083e-07
-1.41588e-07
6.00124e-08
1.54624e-07
-6.44585e-07
4.89961e-07
-6.00124e-08
-3.55866e-07
-9.6275e-07
9.08729e-08
8.71877e-07
-7.96948e-07
-1.9031e-07
2.12307e-07
-7.762e-08
-9.53535e-08
-7.08501e-07
6.7438e-07
-6.99821e-07
-6.7438e-07
4.52664e-07
2.21716e-07
-1.22332e-06
-5.57309e-07
6.9482e-07
5.57309e-07
-5.41375e-07
-1.59347e-08
-6.9482e-07
7.59698e-07
-8.82735e-07
8.61074e-07
8.82735e-07
-8.08771e-07
5.41375e-07
-4.66102e-07
1.13245e-06
-1.03009e-06
-7.59698e-07
8.08771e-07
-9.91574e-07
1.03009e-06
9.91574e-07
-1.07528e-06
-8.61074e-07
1.07528e-06
-2.14207e-07
4.66102e-07
-4.52664e-07
-9.96245e-08
1.29224e-07
-2.06844e-07
2.3066e-07
-1.36985e-08
9.26206e-08
1.01764e-07
-3.75978e-07
1.1992e-07
5.89203e-08
-5.97743e-08
5.38369e-07
-4.78595e-07
-3.1442e-07
-6.57526e-07
1.36059e-07
9.46016e-08
2.01627e-07
-5.46282e-07
3.44654e-07
5.10786e-07
-5.62069e-07
-3.49443e-07
3.5662e-07
-7.17713e-09
-6.52286e-07
6.42265e-08
-3.59534e-07
2.94956e-07
-5.73017e-08
3.93953e-08
5.48505e-08
-5.3967e-08
-8.83562e-10
-7.01442e-08
-1.78902e-07
-8.79762e-08
3.06746e-08
-7.70333e-07
4.10798e-07
-3.57615e-07
3.78707e-08
1.17277e-07
-1.72334e-08
-1.00044e-07
3.75841e-07
-1.74214e-07
2.52396e-08
-3.84509e-07
3.59269e-07
6.63777e-08
1.05758e-07
7.0063e-07
-2.43659e-07
5.7402e-08
-1.03587e-07
-9.52506e-08
-8.34767e-08
-7.29226e-08
7.09538e-07
1.37993e-07
7.91323e-07
-6.49563e-07
3.39135e-07
3.10428e-07
2.51755e-09
1.46917e-07
-3.86942e-07
-2.6262e-07
1.03796e-07
-2.44342e-07
-8.38694e-07
4.48651e-07
3.90043e-07
-3.43739e-07
-5.70381e-09
4.29738e-07
3.66855e-07
-6.08598e-08
-4.99559e-07
3.83788e-08
4.66252e-07
-2.24117e-07
-8.00155e-08
3.04132e-07
-7.40013e-07
1.47485e-07
5.92528e-07
6.23345e-07
-9.37765e-07
1.016e-06
-5.67346e-07
9.42948e-07
-7.08923e-07
-2.34025e-07
6.36492e-07
3.79505e-07
7.23106e-07
-1.35683e-08
2.43158e-07
-1.305e-07
-1.70093e-07
-5.6992e-07
4.38805e-07
-6.3124e-08
7.61712e-07
-5.35264e-07
-2.26448e-07
-4.89218e-07
-2.59129e-07
8.9271e-07
-8.9271e-07
-1.41588e-07
3.41488e-07
9.73172e-08
-3.471e-07
1.77008e-07
-2.67694e-07
-2.03211e-07
-2.62575e-07
2.6398e-07
-7.98845e-07
9.4633e-07
9.57626e-08
1.91792e-07
-1.29548e-07
4.71035e-07
-2.80542e-07
4.75154e-07
-1.94612e-07
-9.2032e-07
7.94498e-07
-2.17876e-07
-7.86715e-07
8.26867e-07
-4.0152e-08
-3.32118e-07
9.55464e-07
8.32415e-07
-4.82541e-07
-3.49874e-07
-7.75788e-07
2.40524e-07
-5.13766e-07
-2.62022e-07
-9.59838e-08
9.3729e-07
-8.41306e-07
-2.03202e-07
-5.83513e-07
-4.89407e-07
1.1259e-06
6.15174e-07
-6.87963e-08
-5.46377e-07
-9.63365e-08
9.63365e-08
4.57869e-07
-4.57869e-07
-1.6536e-07
-7.5496e-07
-2.26121e-07
9.58153e-07
-7.32032e-07
2.58076e-07
2.79839e-07
-5.37916e-07
1.62145e-07
3.04106e-07
-9.31195e-07
1.3235e-07
3.53973e-07
-3.53973e-07
1.40825e-07
-1.40825e-07
7.30883e-07
2.79791e-07
-4.09339e-07
5.84329e-07
2.48086e-07
7.11169e-07
5.01235e-07
-7.91235e-07
2.77469e-07
-5.11395e-07
2.30758e-07
4.69871e-07
-5.19406e-07
-6.72423e-07
1.19183e-06
5.96023e-07
-2.85595e-07
-3.69859e-07
7.59901e-07
-4.44324e-07
-4.38747e-07
-4.50448e-07
8.89195e-07
5.75022e-07
2.39212e-07
7.77588e-07
-1.24328e-07
-1.38247e-07
2.10682e-07
-9.19605e-07
-5.09795e-07
8.893e-07
4.02239e-07
-1.16183e-06
2.6164e-07
8.64258e-07
-5.17677e-07
-3.93604e-07
9.11281e-07
2.26164e-07
-6.04261e-07
-2.37045e-07
3.81745e-07
-8.99422e-07
-8.691e-07
-6.4564e-07
9.0728e-07
-4.41555e-07
-8.89284e-09
1.03051e-07
1.04449e-06
-1.14754e-06
3.16454e-08
6.53673e-07
2.35522e-07
8.77453e-07
-2.23779e-07
-9.56499e-07
9.30116e-07
2.63828e-08
-1.05894e-07
-1.43906e-07
9.38404e-07
-7.39404e-07
-3.94579e-07
7.76325e-07
-7.60989e-07
-2.07931e-07
9.6892e-07
-9.23372e-07
6.89346e-07
2.92628e-07
-1.00113e-06
-9.28476e-07
7.72056e-08
-8.415e-07
1.13413e-06
-9.6921e-07
2.0822e-07
7.12807e-07
-4.28915e-07
-2.83892e-07
-6.30525e-07
5.60381e-07
7.42355e-08
8.91964e-07
-9.66199e-07
-1.07623e-06
1.15046e-06
8.3176e-07
7.55207e-08
9.34811e-07
4.58443e-07
2.54364e-07
4.2685e-08
-1.48579e-07
-7.7047e-07
3.75891e-07
-3.1313e-07
6.06665e-07
-2.93535e-07
-6.2966e-07
4.21729e-07
-1.30723e-07
1.55422e-07
-2.46991e-08
6.67985e-07
-6.43678e-07
-2.43072e-08
3.74601e-08
1.80004e-07
-8.23682e-07
-6.08115e-08
6.21192e-07
6.41849e-07
-1.15305e-07
-5.26544e-07
-7.72459e-08
-1.03887e-06
2.66882e-07
7.71987e-07
-8.90748e-07
3.96782e-07
4.93966e-07
1.08048e-07
5.33801e-07
9.08545e-07
2.83284e-07
-9.77597e-07
4.94577e-07
4.8302e-07
-2.11814e-07
2.11814e-07
-1.8319e-07
-2.03966e-07
-4.48211e-08
1.129e-07
-1.129e-07
1.60348e-07
-1.60348e-07
-1.9031e-07
6.56522e-07
-1.05086e-06
3.94335e-07
-2.19327e-08
2.19327e-08
5.49855e-09
-5.49855e-09
-2.19383e-07
-1.58428e-07
1.58428e-07
1.9405e-07
-1.9405e-07
1.02155e-07
8.46703e-08
-8.46703e-08
-8.09701e-10
2.12307e-07
9.10554e-08
-4.83703e-08
3.70789e-07
4.56158e-07
-8.26947e-07
-6.91955e-08
6.91955e-08
6.58018e-07
-9.71147e-07
-1.11624e-06
6.62629e-07
-9.45174e-08
9.45174e-08
-5.7928e-07
1.50365e-07
6.91505e-07
-9.89113e-07
2.97608e-07
-3.26159e-07
-7.85773e-07
1.11193e-06
-6.65164e-07
-3.73706e-07
-9.60727e-07
6.34568e-07
-3.59538e-07
-2.19742e-07
-5.83919e-07
-3.06829e-07
2.75685e-08
7.74276e-08
-1.04996e-07
-1.03155e-07
-1.13245e-06
3.71381e-07
-2.63333e-07
1.11036e-07
-5.79205e-07
4.68169e-07
-5.61959e-07
4.62693e-07
-3.03462e-07
-1.59231e-07
-8.31789e-07
7.70977e-07
3.05787e-07
-8.19314e-07
7.28111e-07
9.12026e-08
-4.59721e-07
-3.17355e-08
8.53716e-07
-8.16256e-07
9.27908e-07
-7.47904e-07
-3.92839e-07
9.56568e-07
-7.19929e-07
-2.36639e-07
-6.79194e-08
1.45347e-07
-6.53292e-07
-3.07435e-07
-8.38107e-07
7.22802e-07
-2.79642e-07
1.87952e-07
-8.92238e-07
7.04286e-07
8.18062e-07
-7.07026e-07
1.00061e-06
-7.33727e-07
4.24506e-07
4.45366e-07
-8.69872e-07
-1.95495e-07
6.2897e-07
-4.33476e-07
-1.1166e-07
1.05455e-06
-6.57766e-07
-4.27419e-07
-2.90031e-07
7.17449e-07
4.17665e-07
-7.39386e-07
3.21721e-07
1.0804e-06
-5.85824e-07
-4.71111e-07
-1.08094e-07
2.4568e-07
1.17424e-06
-5.11609e-07
-7.21753e-07
5.62522e-07
2.19275e-08
-4.83364e-08
1.00067e-06
-1.11233e-06
1.11652e-07
2.08663e-07
3.89384e-07
5.91725e-07
-7.87219e-07
-1.09996e-07
2.80681e-07
7.97752e-07
1.64958e-07
-8.04471e-07
6.39513e-07
-3.33235e-07
1.00491e-06
-6.71677e-07
9.12599e-07
-4.94935e-07
7.57006e-07
-1.21673e-06
2.01552e-07
-3.1488e-07
4.96483e-07
-7.97776e-07
5.78035e-07
-2.31963e-07
-1.69436e-07
6.1228e-07
6.69964e-07
-9.59994e-07
-6.03045e-07
1.04841e-06
-1.07012e-06
3.36389e-07
-1.11416e-06
4.56396e-07
1.18166e-06
-1.80992e-07
9.0202e-07
-6.85651e-07
-4.62587e-07
1.14824e-06
-8.60549e-07
5.76657e-07
-1.19726e-06
-5.42324e-07
-3.27548e-07
-1.15747e-06
5.71648e-07
4.64517e-07
3.92322e-07
-1.1781e-06
-6.17679e-07
-6.80732e-07
-2.35254e-07
5.26133e-07
7.33185e-07
2.73168e-07
-1.00635e-06
5.66429e-07
-4.01472e-07
3.08592e-07
-1.0704e-07
1.01387e-06
5.31303e-07
1.86146e-07
-1.14038e-07
7.63372e-07
-6.49334e-07
-8.42431e-07
9.54082e-07
4.40255e-07
-5.45193e-07
6.91109e-07
-8.94461e-07
8.46124e-07
-2.23947e-07
8.6346e-07
9.69471e-07
-2.13035e-07
9.17321e-07
-7.17455e-07
-1.94126e-07
9.1158e-07
8.24405e-07
-1.21724e-06
7.61762e-07
-9.31198e-07
-5.69247e-07
6.75476e-07
-1.06229e-07
4.12095e-07
-9.3049e-07
-2.82514e-07
6.82067e-07
5.52222e-07
-6.29696e-07
-3.15224e-07
-7.89919e-07
9.98582e-07
-8.74924e-07
8.96852e-07
2.64867e-07
-1.68728e-07
-7.97149e-07
4.94249e-07
3.029e-07
3.15628e-07
1.56151e-07
-6.02317e-07
9.04761e-07
-3.02444e-07
7.91582e-08
-2.3911e-09
-7.90886e-07
7.93277e-07
-1.049e-06
3.68269e-07
9.07616e-07
-3.30959e-07
-3.99681e-07
1.12512e-06
-5.53477e-07
1.25845e-07
-8.32871e-07
-5.92605e-07
-3.38706e-07
1.14407e-06
5.6891e-07
-9.15349e-07
8.05353e-07
-9.33276e-07
5.07446e-07
6.50759e-07
-9.33274e-07
-6.9225e-08
3.68971e-07
5.3579e-07
-4.88611e-07
8.01747e-07
-3.13136e-07
2.51207e-07
6.60374e-07
-7.91055e-07
-4.43264e-07
-2.82516e-07
2.93784e-07
8.62467e-07
-1.17769e-06
1.97754e-07
4.77721e-07
9.3788e-07
-4.52662e-07
-4.84143e-07
9.36805e-07
8.25565e-08
-5.53667e-07
-9.08543e-07
5.14939e-07
7.50315e-07
-8.1954e-07
-5.412e-08
6.06342e-07
3.47838e-07
-7.60248e-07
4.1241e-07
-1.06991e-07
-5.22705e-07
1.19855e-06
4.10938e-07
5.26942e-07
-3.65379e-07
-4.61568e-07
9.05187e-07
3.09273e-07
4.92474e-07
-8.42026e-07
4.76647e-07
-9.1423e-07
-8.45006e-07
5.46181e-07
-1.98343e-07
-6.05949e-07
-7.65848e-07
-3.87288e-07
-8.72839e-07
7.16688e-07
1.46772e-07
-8.58128e-07
5.75611e-07
-4.15002e-07
-4.93541e-07
-2.62621e-08
-2.15443e-07
-6.45903e-07
4.21044e-07
-3.5402e-07
8.68959e-07
2.20955e-07
-1.89309e-07
-4.57775e-07
-3.84251e-07
-6.58417e-07
7.93807e-07
-5.50696e-07
8.45063e-07
-4.57348e-07
-3.13885e-08
3.17341e-07
2.2884e-07
-3.16961e-07
8.33454e-07
6.20919e-07
-3.81773e-07
-2.39146e-07
3.03958e-07
4.18452e-07
-3.1108e-07
9.20313e-07
-6.09233e-07
7.35793e-07
9.68055e-07
-1.90467e-07
-8.22476e-07
6.75574e-07
-1.97852e-07
8.24149e-07
4.60131e-07
5.61406e-07
-4.5066e-07
5.18518e-07
3.50441e-07
-6.45194e-07
-2.7441e-07
-7.80245e-08
-1.11285e-07
3.50431e-07
-1.21591e-07
1.86842e-07
-8.86944e-07
2.4175e-07
2.10796e-07
2.64359e-07
7.86681e-07
-2.1166e-07
9.29871e-07
-3.02615e-07
-9.11848e-07
7.99917e-07
-5.58167e-07
-1.415e-07
-1.64847e-07
7.05944e-07
-5.41097e-07
-9.72897e-07
-5.7331e-08
1.65157e-07
1.62618e-07
-1.01801e-06
-2.87123e-07
3.04853e-08
-6.85602e-07
4.90587e-07
-1.11415e-07
1.79784e-07
1.76807e-07
3.60015e-08
-1.4015e-07
1.66098e-07
1.98191e-07
1.35656e-07
1.34488e-07
3.63182e-07
5.08176e-07
1.55126e-08
3.40712e-08
-4.95838e-08
-8.99627e-07
-2.63102e-07
5.98602e-07
-1.96363e-07
6.43877e-08
1.1931e-07
1.6344e-07
4.04866e-07
-8.25519e-07
-3.69491e-07
1.20472e-07
6.32259e-08
-8.7943e-08
-3.36477e-08
2.94224e-07
9.88991e-08
-6.496e-07
1.48709e-07
5.04855e-09
-9.56958e-07
2.59477e-08
5.61373e-07
-1.63075e-08
3.18201e-08
4.42571e-07
-4.02985e-07
-2.41601e-07
-5.89343e-07
5.56762e-07
2.00044e-07
6.71616e-07
-2.86996e-07
-1.08862e-06
-5.9133e-08
-9.50628e-07
2.06932e-07
2.33427e-07
-6.5703e-07
8.01744e-08
-1.26333e-07
5.54025e-08
1.75333e-07
8.00139e-08
-1.01174e-07
-1.85822e-07
-3.38327e-07
1.7527e-07
-6.16826e-07
-1.23941e-07
-7.23167e-08
2.68651e-07
-5.36999e-07
-6.09776e-07
3.47155e-07
6.51454e-07
1.65288e-07
-1.24489e-07
-4.0799e-08
5.69428e-08
8.3153e-08
-4.8635e-08
-5.71874e-08
-3.65503e-07
-7.34949e-08
5.69428e-08
-3.15552e-07
2.44367e-07
-9.56572e-08
4.37821e-08
-1.42295e-07
3.20925e-07
-1.05836e-07
5.34025e-07
-5.07763e-07
-4.59039e-08
8.5287e-07
-1.14778e-07
-2.84431e-07
2.3048e-07
5.39512e-08
-1.27849e-07
-1.77832e-07
-1.49943e-07
-3.55611e-07
-1.49814e-07
-7.14657e-08
-1.09487e-07
1.13705e-06
3.82645e-07
2.2402e-07
5.16992e-07
-5.91229e-08
9.68084e-08
-4.32611e-07
-1.39404e-07
4.30678e-08
4.32611e-07
1.39404e-07
2.53429e-07
5.16992e-07
1.5591e-07
-7.15233e-07
4.08404e-07
7.17204e-07
-4.69119e-07
4.35799e-07
2.04299e-08
-4.23627e-08
-5.15195e-08
-1.7676e-08
1.34656e-07
-1.80673e-07
-1.34478e-07
-6.94884e-08
2.04299e-08
-9.02188e-08
-2.26808e-08
1.29522e-07
3.0826e-08
4.71723e-08
6.51351e-09
-1.01496e-09
-1.34656e-07
-2.37719e-08
1.80673e-07
-2.22452e-08
1.34478e-07
-4.98074e-08
-4.71723e-08
-3.7498e-08
-6.51351e-09
9.02188e-08
-5.15195e-08
1.29522e-07
-5.63207e-08
-5.52449e-07
1.06403e-07
-3.30987e-07
6.2477e-07
3.50976e-07
-4.65754e-07
1.39415e-07
-1.15824e-07
1.59037e-07
8.79253e-07
-4.82306e-07
3.26629e-07
-4.03031e-07
-1.15824e-07
1.97935e-07
-4.52299e-07
5.3259e-07
-5.48525e-07
6.00575e-07
-1.76817e-07
1.64685e-08
1.76817e-07
-3.55605e-07
3.16842e-07
3.8763e-08
-7.76691e-07
-2.21089e-07
2.62745e-07
-6.12951e-07
2.6835e-07
5.15357e-07
-6.06559e-07
-4.3319e-07
3.26961e-07
-5.6599e-08
1.22431e-07
3.19475e-07
1.61316e-07
-3.41875e-07
4.23946e-07
2.19602e-07
-5.59621e-07
5.59621e-07
-2.96306e-07
-4.68344e-07
-3.61414e-07
3.19475e-07
4.13533e-07
-3.49507e-07
3.84278e-07
-1.57532e-07
-2.26977e-07
1.84651e-07
-3.70797e-07
7.15667e-07
-4.79027e-07
-1.79988e-07
1.79988e-07
4.60233e-08
-1.77785e-07
-6.14137e-08
6.14137e-08
-6.59283e-07
6.59283e-07
-1.78805e-07
7.02277e-09
2.52164e-07
-3.3081e-07
-7.05796e-08
4.01389e-07
5.0977e-07
-5.0977e-07
-5.95473e-08
1.03261e-07
2.56008e-07
-5.3967e-08
-7.16649e-07
1.25822e-07
2.10954e-08
1.03577e-07
-4.71683e-07
-5.57213e-07
-1.25153e-07
-1.56722e-08
-1.01988e-07
-6.87268e-08
9.16046e-09
9.07049e-08
-2.55e-09
1.17105e-08
-9.52123e-07
-4.83581e-09
-1.76055e-07
-1.82783e-07
-4.79152e-07
1.48165e-07
1.75333e-07
2.21754e-08
1.64982e-07
5.85122e-08
-1.30779e-07
1.6223e-07
-1.6223e-07
-6.17615e-08
4.8349e-07
-4.7252e-07
3.05315e-08
-9.96048e-08
9.96048e-08
-8.0493e-07
-3.87409e-07
7.94452e-08
-5.34975e-08
-2.32213e-07
-2.45537e-07
3.90179e-07
-1.44642e-07
-5.07828e-07
1.24583e-07
3.83245e-07
-8.83562e-10
1.42264e-07
3.86855e-07
-3.0741e-07
-3.63352e-07
-2.72925e-08
2.72925e-08
2.33039e-07
4.02747e-07
-2.98951e-07
2.34844e-07
-1.08244e-08
-1.23756e-08
1.94903e-07
4.1144e-08
-2.74789e-07
2.82725e-07
-5.28262e-07
-3.26085e-07
-6.72012e-07
6.58444e-07
6.82105e-08
-2.18024e-07
-8.2261e-08
2.86584e-07
-1.93366e-07
2.48768e-07
1.25153e-07
1.25428e-07
3.49701e-08
-2.96084e-07
9.29028e-08
3.25248e-08
5.19321e-07
-8.15404e-07
2.73028e-07
1.07748e-07
-2.45492e-08
5.31164e-07
2.63343e-08
3.05199e-07
-1.02432e-08
-5.09078e-07
1.47813e-07
-3.69245e-08
3.27833e-07
-1.50826e-07
-1.13658e-08
5.06827e-07
-5.38215e-07
3.6593e-07
-2.50329e-08
1.23429e-07
2.04232e-08
5.4559e-07
9.00862e-08
-3.01487e-07
1.07403e-07
1.55652e-07
-5.45392e-07
4.04606e-07
3.66675e-07
-2.1851e-07
3.16868e-07
-1.19857e-07
1.0437e-07
8.1404e-08
-2.31726e-07
-8.41174e-07
1.27938e-07
-2.82889e-07
5.10503e-08
4.98508e-08
2.33087e-07
4.89933e-08
-9.22108e-08
1.31182e-07
3.31363e-08
2.15632e-07
-2.64089e-08
2.54011e-07
)
;

boundaryField
{
    back
    {
        type            empty;
        value           nonuniform List<scalar> 0();
    }
    front
    {
        type            empty;
        value           nonuniform List<scalar> 0();
    }
    top
    {
        type            calculated;
        value           nonuniform List<scalar> 10(-3.27775e-07 -3.5659e-07 -2.70144e-07 -1.83698e-07 -1.83698e-07 -2.70144e-07 -3.27775e-07 -6.84365e-08 -6.84365e-08 -3.5659e-07);
    }
    outer_arc
    {
        type            calculated;
        value           uniform 0;
    }
    bottom
    {
        type            calculated;
        value           nonuniform List<scalar> 10(1.03023e-06 6.55116e-07 1.04149e-07 -3.64289e-07 -8.71358e-07 1.16273e-06 -5.68306e-07 1.19501e-06 -9.11447e-07 9.81454e-07);
    }
    inner_arc
    {
        type            calculated;
        value           uniform 0;
    }
}


// ************************************************************************* //
