/*--------------------------------*- C++ -*----------------------------------*\
  =========                 |
  \\      /  F ield         | OpenFOAM: The Open Source CFD Toolbox
   \\    /   O peration     | Website:  https://openfoam.org
    \\  /    A nd           | Version:  9
     \\/     M anipulation  |
\*---------------------------------------------------------------------------*/
FoamFile
{
    format      ascii;
    class       surfaceScalarField;
    location    "1.48";
    object      phi;
}
// * * * * * * * * * * * * * * * * * * * * * * * * * * * * * * * * * * * * * //

dimensions      [0 3 -1 0 0 0 0];

internalField   nonuniform List<scalar> 
2420
(
2.30836e-07
-2.27298e-07
-3.53761e-09
2.94733e-08
-2.94733e-08
7.45856e-07
-6.72415e-08
-6.78615e-07
1.29166e-07
-1.29166e-07
-5.96117e-07
2.10341e-07
3.85776e-07
1.82353e-07
-2.06289e-07
2.39363e-08
6.37358e-07
1.08499e-07
-9.50241e-07
8.57953e-08
8.64445e-07
1.59498e-06
-1.85452e-06
2.59547e-07
-4.7143e-07
-1.24687e-07
-3.24684e-07
9.03529e-08
2.34331e-07
-1.93366e-07
-1.31317e-07
-9.50241e-07
-9.53417e-08
1.25414e-07
-3.00724e-08
1.04574e-08
1.18904e-06
-1.19949e-06
6.15234e-07
-1.76747e-06
1.15224e-06
2.13977e-06
-6.38985e-07
-1.50078e-06
3.82351e-07
-7.21159e-07
3.38808e-07
-1.38985e-07
1.25694e-07
1.32907e-08
5.84318e-08
-1.53774e-07
-8.44895e-07
-5.53909e-08
9.00286e-07
-4.53915e-08
-5.65823e-07
7.75915e-07
-2.10092e-07
-7.34768e-07
1.68945e-07
1.27177e-07
1.03659e-07
1.08747e-06
1.0523e-06
-6.63826e-07
1.27906e-06
-6.07716e-07
-1.08072e-06
1.68843e-06
-1.39717e-06
7.89455e-07
2.4061e-07
7.38389e-08
-3.14449e-07
-1.19538e-06
-3.17199e-07
1.51258e-06
2.37041e-07
-6.20554e-08
-1.74985e-07
-3.47919e-07
3.70658e-07
-2.27385e-08
-7.91967e-07
6.50358e-07
1.41609e-07
-2.19079e-07
6.0143e-07
-4.87574e-07
-3.04392e-07
5.45544e-08
1.27798e-07
4.67642e-08
-1.7291e-08
-3.69586e-08
-3.10961e-07
8.16255e-09
-3.76358e-08
-6.53462e-07
-1.91433e-07
6.82742e-07
5.66653e-08
-7.39408e-07
2.47946e-07
-2.84905e-07
-1.29453e-07
1.15865e-07
1.35879e-08
6.02582e-08
1.30423e-07
-1.90681e-07
2.80859e-08
1.01081e-07
-1.41016e-07
1.18496e-08
2.83176e-08
3.19406e-08
-2.02743e-07
3.52891e-07
-1.50147e-07
-9.64585e-08
3.44405e-07
-1.08733e-07
-9.75562e-08
1.69799e-07
2.98512e-07
-2.88055e-07
-1.15275e-06
-7.01771e-07
1.00808e-06
-1.55689e-07
-8.52395e-07
1.64629e-07
4.95742e-07
-6.60371e-07
4.24299e-07
-1.28165e-07
-2.96134e-07
7.24401e-08
1.79128e-08
-1.31415e-07
1.71638e-07
-4.02236e-08
-2.53039e-07
4.17668e-07
1.57941e-07
-1.35332e-06
1.09385e-07
-1.25337e-07
1.59516e-08
-1.5645e-07
-7.08483e-08
-1.07101e-06
1.15681e-06
-2.34234e-07
1.33273e-07
1.00961e-07
-8.49549e-07
5.3235e-07
1.2227e-07
-1.81756e-07
5.94857e-08
-7.32815e-08
1.0863e-07
-3.53485e-08
6.17928e-07
-8.37007e-07
-5.20257e-08
-8.41412e-10
-2.12191e-07
-3.33203e-07
-3.01992e-08
3.63402e-07
2.89668e-07
8.99368e-07
6.99054e-07
2.6166e-07
-9.60713e-07
1.70225e-08
-8.45184e-08
6.74959e-08
-1.32903e-06
-6.81452e-08
-4.8393e-07
1.10186e-06
-2.29163e-07
-7.2322e-08
3.12932e-07
-1.08585e-07
-1.25649e-07
-2.3781e-08
4.08035e-08
9.49042e-07
5.90418e-08
-8.49831e-08
-4.44702e-08
-5.09489e-08
1.02521e-07
-5.15724e-08
9.49587e-07
-1.22449e-06
2.749e-07
1.02471e-06
-3.25651e-07
-2.82994e-08
-3.04904e-07
3.5547e-07
-1.09479e-07
-2.45991e-07
-6.5891e-07
-2.95312e-07
9.54223e-07
-9.47776e-07
2.88866e-07
-3.15366e-07
-3.63249e-07
-6.71765e-08
-7.1808e-08
4.78766e-08
-2.5062e-07
2.82458e-09
2.72639e-07
-2.75463e-07
6.22186e-08
6.34753e-08
1.22989e-07
-7.19076e-10
-1.48834e-07
1.74195e-08
-1.32206e-07
7.0151e-08
-3.39621e-07
2.29167e-07
1.10454e-07
2.54042e-07
-5.69408e-07
2.96187e-08
-1.94459e-08
-1.01729e-08
1.94186e-07
1.58705e-07
4.13873e-08
-1.17686e-08
-1.33706e-07
-2.10439e-07
3.44145e-07
4.66772e-08
6.27083e-08
-1.30188e-06
3.20201e-07
9.81675e-07
2.1055e-07
-1.36711e-07
-1.6279e-07
-1.76831e-07
8.93002e-07
-3.9726e-07
-2.689e-08
-2.44962e-07
2.71852e-07
-3.51924e-08
-1.58174e-07
8.27999e-07
6.50027e-08
-2.90885e-08
-2.18604e-08
1.2463e-06
-2.17569e-07
-1.02873e-06
1.81105e-09
-1.06338e-06
-2.38499e-07
1.99724e-07
1.7739e-07
1.7808e-07
9.55139e-08
-2.2922e-07
1.89267e-07
6.38732e-07
5.28496e-08
-1.14402e-06
1.09117e-06
3.39214e-08
-1.27875e-06
1.24483e-06
-8.13287e-08
-5.49576e-07
6.30904e-07
5.89018e-08
6.4087e-08
-1.06502e-06
2.64914e-07
8.00109e-07
-3.2376e-07
2.27301e-07
-1.36232e-07
1.39056e-07
-1.36393e-06
-4.03538e-07
8.77539e-08
-2.39592e-07
1.51838e-07
4.15819e-07
-1.76194e-07
-2.39624e-07
-2.57738e-07
2.30848e-07
-1.3409e-06
2.69889e-07
-6.63118e-07
-4.01904e-07
-3.1157e-07
3.1157e-07
-2.8575e-07
1.03222e-07
1.82528e-07
-4.42526e-07
-1.99251e-07
6.41777e-07
2.98512e-07
-1.28165e-07
-1.48226e-07
-3.35292e-08
-2.53039e-07
-9.5996e-07
2.96134e-07
9.5996e-07
-1.0669e-06
1.06943e-07
1.49455e-07
7.2706e-07
-8.76515e-07
-2.55276e-07
1.50078e-06
-1.24551e-06
-7.2706e-07
7.7991e-07
-2.45104e-07
8.76515e-07
-6.31411e-07
6.06935e-07
-4.17668e-07
-2.44764e-08
-6.06935e-07
6.31411e-07
-1.23343e-06
1.37446e-06
-1.41029e-07
1.23343e-06
-1.07549e-06
-1.37446e-06
1.24551e-06
1.28952e-07
-7.7991e-07
1.04157e-06
-1.04157e-06
1.07549e-06
-9.64226e-07
-2.6026e-07
-1.00894e-07
-2.22866e-07
2.14803e-08
1.11792e-07
-7.51402e-07
1.15259e-06
-4.01183e-07
1.82925e-07
-6.71978e-08
-9.96507e-07
-3.11969e-07
-5.04385e-07
8.16354e-07
-1.54934e-06
3.96593e-07
7.35318e-07
4.17267e-07
8.84773e-07
-4.47932e-08
-1.04041e-07
-1.78249e-06
8.54419e-07
-1.07199e-06
3.9456e-08
8.79199e-07
-1.36313e-06
9.54135e-07
-1.59312e-06
-1.07025e-06
-1.6844e-07
1.23869e-06
-7.49512e-07
7.25036e-07
-1.41629e-06
2.97246e-07
1.11905e-06
-1.09609e-06
1.14563e-07
3.01256e-07
-6.74013e-07
1.55321e-06
2.89043e-07
-1.91432e-07
-9.76111e-08
1.11463e-07
-5.30316e-08
-9.55683e-07
-1.11766e-06
4.74057e-08
2.32227e-08
-1.31956e-07
-4.13864e-07
3.32535e-07
-3.5524e-08
-1.08169e-07
1.43693e-07
-1.89884e-07
6.29832e-07
-4.39948e-07
3.81263e-08
-6.19072e-08
9.91589e-08
2.24019e-07
-2.1218e-08
-2.02801e-07
-1.06596e-06
-5.16942e-08
9.66483e-08
3.37749e-08
-6.97012e-08
-5.56358e-08
2.03885e-07
-4.19418e-07
2.15533e-07
-1.84239e-07
3.54038e-07
-4.35185e-07
8.79305e-07
-4.4412e-07
-1.0102e-07
4.27904e-07
1.94647e-07
-5.13968e-08
-5.80827e-08
-9.80286e-07
-8.56773e-08
3.70888e-08
-2.26989e-07
1.899e-07
-1.99105e-08
5.69994e-08
-8.46491e-07
-1.19023e-08
8.58394e-07
1.29317e-06
-1.34856e-06
-4.08863e-07
2.51103e-07
1.57759e-07
-1.09905e-07
-3.09513e-07
-1.51403e-07
2.39156e-07
7.80818e-07
-1.3046e-07
2.18418e-07
-5.70993e-07
3.52574e-07
6.75958e-08
-2.51835e-07
-2.77587e-07
1.11933e-06
1.60333e-07
-4.88699e-08
9.40638e-08
-2.4229e-07
2.5925e-07
-7.46824e-07
-6.26107e-07
3.14137e-07
3.50779e-07
2.01153e-07
-5.51932e-07
7.8965e-08
-1.05925e-06
6.64439e-08
8.71986e-07
2.50818e-07
1.1984e-07
-1.17385e-06
1.09822e-06
7.56229e-08
-1.58045e-07
-1.47054e-07
-7.66951e-07
9.14005e-07
-1.16358e-06
1.01653e-06
-5.57626e-07
-5.49564e-07
3.68028e-07
1.81537e-07
-4.13062e-07
-1.36502e-07
-6.76904e-07
4.79218e-07
1.97687e-07
-5.91668e-07
4.82247e-07
1.09421e-07
-5.74944e-07
-1.67242e-08
4.67715e-07
6.34143e-07
4.74497e-07
-2.23393e-07
-4.36693e-07
-2.40212e-07
1.12354e-07
3.59121e-07
-4.69026e-07
-6.66047e-07
-4.97535e-07
-6.69023e-07
6.79946e-07
-1.09231e-08
-6.80784e-07
-3.032e-08
-5.20396e-09
1.34973e-07
-8.03996e-07
-1.67108e-08
3.28281e-07
-9.7813e-07
-1.95715e-07
-2.96221e-07
-8.68249e-09
1.53686e-06
-6.85504e-07
-8.51357e-07
-1.1236e-06
-4.2574e-07
-1.11017e-06
1.17719e-06
7.8358e-08
3.75075e-08
-8.80388e-08
-1.94327e-07
2.82366e-07
2.86014e-07
2.11611e-07
2.62885e-07
-2.20214e-07
3.55592e-07
1.31003e-08
-3.68692e-07
-1.16109e-06
1.8296e-07
-1.68891e-06
1.01489e-06
4.03791e-07
-2.83951e-07
4.68066e-07
-1.10644e-06
6.3837e-07
8.12632e-08
-2.72695e-07
2.35371e-08
9.9299e-07
-5.06813e-08
1.06003e-07
-1.94042e-07
1.13765e-06
-1.06034e-06
-7.73132e-08
3.18321e-07
8.54696e-08
8.16361e-08
-1.8253e-07
2.09663e-07
-3.67708e-07
2.38135e-07
9.24989e-08
-3.30634e-07
-2.88055e-07
7.58783e-07
-2.91068e-07
6.63282e-08
7.58071e-07
-6.76808e-07
1.37685e-06
-7.42712e-07
3.06524e-07
4.52259e-07
1.02249e-06
5.14376e-07
-3.00039e-07
-8.61052e-07
-3.05015e-07
4.78129e-07
-1.73114e-07
1.33648e-06
-5.0677e-07
-8.29715e-07
-1.22889e-07
8.5225e-07
-7.29361e-07
1.06014e-06
-1.07601e-06
1.58668e-08
-7.70432e-07
1.07696e-06
1.54004e-07
1.44508e-07
8.64846e-07
-7.10841e-07
2.03693e-08
4.3189e-07
8.15038e-07
-5.99505e-07
3.7542e-07
-1.83618e-07
-1.91802e-07
4.76081e-07
3.10362e-07
-2.89144e-07
-2.00115e-07
-2.45116e-08
4.04766e-07
-3.80254e-07
1.13062e-06
-1.29906e-06
-4.53862e-07
8.12983e-07
6.70757e-07
-4.66068e-07
-2.04689e-07
8.64445e-07
-1.83904e-07
3.28281e-07
2.96847e-07
-4.80755e-08
-2.48772e-07
-1.59192e-07
4.40535e-07
-2.81342e-07
3.85504e-09
4.40215e-08
3.85504e-09
-2.57492e-07
9.47163e-07
-6.89672e-07
1.19809e-06
-1.17455e-06
-1.36652e-07
5.8035e-07
-4.43698e-07
-3.18123e-07
-7.92043e-07
7.92436e-07
-4.98687e-07
-2.93749e-07
3.43395e-07
8.54695e-07
-7.34401e-07
7.17919e-08
6.62609e-07
-1.43231e-06
1.17704e-06
-7.44936e-07
1.213e-06
1.08916e-07
3.38574e-07
8.99655e-07
1.2e-06
-8.56602e-07
-9.62603e-08
4.51852e-07
-3.63549e-07
3.39038e-07
2.16228e-07
4.13265e-07
3.03882e-07
1.185e-07
-1.01081e-07
1.185e-07
-1.95699e-10
-3.96006e-07
4.09106e-07
6.04185e-07
-3.53182e-07
-2.51002e-07
-3.33986e-07
5.45597e-07
2.13478e-07
2.67909e-07
-2.67909e-07
5.0697e-07
-1.29901e-06
-3.46554e-08
-4.64031e-07
8.77884e-07
-1.37542e-06
2.61656e-07
3.42529e-07
4.90235e-07
-2.76001e-07
1.26899e-06
-5.03682e-07
-3.77603e-07
-4.01066e-07
-7.86876e-07
1.18794e-06
6.06422e-07
-5.68428e-07
1.55365e-07
1.44508e-07
5.46098e-07
1.14282e-07
8.15471e-09
2.13885e-07
-8.90692e-07
6.10202e-07
-6.10202e-07
2.95357e-07
-3.07259e-07
-8.61805e-08
-2.02498e-07
5.0638e-07
1.11075e-06
-1.36526e-06
2.54508e-07
4.91635e-07
7.08362e-07
-1.06288e-06
5.36035e-07
7.32957e-07
-4.30124e-07
1.00295e-06
-5.7283e-07
7.57847e-07
-1.5819e-08
-7.42028e-07
-1.08531e-07
1.42095e-07
-3.26082e-07
1.43683e-06
7.4922e-07
-1.42728e-06
6.78062e-07
-2.75925e-07
2.75925e-07
-7.89314e-07
-4.8319e-07
4.8319e-07
-8.45773e-07
8.48336e-07
-3.86993e-07
-4.61342e-07
1.07889e-07
-1.07889e-07
-4.25891e-07
-2.06273e-07
2.06273e-07
8.71673e-07
-1.39073e-06
5.19057e-07
3.6627e-07
-3.6627e-07
-7.23873e-07
9.01264e-07
-3.36252e-07
-5.65012e-07
8.80833e-07
7.42273e-07
-2.63056e-07
-1.48872e-07
6.05802e-07
-4.08115e-07
1.36944e-06
-6.20221e-07
8.79896e-07
-9.5721e-07
-8.86106e-07
-5.41176e-07
-7.24262e-07
8.38544e-07
-2.34638e-07
1.36331e-06
7.02914e-07
3.42555e-07
-2.96669e-07
1.0499e-06
1.6828e-07
1.27077e-07
3.62871e-07
5.38393e-07
-1.1603e-06
-1.38757e-07
6.12145e-07
5.75796e-07
1.17828e-06
1.8503e-07
1.08957e-06
-3.81205e-07
-1.44969e-06
-5.46921e-07
-3.49961e-07
8.96882e-07
3.70257e-07
-5.01576e-07
1.3132e-07
7.23483e-07
6.45957e-07
-9.9315e-07
-8.28565e-08
2.56895e-07
2.06377e-07
-4.63272e-07
5.64576e-07
-3.01691e-07
-1.212e-06
7.9021e-08
8.9259e-08
4.67642e-08
4.24019e-07
-7.60271e-07
-2.16109e-07
2.16109e-07
-1.33913e-06
7.94448e-07
5.44677e-07
-1.45487e-06
5.68762e-07
6.80914e-07
2.87362e-07
2.77214e-07
-1.26125e-06
4.3584e-07
8.25405e-07
-3.48102e-08
-6.26772e-07
5.18285e-08
-1.05886e-06
-3.96009e-07
-5.23787e-08
1.23066e-06
3.08224e-07
-8.55145e-07
-6.15642e-07
-1.17046e-07
4.01001e-07
-2.83955e-07
1.03719e-06
1.55468e-07
-1.3192e-06
1.16373e-06
2.80877e-07
7.03869e-07
-9.84745e-07
5.31738e-08
1.3451e-06
-8.68448e-07
-4.63449e-07
8.9286e-07
-4.29411e-07
-6.11908e-07
-1.44043e-08
-1.03557e-07
1.17961e-07
1.38613e-06
2.36119e-07
2.80922e-08
-2.64211e-07
-4.66798e-07
-4.81269e-07
-7.81071e-07
1.26234e-06
2.60246e-07
5.88089e-07
6.05634e-07
2.52759e-07
-1.04677e-07
1.04677e-07
-8.19143e-07
1.25498e-06
1.20224e-06
-6.82106e-07
-5.20135e-07
1.11876e-07
-3.28549e-08
9.50294e-07
8.68948e-08
-8.16963e-07
1.38573e-06
-1.30041e-06
-7.81794e-07
4.06831e-07
3.74963e-07
3.27732e-07
-4.12179e-07
-3.69615e-07
-6.72506e-08
-8.16577e-07
3.53127e-07
8.42776e-08
1.01798e-06
-1.10226e-06
4.36136e-07
3.01041e-07
-7.37177e-07
-7.0362e-07
1.38168e-06
-3.80441e-07
-4.91876e-07
-7.6604e-07
1.25792e-06
9.58191e-07
-3.89819e-07
-5.68372e-07
-1.27756e-06
4.60597e-07
4.8068e-07
-1.3145e-07
-7.16264e-07
1.28972e-06
-5.7346e-07
7.10365e-07
-9.57314e-07
1.04159e-06
-4.63583e-07
7.71807e-07
-1.92092e-07
-3.27266e-07
1.09881e-06
-7.91118e-07
-3.07687e-07
6.19784e-07
6.6994e-07
1.22533e-06
-6.05544e-07
5.47147e-07
1.95126e-07
3.18253e-07
1.04189e-06
1.37475e-08
-1.05564e-06
5.24849e-07
7.00479e-07
1.11579e-06
-5.90942e-07
-4.17338e-07
-7.78152e-07
1.19549e-06
2.21897e-07
7.2036e-07
-9.42258e-07
-3.7233e-08
1.33842e-07
-9.66089e-08
3.76641e-07
-2.84822e-07
-4.75449e-07
3.33875e-07
7.64931e-07
-2.41992e-07
5.43033e-07
-4.7957e-07
-6.92904e-07
1.17247e-06
-1.4079e-07
7.36982e-08
1.07733e-07
-1.81431e-07
-3.07405e-07
-1.55867e-07
-2.61011e-07
-9.38259e-07
1.19927e-06
3.62313e-08
1.00566e-06
-4.93488e-07
2.0824e-07
2.85247e-07
1.15928e-06
3.49191e-07
-1.02739e-06
6.78198e-07
-1.14938e-07
9.24304e-07
-8.09366e-07
-1.26064e-06
-8.27366e-07
3.56997e-07
4.70369e-07
2.0754e-07
8.45003e-07
-7.1003e-07
1.05922e-06
-8.68465e-07
-2.11455e-08
8.8961e-07
4.22887e-07
-7.36022e-09
-1.00234e-06
1.0097e-06
-6.09889e-07
2.75651e-07
3.34238e-07
8.75825e-07
2.64515e-08
-9.02276e-07
1.92522e-07
-4.34514e-07
-1.07225e-06
-2.3246e-07
3.40193e-07
2.48641e-07
6.65523e-07
-9.14164e-07
8.49279e-07
7.50246e-08
-4.42635e-07
-5.36889e-07
9.79523e-07
3.94322e-07
1.10913e-08
-2.88092e-07
-7.39297e-07
9.88594e-07
5.29969e-08
2.25175e-07
9.49933e-07
-1.17511e-06
-5.93405e-07
-2.33961e-07
7.58713e-07
-2.26363e-07
-8.04068e-08
7.74542e-07
-6.94135e-07
6.69716e-08
7.86383e-07
-8.53355e-07
5.41614e-07
-1.14716e-06
1.65308e-07
-1.04967e-06
2.35159e-07
8.14511e-07
-6.70931e-07
6.97383e-07
1.09062e-06
-8.65442e-07
7.9212e-07
-1.95819e-07
-5.96302e-07
-6.90274e-07
6.69129e-07
-1.99403e-07
-2.94085e-07
-7.13818e-08
7.13818e-08
-1.56492e-07
1.56492e-07
1.15944e-07
-1.15944e-07
-3.76358e-08
4.40215e-08
1.04968e-07
-1.04968e-07
-1.71046e-07
1.71046e-07
1.6759e-07
-1.6759e-07
1.41847e-07
-1.4646e-07
1.4646e-07
-1.41016e-07
-9.04206e-08
9.04206e-08
6.87846e-08
-6.87846e-08
-9.47076e-08
9.47076e-08
-1.9961e-07
1.9961e-07
-7.26624e-07
1.07456e-06
-3.47936e-07
-2.16763e-07
2.16763e-07
1.22248e-07
-1.22248e-07
-1.73948e-07
9.32128e-07
-7.5818e-07
7.13355e-07
-6.38331e-07
9.16669e-07
-2.52892e-07
1.02754e-06
-6.33222e-07
6.51547e-07
-9.39639e-07
3.10572e-07
-3.76576e-08
2.31583e-07
5.04084e-07
-7.35667e-07
-8.27773e-07
-2.58197e-07
6.10771e-07
3.055e-07
4.98183e-07
-8.03683e-07
-3.34082e-07
1.07719e-07
-9.87541e-07
-1.14715e-07
-1.71535e-07
-2.62979e-07
5.71906e-07
-1.00999e-06
4.19053e-07
-4.0252e-07
-3.34657e-07
-9.2494e-07
4.82305e-07
5.59666e-07
-8.17863e-07
-1.14312e-06
1.55583e-07
1.22762e-07
-7.67708e-08
4.39159e-08
-3.16063e-07
8.21014e-08
1.3159e-06
4.24241e-08
7.10829e-09
6.08231e-07
-1.92236e-07
8.8313e-07
-2.49428e-08
6.94072e-07
-3.5084e-07
1.79305e-07
-9.05601e-07
9.72573e-07
-1.0068e-06
2.19286e-07
7.8751e-07
1.04487e-06
-8.95564e-07
-1.49304e-07
3.00919e-07
-9.14712e-07
9.04055e-07
1.06568e-08
-9.23221e-07
8.42814e-07
-9.33164e-07
7.90998e-07
1.42166e-07
1.11843e-06
-8.83272e-07
-2.08343e-07
-4.68381e-07
-9.45905e-07
7.50086e-07
-6.65499e-07
-9.63596e-07
7.17639e-07
2.45957e-07
1.11029e-07
2.27294e-07
-1.09274e-06
-9.20286e-07
1.62106e-07
-1.0669e-06
-9.8398e-07
2.9206e-07
6.9192e-07
-2.83503e-07
3.06107e-08
-7.1694e-07
7.86096e-08
3.31507e-07
-2.42917e-07
-2.01401e-07
1.39266e-07
-1.96535e-07
-5.63168e-08
2.52852e-07
-2.39811e-07
2.22868e-07
-1.62753e-07
6.66838e-07
5.78614e-08
-1.91666e-08
-9.03493e-08
-1.58263e-07
-8.48533e-07
8.59839e-07
3.95144e-07
1.06942e-06
-8.5013e-07
-1.54907e-07
-4.13107e-07
-6.01467e-09
4.19122e-07
-5.94178e-07
-2.13509e-07
-4.14382e-07
4.56806e-07
3.75996e-07
-4.2079e-07
-6.92992e-07
-1.93191e-07
5.0978e-07
-6.53879e-07
1.441e-07
3.49149e-07
-7.55734e-07
4.54606e-07
6.71886e-07
-7.14543e-07
2.5096e-07
8.02574e-07
2.71986e-07
-4.3805e-07
-3.15631e-07
-7.52359e-07
1.06799e-06
1.52184e-06
-5.677e-07
-2.66341e-07
-5.28693e-07
9.51579e-07
-9.30505e-07
1.15337e-06
2.90163e-07
9.03931e-07
-1.19409e-06
8.47554e-07
5.06964e-07
-8.34514e-07
3.27551e-07
2.71177e-07
-1.20168e-06
-8.9416e-07
5.59503e-07
-9.84733e-07
1.04259e-06
1.14358e-07
-3.15759e-07
8.51726e-07
-2.17874e-07
-7.21765e-07
1.19135e-06
-3.7096e-07
-2.94538e-07
3.81144e-07
-3.21658e-07
7.77076e-08
8.07883e-07
8.81811e-07
-1.03672e-06
-9.99077e-08
5.62754e-07
-4.62847e-07
-9.5831e-07
4.7486e-07
4.8345e-07
-5.77418e-07
-1.58249e-07
7.15391e-07
-8.73654e-07
-9.83618e-07
5.54208e-07
4.93081e-07
-3.13407e-07
-1.79674e-07
-2.81237e-07
3.45324e-07
-9.40566e-07
5.60125e-07
-3.36973e-07
-5.57188e-07
9.80608e-07
-1.93098e-07
3.08074e-07
1.05493e-06
-2.58842e-07
-7.96085e-07
-1.65924e-07
-3.43082e-07
6.94893e-07
-1.00639e-06
6.69418e-07
-3.1447e-07
-7.95292e-07
-4.66649e-07
8.82163e-07
-4.15514e-07
-1.06683e-06
-6.14054e-07
8.8604e-07
-3.81063e-07
1.9383e-07
-1.93048e-07
-4.60831e-07
-8.93607e-07
-7.91649e-07
2.62956e-07
-8.81691e-07
4.27372e-07
4.54319e-07
-9.56873e-07
4.3072e-07
5.26152e-07
4.04505e-07
-9.60182e-07
1.09945e-06
-1.02738e-06
6.46314e-07
-6.637e-07
-1.13865e-07
5.75485e-08
1.67674e-07
9.02621e-07
-1.0703e-06
5.28503e-07
-5.92226e-07
-3.27883e-07
4.49658e-07
-1.21775e-07
-5.82681e-07
-4.41997e-07
1.02468e-06
1.24015e-06
8.98098e-07
6.23737e-07
7.93498e-07
-1.05984e-06
3.57959e-07
6.86264e-07
-2.36544e-08
3.46539e-07
7.84729e-08
-1.07162e-06
-1.21741e-07
1.85237e-07
-6.34958e-08
-4.23493e-07
8.40855e-07
-3.01006e-07
-5.39849e-07
-4.90637e-07
-9.86366e-07
4.18666e-07
-3.26879e-07
6.76122e-07
-3.49242e-07
-4.7763e-07
-2.73331e-07
-3.59562e-07
-3.85902e-07
7.45464e-07
-5.49652e-07
-3.75288e-07
8.37713e-07
-1.22322e-07
3.95608e-07
6.63614e-07
1.50676e-07
-6.13523e-07
3.20435e-07
-4.343e-07
-4.09042e-07
-3.18357e-07
-5.16157e-07
1.9073e-07
-3.12471e-07
1.01501e-06
-4.60802e-07
8.61311e-08
2.59192e-07
6.44616e-07
5.3738e-07
4.24421e-08
1.43101e-07
-1.85543e-07
-4.82748e-07
1.38085e-06
-3.64341e-07
-6.22024e-07
1.98462e-07
2.94619e-07
-4.65567e-07
-2.86993e-07
7.5256e-07
-1.04348e-06
-5.60163e-07
-8.2621e-07
-1.64162e-07
-2.42786e-07
4.06948e-07
-5.29501e-07
-3.58071e-07
5.56533e-07
6.81614e-07
-2.53904e-07
-4.2771e-07
-9.91648e-07
-5.16947e-07
1.0004e-06
3.49162e-07
5.77855e-08
-6.45064e-07
3.09052e-07
3.72562e-07
1.00494e-06
1.04948e-06
-3.72596e-07
6.18429e-07
-1.04192e-06
-1.07399e-06
2.23864e-07
-1.71372e-07
4.87789e-07
-1.02517e-06
5.08222e-07
4.70897e-07
8.35975e-07
2.57779e-07
-5.84658e-07
-4.25054e-07
-9.31652e-07
-1.05066e-07
2.16192e-07
-5.29599e-07
7.67828e-07
3.40699e-07
3.19512e-07
-6.6021e-07
-5.79825e-07
9.97554e-07
-4.1773e-07
9.8577e-07
-2.32638e-07
2.9022e-07
4.28872e-07
-7.29878e-07
5.64599e-07
-2.7438e-07
-3.56962e-07
-4.03822e-07
-5.21512e-07
9.25334e-07
-1.022e-06
-5.67133e-07
9.97853e-07
-3.29541e-07
5.80501e-07
-3.20875e-08
-2.48515e-07
2.80603e-07
4.43032e-07
3.02432e-07
-2.86514e-07
-8.47214e-07
1.13373e-06
-1.91495e-07
2.22516e-07
-3.10209e-08
-3.60651e-07
8.28284e-08
-4.03864e-08
6.91548e-08
-1.01242e-07
-9.83647e-07
1.01076e-06
-5.39866e-07
2.8508e-07
-1.01991e-06
5.40016e-07
-9.5553e-07
3.9188e-07
-5.87799e-07
2.58258e-07
9.55988e-07
5.37139e-08
-8.34908e-07
3.59459e-07
4.66703e-08
-8.70567e-08
4.4363e-07
2.32888e-07
4.3395e-07
-1.85968e-07
6.07735e-07
8.24999e-07
6.46114e-08
4.66577e-07
-1.00644e-06
-9.20866e-07
3.81016e-07
-9.38884e-07
3.73872e-07
4.98222e-07
4.81301e-07
9.00914e-07
-3.74761e-07
5.38882e-07
-2.81103e-07
5.77558e-07
3.05572e-07
5.65682e-07
3.5515e-07
2.0945e-07
2.64502e-07
5.80123e-07
2.09048e-07
3.56634e-07
1.6023e-07
2.89428e-07
5.66777e-07
-9.28116e-07
3.61339e-07
-9.72372e-07
5.79425e-07
3.92946e-07
-1.03569e-06
6.10632e-07
-1.08513e-06
-3.40961e-07
-5.08665e-07
-3.26243e-07
-4.88953e-07
-6.57581e-07
2.48539e-07
2.55573e-07
-5.01563e-07
-3.92248e-07
7.95018e-07
5.66305e-08
6.37441e-07
4.02004e-07
-2.58904e-07
-2.97045e-07
1.98151e-07
-1.28996e-07
-6.11698e-07
-3.09168e-07
-3.3926e-07
-3.72072e-07
2.16037e-07
-3.7619e-07
-6.39824e-07
-3.67007e-07
1.00683e-06
9.35255e-07
-8.56782e-07
8.81629e-07
8.22349e-07
-6.21465e-07
2.45735e-07
3.7573e-07
-1.05937e-06
9.54305e-07
-4.0537e-07
1.26599e-06
-8.60617e-07
8.94502e-07
4.07528e-08
5.56304e-07
8.24542e-07
3.26201e-07
-7.55255e-07
4.06013e-07
1.0206e-06
-4.13729e-07
-3.41527e-07
-9.8377e-07
-7.02432e-07
-9.83846e-07
3.44022e-07
-5.05518e-07
7.56491e-07
-2.50974e-07
1.04149e-06
6.03754e-07
8.10446e-07
-3.58028e-07
-2.01683e-07
5.59711e-07
-1.39172e-06
1.13071e-06
3.66078e-07
-9.38908e-07
9.98939e-07
-6.25066e-07
3.93288e-07
3.59273e-07
-5.18243e-07
-5.08175e-07
-6.31932e-07
9.94803e-07
5.9418e-07
-7.07201e-07
2.69906e-07
2.86627e-07
-6.8238e-07
4.07199e-07
-9.12938e-07
5.07568e-07
9.10369e-07
-5.56382e-07
8.05023e-07
3.74453e-07
-8.44978e-07
4.70525e-07
6.33128e-07
3.61675e-07
1.6966e-06
-1.67604e-06
-2.05646e-08
6.63194e-07
-1.25833e-07
5.41079e-07
-2.21568e-07
-1.98992e-07
6.29006e-07
-4.30014e-07
9.0915e-07
-4.27849e-07
-1.1599e-07
1.00068e-06
4.20197e-07
-1.1274e-06
2.6635e-07
-9.68894e-07
9.96803e-07
-3.63675e-07
7.18982e-08
-9.2868e-07
1.08991e-06
-3.59749e-07
-7.30157e-07
4.60047e-07
1.45754e-07
-7.76673e-07
1.12722e-06
-3.50548e-07
-6.06031e-07
8.48477e-07
-2.42446e-07
2.00109e-07
2.01082e-07
-7.19326e-07
5.01278e-07
-2.28601e-07
-1.31574e-06
-3.45749e-09
3.97849e-07
-8.41578e-07
2.15704e-07
-3.75615e-07
-8.09095e-08
-1.04634e-07
9.04609e-07
-6.13513e-07
3.29557e-07
8.07394e-07
-5.43499e-07
-2.23648e-07
7.67147e-07
-4.14314e-07
2.51358e-07
1.62956e-07
6.72311e-07
-9.79998e-07
2.82176e-07
1.15296e-07
7.66333e-07
4.20257e-07
5.44022e-07
3.13233e-07
6.3718e-07
3.59622e-07
8.51211e-07
4.14776e-07
7.75772e-07
5.69528e-07
-1.3453e-06
-1.07321e-07
3.50749e-07
1.94848e-07
-8.72421e-07
3.21667e-07
1.09888e-06
-5.23084e-07
-3.65579e-07
-1.64019e-07
-6.95827e-07
7.67725e-07
8.55072e-08
4.24706e-07
6.55287e-08
-6.89265e-07
8.63574e-07
-1.74308e-07
-2.62991e-07
-6.24829e-07
8.37998e-07
-2.13169e-07
-4.20405e-07
8.76591e-07
-4.56186e-07
7.00627e-07
7.23272e-07
8.70946e-07
-1.04407e-07
-7.6654e-07
2.1236e-07
1.7952e-07
1.01163e-06
8.41884e-07
2.85337e-07
-3.70628e-09
-6.40255e-07
6.43961e-07
8.66124e-07
-3.85923e-07
-7.67812e-07
6.51884e-07
1.73945e-07
5.49327e-07
1.04215e-06
-3.90268e-07
5.02449e-07
-8.24391e-07
8.65143e-07
-7.57094e-07
6.12671e-08
1.48733e-07
-9.43029e-07
1.75217e-07
6.91604e-07
7.33999e-08
7.90174e-07
1.71175e-07
1.13526e-08
-7.61324e-07
-3.6398e-07
9.10078e-07
6.55173e-07
9.5904e-07
-3.70951e-07
-6.83694e-07
-1.38507e-07
-1.83034e-07
5.53291e-07
-4.68404e-08
1.08268e-06
-3.91079e-07
8.6724e-07
7.50221e-07
2.0882e-07
8.32733e-07
3.45069e-08
-9.96838e-07
-1.68739e-07
1.16558e-06
5.17438e-07
-1.03757e-06
7.77584e-07
-9.17063e-07
-1.5456e-07
1.01233e-06
-2.6211e-07
-3.87751e-07
-3.36647e-07
7.24398e-07
-1.05557e-06
-1.42112e-07
-3.37328e-07
4.7944e-07
3.2136e-07
-1.10295e-07
1.10003e-09
-5.93455e-07
5.92355e-07
-1.07226e-07
9.61532e-09
1.02516e-06
7.2793e-07
-6.19727e-07
5.66801e-07
-9.19363e-07
1.26192e-06
-6.95657e-07
2.81343e-07
5.13061e-07
-1.97159e-07
3.91345e-07
-5.87298e-07
-8.37231e-08
6.71021e-07
-2.28842e-08
-4.882e-07
5.11084e-07
5.51577e-07
-2.6495e-07
-4.6007e-07
9.07924e-07
-6.27963e-07
-1.1514e-06
2.22232e-07
-8.72663e-07
-6.79012e-07
9.17146e-08
1.13134e-07
9.12022e-07
1.03148e-06
-1.9039e-06
8.72418e-07
-8.50263e-07
1.19253e-06
-9.26176e-07
-1.26128e-07
1.58735e-06
-1.19075e-06
-9.34563e-08
-7.14381e-07
1.70021e-07
1.83767e-07
2.88586e-07
-1.25699e-06
-4.33992e-07
6.41443e-07
1.65951e-07
-8.5521e-07
9.53818e-07
-2.88295e-07
1.02379e-06
1.59945e-08
-1.16396e-06
1.14797e-06
-2.73438e-07
9.8481e-07
-7.11372e-07
1.20675e-06
3.59557e-07
-2.05198e-08
1.16324e-06
1.38149e-06
-1.26835e-06
-7.43163e-07
1.66188e-07
5.76975e-07
8.46453e-07
-3.75929e-07
-1.6379e-06
7.18539e-07
-1.16909e-06
-1.02012e-06
8.4581e-07
1.12531e-06
8.14394e-08
1.15244e-06
-1.38708e-06
7.39099e-09
1.3741e-06
1.20093e-06
8.1316e-07
-8.36814e-07
1.72643e-07
3.59201e-07
1.41193e-07
1.93385e-07
3.57361e-07
-1.30056e-06
1.34347e-06
-4.29124e-08
-2.37067e-07
-9.1433e-07
1.05049e-07
-5.25454e-07
1.12409e-06
-8.38753e-07
8.68161e-07
-3.00541e-07
-5.6762e-07
5.48516e-07
5.14851e-07
-3.07656e-08
4.45014e-07
-4.14248e-07
6.87031e-07
4.04307e-07
-1.21693e-06
1.18212e-06
5.03035e-07
-3.40079e-07
2.55618e-07
5.16188e-07
-1.30048e-06
1.16172e-06
1.08272e-06
-6.39541e-07
-5.07617e-07
-7.71641e-07
-2.48477e-07
-1.20037e-06
6.59925e-07
-4.25086e-07
6.54325e-08
3.59654e-07
-4.72439e-07
7.73998e-07
-1.04744e-06
-4.25105e-07
-9.20196e-07
-1.18365e-07
-7.45096e-07
-1.25171e-06
-1.33223e-06
2.25355e-07
-1.32145e-06
7.5531e-08
-1.05472e-06
3.24565e-07
6.3804e-07
-7.80206e-07
-2.0976e-07
2.048e-07
5.29373e-08
-5.01301e-07
-8.85913e-08
9.96515e-07
-1.16416e-06
-6.13801e-08
-5.69184e-07
-1.54688e-07
3.4033e-07
6.66501e-07
2.69723e-07
2.58342e-07
6.08084e-07
6.17187e-07
4.85512e-07
3.05626e-07
5.91255e-07
1.11619e-06
6.27546e-07
7.69659e-07
-7.80316e-07
3.46952e-07
-1.11068e-06
1.10722e-06
-1.68093e-07
-1.08723e-06
-6.951e-07
1.58626e-07
-9.3194e-08
-1.56388e-08
2.15746e-07
1.52111e-07
1.05626e-07
-2.06339e-07
3.72263e-07
4.70988e-08
9.49485e-07
-8.00181e-07
-5.81901e-08
4.07339e-07
7.2287e-07
-1.01117e-06
3.33076e-07
-1.02818e-06
4.53396e-07
-4.45223e-07
1.25689e-06
-6.1637e-08
1.91306e-07
-6.34736e-07
9.75065e-07
-3.11371e-07
-4.24879e-07
5.61485e-07
-1.42993e-06
-9.85961e-07
1.37089e-06
-3.84931e-07
1.08747e-06
-2.19958e-07
-6.78089e-07
-1.5188e-07
2.57764e-07
-1.10498e-06
-1.38197e-06
1.13852e-06
1.17159e-06
2.02505e-07
-6.07606e-07
5.72721e-07
1.09674e-06
-1.41923e-07
8.21814e-07
-9.35277e-07
5.92149e-07
-3.98319e-07
-2.98661e-07
1.03102e-06
-6.56268e-07
-5.1642e-07
-4.3382e-07
2.25127e-07
-2.61132e-09
9.96631e-08
3.0006e-08
3.88631e-07
-7.70782e-07
1.77327e-07
-4.25223e-07
-3.16805e-07
1.248e-06
-9.90241e-07
-7.57833e-07
2.69634e-07
-1.03283e-06
-8.30324e-07
-2.96977e-07
1.89161e-07
-1.36057e-07
-4.48717e-07
-8.3636e-08
1.61429e-07
1.73149e-07
-1.01261e-07
1.20848e-06
-4.53006e-07
-2.54195e-07
-2.06919e-07
1.083e-06
-1.56701e-06
8.16983e-08
9.29761e-07
-9.8471e-08
3.62552e-07
-2.57109e-07
4.23297e-07
-5.62661e-07
1.32647e-07
1.54109e-07
6.28414e-07
-5.46716e-07
-4.02448e-08
2.39969e-07
-2.40396e-07
-5.08719e-07
1.45176e-07
-1.012e-06
-4.12613e-07
1.25156e-06
-1.6034e-07
3.11609e-07
-1.82901e-07
-3.19816e-08
8.63074e-07
-2.18241e-07
3.38e-07
-1.92824e-07
4.16562e-07
-4.2367e-07
-1.438e-08
-2.79627e-07
1.70301e-07
-8.86646e-08
3.3145e-07
-2.33004e-07
1.25038e-07
-4.02625e-07
4.58917e-09
-3.99666e-07
-1.4198e-08
2.66199e-07
-3.00802e-08
3.47974e-07
-5.94288e-07
1.57592e-06
-7.86464e-07
2.55114e-07
7.04583e-07
-6.06218e-08
-8.92668e-07
8.47277e-07
4.4349e-09
6.60705e-08
-7.05054e-08
3.6212e-07
-2.33122e-08
-2.11913e-07
-3.22156e-07
-7.35582e-07
4.39613e-07
-2.64657e-07
3.73633e-07
4.36817e-07
-2.27367e-07
5.44356e-07
-3.34015e-07
1.0183e-07
-6.63787e-07
2.91191e-07
4.12358e-07
-2.65816e-08
2.46078e-07
5.28916e-07
2.46999e-07
-8.144e-07
6.48878e-08
-2.27513e-08
-2.13107e-07
4.02634e-07
-1.89527e-07
8.54609e-07
9.83597e-09
4.26599e-07
7.95766e-07
1.94557e-08
5.87005e-07
-3.24049e-07
6.75064e-07
9.00854e-07
-6.56897e-07
-1.21192e-06
-8.26533e-07
1.04941e-07
5.08582e-07
8.54609e-07
8.10499e-07
4.72604e-08
-1.69768e-07
-3.90389e-07
2.2637e-07
1.06512e-06
-1.15857e-06
-1.32793e-07
-1.15144e-06
1.7414e-07
-6.54996e-09
-1.87728e-07
-2.90349e-08
1.06861e-07
-1.89308e-09
1.30509e-07
-1.45649e-08
-9.2721e-08
-2.38243e-07
-1.40161e-07
-1.543e-07
-1.30509e-07
9.2721e-08
1.543e-07
-7.83945e-09
-1.03324e-07
8.61606e-09
2.38243e-07
1.40161e-07
1.7414e-07
-1.87728e-07
1.06861e-07
-1.03324e-07
8.35175e-07
-4.62613e-07
-2.00329e-07
6.8605e-07
-3.01784e-07
-3.14244e-07
3.14244e-07
-2.00329e-07
-1.29087e-07
8.29074e-07
3.198e-07
2.89056e-07
-1.15907e-07
1.03811e-06
8.74725e-07
-8.09722e-07
-8.40856e-08
1.27038e-08
8.40856e-08
1.0622e-08
-1.03837e-06
-7.44123e-07
6.04538e-08
-3.99236e-07
1.90906e-08
-1.46557e-08
4.53422e-08
1.46118e-08
1.63468e-07
2.53481e-07
-1.46411e-06
-1.86655e-07
-3.06314e-07
2.58238e-07
4.54728e-07
3.36845e-07
-1.37406e-06
1.62136e-07
-3.15813e-07
1.37653e-07
1.08827e-07
1.14135e-07
-3.32126e-07
-9.82891e-07
9.5654e-07
2.63507e-08
6.88394e-07
-1.59479e-07
-6.11037e-08
6.11037e-08
-3.4506e-07
-3.80473e-07
-1.12798e-06
2.88759e-07
-1.57366e-07
1.70069e-07
3.21459e-07
-1.30435e-06
6.55051e-07
-3.37217e-07
1.53599e-07
-1.47834e-07
9.06504e-07
1.26416e-06
6.16184e-08
-1.68661e-07
3.11179e-07
-6.08211e-07
6.94656e-08
-2.62289e-07
3.12813e-07
-4.16082e-07
-1.23089e-07
-3.86472e-08
1.08113e-07
2.72639e-07
-1.48436e-07
-9.37813e-08
8.9389e-07
-3.57831e-07
1.39829e-07
-1.39829e-07
7.58087e-08
-4.42697e-09
-7.58087e-08
-2.88487e-08
-2.47076e-07
2.47076e-07
4.55167e-07
-1.66933e-07
-2.62833e-08
-6.79945e-07
-3.44356e-08
-3.7843e-07
2.7657e-08
1.30969e-07
-1.08575e-07
-9.2875e-08
-4.15058e-07
-9.13968e-07
2.07324e-07
6.67401e-07
2.47424e-07
1.77463e-07
-6.05172e-07
-1.0102e-07
-1.1724e-07
-2.61704e-07
2.61704e-07
4.33132e-07
1.60873e-07
-3.50804e-07
-5.81864e-07
4.61917e-07
8.88695e-07
-1.35061e-06
2.86491e-07
2.68364e-08
1.00962e-07
-8.28672e-08
-4.19482e-08
1.18046e-06
-5.45952e-08
2.07613e-07
-3.49734e-08
-5.82205e-08
-4.79866e-10
4.79866e-10
2.25716e-07
1.76919e-07
5.1642e-07
-5.89338e-08
4.93452e-08
9.58861e-09
-9.2463e-08
4.59449e-08
-4.15603e-08
1.23089e-07
-2.42953e-07
4.15603e-08
-1.87762e-07
8.97126e-08
9.80495e-08
5.2539e-07
-2.90575e-08
-1.0934e-06
-2.75463e-07
-1.47083e-06
8.72289e-07
5.98541e-07
1.14135e-07
-3.23711e-07
-1.89527e-07
3.23711e-07
1.41512e-07
3.80932e-08
-1.7415e-07
-1.4964e-08
-7.45965e-08
1.4964e-08
7.45965e-08
-1.07147e-07
1.07147e-07
1.33635e-06
3.90238e-08
-4.97222e-07
-2.42186e-07
-6.34395e-08
-9.39261e-08
3.45662e-08
1.21926e-07
-1.21926e-07
-7.86464e-07
-2.09531e-07
4.19482e-08
-6.53653e-08
4.72975e-09
-1.60873e-07
-3.79253e-07
-1.66161e-07
-1.27405e-08
1.02454e-07
1.33751e-06
6.19595e-08
-3.86009e-07
-1.75668e-07
-1.14241e-07
-2.62833e-08
-6.20903e-07
5.56963e-07
1.5932e-07
-5.86559e-08
-7.31884e-08