/*--------------------------------*- C++ -*----------------------------------*\
  =========                 |
  \\      /  F ield         | OpenFOAM: The Open Source CFD Toolbox
   \\    /   O peration     | Website:  https://openfoam.org
    \\  /    A nd           | Version:  9
     \\/     M anipulation  |
\*---------------------------------------------------------------------------*/
FoamFile
{
    format      ascii;
    class       volScalarField;
    location    "0.66";
    object      p;
}
// * * * * * * * * * * * * * * * * * * * * * * * * * * * * * * * * * * * * * //

dimensions      [0 2 -2 0 0 0 0];

internalField   nonuniform List<scalar> 
90
(
-1.29146e-15
3.84929e-16
5.36448e-18
1.15582e-16
4.66146e-16
3.9127e-16
-1.23186e-15
1.71856e-16
4.62805e-17
4.3929e-16
-9.49388e-16
5.80862e-16
-8.9299e-16
4.96149e-16
4.31328e-16
5.15387e-16
5.96735e-16
2.16685e-16
-9.20239e-17
-3.76781e-16
1.62094e-15
-3.79243e-17
-9.2444e-17
-1.52021e-16
7.23729e-16
-4.99049e-16
1.30578e-15
3.61627e-16
1.80167e-16
-2.86774e-16
8.38876e-17
-8.09943e-16
1.16302e-15
3.4368e-16
7.47291e-16
5.90976e-16
-4.48081e-16
4.95744e-16
7.89792e-16
-7.55958e-16
-5.42537e-16
-2.7558e-16
2.99137e-16
-7.68689e-16
7.32585e-17
1.97461e-16
-6.23844e-17
2.69603e-16
6.66282e-18
3.11945e-16
-6.95556e-16
-5.66939e-16
7.69272e-17
1.87396e-16
-4.80276e-16
-1.33787e-16
-2.02437e-16
7.11252e-17
7.91517e-16
-8.51432e-16
-1.25077e-17
-6.98229e-16
-9.01588e-16
2.38991e-16
5.79481e-17
-2.67141e-16
-1.49593e-16
3.7601e-17
2.64363e-16
9.13705e-17
1.2023e-16
7.33561e-16
3.23506e-16
-3.38509e-16
9.14422e-17
-1.82574e-16
1.58145e-15
4.35326e-16
2.60005e-16
3.68649e-16
3.098e-16
-2.18683e-16
-9.26429e-17
1.96424e-17
-3.13496e-16
1.57885e-16
8.89647e-17
-1.14004e-16
-6.24833e-17
1.42327e-15
)
;

boundaryField
{
    back
    {
        type            empty;
    }
    front
    {
        type            empty;
    }
    bottom
    {
        type            zeroGradient;
    }
    outer_arc
    {
        type            zeroGradient;
    }
    right
    {
        type            uniformFixedValue;
        uniformValue    
        {
            type            scale;
            scale           
            {
                type            squarePulse;
                start           0.3;
                duration        0.3;
            }
            xScale          
            {
                type            constant;
                value           1;
            }
            value           
            {
                type            constant;
                value           15.1;
            }
        }
        value           uniform 0;
    }
    inner_arc
    {
        type            zeroGradient;
    }
}


// ************************************************************************* //
