/*--------------------------------*- C++ -*----------------------------------*\
  =========                 |
  \\      /  F ield         | OpenFOAM: The Open Source CFD Toolbox
   \\    /   O peration     | Website:  https://openfoam.org
    \\  /    A nd           | Version:  9
     \\/     M anipulation  |
\*---------------------------------------------------------------------------*/
FoamFile
{
    format      ascii;
    class       surfaceScalarField;
    location    "0.66";
    object      phi;
}
// * * * * * * * * * * * * * * * * * * * * * * * * * * * * * * * * * * * * * //

dimensions      [0 3 -1 0 0 0 0];

internalField   nonuniform List<scalar> 
122
(
-5.90609e-22
2.55882e-22
3.34726e-22
6.13838e-31
2.16931e-23
-2.16931e-23
-2.45448e-22
5.41887e-22
-2.96439e-22
1.30779e-22
-3.76226e-22
-2.98825e-22
2.98825e-22
1.71981e-22
3.9821e-22
-5.70191e-22
1.46417e-22
-1.97055e-25
-1.4622e-22
5.50158e-22
-3.78177e-22
-2.55882e-22
2.82676e-22
-2.67941e-23
-2.16931e-23
9.14319e-23
-6.97388e-23
2.07393e-22
-6.09757e-23
-9.14319e-23
4.29603e-22
2.94599e-22
2.47288e-22
-3.76423e-22
2.63139e-22
-1.68709e-22
-9.44299e-23
-2.26015e-22
2.26015e-22
-4.62888e-22
4.62888e-22
-4.34571e-22
1.94529e-22
2.40043e-22
2.24823e-22
3.83164e-23
4.02903e-22
-4.69245e-24
-1.0822e-22
-3.26351e-22
1.76888e-22
-7.0105e-22
2.38162e-22
-2.33748e-22
5.28347e-22
3.75663e-22
-9.29865e-23
-2.67941e-23
-2.64645e-22
4.9066e-22
4.95038e-22
-4.9973e-22
2.30393e-22
2.77507e-22
-2.77507e-22
4.29603e-22
4.9066e-22
-2.04198e-22
2.04198e-22
2.58691e-22
-2.12163e-22
4.70853e-22
-2.8065e-22
5.11043e-22
-1.61481e-22
4.96208e-22
4.37623e-23
-4.94628e-22
-2.6775e-23
5.08195e-24
-7.38048e-23
7.38048e-23
-3.02132e-23
2.77501e-22
-5.08602e-22
-1.30715e-22
3.54884e-23
3.54884e-23
-2.95767e-22
3.6079e-23
2.59688e-22
-2.1039e-22
3.54884e-23
1.83859e-22
-4.79626e-22
4.69584e-22
-2.6775e-23
-4.83436e-22
5.27199e-22
-1.35015e-22
1.35015e-22
1.42492e-22
2.7044e-22
-3.00653e-22
-2.78179e-22
2.78179e-22
7.86028e-23
-4.70298e-23
1.25633e-22
1.95855e-22
-8.23234e-23
-1.95855e-22
2.44571e-22
3.29299e-23
6.67218e-23
6.7193e-25
4.46024e-22
2.43609e-22
-2.43609e-22
-2.50447e-23
4.78954e-22
-4.03222e-22
)
;

boundaryField
{
    back
    {
        type            empty;
        value           nonuniform List<scalar> 0();
    }
    front
    {
        type            empty;
        value           nonuniform List<scalar> 0();
    }
    bottom
    {
        type            calculated;
        value           uniform 0;
    }
    outer_arc
    {
        type            calculated;
        value           uniform 0;
    }
    right
    {
        type            calculated;
        value           nonuniform List<scalar> 4(-5.90609e-22 4.50866e-22 -6.31065e-22 7.70808e-22);
    }
    inner_arc
    {
        type            calculated;
        value           uniform 0;
    }
}


// ************************************************************************* //
