/*--------------------------------*- C++ -*----------------------------------*\
  =========                 |
  \\      /  F ield         | OpenFOAM: The Open Source CFD Toolbox
   \\    /   O peration     | Website:  https://openfoam.org
    \\  /    A nd           | Version:  9
     \\/     M anipulation  |
\*---------------------------------------------------------------------------*/
FoamFile
{
    format      ascii;
    class       volVectorField;
    location    "0.66";
    object      U;
}
// * * * * * * * * * * * * * * * * * * * * * * * * * * * * * * * * * * * * * //

dimensions      [0 1 -1 0 0 0 0];

internalField   nonuniform List<vector> 
90
(
(-1.40691e-14 -5.55493e-15 1.2242e-31)
(-1.54323e-16 4.27419e-16 3.86545e-32)
(-9.162e-16 1.03398e-14 3.07221e-33)
(-9.91709e-17 1.24859e-14 -3.0426e-33)
(9.5123e-16 6.28623e-15 -2.65322e-32)
(-1.08294e-16 1.15434e-16 -3.071e-32)
(-1.42703e-14 -3.40588e-15 -1.47427e-31)
(5.95762e-15 -1.64515e-14 3.15742e-32)
(-5.18999e-15 6.44583e-15 0)
(7.86924e-15 -1.6082e-14 0)
(-2.81174e-15 -5.60545e-15 -2.38322e-32)
(-8.6775e-16 2.77775e-15 -2.90366e-32)
(-3.84328e-15 -3.1422e-15 -1.1155e-32)
(-5.18152e-16 6.78289e-16 1.99201e-32)
(-2.65042e-15 6.90651e-15 0)
(-4.0764e-16 7.3561e-15 0)
(3.77437e-15 1.18337e-14 5.24814e-32)
(6.34972e-15 1.32786e-14 -6.8562e-33)
(-6.94779e-15 6.88876e-15 0)
(-7.24072e-15 -3.56327e-15 -1.60478e-32)
(-8.69679e-16 -5.53088e-15 8.19987e-32)
(-7.57747e-15 -7.82841e-15 -1.41932e-32)
(7.25553e-15 -1.01554e-14 -1.75328e-32)
(-5.83569e-15 -1.14014e-15 1.57154e-32)
(3.26597e-15 -1.40366e-14 -3.59104e-32)
(8.69605e-15 -3.82709e-15 1.32694e-32)
(4.36656e-15 -8.1724e-15 -7.91048e-32)
(-1.30806e-14 -1.26051e-14 5.45735e-33)
(1.03801e-14 1.46114e-14 0)
(-2.09586e-15 -1.10478e-14 5.88866e-33)
(4.28326e-15 -1.41786e-14 -9.77257e-33)
(7.73987e-16 -2.56562e-15 -3.70963e-32)
(-7.60605e-15 -1.22952e-14 8.99026e-33)
(1.52746e-15 -1.45593e-14 -3.10904e-32)
(-5.01539e-15 -1.39371e-14 1.30244e-32)
(-1.89749e-16 2.49774e-15 -1.40164e-32)
(5.95966e-15 2.98712e-15 0)
(4.05344e-15 7.30944e-15 0)
(-7.30794e-15 -8.10783e-15 -2.31366e-32)
(-4.26967e-15 -4.04295e-15 -7.58015e-33)
(-1.06931e-14 -9.47309e-15 1.71394e-32)
(-1.23992e-14 -6.72181e-15 2.02995e-32)
(-4.18013e-15 -1.17979e-14 3.80796e-33)
(-1.58429e-14 -9.46781e-15 1.13955e-32)
(1.21559e-14 -1.40378e-14 3.76844e-33)
(-6.42449e-16 6.83769e-16 -5.04917e-33)
(-1.26722e-15 4.89987e-17 -3.71493e-33)
(3.94304e-15 5.76575e-15 8.04999e-33)
(-1.13671e-14 -3.43061e-15 -2.27682e-33)
(-2.44764e-15 3.832e-15 -3.64256e-33)
(-3.83469e-15 -2.9365e-15 0)
(-8.97731e-16 -5.55463e-16 1.78031e-32)
(9.64468e-15 -4.50028e-15 -1.63227e-34)
(-1.27804e-14 -1.36418e-14 0)
(-1.78996e-16 -5.12225e-16 -3.21468e-32)
(1.41959e-14 2.49502e-15 2.30875e-35)
(-1.71882e-14 -1.34528e-14 -9.85343e-33)
(-2.64885e-16 1.9827e-16 0)
(1.93063e-14 -1.05214e-14 0)
(4.72072e-15 -1.82592e-15 5.10463e-32)
(-1.09163e-14 -2.31572e-15 -7.18398e-33)
(8.26329e-15 2.819e-15 0)
(3.08352e-15 3.92735e-16 4.21336e-32)
(-6.25421e-15 -5.17187e-15 -2.61512e-33)
(-1.25892e-14 -8.18931e-15 -1.47825e-33)
(5.46673e-15 4.802e-15 -1.15033e-32)
(-6.10995e-15 2.37765e-15 0)
(-3.97109e-15 1.90522e-15 0)
(7.67427e-15 1.04471e-14 -1.13834e-33)
(8.22331e-15 8.22126e-15 3.08058e-33)
(9.30377e-15 5.98565e-15 0)
(1.3868e-14 -1.0344e-14 3.52931e-32)
(6.34126e-15 -2.81706e-15 0)
(9.91352e-15 6.95159e-15 -1.29014e-32)
(1.30049e-14 1.29972e-14 -3.11029e-33)
(-2.41748e-15 -1.01929e-15 1.05868e-32)
(6.60579e-15 -7.92421e-16 -2.09319e-32)
(-8.67444e-15 -1.21769e-14 0)
(6.86736e-15 -1.07609e-14 2.0228e-32)
(2.16087e-14 -4.29374e-15 4.90419e-32)
(3.74285e-15 4.07038e-15 -1.29104e-32)
(-4.91551e-16 -1.62662e-14 4.39304e-33)
(-2.05631e-15 7.10576e-16 5.72545e-33)
(1.4666e-14 1.12597e-14 -6.51838e-34)
(1.23929e-14 1.22666e-15 6.74695e-33)
(-2.68814e-15 2.38385e-15 5.91466e-33)
(1.69186e-15 -1.60367e-14 -2.94604e-34)
(-6.22686e-15 -1.28205e-14 -1.33716e-32)
(1.49545e-14 8.29771e-15 1.29488e-32)
(8.90616e-15 -5.27795e-15 -3.41788e-32)
)
;

boundaryField
{
    back
    {
        type            empty;
    }
    front
    {
        type            empty;
    }
    bottom
    {
        type            uniformFixedValue;
        uniformValue    
        {
            type            scale;
            scale           
            {
                type            squarePulse;
                start           0.3;
                duration        0.3;
            }
            xScale          
            {
                type            constant;
                value           1;
            }
            value           
            {
                type            constant;
                value           (0 0.7 0);
            }
        }
        value           uniform (0 0 0);
    }
    outer_arc
    {
        type            noSlip;
    }
    right
    {
        type            zeroGradient;
    }
    inner_arc
    {
        type            noSlip;
    }
}


// ************************************************************************* //
