/*--------------------------------*- C++ -*----------------------------------*\
  =========                 |
  \\      /  F ield         | OpenFOAM: The Open Source CFD Toolbox
   \\    /   O peration     | Website:  https://openfoam.org
    \\  /    A nd           | Version:  9
     \\/     M anipulation  |
\*---------------------------------------------------------------------------*/
FoamFile
{
    format      ascii;
    class       volScalarField;
    location    "0.65";
    object      p;
}
// * * * * * * * * * * * * * * * * * * * * * * * * * * * * * * * * * * * * * //

dimensions      [0 2 -2 0 0 0 0];

internalField   nonuniform List<scalar> 
578
(
-5.77897e-07
-1.68919e-06
-4.17509e-07
5.14882e-08
-1.63831e-06
1.12738e-06
1.56945e-06
-1.38774e-06
-1.16641e-06
-2.51791e-06
5.96598e-07
-1.37626e-06
2.4556e-09
-1.54964e-06
1.47168e-06
-7.43602e-08
-8.62507e-07
-7.95465e-07
-1.07983e-06
-7.80136e-07
5.74281e-08
6.80373e-09
4.61665e-07
5.33612e-07
5.58494e-07
-1.02043e-06
-1.03321e-07
-2.02846e-07
-1.2319e-06
-8.45872e-10
-1.16018e-07
1.28109e-06
-5.18024e-07
1.88433e-07
1.32086e-06
-5.8589e-07
-1.38926e-06
-1.3236e-06
3.79502e-09
-1.90739e-06
-1.49517e-06
-1.21497e-06
-1.53564e-06
1.5422e-06
-3.57447e-07
1.9115e-06
1.46557e-06
-1.24988e-06
-7.04627e-09
-1.51456e-07
1.82614e-06
-7.9584e-09
1.67052e-06
1.56494e-07
-3.93492e-08
-7.48039e-07
4.32998e-07
3.05839e-07
-4.24992e-07
-8.93392e-07
-7.85942e-07
-1.23378e-06
-1.19055e-06
-1.71452e-06
-3.84207e-08
1.42628e-06
-2.90416e-07
7.87146e-07
5.28072e-07
-9.89557e-07
2.79777e-07
1.2507e-06
-3.4885e-08
-1.15561e-06
5.89458e-07
-1.82535e-06
-1.47465e-06
-1.21329e-06
-3.6016e-08
1.11395e-06
1.32112e-06
-1.19219e-06
1.84008e-06
1.73563e-06
3.33403e-07
1.01654e-06
2.03552e-06
-5.02801e-07
-1.10044e-06
9.75434e-07
-8.25164e-08
7.0466e-07
1.25181e-06
3.38071e-08
6.55942e-07
1.13081e-06
-3.75567e-08
-5.49578e-08
-2.44336e-06
1.46689e-06
1.3761e-06
-1.12699e-06
-1.03896e-07
9.11606e-07
-4.61769e-08
-1.56863e-06
6.67625e-07
-1.85103e-06
1.2058e-06
-1.62731e-06
-5.24015e-07
-1.06984e-06
-8.73467e-07
9.09374e-07
9.75646e-07
-6.84609e-08
4.60999e-08
-8.39265e-07
9.59314e-07
-3.11336e-08
-9.0259e-07
2.47033e-06
-1.25206e-06
9.32835e-09
1.35618e-06
6.42207e-07
1.08473e-06
-6.95907e-11
1.20053e-06
1.6769e-07
1.21267e-06
5.6619e-07
3.12397e-08
-9.96431e-07
1.0799e-06
1.17097e-06
-1.62096e-06
-6.92363e-08
6.37846e-07
1.22037e-06
1.31536e-06
3.51733e-07
1.17174e-06
-5.44859e-07
-1.14229e-06
4.56075e-07
4.41765e-07
-2.25686e-07
-1.25394e-06
-1.82008e-09
-1.33816e-06
5.51436e-07
-1.62859e-06
-9.22481e-07
1.43384e-06
-1.54585e-07
-9.41952e-07
5.76689e-08
1.57763e-06
-1.3587e-06
-1.42184e-06
-1.38409e-06
1.39493e-06
-1.30406e-06
-8.96802e-07
3.82537e-07
-6.89068e-07
1.4475e-06
1.3434e-07
-4.33883e-08
-1.18798e-06
-1.66362e-06
1.20498e-06
8.72925e-07
1.40402e-06
-6.1735e-08
-3.05447e-08
-7.8524e-07
-1.3035e-06
-1.17717e-06
1.54e-06
-1.28819e-06
8.02036e-07
-3.41102e-08
1.2251e-06
-1.73387e-07
-1.21018e-07
1.58742e-06
1.42202e-06
-1.71653e-06
-1.45532e-06
-1.40819e-06
4.57608e-07
1.42567e-06
-1.89911e-06
-3.00516e-08
2.03377e-07
-2.66144e-07
1.37664e-06
-1.4618e-06
9.06661e-08
-8.40168e-09
2.61628e-06
-7.47595e-08
-5.05298e-08
-1.49611e-06
1.33842e-06
-7.54796e-08
-1.40468e-06
2.91688e-07
2.40135e-07
1.33336e-06
1.02273e-06
-1.6883e-08
1.05449e-06
-2.86497e-08
1.41761e-06
-1.44564e-06
1.41967e-06
5.41052e-07
-1.43638e-06
1.38881e-06
-6.56032e-07
-1.45855e-06
1.55312e-06
6.34366e-07
-2.45849e-08
1.58197e-07
-2.29911e-07
-1.40351e-06
-2.20453e-06
2.54318e-06
9.85372e-07
-6.03784e-07
5.97472e-07
-1.07831e-06
-1.49948e-06
1.49533e-06
9.47413e-09
-2.42929e-07
1.48734e-06
-1.68023e-06
-4.88391e-08
1.4913e-06
-2.42072e-07
-1.1441e-06
1.21762e-06
-2.35992e-06
1.04264e-06
2.58271e-08
-2.94158e-08
8.62619e-07
1.42897e-06
1.60454e-07
1.43189e-06
-3.58685e-07
-1.17414e-06
1.35402e-06
-1.21977e-06
2.3533e-06
-5.61618e-07
1.54677e-06
1.77612e-07
1.94807e-07
-1.31118e-06
-7.8961e-07
4.14733e-07
-2.85305e-07
-1.98173e-06
4.90169e-07
-4.96529e-07
5.01175e-07
2.19678e-07
-3.1694e-08
5.83501e-10
5.41079e-09
-4.39217e-08
2.74686e-07
1.45481e-06
8.32721e-08
-1.5501e-06
-1.76308e-08
-4.30486e-08
-1.71704e-08
2.28594e-08
1.14735e-06
-6.88401e-07
6.66006e-07
4.05826e-07
3.04287e-07
1.9775e-07
8.19172e-07
-8.41335e-08
1.32479e-06
5.00934e-08
1.22827e-07
-1.54702e-06
-1.70612e-07
-3.14417e-07
1.90341e-09
6.57641e-08
-2.06905e-07
-1.69619e-07
-4.76185e-07
1.48514e-07
1.25799e-07
5.03822e-10
-9.79832e-07
4.6095e-08
4.71021e-09
-4.33719e-07
-1.53544e-07
-4.4275e-09
-2.31078e-07
1.19322e-07
-4.5205e-08
7.4618e-07
-1.73646e-07
-4.2333e-07
1.47813e-07
7.83569e-07
-4.34137e-08
-1.95524e-08
3.32363e-07
-4.62149e-08
-1.29741e-07
1.32618e-06
1.37089e-06
-1.45242e-06
-1.26069e-07
-5.94621e-08
1.16171e-06
-5.67759e-08
-1.45793e-07
9.55771e-07
2.17138e-07
3.70602e-09
-1.0678e-07
-6.45785e-07
-7.99156e-08
-3.65301e-08
-2.40589e-08
-1.31911e-07
-8.21256e-07
8.33367e-08
1.21057e-06
7.14614e-07
1.12063e-06
-1.14411e-06
1.29998e-06
-1.26936e-06
-1.40148e-06
1.39073e-06
-5.16481e-07
-1.78138e-06
1.79408e-06
2.17687e-07
1.70689e-06
-1.85923e-06
1.80091e-06
-3.08304e-08
-6.54785e-07
1.28923e-07
-9.07751e-07
-3.93961e-09
6.83547e-08
-1.34869e-07
1.10935e-06
7.37472e-11
-1.81674e-07
-1.34239e-06
-1.3139e-06
4.87661e-07
7.59228e-07
5.32716e-07
1.99222e-06
-1.00126e-07
1.27227e-06
-1.3428e-06
-3.24871e-07
-4.4896e-08
-1.36219e-06
1.39635e-06
2.75718e-07
1.66275e-07
-1.98904e-08
1.12058e-09
1.71165e-06
1.6016e-06
-1.04986e-06
-3.26054e-08
2.93481e-07
3.45589e-07
-3.78325e-07
-1.41739e-07
1.51398e-07
1.31622e-06
-3.35209e-07
2.34426e-07
6.5697e-07
-1.90906e-08
1.20874e-06
9.38414e-09
-8.84395e-07
-4.58496e-08
-1.79984e-07
8.66177e-07
-3.64435e-07
4.68788e-07
8.54581e-07
-1.12908e-07
-1.12396e-06
-7.13842e-07
7.10878e-07
-4.12352e-07
5.44544e-07
-1.16995e-06
1.14609e-06
-1.56307e-06
-1.34515e-07
1.25724e-06
9.1831e-07
-1.27517e-06
1.51266e-06
9.641e-07
-6.08377e-07
-9.80731e-07
-9.83958e-07
-1.20398e-06
-5.75319e-07
9.26873e-07
2.76509e-07
3.58043e-07
-4.10853e-08
8.52365e-07
-7.90951e-07
-1.36033e-06
-7.60695e-07
-8.05245e-07
-3.54788e-07
-6.3233e-07
1.86349e-08
6.98998e-08
-2.01692e-07
1.13971e-06
-2.97294e-07
-2.98921e-07
1.00578e-06
9.91087e-07
-1.79528e-08
1.2906e-06
-7.94105e-08
1.0168e-06
-2.22332e-09
1.2934e-06
4.70428e-08
-1.70271e-06
4.23619e-07
3.36018e-07
-8.96026e-07
1.98791e-06
1.17986e-06
-7.76001e-07
-8.10384e-07
-3.04721e-07
-1.01398e-06
8.53152e-07
-1.57013e-06
-4.96911e-07
-7.67544e-07
-3.25688e-07
-2.67529e-07
8.94695e-07
-1.5701e-07
-3.69165e-07
-1.20391e-06
-8.89583e-07
-9.74581e-07
-4.83385e-07
-8.47939e-07
3.70905e-07
4.85977e-07
-3.81218e-07
-2.62363e-07
-1.42897e-07
-7.21967e-07
-5.72461e-07
-1.29143e-07
-9.48487e-08
1.24366e-06
5.16033e-08
9.21053e-07
-4.78006e-07
4.76563e-08
-8.28887e-08
1.00663e-06
-1.56899e-08
1.14999e-06
-1.15054e-07
3.74119e-08
-1.50924e-06
-2.21663e-07
-7.87671e-07
-1.04061e-09
-7.73002e-07
-1.20751e-07
1.14278e-06
8.75578e-08
7.71967e-07
-9.18974e-08
-1.88341e-07
1.36764e-06
-5.08969e-08
1.8667e-06
1.28475e-06
-7.55063e-10
-1.35943e-06
-1.83344e-06
9.94643e-07
2.34646e-08
5.14242e-07
6.41271e-07
-3.94658e-07
-1.06925e-06
-1.16519e-06
-3.82058e-08
-3.89266e-07
1.07032e-07
-1.24462e-06
-1.25486e-06
-1.30848e-06
-1.3224e-06
-2.50347e-07
-2.11848e-07
1.18066e-06
9.71795e-07
9.53298e-07
1.07792e-06
9.72015e-07
-1.62508e-07
7.8979e-08
1.14512e-06
-6.98197e-07
-1.01092e-06
1.41305e-06
2.19439e-07
6.29174e-07
-7.51274e-07
-6.25911e-07
-9.44426e-07
7.83261e-07
1.38774e-06
-9.18252e-07
1.28816e-06
8.11962e-07
-5.12752e-07
-1.37192e-06
-2.58057e-07
-8.03881e-08
-1.32163e-07
-1.08693e-07
1.38759e-06
-1.21861e-06
-1.3129e-07
5.38342e-08
8.63759e-07
3.19842e-10
-7.73901e-07
-9.11418e-08
1.41006e-08
1.19387e-06
-7.94616e-07
9.13479e-07
-1.17155e-06
-4.34713e-07
6.15156e-07
6.88729e-07
5.06178e-07
)
;

boundaryField
{
    front
    {
        type            empty;
    }
    back
    {
        type            empty;
    }
    bottom
    {
        type            uniformFixedValue;
        uniformValue    
        {
            type            scale;
            scale           
            {
                type            squarePulse;
                start           0.3;
                duration        0.3;
            }
            xScale          
            {
                type            constant;
                value           1;
            }
            value           
            {
                type            constant;
                value           15.1;
            }
        }
        value           uniform 0;
    }
    left
    {
        type            zeroGradient;
    }
    top
    {
        type            zeroGradient;
    }
    right
    {
        type            zeroGradient;
    }
    inner_arc
    {
        type            zeroGradient;
    }
}


// ************************************************************************* //
