/*--------------------------------*- C++ -*----------------------------------*\
  =========                 |
  \\      /  F ield         | OpenFOAM: The Open Source CFD Toolbox
   \\    /   O peration     | Website:  https://openfoam.org
    \\  /    A nd           | Version:  9
     \\/     M anipulation  |
\*---------------------------------------------------------------------------*/
FoamFile
{
    format      ascii;
    class       surfaceScalarField;
    location    "0.65";
    object      phi;
}
// * * * * * * * * * * * * * * * * * * * * * * * * * * * * * * * * * * * * * //

dimensions      [0 3 -1 0 0 0 0];

internalField   nonuniform List<scalar> 
816
(
2.31876e-14
1.21085e-12
-1.23404e-12
-3.64575e-13
1.78723e-12
-1.42266e-12
-2.10197e-12
2.12516e-12
2.03207e-13
-2.58247e-13
5.50402e-14
1.18091e-12
-1.18091e-12
-5.32724e-13
9.08407e-13
-3.75683e-13
-1.23222e-12
1.23222e-12
-1.11045e-12
1.11045e-12
-2.50592e-12
4.04948e-15
2.50187e-12
4.05823e-13
-7.70398e-13
8.60234e-13
-1.39296e-12
2.93847e-12
-2.12699e-12
-8.11483e-13
1.00952e-13
-7.9227e-14
-2.17249e-14
2.8378e-12
-2.57196e-12
-2.65834e-13
-2.80325e-12
2.47526e-12
3.27989e-13
-2.17367e-12
3.54683e-12
-1.37316e-12
-1.21228e-12
-4.17605e-13
1.62988e-12
2.5778e-12
-2.34946e-13
-2.34286e-12
3.45608e-13
2.59286e-12
1.17977e-12
-3.68569e-12
3.09443e-13
-1.06236e-13
2.56095e-13
-2.42977e-12
1.30927e-12
-5.109e-13
-7.98373e-13
4.17395e-13
5.78764e-14
-4.75272e-13
4.47186e-13
-2.97904e-14
-2.41518e-12
5.92782e-13
1.8224e-12
2.79735e-13
-2.59966e-13
-1.97689e-14
5.60542e-14
-1.49035e-13
9.29803e-14
6.76558e-13
1.11067e-12
1.2383e-12
2.30853e-12
2.71531e-13
-2.15477e-13
1.1776e-13
7.90647e-13
3.7511e-12
-2.51279e-12
5.90665e-13
-3.39694e-13
-2.50971e-13
-2.76324e-13
-2.52692e-12
-6.04457e-13
2.91298e-12
2.60453e-13
2.57734e-12
-3.54309e-13
-2.06087e-12
3.64696e-12
-1.32713e-12
-2.31983e-12
7.34125e-13
4.46785e-13
-9.20458e-13
-7.64847e-13
7.56146e-13
2.49186e-12
-1.65996e-14
-1.27013e-12
-6.15098e-13
1.88523e-12
-7.39993e-13
-4.92226e-13
9.55895e-13
2.32349e-12
-2.31944e-12
1.54499e-12
1.09304e-13
1.70431e-13
-1.65879e-13
4.61212e-14
1.19758e-13
8.24794e-14
1.84725e-14
1.00116e-12
3.08113e-13
2.8009e-13
3.10575e-13
-4.17367e-14
4.17367e-14
8.38996e-13
-1.08017e-13
-7.30978e-13
-5.109e-13
-1.27013e-12
-2.85171e-12
1.63944e-12
9.98243e-13
-1.6027e-12
-2.7391e-13
4.17418e-13
-8.35024e-13
-1.06997e-12
8.35024e-13
-8.37606e-14
-2.4882e-12
1.23629e-13
-8.08021e-14
-4.28274e-14
2.51609e-12
-2.42316e-14
2.40462e-12
1.34647e-12
-9.11977e-13
1.77221e-12
-1.10809e-12
3.12789e-12
-2.0198e-12
5.6911e-13
2.08136e-12
-2.65047e-12
1.07491e-13
-4.81196e-14
1.17276e-13
6.35339e-15
2.11848e-12
1.02069e-12
-3.13917e-12
7.7769e-13
-7.45632e-13
-3.20585e-14
1.00422e-12
-1.00422e-12
-1.485e-12
2.66477e-12
-2.00972e-12
5.24721e-13
3.80491e-14
-4.53981e-13
-7.8006e-13
1.23404e-12
-2.19983e-12
-6.5786e-13
2.85769e-12
1.21085e-12
9.76783e-13
-9.76783e-13
-1.34661e-12
1.34661e-12
-1.44675e-12
2.82351e-12
-1.37676e-12
7.23123e-13
2.24571e-13
4.61211e-14
9.13269e-13
-7.42732e-14
-6.36317e-14
-1.97094e-12
2.03457e-12
1.72734e-12
7.61621e-14
-1.8035e-12
1.15658e-14
1.03706e-12
-2.48381e-12
6.89405e-14
2.12504e-12
-2.19398e-12
1.83301e-13
-1.51202e-13
-3.20983e-14
-2.48124e-12
5.80965e-14
2.21853e-12
-2.27663e-12
-3.53832e-14
2.00118e-14
4.05823e-13
1.97873e-13
-2.7248e-12
-3.02184e-14
2.54631e-12
-1.7566e-12
2.32571e-12
6.0501e-14
6.79458e-14
-1.28447e-13
-1.78111e-12
2.05575e-14
-2.05575e-14
-3.49953e-13
2.9273e-12
4.02007e-13
9.20458e-13
7.23123e-13
-9.19556e-14
-9.12263e-13
1.28107e-12
1.63191e-12
2.67414e-12
2.42315e-12
-3.07607e-12
6.52924e-13
9.56281e-14
-3.51271e-14
-1.78894e-13
-7.93526e-14
9.92864e-13
1.76657e-12
-2.75943e-12
-3.39687e-14
1.7613e-12
-1.48259e-14
3.53833e-14
-1.15618e-13
1.93802e-12
-1.55784e-12
2.11235e-13
5.3199e-13
2.81361e-13
2.8082e-14
-5.81057e-13
-2.2707e-12
2.46956e-12
-1.98868e-13
-5.42079e-13
-1.65775e-12
2.2515e-12
-1.58135e-12
-6.70147e-13
2.15961e-12
4.75878e-13
-2.5752e-12
1.47487e-14
2.56045e-12
-2.65163e-12
3.8093e-13
6.33863e-14
1.19914e-13
-6.40528e-13
6.40528e-13
-2.32828e-12
-2.46919e-13
-1.89957e-14
2.34355e-12
-2.32455e-12
-3.51923e-14
-2.0918e-12
-1.987e-12
-1.08907e-12
-1.83329e-12
1.84804e-12
-3.18418e-14
6.92685e-13
-6.60843e-13
-4.92018e-13
-1.86513e-12
-1.21842e-14
4.09366e-13
-3.97182e-13
-7.56146e-13
-2.60898e-14
-2.29374e-12
-2.68415e-13
-1.37308e-12
1.64149e-12
8.56646e-15
-3.37787e-14
2.52123e-14
2.35672e-12
-1.88084e-12
-2.87304e-12
-7.46623e-14
2.9477e-12
8.32066e-13
-8.32066e-13
9.98243e-13
1.13496e-13
5.27032e-13
2.77294e-13
2.62885e-12
-2.90614e-12
-3.94329e-14
1.48737e-13
-1.27644e-12
1.95299e-12
2.21119e-14
5.86263e-14
-8.07382e-14
-7.80061e-13
2.56666e-13
-3.12971e-12
-2.23154e-12
6.92685e-13
-2.25087e-12
2.17621e-12
-2.0496e-13
2.0496e-13
2.0883e-12
-2.17144e-13
-1.88879e-12
2.16608e-12
-8.12717e-15
3.0239e-14
3.08264e-13
-3.62965e-13
5.47012e-14
-2.13931e-13
-2.03694e-12
7.64847e-13
-8.00039e-13
8.57208e-13
-8.76204e-13
-7.78689e-14
5.92152e-13
-5.14283e-13
4.05927e-14
-1.92938e-12
1.47059e-13
-1.89887e-13
1.89572e-13
-4.25123e-14
2.6323e-12
-1.14515e-12
9.31223e-13
-1.57518e-13
1.12906e-13
4.46122e-14
-7.55014e-13
7.95607e-13
-4.40456e-13
2.33099e-12
-1.89053e-12
-1.70416e-12
1.92873e-12
2.27621e-13
8.7658e-14
2.25589e-12
8.56648e-15
-1.6027e-12
1.09198e-12
1.15951e-12
2.69896e-12
1.2776e-13
-2.82672e-12
-1.19966e-13
-3.75522e-14
-2.68187e-12
-1.27789e-13
2.80966e-12
2.26131e-12
-8.51071e-14
2.12082e-12
4.52591e-14
7.70398e-13
-1.51544e-13
-1.26049e-13
2.77593e-13
-3.0239e-14
7.28989e-14
-4.26599e-14
3.37787e-14
-7.32116e-14
2.21325e-12
-2.24858e-12
3.53378e-14
2.1796e-12
-2.13353e-12
-4.60775e-14
-8.12722e-15
7.64186e-14
-3.61774e-13
-6.15009e-13
1.5672e-13
2.15783e-13
-2.58295e-13
8.78067e-14
-1.11305e-13
1.86913e-12
9.78988e-14
-1.47098e-12
3.02695e-12
1.50137e-13
-2.47842e-12
1.44654e-14
2.01317e-13
-1.715e-12
3.2568e-13
-4.43191e-14
-4.16385e-13
5.14283e-13
2.4597e-12
-1.78571e-12
-1.43669e-13
-1.56016e-12
1.67366e-12
8.46116e-13
-9.31223e-13
8.40866e-13
-7.95607e-13
1.56362e-12
-1.9695e-13
-2.46076e-14
2.21558e-13
-1.19966e-13
-3.61774e-13
5.92152e-13
-4.65333e-13
-1.72872e-12
-1.14515e-12
8.46116e-13
8.40866e-13
5.03811e-14
-1.0776e-13
1.48634e-12
-1.37858e-12
-7.55014e-13
-3.22999e-13
-6.23294e-14
-7.32115e-14
-6.60843e-13
3.75524e-14
3.6827e-13
8.57208e-13
1.45628e-13
3.24039e-13
-4.69667e-13
2.92058e-13
2.29249e-13
2.24032e-12
3.15653e-13
4.74994e-13
1.30748e-13
-4.19272e-13
2.88524e-13
1.19758e-13
2.15447e-12
-2.6198e-12
8.49942e-14
-2.91565e-12
2.89142e-12
4.19272e-13
-5.27032e-13
7.28989e-14
1.27939e-13
9.08328e-13
3.77854e-13
-1.13589e-12
2.89399e-13
2.46923e-12
3.5045e-13
-2.49459e-13
2.24852e-13
2.77736e-13
-7.04364e-15
-2.42416e-13
3.57403e-13
-2.11775e-13
-4.16385e-13
8.76204e-13
2.30707e-13
1.89576e-13
-4.20283e-13
8.00039e-13
3.16995e-13
9.01658e-14
1.34686e-13
1.61468e-13
1.3059e-13
-1.17091e-14
-6.86905e-14
1.58221e-13
-1.58221e-13
2.65712e-13
-1.86572e-12
-2.24917e-12
6.00428e-15
-3.68969e-13
-1.56021e-13
1.56021e-13
-1.27939e-13
-4.79998e-13
-2.43447e-13
2.17144e-13
2.63029e-14
2.43447e-13
-8.74262e-14
3.32194e-13
2.65712e-13
-2.34572e-12
-3.72801e-13
4.85707e-13
9.02963e-14
-1.42824e-14
-7.60139e-14
7.85872e-14
2.95075e-13
2.19295e-13
2.02695e-13
-4.2199e-13
-8.93096e-14
3.08605e-13
-1.13878e-12
2.4508e-13
-2.59362e-13
3.4752e-13
-2.57354e-13
2.20066e-13
-1.26986e-13
-1.75203e-13
1.78369e-12
2.13273e-13
-8.98865e-14
3.68297e-13
-2.78411e-13
-1.01575e-13
3.15136e-13
-1.01863e-13
2.54751e-12
1.65323e-13
1.49813e-13
-1.21941e-13
2.97907e-12
-3.94279e-13
2.92416e-13
-3.49249e-13
-2.18756e-13
3.80224e-13
-4.67596e-14
2.87806e-13
1.2156e-13
-3.52148e-13
9.47934e-14
6.81262e-13
-4.78567e-13
-4.0644e-14
9.59344e-13
-2.39861e-12
1.43926e-12
6.15517e-13
-6.15517e-13
-5.64287e-13
5.64287e-13
-6.71052e-13
6.71052e-13
6.70494e-13
-6.70494e-13
7.34125e-13
-7.39993e-13
-3.77689e-13
-2.86877e-13
6.64566e-13
9.55895e-13
-5.40751e-13
5.00107e-13
-9.39295e-13
9.39295e-13
-9.12263e-13
-9.09076e-13
9.09076e-13
-1.87665e-13
1.52127e-12
-1.3336e-12
4.17418e-13
-1.40511e-13
-9.11603e-13
1.05211e-12
-5.76837e-13
5.76837e-13
-3.60518e-13
2.20971e-12
-1.84919e-12
-1.09927e-12
-2.64486e-12
5.898e-14
-1.06997e-12
-1.01728e-12
2.03797e-12
7.99158e-13
-1.68552e-12
2.79742e-12
1.00116e-12
-2.23516e-13
-5.55354e-14
1.06206e-13
1.32481e-12
3.05068e-13
-4.34791e-13
-1.47561e-12
1.9104e-12
1.08648e-12
-1.83612e-12
-9.34822e-14
-1.25496e-14
2.00118e-14
-9.54985e-13
-1.44362e-12
1.25473e-12
-2.05064e-12
-3.59658e-12
1.25372e-12
-5.4459e-13
-1.23133e-12
1.77592e-12
-2.68974e-13
-4.37495e-13
1.43335e-13
2.94159e-13
-1.98821e-12
-1.88012e-13
1.88012e-13
-6.82536e-14
8.96628e-14
1.02101e-12
-4.92111e-15
-1.56364e-14
2.66207e-15
-1.85185e-12
-2.28878e-12
1.98555e-12
-1.68048e-12
9.9842e-13
-2.25315e-12
5.67629e-13
2.6749e-12
1.72986e-12
9.5182e-13
-3.90795e-13
-1.58015e-12
6.56912e-13
1.46813e-12
-1.14304e-12
-1.99613e-12
2.25132e-13
6.6814e-13
-2.24949e-12
-1.95453e-12
1.7489e-12
2.31648e-12
2.12032e-12
-2.52045e-12
4.00128e-13
-7.11909e-13
-2.35785e-13
-5.02545e-13
-2.28433e-13
-7.11909e-13
-4.99483e-13
-3.11858e-12
-2.81289e-13
3.39987e-12
3.06483e-13
8.00107e-13
1.08513e-12
3.61445e-15
1.63973e-14
-6.49486e-13
6.49486e-13
2.17227e-12
5.01866e-13
1.01729e-12
1.39846e-12
-1.96451e-12
-2.35028e-12
4.98427e-13
2.73988e-13
1.22013e-13
3.4127e-13
-5.15957e-13
1.74687e-13
-1.39503e-13
1.88067e-14
-1.35241e-12
3.67573e-13
-2.35338e-12
2.07209e-12
-9.74961e-14
-1.49035e-13
1.8903e-12
-4.92115e-15
-9.759e-13
3.61447e-15
-1.74663e-12
4.27252e-13
-1.16678e-13
4.57933e-13
-9.77548e-13
2.41681e-12
4.68048e-13
-1.96774e-12
-7.91693e-13
-1.15709e-12
-7.59712e-13
-2.03486e-14
1.31889e-12
6.34104e-13
-1.35072e-13
-1.85999e-13
6.27835e-13
7.36371e-14
6.20433e-13
3.7781e-13
1.81732e-12
2.55013e-12
2.96089e-14
-4.67103e-13
9.29803e-14
-7.59712e-13
-5.30447e-14
7.8257e-14
-4.15719e-13
1.28842e-13
1.79394e-12
1.13336e-12
-2.01858e-12
6.20433e-13
8.00107e-13
4.26174e-13
2.79871e-12
2.93148e-13
9.56924e-14
-1.56438e-12
-5.33027e-16
5.33027e-16
-5.07637e-14
2.4068e-12
5.07836e-16
-5.07836e-16
2.02311e-12
-3.03571e-14
1.61586e-15
2.06956e-12
-5.33049e-16
5.07841e-16
2.38692e-12
-5.92985e-13
-1.69945e-12
3.68781e-13
-2.24165e-12
4.71184e-14
3.11386e-14
1.52584e-12
-1.58137e-12
-3.64527e-15
-2.38254e-13
-2.77703e-13
2.29885e-13
-2.78004e-13
4.51274e-15
-3.48698e-14
1.89638e-13
-1.40487e-12
1.39232e-12
2.81371e-13
3.24462e-13
1.12155e-13
-2.4316e-12
-1.09012e-12
1.61631e-13
1.79931e-13
2.05175e-12
9.09946e-15
-8.63507e-15
6.82095e-13
-1.1235e-12
-3.13641e-13
-2.68222e-12
-3.07132e-13
-1.63585e-12
-7.70106e-14
1.32774e-12
-1.42668e-12
9.73082e-14
5.4542e-15
-4.12231e-15
1.24003e-13
-7.92579e-13
-5.57062e-13
-2.70632e-13
)
;

boundaryField
{
    front
    {
        type            empty;
        value           nonuniform List<scalar> 0();
    }
    back
    {
        type            empty;
        value           nonuniform List<scalar> 0();
    }
    bottom
    {
        type            calculated;
        value           nonuniform List<scalar> 
12
(
-9.47694e-13
-2.63549e-12
2.19406e-12
-2.19618e-12
1.26664e-12
2.88524e-13
-2.89399e-13
2.21617e-12
2.63447e-12
-2.21303e-12
-1.26577e-12
9.47694e-13
)
;
    }
    left
    {
        type            calculated;
        value           uniform 0;
    }
    top
    {
        type            calculated;
        value           uniform 0;
    }
    right
    {
        type            calculated;
        value           uniform 0;
    }
    inner_arc
    {
        type            calculated;
        value           uniform 0;
    }
}


// ************************************************************************* //
