/*--------------------------------*- C++ -*----------------------------------*\
  =========                 |
  \\      /  F ield         | OpenFOAM: The Open Source CFD Toolbox
   \\    /   O peration     | Website:  https://openfoam.org
    \\  /    A nd           | Version:  9
     \\/     M anipulation  |
\*---------------------------------------------------------------------------*/
FoamFile
{
    format      ascii;
    class       volVectorField;
    location    "0.65";
    object      U;
}
// * * * * * * * * * * * * * * * * * * * * * * * * * * * * * * * * * * * * * //

dimensions      [0 1 -1 0 0 0 0];

internalField   nonuniform List<vector> 
578
(
(3.05358e-05 3.78871e-05 0)
(2.39854e-05 3.45686e-05 -9.33238e-23)
(4.71762e-05 5.71587e-05 0)
(-2.10835e-06 -6.13534e-06 3.03782e-24)
(8.80984e-06 -1.88655e-05 0)
(2.17223e-05 -8.26044e-06 -4.59125e-23)
(9.10132e-06 1.93762e-05 -8.92295e-24)
(9.14667e-06 -1.6686e-05 -7.73211e-23)
(4.68258e-05 -7.62436e-05 0)
(1.23418e-05 2.11502e-05 1.16021e-22)
(3.27189e-05 -1.32315e-05 3.20978e-23)
(3.20047e-05 -6.14552e-05 -4.8426e-24)
(-2.36397e-06 -6.51652e-07 0)
(3.32071e-05 -6.79151e-05 9.59153e-23)
(3.34673e-05 6.79301e-05 0)
(5.92763e-05 -6.82912e-05 4.67597e-24)
(4.10041e-05 2.15871e-05 2.5437e-23)
(5.04046e-05 4.69091e-05 -7.88142e-23)
(2.8657e-05 -5.51228e-05 2.32233e-23)
(5.1035e-05 -7.49599e-05 4.86098e-23)
(-3.07317e-06 -8.12058e-06 -3.12781e-24)
(4.94547e-05 -6.25254e-05 1.27734e-23)
(2.46743e-05 -1.244e-05 -3.66486e-23)
(2.02821e-06 1.2119e-05 -3.71657e-24)
(6.3354e-07 1.14752e-05 0)
(2.79249e-05 -5.66545e-05 5.02165e-24)
(-1.87453e-06 6.23046e-06 0)
(-7.1073e-07 4.97494e-06 -5.11416e-25)
(2.84742e-05 2.99212e-05 5.97244e-23)
(5.92041e-05 -6.92331e-05 0)
(-1.42516e-06 8.07709e-06 6.08954e-24)
(1.4756e-05 -8.15435e-06 -5.11544e-24)
(5.97435e-05 -7.13487e-05 3.49279e-24)
(-8.25192e-07 1.38029e-05 -2.46556e-24)
(2.91266e-05 6.02142e-05 -8.09751e-23)
(5.09261e-05 -5.79696e-05 -1.56464e-23)
(2.88935e-05 -5.97197e-05 -8.45758e-23)
(2.66868e-05 -5.14087e-05 0)
(5.67697e-05 6.57388e-05 8.15003e-26)
(1.45691e-05 -3.04974e-05 0)
(1.5273e-05 -3.35996e-05 8.13944e-23)
(1.64548e-05 -2.87229e-05 4.23887e-23)
(1.4679e-05 -2.84424e-05 9.74073e-23)
(2.86789e-05 5.88327e-05 -2.82537e-24)
(3.52915e-05 -3.8541e-05 0)
(1.48819e-05 3.12861e-05 3.47524e-24)
(1.54366e-05 3.4312e-05 8.95175e-23)
(4.11305e-05 -6.79174e-05 3.62416e-23)
(5.75595e-05 6.70183e-05 -8.31589e-26)
(-2.75097e-06 5.73899e-06 0)
(2.28027e-06 1.76121e-06 2.81248e-24)
(-2.12442e-06 -1.00228e-06 1.28864e-25)
(2.87045e-05 -1.74226e-05 6.33488e-23)
(-1.72744e-06 1.34297e-05 2.43845e-24)
(-7.46887e-07 -6.79482e-08 0)
(2.08466e-05 4.10671e-06 -1.95101e-23)
(1.05012e-05 -3.69722e-06 -4.97537e-24)
(1.99178e-05 -1.89451e-05 0)
(5.29763e-05 4.02533e-05 4.09789e-23)
(3.26014e-05 -3.65317e-05 -1.80972e-23)
(5.56783e-05 5.07852e-05 2.24032e-23)
(2.2539e-05 1.24497e-05 4.34714e-23)
(3.07231e-05 2.79548e-05 5.85996e-23)
(2.88202e-05 -5.95543e-05 -4.48879e-23)
(-3.3506e-06 4.72809e-07 -2.09198e-24)
(3.56858e-05 6.8661e-05 4.46591e-23)
(5.61859e-05 -7.19228e-05 -3.06048e-23)
(3.90009e-05 -2.03635e-05 0)
(5.93778e-05 -6.1643e-05 4.85131e-24)
(3.37262e-05 -7.1019e-05 -3.20493e-23)
(-4.46263e-07 1.24255e-05 0)
(6.7942e-06 -7.358e-09 -7.90049e-23)
(-2.90644e-06 -5.78559e-08 4.34513e-24)
(3.50015e-05 -7.12975e-05 -8.48351e-23)
(2.01544e-05 3.56812e-07 0)
(8.58097e-06 -1.80776e-05 -4.47775e-23)
(4.16347e-05 -6.38615e-05 -1.16948e-22)
(3.32773e-05 -5.09204e-05 6.53116e-23)
(-3.46069e-06 -6.95191e-07 -2.08055e-24)
(2.83877e-05 3.14194e-05 2.10831e-23)
(4.49574e-05 -4.92721e-05 -9.25034e-23)
(1.56841e-05 2.14818e-05 -1.33141e-22)
(1.11908e-05 -1.72375e-05 -1.44778e-22)
(1.53248e-05 -2.13835e-05 0)
(5.29475e-05 7.07881e-05 1.80964e-23)
(1.07145e-05 2.65876e-05 -8.89645e-23)
(2.06456e-06 -6.42395e-07 0)
(2.84813e-05 5.48998e-06 -5.77886e-24)
(2.35326e-05 -4.99315e-05 6.89989e-23)
(2.42002e-05 5.52503e-05 4.10442e-25)
(-2.53856e-06 7.98921e-06 -5.97669e-24)
(4.40187e-05 6.22614e-05 1.63893e-25)
(2.35181e-05 5.0742e-05 6.84905e-23)
(-3.59009e-06 -2.48328e-06 5.47611e-25)
(6.13805e-05 -6.64114e-05 -5.44733e-24)
(5.03515e-05 -6.05814e-05 0)
(-1.49206e-06 9.10236e-09 -2.46367e-24)
(-1.18199e-06 -2.26269e-07 0)
(5.26923e-06 8.20951e-06 2.93659e-23)
(3.38162e-05 6.8752e-05 -8.11187e-23)
(3.19159e-05 5.97441e-05 -5.03659e-24)
(3.10697e-05 -6.77718e-05 -3.57085e-23)
(-3.05925e-06 1.83048e-06 0)
(4.44636e-05 4.91272e-05 0)
(-4.10936e-07 1.31003e-07 -1.12565e-24)
(3.36254e-05 -6.88493e-05 -8.3812e-23)
(1.7421e-05 -6.53552e-07 0)
(1.53773e-05 -3.26788e-05 -5.38177e-23)
(5.0039e-06 1.37407e-05 5.52103e-23)
(1.68718e-05 -3.39597e-05 1.05333e-22)
(4.96193e-05 -6.21883e-05 -2.00784e-23)
(3.2116e-05 -6.79502e-05 -2.55964e-23)
(5.54205e-05 -7.3812e-05 -3.46804e-24)
(5.79889e-05 -5.56594e-05 6.98121e-24)
(5.79957e-05 -6.3202e-05 -6.94097e-24)
(-2.21628e-06 1.02895e-06 -4.27233e-24)
(-2.64088e-06 -5.40932e-06 0)
(5.61435e-05 5.45994e-05 1.50273e-23)
(2.07557e-05 4.61377e-05 0)
(-1.14808e-06 2.19444e-07 -2.48275e-24)
(2.23354e-05 -4.51176e-05 6.49223e-23)
(2.53779e-05 -3.60448e-05 0)
(3.23554e-05 -6.38031e-05 8.71519e-24)
(-1.89323e-06 -8.61204e-06 -1.89896e-25)
(2.31862e-05 -3.21053e-05 0)
(2.72058e-05 6.75096e-05 1.99806e-23)
(3.67319e-05 -4.20082e-05 9.33358e-23)
(5.50023e-05 -6.16341e-05 -3.82213e-24)
(3.50513e-05 7.13947e-05 -7.52234e-23)
(2.44391e-05 6.90488e-05 0)
(3.41232e-05 6.81177e-05 8.93876e-23)
(2.71953e-05 6.96742e-05 0)
(-3.24602e-06 -3.4976e-06 1.7831e-24)
(5.53551e-06 -1.11991e-05 -5.11378e-23)
(3.39822e-05 7.04308e-05 -8.03646e-23)
(3.13716e-05 5.53989e-05 0)
(2.73059e-05 -5.03664e-05 1.0247e-22)
(-2.26286e-06 5.55807e-07 4.30699e-24)
(5.74526e-05 -5.07041e-05 -2.00973e-25)
(2.86547e-05 5.52847e-05 -7.4644e-23)
(1.2895e-05 2.39333e-05 0)
(2.44769e-05 6.80567e-05 0)
(2.39326e-05 4.57617e-05 0)
(1.08007e-06 -1.15596e-05 0)
(1.2075e-05 -2.37529e-05 6.42572e-23)
(5.81533e-05 7.16918e-05 0)
(2.02448e-05 4.62378e-05 4.52775e-23)
(-3.99044e-07 7.75815e-07 -1.43153e-23)
(3.51011e-05 -7.08906e-05 0)
(2.3408e-05 6.39042e-05 0)
(4.01276e-05 -7.54363e-05 0)
(1.16564e-05 1.69719e-05 -5.75229e-24)
(1.33875e-05 -1.435e-05 9.21347e-23)
(1.0212e-05 -2.06958e-05 4.64995e-23)
(3.68246e-05 7.24154e-05 -2.4966e-24)
(-1.57662e-06 3.69842e-06 -9.09691e-24)
(4.24031e-05 3.41505e-05 -6.72705e-23)
(-1.06433e-06 -1.64284e-06 2.93398e-24)
(1.10804e-05 1.19138e-05 3.30611e-23)
(4.16237e-05 -7.65553e-05 0)
(3.562e-05 -6.87438e-05 0)
(3.20073e-05 -5.96412e-05 0)
(6.71261e-06 1.24699e-05 0)
(3.55338e-05 -6.46457e-05 1.20009e-24)
(3.9868e-07 -4.27662e-06 0)
(2.45942e-05 6.03831e-05 -2.50966e-23)
(1.92118e-07 -7.87696e-06 0)
(3.15659e-05 6.05283e-05 -6.94996e-25)
(-3.81096e-07 -7.36716e-07 0)
(-5.64803e-06 6.30963e-06 0)
(3.31004e-05 -5.66304e-05 7.49449e-23)
(1.4922e-05 -2.71635e-05 0)
(1.73006e-05 3.0148e-05 0)
(1.00336e-05 2.00111e-05 -8.82244e-25)
(2.65901e-05 5.00743e-05 0)
(-4.59717e-06 8.95371e-07 0)
(-5.52867e-06 8.92331e-08 1.96927e-24)
(5.69261e-05 4.48073e-05 -4.73726e-24)
(1.91023e-05 -3.29794e-05 -7.07016e-23)
(6.60555e-06 -1.52429e-07 0)
(1.47443e-05 2.71081e-05 7.29397e-25)
(3.6786e-05 5.15155e-05 9.56317e-23)
(1.78051e-05 4.91875e-05 0)
(-4.75407e-06 -1.03598e-06 -2.94871e-24)
(3.79285e-05 6.42409e-05 0)
(-1.56977e-07 1.35223e-07 7.70757e-24)
(2.0003e-05 -2.47948e-05 5.6436e-24)
(3.51616e-05 7.20221e-05 7.89711e-23)
(3.82442e-05 7.42192e-05 0)
(2.34911e-06 -1.66152e-06 0)
(3.80555e-05 -7.40467e-05 0)
(2.99685e-05 -5.51536e-05 8.77771e-23)
(3.23234e-05 -4.34089e-05 -1.37509e-23)
(2.82395e-05 5.29107e-05 6.81737e-25)
(2.17481e-05 3.30467e-05 8.77209e-23)
(-7.44827e-06 1.71663e-06 5.69817e-24)
(-5.91989e-07 -1.94577e-06 -1.05844e-23)
(-5.96287e-07 1.97836e-06 -1.5828e-23)
(2.96316e-05 5.47148e-05 0)
(2.8451e-05 -5.29954e-05 0)
(-1.67452e-07 -1.4984e-07 0)
(-4.82832e-06 -2.26331e-06 1.17175e-24)
(1.41802e-05 -2.23046e-05 1.31499e-22)
(-6.82039e-06 3.62429e-06 -5.47648e-24)
(-6.49881e-06 3.92772e-07 -1.46601e-24)
(3.2517e-05 -6.10574e-05 -1.8419e-22)
(3.51499e-05 6.47855e-05 0)
(2.92641e-05 3.81192e-05 2.18944e-24)
(3.86337e-05 -7.59318e-05 0)
(1.78261e-05 2.08246e-05 -3.1511e-23)
(1.55813e-05 3.51466e-05 -2.07443e-23)
(3.88522e-05 7.60376e-05 0)
(3.17687e-05 6.61714e-05 0)
(-6.85369e-06 -1.43659e-06 2.4383e-25)
(2.67654e-05 5.348e-05 0)
(-2.31001e-06 -1.05554e-05 6.98071e-25)
(3.33219e-05 6.31746e-05 0)
(3.34314e-05 -6.3215e-05 -3.4083e-25)
(3.77359e-05 7.48647e-05 9.00315e-23)
(8.10557e-06 1.71186e-05 0)
(3.75498e-05 -7.45283e-05 9.63316e-23)
(3.00606e-05 5.76093e-05 8.25325e-23)
(1.90528e-05 -4.04175e-05 -9.1925e-23)
(1.65556e-05 -3.06842e-05 -8.65007e-23)
(1.55722e-05 2.85722e-05 0)
(1.89224e-05 3.9676e-05 5.12981e-25)
(-7.06222e-06 -6.55352e-07 -1.45556e-24)
(-2.59583e-07 -5.93318e-07 0)
(-2.61636e-07 6.28543e-07 1.08574e-23)
(9.85879e-07 -2.64997e-06 6.13228e-23)
(9.37477e-06 1.51989e-05 0)
(5.08573e-06 -7.47856e-06 1.17516e-22)
(5.37711e-06 1.05991e-05 7.04519e-25)
(2.09931e-05 -5.84287e-05 0)
(2.1128e-05 5.84518e-05 0)
(1.11506e-05 -1.82405e-05 -3.99255e-23)
(8.28748e-06 -1.53011e-05 -7.33722e-23)
(8.29966e-06 1.517e-05 -7.23768e-23)
(-2.50279e-06 -1.6564e-06 -6.54087e-25)
(1.55946e-05 -3.54311e-05 0)
(7.31396e-06 1.35677e-05 -7.09287e-23)
(7.63408e-06 -1.28958e-05 -8.25181e-23)
(-7.31436e-06 2.64454e-06 5.91064e-25)
(1.37901e-05 2.5512e-05 -1.40443e-24)
(-3.3152e-07 1.44529e-06 2.32463e-23)
(6.13228e-06 -1.26162e-05 -6.4975e-23)
(6.23357e-06 1.17902e-05 0)
(5.66656e-06 7.48845e-06 0)
(9.13374e-06 1.50721e-05 0)
(-4.17279e-06 1.11802e-05 1.31255e-25)
(-7.42858e-06 -1.40093e-06 0)
(3.03048e-05 6.96939e-05 7.22559e-25)
(1.40659e-05 -1.46163e-05 7.43721e-23)
(5.43304e-06 -1.44572e-05 0)
(8.78151e-07 2.76053e-06 0)
(2.4184e-05 -6.80107e-05 -1.54937e-23)
(1.08014e-06 -6.04468e-06 -8.00028e-23)
(4.14239e-05 7.68567e-05 -4.26532e-23)
(8.8459e-06 -1.62487e-05 -5.96946e-23)
(5.55486e-06 -7.14409e-06 -1.52996e-22)
(8.1392e-06 -1.72997e-05 2.54297e-23)
(7.79659e-06 1.43032e-05 -5.84285e-25)
(-3.82861e-07 -1.46289e-06 1.78832e-23)
(-7.8229e-07 -3.62678e-06 -2.22921e-23)
(3.80337e-05 4.84517e-05 -1.42539e-22)
(2.40234e-05 -5.17923e-05 3.77708e-23)
(1.14999e-05 -3.18332e-05 0)
(3.13751e-06 -7.35397e-06 -2.05286e-23)
(2.15733e-06 7.31536e-07 -1.49489e-24)
(1.32548e-06 -6.60397e-06 0)
(1.35052e-06 6.62263e-06 0)
(2.75513e-05 6.66651e-05 0)
(1.60248e-05 -4.2099e-05 0)
(-6.12016e-06 5.35078e-09 3.91716e-25)
(-5.96167e-06 -3.07195e-06 -2.78536e-25)
(-5.29875e-06 5.01533e-06 3.11225e-26)
(-3.57535e-06 1.10624e-05 -9.83305e-25)
(3.15566e-06 7.30791e-06 -1.19572e-27)
(1.64101e-05 2.99169e-05 0)
(-2.39105e-06 1.04867e-05 4.50802e-24)
(1.56058e-05 -2.87514e-05 7.2726e-25)
(-5.56993e-06 8.00081e-06 -1.32258e-25)
(-4.94823e-06 -4.30805e-06 0)
(-7.03473e-06 -4.24006e-06 -2.26634e-25)
(-3.5009e-06 6.09394e-06 4.0139e-25)
(1.16522e-05 2.22897e-05 0)
(4.41243e-06 -9.4005e-06 2.37002e-25)
(4.41547e-06 9.24094e-06 -3.23145e-23)
(9.30276e-08 3.68976e-06 8.53073e-24)
(-2.76442e-07 7.90161e-06 2.82503e-24)
(2.01916e-05 -5.72733e-05 7.93331e-24)
(3.11898e-05 6.87174e-05 0)
(-5.46457e-06 7.8762e-06 2.63138e-24)
(8.86802e-06 1.57603e-05 -6.39017e-23)
(-3.32087e-07 -3.24652e-06 2.08572e-24)
(-7.26804e-07 -5.35403e-06 -3.02559e-24)
(7.85567e-06 -1.45364e-05 0)
(2.4153e-05 -6.90209e-05 2.8881e-23)
(-3.71026e-07 -8.27271e-06 -3.54366e-23)
(-6.68334e-07 -7.21075e-06 3.91008e-25)
(-3.04773e-06 1.23353e-05 -4.59328e-24)
(2.03456e-05 5.71697e-05 0)
(-2.8164e-07 -4.75342e-06 1.15038e-23)
(-6.03408e-09 -4.48632e-06 1.92994e-23)
(-4.02183e-07 -2.53791e-06 8.09386e-24)
(-3.18697e-07 4.96753e-06 -1.01812e-23)
(2.31436e-05 -6.40105e-05 -1.12265e-23)
(7.75716e-06 -4.45628e-06 0)
(9.57378e-07 2.56863e-06 -3.7851e-25)
(-2.00856e-06 1.79635e-06 -4.45778e-25)
(2.01989e-05 -4.66294e-05 0)
(1.08524e-05 -3.85318e-06 0)
(7.96344e-06 -8.42449e-07 -1.1846e-24)
(1.6091e-05 4.19304e-05 -1.05468e-27)
(2.07021e-06 7.47597e-06 -1.06944e-23)
(-5.06886e-06 -8.32011e-06 4.72835e-24)
(2.85835e-05 6.38134e-05 0)
(5.45807e-06 1.44235e-05 1.50049e-27)
(1.15646e-05 3.18023e-05 0)
(-1.79953e-07 1.10272e-05 1.33845e-23)
(2.38167e-05 5.03169e-05 0)
(-3.06284e-06 -3.77582e-06 5.10364e-24)
(-6.39714e-06 6.49954e-06 -2.99797e-24)
(5.54598e-06 1.00174e-05 6.52507e-24)
(-6.36928e-06 2.49959e-06 4.9691e-24)
(-1.08962e-06 -8.16749e-06 -4.70256e-24)
(4.01405e-05 7.56253e-05 0)
(2.52613e-05 4.7472e-05 0)
(3.69914e-05 -7.18042e-05 8.93716e-23)
(1.95314e-06 -7.15784e-06 1.4183e-23)
(-4.3795e-06 2.01176e-06 1.21474e-24)
(4.38653e-05 7.5684e-05 0)
(3.51282e-06 -1.78039e-06 -2.71503e-24)
(-1.89581e-06 -1.16949e-05 1.77272e-24)
(2.17728e-05 4.31592e-05 0)
(5.48105e-06 7.34246e-06 2.54123e-24)
(-5.84625e-06 -6.34946e-06 2.6375e-25)
(-3.54243e-06 -1.13908e-05 -3.7626e-24)
(3.42357e-06 -1.09675e-05 0)
(-4.09307e-06 9.29766e-06 0)
(-5.8406e-06 -7.86568e-06 0)
(-6.97234e-06 -4.54962e-06 1.45194e-24)
(1.65152e-05 -2.36137e-06 -1.76493e-23)
(3.74555e-06 -8.13366e-06 1.78712e-24)
(9.3663e-06 3.28662e-06 -3.33637e-24)
(4.48335e-05 -5.93374e-05 0)
(5.74104e-05 -3.09126e-05 -2.33255e-23)
(5.31294e-06 1.19943e-05 -2.44833e-23)
(5.22481e-06 -1.15308e-05 2.81191e-23)
(5.91232e-06 1.27821e-05 -3.15884e-23)
(6.08656e-06 -1.29569e-05 -4.72264e-23)
(6.47667e-06 -1.2968e-05 0)
(6.59134e-06 1.30844e-05 2.02703e-23)
(1.34378e-05 -4.98146e-06 0)
(7.18293e-06 -1.59146e-05 0)
(7.1766e-06 1.64555e-05 0)
(1.45057e-05 2.56596e-06 -1.70617e-24)
(8.179e-06 1.71674e-05 -3.16288e-23)
(9.92414e-06 -1.85745e-05 -7.50197e-23)
(9.75267e-06 1.82693e-05 -1.83459e-23)
(3.97069e-05 1.27417e-06 1.28649e-24)
(9.45186e-06 2.59695e-06 0)
(2.64973e-05 -5.11575e-07 1.21135e-23)
(4.78394e-06 -1.20437e-05 0)
(1.94656e-05 -3.43329e-08 8.48093e-24)
(5.87583e-05 -1.4612e-06 0)
(3.15132e-05 7.49711e-07 -1.23895e-24)
(5.41787e-05 -5.0133e-05 1.27532e-22)
(-5.26365e-06 -5.23373e-06 -3.26619e-26)
(1.73985e-05 1.81367e-05 0)
(3.07467e-05 -6.44598e-05 7.43324e-23)
(1.58188e-05 1.17454e-05 -3.06342e-23)
(3.29482e-05 3.83758e-05 1.9122e-23)
(5.58665e-05 -4.01436e-05 -3.47418e-23)
(5.77397e-05 7.08619e-05 -1.37771e-23)
(1.64302e-05 -1.07393e-05 4.84596e-23)
(-5.17942e-06 3.07452e-06 -5.58087e-24)
(1.10604e-05 2.44559e-05 0)
(1.10674e-05 -2.40722e-05 -3.7697e-23)
(4.44676e-05 1.47296e-05 -3.07969e-23)
(-6.68346e-07 7.23728e-08 3.91205e-24)
(1.19804e-05 -2.60784e-05 2.08664e-23)
(1.21031e-05 2.60561e-05 0)
(4.97391e-05 -7.68693e-06 -3.63402e-24)
(4.24623e-05 -4.56256e-06 -1.91402e-23)
(5.42987e-05 2.7173e-07 -3.89943e-24)
(1.87613e-05 -2.41033e-07 6.47625e-24)
(1.50432e-05 3.25875e-05 0)
(1.64924e-05 3.28909e-05 -1.32545e-23)
(9.93821e-06 -2.29226e-05 0)
(-3.98056e-07 -1.39174e-07 0)
(5.8489e-05 -1.79544e-05 0)
(5.86044e-05 -1.49607e-05 -2.69824e-23)
(2.42978e-05 -6.05955e-05 0)
(5.86475e-05 6.42005e-05 4.55449e-24)
(4.58003e-05 -7.13626e-06 1.51651e-23)
(3.51266e-05 -2.88164e-05 0)
(2.94075e-06 -1.20219e-05 1.37605e-23)
(5.54217e-05 -5.74866e-06 -2.99758e-24)
(2.11802e-07 7.29213e-06 0)
(5.37307e-05 6.32108e-05 -1.78709e-23)
(7.74332e-07 6.03982e-06 0)
(3.6805e-05 2.60451e-06 -4.69512e-24)
(2.254e-05 2.21587e-05 0)
(-5.27313e-07 2.5164e-07 1.44043e-24)
(5.93869e-05 1.02042e-05 2.24021e-24)
(5.21516e-05 -4.57239e-05 -3.11563e-23)
(5.46815e-05 1.96644e-05 -1.16437e-23)
(4.89586e-05 -1.76736e-05 3.67996e-24)
(5.16531e-05 -3.52514e-05 0)
(5.76675e-05 8.39839e-06 -2.25186e-24)
(4.92963e-05 5.03989e-05 2.14488e-23)
(1.37278e-05 -2.28705e-06 0)
(2.18554e-05 5.68407e-05 -2.03467e-23)
(5.74464e-05 3.41377e-05 1.17913e-23)
(5.42944e-05 -2.34111e-05 3.48257e-23)
(2.73351e-05 -5.6996e-05 -4.07301e-23)
(2.71266e-05 5.74143e-05 -4.37523e-23)
(3.59109e-05 -7.23155e-05 6.7731e-23)
(-4.23014e-06 5.83141e-06 0)
(3.26305e-05 6.78971e-05 8.69285e-23)
(2.93405e-07 4.2326e-06 0)
(3.52836e-05 -7.02323e-05 -4.00234e-24)
(3.33027e-05 6.77284e-05 4.09762e-23)
(2.99916e-05 6.68867e-05 0)
(2.63815e-05 -6.70158e-05 1.55306e-23)
(1.05998e-05 -2.65225e-05 0)
(2.01706e-05 8.75071e-06 0)
(4.79624e-06 -1.3686e-05 -3.06721e-24)
(2.66698e-05 -6.95996e-05 -1.91585e-23)
(5.01134e-05 7.39189e-05 2.78621e-23)
(2.77735e-05 -2.27515e-06 -1.21318e-23)
(3.06415e-05 -3.7633e-05 -3.32841e-24)
(-4.83698e-07 -2.41227e-07 0)
(5.26911e-06 1.29041e-05 0)
(3.07987e-05 -6.93109e-05 4.44554e-23)
(2.59307e-05 -5.43787e-05 -8.02829e-23)
(5.04941e-05 4.13018e-05 -2.07037e-23)
(1.76906e-05 -4.92545e-05 -1.85582e-25)
(5.72427e-05 2.24224e-05 3.02088e-23)
(5.65006e-05 3.40492e-05 -8.80312e-24)
(-4.70585e-06 -8.37192e-06 0)
(-1.82966e-06 -2.85339e-06 -8.32098e-25)
(-1.24857e-06 -1.34519e-05 -7.46673e-24)
(4.67005e-05 7.64384e-05 6.93024e-23)
(4.32574e-05 7.29798e-06 1.6448e-23)
(-4.99878e-07 -1.21341e-05 1.5361e-23)
(4.1755e-05 5.99467e-05 3.23874e-23)
(3.37365e-05 5.28544e-05 -6.10548e-23)
(-5.07239e-07 3.18528e-06 0)
(3.56588e-05 7.08686e-05 0)
(-8.8413e-08 9.73988e-08 0)
(3.0511e-05 6.54511e-05 -4.529e-23)
(-6.30384e-08 -8.22648e-08 1.64226e-25)
(3.64201e-05 7.32971e-05 -8.36005e-23)
(-1.31175e-06 1.12837e-05 0)
(1.10035e-05 1.29559e-05 4.54183e-23)
(5.34497e-05 -3.01638e-05 1.56572e-23)
(1.44525e-05 4.1004e-06 0)
(5.6765e-05 6.0223e-05 0)
(2.25955e-05 -3.15454e-05 -9.39684e-23)
(1.83231e-05 2.22472e-05 -1.02818e-22)
(4.45444e-05 2.50722e-05 -6.00981e-24)
(9.31507e-06 -2.54643e-05 2.9258e-23)
(2.67912e-05 1.45157e-06 1.93672e-23)
(3.96294e-05 -6.60904e-05 4.06544e-23)
(1.0015e-05 2.64384e-05 2.46624e-23)
(1.87085e-05 -2.19519e-05 0)
(5.18964e-05 1.99028e-05 -2.22584e-23)
(2.8371e-05 -6.45572e-05 2.39108e-24)
(9.76836e-07 -1.34625e-05 2.72628e-24)
(-2.52415e-07 2.14047e-06 6.2091e-24)
(8.42728e-06 1.18936e-05 -4.28392e-23)
(-1.01714e-06 1.74099e-06 1.41604e-24)
(8.98235e-06 -7.8286e-06 -4.04691e-23)
(3.06888e-05 -6.53442e-05 -5.15361e-24)
(2.929e-05 -6.90471e-05 -4.94706e-23)
(7.01041e-06 -9.77845e-06 -4.67364e-23)
(1.20238e-05 -1.68457e-05 2.09583e-24)
(3.79028e-05 -4.77711e-05 -6.09602e-24)
(2.32573e-06 1.25424e-05 0)
(3.52154e-05 -6.65312e-06 3.70235e-23)
(6.09097e-05 6.86386e-05 0)
(4.0133e-06 -9.18399e-06 -1.69049e-23)
(-1.92614e-06 3.16314e-06 8.54757e-24)
(2.11017e-05 -5.62152e-05 2.3607e-23)
(5.02071e-06 -1.05185e-05 1.45599e-23)
(-1.13714e-08 -2.99617e-08 -8.80144e-24)
(-1.20651e-06 6.64736e-07 -2.94384e-24)
(4.04424e-05 6.85617e-05 -6.54709e-23)
(-1.40439e-08 2.45108e-08 0)
(5.46597e-05 7.42041e-05 -8.42009e-24)
(2.71201e-05 -6.69232e-05 -2.38143e-24)
(-1.31178e-06 -1.30563e-06 -3.26833e-24)
(-4.21738e-06 4.25869e-06 0)
(1.05297e-05 2.42048e-05 6.70442e-23)
(-2.0691e-06 1.09234e-05 9.69049e-25)
(3.2821e-05 6.98449e-05 6.43718e-23)
(2.79017e-08 1.63967e-09 5.68736e-24)
(2.7344e-08 7.72686e-11 2.88083e-25)
(3.52675e-05 -7.13321e-05 -4.09929e-23)
(5.08771e-05 9.46555e-06 1.45241e-23)
(1.79272e-05 -4.60562e-05 -5.10334e-23)
(-4.90504e-06 -9.68358e-06 0)
(5.96176e-05 6.13563e-05 -9.91375e-24)
(-1.38036e-06 1.49024e-06 -3.06524e-24)
(2.09793e-05 4.53988e-05 -3.124e-23)
(-3.91529e-06 -5.0274e-06 -8.97708e-25)
(1.91122e-05 4.76078e-05 -2.54675e-23)
(-8.83718e-07 8.54394e-07 2.32599e-24)
(-1.74782e-06 -1.29972e-05 -1.48813e-24)
(4.12587e-05 -4.95259e-05 0)
(-1.27334e-06 -1.06996e-05 -4.42978e-25)
(2.23761e-05 5.13599e-05 1.72033e-23)
(2.69351e-05 5.7071e-05 -9.82739e-23)
(-7.93399e-07 7.17615e-06 0)
(3.41953e-05 -6.83793e-05 3.88294e-23)
(2.27274e-05 -5.09639e-05 5.17287e-23)
(6.5291e-06 4.32413e-06 4.70283e-23)
(-7.56874e-07 -6.87318e-07 -2.08666e-24)
(8.99655e-06 7.92099e-06 -6.42039e-24)
(4.32812e-05 -1.70281e-05 -2.14648e-23)
(1.92061e-05 -2.04188e-06 2.16774e-23)
(1.8721e-05 -4.32167e-05 -4.14271e-24)
(2.91721e-05 -6.21373e-05 3.83573e-23)
(-3.6522e-06 -1.12829e-05 0)
(4.34484e-07 -1.31675e-05 -3.01633e-24)
(-1.3998e-06 -3.46927e-06 -5.99723e-25)
(3.87263e-05 -5.90557e-05 -2.47531e-23)
(1.19897e-05 6.19717e-06 -4.83703e-23)
(2.17602e-05 -3.4145e-05 -1.38079e-23)
(3.662e-05 -7.28545e-05 -4.2657e-23)
(-5.68923e-07 3.32627e-06 -2.46563e-23)
(-8.17087e-07 -1.35201e-05 -6.6061e-24)
(4.31922e-05 -3.61986e-05 3.8549e-23)
(1.78303e-05 2.76539e-05 0)
(2.53857e-06 7.67988e-06 -3.07222e-23)
(2.52635e-05 5.40074e-05 3.6355e-23)
(3.81011e-05 4.83036e-05 4.48749e-23)
(-1.13156e-07 8.42237e-08 -5.92702e-24)
(-1.21493e-07 -8.06332e-08 -2.14797e-24)
(3.51918e-05 -2.69257e-05 0)
(1.81188e-05 -2.84448e-05 6.99937e-23)
(2.25808e-05 -4.94969e-05 4.2757e-23)
(2.38526e-05 -2.41739e-05 0)
(3.4734e-07 1.32172e-05 -6.04304e-24)
(3.39845e-06 1.04044e-05 4.59415e-24)
(4.92851e-05 6.06501e-05 -2.95916e-23)
(4.56494e-05 -6.07349e-05 1.5821e-23)
(2.19728e-05 -5.24226e-05 1.70502e-24)
(5.36655e-05 -4.54091e-05 2.84656e-23)
(3.47599e-05 6.81204e-05 -9.485e-23)
(2.8265e-05 -6.49053e-05 0)
(3.73136e-05 5.95602e-05 0)
(5.39901e-05 -3.78075e-05 0)
(3.67274e-05 1.06187e-05 -1.24506e-23)
(4.39599e-05 -7.60787e-05 0)
(8.10402e-06 -7.04077e-06 1.51647e-23)
(-3.18677e-06 -1.24079e-05 -3.06177e-24)
(-2.99758e-06 3.42242e-06 1.18936e-24)
(-2.58039e-06 2.2849e-06 3.92774e-24)
(2.10458e-05 3.45061e-05 2.78296e-23)
(1.95129e-05 -4.24072e-05 5.2462e-24)
(-2.86557e-07 3.42778e-07 8.84008e-25)
(-2.74318e-07 -2.82374e-07 4.67678e-24)
(1.04991e-05 4.0925e-06 -1.50305e-23)
(-1.06241e-06 -5.57178e-07 -5.0515e-25)
(3.63584e-05 1.84642e-05 5.83496e-24)
(-5.22874e-08 8.34795e-08 -9.6667e-25)
(-3.78998e-08 -5.15215e-08 -8.23247e-25)
(3.16742e-05 6.65018e-05 0)
(5.233e-05 6.29329e-05 0)
(4.73677e-05 -3.30673e-05 -4.31395e-23)
(2.78022e-05 1.73581e-05 0)
(5.98173e-05 6.6794e-05 1.06923e-23)
(7.66081e-06 8.23649e-06 0)
(5.36214e-05 6.89444e-05 3.63941e-24)
(4.6226e-05 5.6153e-05 2.42989e-23)
)
;

boundaryField
{
    front
    {
        type            empty;
    }
    back
    {
        type            empty;
    }
    bottom
    {
        type            zeroGradient;
    }
    left
    {
        type            noSlip;
    }
    top
    {
        type            uniformFixedValue;
        uniformValue    
        {
            type            scale;
            scale           
            {
                type            squarePulse;
                start           0.3;
                duration        0.3;
            }
            xScale          
            {
                type            constant;
                value           1;
            }
            value           
            {
                type            constant;
                value           (0 -0.7 0);
            }
        }
        value           uniform (0 -0 0);
    }
    right
    {
        type            noSlip;
    }
    inner_arc
    {
        type            noSlip;
    }
}


// ************************************************************************* //
