/*--------------------------------*- C++ -*----------------------------------*\
  =========                 |
  \\      /  F ield         | OpenFOAM: The Open Source CFD Toolbox
   \\    /   O peration     | Website:  https://openfoam.org
    \\  /    A nd           | Version:  9
     \\/     M anipulation  |
\*---------------------------------------------------------------------------*/
FoamFile
{
    format      ascii;
    class       volScalarField;
    location    "0.7";
    object      p;
}
// * * * * * * * * * * * * * * * * * * * * * * * * * * * * * * * * * * * * * //

dimensions      [0 2 -2 0 0 0 0];

internalField   nonuniform List<scalar> 
578
(
-2.66616e-09
-5.51017e-09
-2.21557e-09
-1.34096e-09
-4.84713e-09
1.44331e-09
3.50564e-09
-3.94322e-09
-3.92248e-09
-7.75898e-09
1.59058e-10
-4.03124e-09
-1.52734e-09
-4.73575e-09
3.18453e-09
-1.24856e-09
-3.13112e-09
-2.85556e-09
-3.21975e-09
-2.97278e-09
-1.31495e-09
-1.03939e-09
-2.17713e-10
-2.66225e-10
-3.02797e-10
-2.89006e-09
-1.75269e-09
-2.03009e-09
-4.2975e-09
-1.07146e-09
-1.82019e-09
1.78299e-09
-2.38473e-09
-1.11829e-09
2.8375e-09
-2.51963e-09
-4.27779e-09
-3.71571e-09
-9.62778e-10
-5.48093e-09
-4.53294e-09
-3.5618e-09
-4.25928e-09
3.33297e-09
-2.09138e-09
4.4062e-09
3.20818e-09
-4.15766e-09
-1.04249e-09
-1.8416e-09
2.92185e-09
-1.53364e-09
2.94396e-09
-1.18532e-09
-1.60548e-09
-3.05364e-09
-2.56053e-10
-4.8617e-10
-2.06527e-09
-3.29662e-09
-3.00572e-09
-3.90545e-09
-3.76623e-09
-5.19621e-09
-1.62527e-09
2.99889e-09
-1.78841e-09
6.84821e-10
1.86664e-10
-2.84804e-09
-9.59064e-10
1.64487e-09
-1.6104e-09
-3.3794e-09
7.45611e-11
-5.51196e-09
-4.71202e-09
-4.06072e-09
-1.59596e-09
1.83219e-09
2.16223e-09
-4.32315e-09
3.74018e-09
3.49493e-09
3.07929e-11
2.56404e-09
3.58223e-09
-2.47349e-09
-3.29931e-09
2.30339e-09
-1.73043e-09
1.01234e-09
2.82008e-09
-1.44872e-09
5.11865e-10
1.76526e-09
-1.61697e-09
-1.61203e-09
-7.40099e-09
3.23358e-09
2.83915e-09
-3.17677e-09
-1.74887e-09
1.34663e-09
-1.67131e-09
-4.6979e-09
2.38822e-10
-5.53295e-09
3.02063e-09
-5.05038e-09
-2.3546e-09
-2.99934e-09
-3.2384e-09
1.1492e-09
1.39455e-09
-1.69432e-09
-1.38547e-09
-3.22465e-09
2.22979e-09
-1.63761e-09
-2.53793e-09
5.30185e-09
-3.59136e-09
-1.37738e-09
2.57525e-09
1.5331e-09
1.55725e-09
-1.1454e-09
2.71686e-09
4.16208e-10
2.80366e-09
1.36653e-09
-1.43916e-09
-2.72036e-09
2.50811e-09
2.3291e-09
-4.71857e-09
-1.6877e-09
3.66509e-10
2.82011e-09
3.08903e-09
8.7008e-10
2.73217e-09
-2.45169e-09
-3.14156e-09
2.50869e-10
1.05061e-09
-1.95299e-09
-3.58048e-09
-2.98596e-11
-4.25159e-09
6.44478e-10
-5.16977e-09
-2.4807e-09
3.19191e-09
-1.84726e-09
-3.56966e-09
-1.39826e-09
3.10398e-09
-4.33934e-09
-4.50099e-09
-4.44757e-09
3.25201e-09
-4.16475e-09
-3.11807e-09
9.12429e-10
-2.58846e-09
3.22741e-09
-1.28098e-09
-1.6149e-09
-3.91282e-09
-4.82853e-09
2.40998e-09
2.09669e-09
3.16006e-09
-1.6601e-09
-1.58767e-09
-3.07753e-09
-4.20692e-09
-4.02073e-09
3.50135e-09
-4.49812e-09
2.01533e-09
-1.58529e-09
2.42363e-09
-1.87371e-09
-1.30373e-09
3.63939e-09
3.08558e-09
-5.21608e-09
-4.46121e-09
-4.38871e-09
1.87292e-10
3.13239e-09
-6.22305e-09
-1.565e-09
-1.11856e-09
-2.04148e-09
2.92841e-09
-4.42929e-09
-1.35242e-09
-1.53224e-09
5.58614e-09
-1.67956e-09
-1.62083e-09
-4.46181e-09
2.79296e-09
-9.67945e-10
-4.3742e-09
-3.59208e-10
5.60624e-10
2.82651e-09
2.39931e-09
-1.54019e-09
2.4745e-09
-1.4306e-09
3.07107e-09
-4.43687e-09
3.1168e-09
1.30752e-09
-4.36451e-09
3.16215e-09
-1.80885e-09
-4.51886e-09
3.45322e-09
1.50719e-09
-1.52265e-09
-1.21922e-09
-1.97187e-09
-4.39977e-09
-6.98474e-09
5.24689e-09
2.35213e-09
-1.56276e-09
1.50923e-09
-3.66855e-09
-4.57798e-09
3.26578e-09
-1.48895e-09
-6.75384e-10
3.40815e-09
-4.80727e-09
-1.60431e-09
3.45936e-09
-2.01472e-09
-3.20497e-09
2.87621e-09
-7.05562e-09
1.9533e-09
-1.45774e-09
-1.55786e-09
2.0449e-09
2.23312e-09
4.15976e-10
1.86224e-09
-9.60617e-10
-3.7695e-09
2.80093e-09
-3.95484e-09
4.56001e-09
-1.48343e-09
3.47818e-09
-1.12226e-09
-1.05969e-09
-4.53515e-09
-2.19448e-09
1.05152e-09
-7.55019e-10
-6.01936e-09
1.25595e-09
-1.27776e-09
1.18854e-09
5.43961e-10
-1.53678e-09
-1.50046e-09
-1.45507e-09
-1.65108e-09
6.50791e-10
3.12433e-09
-1.28979e-09
-4.65396e-09
-1.55194e-09
-1.52655e-09
-1.51604e-09
-1.42821e-09
2.73227e-09
-1.84617e-09
1.59889e-09
-8.25959e-10
-1.02734e-09
4.95829e-10
1.9252e-09
-1.70326e-09
2.75442e-09
-1.18896e-09
-1.1058e-09
-4.58963e-09
-4.52218e-10
-1.7759e-09
-1.21665e-09
-1.39116e-09
-5.38564e-10
-1.55247e-09
-2.14587e-09
-1.10419e-09
-1.36826e-09
-2.84949e-11
-3.53425e-09
-1.32967e-09
-1.40965e-09
-1.19391e-09
-1.66458e-09
-1.38351e-09
-6.13012e-10
-1.15399e-09
-1.51599e-09
1.77066e-09
-4.77405e-10
-1.08578e-09
-1.15832e-09
1.85722e-09
-1.5204e-09
-1.54065e-09
-6.60092e-10
-1.61886e-09
-1.65538e-09
2.76827e-09
3.15896e-09
-4.35626e-09
-1.67726e-09
-1.66309e-09
2.2712e-09
-1.51455e-09
-1.63627e-09
2.25742e-09
-9.28159e-10
-1.46099e-09
-1.60633e-09
-2.68826e-09
-1.69786e-09
-1.51991e-09
-1.51701e-09
-1.64911e-09
-3.13985e-09
-1.17392e-09
2.04207e-09
6.20092e-10
2.5979e-09
-3.2472e-09
2.96971e-09
-3.67359e-09
-4.13088e-09
3.12451e-09
-2.5286e-09
-5.30481e-09
4.01185e-09
-8.64413e-10
3.72139e-09
-5.67529e-09
3.88931e-09
-1.35055e-09
-2.59204e-09
-9.95099e-10
-2.53301e-09
-1.34471e-09
-1.03696e-09
-1.62345e-09
1.64014e-09
-1.48392e-09
-1.21527e-09
-3.82869e-09
-4.08885e-09
4.44903e-10
7.04666e-10
4.76847e-10
3.70415e-09
-1.73586e-09
2.93739e-09
-3.805e-09
-1.87253e-09
-1.64203e-09
-3.96446e-09
3.17825e-09
-5.54984e-10
-8.78228e-10
-1.30372e-09
-1.04973e-09
3.76661e-09
3.41579e-09
-2.95491e-09
-1.57001e-09
-4.50661e-10
-3.49756e-10
-1.04062e-09
-1.27787e-09
-7.58519e-10
2.00024e-09
-2.06308e-09
-5.84529e-10
-2.32624e-10
-9.14327e-10
1.16921e-09
-1.07348e-09
-3.41126e-09
-1.68232e-09
-1.6397e-09
9.6511e-10
-2.04042e-09
-9.36336e-11
9.48672e-10
-1.43615e-09
-4.01768e-09
-2.9173e-09
1.7196e-09
-2.17003e-09
1.44722e-10
-3.52837e-09
2.51816e-09
-4.47321e-09
-1.80962e-09
2.88265e-09
4.60335e-10
-3.77573e-09
3.43343e-09
2.272e-09
-1.69159e-09
-2.52982e-09
-3.61798e-09
-3.16227e-09
-1.56116e-09
1.59161e-09
-6.45804e-10
-2.07123e-10
-1.56683e-09
2.00949e-09
-2.23531e-09
-3.90234e-09
-3.09543e-09
-2.11399e-09
-2.07702e-09
-2.7674e-09
-1.41047e-09
-1.36567e-09
-1.77533e-09
2.17813e-09
-2.00045e-09
-1.87407e-09
1.78093e-09
1.78465e-09
-1.69476e-09
2.95901e-09
-1.73326e-09
2.12836e-09
-1.50618e-09
2.87351e-09
-1.50065e-09
-5.43306e-09
-1.36365e-10
-5.79548e-10
-3.38698e-09
3.89083e-09
2.15449e-09
-3.16462e-09
-2.23133e-09
-2.02741e-09
-3.50421e-09
2.05848e-09
-5.00578e-09
-2.45519e-09
-2.12573e-09
-2.02683e-09
-2.10219e-09
1.47627e-09
-1.84618e-09
-2.1792e-09
-3.70962e-09
-2.46535e-09
-3.46959e-09
-2.29976e-09
-3.16366e-09
-6.1983e-10
-1.11376e-10
-1.93634e-09
-1.93704e-09
-1.8226e-09
-1.95718e-09
-2.54568e-09
-1.80693e-09
-1.74636e-09
2.45611e-09
-1.42244e-09
1.53926e-09
-1.33464e-09
-1.4231e-09
-1.7074e-09
2.34939e-09
-1.5911e-09
2.69401e-09
-1.78675e-09
-1.44389e-09
-4.43939e-09
-1.80142e-09
-2.17727e-09
-1.42907e-09
-2.98244e-09
-1.79301e-09
2.61207e-09
-1.31348e-09
1.84246e-09
-1.74845e-09
-1.78886e-09
2.39038e-09
-1.40599e-09
4.30115e-09
2.93562e-09
-1.67584e-09
-3.99247e-09
-5.27815e-09
9.36109e-10
-1.46574e-09
-2.17979e-10
4.29138e-10
-2.2612e-09
-2.99953e-09
-3.31578e-09
-1.48145e-09
-2.12555e-09
-1.28737e-09
-4.17331e-09
-4.29021e-09
-4.32284e-09
-3.97318e-09
-2.04462e-09
-1.80549e-09
1.78021e-09
1.72829e-09
6.90055e-10
2.48305e-09
1.63247e-09
-1.85055e-09
-1.38162e-09
1.60537e-09
-2.737e-09
-2.90806e-09
2.28526e-09
-1.00178e-09
7.26877e-12
-3.04997e-09
-2.63626e-09
-2.63762e-09
7.72251e-10
3.16218e-09
-2.58763e-09
2.54245e-09
9.22768e-10
-2.526e-09
-4.41525e-09
-1.87042e-09
-1.50855e-09
-1.80105e-09
-1.7562e-09
2.799e-09
-3.48702e-09
-1.80505e-09
-1.42217e-09
6.64243e-10
-1.50979e-09
-3.1536e-09
-1.75481e-09
-1.4753e-09
2.7732e-09
-3.09596e-09
1.02613e-09
-4.16856e-09
-2.1501e-09
-2.65681e-11
8.84761e-10
3.98789e-10
)
;

boundaryField
{
    front
    {
        type            empty;
    }
    back
    {
        type            empty;
    }
    bottom
    {
        type            uniformFixedValue;
        uniformValue    
        {
            type            scale;
            scale           
            {
                type            squarePulse;
                start           0.3;
                duration        0.3;
            }
            xScale          
            {
                type            constant;
                value           1;
            }
            value           
            {
                type            constant;
                value           15.1;
            }
        }
        value           uniform 0;
    }
    left
    {
        type            zeroGradient;
    }
    top
    {
        type            zeroGradient;
    }
    right
    {
        type            zeroGradient;
    }
    inner_arc
    {
        type            zeroGradient;
    }
}


// ************************************************************************* //
