/*--------------------------------*- C++ -*----------------------------------*\
  =========                 |
  \\      /  F ield         | OpenFOAM: The Open Source CFD Toolbox
   \\    /   O peration     | Website:  https://openfoam.org
    \\  /    A nd           | Version:  9
     \\/     M anipulation  |
\*---------------------------------------------------------------------------*/
FoamFile
{
    format      ascii;
    class       surfaceScalarField;
    location    "0.7";
    object      phi;
}
// * * * * * * * * * * * * * * * * * * * * * * * * * * * * * * * * * * * * * //

dimensions      [0 3 -1 0 0 0 0];

internalField   nonuniform List<scalar> 
816
(
9.0048e-17
3.06002e-15
-3.15006e-15
-1.05263e-15
4.29964e-15
-3.24701e-15
-5.32168e-15
5.41173e-15
3.04366e-16
-4.05943e-16
1.01577e-16
2.99608e-15
-2.99608e-15
-1.63036e-15
2.09464e-15
-4.64279e-16
-3.13265e-15
3.13265e-15
-2.81294e-15
2.81294e-15
-6.3727e-15
1.84762e-17
6.35422e-15
7.99798e-16
-1.85243e-15
1.64114e-15
-3.2715e-15
7.45817e-15
-5.39982e-15
-2.05834e-15
1.31567e-16
-1.04276e-16
-2.72916e-17
7.20918e-15
-6.53194e-15
-6.77242e-16
-7.11883e-15
6.28353e-15
8.35298e-16
-5.47462e-15
9.00716e-15
-3.53255e-15
-3.39131e-15
-9.78385e-16
4.36969e-15
6.52002e-15
-5.33546e-16
-5.98647e-15
8.75739e-16
6.58243e-15
2.99308e-15
-9.36577e-15
5.49831e-16
-2.45465e-16
6.74129e-16
-6.14874e-15
3.55475e-15
-1.48604e-15
-2.06872e-15
9.19891e-16
3.94047e-16
-1.31394e-15
1.0588e-15
-1.38906e-16
-6.13006e-15
1.4997e-15
4.63036e-15
4.52129e-16
-4.10159e-16
-4.19703e-17
1.27731e-16
-2.74377e-16
1.46646e-16
2.01587e-15
2.28377e-15
3.13664e-15
5.87052e-15
4.86003e-16
-3.58271e-16
5.88124e-16
1.50651e-15
9.52251e-15
-6.38587e-15
1.28417e-15
-8.75e-16
-4.09169e-16
-7.03246e-16
-6.41558e-15
-1.54236e-15
7.41288e-15
6.60858e-16
6.54832e-15
-8.97142e-16
-5.23292e-15
9.2684e-15
-3.37499e-15
-5.89341e-15
1.8621e-15
1.13398e-15
-2.33522e-15
-1.9372e-15
1.9158e-15
6.32707e-15
-4.35389e-17
-3.22446e-15
-1.54515e-15
4.76961e-15
-1.88229e-15
-1.25036e-15
2.4294e-15
5.8993e-15
-5.88082e-15
3.94672e-15
1.5408e-16
2.98049e-16
-3.53704e-16
-7.00655e-17
4.23769e-16
1.09377e-16
2.21905e-17
2.60295e-15
9.51801e-16
7.34374e-16
5.49795e-16
-4.89358e-17
4.89358e-17
2.02583e-15
-5.77342e-16
-1.44849e-15
-1.48604e-15
-3.22446e-15
-7.38278e-15
3.99148e-15
2.54349e-15
-4.08585e-15
-8.62767e-16
1.20003e-15
-2.17841e-15
-2.71196e-15
2.17841e-15
-2.11804e-16
-6.32013e-15
1.64736e-16
-1.05952e-16
-5.87831e-17
6.38419e-15
-5.71234e-17
6.10005e-15
3.42246e-15
-2.60153e-15
4.24267e-15
-2.71961e-15
7.93102e-15
-5.21141e-15
1.44192e-15
5.29093e-15
-6.73285e-15
1.83796e-16
2.3442e-16
1.57277e-16
7.45847e-18
5.38334e-15
2.59565e-15
-7.97899e-15
1.52817e-15
-1.7457e-15
2.17537e-16
2.54702e-15
-2.54702e-15
-3.7818e-15
6.77488e-15
-5.11259e-15
1.33078e-15
5.30012e-17
-1.15832e-15
-1.99174e-15
3.15006e-15
-5.17828e-15
-2.0063e-15
7.18458e-15
3.06002e-15
2.32588e-15
-2.32588e-15
-3.41172e-15
3.41172e-15
-3.6753e-15
7.16481e-15
-3.48952e-15
1.83423e-15
5.61033e-16
-7.00656e-17
1.91311e-15
1.12718e-16
-1.59781e-16
-5.01203e-15
5.17181e-15
4.38726e-15
1.89559e-16
-4.57682e-15
7.58443e-17
2.62431e-15
-6.29961e-15
1.7546e-16
5.39661e-15
-5.57207e-15
2.71709e-16
-2.31149e-16
-4.056e-17
-6.25216e-15
-5.00012e-17
5.67875e-15
-5.62875e-15
-4.14773e-17
2.16443e-17
7.99798e-16
5.02589e-16
-6.91817e-15
-7.92234e-17
6.46342e-15
-4.466e-15
5.90792e-15
8.08302e-17
1.01749e-16
-1.82579e-16
-4.53331e-15
2.26254e-17
-2.26254e-17
-8.91872e-16
7.44019e-15
1.06389e-15
2.33522e-15
1.83423e-15
-2.35775e-16
-2.31125e-15
3.26573e-15
4.14715e-15
6.79063e-15
6.30216e-15
-7.82102e-15
1.51886e-15
1.24805e-16
-4.39746e-17
-2.96222e-16
-1.09721e-16
2.84532e-15
4.17598e-15
-7.0213e-15
-8.53101e-17
4.47257e-15
-1.88521e-17
4.14774e-17
-2.90756e-16
4.92112e-15
-3.88171e-15
4.69995e-16
1.34951e-15
4.74315e-16
7.55165e-17
-1.55583e-15
-5.77158e-15
6.2667e-15
-4.9512e-16
-1.00556e-15
-4.17272e-15
5.71628e-15
-4.01489e-15
-1.70139e-15
5.49324e-15
1.19658e-15
-6.5387e-15
3.75353e-17
6.50116e-15
-6.72759e-15
9.56009e-16
1.00522e-16
1.71187e-16
-1.62504e-15
1.62504e-15
-5.91381e-15
-6.24891e-16
-4.64086e-17
5.95261e-15
-5.9062e-15
-9.06546e-17
-5.30917e-15
-4.79679e-15
-3.02423e-15
-4.65564e-15
4.69317e-15
-8.07052e-17
1.76037e-15
-1.67967e-15
-1.23435e-15
-4.73634e-15
4.88294e-17
9.98168e-16
-1.047e-15
-1.9158e-15
-6.78144e-17
-5.8256e-15
-6.74573e-16
-3.49891e-15
4.17349e-15
7.23253e-18
-4.19699e-17
3.47374e-17
5.98864e-15
-4.79206e-15
-7.29774e-15
-1.92707e-16
7.49045e-15
2.10871e-15
-2.10871e-15
2.54349e-15
2.84481e-16
1.34056e-15
7.043e-16
6.67463e-15
-7.37893e-15
-6.27056e-17
2.16786e-16
-2.79529e-15
4.81116e-15
2.98517e-17
7.6339e-17
-1.06191e-16
-1.99174e-15
6.5661e-16
-7.95435e-15
-5.66352e-15
1.76037e-15
-5.72037e-15
5.52766e-15
-5.62995e-16
5.62995e-16
5.31406e-15
-5.14166e-16
-4.79639e-15
5.50069e-15
-6.46111e-18
3.63127e-17
5.65414e-16
-6.15386e-16
4.99716e-17
-5.4562e-16
-5.17475e-15
1.9372e-15
-2.02786e-15
2.18199e-15
-2.2284e-15
-1.95713e-16
1.50639e-15
-1.31068e-15
1.03163e-16
-4.89955e-15
2.20723e-16
-2.79507e-16
2.87062e-16
-6.63387e-17
6.8368e-15
-2.90884e-15
2.36322e-15
-3.38685e-16
-9.05324e-17
4.29217e-16
-1.91919e-15
2.02235e-15
-1.20759e-15
5.81356e-15
-4.60598e-15
-4.32741e-15
4.88844e-15
3.40063e-16
2.17692e-16
5.73491e-15
7.23249e-18
-4.08585e-15
2.77192e-15
2.94436e-15
6.85158e-15
3.25635e-16
-7.17722e-15
-4.32344e-16
9.366e-17
-6.8132e-15
-3.27124e-16
7.14033e-15
5.74477e-15
-2.17101e-16
5.38544e-15
1.15254e-16
1.85243e-15
-3.12827e-16
-2.31781e-16
5.44607e-16
-3.63127e-17
1.03452e-16
-6.71397e-17
4.19699e-17
-1.04675e-16
5.62027e-15
-5.71107e-15
9.07996e-17
5.5359e-15
-5.41764e-15
-1.18263e-16
-6.46116e-18
1.08915e-16
-7.20648e-16
-1.60524e-15
2.52588e-16
3.66088e-16
-4.32427e-16
2.26734e-16
-2.85925e-16
4.73302e-15
2.47196e-16
-3.74611e-15
7.68688e-15
3.78675e-16
-6.29248e-15
1.24257e-17
3.53662e-16
-4.35767e-15
6.39502e-16
-1.65187e-16
-1.06348e-15
1.31068e-15
6.24846e-15
-4.53436e-15
-3.65199e-16
-3.97045e-15
4.25493e-15
2.14612e-15
-2.36322e-15
2.1376e-15
-2.02235e-15
3.97777e-15
-4.73173e-16
-7.70595e-17
5.50232e-16
-4.32345e-16
-7.20648e-16
1.50639e-15
-1.16187e-15
-4.39309e-15
-2.90884e-15
2.14612e-15
2.1376e-15
6.8817e-17
-2.70542e-16
3.78657e-15
-3.51603e-15
-1.91919e-15
-7.04954e-16
-1.58815e-16
-1.04675e-16
-1.67967e-15
-9.36596e-17
8.93457e-16
2.18199e-15
1.71787e-16
7.79135e-16
-9.50922e-16
5.57033e-16
5.75577e-16
5.69112e-15
7.90713e-16
7.15799e-16
3.30479e-16
-1.07002e-15
7.3954e-16
4.23769e-16
5.48607e-15
-6.64794e-15
1.3065e-16
-7.40095e-15
7.34383e-15
1.07002e-15
-1.34056e-15
1.03452e-16
2.0503e-16
2.56655e-15
9.50667e-16
-2.90394e-15
7.41288e-16
6.27007e-15
8.82637e-16
-7.05538e-16
6.28479e-16
4.62577e-16
-1.78034e-16
-5.27505e-16
6.43394e-16
-4.71607e-16
-1.06348e-15
2.2284e-15
7.52088e-16
2.16548e-16
-9.68636e-16
2.02786e-15
6.01101e-16
3.97867e-16
2.30611e-16
3.53367e-16
2.03666e-16
2.24584e-16
-1.73277e-16
3.70664e-16
-3.70664e-16
5.54459e-16
-4.76034e-15
-5.71691e-15
1.03852e-16
-7.19238e-16
-2.80546e-16
2.80546e-16
-2.0503e-16
-1.20254e-15
-5.00865e-16
5.14166e-16
-1.33001e-17
5.00865e-16
-2.20319e-16
8.39275e-16
5.54459e-16
-5.96288e-15
-1.12712e-15
1.03658e-15
2.60045e-16
-4.20332e-16
1.60287e-16
4.84629e-16
7.38901e-16
1.48406e-16
5.12241e-16
-6.60646e-16
-1.25721e-16
2.74126e-16
-2.90683e-15
2.96655e-16
-7.16987e-16
8.46153e-16
-4.48286e-16
5.53169e-16
-3.22193e-16
-6.71981e-16
4.53094e-15
7.1524e-16
1.86414e-16
6.87103e-16
-8.73518e-16
-1.79839e-16
6.26712e-16
8.85279e-17
6.47519e-15
-3.4566e-17
6.61278e-16
-1.77758e-16
7.56152e-15
-7.79104e-16
8.67631e-16
-5.30573e-16
-3.37542e-16
6.90909e-16
6.70496e-17
9.96465e-16
1.70292e-18
-7.53899e-16
3.05613e-16
1.26243e-15
-7.50186e-16
-2.56446e-16
2.83401e-15
-6.39505e-15
3.56104e-15
1.56543e-15
-1.56543e-15
-1.43324e-15
1.43324e-15
-1.70683e-15
1.70683e-15
1.70232e-15
-1.70232e-15
1.8621e-15
-1.88229e-15
-4.59242e-16
-8.81771e-16
1.34101e-15
2.4294e-15
-1.01386e-15
7.57411e-16
-2.38586e-15
2.38586e-15
-2.31125e-15
-2.30664e-15
2.30664e-15
-5.01325e-16
3.71518e-15
-3.21385e-15
1.20003e-15
-2.4857e-16
-2.00261e-15
2.25118e-15
-1.46396e-15
1.46396e-15
-9.47586e-16
5.89016e-15
-4.94258e-15
-2.50394e-15
-6.80309e-15
1.25035e-16
-2.71196e-15
-2.58476e-15
5.18041e-15
2.02107e-15
-3.96908e-15
7.097e-15
2.60295e-15
-3.57596e-16
-1.41396e-16
2.69076e-16
3.75869e-15
6.11003e-16
-9.49161e-16
-3.88091e-15
4.83007e-15
2.76602e-15
-4.8285e-15
-2.8601e-16
-3.07231e-17
2.16443e-17
-2.32458e-15
-4.07047e-15
3.56558e-15
-5.22398e-15
-9.11806e-15
3.13159e-15
-1.42149e-15
-3.47268e-15
4.89417e-15
-6.21507e-16
-8.79436e-16
4.778e-18
8.74658e-16
-5.49195e-15
-5.0957e-16
5.0957e-16
-8.58006e-17
-8.53975e-17
2.36917e-15
-3.71154e-18
-1.8914e-17
1.55798e-16
-5.09837e-15
-5.83292e-15
5.33616e-15
-4.72515e-15
2.22854e-15
-5.79412e-15
1.82505e-15
6.74253e-15
4.39332e-15
2.11165e-15
-9.96049e-16
-4.01598e-15
1.66799e-15
3.72862e-15
-2.90719e-15
-5.0718e-15
3.48021e-16
1.69679e-15
-5.71168e-15
-4.96553e-15
4.43992e-15
5.88068e-15
5.39507e-15
-6.39786e-15
1.00279e-15
-1.80251e-15
-5.85475e-16
-1.23728e-15
-2.11213e-16
-1.80251e-15
-1.25286e-15
-7.92326e-15
-7.08111e-16
8.63137e-15
5.05479e-16
2.0238e-15
2.74581e-15
1.97851e-18
1.96658e-17
-1.65074e-15
1.65074e-15
5.52618e-15
1.26445e-15
2.58705e-15
3.94724e-15
-4.97857e-15
-6.05889e-15
9.60518e-16
4.45444e-16
1.76861e-16
8.22988e-16
-1.0721e-15
2.49113e-16
-3.61737e-16
2.36585e-16
-3.45044e-15
8.09688e-16
-5.98009e-15
5.27198e-15
-2.4518e-16
-2.74377e-16
4.79977e-15
-3.71164e-18
-2.47825e-15
1.97855e-18
-4.43457e-15
8.29878e-16
-2.80083e-16
8.0806e-16
-2.82545e-15
6.38648e-15
9.74948e-16
-4.87762e-15
-2.14368e-15
-2.6108e-15
-1.93681e-15
-5.49265e-17
3.6314e-15
1.17977e-15
-3.38545e-16
-5.90826e-16
1.60013e-15
1.83494e-16
1.57806e-15
9.65432e-16
4.59191e-15
6.47685e-15
2.37309e-16
-1.11675e-15
1.46646e-16
-1.93681e-15
-7.01366e-17
1.04874e-16
-8.76361e-16
-5.41002e-18
4.5582e-15
2.882e-15
-5.13341e-15
1.57806e-15
2.0238e-15
1.08115e-15
7.07832e-15
6.66056e-16
1.46649e-16
-3.97578e-15
-1.65278e-18
1.65278e-18
-6.28888e-17
6.10168e-15
1.63967e-18
-1.63967e-18
5.14186e-15
-3.73737e-17
-9.5758e-18
5.25579e-15
-1.65285e-18
1.63964e-18
6.06785e-15
-1.50966e-15
-4.31432e-15
7.51056e-16
-5.74039e-15
5.93681e-17
4.55059e-17
3.87528e-15
-4.01668e-15
-3.52068e-18
-4.19182e-16
-6.52919e-16
6.99224e-16
-4.64803e-16
4.48268e-18
-4.18564e-17
1.0143e-16
-3.57054e-15
3.53981e-15
7.14413e-16
5.8587e-16
2.87447e-16
-6.16827e-15
-2.34767e-15
6.13423e-16
4.55889e-16
5.21706e-15
8.88518e-18
-8.10091e-18
1.895e-15
-2.85612e-15
-7.00514e-16
-6.74966e-15
-7.74509e-16
-4.31406e-15
-1.97926e-16
3.36226e-15
-3.33772e-15
1.37073e-16
5.36449e-18
-3.6182e-18
5.99084e-16
-2.15795e-15
-1.33793e-15
-6.83743e-16
)
;

boundaryField
{
    front
    {
        type            empty;
        value           nonuniform List<scalar> 0();
    }
    back
    {
        type            empty;
        value           nonuniform List<scalar> 0();
    }
    bottom
    {
        type            calculated;
        value           nonuniform List<scalar> 
12
(
-2.39527e-15
-6.68981e-15
5.55496e-15
-5.56176e-15
3.23442e-15
7.3954e-16
-7.41288e-16
5.64298e-15
6.68862e-15
-5.63134e-15
-3.22903e-15
2.38798e-15
)
;
    }
    left
    {
        type            calculated;
        value           uniform 0;
    }
    top
    {
        type            calculated;
        value           uniform 0;
    }
    right
    {
        type            calculated;
        value           uniform 0;
    }
    inner_arc
    {
        type            calculated;
        value           uniform 0;
    }
}


// ************************************************************************* //
