/*--------------------------------*- C++ -*----------------------------------*\
  =========                 |
  \\      /  F ield         | OpenFOAM: The Open Source CFD Toolbox
   \\    /   O peration     | Website:  https://openfoam.org
    \\  /    A nd           | Version:  9
     \\/     M anipulation  |
\*---------------------------------------------------------------------------*/
FoamFile
{
    format      ascii;
    class       volScalarField;
    location    "0.69";
    object      p;
}
// * * * * * * * * * * * * * * * * * * * * * * * * * * * * * * * * * * * * * //

dimensions      [0 2 -2 0 0 0 0];

internalField   nonuniform List<scalar> 
90
(
-2.79429e-20
-1.06178e-19
-8.44799e-20
-8.89764e-20
-8.90668e-20
-1.07274e-19
-2.18977e-20
-2.40389e-20
-9.84116e-20
-1.36078e-20
-3.27112e-20
-1.00794e-19
-2.80834e-20
-1.05237e-19
-9.76218e-20
-9.30062e-20
-8.58509e-20
-7.64215e-20
-9.4918e-20
-9.95747e-20
-1.61986e-20
-7.98283e-20
-3.36163e-20
-1.01428e-19
-2.33172e-20
-3.83756e-20
-1.26219e-20
-7.1547e-20
-7.51964e-20
-2.62832e-20
-2.54937e-20
-3.39888e-20
-3.55942e-20
-3.63821e-20
-4.01571e-20
-9.56872e-20
-5.16746e-20
-8.18532e-20
-5.04626e-20
-9.70735e-20
-9.05432e-20
-8.99403e-20
-5.27843e-20
-1.93227e-20
-2.12244e-21
-1.07746e-19
-1.0394e-19
-6.97035e-20
-8.33622e-20
-1.03869e-19
-1.01771e-19
-1.03461e-19
-4.72447e-20
-6.39954e-20
-1.04327e-19
-4.97395e-20
-6.67208e-21
-1.06616e-19
3.70117e-21
-3.88937e-20
-9.28234e-20
-4.70012e-20
-4.39574e-20
-6.90627e-20
-7.65165e-20
-6.14422e-20
-1.02868e-19
-1.04463e-19
-7.68459e-20
-6.39588e-20
-6.33809e-20
-5.81752e-21
-5.35786e-20
-5.69255e-20
-6.72467e-20
-1.03091e-19
1.48593e-20
-6.14643e-20
-3.87745e-20
3.66591e-21
-6.90026e-20
-1.06029e-20
-1.05789e-19
-6.32273e-20
-4.35799e-20
-1.0601e-19
-1.46337e-20
-1.91596e-20
-5.60272e-20
5.76773e-23
)
;

boundaryField
{
    back
    {
        type            empty;
    }
    front
    {
        type            empty;
    }
    bottom
    {
        type            zeroGradient;
    }
    outer_arc
    {
        type            zeroGradient;
    }
    right
    {
        type            uniformFixedValue;
        uniformValue    
        {
            type            scale;
            scale           
            {
                type            squarePulse;
                start           0.3;
                duration        0.3;
            }
            xScale          
            {
                type            constant;
                value           1;
            }
            value           
            {
                type            constant;
                value           15.1;
            }
        }
        value           uniform 0;
    }
    inner_arc
    {
        type            zeroGradient;
    }
}


// ************************************************************************* //
