/*--------------------------------*- C++ -*----------------------------------*\
  =========                 |
  \\      /  F ield         | OpenFOAM: The Open Source CFD Toolbox
   \\    /   O peration     | Website:  https://openfoam.org
    \\  /    A nd           | Version:  9
     \\/     M anipulation  |
\*---------------------------------------------------------------------------*/
FoamFile
{
    format      ascii;
    class       surfaceScalarField;
    location    "0.69";
    object      phi;
}
// * * * * * * * * * * * * * * * * * * * * * * * * * * * * * * * * * * * * * //

dimensions      [0 3 -1 0 0 0 0];

internalField   nonuniform List<scalar> 
122
(
-6.67975e-27
2.31748e-27
4.35121e-27
2.15687e-28
-4.84207e-29
-9.16114e-29
-3.45072e-28
3.58013e-27
-3.15946e-27
1.49863e-27
-1.97302e-27
-1.0826e-27
1.08313e-27
9.25148e-28
4.79173e-27
-5.73057e-27
1.24703e-27
-6.48755e-28
-6.52705e-28
6.1563e-27
-5.2168e-27
-2.23116e-27
3.21957e-27
-1.02261e-27
4.11308e-28
1.05416e-28
-4.21041e-28
9.93825e-28
1.61257e-28
-4.13813e-29
2.37934e-27
3.10575e-27
5.84273e-28
-2.55074e-27
1.58993e-27
-9.66238e-28
-5.81704e-28
-3.75619e-27
3.77531e-27
-3.35327e-27
3.36868e-27
-4.24531e-27
2.0604e-27
2.17176e-27
1.31616e-27
2.37369e-28
3.81899e-27
9.30125e-28
-7.39707e-28
-3.46709e-27
1.5595e-28
-6.08736e-27
2.68498e-27
-1.02254e-27
4.0593e-27
3.42316e-27
-3.49984e-28
-8.40697e-28
-1.5809e-27
5.17412e-27
4.83321e-27
-4.00851e-27
3.24234e-27
2.62525e-27
-2.62782e-27
2.38582e-27
5.15098e-27
-1.29782e-27
1.37678e-27
2.0256e-27
-9.82134e-28
3.08376e-27
-1.09077e-27
4.42596e-27
-9.55335e-28
5.52267e-27
1.83816e-27
-5.88273e-27
-2.4337e-28
-1.65833e-28
-4.1319e-28
4.41884e-28
-1.68036e-27
2.29734e-27
-4.30956e-27
-5.67413e-28
2.57279e-28
2.5662e-28
-1.906e-27
3.37708e-29
1.9169e-27
-9.44143e-28
2.02056e-28
2.16334e-27
-4.11029e-27
5.93585e-27
-2.07439e-28
-4.2023e-27
6.06469e-27
-1.53479e-27
1.51525e-27
1.28791e-27
1.73034e-27
-3.37128e-27
-2.38844e-27
2.37939e-27
6.58961e-28
-2.14338e-28
8.80274e-28
1.36151e-27
-9.05391e-28
-1.36182e-27
9.92736e-28
1.26787e-27
1.94093e-27
-3.15882e-28
3.21907e-27
2.08139e-27
-2.15014e-27
1.14136e-28
4.40245e-27
-5.08343e-27
)
;

boundaryField
{
    back
    {
        type            empty;
        value           nonuniform List<scalar> 0();
    }
    front
    {
        type            empty;
        value           nonuniform List<scalar> 0();
    }
    bottom
    {
        type            calculated;
        value           uniform 0;
    }
    outer_arc
    {
        type            calculated;
        value           uniform 0;
    }
    right
    {
        type            calculated;
        value           nonuniform List<scalar> 4(-6.74358e-27 3.79388e-27 -6.75866e-27 8.03782e-27);
    }
    inner_arc
    {
        type            calculated;
        value           uniform 0;
    }
}


// ************************************************************************* //
