/*--------------------------------*- C++ -*----------------------------------*\
  =========                 |
  \\      /  F ield         | OpenFOAM: The Open Source CFD Toolbox
   \\    /   O peration     | Website:  https://openfoam.org
    \\  /    A nd           | Version:  9
     \\/     M anipulation  |
\*---------------------------------------------------------------------------*/
FoamFile
{
    format      ascii;
    class       volVectorField;
    location    "0.69";
    object      U;
}
// * * * * * * * * * * * * * * * * * * * * * * * * * * * * * * * * * * * * * //

dimensions      [0 1 -1 0 0 0 0];

internalField   nonuniform List<vector> 
90
(
(-1.41836e-19 -7.50404e-20 2.39265e-36)
(-1.97487e-21 -3.42299e-21 -1.06275e-35)
(-3.92066e-20 6.9489e-20 -4.59916e-36)
(-2.17835e-20 6.84396e-20 4.55483e-36)
(-3.74462e-21 2.81027e-20 3.90105e-36)
(-1.54929e-21 -1.31459e-21 8.44323e-36)
(-1.58721e-19 -5.14086e-20 -2.86638e-36)
(4.11719e-20 -1.80896e-19 -2.12358e-36)
(-3.95371e-20 2.7558e-20 0)
(6.11131e-20 -1.97093e-19 0)
(-5.28164e-21 -5.60839e-20 -9.05664e-37)
(-9.50815e-21 6.29466e-22 5.35101e-36)
(-3.31109e-20 -3.61561e-20 -3.50811e-37)
(-7.46215e-21 -3.22877e-21 -3.64644e-36)
(-2.47804e-20 2.58915e-20 0)
(-9.69947e-21 2.50241e-20 0)
(6.66313e-21 6.16579e-20 -8.74064e-36)
(1.1052e-20 1.03215e-19 2.00947e-36)
(-5.40075e-20 3.34571e-20 0)
(-4.36168e-20 -2.12329e-20 -6.47737e-36)
(-4.16242e-20 -6.81916e-20 -9.55201e-37)
(-6.33985e-20 -6.05851e-20 -3.91952e-36)
(7.28409e-20 -9.16803e-20 -1.61505e-36)
(-3.50684e-20 -8.5027e-21 6.20462e-36)
(1.2417e-21 -1.43795e-19 1.82489e-36)
(9.77811e-20 -2.57102e-20 1.60518e-36)
(-3.0543e-21 -1.02695e-19 7.78153e-37)
(-1.21549e-19 -9.24876e-20 -2.09323e-36)
(5.38154e-20 1.13824e-19 0)
(-4.03363e-21 -1.1343e-19 1.536e-36)
(4.78484e-20 -1.35711e-19 -1.23832e-36)
(1.90785e-20 -2.11261e-20 -1.72084e-36)
(-1.12262e-19 -1.19023e-19 -9.05066e-37)
(-1.43838e-20 -1.35801e-19 3.27328e-36)
(-8.1953e-20 -1.20928e-19 -8.48542e-37)
(-6.14205e-21 4.53399e-21 2.26945e-36)
(5.29327e-20 3.01644e-20 0)
(1.36226e-20 4.21784e-20 0)
(-8.73499e-20 -7.61017e-20 1.00943e-36)
(-2.92703e-20 -2.7402e-20 -1.10073e-36)
(-7.47278e-20 -5.97839e-20 4.18267e-36)
(-9.07282e-20 -3.5073e-20 8.01067e-36)
(-7.48541e-20 -9.00126e-20 -3.3217e-37)
(-1.63743e-19 -1.18534e-19 5.46358e-37)
(9.98579e-20 -1.92446e-19 2.97322e-37)
(-5.87956e-21 2.02767e-21 3.08265e-36)
(-8.06861e-21 -2.34156e-23 -4.84451e-36)
(-1.3328e-20 6.17125e-20 -2.35936e-36)
(-1.01649e-19 -1.07317e-20 4.67203e-36)
(-1.81131e-20 9.31145e-21 8.70741e-37)
(-2.41741e-20 -2.01532e-20 0)
(-5.52883e-21 -4.64133e-21 3.62532e-36)
(7.33161e-20 -2.40754e-20 4.07214e-38)
(-1.34151e-19 -1.07933e-19 0)
(-2.19772e-21 -3.2918e-21 -7.3314e-36)
(1.26518e-19 3.76346e-20 1.25288e-38)
(-1.85773e-19 -1.69598e-19 -4.10978e-37)
(-4.25876e-21 6.95668e-22 0)
(1.88314e-19 -1.51476e-19 0)
(5.92786e-20 -1.13943e-20 2.2522e-36)
(-7.13038e-20 -1.4919e-20 -5.01631e-36)
(8.33834e-20 3.28344e-20 0)
(3.40896e-20 6.98803e-21 2.05425e-36)
(-8.94114e-20 -2.20365e-20 1.23202e-36)
(-1.2476e-19 -4.5861e-20 -3.99052e-36)
(4.46567e-20 4.25657e-20 -2.67499e-36)
(-3.77233e-20 7.88175e-21 0)
(-2.66658e-20 6.42873e-21 0)
(3.76713e-20 7.20412e-20 2.85009e-37)
(6.15216e-20 6.9603e-20 -2.2102e-36)
(4.4157e-20 6.69838e-20 0)
(1.18751e-19 -1.46044e-19 -9.82017e-38)
(1.90745e-20 -8.47189e-21 0)
(8.73431e-20 6.56883e-20 -3.66713e-36)
(9.33847e-20 1.11701e-19 2.23151e-36)
(-1.32323e-20 -5.91467e-21 3.47505e-36)
(6.22485e-20 -1.37907e-20 -1.99021e-37)
(-1.10599e-19 -8.75351e-20 0)
(4.87039e-20 -9.12066e-20 -2.55813e-36)
(2.1914e-19 -6.68867e-20 4.66292e-37)
(2.30046e-20 2.99848e-20 2.85343e-36)
(-1.88743e-20 -2.1286e-19 7.26878e-38)
(-1.32578e-20 2.90474e-21 7.46634e-36)
(1.05404e-19 1.08167e-19 -1.87185e-36)
(1.24949e-19 2.1658e-20 6.96334e-37)
(-1.96849e-20 5.83499e-21 -3.61106e-36)
(9.388e-21 -2.05637e-19 -5.50883e-37)
(-5.43512e-20 -1.55215e-19 -8.2291e-38)
(1.25065e-19 8.48058e-20 5.49672e-36)
(5.49125e-20 -7.49974e-20 9.51013e-38)
)
;

boundaryField
{
    back
    {
        type            empty;
    }
    front
    {
        type            empty;
    }
    bottom
    {
        type            uniformFixedValue;
        uniformValue    
        {
            type            scale;
            scale           
            {
                type            squarePulse;
                start           0.3;
                duration        0.3;
            }
            xScale          
            {
                type            constant;
                value           1;
            }
            value           
            {
                type            constant;
                value           (0 0.7 0);
            }
        }
        value           uniform (0 0 0);
    }
    outer_arc
    {
        type            noSlip;
    }
    right
    {
        type            zeroGradient;
    }
    inner_arc
    {
        type            noSlip;
    }
}


// ************************************************************************* //
