/*--------------------------------*- C++ -*----------------------------------*\
  =========                 |
  \\      /  F ield         | OpenFOAM: The Open Source CFD Toolbox
   \\    /   O peration     | Website:  https://openfoam.org
    \\  /    A nd           | Version:  9
     \\/     M anipulation  |
\*---------------------------------------------------------------------------*/
FoamFile
{
    format      ascii;
    class       volScalarField;
    location    "0.91";
    object      p;
}
// * * * * * * * * * * * * * * * * * * * * * * * * * * * * * * * * * * * * * //

dimensions      [0 2 -2 0 0 0 0];

internalField   nonuniform List<scalar> 
464
(
5.56413e-21
-1.25218e-20
3.08598e-23
-1.05371e-23
-1.45554e-20
1.04693e-23
2.24922e-21
1.38775e-23
-2.16253e-21
-1.27157e-21
5.28593e-21
1.3224e-20
1.74268e-21
1.33124e-20
2.50269e-21
1.80444e-21
-1.37025e-21
-1.09933e-21
-4.31516e-23
2.83768e-23
9.10969e-23
2.03035e-22
1.33988e-22
1.57384e-23
-1.55989e-23
5.13951e-23
8.13632e-21
-4.76758e-23
8.1219e-21
9.64724e-23
1.61212e-22
-2.78876e-22
-3.786e-22
-1.00648e-21
-9.78813e-22
-1.01055e-21
-9.61994e-22
-3.86197e-23
1.62553e-23
4.47834e-22
2.13626e-23
1.89429e-22
1.6158e-22
1.14694e-20
1.08497e-20
-1.26442e-22
-1.9048e-23
-6.83939e-23
-8.10491e-23
-1.1094e-22
1.79606e-23
-7.41694e-23
-2.93196e-22
6.99123e-23
1.1056e-22
-6.01629e-23
-1.71116e-23
3.80751e-22
4.95396e-22
-3.08179e-22
7.77901e-24
-7.62942e-21
2.43125e-22
1.64192e-22
-4.83588e-21
1.01847e-22
1.0951e-21
-1.33742e-22
8.00419e-21
1.54625e-22
7.40563e-22
-6.49803e-21
5.62215e-21
-6.3621e-23
-1.50624e-21
-9.53753e-24
7.99599e-22
2.58207e-21
2.08204e-22
5.47245e-21
-1.15377e-20
6.01744e-23
-1.88749e-20
8.48833e-23
-1.18183e-20
5.68519e-22
-5.41268e-21
1.54902e-22
7.35459e-24
-1.31069e-21
-1.02626e-20
-8.58814e-21
7.96788e-22
1.16463e-20
1.03462e-21
5.75566e-22
3.25612e-22
2.71697e-23
-6.4386e-21
-1.69091e-21
5.70085e-24
-5.64837e-23
2.6642e-23
-5.03131e-22
-1.20065e-21
-1.88641e-20
1.62616e-23
7.83144e-22
-1.00075e-20
4.2634e-23
6.08489e-22
-1.9854e-23
1.11849e-21
-4.98447e-21
4.79976e-24
4.53481e-24
-1.53185e-20
1.24752e-22
-8.11127e-21
1.15566e-22
9.79613e-24
1.35653e-21
-4.21044e-21
5.28755e-21
7.34263e-22
1.29282e-22
-1.45114e-21
9.26702e-22
-1.07155e-21
-1.70094e-20
1.16944e-22
1.47182e-20
4.58654e-23
5.7998e-23
2.21873e-22
-1.2424e-20
1.83715e-22
-1.05257e-23
-1.66687e-21
3.13943e-22
3.42929e-22
6.25773e-22
9.09362e-22
3.59274e-24
2.23346e-22
-2.60507e-21
1.09986e-23
1.65661e-22
1.6969e-22
3.88545e-22
7.61776e-23
8.23332e-23
1.12063e-21
-1.32953e-22
-1.0549e-20
3.23784e-22
-1.92595e-21
2.61855e-23
-1.1884e-21
-8.48946e-21
-4.76677e-22
9.36825e-23
-6.39249e-22
2.67187e-22
2.43195e-22
4.04233e-22
2.8557e-22
1.78935e-22
-3.3665e-22
7.72593e-22
1.54227e-21
-6.54681e-21
-2.76697e-21
2.7394e-22
1.01466e-22
1.33489e-21
5.75301e-23
8.67398e-23
2.62932e-21
-1.45223e-21
5.884e-23
1.61391e-21
-2.71932e-21
-2.52262e-21
-1.72579e-21
-3.06232e-21
2.55806e-21
2.57088e-21
-1.22572e-21
2.57407e-21
-8.74113e-24
2.77882e-21
-1.77301e-22
-5.7176e-23
4.57833e-22
5.10207e-22
9.67999e-23
6.55134e-23
-2.76201e-21
1.75389e-22
6.98124e-23
4.61519e-22
-3.03645e-23
4.13512e-22
2.63169e-21
-2.06838e-22
2.06323e-22
3.45005e-22
4.01084e-22
-4.69253e-21
2.44301e-22
2.18832e-21
-1.70606e-22
-8.39446e-22
1.06087e-22
1.97822e-21
-2.05596e-22
-1.7786e-22
7.40328e-21
5.62905e-22
-2.11419e-21
3.16661e-22
3.16315e-22
1.15355e-22
7.77477e-23
9.73529e-23
7.01547e-23
3.89915e-24
4.71141e-23
1.04838e-22
1.26959e-23
-8.61798e-23
-4.34311e-23
2.18225e-22
-1.53736e-22
1.08045e-22
-4.45392e-22
-7.9695e-23
-6.86224e-23
-6.19329e-22
1.63751e-22
-1.44451e-22
-2.16463e-22
-9.42253e-23
2.7246e-22
-1.06513e-21
-1.31186e-22
-3.50048e-23
-5.74654e-22
2.75296e-23
7.26222e-23
-8.13232e-22
2.49268e-22
-5.53155e-22
2.92913e-22
-5.20875e-23
3.72629e-23
-8.66294e-23
3.63116e-22
1.17169e-22
-2.61903e-22
2.15611e-23
2.91487e-22
4.18389e-22
-1.76906e-22
6.44212e-22
1.76055e-22
3.34591e-23
1.44233e-21
4.28692e-22
2.68342e-22
-1.76563e-22
-1.8074e-22
3.09072e-22
1.5098e-21
4.80653e-23
4.72739e-23
6.39878e-22
1.11995e-21
-3.78953e-21
-5.64417e-22
-3.30687e-23
8.5524e-22
-9.15832e-23
2.1504e-21
-1.3522e-21
1.56354e-21
-3.29001e-21
-2.88903e-24
-9.08583e-22
-2.31555e-21
-1.04936e-21
-1.43244e-23
5.68696e-23
6.66689e-22
1.28657e-21
2.06112e-21
1.45002e-21
1.54264e-21
-4.33188e-21
1.6611e-21
8.87623e-22
4.29955e-21
1.30524e-20
-6.04881e-22
7.57446e-22
5.46093e-22
-5.68938e-22
-7.39227e-21
5.16344e-22
2.20801e-22
4.78257e-24
1.95894e-22
9.76669e-22
2.03412e-22
-3.89626e-22
1.56165e-21
-4.61102e-21
-1.47899e-23
1.03735e-21
1.544e-22
1.60792e-21
-5.81773e-21
1.57672e-21
-6.40472e-22
-1.26459e-22
-1.79112e-22
3.21988e-21
-1.06407e-23
-3.19405e-21
1.42797e-22
-4.27452e-21
-1.61594e-24
1.98831e-22
3.11049e-22
7.8869e-23
1.93848e-22
-2.44523e-24
-1.03449e-22
2.11012e-22
1.38843e-23
8.7302e-21
-1.80817e-21
-3.01579e-21
-2.24335e-22
-4.3322e-23
-1.49463e-22
1.04221e-21
-4.74751e-23
3.75639e-22
1.79771e-23
5.9287e-23
1.56351e-21
1.37074e-21
2.69189e-24
-8.16353e-21
1.01736e-23
-1.81538e-20
-5.7332e-24
-1.19935e-20
7.95271e-23
7.35861e-22
2.99279e-23
-1.18589e-20
6.943e-21
1.35371e-23
3.84058e-23
-1.81279e-21
1.85754e-20
7.31152e-23
-3.14715e-23
1.38782e-20
3.32515e-21
-1.76133e-21
9.10747e-21
3.80708e-23
7.03812e-21
2.88668e-22
7.07417e-21
1.45955e-22
8.20023e-22
-1.00497e-21
-1.43661e-21
-8.26992e-23
-3.11027e-22
-8.80669e-24
-5.74642e-22
8.71609e-23
-2.25516e-21
-1.07077e-21
-2.65904e-22
-5.46764e-22
-7.55036e-22
-3.25679e-22
4.64042e-23
9.82019e-23
1.31154e-22
1.43447e-22
2.35625e-22
5.56103e-21
-6.9446e-21
1.34743e-22
1.19507e-20
1.72899e-22
4.40601e-22
5.44125e-21
1.59798e-20
1.23342e-22
8.44084e-21
1.50969e-22
-3.15435e-21
-1.21671e-22
2.05179e-23
5.90669e-23
3.58311e-23
-5.82909e-21
2.14465e-20
-1.47628e-22
1.85636e-25
-8.51253e-21
-8.18627e-23
1.05431e-22
6.97604e-21
1.13422e-20
7.54071e-21
3.85462e-21
5.5586e-21
3.06291e-21
2.04645e-21
-1.93985e-20
6.59164e-24
-2.21322e-23
-1.58246e-21
1.25522e-22
-2.68254e-22
-1.79384e-21
-1.58678e-21
1.01145e-22
-1.30716e-21
9.11201e-23
-3.52062e-22
-5.86151e-22
7.20396e-23
6.95147e-23
1.01001e-22
1.04448e-22
1.07454e-22
3.19298e-22
8.97778e-23
-2.53024e-23
-9.84251e-23
1.80879e-21
-1.72303e-22
6.68905e-23
-1.48444e-22
-1.56785e-21
-8.80618e-22
-4.83738e-23
-1.62977e-22
-1.90362e-22
1.49765e-22
2.02403e-20
1.38524e-20
1.05946e-22
)
;

boundaryField
{
    back
    {
        type            empty;
    }
    front
    {
        type            empty;
    }
    left
    {
        type            zeroGradient;
    }
    top
    {
        type            zeroGradient;
    }
    right
    {
        type            zeroGradient;
    }
    bottom
    {
        type            uniformFixedValue;
        uniformValue    
        {
            type            scale;
            scale           
            {
                type            squarePulse;
                start           0.3;
                duration        0.3;
            }
            xScale          
            {
                type            constant;
                value           1;
            }
            value           
            {
                type            constant;
                value           15.1;
            }
        }
        value           uniform 0;
    }
}


// ************************************************************************* //
