/*--------------------------------*- C++ -*----------------------------------*\
  =========                 |
  \\      /  F ield         | OpenFOAM: The Open Source CFD Toolbox
   \\    /   O peration     | Website:  https://openfoam.org
    \\  /    A nd           | Version:  9
     \\/     M anipulation  |
\*---------------------------------------------------------------------------*/
FoamFile
{
    format      ascii;
    class       surfaceScalarField;
    location    "0.91";
    object      phi;
}
// * * * * * * * * * * * * * * * * * * * * * * * * * * * * * * * * * * * * * //

dimensions      [0 3 -1 0 0 0 0];

internalField   nonuniform List<scalar> 
663
(
-1.23893e-26
1.49193e-26
-2.52688e-27
2.94546e-27
1.55098e-26
-6.35623e-30
6.10341e-30
8.29905e-30
-2.63376e-29
1.76292e-29
-6.85063e-27
9.76107e-27
-3.66629e-30
-1.61423e-30
-1.56714e-26
3.30036e-27
-1.19954e-29
2.85457e-29
-1.86375e-26
7.61101e-27
1.10208e-26
-2.54831e-27
-1.60763e-26
-3.00972e-27
1.79436e-26
8.46307e-27
-2.99624e-27
-5.45903e-27
-8.04019e-27
7.50773e-27
9.63279e-28
3.55692e-27
-3.90087e-27
3.55389e-28
3.85175e-27
-2.75238e-28
-1.80185e-28
-3.81675e-28
5.63025e-28
-7.56151e-29
-9.48143e-29
9.71785e-30
-9.02316e-30
-2.71472e-28
4.89669e-28
-2.18296e-28
1.94251e-28
-4.5965e-28
4.73638e-29
1.09499e-28
-1.56999e-28
2.26055e-28
-1.73384e-28
1.32369e-29
1.10403e-29
-2.3582e-29
-8.84285e-30
-1.18446e-29
-1.45133e-29
3.47938e-29
1.00547e-28
-1.17821e-27
1.07413e-27
2.13062e-29
-3.26434e-29
1.08669e-29
3.36261e-27
-3.12008e-27
-6.70747e-29
6.60503e-29
1.46363e-30
-1.3181e-29
-4.13696e-29
-3.93603e-27
3.30353e-27
6.31835e-28
8.92863e-29
-4.02702e-27
3.33615e-27
-2.72155e-27
-6.13298e-28
1.6483e-27
1.68769e-27
4.4932e-29
-1.31841e-28
-3.58417e-28
3.94851e-28
6.31158e-30
8.42715e-30
-9.92984e-30
4.38258e-29
-3.51485e-27
1.47392e-28
3.37103e-27
3.8406e-28
1.11192e-28
-3.43205e-28
3.22455e-28
2.01562e-29
-1.08476e-28
-2.41179e-27
1.28563e-27
-5.24047e-27
2.43039e-28
-6.21109e-29
-8.39375e-29
1.46131e-28
9.9654e-29
-5.5644e-29
-4.39979e-29
-1.87911e-29
1.85484e-29
-2.17637e-29
-9.64366e-29
4.84833e-28
3.13593e-29
-1.95318e-29
-1.19612e-29
4.86464e-28
-6.91528e-29
-4.16947e-28
-2.19868e-28
1.6815e-28
5.16713e-29
-3.11558e-28
9.95463e-29
7.03242e-29
-3.07571e-29
2.04837e-29
3.36587e-28
-1.49399e-28
-1.87503e-28
6.4038e-29
2.82115e-28
4.38675e-28
5.76044e-29
-1.81201e-29
5.86095e-28
5.64772e-27
-6.23535e-27
2.29393e-28
1.00366e-27
-1.23347e-27
-6.70847e-29
1.82326e-29
4.88741e-29
-1.20804e-26
9.51789e-27
2.80441e-28
-1.04644e-28
-1.22231e-27
3.9575e-28
8.26372e-28
6.43261e-30
-8.41792e-27
-1.22663e-28
-1.84996e-28
-2.12239e-28
2.80299e-28
-1.15411e-26
3.6869e-27
-3.23491e-28
1.06205e-28
-1.7278e-30
-5.07465e-28
4.72254e-27
-4.21568e-27
4.18163e-29
-1.21305e-27
-2.5035e-30
-1.50862e-26
1.25827e-26
1.01143e-28
-2.41917e-28
-1.80607e-28
3.44978e-27
8.0748e-27
-1.15276e-26
-5.98243e-30
1.54018e-29
-1.01538e-29
2.33636e-27
-2.9692e-27
6.25626e-28
5.5306e-30
1.25102e-30
-6.74853e-30
5.66645e-27
7.38506e-28
-4.96519e-28
8.83273e-27
-3.22533e-27
1.48878e-29
1.37469e-29
3.02152e-29
-4.42339e-29
-5.0555e-27
4.54356e-27
-5.9633e-28
-3.53153e-27
3.1307e-27
-1.03335e-27
-2.09704e-27
-4.45115e-27
-7.28117e-27
1.17345e-26
1.81354e-27
1.32634e-27
-2.05554e-28
4.95619e-29
2.07374e-29
-7.5825e-31
2.90977e-28
1.89489e-27
-2.18746e-27
5.9358e-27
-1.39824e-26
6.26872e-29
-4.36725e-29
1.28533e-28
-1.79671e-28
3.14201e-29
3.57944e-29
5.60421e-28
2.75251e-27
-2.16341e-27
-3.02629e-27
4.1536e-30
2.14337e-27
-1.74386e-27
-1.50777e-27
9.13957e-28
2.6237e-29
-2.58092e-28
2.31926e-28
2.75971e-27
1.3607e-27
-4.1196e-27
3.44319e-29
1.12529e-27
-4.06977e-27
4.33178e-27
7.43084e-29
-3.83418e-29
1.03763e-28
-6.81717e-29
-5.20413e-28
-1.01808e-27
4.9502e-30
-2.52811e-30
-1.88177e-30
1.88319e-27
-1.4219e-29
2.49586e-29
1.6623e-28
-5.11523e-27
1.10506e-26
4.3509e-27
4.46921e-27
-7.19459e-27
1.05101e-26
5.34525e-28
4.8542e-27
-2.08787e-27
8.73168e-27
-4.39071e-27
-2.49276e-27
3.8575e-27
-4.37877e-28
2.08604e-27
7.12216e-28
-7.07744e-28
2.06233e-29
8.84929e-29
1.69532e-29
6.41757e-29
-8.14488e-29
-1.05395e-27
3.54335e-30
5.0263e-29
-3.00424e-29
8.178e-29
-8.08072e-29
-2.42336e-29
5.11227e-29
-2.29355e-27
2.66758e-28
1.13827e-29
1.19728e-29
6.25026e-30
-2.77577e-30
1.00595e-28
4.61939e-27
1.61151e-28
-1.3746e-28
8.67025e-30
1.57862e-28
-1.33002e-28
1.28489e-28
-3.97122e-29
9.19421e-30
1.58036e-28
1.4703e-28
-5.38887e-29
-4.21916e-28
3.37977e-27
-2.96043e-27
3.7378e-27
1.11755e-27
8.23583e-28
-5.10036e-29
-2.44414e-29
-8.62738e-30
-3.72218e-28
2.23189e-28
-2.10775e-28
3.63209e-27
3.98396e-27
-3.11529e-27
5.21741e-28
-1.56161e-27
1.03499e-27
-4.52445e-30
2.31846e-28
3.24642e-28
-4.54299e-27
1.31072e-28
-5.95994e-29
1.90669e-28
2.58993e-28
2.55959e-28
2.95844e-28
-3.46388e-28
-3.34379e-28
3.81257e-27
-3.48235e-27
-1.79218e-27
1.7912e-27
-1.37412e-27
-4.2931e-28
7.14705e-28
-2.13105e-27
2.23507e-27
1.93238e-28
2.13524e-27
4.35506e-28
-2.92175e-27
2.675e-28
-2.66476e-28
2.65361e-28
5.11646e-30
-3.81491e-27
3.39596e-27
-3.58255e-28
-1.41811e-27
1.77643e-27
-1.61158e-28
4.30448e-28
2.96124e-28
8.33513e-28
-1.12986e-27
7.51109e-28
-7.48728e-28
4.08224e-28
1.18399e-27
-1.51673e-27
-1.1372e-27
3.69097e-28
5.12239e-28
-2.08247e-28
5.21154e-28
-9.195e-28
1.36377e-27
1.24107e-28
1.42424e-28
-2.65566e-28
9.04788e-28
-3.82825e-28
-4.78336e-29
4.8157e-29
-4.62886e-29
8.10372e-29
2.0154e-28
3.1224e-28
-2.28367e-28
4.96528e-28
2.09912e-28
-3.3115e-28
-4.8445e-29
3.29023e-28
-4.34804e-30
-1.43286e-28
9.45472e-29
2.85475e-28
5.44833e-29
-9.15271e-29
-1.36267e-28
-1.64197e-28
1.6369e-28
-1.73778e-28
-2.00548e-28
7.04739e-30
1.72113e-28
-1.72417e-28
1.96017e-28
-1.50684e-27
-1.63234e-27
1.63518e-27
-1.71564e-28
4.05209e-28
4.03093e-29
2.18945e-28
2.93953e-28
5.61858e-29
2.37846e-28
2.79241e-28
9.19066e-29
3.70955e-28
-4.62091e-28
1.33535e-28
1.45913e-28
1.91644e-28
2.89223e-28
5.11941e-28
-1.32021e-28
4.29234e-28
8.45965e-29
-6.78505e-28
4.20365e-28
-5.49469e-28
4.9629e-29
3.36008e-28
-8.68223e-28
5.3238e-28
-5.63836e-28
9.06958e-28
4.78989e-28
-4.48177e-28
-4.15926e-28
-1.9857e-28
1.48767e-27
-9.48488e-28
-4.6946e-28
7.07168e-28
-5.14119e-28
1.053e-28
9.7621e-28
3.02108e-31
4.96287e-28
4.68036e-28
-1.41474e-27
1.99546e-28
2.11172e-27
-1.63068e-27
-1.31083e-27
-2.41049e-27
9.31292e-29
2.31695e-27
-1.30512e-27
-8.69522e-28
1.8466e-27
1.24623e-27
-1.26287e-28
-7.98871e-29
2.00021e-28
-1.1543e-27
2.78754e-27
-3.19255e-27
4.05704e-28
1.40463e-27
-2.56102e-27
-2.7522e-27
-7.25818e-28
3.47788e-27
-1.37158e-27
2.77615e-27
-2.84822e-27
3.70409e-27
-8.56279e-28
1.41604e-27
-2.56468e-27
-1.33218e-27
2.20766e-29
4.61991e-27
-4.27857e-27
1.47554e-27
2.25989e-27
1.78781e-28
1.14076e-27
-2.47422e-27
-4.77192e-28
7.31058e-28
3.7734e-27
3.85444e-27
-9.94966e-28
2.13316e-27
3.86738e-29
1.26862e-28
-1.25206e-28
5.19839e-28
2.95777e-27
-2.22732e-27
-9.0073e-29
1.02105e-28
-2.62302e-29
-8.40606e-28
-3.40454e-27
3.11639e-27
-1.59257e-28
-1.13543e-28
4.39238e-30
8.74984e-28
-5.26999e-27
-6.33618e-29
1.5571e-27
3.89548e-27
-2.33962e-27
4.7734e-27
2.82491e-29
1.36385e-28
-1.6399e-27
-7.27112e-29
4.12473e-30
-2.04322e-28
-1.58774e-27
1.9672e-27
-4.56965e-27
-1.90443e-27
-6.54732e-27
3.10351e-27
3.44437e-27
3.11276e-27
-4.00441e-28
4.21132e-29
2.37005e-28
-3.01549e-27
4.15785e-29
-2.30137e-27
3.4399e-27
-3.12488e-28
6.52739e-27
-2.89e-27
1.39587e-27
-3.52772e-27
-2.04169e-27
-2.52764e-27
-2.00774e-29
9.98989e-30
2.70313e-27
2.68431e-29
4.65165e-29
-2.7725e-28
1.95177e-29
-1.91683e-29
-4.9041e-27
-1.68661e-28
-2.85791e-28
1.73941e-26
-1.13392e-26
1.00694e-29
-1.03529e-29
-2.5964e-28
-1.25816e-28
-1.16159e-28
-3.54075e-30
3.06703e-30
1.65649e-28
-5.45207e-30
4.03124e-30
3.63488e-27
-1.98193e-26
4.38183e-27
-4.00675e-30
-2.45766e-29
5.39515e-28
-2.00442e-28
-4.64415e-28
4.86191e-27
-1.23807e-31
4.85643e-27
2.41221e-31
6.07419e-28
1.48634e-26
2.62643e-30
1.07877e-29
-4.05245e-27
-4.29134e-30
-1.82505e-27
1.07378e-26
-3.2767e-30
2.64846e-30
-1.02362e-27
5.83683e-28
1.85199e-27
3.10895e-29
-8.06527e-30
1.21325e-29
5.88283e-28
-3.75373e-27
-7.48867e-28
7.16626e-28
-6.11036e-28
-2.12153e-27
2.08999e-28
1.57288e-27
-2.66492e-29
-1.30666e-27
1.64277e-27
-2.04072e-27
-4.3451e-28
4.61707e-28
2.90888e-27
2.09626e-27
1.42296e-29
4.58263e-29
5.61989e-29
4.74639e-28
-3.95954e-30
-1.38717e-28
1.38253e-28
-3.39869e-28
-2.6418e-28
1.56807e-28
3.39853e-29
-1.76588e-28
3.28934e-28
1.61426e-26
5.58745e-30
1.43897e-26
8.87767e-31
1.33298e-26
-7.21231e-27
4.98815e-27
-4.98653e-27
-3.43945e-32
-7.21176e-27
-1.49759e-30
-1.13096e-26
-4.7795e-27
-4.26284e-31
-2.05846e-29
2.04289e-29
-1.18024e-29
-8.58259e-30
6.202e-29
-2.08756e-29
1.84693e-27
-1.35306e-29
-7.64525e-31
-4.57585e-27
1.56028e-27
1.31942e-27
2.21517e-29
4.15862e-29
-5.35042e-29
-1.87686e-28
-3.99808e-28
1.96095e-28
2.83776e-29
1.67879e-29
9.63142e-30
-9.89791e-30
5.91406e-30
)
;

boundaryField
{
    back
    {
        type            empty;
        value           nonuniform List<scalar> 0();
    }
    front
    {
        type            empty;
        value           nonuniform List<scalar> 0();
    }
    left
    {
        type            calculated;
        value           uniform 0;
    }
    top
    {
        type            calculated;
        value           uniform 0;
    }
    right
    {
        type            calculated;
        value           uniform 0;
    }
    bottom
    {
        type            calculated;
        value           nonuniform List<scalar> 8(-1.84735e-26 -6.06192e-27 1.61996e-26 -1.17338e-26 -1.55629e-26 1.2252e-26 1.89771e-26 6.12022e-27);
    }
}


// ************************************************************************* //
