/*--------------------------------*- C++ -*----------------------------------*\
  =========                 |
  \\      /  F ield         | OpenFOAM: The Open Source CFD Toolbox
   \\    /   O peration     | Website:  https://openfoam.org
    \\  /    A nd           | Version:  9
     \\/     M anipulation  |
\*---------------------------------------------------------------------------*/
FoamFile
{
    format      ascii;
    class       volVectorField;
    location    "0.91";
    object      U;
}
// * * * * * * * * * * * * * * * * * * * * * * * * * * * * * * * * * * * * * //

dimensions      [0 1 -1 0 0 0 0];

internalField   nonuniform List<vector> 
464
(
(-3.80878e-19 -1.99627e-19 -1.51905e-38)
(-2.45979e-19 4.75366e-19 0)
(1.08187e-22 4.16444e-23 0)
(2.53999e-22 -6.62268e-22 7.88794e-40)
(-1.78334e-19 3.77219e-19 0)
(1.87595e-22 1.06569e-23 3.05206e-40)
(-3.59574e-19 -1.10184e-19 2.32176e-37)
(1.01655e-22 -6.3953e-22 0)
(-4.44885e-19 1.02326e-20 -2.16918e-38)
(-4.2006e-19 1.19371e-19 -1.76221e-37)
(-3.02619e-19 -2.60943e-19 1.85242e-38)
(-1.28198e-19 -1.34855e-19 -2.08441e-38)
(-3.89993e-19 -3.77818e-20 -6.77434e-39)
(-9.06218e-20 -1.55073e-19 0)
(-1.90683e-21 1.28209e-19 2.08818e-38)
(3.54851e-21 1.13053e-19 -1.24187e-37)
(9.84115e-21 5.61682e-21 0)
(4.98913e-21 -1.39171e-22 -2.77112e-38)
(1.13416e-22 -2.00944e-22 -4.40943e-40)
(-3.51754e-21 -1.40878e-20 -3.37809e-39)
(-3.44893e-21 -1.36802e-20 6.49578e-39)
(-2.34169e-21 -4.75769e-21 -3.32163e-39)
(-3.58324e-21 -5.84656e-21 1.12865e-39)
(1.98173e-22 -8.27668e-22 0)
(4.29946e-22 -4.21839e-22 -8.10135e-40)
(1.36805e-22 -9.11949e-22 -1.98543e-39)
(-3.06895e-20 5.7661e-20 -2.31824e-37)
(-2.32969e-22 -8.72704e-22 -9.95308e-40)
(-4.21033e-20 7.93066e-20 0)
(-6.96018e-22 -1.58638e-21 0)
(-6.7074e-22 -1.59364e-21 -4.56906e-40)
(4.2731e-20 1.06998e-19 1.7559e-40)
(3.30664e-20 1.21202e-19 -2.04692e-39)
(3.90676e-20 6.86621e-20 -5.5114e-38)
(4.74082e-20 5.61915e-20 5.55458e-38)
(3.80732e-21 -5.50506e-21 6.16765e-38)
(5.35872e-21 -8.31536e-21 -5.57869e-38)
(-9.50428e-23 -3.77815e-22 -5.4245e-40)
(-4.51575e-22 -8.15928e-22 1.15176e-39)
(1.19158e-20 1.03695e-19 0)
(-2.09091e-21 -1.51008e-20 -2.15192e-39)
(-3.48418e-21 -8.40938e-21 0)
(-4.20881e-21 -7.56746e-21 2.53686e-39)
(-4.93192e-20 6.30824e-21 -6.32605e-37)
(-9.60083e-20 -4.04265e-20 6.45898e-37)
(1.11822e-20 1.23404e-19 -5.86668e-40)
(-3.27618e-21 -6.44465e-23 1.13359e-39)
(-1.71379e-21 2.12215e-21 -2.11731e-40)
(-7.21363e-23 -3.86689e-22 0)
(-1.26461e-22 -6.82271e-22 5.25193e-40)
(-1.2487e-21 -1.60213e-20 1.16393e-39)
(-7.02861e-22 -5.46372e-22 -3.84472e-40)
(-2.84049e-22 -1.28555e-20 -8.24063e-39)
(-5.97513e-21 2.28421e-21 5.32965e-39)
(-5.00155e-21 5.4837e-21 1.68511e-40)
(-1.31792e-21 -1.47004e-22 4.49908e-39)
(-2.17618e-21 -3.51289e-22 0)
(9.46948e-21 3.16651e-22 0)
(6.95004e-21 3.77518e-21 3.68586e-38)
(6.07055e-22 -1.42325e-20 0)
(-7.83727e-23 -6.74972e-22 -1.58234e-39)
(-1.9726e-19 8.10788e-20 8.23649e-37)
(2.92257e-20 -8.15269e-21 -4.85711e-38)
(-1.38949e-21 8.00783e-22 9.89579e-39)
(-3.42577e-19 1.07544e-19 -1.06412e-38)
(-6.75891e-21 -8.35375e-24 4.65878e-39)
(2.62018e-20 -2.42159e-20 5.59515e-38)
(-2.62561e-22 -4.63457e-22 -8.66949e-39)
(-2.20286e-19 -1.8388e-19 -2.26686e-37)
(-3.67056e-21 7.40284e-21 -1.11745e-38)
(9.05544e-21 1.84419e-21 -3.67822e-38)
(-2.73393e-19 1.45572e-19 -4.37093e-37)
(-2.72355e-20 1.09628e-19 0)
(-2.00834e-21 1.27322e-21 3.95817e-39)
(1.12676e-20 -1.38242e-19 -6.39199e-38)
(-7.98341e-22 -9.42291e-22 -1.92861e-40)
(2.62245e-20 -1.57341e-20 5.49531e-38)
(-4.35402e-19 -1.93975e-19 -2.38266e-37)
(5.57947e-21 -3.90626e-22 1.58621e-38)
(-9.75392e-21 1.10023e-19 1.13619e-37)
(-1.70412e-19 2.26987e-19 0)
(4.05858e-22 -1.14612e-22 -6.46977e-40)
(-3.8462e-20 6.7248e-20 -1.10126e-36)
(1.28848e-22 1.07139e-22 -6.12859e-39)
(-1.00783e-19 1.24322e-19 0)
(2.0401e-20 -4.87886e-21 6.80474e-40)
(-1.92654e-19 2.15003e-20 -3.91382e-37)
(2.97052e-22 -8.69408e-23 0)
(-4.70848e-22 -1.28727e-21 0)
(1.48839e-20 -1.39882e-19 -5.54455e-38)
(-1.2049e-19 7.10073e-20 6.05996e-37)
(-2.60374e-19 2.39824e-19 0)
(4.64322e-20 -5.67654e-20 -5.54986e-38)
(-1.78795e-19 -3.34028e-19 -5.84221e-37)
(4.11617e-20 -7.29086e-20 5.4607e-38)
(3.36209e-20 -1.36973e-20 2.43782e-38)
(1.44248e-21 2.72196e-21 -1.58989e-38)
(3.79109e-22 -3.0578e-22 5.93363e-40)
(-3.43861e-21 -7.66717e-20 -4.32117e-37)
(-3.36796e-19 -4.06631e-21 -2.51181e-39)
(-3.23193e-22 -1.3212e-21 0)
(-2.63919e-21 3.38926e-21 -2.43023e-40)
(-8.16169e-22 -1.60152e-21 0)
(4.70627e-20 9.08983e-20 -1.71819e-40)
(3.95305e-20 8.84182e-20 0)
(-2.61128e-20 6.50137e-20 -8.83704e-37)
(9.32155e-23 9.78577e-23 0)
(3.71746e-20 -3.37766e-20 -5.50348e-38)
(-6.41911e-20 5.13656e-21 -6.06646e-37)
(-5.25775e-21 3.51898e-21 0)
(4.1824e-20 -1.01098e-19 0)
(-3.32733e-21 9.84056e-22 -1.15723e-39)
(3.51543e-20 -4.62819e-20 0)
(-1.32924e-20 -1.15152e-19 2.60439e-37)
(-1.00719e-21 -1.37294e-21 -3.59968e-41)
(-1.67482e-21 -1.81335e-21 3.90405e-42)
(-2.22576e-20 -9.82137e-21 8.34497e-37)
(1.3911e-22 2.38953e-23 -9.79482e-39)
(-4.3222e-21 -3.98713e-20 3.47569e-37)
(8.71311e-23 -4.94101e-22 4.39351e-40)
(-4.24249e-21 3.06311e-21 -4.60967e-40)
(-2.77044e-19 -1.52991e-20 -2.67649e-39)
(-2.43668e-19 1.54663e-20 1.68034e-37)
(-2.80877e-19 -8.25272e-20 -1.9477e-37)
(1.57708e-20 -3.34904e-21 0)
(4.63108e-20 -1.07863e-19 1.32569e-40)
(-2.09843e-19 -1.44873e-20 -1.69498e-37)
(2.60472e-20 -9.68002e-20 0)
(4.13591e-20 4.03236e-20 0)
(-1.61894e-20 1.0884e-20 8.53143e-37)
(1.39315e-22 5.58071e-23 4.75963e-39)
(-1.95033e-20 -1.33975e-20 -6.58981e-37)
(-4.26106e-23 -2.44034e-22 1.28891e-39)
(-2.40825e-21 -2.29219e-21 0)
(-6.93538e-22 -2.43571e-21 0)
(-9.45931e-21 -2.28904e-20 -6.61805e-37)
(-4.05073e-23 -1.17524e-23 1.70985e-38)
(-3.59269e-22 -1.08426e-21 -1.66592e-39)
(-3.17063e-19 4.04879e-20 1.92199e-37)
(-2.66803e-22 -1.69053e-21 -1.67922e-38)
(-1.85762e-22 -1.43992e-21 0)
(5.04896e-20 -8.27762e-20 0)
(4.8895e-21 4.2044e-21 1.93408e-38)
(-1.65139e-21 -1.56897e-21 8.70067e-40)
(4.3267e-23 -2.40864e-22 -1.18689e-38)
(2.53805e-21 -1.27768e-19 -1.91549e-37)
(-3.40452e-21 -2.33036e-21 0)
(2.27421e-22 -4.55132e-22 0)
(-3.54342e-21 3.11351e-21 -1.4561e-39)
(-6.96701e-22 -4.15814e-21 3.96573e-38)
(-4.20352e-21 -3.08462e-21 -1.65827e-40)
(-1.98293e-21 -2.55154e-21 -6.46222e-39)
(-6.92602e-20 5.843e-20 8.85281e-38)
(3.41393e-20 -1.25722e-19 -1.33157e-40)
(-1.15422e-20 -5.52666e-20 -5.23738e-40)
(-4.59164e-22 -2.5776e-21 1.83046e-38)
(9.44552e-21 1.45587e-20 0)
(-5.24561e-21 -2.87888e-21 0)
(-2.23186e-19 -8.74216e-21 -6.1725e-39)
(-7.4652e-20 -3.88555e-20 4.80013e-37)
(-3.89368e-20 -1.12827e-20 0)
(-5.91667e-21 -4.00538e-21 4.69608e-39)
(1.20801e-20 -1.19285e-19 8.60028e-38)
(-3.47352e-22 -2.76619e-21 -3.46063e-39)
(-7.11518e-22 -6.17419e-21 -1.51978e-38)
(-2.7212e-23 -2.33238e-22 0)
(-7.22111e-21 1.78633e-20 3.18256e-39)
(-1.65217e-21 -1.02224e-20 -8.63562e-39)
(1.69695e-20 9.32235e-20 3.90171e-38)
(3.37182e-21 -3.67006e-20 -7.62055e-38)
(6.76564e-21 -5.93323e-20 -3.60067e-38)
(-1.26358e-19 -3.04277e-20 -3.29624e-37)
(2.35161e-21 -8.16222e-20 -1.03414e-37)
(-1.55161e-21 -4.236e-21 3.3001e-39)
(5.58437e-21 -7.35928e-20 5.96522e-38)
(1.75745e-20 -7.33899e-20 8.33094e-38)
(-6.69075e-21 -3.29119e-21 -4.60624e-39)
(-6.93107e-21 -5.00174e-21 1.7478e-41)
(-9.87856e-20 5.9024e-20 1.08935e-37)
(1.69092e-20 4.16731e-20 1.34364e-38)
(-6.11274e-21 -7.8057e-21 -4.63371e-39)
(1.23758e-20 -2.64635e-20 -9.41279e-38)
(3.49314e-21 1.57405e-20 0)
(6.07235e-21 2.26653e-20 -1.49149e-37)
(5.27433e-21 5.42904e-20 7.78854e-38)
(6.2247e-21 3.78043e-20 -4.12367e-39)
(4.45986e-21 -1.34958e-20 0)
(2.86274e-21 -1.02956e-20 1.27737e-37)
(2.05866e-21 -4.39379e-20 -1.22267e-37)
(6.79185e-21 -4.27971e-20 -2.27912e-40)
(-2.81089e-21 5.841e-21 1.63331e-42)
(5.83949e-21 -2.67903e-20 -1.59787e-37)
(-3.49574e-22 9.79503e-22 -1.64086e-38)
(-1.88912e-21 4.26586e-21 -3.53148e-39)
(2.84672e-21 7.01718e-21 -2.81548e-41)
(1.20457e-21 8.47958e-21 2.8244e-41)
(-2.26113e-21 -1.31729e-20 7.94021e-39)
(-4.43009e-21 5.34654e-21 -1.61593e-42)
(2.88941e-21 2.49086e-20 -1.06332e-37)
(-2.46812e-21 8.20314e-21 -1.46806e-38)
(-1.8916e-21 6.53898e-21 0)
(-1.04237e-22 8.94774e-21 0)
(-8.09736e-22 4.36167e-21 0)
(-1.19267e-21 9.41697e-21 -2.11942e-41)
(3.4179e-21 -1.83769e-20 0)
(-7.52894e-22 2.57684e-21 1.09139e-40)
(-4.21573e-22 2.92586e-21 0)
(-2.21846e-22 3.4468e-21 1.57972e-38)
(-1.8832e-22 6.32056e-21 -2.87705e-38)
(-1.72266e-22 -4.58938e-20 1.7806e-37)
(-2.2036e-22 -9.96153e-22 -1.35162e-38)
(1.9546e-21 -3.95586e-21 0)
(-1.48552e-22 -1.59086e-22 7.28357e-39)
(5.55369e-22 -4.18524e-21 -3.68629e-38)
(-2.89174e-22 -3.99743e-21 0)
(3.6951e-21 -2.78617e-20 8.40732e-38)
(1.96371e-21 3.3585e-20 4.59158e-38)
(-3.4878e-22 1.92192e-21 9.18708e-39)
(-4.74458e-21 3.78168e-20 5.05815e-38)
(1.37497e-22 3.69179e-21 2.302e-38)
(3.23173e-21 8.79235e-21 1.10149e-37)
(-5.854e-22 5.57737e-21 -1.97572e-38)
(-1.46998e-21 8.55601e-21 1.46982e-38)
(-5.3466e-21 6.85443e-22 -1.39281e-38)
(-7.03353e-21 -3.76527e-21 -5.3172e-39)
(-6.38728e-21 -6.11122e-21 5.02104e-39)
(-5.48894e-21 -4.24652e-21 0)
(1.53969e-21 -1.19037e-20 -7.83023e-40)
(-3.62171e-21 -6.73357e-21 1.10666e-40)
(-1.28704e-21 -4.47385e-21 3.6146e-39)
(2.09734e-21 -7.21471e-21 -3.58267e-39)
(4.3782e-21 -1.29642e-20 -8.56508e-40)
(9.80173e-21 -1.00591e-20 0)
(1.58998e-20 -2.976e-21 2.31865e-38)
(3.03018e-21 -1.50969e-20 8.90279e-39)
(6.127e-21 -5.01889e-21 0)
(2.46776e-20 -7.39085e-22 2.25308e-39)
(2.09335e-20 -5.34639e-21 6.89519e-39)
(1.10996e-20 -6.86937e-21 -2.80047e-39)
(1.76938e-20 -5.05292e-22 4.87276e-38)
(1.70205e-20 -5.20326e-21 2.98649e-39)
(3.45006e-20 3.04519e-21 -1.75695e-38)
(1.34022e-20 -8.88352e-21 8.56414e-39)
(2.34544e-20 -5.24129e-21 0)
(3.10726e-20 -5.46574e-21 0)
(1.73831e-20 6.61745e-21 5.60678e-39)
(3.83819e-20 -2.7441e-21 -2.56952e-40)
(-1.37476e-21 -1.29535e-20 0)
(3.75981e-20 1.24057e-20 0)
(-4.07327e-22 -7.72964e-21 0)
(4.88751e-20 1.48922e-20 -7.8929e-39)
(2.81136e-20 1.61629e-20 -1.00609e-37)
(5.75194e-20 -2.65895e-20 2.70593e-38)
(3.02677e-20 -1.2627e-19 5.56169e-38)
(4.68677e-20 -6.03748e-21 0)
(5.40017e-20 3.48639e-22 0)
(-5.10494e-21 -1.2953e-21 0)
(3.2392e-23 -4.5437e-21 -9.96311e-39)
(6.09737e-20 -7.89085e-21 3.22104e-39)
(6.54231e-20 4.5155e-20 0)
(6.59452e-20 4.01108e-21 -2.96121e-39)
(6.61366e-20 -5.26458e-20 -2.36085e-38)
(7.03978e-20 -8.55294e-21 -3.48369e-39)
(1.81853e-20 9.81478e-20 2.39247e-38)
(7.16238e-20 8.72456e-21 3.48377e-39)
(-4.88869e-21 7.49132e-20 -1.39342e-37)
(6.99518e-20 -1.04333e-20 1.18917e-41)
(-8.19193e-22 -1.22053e-21 3.5184e-41)
(-1.29744e-21 1.34558e-19 -3.99107e-38)
(3.73018e-20 7.27363e-20 -2.42489e-38)
(-1.37891e-21 -4.97102e-21 1.51344e-38)
(6.37931e-20 1.25581e-20 0)
(1.87336e-20 -1.1021e-20 -3.33317e-39)
(1.56871e-20 1.29977e-19 2.33318e-38)
(-2.53101e-19 -2.92725e-20 6.24481e-38)
(5.40192e-20 -1.13425e-20 0)
(3.87641e-20 1.68253e-20 0)
(1.92892e-21 6.87577e-21 4.61999e-38)
(5.58002e-22 2.8791e-21 0)
(-8.08615e-21 -1.36013e-19 -7.10687e-38)
(1.87979e-20 -6.95363e-20 1.74719e-40)
(-2.35145e-21 -1.32653e-21 -1.78193e-41)
(4.77894e-22 5.49318e-21 0)
(-1.07641e-21 4.12184e-22 -4.61377e-39)
(-2.40308e-20 1.21009e-19 -9.62926e-38)
(-4.4515e-21 -9.34156e-20 -6.59742e-38)
(1.76526e-21 2.19235e-21 9.41542e-38)
(-1.47268e-19 -4.50401e-20 0)
(-1.98709e-21 -9.00244e-22 0)
(-3.5996e-20 -6.62683e-20 6.7664e-38)
(-6.56699e-20 -8.00474e-20 6.44682e-40)
(-1.13097e-19 -4.90192e-20 -3.93814e-40)
(-3.98318e-21 -9.40851e-22 -2.86459e-40)
(-6.37499e-21 1.14147e-21 -8.82047e-39)
(4.72437e-20 -2.65056e-20 -2.77842e-38)
(4.66816e-21 1.01686e-21 -1.46081e-37)
(3.02801e-21 -3.6859e-21 0)
(2.52313e-20 -6.8353e-20 7.21475e-39)
(2.11285e-20 -4.20908e-20 9.43391e-38)
(-1.14116e-19 -6.45464e-20 3.26406e-37)
(-2.9888e-20 9.05633e-20 6.79605e-38)
(-7.63154e-20 1.27766e-20 3.15179e-39)
(-1.37422e-19 1.49189e-20 -6.1161e-37)
(-1.07493e-19 -2.41456e-19 7.52002e-37)
(3.47494e-21 -1.24915e-20 1.39157e-38)
(5.84236e-20 -4.28385e-20 2.95615e-38)
(6.30594e-20 -6.11532e-20 3.93147e-38)
(1.40892e-21 -1.20354e-20 1.85035e-38)
(-3.59226e-20 -7.42105e-20 -8.69248e-37)
(1.69812e-20 -9.90158e-20 1.2261e-38)
(-3.08639e-21 6.93363e-21 1.11772e-38)
(-3.32059e-21 -1.52926e-21 -5.61885e-40)
(4.38569e-20 -1.5914e-20 0)
(-1.69655e-19 1.57599e-21 1.52675e-38)
(5.69788e-20 -7.85318e-20 6.08815e-39)
(3.56075e-20 -9.08503e-20 0)
(1.19613e-21 2.63946e-22 -7.46255e-38)
(-6.57147e-20 -1.00857e-19 0)
(2.38696e-22 -5.28575e-22 0)
(-1.53964e-19 2.48327e-20 -1.10588e-37)
(-1.14276e-21 -2.3944e-21 -8.43535e-39)
(1.54452e-20 -2.07075e-20 3.15015e-40)
(-3.66011e-20 -1.05631e-19 3.95284e-37)
(1.57934e-20 -4.80922e-20 -9.02858e-38)
(-1.21274e-19 -1.16961e-20 -1.67588e-38)
(-6.00136e-22 1.22257e-21 8.34915e-40)
(-3.86751e-22 1.7925e-22 -9.70083e-39)
(-1.85113e-19 4.72694e-21 1.48282e-37)
(-1.17923e-21 -1.06411e-21 0)
(-4.92746e-20 -1.13002e-19 -1.86988e-37)
(-4.36483e-21 -1.16994e-20 6.938e-39)
(-4.63447e-19 1.55143e-19 -1.23489e-37)
(2.36543e-22 -1.23689e-23 1.41178e-39)
(6.64522e-20 -3.93101e-20 -5.05979e-38)
(-1.41311e-21 8.4285e-21 2.10895e-41)
(-6.45462e-21 -6.41851e-22 4.01664e-39)
(-1.91995e-21 -3.36499e-21 7.44122e-39)
(5.16136e-23 -5.64427e-23 -1.23297e-39)
(2.20095e-20 -1.2229e-19 -3.44631e-38)
(-3.59089e-21 -1.04032e-20 -1.12714e-38)
(1.57253e-22 2.23426e-23 -8.44552e-40)
(-3.85208e-19 -4.17375e-19 0)
(-1.00545e-21 -1.31042e-19 -1.47564e-39)
(-1.78122e-20 -1.34858e-19 1.85582e-37)
(5.16727e-20 -6.36639e-20 6.37953e-40)
(-4.54838e-23 -9.25299e-22 -9.94162e-40)
(-2.61147e-22 3.96349e-22 1.44194e-38)
(1.71509e-20 -8.26019e-21 -5.47932e-38)
(2.6435e-22 -2.11868e-22 1.50924e-39)
(8.26974e-22 6.72027e-21 0)
(-5.5276e-21 -6.74982e-23 1.93589e-41)
(1.57908e-22 -1.79277e-22 9.60604e-40)
(8.49242e-21 -9.87998e-21 0)
(9.77209e-21 -5.40801e-21 7.92391e-38)
(-4.57096e-21 1.45182e-21 3.56299e-40)
(-8.30589e-20 3.14533e-19 1.0877e-36)
(2.73448e-23 -3.72381e-24 0)
(-2.37403e-20 1.31245e-19 -5.87337e-37)
(8.01226e-24 8.53679e-24 2.14866e-41)
(-3.14996e-19 4.06919e-19 0)
(2.0038e-22 -1.09694e-22 1.38999e-39)
(-4.69074e-19 -4.94923e-20 3.34593e-38)
(2.08331e-22 -4.99113e-23 -3.2632e-40)
(-1.37975e-19 2.71626e-19 0)
(-2.79782e-19 -3.42794e-19 1.77806e-38)
(-2.74774e-23 -1.4859e-22 6.0494e-40)
(-6.97201e-23 -1.04228e-21 0)
(3.33371e-20 3.52102e-20 0)
(-3.52277e-20 -6.42496e-20 0)
(-2.11369e-22 -9.3379e-22 -2.66121e-39)
(-7.95925e-23 -3.20703e-22 0)
(-2.26616e-20 4.66241e-21 1.25602e-36)
(-4.04774e-20 1.1252e-19 -2.60643e-38)
(1.64316e-20 2.47947e-20 0)
(-9.61592e-21 4.71993e-20 7.24478e-38)
(7.19735e-23 -9.90471e-22 0)
(-1.46233e-19 -2.90368e-20 3.49364e-37)
(-2.05303e-21 -6.84267e-21 -2.62723e-38)
(-4.36505e-21 6.8723e-20 7.76023e-37)
(-7.54862e-22 -2.01989e-21 -2.53261e-39)
(3.89422e-21 6.22244e-20 0)
(2.56877e-20 8.91033e-20 -4.14764e-38)
(2.37562e-20 5.89192e-20 0)
(5.94463e-20 6.4676e-20 -1.55557e-39)
(5.06691e-20 2.65273e-20 -9.2683e-39)
(4.73108e-20 8.33079e-20 0)
(5.93278e-20 4.60302e-20 -1.27515e-38)
(2.48205e-22 -6.33683e-22 2.29319e-39)
(4.62251e-21 8.72042e-21 0)
(1.33195e-21 -4.97268e-21 0)
(5.11986e-21 -1.36546e-20 -1.35534e-38)
(1.13399e-20 -5.9374e-21 0)
(5.08776e-22 -7.27371e-21 2.81252e-38)
(-6.31716e-23 -7.68797e-21 3.15112e-38)
(-1.28367e-21 -1.30541e-20 3.76783e-41)
(-5.37592e-21 -7.41941e-21 3.83322e-39)
(-5.59612e-21 -9.94175e-21 0)
(-2.43492e-21 -3.28747e-21 1.50458e-38)
(-2.20691e-21 -9.72796e-21 0)
(-8.72143e-20 5.64558e-20 3.1247e-37)
(-3.86491e-19 4.07665e-19 0)
(1.0173e-22 -2.22017e-23 0)
(-3.27883e-19 -4.32505e-19 0)
(-1.02089e-22 -2.50416e-23 3.76087e-39)
(-4.77921e-19 -4.97515e-21 1.44172e-37)
(-4.32785e-19 -2.78618e-19 0)
(-2.98377e-20 -1.41913e-19 0)
(-1.55378e-23 -5.90481e-23 -6.21142e-39)
(-9.04632e-20 -3.24415e-19 0)
(1.3715e-23 4.9008e-23 8.13033e-39)
(-4.16561e-19 2.06973e-19 9.22082e-38)
(5.69083e-24 -7.6331e-22 2.73025e-39)
(3.06111e-22 -3.74245e-22 0)
(-6.95206e-22 -1.56505e-21 -2.4265e-39)
(3.94592e-22 -5.16553e-22 0)
(-3.27514e-19 2.93451e-19 0)
(-1.58145e-20 -4.98731e-20 0)
(2.03495e-23 -5.86887e-22 2.53369e-40)
(3.99725e-22 -2.83913e-22 -1.25052e-39)
(-4.41005e-19 2.48278e-19 -9.15267e-38)
(1.60405e-22 -4.62861e-22 4.19498e-39)
(3.1914e-22 -1.13985e-22 -2.04828e-39)
(-2.25231e-19 -9.93429e-20 2.42932e-37)
(-6.64342e-21 1.5543e-20 -5.35695e-37)
(-2.49222e-19 -5.01524e-19 -5.31864e-37)
(-7.69964e-20 8.21508e-20 1.19431e-37)
(-4.89599e-22 3.85266e-20 -2.96044e-37)
(2.65675e-21 6.66773e-20 8.25075e-38)
(6.28735e-22 3.33922e-20 -5.95578e-38)
(-5.4737e-20 1.67562e-19 1.28694e-36)
(1.11451e-22 1.55223e-23 -3.20152e-41)
(5.99326e-20 5.35021e-20 1.6727e-39)
(1.5611e-20 6.38336e-20 4.64761e-39)
(1.54053e-22 -7.36704e-22 -6.8217e-39)
(6.12679e-20 2.50769e-20 3.27147e-38)
(1.63333e-21 1.38186e-21 0)
(1.65159e-21 -6.5505e-22 2.33812e-38)
(-1.13902e-21 -2.02014e-21 2.54012e-39)
(6.44252e-22 -1.67706e-21 0)
(-2.66576e-22 -1.06281e-21 2.68569e-39)
(1.02044e-20 -1.01485e-20 0)
(3.39078e-23 -3.69453e-21 -1.08631e-38)
(-3.43404e-21 -1.06397e-20 -4.69556e-40)
(-4.68104e-21 -1.1747e-20 2.47559e-39)
(-3.76476e-21 -3.95789e-21 -1.05343e-38)
(-5.79341e-21 -9.7214e-21 1.95839e-40)
(-4.30584e-21 -5.06009e-21 3.54002e-39)
(-1.43532e-21 -7.04327e-21 1.00335e-38)
(-5.36617e-21 -5.53531e-21 -3.48959e-39)
(-1.32679e-21 -1.49324e-20 4.69929e-39)
(2.21477e-20 1.13116e-19 0)
(-4.71758e-19 -1.61349e-19 -6.00878e-38)
(2.15411e-20 1.31207e-19 4.10461e-39)
(-2.9239e-22 -1.20704e-21 0)
(6.49465e-22 -1.5926e-20 -1.00635e-38)
(2.24381e-20 3.65864e-20 0)
(2.67859e-20 2.3785e-20 5.85276e-38)
(-1.05809e-22 -3.52412e-22 -3.79387e-39)
(1.61668e-22 -2.78408e-22 1.77019e-39)
(-4.86168e-23 -3.20381e-22 -1.80007e-39)
(1.20957e-22 -1.43843e-22 -8.36312e-39)
(-4.27764e-20 -1.56251e-19 0)
(-1.73381e-19 -4.07166e-19 1.58285e-37)
(-2.59232e-22 -1.11956e-21 8.65156e-39)
)
;

boundaryField
{
    back
    {
        type            empty;
    }
    front
    {
        type            empty;
    }
    left
    {
        type            noSlip;
    }
    top
    {
        type            uniformFixedValue;
        uniformValue    
        {
            type            scale;
            scale           
            {
                type            squarePulse;
                start           0.3;
                duration        0.3;
            }
            xScale          
            {
                type            constant;
                value           1;
            }
            value           
            {
                type            constant;
                value           (0 -0.7 0);
            }
        }
        value           uniform (0 -0 0);
    }
    right
    {
        type            noSlip;
    }
    bottom
    {
        type            zeroGradient;
    }
}


// ************************************************************************* //
