/*--------------------------------*- C++ -*----------------------------------*\
  =========                 |
  \\      /  F ield         | OpenFOAM: The Open Source CFD Toolbox
   \\    /   O peration     | Website:  https://openfoam.org
    \\  /    A nd           | Version:  9
     \\/     M anipulation  |
\*---------------------------------------------------------------------------*/
FoamFile
{
    format      ascii;
    class       volScalarField;
    location    "1.22";
    object      p;
}
// * * * * * * * * * * * * * * * * * * * * * * * * * * * * * * * * * * * * * //

dimensions      [0 2 -2 0 0 0 0];

internalField   nonuniform List<scalar> 
1655
(
14.7513
14.7367
14.6814
14.7595
14.778
14.7756
14.6768
14.7625
14.7366
14.7775
14.7543
14.7532
14.7677
14.7172
14.7194
14.6317
14.6464
14.7316
14.7712
14.7171
14.6269
14.7349
14.7746
14.777
14.7513
14.6416
14.6298
14.7429
14.7467
14.6212
14.6667
14.6926
14.6976
14.692
14.7314
14.6946
14.7752
14.736
14.6996
14.7371
14.6254
14.7779
14.7072
14.7683
14.7289
14.7591
14.7575
14.7288
14.7759
14.71
14.7747
14.6866
14.719
14.7415
14.7379
14.7126
14.626
14.7553
14.7567
14.7112
14.6673
14.7735
14.7503
14.7606
14.7631
14.6716
14.7569
14.756
14.731
14.7791
14.7566
14.6761
14.6262
14.7207
14.6775
14.7252
14.7504
14.7307
14.6261
14.623
14.7617
14.7265
14.7361
14.7672
14.6265
14.7189
14.6788
14.6251
14.7415
14.7182
14.7206
14.6836
14.7701
14.7777
14.721
14.771
14.7581
14.7577
14.6936
14.663
14.6819
14.7601
14.7775
14.7601
14.7309
14.7731
14.759
14.6204
14.6608
14.7143
14.6787
14.7545
14.711
14.6298
14.764
14.7218
14.7621
14.7576
14.7425
14.7322
14.7062
14.6828
14.6729
14.7514
14.7582
14.7706
14.71
14.7209
14.6341
14.6345
14.773
14.6744
14.7617
14.772
14.6215
14.7376
14.7784
14.7192
14.6253
14.756
14.7132
14.63
14.6338
14.6841
14.649
14.679
14.6891
14.7037
14.6967
14.6599
14.6652
14.6549
14.6746
14.67
14.7201
14.7111
14.7646
14.6948
14.7614
14.7624
14.6933
14.7411
14.7425
14.6919
14.6871
14.7567
14.7435
14.767
14.7597
14.7299
14.6457
14.7426
14.6995
14.7531
14.6247
14.7564
14.7743
14.7285
14.6397
14.7183
14.7154
14.7426
14.7756
14.753
14.7325
14.649
14.7272
14.6457
14.7344
14.7442
14.7314
14.7726
14.7382
14.6861
14.6602
14.6209
14.7366
14.6561
14.742
14.7435
14.7555
14.7555
14.6768
14.6717
14.7245
14.6299
14.7017
14.7371
14.6393
14.6873
14.7044
14.6925
14.7368
14.7679
14.7181
14.7553
14.692
14.7423
14.6997
14.7455
14.7286
14.6272
14.7019
14.7501
14.6993
14.6724
14.6693
14.7239
14.6957
14.6976
14.7175
14.6906
14.694
14.7307
14.6985
14.7148
14.6679
14.7383
14.6616
14.6899
14.719
14.7324
14.6947
14.622
14.7487
14.6235
14.6609
14.7464
14.657
14.7484
14.7683
14.6223
14.7359
14.6982
14.7015
14.705
14.6606
14.7507
14.7285
14.7059
14.7346
14.6367
14.6744
14.6931
14.7343
14.7651
14.7086
14.7152
14.6936
14.7151
14.7221
14.7313
14.7326
14.6396
14.7282
14.732
14.6587
14.7491
14.7351
14.7234
14.7389
14.7655
14.7295
14.7166
14.7158
14.7337
14.7401
14.6804
14.7066
14.7325
14.735
14.6239
14.7138
14.7466
14.7408
14.6895
14.7612
14.7009
14.6227
14.6468
14.6793
14.7794
14.7797
14.6904
14.6719
14.7371
14.6786
14.6496
14.7409
14.6774
14.7328
14.65
14.6457
14.7317
14.7631
14.7423
14.6236
14.7395
14.6756
14.6679
14.7411
14.716
14.6831
14.6933
14.6825
14.759
14.759
14.7641
14.6563
14.739
14.7067
14.7422
14.7193
14.647
14.738
14.6589
14.7411
14.7122
14.6822
14.737
14.6725
14.6921
14.7278
14.6927
14.7159
14.6947
14.7165
14.6824
14.6712
14.6371
14.7759
14.7284
14.6953
14.6893
14.7443
14.6816
14.6848
14.6873
14.7451
14.6663
14.7146
14.7089
14.7438
14.7132
14.7239
14.7144
14.6495
14.7801
14.7441
14.7107
14.731
14.6925
14.7275
14.6908
14.7813
14.7421
14.745
14.7651
14.7165
14.6801
14.7205
14.7193
14.7678
14.7126
14.679
14.7467
14.6893
14.7466
14.7303
14.6641
14.6285
14.7298
14.7467
14.7482
14.6968
14.6952
14.6804
14.7345
14.7467
14.761
14.6852
14.7194
14.7202
14.7643
14.7352
14.6989
14.7478
14.7273
14.7348
14.7413
14.7814
14.7163
14.7064
14.7391
14.7022
14.7128
14.7491
14.6897
14.7063
14.6942
14.7628
14.715
14.7034
14.6868
14.707
14.6566
14.6938
14.6947
14.6515
14.7335
14.6714
14.7137
14.7004
14.7788
14.7109
14.7299
14.7142
14.7216
14.7812
14.7196
14.6323
14.6936
14.729
14.6862
14.6998
14.7242
14.7324
14.741
14.731
14.7336
14.7285
14.7353
14.7222
14.7073
14.7275
14.7022
14.7568
14.6929
14.7346
14.7098
14.729
14.6947
14.7241
14.7399
14.7656
14.769
14.7004
14.6929
14.6976
14.7299
14.7343
14.7194
14.7083
14.7331
14.7352
14.7353
14.7391
14.7364
14.6967
14.705
14.6726
14.7394
14.6997
14.7174
14.7378
14.7037
14.7113
14.708
14.733
14.7095
14.7327
14.7234
14.7074
14.7455
14.7459
14.7334
14.6625
14.7029
14.7315
14.7424
14.7472
14.7401
14.7007
14.742
14.6598
14.7473
14.7115
14.7457
14.7423
14.7139
14.7654
14.7475
14.7525
14.7391
14.7064
14.7452
14.742
14.7362
14.6671
14.6714
14.7073
14.7055
14.7371
14.7398
14.6669
14.7075
14.7503
14.7457
14.7407
14.7125
14.7501
14.7216
14.7479
14.7577
14.7771
14.7389
14.78
14.7556
14.7624
14.7596
14.7722
14.6809
14.775
14.7583
14.744
14.7786
14.7512
14.7581
14.742
14.7668
14.7577
14.7461
14.6474
14.7505
14.7426
14.6638
14.6795
14.7428
14.748
14.7186
14.7325
14.753
14.7045
14.7099
14.7637
14.6767
14.7327
14.7
14.7105
14.7113
14.7414
14.7214
14.6844
14.755
14.7158
14.7356
14.7476
14.7264
14.6726
14.7258
14.7515
14.7514
14.758
14.6816
14.7509
14.7513
14.7047
14.7131
14.743
14.7136
14.744
14.7133
14.7143
14.7162
14.715
14.6775
14.7404
14.6984
14.7187
14.7159
14.722
14.6623
14.6983
14.7158
14.6568
14.6514
14.6745
14.7059
14.6278
14.6708
14.743
14.7477
14.6362
14.6662
14.6897
14.7259
14.6695
14.7516
14.7098
14.6877
14.674
14.7169
14.6675
14.704
14.7179
14.7554
14.7167
14.7172
14.7184
14.7438
14.7216
14.7395
14.7204
14.754
14.7504
14.7231
14.7538
14.7549
14.7463
14.7332
14.7514
14.6964
14.7226
14.754
14.7503
14.7674
14.7433
14.7533
14.7385
14.6461
14.7265
14.7433
14.7246
14.737
14.738
14.7485
14.7284
14.7262
14.7235
14.6806
14.7413
14.7208
14.7479
14.734
14.717
14.7154
14.7556
14.7513
14.7548
14.7468
14.7164
14.7262
14.7541
14.7403
14.7526
14.7468
14.7372
14.7646
14.7099
14.7572
14.7317
14.7258
14.7456
14.7195
14.7421
14.6717
14.7537
14.723
14.7304
14.7304
14.7419
14.7503
14.759
14.7346
14.7465
14.7311
14.7557
14.7208
14.7475
14.7505
14.726
14.7478
14.7445
14.7452
14.7384
14.7439
14.7545
14.7238
14.7351
14.7257
14.6706
14.7345
14.6614
14.7274
14.7268
14.7353
14.7591
14.7484
14.7278
14.6431
14.7312
14.7385
14.7338
14.7298
14.7656
14.6708
14.7364
14.756
14.7403
14.757
14.6494
14.7649
14.7392
14.7351
14.7638
14.7543
14.7371
14.7488
14.7427
14.7523
14.6778
14.7665
14.7474
14.6676
14.7348
14.7389
14.7415
14.7444
14.7579
14.7482
14.7424
14.7565
14.721
14.6442
14.6531
14.7657
14.7595
14.7446
14.7321
14.7611
14.6604
14.6579
14.7426
14.7639
14.7139
14.7511
14.7503
14.6667
14.7444
14.7243
14.6569
14.7566
14.7615
14.7103
14.7267
14.7299
14.7441
14.7399
14.7364
14.7376
14.7491
14.7472
14.7454
14.7463
14.7283
14.7321
14.7665
14.7351
14.744
14.7282
14.7624
14.6513
14.7394
14.7306
14.7524
14.6927
14.7238
14.7286
14.7658
14.7581
14.7683
14.7618
14.7578
14.7608
14.727
14.7247
14.7477
14.77
14.6579
14.7646
14.7272
14.7303
14.6585
14.7628
14.7182
14.6628
14.7547
14.7492
14.7599
14.6484
14.7414
14.7559
14.7125
14.7719
14.7399
14.6608
14.7418
14.721
14.7502
14.7561
14.7261
14.7536
14.7457
14.7517
14.753
14.7472
14.7533
14.7412
14.7688
14.7536
14.7339
14.7512
14.6519
14.7688
14.7701
14.7489
14.6495
14.7602
14.7362
14.7479
14.7469
14.6407
14.7187
14.7401
14.755
14.7682
14.7397
14.7465
14.7354
14.7499
14.7673
14.7263
14.7217
14.6607
14.7456
14.7524
14.7709
14.7464
14.7427
14.7287
14.7333
14.7554
14.7692
14.7504
14.7473
14.7388
14.7508
14.7372
14.7333
14.6383
14.7354
14.7703
14.6412
14.7195
14.7623
14.7421
14.7616
14.7492
14.7359
14.7573
14.7684
14.7447
14.6598
14.7541
14.7725
14.7033
14.7467
14.7355
14.7507
14.7463
14.7601
14.7487
14.7368
14.7589
14.7739
14.7502
14.7586
14.7698
14.7643
14.7357
14.7521
14.6542
14.6427
14.7686
14.7682
14.7464
14.7517
14.6386
14.7628
14.7391
14.7272
14.7722
14.7565
14.7363
14.7514
14.7573
14.7511
14.733
14.7499
14.7707
14.7545
14.7227
14.7543
14.7683
14.7697
14.7346
14.7547
14.7575
14.7076
14.7201
14.7587
14.6526
14.756
14.7184
14.7404
14.7528
14.7004
14.7603
14.7185
14.7724
14.7696
14.758
14.7288
14.7351
14.6898
14.6896
14.7293
14.746
14.737
14.7393
14.7561
14.7427
14.7514
14.7341
14.637
14.6832
14.7274
14.7477
14.6446
14.7094
14.6677
14.7636
14.7033
14.7615
14.7736
14.7735
14.7139
14.7686
14.7592
14.7661
14.7684
14.745
14.6997
14.647
14.7236
14.7697
14.7095
14.7498
14.7125
14.756
14.7293
14.7447
14.7763
14.7218
14.7327
14.7513
14.646
14.7498
14.7464
14.773
14.7746
14.7698
14.7298
14.7746
14.7514
14.7701
14.7392
14.7494
14.7012
14.7224
14.713
14.773
14.7692
14.7188
14.7446
14.7695
14.7497
14.7267
14.7168
14.7266
14.759
14.6863
14.7253
14.7643
14.7159
14.7088
14.7656
14.7265
14.7513
14.7296
14.6803
14.6373
14.6411
14.7076
14.7159
14.7127
14.728
14.732
14.7247
14.7758
14.7268
14.6739
14.7666
14.7647
14.7197
14.7106
14.6673
14.7606
14.7365
14.7034
14.698
14.7076
14.7268
14.7052
14.6407
14.7218
14.724
14.7538
14.7309
14.7397
14.7325
14.658
14.7679
14.7122
14.634
14.7038
14.7215
14.7716
14.7638
14.7555
14.7588
14.7209
14.7245
14.7638
14.7537
14.7171
14.754
14.6364
14.6786
14.7448
14.7256
14.662
14.7655
14.755
14.7501
14.6367
14.7536
14.7319
14.7306
14.6918
14.7365
14.6339
14.7589
14.7558
14.7416
14.7589
14.7502
14.7644
14.7294
14.7304
14.7329
14.7707
14.7534
14.7371
14.7248
14.7546
14.7666
14.6331
14.7523
14.7292
14.7604
14.7362
14.7639
14.7106
14.7693
14.7179
14.7061
14.7608
14.7264
14.7539
14.7341
14.6996
14.7276
14.7342
14.7559
14.7159
14.7562
14.7048
14.7076
14.7641
14.7607
14.6286
14.7022
14.7163
14.7526
14.7309
14.7191
14.7601
14.6888
14.7408
14.7568
14.6855
14.6388
14.7403
14.7591
14.7657
14.7466
14.7621
14.7285
14.7017
14.7028
14.7654
14.7359
14.7135
14.7398
14.7608
14.7547
14.7194
14.7376
14.6235
14.7081
14.6831
14.682
14.7291
14.7464
14.6993
14.7026
14.7017
14.695
14.7654
14.7609
14.7564
14.7419
14.682
14.7597
14.7142
14.6209
14.7598
14.6726
14.759
14.7592
14.7135
14.7413
14.7305
14.7452
14.6495
14.7178
14.6408
14.7297
14.7595
14.6666
14.7267
14.7124
14.7579
14.6419
14.6546
14.7284
14.7586
14.7175
14.7649
14.7615
14.7325
14.7499
14.63
14.723
14.6787
14.7709
14.6577
14.643
14.7158
14.7307
14.686
14.6589
14.7226
14.6805
14.6532
14.6466
14.7181
14.7095
14.755
14.7641
14.7604
14.7148
14.6837
14.6258
14.7766
14.7419
14.7059
14.6913
14.6464
14.7612
14.7182
14.7687
14.773
14.6786
14.7704
14.741
14.6328
14.6461
14.7228
14.6836
14.7007
14.706
14.766
14.7737
14.6713
14.7733
14.622
14.7264
14.6515
14.7561
14.6793
14.6784
14.7208
14.7384
14.731
14.6939
14.67
14.7592
14.6229
14.6582
14.6881
14.6652
14.6857
14.6644
14.7227
14.7266
14.7125
14.7226
14.718
14.7513
14.6516
14.7547
14.7542
14.6719
14.7168
14.7271
14.6525
14.7554
14.7352
14.7574
14.6337
14.6645
14.7534
14.7722
14.7793
14.7417
14.6833
14.6719
14.6758
14.7342
14.7405
14.7356
14.7315
14.7358
14.7582
14.7317
14.6249
14.7306
14.7309
14.6371
14.7655
14.7395
14.771
14.7757
14.7763
14.7454
14.7793
14.7406
14.7766
14.703
14.6273
14.7803
14.7534
14.6409
14.7584
14.754
14.7405
14.7528
14.7468
14.7453
14.75
14.7336
14.7378
14.6611
14.7543
14.7509
14.7561
14.7271
14.7378
14.6975
14.7629
14.7337
14.705
14.6533
14.7287
14.7713
14.7678
14.7546
14.7765
14.7772
14.7636
14.7558
14.7725
14.775
14.7776
14.7743
14.7518
14.7652
14.7556
14.7706
14.7688
14.7542
14.776
14.778
14.7645
14.7526
14.7563
14.7736
14.7042
14.7581
14.6636
14.6318
14.7802
14.7803
14.7593
14.7319
14.6326
14.6309
14.7139
14.6416
14.6561
14.715
14.7484
14.7503
14.7478
14.7079
14.7262
14.7585
14.7396
14.7807
14.744
14.7243
14.7488
14.6326
14.6516
14.7507
14.7723
14.7324
14.7348
14.7496
14.744
14.6436
14.6812
14.6553
14.7184
14.7679
14.7244
14.7771
14.7173
14.7529
14.7298
14.7379
14.7285
14.7474
14.7694
14.7529
14.727
14.7741
14.6842
14.7506
14.7557
14.6376
14.6298
14.6498
14.7722
14.7734
14.7223
14.774
14.6491
14.7582
14.7232
14.7201
14.6698
14.7709
14.7767
14.73
14.7279
14.78
14.7006
14.7482
14.7469
14.7444
14.7246
14.7265
14.6853
14.7511
14.7561
14.7394
14.732
14.7328
14.7543
14.7245
14.7207
14.7217
14.7524
14.732
14.7534
14.6311
14.7141
14.7598
14.7132
14.7623
14.6205
14.7112
14.7277
14.7736
14.7614
14.7703
14.7737
14.7201
14.7761
14.7773
14.7144
14.7787
14.7227
14.6206
14.7293
14.7189
14.6865
14.7167
14.7858
14.7727
14.6546
14.757
14.7567
14.7166
14.7318
14.7585
14.7222
14.7337
14.7795
14.6409
14.7353
14.7783
14.724
14.7218
14.7346
14.6325
14.701
14.7173
14.7176
14.7701
14.7778
14.7828
14.778
14.78
14.7779
14.7812
14.7816
14.7788
14.7797
14.7569
14.7576
14.7262
14.7432
14.7781
14.7464
14.7577
14.7584
14.7489
14.7356
14.7584
14.7793
14.6528
14.6841
14.7197
14.7595
14.7445
14.7566
14.7246
14.7776
14.6364
14.7411
14.7459
14.729
14.6701
14.7408
14.7475
14.7067
14.6857
14.7406
14.7331
14.7256
14.7168
14.7336
14.7237
14.757
14.7124
14.7392
14.7768
14.7702
14.7349
14.718
14.7766
14.7742
14.7531
14.6879
14.72
14.7099
14.7606
14.7678
14.7795
14.7284
14.7227
14.6645
14.7555
14.7794
14.7188
14.7724
14.658
14.7731
14.7508
14.7386
14.7692
14.7211
14.7328
14.7567
14.7534
14.7722
14.7174
14.6364
14.7774
14.7494
14.7724
14.7517
14.781
14.7383
14.7327
14.6953
14.7329
14.7342
14.6593
14.7568
14.7229
14.7125
14.7342
14.7648
14.7839
14.7412
14.6823
14.6896
14.6747
14.755
14.7243
14.7535
14.7556
14.6207
14.758
14.7297
14.757
14.7747
14.7304
14.7803
14.6638
14.6948
14.7201
14.767
14.7752
14.6916
14.7201
14.7327
14.7474
14.7332
14.7238
14.7168
14.7162
14.7184
14.7805
14.6378
14.7601
14.7421
14.7027
14.7142
14.7163
14.7779
14.7756
14.7166
14.7725
14.758
14.7558
14.7569
14.7799
14.6891
14.7475
14.7652
14.7462
14.716
14.7493
14.7512
14.7153
14.7443
14.7233
14.7195
14.7795
14.7446
14.7105
14.6906
14.6983
14.7324
14.6651
14.7056
14.6717
14.7806
14.7315
)
;

boundaryField
{
    back
    {
        type            empty;
    }
    front
    {
        type            empty;
    }
    top
    {
        type            zeroGradient;
    }
    outer_arc
    {
        type            zeroGradient;
    }
    bottom
    {
        type            uniformFixedValue;
        uniformValue    
        {
            type            table;
            format          csv;
            file            "outlet_p.csv";
            nHeaderLine     1;
            refColumn       0;
            componentColumns List<label> 1(1);
            separator       ",";
            mergeSeparators 0;
        }
        value           uniform 14.7312;
    }
    inner_arc
    {
        type            zeroGradient;
    }
}


// ************************************************************************* //
