/*--------------------------------*- C++ -*----------------------------------*\
  =========                 |
  \\      /  F ield         | OpenFOAM: The Open Source CFD Toolbox
   \\    /   O peration     | Website:  https://openfoam.org
    \\  /    A nd           | Version:  9
     \\/     M anipulation  |
\*---------------------------------------------------------------------------*/
FoamFile
{
    format      ascii;
    class       volVectorField;
    location    "0.55";
    object      U;
}
// * * * * * * * * * * * * * * * * * * * * * * * * * * * * * * * * * * * * * //

dimensions      [0 1 -1 0 0 0 0];

internalField   nonuniform List<vector> 
1655
(
(0.0468765 -0.0181823 -4.57165e-18)
(0.0173945 -0.0353504 3.01817e-17)
(-0.0930217 0.0234277 2.44914e-17)
(-0.0101739 0.011604 -1.46584e-17)
(0.0734403 0.0861133 0)
(0.0526997 0.031393 9.18253e-18)
(-0.123563 0.0324993 0)
(0.0408571 0.160416 -1.62721e-17)
(0.0734436 0.216252 0)
(0.0714988 0.0792533 -7.95694e-18)
(0.0487017 -0.0134486 3.65961e-17)
(0.0599474 -0.0171074 -3.60532e-17)
(0.0293039 0.0989 -2.07986e-21)
(0.0260418 -0.00164413 -1.90417e-17)
(0.00134276 -0.108997 1.86854e-17)
(-0.194797 0.0339375 0)
(-0.219632 0.114017 3.22401e-17)
(0.0248928 -0.112543 9.75461e-18)
(0.037298 0.0117239 -3.66954e-17)
(0.0187116 0.0115209 -1.05711e-17)
(-0.0311093 -0.0573836 4.29248e-18)
(0.0679446 0.231219 0)
(0.0655041 0.122526 -1.96353e-17)
(0.0603014 0.113801 9.11814e-18)
(0.0530131 -0.01975 -5.74766e-18)
(-0.223463 0.115403 -3.80829e-17)
(-0.0999744 -0.0029885 -1.69545e-17)
(0.0545243 0.214817 -1.95374e-17)
(0.0489912 0.212891 2.63374e-17)
(0.0383427 -0.0363459 -1.89876e-17)
(-0.178862 0.0480841 4.71284e-17)
(-0.0130634 0.0235523 -5.08785e-18)
(0.0154472 -0.0596209 -6.99141e-18)
(-0.0952912 -0.0207993 0)
(0.00649381 -0.102104 0)
(-0.0905148 -0.033704 0)
(0.0631721 0.0385825 -2.46767e-17)
(0.0199097 -0.0452334 0)
(0.0126105 -0.0589562 -9.56815e-18)
(0.0317222 -0.0503476 -3.25822e-17)
(-0.00488017 -0.0628501 1.83772e-17)
(0.0687417 0.110774 1.58701e-17)
(0.0119296 -0.0525625 -1.00068e-17)
(0.0293586 0.00696905 2.90784e-17)
(0.00168262 -0.0612674 0)
(-0.0079458 0.00656877 0)
(-0.0194695 0.0082832 4.55904e-17)
(0.000223002 -0.0232982 0)
(0.0698897 0.0552437 1.773e-17)
(0.0127112 -0.0484939 2.43652e-18)
(0.0624738 0.0332089 2.73029e-17)
(-0.0465966 0.0291056 -1.83217e-17)
(0.000651368 -0.0126282 -2.01842e-17)
(0.0716518 0.209706 1.74716e-17)
(0.104849 0.158362 -2.2565e-17)
(-0.0795154 -0.0363361 0)
(0.0207589 -0.0543948 -8.90321e-18)
(0.0231778 -0.00755034 0)
(0.0355313 -0.00800449 0)
(-0.0545074 -0.0133155 1.93382e-17)
(-0.197075 0.0377331 -4.70924e-17)
(0.0434971 0.0180086 0)
(0.064123 -0.0250537 0)
(0.0518452 0.175283 -4.49756e-18)
(0.0387472 0.00486175 0)
(-0.120526 0.048304 0)
(0.0290262 -0.00191623 4.25003e-17)
(0.0310397 -0.00783818 -2.1054e-17)
(-0.0138953 -0.111496 0)
(0.0629754 0.105437 -1.81462e-17)
(0.0110975 -0.00430151 2.33869e-17)
(-0.0999736 0.0363561 -1.11167e-18)
(0.0425351 -0.0434965 -1.18042e-18)
(-0.0034799 -0.119214 1.70861e-17)
(-0.166071 -0.0248343 -2.17886e-17)
(-0.00978914 -0.0272163 1.03678e-17)
(0.044107 0.196289 -5.98e-18)
(-0.0138433 -0.142168 0)
(-0.0147481 -0.0501047 0)
(0.0537856 -0.0370322 0)
(0.0359685 0.00422166 2.33939e-17)
(-0.0105458 -0.00754998 -1.05463e-17)
(0.100929 0.155318 2.30582e-17)
(0.0388333 0.00861112 1.17278e-17)
(0.0579677 -0.0406592 0)
(-0.0667275 -0.120258 0)
(-0.162596 -0.0130815 -1.31495e-17)
(0.0334442 -0.0518329 0)
(0.0812328 -0.0768492 -9.10791e-18)
(-0.109197 -0.0706229 0)
(-0.106505 -0.0903447 0)
(-0.101802 0.017223 1.14877e-17)
(0.0476401 0.0140233 2.24514e-17)
(0.0610082 0.0477603 0)
(-0.00494671 0.0515369 0)
(0.0483796 0.0142543 3.73853e-17)
(0.0150024 -0.00141109 -3.60122e-17)
(0.0165204 -0.00574621 0)
(-0.0319623 0.0199869 -1.09018e-17)
(0.0324087 -0.0598907 2.31206e-17)
(-0.127353 0.0137453 -7.24589e-17)
(0.0105692 -0.00310392 -2.37987e-17)
(0.0686753 0.0590244 -2.31392e-17)
(0.0254657 -0.00561718 2.49364e-17)
(0.0482928 0.0191799 0)
(0.0540254 0.0222912 -1.43476e-18)
(0.0713997 0.167443 -1.98807e-17)
(0.0216862 -0.024459 0)
(0.026768 -0.0627818 0)
(-0.1085 -0.046544 -2.02643e-17)
(0.0110453 -0.0648232 1.60993e-17)
(0.028625 -0.00411216 1.86282e-17)
(-0.111992 -0.0390524 1.22586e-17)
(0.0590132 -0.0426098 2.11366e-17)
(0.0774924 0.147667 1.89024e-17)
(-0.0779282 -0.110855 -1.19098e-17)
(0.0717237 0.160572 -2.02103e-17)
(0.0225035 -0.00148503 0)
(0.0871759 -0.0702874 1.80486e-17)
(0.0525478 0.0277722 -4.05805e-17)
(-0.114701 -0.0474429 -3.46958e-17)
(-0.150006 -0.0499978 3.54012e-17)
(-0.183515 0.0129029 -2.80045e-17)
(0.116003 -0.00379105 2.62736e-17)
(0.0261715 -0.000449191 9.24677e-18)
(0.0605334 0.150521 0)
(0.0137316 -0.0443327 -2.30092e-17)
(-0.00480476 0.0295023 2.07251e-17)
(-0.212258 0.0537446 -2.82436e-18)
(0.0342033 -0.0515691 -2.75716e-18)
(0.076899 0.0483266 5.24091e-18)
(0.0108454 -0.0659072 2.84049e-17)
(0.058203 0.173798 1.74261e-17)
(0.061054 0.141755 1.83336e-17)
(0.0151978 -0.0180711 0)
(0.0667014 -0.0933653 0)
(0.0735904 0.0950097 -1.07e-17)
(0.0104665 0.00517183 1.83038e-17)
(0.0126207 -0.0515274 9.7232e-18)
(0.023262 -0.00145367 -9.6428e-18)
(0.00511785 0.0187927 1.26496e-17)
(-0.0316813 -0.018275 1.73974e-17)
(-0.109873 0.0333625 0)
(-0.143545 -0.0712501 0)
(-0.251423 0.115987 -1.06639e-17)
(-0.140628 -0.0440519 0)
(-0.138521 -0.0798028 -3.72947e-17)
(-0.0898064 -0.0430253 3.00625e-17)
(-0.116796 -0.0680022 1.93811e-17)
(-0.240898 0.0624024 0)
(-0.215708 0.0320208 1.8359e-17)
(-0.256208 0.0926071 -9.87495e-18)
(-0.160556 -0.0182067 1.92456e-17)
(-0.1892 0.00505941 1.67801e-17)
(-0.0443796 -0.143251 0)
(0.0100854 -0.041368 3.71202e-17)
(0.0246757 0.00389272 2.36828e-18)
(-0.131376 -0.0704237 9.87358e-18)
(0.077671 0.154835 0)
(0.015639 0.00102492 -2.52976e-17)
(-0.144459 -0.07601 2.82158e-17)
(0.155524 -0.106602 0)
(0.0802461 0.203798 -9.43109e-22)
(-0.134347 -0.0715147 0)
(-0.148148 -0.0725427 0)
(0.0332753 -0.00853943 -9.75057e-18)
(0.0619503 0.206385 0)
(0.0721697 0.146896 -3.80956e-17)
(0.0124529 -0.00204533 5.85714e-18)
(-0.00481664 -0.185153 0)
(-0.216839 0.124689 0)
(0.110715 0.172605 0)
(-0.132071 -0.0664752 1.16127e-17)
(0.0787557 0.178215 2.00816e-17)
(0.061729 -0.0406105 1.23222e-18)
(0.0785682 0.170151 2.00089e-17)
(0.075137 0.0508706 5.2596e-18)
(-0.00668594 -0.220998 0)
(0.0537309 -0.0426368 -2.19711e-17)
(0.0138559 -0.00933219 1.73069e-17)
(-0.0797708 -0.0471228 2.4902e-17)
(0.113624 0.158317 1.56048e-17)
(0.0493671 0.0240464 -3.34278e-17)
(0.0906833 -0.00340824 -5.74957e-18)
(0.024501 -0.0762122 -1.103e-17)
(0.0265267 -0.0379687 0)
(-0.00122904 -0.0315794 0)
(0.0445782 -0.0391011 0)
(0.0220044 -0.0310064 0)
(0.116992 0.154641 -1.51719e-17)
(0.0112316 -0.0625834 -1.98802e-17)
(0.0522372 0.0193721 0)
(0.0769264 0.0409532 -2.04425e-17)
(-0.0277723 0.0295203 2.57487e-17)
(-0.024005 -0.0428404 0)
(0.0187281 -0.0205284 -1.2474e-17)
(0.0596907 0.0200547 0)
(0.0219071 -0.0333072 0)
(0.0539984 -0.0520906 2.3703e-17)
(0.119392 0.138329 0)
(0.040205 -0.00298777 1.31902e-17)
(0.0163242 -0.00234011 -5.91989e-18)
(-0.162904 0.00278599 2.13641e-17)
(-0.169641 0.0254363 4.77351e-17)
(-0.0792545 -0.0480301 -1.81772e-17)
(-0.0962398 -0.038215 1.44201e-17)
(0.0127272 -0.0592251 0)
(0.0667186 0.00543962 0)
(0.041631 -0.0535808 6.5329e-17)
(-0.123226 -0.0247591 0)
(0.0775295 0.0212152 3.46045e-17)
(0.0211058 0.0270335 -9.56877e-18)
(0.0522262 -0.0889524 0)
(0.0661822 0.152419 1.99152e-17)
(0.0232131 -0.0126718 -2.05559e-18)
(0.0450804 -0.00262806 4.48589e-17)
(-0.114143 -0.0465639 -1.11657e-17)
(0.129172 -0.0912101 0)
(0.078193 0.0193112 1.9673e-17)
(0.12386 0.134576 0)
(-0.00253831 -0.0208406 0)
(-0.0117474 -0.052345 -4.19607e-17)
(0.0155053 -0.0585147 2.96026e-17)
(0.119882 0.135685 2.02864e-17)
(0.0161359 -0.0583381 -2.13713e-17)
(-0.0822836 -0.0588472 2.04834e-17)
(-0.134819 -0.0767775 -2.03032e-17)
(-0.0943323 -0.0682256 0)
(0.0821689 0.0168693 2.4935e-17)
(0.0999474 0.013114 1.99853e-17)
(-0.00825678 -0.0853781 0)
(0.0993366 0.0186216 -2.4966e-17)
(0.119291 0.0166441 2.49748e-17)
(-0.00917897 -0.144497 -3.90248e-17)
(0.0106739 -0.0575293 -2.11088e-17)
(-0.00731011 -0.0792935 2.0557e-17)
(-0.0235346 -0.0389324 0)
(0.0969261 0.0196522 0)
(-0.133332 -0.0708359 2.52903e-17)
(0.126572 0.0283604 1.99547e-17)
(-0.0695449 -0.067452 -1.90613e-17)
(0.0134346 -0.0470582 3.64203e-17)
(0.148841 0.0228041 -2.49661e-17)
(0.0337325 -0.0537173 1.73993e-17)
(0.123259 0.123413 5.07482e-18)
(0.0385039 -0.0590971 -2.5796e-17)
(-0.196839 0.072399 1.51472e-17)
(0.0797237 0.195527 0)
(-0.0582136 -0.0534227 -5.10736e-18)
(0.119968 0.143511 0)
(0.0419146 0.00867647 -1.66287e-17)
(0.0499374 -0.0523138 4.13183e-18)
(0.0314359 0.0157543 -2.02135e-17)
(0.0414251 0.0252477 -1.45096e-17)
(0.00490213 -0.0590332 2.07506e-17)
(0.0922596 0.0192253 -2.46987e-17)
(0.0364555 -0.0500457 -2.13231e-17)
(0.121039 0.117258 -5.05773e-18)
(-0.00645676 -0.242004 2.67214e-17)
(0.0164496 -0.0558739 1.95242e-17)
(0.169249 -0.157706 1.49602e-17)
(0.0509842 -0.0400873 2.10206e-17)
(-0.169812 -0.105345 2.01457e-17)
(0.0402666 0.0252769 1.99285e-17)
(0.0170035 -0.00370776 2.02783e-17)
(0.08302 0.134575 2.01904e-17)
(0.0163153 -0.0594741 0)
(0.0120039 -0.0308843 -2.87383e-17)
(0.017016 -0.0596643 1.11669e-17)
(0.0282724 -0.0389074 0)
(0.00675802 -0.00208874 -2.16604e-17)
(-0.00832471 -0.115941 1.53975e-17)
(0.00562385 -0.0524308 1.06696e-17)
(0.0103342 -0.0428714 0)
(-0.00333396 -0.192207 -6.41432e-22)
(0.00732794 -0.11597 -1.55041e-17)
(-0.198151 0.0780828 0)
(0.121821 0.103485 2.52844e-17)
(0.0656408 0.042693 -2.56883e-17)
(0.193338 -0.187064 4.89751e-18)
(0.1008 0.106477 2.07362e-17)
(0.086844 0.122661 5.0689e-18)
(0.0143541 -0.163871 2.04762e-17)
(0.00523455 -0.00020127 1.82466e-17)
(-0.00959963 -0.0636158 -3.42314e-17)
(0.0300506 -0.0758287 -2.07001e-17)
(0.106833 0.0853618 2.04484e-17)
(0.0224287 -0.0609796 1.85595e-17)
(0.0140814 -0.0603047 0)
(0.00128544 -0.0849371 0)
(0.0311454 -0.0468503 2.02859e-17)
(0.0264427 -0.0700171 1.98044e-17)
(0.0281996 -0.0586332 4.30048e-17)
(0.107408 0.17707 0)
(0.115435 0.0607124 -2.04185e-17)
(-0.0039853 -0.0478366 5.20173e-18)
(0.0244233 0.103286 0)
(0.0945773 0.0155168 -3.48245e-17)
(0.0224258 -0.044702 -2.01657e-17)
(0.0482363 -0.0509073 -5.13384e-17)
(0.0224405 -0.0538227 -2.16245e-17)
(0.0310454 0.0239561 0)
(0.0100395 0.00635473 3.1257e-17)
(-0.039961 -0.0536761 -5.15992e-18)
(-0.209609 -0.117557 -4.01045e-17)
(0.0741837 0.0602523 -2.18905e-17)
(0.0133897 -0.0446589 -5.24264e-18)
(-0.0557522 -0.0519556 5.09754e-18)
(0.116611 0.0311101 -5.08978e-18)
(-0.195288 -0.138766 -1.99856e-17)
(0.0556569 -0.118939 0)
(-0.229161 0.116993 1.07501e-17)
(0.0114297 -0.0430834 -5.14485e-18)
(0.190103 -0.169746 -4.98287e-18)
(0.0836834 0.141647 0)
(0.125156 0.0650602 0)
(0.025456 -0.0743994 -2.01492e-17)
(0.105681 0.135001 -2.04268e-17)
(-0.19445 -0.133218 6.74468e-21)
(0.0287529 -0.0485177 2.26262e-17)
(0.11133 0.115117 0)
(0.0357439 -0.0524539 -2.16384e-17)
(0.0211971 -0.058572 2.85671e-18)
(-0.0204109 -0.0550167 -5.18734e-18)
(0.0153919 -0.0521945 -2.1044e-17)
(-0.0138298 0.00025657 2.9126e-17)
(-0.0182576 0.00227948 9.97577e-18)
(0.0881583 0.129447 -2.55293e-17)
(0.0358939 -0.0442134 0)
(0.0565629 0.0455088 -2.01007e-17)
(0.00504844 -0.0625274 0)
(0.120782 0.0919857 2.04051e-17)
(0.00371686 0.0220721 9.21721e-18)
(-0.0981954 -0.0602196 -2.0472e-17)
(0.107746 -0.0079821 2.04682e-17)
(-0.188699 -0.0823476 -1.51454e-17)
(0.063255 0.0470767 1.51066e-17)
(0.0238946 -0.0633144 -2.15095e-17)
(-0.157379 -0.11265 0)
(0.0871761 -0.0202437 0)
(0.0278696 -0.0553824 2.2301e-17)
(-0.0946035 -0.0897306 2.03884e-17)
(0.00438378 -0.198439 0)
(0.0893301 0.0161387 -2.48668e-17)
(0.0110611 0.0290536 0)
(-0.0601633 -0.073941 -3.59607e-17)
(0.0330477 -0.0308036 0)
(0.000362637 -0.0466033 5.22018e-18)
(0.020558 -0.0470595 0)
(-0.0126565 -0.0518437 0)
(0.0295077 0.075276 0)
(-0.0286526 -0.0137523 2.00508e-17)
(0.108208 0.0132519 0)
(0.0107554 -0.0523867 2.09814e-17)
(0.101025 0.191001 0)
(-0.154978 -0.144547 0)
(-0.108758 -0.088947 0)
(-0.154493 -0.145021 -7.11274e-21)
(0.119355 0.0667473 -2.02322e-17)
(-0.19464 -0.0970003 2.50169e-17)
(-0.0143699 -0.000213559 -1.74747e-17)
(0.00967886 -0.0645272 0)
(0.0941163 0.196188 -5.41703e-18)
(0.175224 -0.153062 1.97586e-17)
(-0.0149028 0.0333494 2.10519e-17)
(-0.0292657 -0.0411088 -1.76505e-17)
(0.0443796 -0.0482863 5.391e-18)
(0.0290846 0.0620979 -2.00087e-17)
(0.125308 0.11568 0)
(-0.0378691 -0.101952 0)
(-0.00843512 -0.00203037 0)
(0.0129182 -0.0567553 2.09924e-17)
(-0.0105776 0.0180942 0)
(-0.143369 -0.178876 0)
(0.0284431 0.0491489 0)
(0.115544 0.0399908 5.07827e-18)
(0.0906816 0.0708063 1.50127e-17)
(0.0667107 0.159868 -6.40482e-22)
(-0.015061 -0.0894545 5.08821e-18)
(-0.076998 -0.0586871 -2.05122e-17)
(-0.00504933 -0.089305 -5.22168e-18)
(0.213421 -0.1528 0)
(0.0771225 0.134343 -2.09527e-17)
(0.142421 -0.171286 -2.46671e-17)
(-0.00956602 -0.0384766 -5.18395e-18)
(0.100977 0.18315 0)
(-0.132326 -0.168561 0)
(0.125061 0.089383 6.73233e-22)
(0.0296596 -0.161734 0)
(-0.216032 -0.100489 -5.00979e-18)
(-0.0753274 -0.0193433 1.9093e-17)
(-0.00904423 -0.003177 -2.01424e-17)
(0.0919356 0.0728167 -2.00331e-17)
(0.108035 0.169129 0)
(-0.0961617 -0.120639 0)
(-0.0873132 -0.183502 -1.99237e-17)
(-0.133047 -0.126748 1.99535e-17)
(0.062098 -0.0697383 0)
(0.0868869 0.191889 0)
(0.111741 0.0718866 0)
(-0.175247 -0.155464 -2.0004e-17)
(0.00424448 -0.0785667 4.27025e-17)
(0.234867 -0.134657 4.91252e-18)
(0.0913117 0.117803 -2.5311e-17)
(0.0455036 0.0435395 -5.02522e-18)
(0.000254012 -0.0563356 -2.08104e-17)
(0.114024 0.161401 2.04109e-17)
(-0.0100962 0.00515685 -2.52421e-17)
(0.00956222 -0.0209454 0)
(0.0773887 0.0625376 0)
(0.0264419 0.0315238 0)
(0.240081 -0.0916803 4.91936e-18)
(0.0858116 -0.1608 4.98133e-18)
(0.0643239 0.0549711 0)
(-0.00755844 -0.0607089 0)
(0.234791 -0.0505449 -1.97222e-17)
(0.114767 0.153369 0)
(0.112279 0.0238883 0)
(0.0573927 -0.177049 -1.4967e-17)
(-0.0669714 -0.164654 1.99276e-17)
(0.109252 0.0659816 1.99736e-17)
(0.224405 -0.1092 -4.91771e-18)
(-0.0466454 -0.024464 5.06076e-18)
(-0.0888209 -0.1367 0)
(0.0102361 -0.209081 1.98853e-17)
(-0.167005 0.0892316 -1.26571e-17)
(0.133239 0.0214003 0)
(-0.13149 -0.148763 1.51261e-17)
(-0.176701 -0.0689124 2.02454e-17)
(0.124402 0.0445146 2.49226e-17)
(-0.00335515 -0.0396136 0)
(0.00547722 0.00193327 5.74466e-22)
(-0.0168375 -0.178557 0)
(0.0651187 0.067364 -6.55356e-18)
(0.226675 -0.0640922 1.47973e-17)
(0.241026 -0.0789779 -1.47909e-17)
(-0.0309677 -0.116579 2.03317e-17)
(-0.0917986 -0.0438075 8.60314e-18)
(0.0208912 0.0220238 0)
(0.24688 -0.0582295 0)
(-0.0625217 0.00608329 1.75888e-17)
(0.0540524 -0.0872022 0)
(0.00385735 0.0171982 2.52533e-17)
(-0.0731001 -0.119736 0)
(0.0531317 -0.133916 0)
(0.250587 -0.0793905 -2.46006e-17)
(0.100743 0.04803 1.99732e-17)
(0.0676459 0.0559599 0)
(0.103596 0.044371 -3.84826e-23)
(0.0219078 0.0164739 2.01161e-17)
(0.110918 0.0392634 -4.98983e-18)
(0.190318 -0.0287219 -1.98444e-17)
(0.0998429 0.0321183 -4.99293e-18)
(0.149035 -0.125561 4.93983e-18)
(0.115824 0.0369868 -3.99078e-17)
(0.155368 -0.0749659 2.4756e-17)
(0.120419 0.0750588 0)
(-0.006348 -0.117762 0)
(0.120893 0.0481898 0)
(-0.00855184 -0.00466521 0)
(0.222135 -0.155735 -4.91377e-18)
(0.0889073 -0.0634027 -4.98375e-18)
(0.218741 -0.171275 4.91285e-18)
(0.18578 -0.0306395 -1.98562e-17)
(0.0998558 0.0595408 -2.00065e-17)
(0.0729965 0.140673 4.02755e-17)
(0.0853376 -0.114056 -4.97331e-18)
(-0.0248523 -0.134229 0)
(0.157467 -0.0272785 5.00564e-18)
(0.233184 -0.140547 0)
(0.220881 -0.124878 -1.9725e-17)
(-0.0114353 -0.0960388 1.52275e-17)
(0.18054 -0.104819 4.94099e-18)
(0.030935 0.031816 5.02891e-18)
(0.186594 -0.0225886 1.98597e-17)
(0.222413 -0.112853 -4.92699e-18)
(0.203662 -0.0996892 -3.45835e-17)
(0.219243 -0.0696906 -1.48237e-17)
(0.164191 0.013626 1.49839e-17)
(-0.0293385 -0.0032827 -9.65859e-18)
(-0.153038 -0.102969 -2.50609e-17)
(0.0763561 0.061209 0)
(0.176144 -0.0122814 -4.95928e-18)
(0.0748119 0.0284342 5.00842e-18)
(0.215827 -0.0858823 -4.93739e-18)
(0.181662 -0.0545451 -1.48482e-17)
(0.0168257 0.0107799 -2.00181e-17)
(0.00973564 0.0122348 0)
(0.043466 0.0430449 0)
(-0.0486482 -0.216256 -4.99783e-18)
(0.184711 -0.0182613 -4.46906e-17)
(0.0616352 0.0338247 -2.00441e-17)
(0.218811 -0.0265378 4.9411e-18)
(0.166286 0.0268969 -4.96878e-18)
(0.166585 -0.032766 -1.98838e-17)
(0.233552 -0.0926707 4.92539e-18)
(-0.105791 0.0678555 -2.82536e-19)
(-0.0180875 0.00442225 0)
(0.234029 -0.0706348 1.47871e-17)
(0.166139 0.0299965 2.48404e-17)
(0.156692 -0.0172193 0)
(0.200779 -0.0910328 1.97576e-17)
(-0.0474332 -0.0179967 1.01217e-17)
(0.178708 -0.0211863 2.4842e-17)
(-0.092842 0.0724678 0)
(0.157557 -0.0233743 1.49237e-17)
(0.0510173 0.0231073 -2.0097e-17)
(0.165826 -0.0204857 -4.97897e-18)
(0.182243 -0.0341995 5.53598e-22)
(0.0449136 0.0214202 -1.50735e-17)
(0.0942471 0.0756749 1.50744e-17)
(0.157434 -0.0291892 -2.48559e-17)
(0.146745 0.052969 -4.97437e-18)
(0.209727 -0.0778438 -4.93845e-18)
(0.0241083 0.0167482 0)
(0.166551 0.0217994 1.98724e-17)
(0.180413 -0.0278535 0)
(0.201665 -0.0419388 1.48534e-17)
(-0.0904123 0.0574975 1.79643e-17)
(-0.0896485 0.0482844 0)
(0.141561 0.000729123 -1.99483e-17)
(0.163994 0.00112002 0)
(0.200741 -0.12553 3.9619e-17)
(0.183598 -0.0241823 0)
(-0.114567 0.0588553 -1.92156e-17)
(0.201186 -0.00309222 2.47694e-17)
(0.13585 -0.020467 -1.50439e-17)
(0.166503 -0.0267758 -4.12312e-22)
(0.1914 -0.043558 4.95796e-18)
(0.132014 0.00969087 -2.49065e-17)
(0.13559 -0.0151093 2.00739e-17)
(0.063058 0.0286118 2.00459e-17)
(0.0179914 -0.0134495 -1.11799e-17)
(-0.0220952 -0.00090749 1.89761e-17)
(-0.00209345 -0.00127594 1.25889e-18)
(0.0225627 -0.0285048 2.38682e-18)
(0.0179832 0.0177558 -3.10829e-22)
(-0.00726178 0.00444222 -4.08794e-17)
(-0.0157248 -0.00860217 0)
(-0.0178231 0.00157484 -1.76973e-17)
(-0.0103665 -0.00246489 -2.96193e-17)
(-0.0486595 0.0366092 -5.23426e-17)
(-0.00776605 -0.00262237 -2.01179e-17)
(-0.0206461 0.00393936 0)
(0.0304673 -0.0263883 2.93634e-17)
(0.00664144 0.00359958 2.02193e-17)
(0.00756183 -0.00490967 2.19281e-17)
(-0.0213822 -0.00172548 0)
(0.192733 -0.0606563 1.48627e-17)
(-0.0142138 -0.00432663 -3.11855e-17)
(-0.0213402 0.00918508 0)
(0.16599 -0.0383017 -4.96963e-18)
(-0.187567 0.0873393 0)
(0.134364 -0.0255195 -1.49576e-17)
(0.184093 -0.0405841 4.95843e-18)
(-0.0746628 0.0664652 0)
(-0.0896229 -0.0442105 0)
(0.18694 -0.0703408 4.95285e-18)
(0.159304 0.0182042 -1.98897e-17)
(0.0683487 0.0293419 -5.00929e-18)
(0.188217 -0.024517 1.48934e-17)
(0.130371 0.0138373 -3.49e-17)
(0.202667 -0.00297079 4.9772e-18)
(0.0938951 0.022268 -1.48665e-17)
(0.10861 0.0585733 0)
(-0.0434236 0.0421586 -1.40718e-21)
(0.193422 -0.0301911 2.48033e-17)
(0.00203117 -0.162105 -4.97107e-18)
(0.0611663 0.0244888 1.63143e-22)
(0.120115 0.0137236 -1.48617e-17)
(0.18282 -0.0991231 -5.00017e-18)
(0.106805 0.03061 3.99467e-17)
(-0.0960467 -0.0565361 1.81984e-17)
(0.143772 0.0480525 4.47831e-17)
(0.120519 0.019065 -2.48069e-17)
(0.195435 -0.0348037 -1.48706e-17)
(0.15652 -0.0347095 2.48487e-17)
(0.00500296 0.018611 -4.0328e-17)
(-0.0366912 0.0469821 2.01031e-17)
(0.24285 -0.127112 -2.45722e-17)
(0.121811 -0.0217003 2.00027e-17)
(0.123084 -0.0169924 -3.95542e-22)
(0.117243 0.0763184 0)
(-0.0246791 0.0346376 3.40377e-17)
(0.147566 0.0182704 1.49281e-17)
(0.122432 -0.0122004 2.03109e-17)
(0.0343777 0.0214748 3.96273e-17)
(0.178738 -0.0102997 1.98858e-17)
(0.172646 0.00528146 4.96866e-18)
(0.194878 -0.0119843 -1.48936e-17)
(0.179253 -0.0641276 -1.98137e-17)
(0.166907 -0.00915946 4.97619e-18)
(0.159027 -0.00638637 0)
(0.154108 -0.00147575 -4.98036e-18)
(0.214046 -0.0180827 -4.95145e-18)
(-0.0191952 0.0398213 -2.01059e-17)
(0.182295 -0.10773 3.96104e-17)
(-0.0587808 -0.0363713 -1.85292e-17)
(0.151326 0.00496797 -1.4935e-17)
(0.0895189 0.0268555 -1.9992e-17)
(0.150205 0.0120477 -1.49226e-17)
(-0.154718 0.0212857 4.96269e-18)
(0.0244316 0.0255952 1.45875e-17)
(0.0376415 0.0193359 2.01027e-17)
(-0.172104 0.0450004 9.74176e-18)
(-0.178538 0.0659936 0)
(-0.0928582 -0.0280707 -1.06357e-17)
(-0.0233 -0.00774038 -3.41657e-17)
(-0.00280822 -0.03666 4.06535e-17)
(-0.111319 -0.012588 4.62705e-18)
(0.185226 -0.0476148 -1.98237e-17)
(0.154312 -0.0397042 4.96946e-18)
(-0.101188 0.0483953 0)
(-0.132877 0.00146881 -4.10166e-17)
(-0.0786599 -0.0511492 0)
(0.150561 0.0192905 -2.48685e-17)
(-0.0276246 0.0540895 2.00936e-17)
(0.119338 -0.0262385 1.99404e-17)
(0.220557 -0.0197317 -1.97754e-17)
(0.0216459 0.0280988 2.50192e-17)
(-0.0118398 0.0455064 -2.011e-17)
(0.190517 -0.0151725 0)
(-0.0170141 0.0573117 -4.01737e-17)
(0.0486628 0.0246129 -2.41129e-17)
(0.207049 -0.0196674 2.48218e-17)
(0.114165 0.012584 1.99643e-17)
(0.177754 -0.01308 -1.49274e-17)
(0.168975 -0.0105052 0)
(0.163317 -0.00608483 4.98098e-18)
(0.170123 0.000344661 -9.9364e-18)
(0.241675 -0.0504038 -4.93132e-18)
(0.17633 0.00755519 1.48959e-17)
(0.159847 0.000111229 0)
(0.0799467 -0.00688091 2.20476e-17)
(0.131989 -0.0301102 -2.49245e-17)
(0.157882 0.0073696 4.47665e-17)
(0.0898634 -0.0154279 0)
(0.0665769 -0.0171587 9.97744e-18)
(0.163966 -0.0436667 0)
(0.200463 -0.0362204 4.95627e-18)
(0.109602 -0.0317903 -2.49312e-17)
(-0.0599879 -0.00232612 -1.72782e-17)
(0.250932 -0.0918796 1.47618e-17)
(0.0862177 -0.0193718 0)
(0.1289 -0.0334561 -2.62745e-17)
(0.0940316 0.0524788 2.00109e-17)
(0.18438 -0.0556409 -4.95407e-18)
(0.0936431 -0.00881572 -2.18799e-17)
(0.169215 0.0228942 -1.98662e-17)
(-0.187801 0.107038 -4.98957e-18)
(0.157163 0.0149043 0)
(0.17562 -0.0784161 0)
(0.208553 -0.0302324 -4.95574e-18)
(0.207755 -0.0514156 0)
(0.211442 -0.0637259 2.47078e-17)
(0.126173 -0.0499117 0)
(0.21461 -0.0383954 4.94952e-18)
(0.128709 0.0310113 0)
(0.18546 -0.0205285 1.4894e-17)
(0.0376315 0.0337092 0)
(0.193404 -0.0513984 1.98237e-17)
(0.132089 0.0216922 4.97614e-18)
(0.157141 0.013202 3.48035e-17)
(0.208563 -0.0441365 -2.47574e-17)
(0.233093 -0.0328886 0)
(0.0989988 0.0257264 0)
(0.0619134 -0.00171293 1.96344e-17)
(0.116334 -0.0296981 3.07946e-17)
(0.0716631 -0.0152036 0)
(0.151583 -0.053286 0)
(0.130851 0.0156042 3.47774e-17)
(0.171716 -0.00358203 1.98745e-17)
(0.0974799 0.00245303 -5.07882e-18)
(0.128142 0.0568581 0)
(0.126539 0.00955296 1.99402e-17)
(0.156909 -0.000991568 9.95215e-18)
(0.139533 0.0459142 -4.97649e-18)
(0.0719045 0.014626 0)
(0.0816761 0.0232916 4.98107e-18)
(0.0529802 -0.00152591 -8.99439e-18)
(0.134427 0.0382282 0)
(0.135302 0.027996 0)
(0.16459 0.00715672 -9.93834e-18)
(0.225422 -0.030377 4.94481e-18)
(0.172172 0.015036 -9.932e-18)
(0.000449616 0.051384 5.02353e-18)
(0.0826618 -0.0211893 9.95263e-18)
(-0.0596915 -0.0261764 9.37898e-18)
(0.151924 0.0266654 0)
(0.157308 0.0223969 9.94416e-18)
(0.1716 0.0202092 -5.67017e-22)
(0.141592 0.00988804 4.98112e-18)
(0.125978 0.0616501 0)
(0.167863 0.020178 4.96732e-17)
(0.15932 -0.0493889 2.48468e-17)
(0.139383 0.0348116 -4.9794e-18)
(0.0692855 0.000551365 -1.4906e-17)
(0.12362 0.0246711 0)
(0.14241 -0.048631 -2.58116e-17)
(0.120121 -0.035569 3.51582e-17)
(0.222911 -0.0402158 -4.94701e-18)
(0.149332 -0.0444364 4.96965e-18)
(0.153807 -0.0750813 2.11303e-17)
(0.166946 0.0121875 -2.98187e-17)
(0.111348 0.0584774 0)
(0.118923 0.0671439 -2.49352e-17)
(0.103216 0.00574628 0)
(0.195487 -0.0245131 -1.98432e-17)
(0.153554 0.034097 4.47459e-17)
(0.0850477 0.0371907 -9.95335e-23)
(0.01046 0.0530768 2.00983e-17)
(0.180345 -0.00330019 2.483e-17)
(-0.0667822 0.0689854 0)
(0.202329 -0.0302565 -4.95739e-18)
(0.192162 -0.0250454 1.48869e-17)
(0.0595365 0.0517203 0)
(0.07457 0.00619138 5.27436e-18)
(0.15309 0.0491977 1.98873e-17)
(0.235201 -0.0565689 -1.48138e-17)
(-0.203992 0.103177 0)
(0.168902 0.0122336 0)
(0.166456 0.0277913 0)
(0.0698925 -0.0980715 0)
(0.226382 -0.0516855 1.97532e-17)
(0.0890652 0.11138 2.52627e-17)
(0.0136721 0.0527112 -2.01721e-17)
(0.143241 0.0420524 -4.97617e-18)
(0.137458 0.0344893 -1.99185e-17)
(0.188509 -0.0368892 1.48851e-17)
(0.0910995 0.00783766 0)
(-0.148076 0.0841585 4.96508e-18)
(0.102065 0.0394228 4.49642e-17)
(0.131037 0.0530322 0)
(0.171356 0.0152098 -2.48356e-17)
(0.108973 0.0489955 -4.99193e-18)
(0.145317 0.0441866 -1.49274e-17)
(0.113785 0.0547568 0)
(0.144992 0.000585321 -4.94515e-22)
(0.164046 0.034837 -3.97461e-17)
(0.114316 0.00285114 -5.08176e-18)
(0.0593469 0.0418626 0)
(0.09765 0.052011 0)
(0.133479 -0.0558499 -1.64387e-17)
(-0.0182698 0.0487229 5.06691e-21)
(0.157766 0.0298127 -1.98857e-17)
(0.175414 0.0127414 -1.48974e-17)
(0.145845 0.0492996 -1.98971e-17)
(0.168815 -0.0716055 0)
(0.0590723 0.000517098 2.34447e-17)
(0.150512 0.00488339 1.00506e-17)
(0.142863 0.0533996 -5.50776e-22)
(0.0869258 0.00455312 -5.09267e-18)
(0.0233289 0.0275932 0)
(-0.180535 0.0830671 -3.45311e-17)
(-0.132858 0.0869159 -4.00738e-17)
(0.072068 0.0170669 0)
(0.123354 0.0349736 1.99452e-17)
(0.153969 0.0480463 1.98845e-17)
(0.236846 -0.103744 0)
(0.121098 0.0549398 -1.99409e-17)
(-0.0590968 0.0647178 -1.99769e-17)
(-0.0854152 0.071649 2.05685e-17)
(0.121211 0.0636504 1.49576e-17)
(0.0922623 0.0242166 0)
(-0.070704 -0.00904774 -1.97326e-17)
(0.153334 0.0455512 -1.9888e-17)
(0.136901 0.00554442 5.07533e-18)
(-0.0141261 0.0532463 0)
(0.134904 0.0605494 0)
(0.0890037 0.0355283 -1.50009e-17)
(-0.0793995 0.0605125 1.99732e-17)
(0.137066 0.0383753 -4.97991e-18)
(0.107829 0.0277632 0)
(-0.073035 -0.0210235 0)
(0.184814 -0.020456 -3.47716e-17)
(0.174801 -0.000860321 -4.96812e-18)
(0.157776 -0.0812493 5.32086e-18)
(0.154565 0.041357 2.48574e-17)
(0.178201 0.00480069 1.48967e-17)
(0.179407 -0.000326598 -3.47604e-17)
(0.150808 0.0534341 -2.48612e-17)
(0.143298 0.0597707 -1.99003e-17)
(0.132273 0.0643754 2.49006e-17)
(0.145972 0.0557281 4.47715e-17)
(0.170052 0.00419464 1.49046e-17)
(0.173087 0.00718825 -1.4902e-17)
(0.0899271 0.0319901 -5.09166e-18)
(0.21576 -0.0552596 0)
(0.156551 0.0436208 -3.97666e-17)
(0.176914 -0.00847307 -1.9878e-17)
(0.0882753 0.0183022 -2.00098e-17)
(-0.11975 0.0735803 1.98853e-17)
(0.157804 0.036994 -1.98826e-17)
(0.0804469 0.0465131 0)
(0.124862 0.0745307 0)
(0.00235445 -0.0538637 0)
(0.178654 -0.0162156 1.98706e-17)
(0.0204351 0.0314568 0)
(0.0990167 0.0406954 -1.4987e-17)
(0.123326 0.0281914 0)
(0.0864801 0.0361013 0)
(0.11316 0.065479 0)
(0.124365 0.069116 -4.98438e-18)
(0.107579 0.024913 0)
(0.248413 -0.111999 1.96512e-17)
(0.174349 -0.0105567 -4.96888e-18)
(0.124986 0.0705292 0)
(0.0846886 0.0483233 -2.53108e-17)
(-0.0825611 0.0475704 -2.00746e-17)
(0.105479 0.0501391 0)
(0.180005 -0.0150822 4.96887e-18)
(0.125494 -0.192584 0)
(-0.126633 -0.0117277 1.51229e-17)
(0.112521 0.0577251 0)
(0.000596374 0.0197903 0)
(-0.0620292 0.0397297 -2.01346e-17)
(0.128872 0.0719182 0)
(0.135294 0.0663469 -1.99165e-17)
(0.122513 0.0634412 4.98419e-18)
(-0.136482 0.064247 0)
(0.176784 -0.00213287 1.49059e-17)
(0.133317 0.0653662 4.97923e-18)
(-0.0403737 -0.00914662 0)
(0.0774482 0.0426295 -1.36085e-17)
(0.181737 -0.0171639 -2.4848e-17)
(-0.0569312 0.0553687 -3.5947e-21)
(0.0902945 0.0666295 -2.0015e-17)
(-0.00353682 0.0207274 2.01703e-17)
(0.132603 0.0696692 -1.99191e-17)
(0.117113 0.0165844 0)
(0.0192475 0.0334409 -1.50976e-17)
(0.122231 0.0767619 0)
(0.164353 -0.0138561 -1.99262e-17)
(0.140256 0.0640075 0)
(0.149343 0.0364151 4.9756e-18)
(0.100954 0.0751399 4.99948e-18)
(0.144412 0.0567287 0)
(0.106159 0.0649687 4.99406e-18)
(0.0768245 0.0271625 1.75004e-17)
(0.13186 0.0693826 1.49411e-17)
(0.00889332 -0.0505935 0)
(0.149496 0.0230973 -1.49307e-17)
(-0.11646 0.053241 0)
(0.0844084 0.0371982 0)
(0.0742059 0.0288537 -1.80292e-17)
(0.122677 0.0735171 0)
(-0.135849 0.0408437 0)
(0.0773535 0.00915597 -5.22585e-18)
(0.134368 -0.147553 2.49545e-17)
(0.111703 0.0753723 -1.99713e-17)
(0.159911 0.0409428 -1.98783e-17)
(-0.0834578 -0.0542262 2.0889e-17)
(-0.0306634 0.0154476 2.04111e-17)
(0.0908434 0.0643231 0)
(0.13632 0.062569 -4.97955e-18)
(0.0901444 0.0445784 0)
(0.103269 -0.104146 -1.03275e-17)
(0.113273 0.0728286 6.96008e-22)
(0.0957212 0.0548536 0)
(0.133581 -0.00982509 -2.5367e-17)
(0.0934365 0.04396 0)
(0.0407679 0.039509 -5.02671e-18)
(-0.0316998 0.00337326 1.59808e-17)
(-0.0906681 0.0251098 2.01166e-17)
(0.101373 0.0730145 1.99887e-17)
(0.149422 0.0319022 1.49266e-17)
(0.0793489 0.0407021 -8.37902e-18)
(0.161521 0.0362223 3.97551e-17)
(0.104536 0.067996 1.99825e-17)
(0.040111 0.0398182 -5.02698e-18)
(0.0593568 0.0504634 0)
(0.109843 0.082067 0)
(0.0831836 0.110801 2.01917e-17)
(0.154751 0.0411303 1.49153e-17)
(0.154699 -0.0110254 2.53359e-17)
(0.126398 -0.125687 -4.94899e-18)
(0.14296 0.0604412 0)
(0.102396 -0.128414 0)
(0.182316 -0.0111238 0)
(-0.230568 0.0387178 -1.98403e-17)
(0.0355591 0.0315399 0)
(0.0801417 0.117106 -2.05196e-17)
(-0.193589 0.0715993 3.49581e-17)
(0.0430173 0.0192434 4.01476e-17)
(0.115758 0.0454811 -1.99581e-17)
(0.176798 -0.0140956 0)
(0.11832 0.0432752 -1.9959e-17)
(0.159005 0.0324465 0)
(0.0764695 0.0563261 0)
(0.112583 0.0804542 0)
(0.0890921 0.0660029 1.51373e-17)
(0.126751 0.0900628 0)
(0.0283274 -0.0433764 0)
(0.135877 0.0221097 0)
(0.0814566 0.0603751 0)
(-0.0774772 -0.214735 -5.00329e-18)
(0.114719 0.0722392 0)
(0.183982 -0.0157567 2.48325e-17)
(0.10812 0.0791705 -4.99681e-18)
(0.128068 0.111798 0)
(0.122367 0.0380857 -1.99491e-17)
(0.159075 0.0275439 -4.97144e-18)
(0.0849319 -0.125266 5.1595e-18)
(0.120902 0.0706387 0)
(0.0785238 0.0570304 -1.94858e-17)
(0.100949 0.0787027 -2.00476e-17)
(0.100555 0.0149556 5.09425e-18)
(0.0860788 0.0615628 -1.50925e-17)
(0.0923345 0.0260682 2.54894e-17)
(0.116496 -0.149527 -1.98949e-17)
(0.107268 0.0810502 0)
(-0.120413 0.0249398 0)
(-0.190433 0.0346088 0)
(0.0811814 0.122071 0)
(0.0885389 0.0713236 -1.51078e-17)
(0.0851225 0.0641893 -5.03842e-18)
(0.101477 0.0809029 2.00628e-17)
(-0.223095 0.110144 1.17761e-17)
(0.107719 0.0332133 -5.03892e-18)
(0.0915452 -0.105807 2.08119e-17)
(0.0620799 0.0403283 0)
(0.0826661 0.0735815 -1.59989e-17)
(0.137088 0.0543152 4.98042e-18)
(0.181791 -0.00823691 0)
(0.116524 0.0778187 -1.99708e-17)
(0.134427 0.0572901 4.97989e-18)
(0.117562 0.100865 -2.52603e-17)
(0.113906 -0.167947 0)
(0.0963447 0.0768451 -4.02028e-17)
(0.082073 0.106153 0)