/*--------------------------------*- C++ -*----------------------------------*\
  =========                 |
  \\      /  F ield         | OpenFOAM: The Open Source CFD Toolbox
   \\    /   O peration     | Website:  https://openfoam.org
    \\  /    A nd           | Version:  9
     \\/     M anipulation  |
\*---------------------------------------------------------------------------*/
FoamFile
{
    format      ascii;
    class       volScalarField;
    location    "0.68";
    object      p;
}
// * * * * * * * * * * * * * * * * * * * * * * * * * * * * * * * * * * * * * //

dimensions      [0 2 -2 0 0 0 0];

internalField   nonuniform List<scalar> 
90
(
-1.80969e-19
-4.23032e-20
-4.58023e-20
-2.85372e-20
-2.42463e-21
-4.40632e-20
-1.58095e-19
-2.00855e-20
-4.21693e-20
2.01384e-20
-1.45681e-19
-2.10138e-20
-1.37815e-19
-3.10604e-20
-1.67873e-20
-1.04865e-20
8.60415e-21
-3.06339e-20
-5.22789e-20
-7.96047e-20
1.33531e-19
-6.89539e-20
-5.70759e-20
-6.25911e-20
3.65948e-20
-9.87625e-20
1.06943e-19
-3.21342e-20
-2.81244e-20
-7.61381e-20
-3.8033e-20
-1.33405e-19
6.20659e-20
-1.333e-20
1.77979e-20
-1.11314e-20
-8.70293e-20
-1.1887e-21
1.11475e-20
-1.1721e-19
-1.0112e-19
-7.27477e-20
-2.9386e-20
-1.15245e-19
8.71611e-21
-5.00103e-20
-6.12909e-20
-3.45317e-20
-4.35998e-20
-3.56174e-20
-1.05544e-19
-9.4235e-20
-4.64467e-20
-4.56876e-20
-8.72391e-20
-6.61391e-20
-3.64725e-20
-5.51229e-20
8.61034e-20
-1.3396e-19
-4.69039e-20
-1.12982e-19
-1.37295e-19
-3.43497e-20
-4.73508e-20
-6.07416e-20
-6.44307e-20
-5.39705e-20
-1.44844e-20
-2.66602e-20
-4.608e-20
6.73514e-20
-3.42064e-20
-7.16597e-20
-3.65906e-20
-6.84718e-20
1.9459e-19
-2.32583e-20
-2.94682e-20
5.09098e-20
-4.03926e-21
-4.17326e-20
-6.32175e-20
-5.02321e-20
-7.81884e-20
-4.70866e-20
-2.17048e-20
-5.19729e-20
-5.48335e-20
1.44556e-19
)
;

boundaryField
{
    back
    {
        type            empty;
    }
    front
    {
        type            empty;
    }
    bottom
    {
        type            zeroGradient;
    }
    outer_arc
    {
        type            zeroGradient;
    }
    right
    {
        type            uniformFixedValue;
        uniformValue    
        {
            type            scale;
            scale           
            {
                type            squarePulse;
                start           0.3;
                duration        0.3;
            }
            xScale          
            {
                type            constant;
                value           1;
            }
            value           
            {
                type            constant;
                value           15.1;
            }
        }
        value           uniform 0;
    }
    inner_arc
    {
        type            zeroGradient;
    }
}


// ************************************************************************* //
