/*--------------------------------*- C++ -*----------------------------------*\
  =========                 |
  \\      /  F ield         | OpenFOAM: The Open Source CFD Toolbox
   \\    /   O peration     | Website:  https://openfoam.org
    \\  /    A nd           | Version:  9
     \\/     M anipulation  |
\*---------------------------------------------------------------------------*/
FoamFile
{
    format      ascii;
    class       surfaceScalarField;
    location    "0.68";
    object      phi;
}
// * * * * * * * * * * * * * * * * * * * * * * * * * * * * * * * * * * * * * //

dimensions      [0 3 -1 0 0 0 0];

internalField   nonuniform List<scalar> 
122
(
-6.45206e-26
2.43527e-26
4.01054e-26
9.5089e-29
3.40779e-28
-4.41835e-28
-1.3831e-26
4.54561e-26
-3.16348e-26
1.39489e-26
-2.77563e-26
-1.87359e-26
1.87334e-26
1.65046e-26
4.23567e-26
-5.89361e-26
1.12696e-26
-1.15713e-27
-1.00943e-26
6.0913e-26
-4.44465e-26
-2.43961e-26
3.10446e-26
-6.7053e-27
-2.46917e-28
4.83775e-27
-4.595e-27
1.40743e-26
-2.72127e-27
-4.77875e-27
3.28547e-26
3.05119e-26
1.49303e-26
-2.8988e-26
1.61587e-26
-1.14712e-26
-4.6932e-27
-2.81259e-26
2.80956e-26
-3.51428e-26
3.51854e-26
-4.37639e-26
2.29606e-26
2.08264e-26
1.43716e-26
1.83426e-27
4.0134e-26
2.24432e-27
-8.68687e-27
-3.52716e-26
1.20979e-26
-6.03808e-26
2.53031e-26
-1.60897e-26
4.6602e-26
3.61025e-26
-5.13484e-27
-6.74717e-27
-1.9722e-26
4.78942e-26
4.65771e-26
-4.43087e-26
2.67507e-26
2.85708e-26
-2.85689e-26
3.28329e-26
4.78829e-26
-1.30702e-26
1.30856e-26
2.19741e-26
-1.15927e-26
3.3585e-26
-1.60354e-26
4.27734e-26
-1.22587e-26
5.24872e-26
1.07676e-26
-5.69794e-26
-8.6274e-28
3.1938e-28
-3.55183e-27
3.55792e-27
-1.22278e-26
2.71863e-26
-4.3238e-26
-7.33745e-27
1.67107e-27
1.67376e-27
-2.24373e-26
-1.09741e-27
2.35609e-26
-1.2534e-26
1.6797e-27
2.22061e-26
-4.47459e-26
5.41219e-26
-8.87255e-28
-4.85409e-26
5.93894e-26
-1.5462e-26
1.54932e-26
1.31113e-26
1.8008e-26
-3.02204e-26
-2.61137e-26
2.612e-26
4.28486e-27
-2.72353e-27
7.00563e-27
1.67946e-26
-9.24289e-27
-1.68284e-26
1.73279e-26
9.82633e-27
1.2329e-26
-2.43972e-27
3.73854e-26
2.44208e-26
-2.43923e-26
-2.93085e-27
4.72276e-26
-4.73122e-26
)
;

boundaryField
{
    back
    {
        type            empty;
        value           nonuniform List<scalar> 0();
    }
    front
    {
        type            empty;
        value           nonuniform List<scalar> 0();
    }
    bottom
    {
        type            calculated;
        value           uniform 0;
    }
    outer_arc
    {
        type            calculated;
        value           uniform 0;
    }
    right
    {
        type            calculated;
        value           nonuniform List<scalar> 4(-6.45762e-26 4.62359e-26 -6.63587e-26 8.39487e-26);
    }
    inner_arc
    {
        type            calculated;
        value           uniform 0;
    }
}


// ************************************************************************* //
