/*--------------------------------*- C++ -*----------------------------------*\
  =========                 |
  \\      /  F ield         | OpenFOAM: The Open Source CFD Toolbox
   \\    /   O peration     | Website:  https://openfoam.org
    \\  /    A nd           | Version:  9
     \\/     M anipulation  |
\*---------------------------------------------------------------------------*/
FoamFile
{
    format      ascii;
    class       volVectorField;
    location    "0.68";
    object      U;
}
// * * * * * * * * * * * * * * * * * * * * * * * * * * * * * * * * * * * * * //

dimensions      [0 1 -1 0 0 0 0];

internalField   nonuniform List<vector> 
90
(
(-1.43391e-18 -6.70193e-19 1.63723e-35)
(3.24389e-21 -3.83399e-21 -4.3049e-36)
(-2.51184e-19 8.87513e-19 -1.99523e-36)
(-1.17445e-19 9.30308e-19 1.976e-36)
(2.69041e-20 4.18492e-19 -3.47675e-37)
(3.24704e-22 -1.93405e-21 3.42013e-36)
(-1.54803e-18 -4.32224e-19 -1.96709e-35)
(5.79016e-19 -1.7106e-18 -2.21688e-37)
(-3.81887e-19 4.23187e-19 0)
(7.9185e-19 -1.82924e-18 0)
(-1.60464e-19 -5.75619e-19 -3.78375e-36)
(-7.05795e-20 1.31241e-19 1.30533e-36)
(-3.59234e-19 -3.46439e-19 -1.72155e-36)
(-3.2993e-20 1.783e-20 -8.50651e-37)
(-2.28228e-19 4.33383e-19 0)
(-6.71523e-20 4.52301e-19 0)
(1.84667e-19 8.67521e-19 2.61978e-37)
(3.40676e-19 1.19193e-18 9.11609e-37)
(-5.56243e-19 5.03529e-19 0)
(-4.81887e-19 -1.99109e-19 -4.50208e-36)
(-2.05299e-19 -5.85034e-19 6.53408e-36)
(-6.4715e-19 -5.91646e-19 -3.95117e-36)
(7.80516e-19 -9.20807e-19 -3.80496e-36)
(-3.72973e-19 -5.57924e-20 4.34084e-36)
(2.46306e-19 -1.42889e-18 -8.12089e-37)
(9.77587e-19 -3.16521e-19 3.58464e-36)
(2.67053e-19 -9.14731e-19 -6.49844e-36)
(-1.20117e-18 -9.65383e-19 -1.14244e-36)
(7.53699e-19 1.27568e-18 0)
(-1.04812e-19 -1.13938e-18 3.3741e-36)
(5.34984e-19 -1.42458e-18 -3.22028e-36)
(1.47771e-19 -2.32736e-19 -6.06566e-36)
(-9.0927e-19 -1.14767e-18 -3.1741e-37)
(3.69483e-20 -1.33846e-18 1.37546e-36)
(-6.40505e-19 -1.24636e-18 1.02485e-37)
(-2.7824e-20 1.41871e-19 2.64008e-37)
(5.96899e-19 3.27266e-19 0)
(2.6878e-19 5.7473e-19 0)
(-7.58629e-19 -7.33341e-19 -8.79402e-37)
(-3.00098e-19 -2.54562e-19 -1.279e-36)
(-8.26962e-19 -6.34474e-19 4.55094e-36)
(-9.78656e-19 -4.05794e-19 6.04741e-36)
(-5.72923e-19 -9.02492e-19 -3.61572e-38)
(-1.63021e-18 -1.10418e-18 2.26484e-36)
(1.22129e-18 -1.70302e-18 8.25478e-37)
(-2.01257e-20 2.7563e-20 1.39588e-36)
(-5.29047e-20 5.05529e-21 -2.87985e-36)
(1.10061e-19 6.53706e-19 -1.07034e-36)
(-1.03153e-18 -1.15599e-19 2.68198e-36)
(-1.67866e-19 2.08514e-19 2.48532e-37)
(-2.54925e-19 -1.64383e-19 0)
(-4.85661e-20 -2.41378e-20 3.12637e-36)
(8.5767e-19 -2.60562e-19 3.57744e-38)
(-1.25597e-18 -1.10701e-18 0)
(-3.62859e-21 -2.2326e-20 -6.08683e-36)
(1.36865e-18 3.58772e-19 1.42939e-38)
(-1.80377e-18 -1.56305e-18 -1.83451e-36)
(-4.50642e-22 1.04537e-20 0)
(2.01162e-18 -1.31236e-18 0)
(5.74425e-19 -1.2359e-19 8.18935e-36)
(-8.15288e-19 -1.01585e-19 -3.24199e-36)
(8.76406e-19 3.35176e-19 0)
(3.50668e-19 6.61272e-20 6.41616e-36)
(-7.49981e-19 -2.46803e-19 6.86833e-37)
(-1.20547e-18 -5.20609e-19 -2.34899e-36)
(5.04769e-19 4.67538e-19 -2.623e-36)
(-3.964e-19 1.64546e-19 0)
(-2.25462e-19 1.20915e-19 0)
(5.64218e-19 8.82056e-19 3.41742e-38)
(7.29783e-19 7.65968e-19 -1.06354e-36)
(6.73349e-19 7.02673e-19 0)
(1.38101e-18 -1.27157e-18 3.46268e-36)
(4.25567e-19 -1.04517e-19 0)
(9.54736e-19 7.07515e-19 -4.07843e-36)
(1.08951e-18 1.22115e-18 1.0738e-36)
(-1.25818e-19 -5.42216e-20 2.57727e-36)
(6.93311e-19 -1.06074e-19 -2.63997e-36)
(-9.70997e-19 -9.25716e-19 0)
(6.50234e-19 -9.61353e-19 -1.49065e-36)
(2.32986e-18 -5.55098e-19 6.18526e-36)
(3.07703e-19 3.59972e-19 1.54727e-37)
(-5.11923e-20 -1.93479e-18 7.2019e-37)
(-9.2038e-20 4.4782e-20 4.43842e-36)
(1.23965e-18 1.12372e-18 -1.64648e-36)
(1.27512e-18 2.28784e-19 1.48243e-36)
(-1.5265e-19 1.28329e-19 -1.63515e-36)
(2.02012e-19 -1.86002e-18 -1.18945e-36)
(-5.39447e-19 -1.4526e-18 -1.48024e-36)
(1.3789e-18 8.84524e-19 5.66932e-36)
(7.85456e-19 -6.41757e-19 -3.35336e-36)
)
;

boundaryField
{
    back
    {
        type            empty;
    }
    front
    {
        type            empty;
    }
    bottom
    {
        type            uniformFixedValue;
        uniformValue    
        {
            type            scale;
            scale           
            {
                type            squarePulse;
                start           0.3;
                duration        0.3;
            }
            xScale          
            {
                type            constant;
                value           1;
            }
            value           
            {
                type            constant;
                value           (0 0.7 0);
            }
        }
        value           uniform (0 0 0);
    }
    outer_arc
    {
        type            noSlip;
    }
    right
    {
        type            zeroGradient;
    }
    inner_arc
    {
        type            noSlip;
    }
}


// ************************************************************************* //
