/*--------------------------------*- C++ -*----------------------------------*\
  =========                 |
  \\      /  F ield         | OpenFOAM: The Open Source CFD Toolbox
   \\    /   O peration     | Website:  https://openfoam.org
    \\  /    A nd           | Version:  9
     \\/     M anipulation  |
\*---------------------------------------------------------------------------*/
FoamFile
{
    format      ascii;
    class       volScalarField;
    location    "0.89";
    object      p;
}
// * * * * * * * * * * * * * * * * * * * * * * * * * * * * * * * * * * * * * //

dimensions      [0 2 -2 0 0 0 0];

internalField   nonuniform List<scalar> 
578
(
-2.03822e-19
-5.78594e-19
-1.41034e-19
6.49238e-20
-5.63949e-19
4.21228e-19
5.81209e-19
-4.79943e-19
-3.88356e-19
-8.95709e-19
2.4081e-19
-4.73156e-19
4.31647e-20
-5.2888e-19
5.45737e-19
1.49517e-20
-2.49975e-19
-2.22643e-19
-3.67924e-19
-2.51169e-19
6.78229e-20
4.87812e-20
1.58347e-19
1.90302e-19
1.845e-19
-3.53226e-19
5.57516e-21
-3.97688e-20
-4.04004e-19
3.44751e-20
-9.55099e-21
4.70389e-19
-1.52241e-19
7.7424e-20
4.94165e-19
-1.75366e-19
-4.73628e-19
-4.5938e-19
2.36417e-20
-6.62765e-19
-5.09898e-19
-4.17901e-19
-5.33273e-19
5.7054e-19
-1.10615e-19
7.02826e-19
5.42421e-19
-4.18787e-19
2.0172e-20
-3.90077e-21
6.29254e-19
4.15196e-20
6.02022e-19
7.21622e-20
3.43005e-20
-2.09539e-19
1.50555e-19
1.16875e-19
-1.01011e-19
-2.84208e-19
-2.39445e-19
-3.58752e-19
-3.49535e-19
-5.85396e-19
3.18293e-20
5.28856e-19
-7.59008e-20
3.12022e-19
2.16491e-19
-3.41406e-19
9.582e-20
4.52699e-19
3.35143e-20
-3.96432e-19
2.32931e-19
-6.22999e-19
-5.02011e-19
-4.0794e-19
3.44155e-20
4.12939e-19
5.08077e-19
-4.30152e-19
7.421e-19
6.93218e-19
1.46329e-19
3.61563e-19
7.23706e-19
-1.28171e-19
-3.76697e-19
3.48458e-19
5.47841e-21
2.80838e-19
4.57084e-19
5.12765e-20
2.65487e-19
4.45899e-19
3.3102e-20
3.3282e-20
-8.41971e-19
5.45539e-19
5.11487e-19
-3.91318e-19
1.5637e-20
3.43265e-19
2.72603e-20
-5.41297e-19
2.56538e-19
-6.33052e-19
4.32985e-19
-5.50893e-19
-1.58663e-19
-3.70574e-19
-2.84149e-19
3.56805e-19
3.92661e-19
2.38569e-20
5.87787e-20
-2.58753e-19
3.42897e-19
3.1199e-20
-3.11639e-19
9.45873e-19
-4.32726e-19
5.86636e-20
5.74188e-19
2.28727e-19
4.28516e-19
2.46147e-20
4.34676e-19
5.89914e-20
4.35105e-19
2.01102e-19
5.21086e-20
-3.44148e-19
3.87156e-19
4.35078e-19
-5.60162e-19
2.4663e-20
2.4741e-19
4.39563e-19
4.7169e-19
1.25413e-19
4.20842e-19
-1.06838e-19
-3.94748e-19
1.88764e-19
1.56759e-19
-1.10319e-20
-4.33196e-19
-2.23374e-21
-4.52965e-19
2.34934e-19
-5.54254e-19
-3.18643e-19
5.29899e-19
-1.61524e-21
-2.99929e-19
5.7698e-20
5.79718e-19
-4.57411e-19
-4.79903e-19
-4.6536e-19
5.0249e-19
-4.41335e-19
-2.02769e-19
1.35229e-19
-1.23299e-19
5.32789e-19
7.24335e-20
2.57288e-20
-3.99662e-19
-5.75903e-19
4.46958e-19
3.10191e-19
5.14485e-19
2.63243e-20
3.4675e-20
-2.39241e-19
-4.42037e-19
-3.47682e-19
5.62097e-19
-4.44399e-19
2.89229e-19
3.46059e-20
4.52925e-19
7.31064e-22
3.94096e-21
5.77384e-19
5.27687e-19
-5.14756e-19
-4.98684e-19
-4.81053e-19
2.19944e-19
5.26023e-19
-6.90283e-19
3.22876e-20
9.45831e-20
-2.77605e-20
5.10289e-19
-5.01807e-19
6.3507e-20
4.04898e-20
1.00201e-18
1.7647e-20
2.84154e-20
-5.1555e-19
4.95337e-19
1.51779e-20
-4.7714e-19
1.13105e-19
8.50131e-20
4.95089e-19
3.66155e-19
3.79815e-20
3.78239e-19
5.08982e-20
5.24642e-19
-4.94629e-19
5.26748e-19
1.91412e-19
-4.93195e-19
5.05201e-19
-2.264e-19
-5.00048e-19
5.71549e-19
2.26264e-19
3.51225e-20
8.07658e-20
-1.53298e-20
-3.94117e-19
-7.92912e-19
9.56149e-19
3.51289e-19
-2.15031e-19
2.13039e-19
-3.60029e-19
-5.15104e-19
5.51591e-19
4.6874e-20
-8.15951e-20
5.40464e-19
-5.81985e-19
2.45713e-20
5.38834e-19
-2.70282e-20
-3.94966e-19
4.35809e-19
-7.85938e-19
3.8785e-19
4.01072e-20
3.37484e-20
3.08048e-19
5.33314e-19
6.53587e-20
4.83535e-19
-1.26863e-19
-2.98451e-19
5.00563e-19
-4.14226e-19
8.57509e-19
-1.93057e-19
5.6628e-19
9.50667e-20
1.03675e-19
-4.44713e-19
-2.73175e-19
1.48902e-19
-9.57726e-20
-6.37344e-19
1.77911e-19
-1.78926e-19
1.78311e-19
8.27209e-20
3.07399e-20
4.35269e-20
4.10601e-20
1.36516e-20
9.62859e-20
5.38376e-19
5.91362e-20
-5.33934e-19
2.81446e-20
3.15643e-20
3.84997e-20
4.1408e-20
4.09517e-19
-2.37105e-19
2.36971e-19
1.10833e-19
8.56495e-20
7.34535e-20
2.93089e-19
1.15171e-20
4.90921e-19
8.60178e-20
9.80303e-20
-5.3282e-19
-5.92131e-20
-5.11479e-22
8.18277e-20
4.56626e-20
-7.52437e-20
3.24817e-20
-5.71162e-20
9.78755e-20
4.23828e-20
3.89399e-21
-2.72159e-19
5.11301e-20
4.36118e-20
-1.48482e-19
-1.0273e-21
3.93341e-20
-8.42468e-20
7.38245e-20
3.44366e-20
2.66178e-19
-6.75929e-20
-1.50335e-19
7.32191e-20
2.80086e-19
2.95847e-20
3.27337e-20
1.36712e-19
2.83285e-20
1.07405e-20
4.92022e-19
4.9606e-19
-5.01568e-19
3.55659e-21
2.56851e-20
4.31237e-19
2.49926e-20
1.58318e-20
3.42176e-19
1.0125e-19
4.71158e-20
2.22963e-20
-1.44211e-19
1.07768e-20
3.59826e-20
3.66436e-20
-3.717e-21
-2.12974e-19
6.69649e-20
4.87986e-19
2.88744e-19
4.01482e-19
-3.97717e-19
4.72745e-19
-4.37196e-19
-4.83293e-19
5.13824e-19
-1.29423e-19
-6.0964e-19
6.60431e-19
1.06222e-19
6.29656e-19
-6.3307e-19
6.67034e-19
2.72046e-20
-1.73006e-19
8.32236e-20
-3.19342e-19
3.79573e-20
6.14624e-20
-6.75499e-21
4.33024e-19
4.49546e-20
-1.70586e-22
-4.64719e-19
-3.89963e-19
2.21876e-19
3.02898e-19
2.21644e-19
7.08243e-19
1.40282e-20
4.58829e-19
-4.65414e-19
-7.03183e-20
3.05678e-20
-4.68844e-19
5.10863e-19
1.36037e-19
9.32876e-20
2.76744e-20
4.41971e-20
6.30556e-19
5.92011e-19
-3.67637e-19
3.82156e-20
1.39707e-19
1.57061e-19
-1.29394e-19
-1.13015e-20
8.84619e-20
4.68306e-19
-5.07653e-20
1.17422e-19
1.92784e-19
3.52575e-20
3.85964e-19
4.16224e-20
-2.76976e-19
2.58733e-20
-2.68325e-20
3.27379e-19
-9.08404e-20
1.98923e-19
3.40978e-19
-2.28268e-21
-3.68753e-19
-1.85284e-19
2.54268e-19
-1.08676e-19
2.29737e-19
-4.02182e-19
4.21675e-19
-5.40262e-19
1.00687e-21
4.52998e-19
2.89411e-19
-4.35832e-19
5.54375e-19
3.44254e-19
-2.12312e-19
-3.49051e-19
-2.92945e-19
-4.31251e-19
-2.00668e-19
3.46576e-19
1.32028e-19
1.46856e-19
3.84734e-20
3.04644e-19
-2.73883e-19
-4.70835e-19
-2.3606e-19
-2.89213e-19
-8.85757e-20
-1.89596e-19
5.3425e-20
6.18988e-20
-3.27797e-21
4.24392e-19
-6.64087e-20
-1.70187e-20
3.74113e-19
3.68522e-19
3.92896e-21
4.64499e-19
1.98373e-20
3.8428e-19
4.56955e-20
4.74889e-19
2.99954e-20
-5.55541e-19
1.76228e-19
1.45175e-19
-2.87415e-19
7.60792e-19
4.36362e-19
-2.38765e-19
-2.87558e-19
-6.31793e-20
-3.3679e-19
3.05857e-19
-5.34884e-19
-1.38001e-19
-2.65697e-19
-4.31282e-20
-4.67669e-20
3.33928e-19
2.95426e-21
-7.47647e-20
-4.11222e-19
-3.09915e-19
-3.22497e-19
-1.48158e-19
-2.77755e-19
1.40966e-19
2.03349e-19
-1.02628e-19
-3.35019e-20
3.59465e-21
-2.54817e-19
-1.22241e-19
1.06654e-20
1.78251e-20
4.63995e-19
5.50967e-20
3.49476e-19
-1.64886e-19
5.49167e-20
1.74179e-20
3.59356e-19
2.17727e-20
4.11882e-19
1.33644e-20
5.26505e-20
-5.22629e-19
-4.3045e-20
-2.77294e-19
4.95921e-20
-2.34826e-19
1.03463e-20
4.12637e-19
6.88495e-20
2.75816e-19
1.7173e-20
-3.13867e-21
5.40986e-19
5.3827e-20
6.85366e-19
4.64245e-19
1.62335e-21
-4.63283e-19
-6.36561e-19
3.53824e-19
4.99514e-20
1.94741e-19
2.54147e-19
-9.20782e-20
-3.7244e-19
-4.03232e-19
4.24037e-20
-5.71655e-20
7.22644e-20
-4.15951e-19
-3.8935e-19
-4.3687e-19
-4.54467e-19
-3.4339e-20
-9.04191e-21
4.61021e-19
3.6164e-19
3.20565e-19
3.86532e-19
3.60615e-19
4.65024e-21
5.97604e-20
4.40248e-19
-2.24386e-19
-3.49426e-19
5.37852e-19
9.26095e-20
2.27798e-19
-2.42544e-19
-1.95954e-19
-3.30537e-19
3.00846e-19
5.05159e-19
-3.19525e-19
4.84202e-19
3.26311e-19
-1.41046e-19
-4.62561e-19
-2.80779e-20
3.77982e-20
6.42906e-21
1.49045e-20
5.2112e-19
-4.20651e-19
1.04705e-20
5.52404e-20
3.15786e-19
4.49253e-20
-2.32939e-19
1.70186e-20
4.93038e-20
4.27425e-19
-2.57754e-19
3.33627e-19
-3.77032e-19
-1.26265e-19
2.20494e-19
2.64854e-19
1.96267e-19
)
;

boundaryField
{
    front
    {
        type            empty;
    }
    back
    {
        type            empty;
    }
    bottom
    {
        type            uniformFixedValue;
        uniformValue    
        {
            type            scale;
            scale           
            {
                type            squarePulse;
                start           0.3;
                duration        0.3;
            }
            xScale          
            {
                type            constant;
                value           1;
            }
            value           
            {
                type            constant;
                value           15.1;
            }
        }
        value           uniform 0;
    }
    left
    {
        type            zeroGradient;
    }
    top
    {
        type            zeroGradient;
    }
    right
    {
        type            zeroGradient;
    }
    inner_arc
    {
        type            zeroGradient;
    }
}


// ************************************************************************* //
