/*--------------------------------*- C++ -*----------------------------------*\
  =========                 |
  \\      /  F ield         | OpenFOAM: The Open Source CFD Toolbox
   \\    /   O peration     | Website:  https://openfoam.org
    \\  /    A nd           | Version:  9
     \\/     M anipulation  |
\*---------------------------------------------------------------------------*/
FoamFile
{
    format      ascii;
    class       surfaceScalarField;
    location    "0.89";
    object      phi;
}
// * * * * * * * * * * * * * * * * * * * * * * * * * * * * * * * * * * * * * //

dimensions      [0 3 -1 0 0 0 0];

internalField   nonuniform List<scalar> 
816
(
1.32352e-26
4.30328e-25
-4.4357e-25
-1.50202e-25
6.0186e-25
-4.51685e-25
-7.4975e-25
7.63018e-25
3.84575e-26
-5.22715e-26
1.38159e-26
4.22921e-25
-4.22921e-25
-2.35185e-25
2.91654e-25
-5.64687e-26
-4.41739e-25
4.41737e-25
-3.95294e-25
3.95284e-25
-8.97313e-25
2.2943e-27
8.95035e-25
1.08946e-25
-2.59132e-25
2.2188e-25
-4.57045e-25
1.04871e-24
-7.59265e-25
-2.89454e-25
1.56383e-26
-1.24636e-26
-3.17557e-27
1.01604e-24
-9.19934e-25
-9.61182e-26
-1.00355e-24
8.84795e-25
1.18755e-25
-7.7003e-25
1.26852e-24
-4.98508e-25
-4.83019e-25
-1.36231e-25
6.19247e-25
9.17405e-25
-7.38326e-26
-8.43582e-25
1.23121e-25
9.25633e-25
4.21581e-25
-1.31889e-24
7.35737e-26
-3.51148e-26
9.57474e-26
-8.65754e-25
5.04653e-25
-2.1251e-25
-2.92119e-25
1.28952e-25
6.0143e-26
-1.89089e-25
1.49596e-25
-2.07019e-26
-8.61821e-25
2.10382e-25
6.51428e-25
5.88194e-26
-5.29216e-26
-5.90007e-27
1.81612e-26
-3.71326e-26
1.89708e-26
2.88909e-25
3.12923e-25
4.41973e-25
8.26598e-25
6.52103e-26
-4.70408e-26
8.86089e-26
2.03034e-25
1.34112e-24
-8.99214e-25
1.78964e-25
-1.2499e-25
-5.39726e-26
-9.93606e-26
-9.04143e-25
-2.17453e-25
1.04404e-24
9.3472e-26
9.22574e-25
-1.25691e-25
-7.36129e-25
1.30659e-24
-4.75936e-25
-8.30664e-25
2.62875e-25
1.60078e-25
-3.29401e-25
-2.72212e-25
2.6959e-25
8.91249e-25
-6.44236e-27
-4.54135e-25
-2.17859e-25
6.72005e-25
-2.64958e-25
-1.76723e-25
3.4238e-25
8.30785e-25
-8.28428e-25
5.56875e-25
1.89431e-26
3.98691e-26
-4.87381e-26
-1.35092e-26
6.22577e-26
1.30873e-26
2.54499e-27
3.67442e-25
1.37262e-25
1.05399e-25
7.35295e-26
-5.49494e-27
5.4949e-27
2.85341e-25
-8.75437e-26
-1.97799e-25
-2.12558e-25
-4.5411e-25
-1.04206e-24
5.59045e-25
3.58565e-25
-5.76048e-25
-1.24625e-25
1.71344e-25
-3.07587e-25
-3.81447e-25
3.07615e-25
-2.96605e-26
-8.90255e-25
1.97698e-26
-1.26652e-26
-7.10284e-27
8.98676e-25
-7.39702e-27
8.58833e-25
4.82286e-25
-3.71402e-25
5.93273e-25
-3.81608e-25
1.11702e-24
-7.35426e-25
2.02908e-25
7.45352e-25
-9.48267e-25
2.45947e-26
3.98643e-26
1.8966e-26
8.21322e-28
7.5882e-25
3.66307e-25
-1.12514e-24
2.08543e-25
-2.44955e-25
3.64153e-26
3.59065e-25
-3.59078e-25
-5.32549e-25
9.54108e-25
-7.20082e-25
1.87554e-25
6.49525e-27
-1.63245e-25
-2.80295e-25
4.43538e-25
-7.21963e-25
-2.88483e-25
1.01045e-24
4.30365e-25
3.24396e-25
-3.2437e-25
-4.80279e-25
4.80292e-25
-5.1747e-25
1.00902e-24
-4.91567e-25
2.58923e-25
7.99372e-26
-1.34591e-26
2.63597e-25
2.17351e-26
-2.25249e-26
-7.0727e-25
7.2979e-25
6.18784e-25
2.68006e-26
-6.4558e-25
1.22991e-26
3.69261e-25
-8.86742e-25
2.46896e-26
7.61739e-25
-7.86423e-25
3.42283e-26
-2.95524e-26
-4.67711e-27
-8.80107e-25
-1.11965e-26
8.00926e-25
-7.8974e-25
-4.68151e-27
2.31699e-27
1.09e-25
7.20398e-26
-9.76157e-25
-1.1475e-26
9.10102e-25
-6.29986e-25
8.3289e-25
9.61839e-27
1.30001e-26
-2.26167e-26
-6.39136e-25
2.45847e-27
-2.4564e-27
-1.2662e-25
1.04922e-24
1.52064e-25
3.29404e-25
2.58945e-25
-3.319e-26
-3.25856e-25
4.60036e-25
5.84003e-25
9.5573e-25
8.91266e-25
-1.10247e-24
2.11202e-25
1.4809e-26
-5.17952e-27
-3.89225e-26
-1.33378e-26
4.06401e-25
5.83375e-25
-9.89781e-25
-1.22763e-26
6.31045e-25
-2.1806e-27
4.66255e-27
-4.05745e-26
6.92014e-25
-5.45086e-25
6.48009e-26
1.89482e-25
6.24721e-26
1.11016e-26
-2.20641e-25
-8.12648e-25
8.82605e-25
-6.99571e-26
-1.35048e-25
-5.86993e-25
8.06284e-25
-5.66175e-25
-2.40103e-25
7.72779e-25
1.6871e-25
-9.20228e-25
4.4102e-27
9.15822e-25
-9.47228e-25
1.34552e-25
1.30727e-26
2.11383e-26
-2.28984e-25
2.28975e-25
-8.32743e-25
-8.74851e-26
-6.37422e-27
8.38768e-25
-8.32386e-25
-1.30446e-26
-7.46231e-25
-6.71336e-25
-4.3113e-25
-6.55033e-25
6.59446e-25
-1.08628e-26
2.47058e-25
-2.36189e-25
-1.74466e-25
-6.65924e-25
8.31635e-27
1.41603e-25
-1.4992e-25
-2.69581e-25
-9.39794e-27
-8.21267e-25
-9.49044e-26
-4.92425e-25
5.87329e-25
6.20543e-28
-4.90734e-27
4.28548e-27
8.42573e-25
-6.73865e-25
-1.02766e-24
-2.7551e-26
1.0552e-24
2.96443e-25
-2.96434e-25
3.5859e-25
3.98658e-26
1.89113e-25
1.00191e-25
9.39484e-25
-1.03968e-24
-8.20091e-27
2.71427e-26
-3.86426e-25
6.75296e-25
3.64924e-27
9.00507e-27
-1.26547e-26
-2.80291e-25
9.25854e-26
-1.12027e-24
-7.97633e-25
2.47075e-25
-8.05745e-25
7.78178e-25
-8.11025e-26
8.10995e-26
7.47621e-25
-7.28461e-26
-6.73963e-25
7.74195e-25
-4.98703e-28
4.1284e-27
7.65218e-26
-8.10895e-26
4.56563e-27
-7.68642e-26
-7.28845e-25
2.722e-25
-2.852e-25
3.07588e-25
-3.13981e-25
-2.7398e-26
2.12125e-25
-1.84724e-25
1.47805e-26
-6.88739e-25
2.80392e-26
-3.51281e-26
3.65082e-26
-8.46124e-27
9.65514e-25
-4.10096e-25
3.33247e-25
-4.71346e-26
-1.95505e-26
6.66705e-26
-2.68991e-25
2.83758e-25
-1.71301e-25
8.17153e-25
-6.45868e-25
-6.09552e-25
6.8951e-25
4.29967e-26
3.04512e-26
8.08334e-25
6.35594e-28
-5.76019e-25
3.91109e-25
4.15172e-25
9.6436e-25
4.7205e-26
-1.01156e-24
-6.39812e-26
1.6831e-26
-9.59107e-25
-4.70703e-26
1.00618e-24
8.09098e-25
-3.08977e-26
7.57303e-25
1.68666e-26
2.59111e-25
-4.38104e-26
-3.12261e-26
7.50362e-26
-4.11379e-27
1.282e-26
-8.70618e-27
4.87795e-27
-1.30769e-26
7.91274e-25
-8.04585e-25
1.33172e-26
7.79213e-25
-7.62048e-25
-1.71689e-26
-5.04077e-28
1.34263e-26
-9.76052e-26
-2.26789e-25
3.26932e-26
4.85489e-26
-5.70172e-26
3.29938e-26
-4.10985e-26
6.65697e-25
3.48916e-26
-5.27379e-25
1.08317e-24
5.26504e-26
-8.85402e-25
1.12627e-27
4.74163e-26
-6.13278e-25
8.76176e-26
-2.51414e-26
-1.49853e-25
1.84736e-25
8.79567e-25
-6.37541e-25
-5.12004e-26
-5.58728e-25
5.98576e-25
3.02291e-25
-3.33172e-25
3.00642e-25
-2.83745e-25
5.59847e-25
-6.77778e-26
-1.14531e-26
7.92304e-26
-6.39365e-26
-9.76141e-26
2.12104e-25
-1.64197e-25
-6.18789e-25
-4.10087e-25
3.02294e-25
3.00641e-25
8.38707e-27
-3.8165e-26
5.32953e-25
-4.94782e-25
-2.68992e-25
-9.90251e-26
-2.19104e-26
-1.30624e-26
-2.36195e-25
-1.67661e-26
1.25751e-25
3.07573e-25
1.99821e-26
1.10829e-25
-1.30813e-25
7.6145e-26
8.07193e-26
8.01883e-25
1.11095e-25
9.1965e-26
4.65563e-26
-1.50975e-25
1.04419e-25
6.22786e-26
7.71907e-25
-9.36143e-25
1.71811e-26
-1.04206e-24
1.03466e-24
1.50975e-25
-1.89137e-25
1.28118e-26
2.66271e-26
3.65454e-25
1.33288e-25
-4.08581e-25
1.04507e-25
8.82174e-25
1.24413e-25
-1.028e-25
9.13394e-26
6.08336e-26
-2.92562e-26
-7.35348e-26
8.62877e-26
-6.63253e-26
-1.49845e-25
3.13992e-25
1.10681e-25
2.54451e-26
-1.36128e-25
2.8518e-25
8.15475e-26
6.08408e-26
3.04974e-26
5.00302e-26
2.61145e-26
3.71157e-26
-2.40862e-26
5.23919e-26
-5.23902e-26
7.69975e-26
-6.69415e-25
-8.04673e-25
1.74855e-26
-9.85867e-26
-3.77386e-26
3.77416e-26
-2.66302e-26
-1.69474e-25
-6.94029e-26
7.28633e-26
-3.4602e-27
6.93958e-26
-3.16492e-26
1.1838e-25
7.69933e-26
-8.38886e-25
-1.63646e-25
1.44093e-25
3.77185e-26
-6.67957e-26
2.90773e-26
7.48401e-26
1.03809e-25
1.42691e-26
7.28778e-26
-8.71476e-26
-1.60545e-26
3.03404e-26
-4.09012e-25
3.63234e-26
-1.03107e-25
1.20396e-25
-5.95461e-26
7.75048e-26
-4.53376e-26
-9.98345e-26
6.37355e-25
1.05345e-25
3.35259e-26
9.37339e-26
-1.27265e-25
-2.43354e-26
8.59014e-26
1.94431e-26
9.12565e-25
-1.30446e-26
9.89717e-26
-2.21023e-26
1.06508e-24
-1.06669e-25
1.26136e-25
-6.96151e-26
-4.30419e-26
9.30684e-26
1.37515e-26
1.46439e-25
-4.84205e-27
-1.05332e-25
4.58024e-26
1.71477e-25
-9.85842e-26
-3.92585e-26
4.0591e-25
-9.06342e-25
5.00422e-25
2.20564e-25
-2.20567e-25
-2.02494e-25
2.02497e-25
-2.40267e-25
2.40266e-25
2.40315e-25
-2.40311e-25
2.62866e-25
-2.64947e-25
-5.65111e-26
-1.2826e-25
1.84772e-25
3.42383e-25
-1.38136e-25
9.8878e-26
-3.35942e-25
3.35954e-25
-3.25892e-25
-3.24433e-25
3.24451e-25
-7.16071e-26
5.22136e-25
-4.50528e-25
1.71387e-25
-3.3317e-26
-2.78142e-25
3.1146e-25
-2.06888e-25
2.06889e-25
-1.34744e-25
8.34579e-25
-6.99832e-25
-3.49774e-25
-9.59867e-25
1.77906e-26
-3.81403e-25
-3.64601e-25
7.30899e-25
2.84288e-25
-5.53895e-25
9.99624e-25
3.67378e-25
-4.64359e-26
-1.96589e-26
3.78206e-26
5.36321e-25
8.29436e-26
-1.31591e-25
-5.48959e-25
6.80549e-25
3.90535e-25
-6.83627e-25
-4.11829e-26
-4.42954e-27
2.31616e-27
-3.2632e-25
-5.7995e-25
5.08281e-25
-7.35075e-25
-1.2839e-24
4.40349e-25
-2.01386e-25
-4.95103e-25
6.9649e-25
-8.67135e-26
-1.21196e-25
-5.51507e-27
1.26712e-25
-7.81315e-25
-7.31278e-26
7.31208e-26
-1.08337e-26
-1.75882e-26
3.3055e-25
-3.05955e-28
-2.13292e-27
2.51001e-26
-7.24904e-25
-8.22113e-25
7.56254e-25
-6.7337e-25
3.09124e-25
-8.17427e-25
2.63525e-25
9.48905e-25
6.19519e-25
2.92149e-25
-1.40512e-25
-5.66737e-25
2.35374e-25
5.26373e-25
-4.09857e-25
-7.15282e-25
4.44205e-26
2.39565e-25
-8.05714e-25
-6.99334e-25
6.26491e-25
8.28678e-25
7.59932e-25
-9.01373e-25
1.41436e-25
-2.54775e-25
-8.33766e-26
-1.74821e-25
-2.30085e-26
-2.54808e-25
-1.76234e-25
-1.11641e-24
-9.99383e-26
1.21635e-24
6.65102e-26
2.85345e-25
3.86648e-25
8.68054e-29
2.22944e-27
-2.32907e-25
2.32906e-25
7.78021e-25
1.77706e-25
3.65193e-25
5.62505e-25
-7.02199e-25
-8.54625e-25
1.29728e-25
5.79634e-26
2.20511e-26
1.16651e-25
-1.48365e-25
3.17166e-26
-5.13576e-26
3.7168e-26
-4.87721e-25
1.13194e-25
-8.43076e-25
7.43123e-25
-3.47458e-26
-3.7128e-26
6.75695e-25
-2.88764e-28
-3.4964e-25
7.70733e-29
-6.24479e-25
1.13388e-25
-3.98733e-26
1.0814e-25
-4.04386e-25
9.04842e-25
1.35303e-25
-6.85354e-25
-3.04382e-25
-3.61837e-25
-2.72852e-25
-7.43368e-27
5.16723e-25
1.58578e-25
-4.78983e-26
-8.61756e-26
2.25227e-25
2.60591e-26
2.22509e-25
1.36082e-25
6.46452e-25
9.11313e-25
3.67089e-26
-1.57867e-25
1.89692e-26
-2.7283e-25
-8.35266e-27
1.26577e-26
-1.21897e-25
-6.38792e-27
6.42555e-25
4.06663e-25
-7.23685e-25
2.22521e-25
2.85374e-25
1.53838e-25
9.97197e-25
9.34823e-26
1.88087e-26
-5.60759e-25
-2.49766e-28
2.50437e-28
-7.26929e-27
8.5874e-25
2.57163e-28
-2.57649e-28
7.24733e-25
-4.28278e-27
-2.01478e-27
7.41211e-25
-2.31026e-28
2.46958e-28
8.55765e-25
-2.13217e-25
-6.08659e-25
1.03762e-25
-8.09957e-25
6.87604e-27
5.78514e-27
5.46861e-25
-5.66523e-25
-3.87174e-28
-5.59672e-26
-9.23879e-26
1.01613e-25
-6.17534e-26
4.61506e-28
-4.74501e-27
8.02205e-27
-5.03902e-25
4.99476e-25
1.00906e-25
7.86288e-26
4.04927e-26
-8.68936e-25
-3.23428e-25
9.07677e-26
6.45163e-26
7.35675e-25
9.04665e-28
-7.76417e-28
2.69883e-25
-4.03019e-25
-9.83354e-26
-9.5026e-25
-1.09183e-25
-6.10876e-25
-2.80075e-26
4.73688e-25
-4.66028e-25
1.67952e-26
5.18429e-28
-3.23896e-28
9.03183e-26
-3.07484e-25
-1.87235e-25
-9.65466e-26
)
;

boundaryField
{
    front
    {
        type            empty;
        value           nonuniform List<scalar> 0();
    }
    back
    {
        type            empty;
        value           nonuniform List<scalar> 0();
    }
    bottom
    {
        type            calculated;
        value           nonuniform List<scalar> 
12
(
-3.38869e-25
-9.41493e-25
7.83005e-25
-7.84007e-25
4.5513e-25
1.04427e-25
-1.04503e-25
7.93827e-25
9.41409e-25
-7.9226e-25
-4.54336e-25
3.38166e-25
)
;
    }
    left
    {
        type            calculated;
        value           uniform 0;
    }
    top
    {
        type            calculated;
        value           uniform 0;
    }
    right
    {
        type            calculated;
        value           uniform 0;
    }
    inner_arc
    {
        type            calculated;
        value           uniform 0;
    }
}


// ************************************************************************* //
