/*--------------------------------*- C++ -*----------------------------------*\
  =========                 |
  \\      /  F ield         | OpenFOAM: The Open Source CFD Toolbox
   \\    /   O peration     | Website:  https://openfoam.org
    \\  /    A nd           | Version:  9
     \\/     M anipulation  |
\*---------------------------------------------------------------------------*/
FoamFile
{
    format      ascii;
    class       volVectorField;
    location    "0.89";
    object      U;
}
// * * * * * * * * * * * * * * * * * * * * * * * * * * * * * * * * * * * * * //

dimensions      [0 1 -1 0 0 0 0];

internalField   nonuniform List<vector> 
578
(
(1.09896e-17 1.3527e-17 0)
(8.66451e-18 1.07955e-17 -3.29152e-35)
(1.69607e-17 2.03404e-17 0)
(-5.50381e-19 -1.23953e-18 3.70192e-36)
(3.15841e-18 -6.75939e-18 0)
(7.11002e-18 -9.73822e-19 -1.76447e-35)
(3.26123e-18 6.94731e-18 -3.30372e-36)
(3.25969e-18 -5.93671e-18 -2.67001e-35)
(1.67216e-17 -2.72851e-17 0)
(4.4068e-18 6.54094e-18 4.06786e-35)
(1.12605e-17 -2.87738e-18 1.19454e-35)
(1.14214e-17 -2.19481e-17 -1.6703e-36)
(-3.58796e-19 -1.03922e-19 0)
(1.18624e-17 -2.43125e-17 3.27493e-35)
(1.19399e-17 2.43053e-17 0)
(2.13192e-17 -2.4329e-17 2.16986e-36)
(1.58404e-17 7.53997e-18 7.28443e-36)
(1.8319e-17 1.6652e-17 -2.28239e-35)
(1.02336e-17 -1.96701e-17 7.94834e-36)
(1.82348e-17 -2.68363e-17 1.57346e-35)
(-8.88235e-19 -1.7667e-18 -3.81161e-36)
(1.78204e-17 -2.22312e-17 7.50699e-36)
(9.79719e-18 -4.41108e-18 -1.32341e-35)
(-4.1053e-20 4.58568e-18 -1.33818e-36)
(-1.84976e-19 4.06948e-18 0)
(9.99625e-18 -2.02182e-17 1.76983e-36)
(-4.88598e-19 1.26729e-18 0)
(-2.31697e-19 1.13925e-18 -7.71728e-38)
(1.03237e-17 8.68836e-18 1.93178e-35)
(2.12151e-17 -2.47554e-17 0)
(-4.78553e-19 1.88759e-18 1.88385e-37)
(4.84796e-18 -9.20483e-19 -2.3218e-36)
(2.1359e-17 -2.54924e-17 8.36923e-37)
(-8.99196e-19 4.24384e-18 -1.06734e-36)
(1.04092e-17 2.15614e-17 -3.01331e-35)
(1.82318e-17 -2.07857e-17 -4.71249e-36)
(1.03324e-17 -2.13898e-17 -2.88451e-35)
(9.5443e-18 -1.83396e-17 0)
(2.03519e-17 2.35452e-17 -1.26997e-36)
(5.21774e-18 -1.09275e-17 0)
(5.46162e-18 -1.20328e-17 2.77562e-35)
(5.86524e-18 -1.02246e-17 1.47028e-35)
(5.23669e-18 -1.01319e-17 3.37454e-35)
(1.02338e-17 2.10461e-17 -1.04662e-36)
(1.25952e-17 -1.37327e-17 0)
(5.33302e-18 1.1208e-17 1.25097e-36)
(5.52723e-18 1.22878e-17 3.32881e-35)
(1.46818e-17 -2.42903e-17 1.21281e-35)
(2.06694e-17 2.39564e-17 1.29582e-36)
(-6.58845e-19 1.11758e-18 0)
(6.6036e-19 1.57716e-18 9.89521e-37)
(-3.2552e-19 -1.55235e-19 2.50834e-38)
(1.10128e-17 -6.12872e-18 2.28035e-35)
(-1.07202e-18 3.84496e-18 1.0556e-36)
(-9.2776e-20 -9.87393e-21 0)
(6.58424e-18 -3.15627e-19 -5.27037e-36)
(4.3366e-18 -1.34134e-18 -2.28318e-36)
(7.14453e-18 -6.73691e-18 0)
(1.99764e-17 1.39634e-17 1.12269e-35)
(1.17028e-17 -1.31348e-17 -6.02724e-36)
(2.0565e-17 1.78349e-17 6.55204e-36)
(8.78144e-18 4.39135e-18 1.28887e-35)
(1.11661e-17 9.91985e-18 1.69019e-35)
(1.0301e-17 -2.13104e-17 -1.53074e-35)
(-5.46707e-19 7.4669e-20 1.86957e-36)
(1.27252e-17 2.45531e-17 1.65386e-35)
(2.00563e-17 -2.57258e-17 -9.22974e-36)
(1.40013e-17 -5.35385e-18 0)
(2.14704e-17 -2.18752e-17 1.88484e-36)
(1.20921e-17 -2.54054e-17 -1.10819e-35)
(-5.26951e-19 3.96779e-18 0)
(2.05053e-18 1.53807e-18 -2.875e-35)
(-4.52628e-19 -1.08412e-20 -4.02105e-36)
(1.25359e-17 -2.55518e-17 -2.92694e-35)
(5.74261e-18 1.31379e-18 0)
(3.06734e-18 -6.46506e-18 -1.52837e-35)
(1.48873e-17 -2.28746e-17 -3.95397e-35)
(1.19056e-17 -1.82475e-17 2.22264e-35)
(-5.72935e-19 -1.18831e-19 1.99355e-36)
(1.01933e-17 1.12982e-17 7.8852e-36)
(1.65503e-17 -1.62345e-17 -3.59286e-35)
(5.65582e-18 7.58343e-18 -4.81625e-35)
(3.99911e-18 -5.70765e-18 -5.71282e-35)
(5.51525e-18 -7.55606e-18 0)
(1.88942e-17 2.53022e-17 7.54337e-36)
(3.85476e-18 9.49575e-18 -3.18121e-35)
(6.58421e-19 4.05304e-19 0)
(9.26043e-18 4.66741e-19 -7.41162e-37)
(8.43086e-18 -1.79123e-17 2.37869e-35)
(8.67392e-18 1.97798e-17 1.46656e-37)
(-7.43009e-19 1.73411e-18 -1.14064e-37)
(1.56905e-17 2.22368e-17 7.55618e-38)
(8.42831e-18 1.81837e-17 2.48629e-35)
(-6.72128e-19 -4.22805e-19 1.34194e-36)
(2.22387e-17 -2.35084e-17 -2.52769e-36)
(1.83616e-17 -2.09869e-17 0)
(-2.04279e-19 6.76317e-23 1.89592e-36)
(-1.54385e-19 -3.42997e-20 0)
(1.84851e-18 2.19429e-18 1.01196e-35)
(1.20798e-17 2.46163e-17 -3.01383e-35)
(1.13739e-17 2.13549e-17 -1.87571e-36)
(1.11517e-17 -2.42727e-17 -1.23785e-35)
(-5.39091e-19 2.99761e-19 0)
(1.59557e-17 1.76364e-17 0)
(-4.54864e-20 1.87321e-20 6.49497e-37)
(1.20205e-17 -2.46693e-17 -2.88528e-35)
(5.13737e-18 1.37748e-18 0)
(5.49557e-18 -1.16926e-17 -1.83926e-35)
(1.79422e-18 4.91661e-18 1.97432e-35)
(6.02566e-18 -1.21398e-17 3.57774e-35)
(1.77469e-17 -2.22952e-17 -6.59333e-36)
(1.1522e-17 -2.42801e-17 -8.88343e-36)
(1.97934e-17 -2.64287e-17 -1.47343e-36)
(2.15182e-17 -1.92407e-17 2.77489e-36)
(2.12695e-17 -2.20499e-17 -2.75876e-36)
(-3.46073e-19 1.5845e-19 1.50452e-36)
(-6.21958e-19 -1.04051e-18 0)
(2.09576e-17 1.85175e-17 4.79319e-36)
(7.43497e-18 1.65341e-17 0)
(-1.50842e-19 3.23986e-20 1.96723e-36)
(8.00032e-18 -1.61026e-17 2.24477e-35)
(9.17257e-18 -1.25673e-17 0)
(1.15659e-17 -2.27841e-17 2.99441e-36)
(-6.2212e-19 -1.99839e-18 3.88399e-36)
(8.3642e-18 -1.09367e-17 0)
(9.75519e-18 2.41266e-17 7.13383e-36)
(1.34696e-17 -1.33374e-17 3.60484e-35)
(1.9726e-17 -2.19715e-17 -9.15815e-37)
(1.25558e-17 2.55596e-17 -2.71716e-35)
(8.77363e-18 2.46651e-17 0)
(1.22146e-17 2.43341e-17 3.21278e-35)
(9.7616e-18 2.48914e-17 0)
(-6.58692e-19 -6.15133e-19 1.91481e-36)
(1.98559e-18 -4.00056e-18 -1.76682e-35)
(1.21708e-17 2.51742e-17 -2.88079e-35)
(1.12083e-17 1.98461e-17 0)
(9.7206e-18 -1.79778e-17 3.53671e-35)
(-3.40475e-19 8.68061e-20 -1.5556e-36)
(2.16312e-17 -1.72446e-17 -7.82631e-38)
(1.02521e-17 1.97313e-17 -2.68391e-35)
(4.61108e-18 8.54039e-18 0)
(8.78724e-18 2.43048e-17 0)
(8.56132e-18 1.6336e-17 0)
(-1.28537e-19 -4.24264e-18 0)
(4.31809e-18 -8.47448e-18 2.22012e-35)
(2.08185e-17 2.56688e-17 0)
(7.26999e-18 1.65451e-17 1.60466e-35)
(-5.92386e-20 1.01327e-19 -7.78391e-37)
(1.25772e-17 -2.53579e-17 0)
(8.40751e-18 2.28492e-17 0)
(1.43349e-17 -2.7001e-17 0)
(4.14453e-18 6.03924e-18 -2.9516e-36)
(4.80813e-18 -5.16447e-18 3.12471e-35)
(3.66565e-18 -7.40517e-18 1.60564e-35)
(1.31316e-17 2.58934e-17 -9.19811e-37)
(-3.40837e-19 6.61865e-19 7.75176e-38)
(1.56909e-17 1.02896e-17 -2.17592e-35)
(-1.80764e-19 -2.48996e-19 3.16486e-36)
(3.98601e-18 4.28533e-18 1.21815e-35)
(1.48764e-17 -2.74024e-17 0)
(1.27235e-17 -2.45959e-17 0)
(1.14292e-17 -2.13219e-17 0)
(2.39777e-18 4.44555e-18 0)
(1.27021e-17 -2.31403e-17 4.05059e-37)
(2.45171e-20 -1.68438e-18 0)
(8.83122e-18 2.15873e-17 -8.89155e-36)
(-1.28086e-19 -2.85826e-18 0)
(1.12557e-17 2.16309e-17 -2.5616e-37)
(-5.70649e-20 -8.97962e-20 0)
(-1.49447e-18 1.32389e-18 0)
(1.18324e-17 -2.02713e-17 2.53146e-35)
(5.30963e-18 -9.6767e-18 0)
(6.19798e-18 1.08134e-17 0)
(3.60406e-18 7.17132e-18 -3.1406e-37)
(9.47491e-18 1.78747e-17 0)
(-8.39093e-19 1.5283e-19 0)
(-1.08427e-18 1.50265e-20 -2.1197e-36)
(2.15978e-17 1.52132e-17 -1.34311e-36)
(6.83472e-18 -1.18069e-17 -2.38786e-35)
(1.95921e-18 -1.60373e-18 0)
(5.2511e-18 9.66433e-18 2.6665e-37)
(1.33374e-17 1.7676e-17 3.25115e-35)
(6.39618e-18 1.75703e-17 0)
(-8.82026e-19 -1.78011e-19 3.98945e-36)
(1.35616e-17 2.30113e-17 0)
(-2.19213e-20 4.60688e-21 -1.38588e-37)
(7.20429e-18 -8.90518e-18 -1.83803e-37)
(1.25891e-17 2.57943e-17 2.88488e-35)
(1.36289e-17 2.65531e-17 0)
(6.69941e-19 -1.58674e-18 0)
(1.35783e-17 -2.65084e-17 0)
(1.0698e-17 -1.97317e-17 3.00453e-35)
(1.16409e-17 -1.55039e-17 -8.08103e-36)
(1.0056e-17 1.89125e-17 2.51272e-37)
(7.83409e-18 1.14115e-17 3.1794e-35)
(-2.05926e-18 3.7298e-19 -2.57309e-36)
(-1.17754e-19 -3.16313e-19 -5.23752e-36)
(-1.19649e-19 3.2823e-19 -1.70324e-36)
(1.05689e-17 1.95814e-17 0)
(1.01325e-17 -1.8944e-17 0)
(-2.16963e-20 -6.08609e-21 0)
(-9.53835e-19 -4.02449e-19 -2.07762e-36)
(5.02997e-18 -6.88146e-18 5.14188e-35)
(-1.73572e-18 7.47249e-19 2.69991e-36)
(-1.41832e-18 7.28617e-20 8.59787e-37)
(1.15852e-17 -2.18298e-17 -6.35638e-35)
(1.25566e-17 2.31943e-17 0)
(1.04155e-17 1.35754e-17 6.30996e-37)
(1.38051e-17 -2.71899e-17 0)
(6.42231e-18 7.47628e-18 -1.19792e-35)
(5.59761e-18 1.26027e-17 -7.35621e-36)
(1.38662e-17 2.7214e-17 0)
(1.13794e-17 2.36382e-17 0)
(-1.61011e-18 -2.8453e-19 -1.22645e-36)
(9.58297e-18 1.9097e-17 0)
(-8.68803e-19 -2.6133e-18 -3.40897e-36)
(1.18887e-17 2.26041e-17 0)
(1.19341e-17 -2.26231e-17 -1.16547e-37)
(1.34711e-17 2.67996e-17 3.34508e-35)
(2.91582e-18 6.15086e-18 0)
(1.34074e-17 -2.67015e-17 3.31635e-35)
(1.07356e-17 2.05655e-17 3.00389e-35)
(6.84208e-18 -1.44487e-17 -3.17575e-35)
(5.91611e-18 -1.09745e-17 -2.96052e-35)
(5.5524e-18 1.02094e-17 0)
(6.78841e-18 1.41979e-17 1.82609e-37)
(-2.46675e-18 -1.48824e-19 2.14767e-36)
(-4.75858e-20 -7.67448e-20 0)
(-4.85918e-20 8.58649e-20 6.31704e-37)
(2.44756e-19 -1.37934e-18 1.64791e-35)
(3.35814e-18 5.04599e-18 0)
(1.75623e-18 -1.98891e-18 4.35195e-35)
(1.93019e-18 3.79745e-18 2.50791e-37)
(7.55988e-18 -2.08493e-17 0)
(7.58419e-18 2.08629e-17 0)
(3.98692e-18 -6.53498e-18 -1.30979e-35)
(2.95284e-18 -5.46895e-18 -2.52066e-35)
(2.9578e-18 5.42778e-18 -2.66996e-35)
(-4.24024e-19 -2.63811e-19 -2.93743e-36)
(5.61216e-18 -1.27002e-17 0)
(2.60428e-18 4.83332e-18 -2.57762e-35)
(2.71438e-18 -4.5916e-18 -2.85835e-35)
(-2.3124e-18 6.1417e-19 -4.26434e-37)
(4.92087e-18 9.09073e-18 -5.08917e-37)
(-7.63844e-20 2.53865e-19 2.71003e-36)
(2.1928e-18 -4.4951e-18 -2.2505e-35)
(2.23186e-18 4.21319e-18 0)
(1.92859e-18 1.4128e-18 0)
(3.27418e-18 5.41317e-18 0)
(-1.76903e-18 2.90577e-18 1.0145e-36)
(-1.95941e-18 -2.93736e-19 0)
(1.08659e-17 2.49116e-17 2.57795e-37)
(4.8381e-18 -3.26236e-18 2.75502e-35)
(1.95682e-18 -5.22099e-18 0)
(2.07562e-19 1.3877e-18 0)
(8.70972e-18 -2.42914e-17 -5.44948e-36)
(1.73089e-19 -2.70427e-18 -2.14752e-35)
(1.4781e-17 2.74987e-17 -1.5796e-35)
(3.16179e-18 -5.81691e-18 -2.02731e-35)
(1.86224e-18 -1.30602e-18 -5.66593e-35)
(2.93085e-18 -6.21333e-18 8.67175e-36)
(2.77215e-18 5.10424e-18 -2.13598e-37)
(-8.74002e-20 -2.55162e-19 9.21568e-36)
(-2.02124e-19 -7.06421e-19 -1.2436e-35)
(1.39398e-17 1.6014e-17 -4.84192e-35)
(8.62241e-18 -1.84976e-17 1.30546e-35)
(4.131e-18 -1.14496e-17 0)
(1.13242e-18 -2.64878e-18 -7.00104e-36)
(6.90643e-19 -3.73335e-19 -4.80772e-37)
(4.87708e-19 -2.39428e-18 0)
(4.92642e-19 2.3957e-18 0)
(9.88611e-18 2.38168e-17 0)
(5.77516e-18 -1.51053e-17 0)
(-2.56088e-18 1.12262e-20 -1.07482e-36)
(-1.33345e-18 -5.87978e-19 -1.50495e-36)
(-2.42021e-18 1.34154e-18 2.31589e-36)
(-1.34701e-18 2.7349e-18 5.73809e-37)
(1.13564e-18 2.6326e-18 -3.39491e-40)
(5.86708e-18 1.07142e-17 0)
(-1.81913e-18 3.08696e-18 3.16989e-36)
(5.56214e-18 -1.02677e-17 2.50192e-37)
(-2.19899e-18 2.02916e-18 -1.02224e-36)
(-2.42084e-18 -1.15495e-18 0)
(-2.00943e-18 -9.25491e-19 1.2982e-36)
(-2.21407e-18 1.74974e-18 1.30703e-36)
(4.17483e-18 7.96947e-18 0)
(1.58953e-18 -3.37169e-18 8.15608e-38)
(1.58973e-18 3.32098e-18 -1.14982e-35)
(-3.61228e-20 1.21591e-18 2.35815e-36)
(-2.47975e-19 2.4378e-18 1.03827e-36)
(7.27554e-18 -2.05125e-17 3.10073e-36)
(1.11784e-17 2.45498e-17 0)
(-1.63935e-18 1.7572e-18 -1.23721e-36)
(3.17044e-18 5.65286e-18 -2.36811e-35)
(-1.3369e-19 -7.92632e-19 2.22628e-36)
(-2.41745e-19 -1.21664e-18 -3.2977e-36)
(2.79118e-18 -5.18468e-18 0)
(8.70111e-18 -2.46622e-17 9.97171e-36)
(-2.85599e-19 -2.56037e-18 -8.01684e-37)
(-3.00896e-19 -1.91557e-18 -8.98167e-37)
(-1.6631e-18 3.44447e-18 -3.22986e-36)
(7.30798e-18 2.04651e-17 0)
(-1.68081e-19 -1.35735e-18 -7.60802e-37)
(-9.71329e-20 -1.49834e-18 1.47222e-36)
(-1.20749e-19 -5.30342e-19 4.72699e-36)
(-1.87378e-19 1.42166e-18 -3.00484e-36)
(8.33919e-18 -2.28947e-17 -4.04456e-36)
(2.02944e-18 -2.98045e-18 0)
(-1.36926e-18 8.52209e-19 -7.05619e-37)
(-2.03461e-18 5.5313e-19 -1.83905e-36)
(7.26997e-18 -1.66839e-17 0)
(1.81385e-18 -1.64032e-18 0)
(7.22015e-19 -2.99376e-19 -1.63051e-36)
(5.78203e-18 1.50373e-17 -8.32906e-41)
(-9.41443e-19 2.53505e-18 -5.81255e-36)
(-2.22998e-18 -2.17583e-18 -1.74469e-36)
(1.02494e-17 2.27978e-17 0)
(1.96117e-18 5.20372e-18 4.26024e-40)
(4.14251e-18 1.14275e-17 0)
(-1.33048e-18 3.50708e-18 6.81284e-36)
(8.53827e-18 1.79802e-17 0)
(-2.21117e-18 -1.08989e-18 -1.25541e-36)
(-2.13657e-18 1.53672e-18 1.40957e-36)
(4.16299e-19 3.88238e-18 2.55368e-36)
(-1.44617e-18 4.80228e-19 -1.77739e-36)
(-1.69355e-18 -2.5209e-18 1.15676e-36)
(1.43187e-17 2.70611e-17 0)
(9.02497e-18 1.69366e-17 0)
(1.31926e-17 -2.57031e-17 3.08374e-35)
(-1.00127e-18 -2.39195e-18 5.86217e-37)
(-8.2947e-19 3.44222e-19 -3.046e-37)
(1.56561e-17 2.7089e-17 0)
(-6.76092e-19 -5.91268e-19 4.41047e-37)
(-1.65895e-18 -3.49496e-18 -2.73718e-37)
(7.79735e-18 1.5422e-17 0)
(1.11397e-19 2.74275e-18 1.32196e-36)
(-1.58176e-18 -1.34463e-18 9.96034e-38)
(-1.84959e-18 -3.13759e-18 1.07239e-36)
(3.68092e-19 -4.48683e-18 0)
(-1.28089e-18 2.11917e-18 0)
(-2.12219e-18 -1.91789e-18 0)
(-2.28736e-18 -1.05747e-18 -2.14234e-36)
(3.87806e-18 -1.22409e-18 -2.36774e-36)
(7.51533e-19 -3.82171e-18 4.57829e-37)
(1.25206e-18 1.35868e-18 -1.00524e-36)
(1.62559e-17 -2.08213e-17 0)
(2.21454e-17 -1.02114e-17 -9.36677e-36)
(1.90025e-18 4.29837e-18 -8.74034e-36)
(1.87276e-18 -4.13837e-18 9.77519e-36)
(2.11174e-18 4.57454e-18 -1.14878e-35)
(2.17502e-18 -4.64424e-18 -1.62646e-35)
(2.31613e-18 -4.64522e-18 0)
(2.35832e-18 4.68299e-18 7.46983e-36)
(3.31102e-18 -2.83809e-18 0)
(2.57258e-18 -5.69798e-18 0)
(2.56615e-18 5.89744e-18 0)
(3.14537e-18 1.3109e-18 -1.64899e-36)
(2.91618e-18 6.14284e-18 -1.16645e-35)
(3.54207e-18 -6.63455e-18 -2.55029e-35)
(3.4686e-18 6.52089e-18 -6.84584e-36)
(1.35113e-17 1.8253e-19 -1.68148e-37)
(3.9269e-18 9.12313e-19 0)
(7.82559e-18 4.23925e-20 6.43796e-36)
(1.71749e-18 -4.31909e-18 0)
(4.96325e-18 8.72099e-20 3.8572e-36)
(2.23313e-17 -4.67156e-19 0)
(9.97072e-18 -7.78624e-20 1.61929e-37)
(2.03403e-17 -1.67088e-17 4.97925e-35)
(-1.26381e-18 -1.04373e-18 1.14471e-36)
(6.22614e-18 6.43785e-18 0)
(1.1014e-17 -2.312e-17 2.56434e-35)
(5.9173e-18 4.15964e-18 -8.91284e-36)
(1.17331e-17 1.36552e-17 1.06967e-35)
(2.12071e-17 -1.30646e-17 -1.35221e-35)
(2.0629e-17 2.53239e-17 -5.85921e-36)
(6.13388e-18 -3.81404e-18 1.72288e-35)
(-1.0909e-18 5.63577e-19 1.55983e-36)
(3.96111e-18 8.76431e-18 0)
(3.96793e-18 -8.63569e-18 -1.30361e-35)
(1.7589e-17 5.02675e-18 -9.10085e-36)
(-8.33104e-20 1.06429e-20 -3.089e-36)
(4.29261e-18 -9.34391e-18 7.18472e-36)
(4.33473e-18 9.33106e-18 0)
(1.80488e-17 -2.0972e-18 -1.4017e-37)
(1.47702e-17 -1.08864e-18 -8.69122e-36)
(2.01307e-17 4.49526e-20 -4.65175e-36)
(7.82554e-18 -1.16582e-19 2.32723e-36)
(5.37867e-18 1.16635e-17 0)
(5.88453e-18 1.17557e-17 -4.89495e-36)
(3.56621e-18 -8.22425e-18 0)
(-4.22262e-20 -1.90584e-20 0)
(2.26825e-17 -5.83102e-18 0)
(2.23986e-17 -4.6759e-18 -1.17257e-35)
(8.74993e-18 -2.16646e-17 0)
(2.10916e-17 2.28421e-17 -6.41986e-37)
(1.82519e-17 -2.45308e-18 6.81256e-36)
(1.27775e-17 -1.02238e-17 0)
(-2.92425e-19 -4.2954e-18 2.61743e-36)
(2.1791e-17 -1.91954e-18 -1.59824e-36)
(-9.50608e-20 2.61555e-18 0)
(1.92159e-17 2.25395e-17 -6.62176e-36)
(7.08402e-20 2.64883e-18 0)
(1.48382e-17 8.78337e-19 2.16774e-37)
(8.0042e-18 5.81363e-18 0)
(-5.9346e-20 3.36825e-20 -8.31118e-37)
(2.28404e-17 3.1858e-18 2.22778e-37)
(1.90653e-17 -1.61797e-17 -1.19221e-35)
(2.13759e-17 6.54621e-18 -2.99156e-36)
(1.79797e-17 -4.97772e-18 1.86639e-36)
(1.94115e-17 -1.10361e-17 0)
(2.25301e-17 2.71657e-18 -2.23939e-37)
(1.83664e-17 1.6647e-17 7.38262e-36)
(3.82062e-18 -2.28728e-18 0)
(7.84426e-18 2.03261e-17 -7.26402e-36)
(2.20932e-17 1.13177e-17 3.02965e-36)
(2.0412e-17 -7.09686e-18 1.50458e-35)
(9.78955e-18 -2.0465e-17 -1.39389e-35)
(9.73228e-18 2.058e-17 -1.60655e-35)
(1.28609e-17 -2.59281e-17 2.33199e-35)
(-1.02144e-18 1.15295e-18 0)
(1.16959e-17 2.43183e-17 3.13967e-35)
(-6.67488e-21 1.63983e-18 0)
(1.26086e-17 -2.51389e-17 -1.42736e-36)
(1.19352e-17 2.42784e-17 1.50455e-35)
(1.07466e-17 2.39279e-17 0)
(9.48819e-18 -2.39584e-17 5.42045e-36)
(3.81661e-18 -9.45718e-18 0)
(6.68625e-18 1.09618e-18 0)
(1.72106e-18 -4.88998e-18 -1.0944e-36)
(9.60439e-18 -2.48732e-17 -6.68732e-36)
(1.79007e-17 2.64614e-17 1.03913e-35)
(8.58054e-18 9.1447e-20 -6.4477e-36)
(1.09185e-17 -1.34207e-17 -4.11805e-37)
(-4.98829e-20 -3.34113e-20 0)
(1.88966e-18 4.62941e-18 0)
(1.10601e-17 -2.47665e-17 1.54557e-35)
(9.29489e-18 -1.95144e-17 -2.76737e-35)
(1.89554e-17 1.31465e-17 -6.32493e-36)
(6.36869e-18 -1.75851e-17 -6.61143e-38)
(2.17654e-17 6.94058e-18 8.5031e-36)
(2.15324e-17 1.09185e-17 -1.96725e-36)
(-1.39141e-18 -1.85474e-18 0)
(-3.5294e-19 -4.79117e-19 -9.34861e-37)
(-9.31255e-19 -4.0035e-18 -3.99869e-37)
(1.66686e-17 2.73542e-17 2.58389e-35)
(1.52509e-17 1.69688e-18 4.03215e-36)
(-5.30946e-19 -3.81422e-18 6.16072e-37)
(1.49473e-17 2.14901e-17 1.20184e-35)
(1.20743e-17 1.89495e-17 -2.27109e-35)
(-1.7742e-19 7.85888e-19 0)
(1.27693e-17 2.53427e-17 0)
(-2.25809e-21 1.18637e-20 0)
(1.09214e-17 2.34493e-17 -1.67978e-35)
(2.83259e-21 -8.98344e-21 1.13014e-36)
(1.30274e-17 2.62246e-17 -3.05342e-35)
(-6.60668e-19 3.04382e-18 0)
(3.77873e-18 2.78507e-18 1.44923e-35)
(2.06928e-17 -1.02237e-17 6.32834e-36)
(3.42433e-18 2.29022e-18 0)
(2.09217e-17 2.08077e-17 0)
(8.11647e-18 -9.62232e-18 -3.63686e-35)
(6.57777e-18 7.99016e-18 -3.80078e-35)
(1.63602e-17 7.14861e-18 -1.82919e-36)
(3.34587e-18 -9.12033e-18 1.03552e-35)
(8.19778e-18 -4.19438e-19 4.68535e-36)
(1.41752e-17 -2.3666e-17 1.36966e-35)
(3.59542e-18 9.4696e-18 8.82778e-36)
(6.70419e-18 -7.88712e-18 0)
(1.93398e-17 5.82259e-18 -5.60276e-36)
(1.01981e-17 -2.30636e-17 8.26764e-37)
(-6.8358e-19 -4.5288e-18 3.8331e-37)
(-8.04835e-20 4.41789e-19 9.67469e-37)
(3.02835e-18 4.27447e-18 -1.59897e-35)
(-1.77967e-19 2.71254e-19 2.45816e-38)
(1.65466e-18 -3.52553e-18 -7.97017e-36)
(1.09841e-17 -2.34388e-17 -1.81101e-36)
(1.05298e-17 -2.46957e-17 -1.71871e-35)
(2.51262e-18 -3.51369e-18 -1.54661e-35)
(4.28453e-18 -6.00377e-18 2.38952e-37)
(1.35618e-17 -1.71352e-17 -1.94726e-36)
(-3.51284e-19 4.49889e-18 0)
(1.18014e-17 -1.24494e-18 1.6097e-35)
(2.19454e-17 2.44126e-17 0)
(-2.49858e-19 -3.28864e-18 -1.58718e-36)
(-3.8191e-19 5.40136e-19 -4.08671e-38)
(7.59267e-18 -2.01044e-17 8.32265e-36)
(5.40102e-19 -4.26671e-18 3.29937e-36)
(5.10269e-22 -8.70258e-21 7.1484e-37)
(-1.68422e-19 9.68885e-20 5.51758e-37)
(1.44131e-17 2.4505e-17 -2.44113e-35)
(9.49492e-22 7.75643e-21 0)
(1.95347e-17 2.65701e-17 -3.28039e-36)
(9.75921e-18 -2.39139e-17 -8.23427e-37)
(-2.07592e-19 -1.9322e-19 -3.52553e-36)
(-9.10085e-19 7.85846e-19 0)
(3.77478e-18 8.67817e-18 2.39801e-35)
(-8.28264e-19 2.74971e-18 -5.65493e-37)
(1.17625e-17 2.49855e-17 2.307e-35)
(7.55365e-21 -1.80755e-21 -5.61428e-37)
(7.30855e-21 2.91306e-21 5.914e-37)
(1.26154e-17 -2.55726e-17 -1.412e-35)
(1.86464e-17 2.58248e-18 4.52411e-36)
(6.43928e-18 -1.64888e-17 -1.80124e-35)
(-1.68674e-18 -2.30645e-18 0)
(2.18559e-17 2.14822e-17 -2.95931e-36)
(-2.25745e-19 2.26367e-19 3.41568e-37)
(7.5097e-18 1.62723e-17 -1.12375e-35)
(-8.92682e-19 -9.57439e-19 -9.25261e-37)
(6.851e-18 1.70431e-17 -9.11652e-36)
(-1.25785e-19 1.18661e-19 -4.59797e-37)
(-9.77746e-19 -3.67573e-18 -2.44866e-38)
(1.50159e-17 -1.67492e-17 0)
(-5.83838e-19 -2.86461e-18 1.01755e-36)
(8.02881e-18 1.84049e-17 6.48907e-36)
(9.65674e-18 2.04575e-17 -3.56453e-35)
(-3.52405e-19 1.92503e-18 0)
(1.22456e-17 -2.45375e-17 1.32848e-35)
(8.14788e-18 -1.82785e-17 1.78538e-35)
(1.73334e-18 2.90361e-18 1.65026e-35)
(-1.01747e-19 -9.40715e-20 -1.82031e-36)
(1.69417e-18 3.55434e-18 -2.51273e-36)
(1.71076e-17 -5.90039e-18 -9.25585e-36)
(5.15827e-18 -1.57716e-18 4.19013e-36)
(6.71834e-18 -1.54976e-17 -1.43725e-36)
(1.04653e-17 -2.22836e-17 1.32965e-35)
(-1.40808e-18 -2.82312e-18 0)
(-4.71538e-19 -4.48646e-18 -4.2409e-37)
(-2.93892e-19 -6.18358e-19 -3.28491e-37)
(1.38127e-17 -2.11069e-17 -8.39208e-36)
(3.90028e-18 3.08209e-19 -1.54343e-35)
(7.7614e-18 -1.21928e-17 -4.65684e-36)
(1.30812e-17 -2.61066e-17 -1.4623e-35)
(-1.45861e-19 6.437e-19 -3.35704e-36)
(-1.20357e-18 -4.21804e-18 -1.97436e-37)
(1.59803e-17 -1.1069e-17 1.513e-35)
(6.39542e-18 9.92726e-18 0)
(4.80048e-19 3.55096e-18 -1.06433e-35)
(9.05129e-18 1.9353e-17 1.30854e-35)
(1.36601e-17 1.733e-17 1.64597e-35)
(-6.39885e-21 -1.81637e-21 -5.02135e-38)
(-8.64744e-21 3.47289e-21 -1.86395e-36)
(1.2748e-17 -7.54513e-18 0)
(6.48436e-18 -1.01953e-17 2.30036e-35)
(8.10179e-18 -1.77579e-17 1.47766e-35)
(8.51577e-18 -6.56839e-18 0)
(-9.42345e-19 4.32518e-18 -2.71339e-36)
(4.67985e-19 4.35174e-18 1.65417e-36)
(1.7945e-17 2.10989e-17 -9.90472e-36)
(1.62771e-17 -2.1711e-17 4.29192e-36)
(7.89319e-18 -1.87825e-17 5.98399e-37)
(1.99314e-17 -1.58867e-17 1.08563e-35)
(1.24299e-17 2.43438e-17 -3.45227e-35)
(1.01527e-17 -2.32376e-17 0)
(1.32885e-17 2.12667e-17 0)
(2.06352e-17 -1.29591e-17 0)
(1.27166e-17 2.26852e-18 -3.189e-36)
(1.57143e-17 -2.72373e-17 0)
(1.04159e-18 -2.85054e-18 2.24873e-36)
(-1.51169e-18 -3.34491e-18 1.029e-36)
(-6.02099e-19 5.97228e-19 -4.40973e-38)
(-4.64809e-19 3.73937e-19 -4.44528e-37)
(7.49609e-18 1.23016e-17 1.0385e-35)
(6.99265e-18 -1.52168e-17 1.8298e-36)
(-3.05627e-20 4.14225e-20 -1.12603e-37)
(-2.60346e-20 -3.09713e-20 5.34421e-36)
(2.77216e-18 2.86238e-18 -5.41516e-36)
(-1.41415e-19 -8.05198e-20 -1.34414e-37)
(1.29301e-17 4.67408e-18 1.77589e-36)
(3.51493e-21 5.2513e-21 1.23132e-37)
(7.24737e-21 -1.67064e-21 -2.80438e-36)
(1.13479e-17 2.38179e-17 0)
(1.89371e-17 2.21548e-17 0)
(1.79192e-17 -1.15258e-17 -1.56493e-35)
(9.7296e-18 4.07663e-18 0)
(2.17163e-17 2.35694e-17 3.19194e-36)
(1.57882e-18 3.88319e-18 0)
(1.91921e-17 2.47032e-17 1.39031e-36)
(1.65661e-17 2.01474e-17 9.18409e-36)
)
;

boundaryField
{
    front
    {
        type            empty;
    }
    back
    {
        type            empty;
    }
    bottom
    {
        type            zeroGradient;
    }
    left
    {
        type            noSlip;
    }
    top
    {
        type            uniformFixedValue;
        uniformValue    
        {
            type            scale;
            scale           
            {
                type            squarePulse;
                start           0.3;
                duration        0.3;
            }
            xScale          
            {
                type            constant;
                value           1;
            }
            value           
            {
                type            constant;
                value           (0 -0.7 0);
            }
        }
        value           uniform (0 -0 0);
    }
    right
    {
        type            noSlip;
    }
    inner_arc
    {
        type            noSlip;
    }
}


// ************************************************************************* //
