/*--------------------------------*- C++ -*----------------------------------*\
  =========                 |
  \\      /  F ield         | OpenFOAM: The Open Source CFD Toolbox
   \\    /   O peration     | Website:  https://openfoam.org
    \\  /    A nd           | Version:  9
     \\/     M anipulation  |
\*---------------------------------------------------------------------------*/
FoamFile
{
    format      ascii;
    class       volScalarField;
    location    "1.24";
    object      p;
}
// * * * * * * * * * * * * * * * * * * * * * * * * * * * * * * * * * * * * * //

dimensions      [0 2 -2 0 0 0 0];

internalField   nonuniform List<scalar> 
1655
(
14.7297
14.7096
14.6742
14.7446
14.7763
14.7698
14.6697
14.7703
14.7453
14.7754
14.735
14.7335
14.7745
14.6852
14.7282
14.6163
14.6337
14.7399
14.7614
14.6851
14.6105
14.7449
14.7759
14.7778
14.7301
14.6293
14.6145
14.752
14.7562
14.6048
14.6598
14.6836
14.6668
14.6881
14.7387
14.6916
14.7698
14.7084
14.6681
14.7101
14.6094
14.778
14.675
14.7569
14.7
14.7435
14.7433
14.6997
14.7724
14.678
14.7686
14.678
14.7303
14.75
14.7468
14.7214
14.6107
14.7362
14.7404
14.7202
14.6617
14.7654
14.7284
14.768
14.7506
14.6628
14.7451
14.7376
14.7379
14.7794
14.7376
14.6675
14.6091
14.7314
14.6762
14.695
14.7591
14.7363
14.6105
14.6065
14.7491
14.6964
14.7447
14.7554
14.6089
14.7285
14.6763
14.6084
14.7161
14.7249
14.7269
14.6774
14.76
14.7738
14.6895
14.7618
14.746
14.7409
14.6855
14.6374
14.6767
14.7473
14.7743
14.7472
14.7408
14.7656
14.7651
14.6042
14.6351
14.7207
14.6488
14.7342
14.7169
14.6114
14.7676
14.7295
14.7671
14.742
14.7176
14.742
14.7122
14.6825
14.6691
14.7398
14.7459
14.7749
14.6779
14.6894
14.619
14.6141
14.7686
14.6451
14.7683
14.7754
14.6055
14.7112
14.7769
14.7316
14.6098
14.7442
14.7239
14.6149
14.6191
14.6871
14.6384
14.6804
14.6938
14.7106
14.7021
14.653
14.6606
14.6458
14.6745
14.6677
14.7299
14.6787
14.752
14.6962
14.7661
14.7494
14.6962
14.7171
14.7507
14.6925
14.6882
14.7394
14.752
14.771
14.7472
14.7358
14.633
14.7503
14.7032
14.7597
14.6076
14.7618
14.7702
14.7334
14.6196
14.6859
14.725
14.7493
14.7689
14.7413
14.7047
14.6277
14.6975
14.6246
14.7421
14.7511
14.7028
14.7641
14.7446
14.6763
14.6377
14.6048
14.7438
14.6338
14.7162
14.7499
14.7435
14.7437
14.6729
14.6663
14.7284
14.6133
14.6718
14.7435
14.618
14.6839
14.693
14.6817
14.7101
14.7723
14.6857
14.7439
14.6905
14.7181
14.6874
14.7513
14.6991
14.6104
14.6711
14.7551
14.6691
14.6487
14.6463
14.7291
14.6824
14.6836
14.6883
14.675
14.6776
14.7365
14.6693
14.6855
14.6444
14.7443
14.6395
14.6721
14.7296
14.7042
14.6761
14.6061
14.7535
14.6073
14.652
14.7537
14.6352
14.7534
14.7573
14.6061
14.7382
14.6875
14.6724
14.693
14.6365
14.7549
14.7337
14.6748
14.7102
14.6174
14.6511
14.6814
14.7375
14.7676
14.6777
14.6826
14.6639
14.6829
14.7309
14.7378
14.704
14.6201
14.7342
14.7383
14.6492
14.7534
14.7437
14.6996
14.7466
14.7673
14.7362
14.7307
14.7296
14.7402
14.7468
14.6522
14.6762
14.7396
14.7416
14.608
14.6822
14.7525
14.7465
14.6626
14.7697
14.6879
14.607
14.6247
14.6521
14.7754
14.7752
14.6642
14.6492
14.7446
14.6526
14.6289
14.7459
14.6544
14.7392
14.6391
14.6252
14.7076
14.7665
14.7473
14.608
14.7475
14.6531
14.6427
14.7477
14.6842
14.655
14.6664
14.6555
14.7422
14.7416
14.7663
14.6332
14.7399
14.6771
14.7476
14.6874
14.6269
14.7436
14.6375
14.7423
14.681
14.658
14.7428
14.6461
14.6665
14.7344
14.6782
14.7293
14.6683
14.6845
14.6563
14.6461
14.6183
14.7799
14.7315
14.6801
14.6615
14.7512
14.6588
14.66
14.6629
14.7493
14.6452
14.727
14.6786
14.7506
14.6903
14.6929
14.7275
14.6274
14.7815
14.7501
14.683
14.702
14.6639
14.6975
14.6667
14.7806
14.7467
14.7438
14.7703
14.6878
14.6554
14.691
14.6962
14.7705
14.6893
14.6537
14.7528
14.6657
14.7507
14.7368
14.6423
14.6128
14.732
14.7459
14.7542
14.6709
14.6714
14.658
14.7408
14.754
14.7577
14.6614
14.6888
14.6975
14.7657
14.7349
14.6705
14.7531
14.7289
14.7068
14.7402
14.7793
14.6944
14.6833
14.7387
14.6739
14.6917
14.7549
14.6729
14.6828
14.6708
14.7591
14.6927
14.7
14.6641
14.6828
14.6448
14.6763
14.6695
14.6311
14.7251
14.6471
14.7086
14.6768
14.7763
14.6894
14.7082
14.6866
14.7249
14.7782
14.6984
14.6177
14.672
14.7297
14.6639
14.6773
14.7026
14.7259
14.7412
14.7237
14.7355
14.72
14.7187
14.7129
14.6848
14.7183
14.6806
14.7533
14.6706
14.7269
14.7058
14.7055
14.6734
14.7006
14.7236
14.7617
14.772
14.6781
14.6703
14.6769
14.7068
14.7113
14.6907
14.6862
14.7336
14.7199
14.7127
14.7166
14.7153
14.6772
14.6997
14.6511
14.7378
14.6793
14.7086
14.7159
14.6824
14.7055
14.7009
14.7321
14.6839
14.718
14.7174
14.6867
14.7344
14.7291
14.7115
14.6507
14.6969
14.7103
14.7315
14.7335
14.718
14.6968
14.7276
14.6465
14.7324
14.7028
14.7312
14.7253
14.7066
14.7639
14.7313
14.7447
14.7177
14.6985
14.734
14.7264
14.7173
14.6557
14.6612
14.6923
14.6883
14.7138
14.7248
14.6567
14.6881
14.7351
14.7301
14.7221
14.6996
14.7363
14.7148
14.7234
14.7459
14.7698
14.712
14.7762
14.7346
14.7494
14.7433
14.7615
14.6711
14.766
14.7448
14.7186
14.7727
14.728
14.7462
14.7215
14.754
14.7383
14.7281
14.6356
14.734
14.7245
14.6508
14.6827
14.7215
14.7366
14.7105
14.7165
14.7412
14.6848
14.6987
14.7591
14.6655
14.7155
14.6767
14.7011
14.6989
14.7186
14.7115
14.6896
14.7467
14.7042
14.7178
14.7302
14.7263
14.6601
14.7031
14.7358
14.7369
14.7548
14.6706
14.7393
14.738
14.6954
14.6957
14.7313
14.6952
14.7232
14.6971
14.6993
14.7022
14.6955
14.6652
14.7171
14.7056
14.7058
14.7059
14.7099
14.6569
14.6883
14.7091
14.6493
14.6418
14.6761
14.7147
14.6127
14.6706
14.7239
14.7293
14.6229
14.6635
14.6963
14.7145
14.6557
14.7347
14.6895
14.6758
14.6605
14.699
14.6523
14.6941
14.6989
14.7435
14.6999
14.7016
14.704
14.7321
14.7008
14.7279
14.707
14.7414
14.733
14.7106
14.7381
14.7374
14.7274
14.7148
14.7326
14.6911
14.7006
14.737
14.7319
14.763
14.7234
14.7402
14.7273
14.6323
14.7146
14.7213
14.7056
14.7172
14.7173
14.7275
14.7089
14.7159
14.7067
14.6664
14.7217
14.7095
14.7364
14.7146
14.6966
14.7049
14.7437
14.7334
14.7385
14.7261
14.7043
14.7129
14.7423
14.7336
14.7409
14.7351
14.7284
14.7535
14.6993
14.7449
14.7221
14.7151
14.734
14.6995
14.7307
14.6569
14.7356
14.725
14.7194
14.7191
14.7306
14.7387
14.7535
14.7233
14.7267
14.721
14.7437
14.7099
14.7273
14.7312
14.706
14.7285
14.7222
14.7337
14.7329
14.7394
14.7426
14.7058
14.7247
14.7183
14.6545
14.722
14.647
14.7089
14.7095
14.7337
14.7466
14.7397
14.7069
14.6289
14.7194
14.7276
14.7397
14.7094
14.7669
14.6537
14.727
14.7459
14.7227
14.7447
14.6349
14.7579
14.7318
14.7235
14.7578
14.7453
14.7308
14.7372
14.7322
14.7407
14.6612
14.7617
14.7259
14.6501
14.724
14.7274
14.733
14.7229
14.7455
14.7367
14.7346
14.7443
14.7179
14.6292
14.639
14.7551
14.7501
14.7357
14.7097
14.7551
14.6448
14.6431
14.7374
14.7539
14.7139
14.7419
14.7388
14.6504
14.738
14.7162
14.6409
14.7471
14.7515
14.7097
14.7106
14.7171
14.7213
14.7302
14.7245
14.7255
14.7411
14.7403
14.7397
14.7388
14.716
14.7201
14.7589
14.7148
14.7345
14.7145
14.7513
14.6359
14.7292
14.7254
14.7485
14.6649
14.7082
14.7276
14.7593
14.7475
14.7617
14.7577
14.7534
14.7502
14.7047
14.7103
14.7433
14.7654
14.6407
14.7591
14.7123
14.7051
14.6396
14.7577
14.716
14.6448
14.7503
14.7436
14.7549
14.6327
14.7293
14.7505
14.7108
14.7669
14.7261
14.6439
14.7396
14.7195
14.7453
14.7443
14.7244
14.7502
14.7324
14.7456
14.7428
14.7454
14.7461
14.7372
14.7612
14.7487
14.741
14.7399
14.6353
14.7626
14.763
14.7451
14.6326
14.7479
14.7111
14.7451
14.7371
14.6215
14.7183
14.7373
14.749
14.763
14.7143
14.7432
14.7304
14.7373
14.7616
14.7231
14.7219
14.6424
14.7434
14.7417
14.7655
14.736
14.7393
14.7262
14.7309
14.7536
14.7697
14.7407
14.7346
14.7137
14.7441
14.7114
14.7199
14.6221
14.7364
14.7711
14.6259
14.7141
14.7553
14.7289
14.754
14.7385
14.733
14.755
14.766
14.7498
14.6367
14.7426
14.7695
14.6783
14.7501
14.7215
14.7487
14.7511
14.7514
14.7377
14.7106
14.7548
14.7705
14.7492
14.7467
14.767
14.755
14.7102
14.7506
14.6364
14.626
14.7702
14.7664
14.7476
14.7511
14.6245
14.7541
14.7133
14.7226
14.7702
14.7494
14.7234
14.7485
14.7508
14.7544
14.7075
14.7498
14.7708
14.7552
14.6933
14.7559
14.767
14.7674
14.7084
14.7436
14.7463
14.683
14.7214
14.7511
14.6346
14.7534
14.7145
14.7276
14.7503
14.6983
14.7538
14.6904
14.7709
14.7679
14.7498
14.7228
14.7393
14.6694
14.6608
14.7254
14.7337
14.7327
14.7412
14.757
14.7304
14.7517
14.7304
14.6204
14.6578
14.7337
14.7358
14.6282
14.6799
14.6462
14.7555
14.6768
14.7499
14.7735
14.7717
14.6829
14.7681
14.7476
14.7579
14.7675
14.7475
14.6721
14.6295
14.6966
14.7685
14.7072
14.7505
14.7091
14.7576
14.702
14.7445
14.7742
14.7172
14.7067
14.7524
14.6282
14.7513
14.7467
14.7737
14.7741
14.769
14.7038
14.7747
14.7531
14.7698
14.7128
14.7528
14.6741
14.6935
14.6859
14.7723
14.7691
14.6887
14.7454
14.7715
14.7521
14.6998
14.6897
14.7001
14.7612
14.665
14.7316
14.7652
14.6893
14.6806
14.7663
14.6974
14.7538
14.7032
14.6615
14.6172
14.6237
14.681
14.6861
14.6821
14.7355
14.7367
14.6958
14.7729
14.699
14.6543
14.7573
14.7706
14.6931
14.6817
14.6431
14.7625
14.7419
14.6757
14.6732
14.6786
14.6986
14.6781
14.623
14.7277
14.6965
14.757
14.7365
14.7471
14.7418
14.6307
14.7592
14.6839
14.6193
14.7024
14.6935
14.7746
14.7628
14.7587
14.7618
14.6934
14.6961
14.7634
14.7572
14.6856
14.7565
14.6191
14.6574
14.7464
14.7328
14.6408
14.7656
14.7589
14.7561
14.619
14.7574
14.7382
14.7396
14.6597
14.7399
14.6161
14.7608
14.7582
14.7447
14.7602
14.756
14.762
14.7385
14.7025
14.7384
14.7665
14.7573
14.7413
14.7321
14.7589
14.763
14.6157
14.7571
14.7015
14.7629
14.7125
14.764
14.6845
14.7655
14.6868
14.6801
14.7607
14.7341
14.7585
14.7092
14.6743
14.7035
14.743
14.7613
14.7296
14.7563
14.6904
14.6943
14.7646
14.762
14.6083
14.6777
14.6851
14.7576
14.7344
14.693
14.7631
14.6761
14.745
14.7553
14.6716
14.6202
14.7439
14.7616
14.7635
14.7494
14.7591
14.7359
14.6851
14.6873
14.7649
14.7407
14.6883
14.7426
14.7614
14.7546
14.6882
14.7426
14.6052
14.6749
14.668
14.6657
14.7358
14.7485
14.691
14.6838
14.6839
14.6886
14.7644
14.7602
14.7558
14.7458
14.6646
14.7631
14.6885
14.604
14.7581
14.6543
14.7597
14.7591
14.6836
14.7435
14.7392
14.7484
14.6296
14.6937
14.6284
14.7342
14.7586
14.6475
14.7014
14.6884
14.7619
14.6234
14.6343
14.7368
14.7627
14.6869
14.7618
14.7594
14.7087
14.7297
14.6136
14.6969
14.6571
14.7769
14.6386
14.6241
14.6829
14.7058
14.6665
14.6387
14.6977
14.6602
14.6334
14.6277
14.6944
14.6956
14.754
14.7624
14.7578
14.6844
14.6707
14.6069
14.7724
14.7172
14.6898
14.6725
14.6215
14.7597
14.6929
14.7657
14.7693
14.6632
14.7669
14.7482
14.6162
14.6275
14.6971
14.6639
14.693
14.6877
14.7632
14.7709
14.6509
14.7711
14.6046
14.7317
14.6325
14.7411
14.6587
14.6607
14.6908
14.7145
14.7383
14.6741
14.6514
14.7659
14.6058
14.6383
14.6674
14.6459
14.6641
14.6445
14.6982
14.7009
14.6882
14.6925
14.6931
14.7317
14.6329
14.7396
14.7405
14.6508
14.6842
14.7026
14.6268
14.7427
14.7085
14.7395
14.6174
14.6442
14.7417
14.7698
14.7769
14.7181
14.6649
14.6518
14.6565
14.7076
14.7497
14.744
14.7044
14.7457
14.7452
14.7408
14.6073
14.7383
14.7385
14.6225
14.7538
14.7148
14.7648
14.7741
14.775
14.7223
14.7775
14.7485
14.7786
14.7064
14.6088
14.7789
14.7391
14.6271
14.7675
14.7425
14.7494
14.7406
14.7245
14.7561
14.7382
14.742
14.7134
14.6534
14.7427
14.7393
14.7659
14.7326
14.7459
14.6653
14.7508
14.7419
14.6723
14.6425
14.7367
14.7602
14.7552
14.7333
14.7689
14.7703
14.7505
14.7354
14.7624
14.7666
14.7715
14.7649
14.729
14.7524
14.7363
14.759
14.7565
14.7324
14.7678
14.7714
14.7516
14.7301
14.7364
14.7638
14.7047
14.7459
14.6559
14.6134
14.7809
14.7802
14.7469
14.7053
14.6134
14.6134
14.6817
14.6183
14.6434
14.7193
14.7243
14.7268
14.756
14.6764
14.6967
14.746
14.7135
14.7809
14.7191
14.6943
14.7566
14.6116
14.6282
14.7298
14.7664
14.7046
14.7431
14.7257
14.7205
14.621
14.6503
14.6456
14.6863
14.7579
14.7313
14.7794
14.6848
14.7599
14.7015
14.7455
14.6995
14.7237
14.7576
14.7309
14.7334
14.775
14.6552
14.7281
14.7629
14.6224
14.612
14.6262
14.7651
14.7756
14.6918
14.769
14.637
14.7393
14.6925
14.6885
14.6433
14.7758
14.7743
14.7007
14.6982
14.7784
14.6677
14.7263
14.7222
14.7193
14.694
14.6963
14.6815
14.7388
14.743
14.7127
14.7415
14.7418
14.7359
14.694
14.6897
14.6906
14.7409
14.74
14.7619
14.6118
14.7173
14.7472
14.7146
14.7499
14.6043
14.6782
14.7358
14.7722
14.7484
14.762
14.7727
14.7308
14.7789
14.772
14.6815
14.7733
14.7316
14.6043
14.7381
14.6874
14.6862
14.6841
14.7839
14.7776
14.6298
14.7455
14.7451
14.684
14.703
14.7406
14.7285
14.7054
14.7764
14.6198
14.7443
14.7751
14.7293
14.6905
14.7435
14.6145
14.701
14.7286
14.6854
14.7614
14.7808
14.7805
14.7801
14.7776
14.7732
14.778
14.7791
14.7754
14.7771
14.7452
14.746
14.7314
14.7174
14.7775
14.7224
14.7459
14.7455
14.7593
14.7446
14.7399
14.7745
14.6396
14.6544
14.6878
14.7468
14.7206
14.7446
14.6949
14.7748
14.6139
14.7151
14.7209
14.6994
14.6407
14.7484
14.7247
14.711
14.6808
14.714
14.7435
14.6951
14.7226
14.7415
14.7305
14.7429
14.6806
14.7487
14.7719
14.7594
14.7074
14.7224
14.7738
14.7695
14.7324
14.6567
14.6884
14.7119
14.7476
14.7573
14.7783
14.6999
14.6918
14.655
14.7634
14.7742
14.687
14.7779
14.6337
14.764
14.7302
14.7464
14.7749
14.6904
14.7419
14.7424
14.7323
14.7743
14.685
14.6208
14.7767
14.7266
14.7656
14.7601
14.7801
14.7484
14.7041
14.6941
14.7405
14.707
14.6482
14.7454
14.6918
14.6794
14.7424
14.7526
14.7824
14.7148
14.6809
14.6834
14.6472
14.7432
14.7319
14.7346
14.744
14.6043
14.7659
14.7372
14.7655
14.7677
14.7402
14.7783
14.636
14.6643
14.7306
14.7546
14.7678
14.6617
14.7278
14.7054
14.7243
14.7431
14.7325
14.6844
14.7278
14.6867
14.7778
14.6238
14.7475
14.7159
14.7044
14.6821
14.7182
14.7803
14.7731
14.6839
14.7712
14.7457
14.742
14.7452
14.7765
14.6821
14.7241
14.7528
14.7217
14.6836
14.726
14.7611
14.6829
14.7201
14.7289
14.6877
14.7786
14.72
14.7134
14.6601
14.7007
14.7417
14.6381
14.7076
14.6438
14.7793
14.741
)
;

boundaryField
{
    back
    {
        type            empty;
    }
    front
    {
        type            empty;
    }
    top
    {
        type            zeroGradient;
    }
    outer_arc
    {
        type            zeroGradient;
    }
    bottom
    {
        type            uniformFixedValue;
        uniformValue    
        {
            type            table;
            format          csv;
            file            "outlet_p.csv";
            nHeaderLine     1;
            refColumn       0;
            componentColumns List<label> 1(1);
            separator       ",";
            mergeSeparators 0;
        }
        value           uniform 14.74;
    }
    inner_arc
    {
        type            zeroGradient;
    }
}


// ************************************************************************* //
