/*--------------------------------*- C++ -*----------------------------------*\
  =========                 |
  \\      /  F ield         | OpenFOAM: The Open Source CFD Toolbox
   \\    /   O peration     | Website:  https://openfoam.org
    \\  /    A nd           | Version:  9
     \\/     M anipulation  |
\*---------------------------------------------------------------------------*/
FoamFile
{
    format      ascii;
    class       volScalarField;
    location    "0.95";
    object      p;
}
// * * * * * * * * * * * * * * * * * * * * * * * * * * * * * * * * * * * * * //

dimensions      [0 2 -2 0 0 0 0];

internalField   nonuniform List<scalar> 
464
(
3.54902e-22
-1.11595e-21
-1.03026e-21
-1.02092e-21
-1.27956e-21
-1.03232e-21
1.81812e-23
-1.02271e-21
-2.66563e-22
-1.58985e-22
3.1649e-22
1.17069e-21
-3.76292e-23
1.01898e-21
-2.80864e-22
-2.34571e-23
-8.30544e-22
6.00331e-22
-1.02969e-21
-8.48135e-22
-7.87414e-22
-9.4934e-22
-9.53932e-22
-1.02171e-21
-1.02937e-21
-1.02073e-21
3.07021e-22
-1.01773e-21
1.00405e-21
-9.9139e-22
-9.94813e-22
-5.68206e-22
-8.25073e-22
-8.51096e-22
-4.53092e-22
-7.75049e-22
-1.47729e-21
-1.03525e-21
-9.93807e-22
-3.03643e-22
-7.75717e-22
-8.97133e-22
-9.41548e-22
6.52094e-22
1.34803e-21
-1.26705e-21
-9.71007e-22
-9.56776e-22
-1.0101e-21
-1.05688e-21
-6.12044e-22
-9.98793e-22
-9.65598e-22
-8.75111e-22
-8.78414e-22
-9.92224e-22
-9.80127e-22
-7.24797e-22
-7.64721e-22
-8.87749e-22
-1.00301e-21
-7.76068e-22
-6.07459e-22
-8.12721e-22
-4.86256e-22
-8.92166e-22
-6.03236e-22
-1.02391e-21
6.75261e-22
-8.54388e-22
-7.02039e-22
-6.59581e-22
4.6601e-22
-9.68433e-22
-5.25667e-22
-9.9031e-22
-6.96764e-22
1.41764e-22
-7.69507e-22
7.58454e-22
-1.04852e-21
-1.02619e-21
-1.70695e-21
-1.0234e-21
-1.13534e-21
-6.73254e-22
-6.15096e-22
-1.02423e-21
-1.0071e-21
-5.32521e-22
-1.01988e-21
-8.08103e-22
-5.49584e-22
8.08838e-22
-4.6232e-22
-7.65371e-22
-8.06845e-22
-1.02795e-21
-8.30089e-22
-3.56736e-22
-1.01583e-21
-9.39764e-22
-1.00649e-21
-5.10831e-22
-8.52809e-22
-1.64893e-21
-1.02908e-21
-6.30316e-22
-1.00843e-21
-9.08939e-22
-4.52423e-22
-9.56734e-22
-4.4865e-22
-7.37634e-22
-1.00316e-21
-1.00317e-21
-1.45471e-21
-1.00637e-21
-9.19068e-22
-1.00801e-21
-9.28748e-22
-2.76336e-22
-4.903e-22
2.88321e-22
-7.09498e-22
-4.64758e-22
-3.00728e-22
-3.82944e-22
-8.77664e-22
-1.59001e-21
-1.02002e-21
5.65612e-22
-1.00051e-21
-9.88301e-22
-9.57439e-22
-1.22406e-21
-9.94976e-22
-1.01141e-21
-2.25957e-22
-9.13278e-22
-9.55439e-22
-5.43399e-22
-6.55888e-22
-1.00337e-21
-9.80341e-22
-5.94597e-22
-9.86448e-22
-1.01204e-21
-8.30658e-22
-8.90134e-22
-9.63528e-22
-9.84225e-22
-2.04696e-22
-4.36762e-22
-1.0947e-21
-9.1731e-22
-5.19828e-22
-9.54463e-22
-3.67279e-22
-9.37558e-22
-2.92244e-22
-9.36156e-22
-4.54242e-22
-9.70636e-22
-9.46853e-22
-9.65697e-22
-2.52501e-22
-7.78803e-22
-4.64305e-22
-3.85763e-22
-3.30705e-22
-7.88494e-22
-5.90527e-22
-9.39466e-22
-4.16989e-22
-3.98913e-22
-9.23417e-22
-9.29972e-22
-1.70551e-22
-4.94797e-22
-9.36832e-22
-4.52614e-22
-3.25449e-22
5.88458e-22
-3.22866e-22
-1.3893e-21
-4.16946e-22
-3.90797e-22
-5.04441e-22
-3.32768e-22
-9.10211e-22
-3.32841e-22
-9.59781e-22
-9.31483e-22
-7.7078e-22
-7.55192e-22
-7.76362e-22
-9.07767e-22
-1.26566e-21
-8.51877e-22
-8.84468e-22
-7.75608e-22
-8.91344e-22
-7.96016e-22
-3.62324e-22
-9.45102e-22
-8.47985e-22
-8.00911e-22
-7.8514e-22
-7.19918e-22
-9.49893e-22
-4.73653e-22
-1.01947e-21
-4.5133e-22
-1.14798e-21
-3.52871e-22
8.53362e-22
-9.26611e-22
2.76156e-22
-7.52118e-22
1.55754e-21
-8.18909e-22
-8.18883e-22
-8.54025e-22
-9.12323e-22
-9.18747e-22
-8.72342e-22
-7.99321e-22
-8.90307e-22
-8.08082e-22
-7.96708e-22
-7.00172e-22
-6.78764e-22
-6.33863e-22
-7.15616e-22
-7.32265e-22
-9.48265e-22
-4.65477e-22
-6.68162e-22
-1.42107e-21
-5.47554e-22
-6.74829e-22
-7.12938e-22
-4.34847e-22
-3.63212e-22
-2.23126e-21
-2.8995e-22
-8.27706e-22
-1.16425e-21
-1.13222e-21
-2.59394e-23
-2.19134e-21
-5.82199e-22
-4.9495e-22
-3.91698e-22
-2.13752e-22
-9.53349e-22
-1.26856e-21
-2.33821e-22
-3.35696e-22
-2.65874e-22
-5.73206e-22
-6.4385e-22
-4.82778e-22
-5.82456e-22
-2.18537e-22
-4.93809e-22
-9.90396e-22
-7.91966e-22
-1.7518e-22
-9.16267e-22
-3.93811e-22
-3.83109e-22
-9.99641e-22
-3.54481e-22
-4.32963e-22
-2.9214e-22
-7.20033e-22
-6.58147e-22
-6.91668e-22
-5.03409e-22
-9.94079e-22
-7.00843e-22
-9.93589e-22
-2.778e-22
-5.12541e-22
-5.89223e-22
-4.60558e-22
-9.8092e-22
-4.07533e-22
-4.71543e-22
-2.48553e-22
-9.84324e-22
-9.01296e-22
-7.21102e-22
-5.86993e-22
-4.95682e-22
-3.66978e-22
-4.09634e-22
-6.226e-22
-2.14378e-22
-1.36873e-22
2.64919e-22
9.76751e-22
-1.16165e-21
-6.39632e-22
-5.9745e-22
-1.30902e-21
-8.39716e-22
-3.89207e-22
-8.33474e-22
-9.92472e-22
-7.6215e-22
-2.61709e-22
-4.8887e-22
-5.09087e-22
-5.96041e-22
-6.81031e-22
-1.03091e-21
-4.4936e-22
-9.77793e-22
-4.66428e-22
-7.52518e-22
-3.82838e-22
-2.01267e-22
-9.75769e-22
-1.00686e-21
-3.02088e-22
-9.84411e-22
-6.27245e-22
-8.87897e-22
-3.93119e-22
-1.03209e-21
-6.77314e-22
-8.12171e-22
-9.06914e-22
-9.68231e-22
-1.02127e-21
-4.11518e-22
-8.36859e-22
-1.00828e-21
7.42828e-22
-5.60236e-22
-6.39585e-22
-5.34036e-22
-1.03149e-21
-9.91505e-22
-6.13645e-22
-1.03437e-21
-7.96291e-22
-9.29272e-22
-1.02003e-21
-5.05389e-22
-5.56804e-22
-9.3422e-22
-7.1227e-22
-1.03234e-21
-1.55366e-21
-1.03015e-21
-1.07941e-21
-1.03255e-21
2.19972e-23
-1.03204e-21
-1.02639e-21
3.97366e-22
-1.01894e-21
-1.01464e-21
-1.74804e-21
1.71793e-21
-1.00078e-21
-1.01906e-21
-1.13293e-23
-9.70662e-23
-2.3751e-21
-5.67517e-22
-1.02112e-21
8.95701e-22
-8.86637e-22
1.33864e-21
-9.76639e-22
8.52721e-22
-9.54744e-22
-1.07612e-21
-3.57224e-22
-1.06883e-22
-2.89327e-22
-2.53218e-22
-1.02219e-21
1.59858e-21
4.94436e-22
-7.88471e-22
-8.84502e-22
-1.56824e-21
-1.23316e-21
-9.313e-22
-9.25461e-22
-9.43246e-22
-9.71364e-22
-8.18715e-22
4.82278e-22
-6.32208e-22
-1.03291e-21
9.41987e-22
-9.62974e-22
1.48816e-23
4.57765e-22
1.37055e-21
-9.74372e-22
7.28246e-22
-9.57931e-22
-3.09673e-22
-1.05891e-21
-1.03028e-21
-1.00349e-21
-1.03204e-21
-5.36898e-22
1.95799e-21
-1.0707e-21
-1.03232e-21
-7.71654e-22
-1.05189e-21
-1.03471e-21
7.10605e-22
-8.43682e-22
6.41317e-22
1.15508e-22
1.63453e-21
1.13717e-21
1.42139e-21
-1.65731e-21
-1.03027e-21
-3.02579e-22
-9.94417e-22
-1.0113e-21
-5.11518e-23
2.43379e-21
1.60588e-21
-9.94864e-22
1.81001e-21
-9.8708e-22
-7.70552e-22
-1.53448e-21
-9.45482e-22
-9.60527e-22
-9.63771e-22
-9.45518e-22
-9.51755e-22
-8.39045e-22
-9.40771e-22
-6.20789e-22
-4.05946e-22
1.54851e-22
-1.23234e-21
-1.01093e-21
-6.85755e-22
-1.32435e-21
-2.20782e-21
-1.03457e-21
-1.06672e-21
-1.07823e-21
-9.70286e-22
1.74856e-21
1.14629e-21
-1.0062e-21
)
;

boundaryField
{
    back
    {
        type            empty;
    }
    front
    {
        type            empty;
    }
    left
    {
        type            zeroGradient;
    }
    top
    {
        type            zeroGradient;
    }
    right
    {
        type            zeroGradient;
    }
    bottom
    {
        type            uniformFixedValue;
        uniformValue    
        {
            type            scale;
            scale           
            {
                type            squarePulse;
                start           0.3;
                duration        0.3;
            }
            xScale          
            {
                type            constant;
                value           1;
            }
            value           
            {
                type            constant;
                value           15.1;
            }
        }
        value           uniform 0;
    }
}


// ************************************************************************* //
