/*--------------------------------*- C++ -*----------------------------------*\
  =========                 |
  \\      /  F ield         | OpenFOAM: The Open Source CFD Toolbox
   \\    /   O peration     | Website:  https://openfoam.org
    \\  /    A nd           | Version:  9
     \\/     M anipulation  |
\*---------------------------------------------------------------------------*/
FoamFile
{
    format      ascii;
    class       surfaceScalarField;
    location    "0.95";
    object      phi;
}
// * * * * * * * * * * * * * * * * * * * * * * * * * * * * * * * * * * * * * //

dimensions      [0 3 -1 0 0 0 0];

internalField   nonuniform List<scalar> 
663
(
-9.98798e-28
1.23192e-27
-2.25082e-28
2.84723e-28
1.29282e-27
-5.62568e-31
4.42736e-31
-2.47195e-30
2.78794e-30
-3.13724e-31
-5.77401e-28
8.47735e-28
-1.12345e-31
-1.17443e-30
-1.29406e-27
2.91997e-28
4.51023e-31
-3.84474e-30
-1.53749e-27
6.57173e-28
8.76315e-28
-1.69414e-28
-1.36214e-27
-2.37978e-28
1.46362e-27
6.86385e-28
-2.40945e-28
-4.46418e-28
-6.36874e-28
6.01815e-28
5.79104e-29
3.04865e-28
-3.82305e-28
4.11856e-29
3.69721e-28
-5.52901e-29
-8.17694e-29
-4.87937e-29
1.0877e-28
5.8914e-29
-2.33008e-29
-1.26555e-30
6.78063e-31
-1.64122e-29
2.6711e-29
-1.34881e-29
1.36531e-29
-2.3469e-29
-5.54979e-30
1.00245e-29
-4.52438e-30
9.19484e-30
-1.59161e-29
2.40302e-32
-2.27181e-30
2.00154e-30
1.07226e-30
7.19411e-31
1.36847e-30
-2.27863e-30
-8.62929e-30
-1.27832e-28
1.41168e-28
-7.51374e-30
5.35657e-30
2.45357e-30
3.37049e-28
-2.43763e-28
-2.18869e-30
-2.24711e-30
4.21707e-30
-5.33756e-30
2.62992e-30
-3.30889e-28
3.00949e-28
3.41613e-29
2.1356e-30
-3.50938e-28
2.62307e-28
-2.51705e-28
-2.73449e-29
1.63648e-28
1.30464e-28
4.0075e-29
-7.42679e-29
-3.40243e-29
-1.99291e-29
1.48276e-30
-3.69128e-30
-7.21054e-31
-6.02604e-30
-2.622e-28
-3.02573e-29
2.89047e-28
1.20776e-29
1.20553e-29
-2.13678e-29
1.37865e-29
6.62495e-30
-1.65581e-29
-2.59804e-28
1.35328e-28
-4.05354e-28
5.02987e-30
9.6596e-30
-2.58316e-29
1.59882e-29
2.72445e-29
-2.38538e-29
-3.46575e-30
3.47217e-30
-3.43344e-30
4.24355e-30
-5.42872e-30
2.95162e-29
-1.02245e-29
-8.04968e-31
1.09279e-29
2.07526e-29
4.67849e-30
-3.09053e-29
-1.92084e-29
3.57138e-29
-1.68397e-29
-5.25268e-29
3.28262e-29
6.53959e-30
-1.73234e-29
1.59095e-29
2.92721e-29
1.2889e-29
-4.34741e-29
-2.63079e-29
5.07161e-29
3.59342e-29
3.16775e-30
2.24384e-30
7.04546e-30
5.00649e-28
-5.08186e-28
4.7107e-29
6.70269e-29
-1.13479e-28
-2.75497e-29
2.40834e-29
4.26336e-30
-9.90627e-28
8.17029e-28
2.65416e-29
8.87762e-30
-6.72317e-29
5.4399e-30
6.23654e-29
-6.70345e-30
-6.78597e-28
-1.12409e-29
-4.15192e-29
-4.51637e-29
2.07805e-29
-9.92379e-28
3.13061e-28
-1.55269e-30
1.13448e-29
1.56302e-29
-4.22255e-29
3.68089e-28
-3.25932e-28
4.39896e-30
-9.41815e-29
2.45084e-29
-1.24169e-27
1.01365e-27
3.32901e-29
-2.11895e-29
-4.09101e-29
3.34237e-28
6.53821e-28
-9.90934e-28
-3.04598e-30
1.06585e-30
1.81238e-30
1.86529e-28
-2.66079e-28
7.454e-29
2.54844e-31
2.07867e-30
-2.52722e-30
5.01826e-28
6.16253e-29
-2.01244e-29
7.2536e-28
-2.29195e-28
-4.4727e-30
5.40949e-30
-6.4253e-30
9.53639e-31
-3.94652e-28
3.51897e-28
-1.40124e-29
-3.51987e-28
2.27902e-28
-6.31828e-29
-1.66726e-28
-3.62002e-28
-5.96035e-28
9.49017e-28
1.26808e-28
1.05556e-28
-4.06202e-29
2.63372e-30
-2.75707e-30
2.71783e-30
2.30613e-29
1.41876e-28
-1.65589e-28
5.235e-28
-1.15989e-27
-1.81228e-31
4.30067e-30
1.1128e-29
-3.54468e-29
-6.36064e-30
5.60992e-30
8.58519e-29
2.30632e-28
-1.78455e-28
-2.74978e-28
1.27329e-30
1.38678e-28
-1.35643e-28
-1.1695e-28
1.06442e-28
2.33153e-29
-4.46047e-29
2.11556e-29
2.02912e-28
1.09864e-28
-3.10855e-28
-1.4846e-29
9.25825e-29
-3.11946e-28
3.29922e-28
-1.04979e-30
-6.35956e-30
1.48205e-30
-8.66881e-30
-5.67812e-29
-6.73839e-29
-7.39367e-31
4.11453e-30
-3.57103e-30
1.40244e-28
3.9348e-30
-5.55966e-30
3.37215e-29
-4.01758e-28
9.19056e-28
3.87326e-28
3.32367e-28
-5.56047e-28
8.49885e-28
9.22492e-30
3.75927e-28
-1.71377e-28
7.23562e-28
-3.33166e-28
-1.79281e-28
2.93216e-28
3.07181e-29
1.49604e-28
7.34991e-30
-1.81071e-29
-8.71942e-30
1.01488e-29
2.44299e-30
-4.09031e-30
1.56747e-30
-7.35174e-29
-4.31314e-30
-4.07458e-30
6.19637e-30
-8.83376e-32
-8.26387e-31
3.54278e-30
-1.63926e-30
-1.86416e-28
5.15333e-29
-2.85615e-29
-1.10463e-29
-3.31109e-30
-1.00458e-30
8.98086e-30
3.59219e-28
4.97648e-30
-1.43866e-29
-9.39804e-31
3.57771e-29
-1.17125e-29
7.80795e-30
-6.43411e-30
-1.18815e-29
1.69974e-29
4.75021e-30
5.30739e-30
-6.13311e-29
3.07839e-28
-2.43905e-28
2.8718e-28
9.1617e-29
6.49022e-29
3.38863e-30
-3.47756e-30
8.30525e-29
-1.29036e-28
8.36677e-30
-2.07318e-29
3.29179e-28
3.26437e-28
-2.29658e-28
6.82843e-29
-1.23581e-28
5.53573e-29
-1.43311e-29
2.25205e-29
2.75386e-29
-3.53117e-28
3.41575e-30
-1.19845e-29
1.78587e-29
1.42667e-29
5.37045e-29
1.37731e-29
-1.53251e-29
-2.77414e-29
3.68151e-28
-3.19517e-28
-1.35339e-28
1.34975e-28
-9.85273e-29
-3.53094e-29
8.63643e-29
-1.62042e-28
1.72188e-28
5.30429e-30
1.63801e-28
3.58588e-29
-2.16909e-28
1.16827e-29
-2.58187e-29
2.54077e-29
-1.52651e-29
-3.37566e-28
2.69934e-28
-7.68618e-29
-1.1463e-28
2.05566e-28
-9.31141e-31
2.62703e-29
2.5396e-29
3.89861e-29
-6.54177e-29
2.3679e-29
-2.37858e-29
6.95642e-30
1.56087e-28
-1.832e-28
-1.11822e-28
4.73268e-30
2.65041e-29
-2.05287e-30
2.72061e-29
-6.14419e-29
9.74298e-29
3.17147e-29
1.37411e-29
-4.593e-29
6.112e-29
-3.28627e-29
-1.44588e-29
1.43957e-29
-4.39111e-30
5.65945e-30
4.60269e-29
5.33888e-29
-4.75751e-29
2.91698e-29
4.20038e-29
-5.34191e-29
-4.6234e-30
5.46809e-29
-3.35478e-31
-2.48134e-29
2.00839e-29
4.98843e-29
5.5835e-30
-1.90487e-29
-2.45269e-29
-2.71641e-29
2.71467e-29
-2.8875e-29
-1.48083e-30
-6.93733e-30
-3.61489e-29
4.30447e-29
8.58957e-30
-1.32534e-28
-1.04138e-28
1.02667e-28
-2.92892e-29
3.50998e-29
3.63982e-30
1.95783e-29
1.20108e-29
-1.36126e-29
2.43796e-29
9.69336e-30
5.57717e-30
1.06769e-29
-1.55798e-29
-8.62011e-30
1.82445e-29
8.665e-32
3.66452e-30
2.74189e-29
-1.37804e-29
3.55559e-29
-1.03033e-29
-5.89678e-29
1.98066e-29
-3.49188e-29
-1.5552e-29
2.71294e-29
-5.09457e-29
1.21507e-29
-1.65398e-29
7.93011e-29
1.63303e-29
-1.02949e-29
-3.83559e-29
-4.34542e-29
1.1038e-28
-7.98499e-29
-4.32673e-29
3.65852e-29
-7.1313e-29
-2.19803e-29
7.30704e-29
1.28955e-29
1.25941e-29
-3.73961e-29
-6.01539e-29
1.26704e-29
1.95528e-28
-1.51952e-28
-1.12885e-28
-2.13161e-28
3.84039e-29
1.69313e-28
-1.06667e-28
-1.05239e-28
1.69639e-28
8.6533e-29
2.87073e-30
-2.40549e-29
6.39475e-30
-1.16498e-28
2.4209e-28
-2.90553e-28
4.99185e-29
1.13758e-28
-2.27738e-28
-2.28038e-28
-3.51607e-29
2.61547e-28
-1.40227e-28
2.24951e-28
-2.74322e-28
3.2448e-28
-4.43309e-29
9.05404e-29
-2.39776e-28
-1.37152e-28
-9.91949e-30
4.14174e-28
-4.08099e-28
1.30576e-28
2.22825e-28
1.4068e-30
7.53871e-29
-2.09264e-28
-2.08097e-29
6.52165e-29
3.69146e-28
3.49501e-28
-1.12765e-28
1.79217e-28
2.59155e-30
2.52374e-29
-2.57235e-29
4.10891e-29
2.19831e-28
-1.62301e-28
-1.038e-29
-8.44864e-31
-3.14499e-30
-7.2052e-29
-3.14741e-28
2.32299e-28
-1.21838e-29
-1.02102e-29
-1.35132e-29
9.46101e-29
-4.30131e-28
5.61298e-30
1.03839e-28
2.90766e-28
-1.88127e-28
3.90872e-28
1.672e-29
2.99817e-29
-1.08142e-28
-3.49999e-29
1.73241e-29
-1.76244e-29
-1.03426e-28
1.34042e-28
-3.49176e-28
-1.86325e-28
-5.15214e-28
1.99102e-28
3.05696e-28
2.43224e-28
-1.09389e-29
-1.42998e-29
-3.08808e-30
-2.21451e-28
1.9195e-29
-1.63895e-28
2.60354e-28
-5.41376e-29
5.49016e-28
-2.19921e-28
9.60791e-29
-2.67664e-28
-1.67499e-28
-1.81693e-28
1.36892e-30
-1.22131e-30
1.97836e-28
-6.57626e-30
3.72045e-30
7.1671e-30
1.03076e-29
-1.02872e-29
-3.80706e-28
-7.14315e-30
-2.1858e-29
1.43753e-27
-8.98617e-28
-3.39039e-31
1.23368e-31
-4.91341e-29
4.99307e-30
-1.16698e-29
1.41745e-30
-1.29779e-30
1.12899e-29
8.81008e-31
-3.82595e-31
3.0178e-28
-1.61815e-27
3.39777e-28
2.98107e-30
2.34388e-30
4.23409e-29
-1.88124e-29
-8.05233e-30
4.26436e-28
-4.63283e-31
4.17784e-28
-5.28585e-31
5.1143e-30
1.27212e-27
4.49636e-31
-7.71228e-31
-3.59605e-28
-6.7506e-31
-1.41676e-28
8.65048e-28
-7.1618e-31
8.07943e-31
-8.97157e-29
8.36147e-29
1.45918e-28
-2.6647e-30
-1.9986e-30
7.33479e-31
7.57104e-29
-3.42376e-28
-1.22262e-28
3.81872e-29
-5.10181e-29
-1.8346e-28
8.07614e-30
1.31325e-28
4.31774e-30
-1.29037e-28
1.54008e-28
-1.921e-28
-5.68693e-29
2.73254e-29
2.64674e-28
1.854e-28
-2.35192e-30
-9.73221e-30
-3.61429e-29
2.51437e-29
9.7815e-30
-1.12484e-29
1.50236e-29
-2.08521e-29
-1.54388e-29
3.96045e-31
-7.60131e-30
-5.05943e-30
6.33318e-29
1.34699e-27
4.55671e-32
1.17761e-27
-2.41858e-31
1.07802e-27
-5.9552e-28
4.09904e-28
-4.06189e-28
-5.64727e-31
-5.91903e-28
-2.11267e-32
-9.24253e-28
-4.36529e-28
-1.06775e-30
2.26515e-30
-8.37511e-31
-2.92776e-31
8.93497e-31
1.17926e-30
4.17881e-30
1.5236e-28
2.94836e-30
7.36369e-31
-3.74958e-28
1.49461e-28
1.09343e-28
-3.39778e-30
3.65755e-29
-2.8375e-30
-5.09789e-30
-2.51202e-29
9.16006e-30
-6.67279e-30
1.21146e-30
9.81764e-31
-8.8686e-31
-1.05655e-30
)
;

boundaryField
{
    back
    {
        type            empty;
        value           nonuniform List<scalar> 0();
    }
    front
    {
        type            empty;
        value           nonuniform List<scalar> 0();
    }
    left
    {
        type            calculated;
        value           uniform 0;
    }
    top
    {
        type            calculated;
        value           uniform 0;
    }
    right
    {
        type            calculated;
        value           uniform 0;
    }
    bottom
    {
        type            calculated;
        value           nonuniform List<scalar> 8(-1.60613e-27 -5.48867e-28 1.3393e-27 -1.0181e-27 -1.36132e-27 1.01748e-27 1.57269e-27 4.88335e-28);
    }
}


// ************************************************************************* //
