/*--------------------------------*- C++ -*----------------------------------*\
  =========                 |
  \\      /  F ield         | OpenFOAM: The Open Source CFD Toolbox
   \\    /   O peration     | Website:  https://openfoam.org
    \\  /    A nd           | Version:  9
     \\/     M anipulation  |
\*---------------------------------------------------------------------------*/
FoamFile
{
    format      ascii;
    class       volVectorField;
    location    "0.95";
    object      U;
}
// * * * * * * * * * * * * * * * * * * * * * * * * * * * * * * * * * * * * * //

dimensions      [0 1 -1 0 0 0 0];

internalField   nonuniform List<vector> 
464
(
(-3.14007e-20 -1.58823e-20 2.02427e-39)
(-2.01792e-20 4.1276e-20 0)
(8.92432e-24 6.65913e-24 0)
(-5.81823e-23 5.32083e-23 6.16576e-38)
(-1.47311e-20 3.24197e-20 0)
(8.73554e-24 1.86728e-23 -1.55428e-38)
(-2.96455e-20 -8.42618e-21 1.08112e-38)
(-5.66541e-23 5.97701e-23 0)
(-3.67169e-20 1.73542e-21 2.46164e-39)
(-3.46477e-20 1.09361e-20 -1.85671e-38)
(-2.49102e-20 -2.10838e-20 1.14684e-39)
(-1.03813e-20 -1.09284e-20 -2.18289e-39)
(-3.22494e-20 -2.32076e-21 -2.06007e-38)
(-7.22696e-21 -1.24574e-20 0)
(2.38415e-22 1.20747e-20 -1.85347e-38)
(9.24183e-22 1.08254e-20 8.26313e-39)
(2.37559e-21 3.47622e-22 0)
(1.53606e-21 5.73828e-22 1.65702e-38)
(1.23414e-24 2.05184e-23 -4.69136e-38)
(-2.08372e-22 -7.82218e-22 4.74399e-38)
(-2.23181e-22 -7.70172e-22 -7.00806e-38)
(-2.4611e-22 -1.02582e-22 1.32195e-38)
(-3.72555e-22 -2.04223e-22 -7.2868e-39)
(-3.07403e-23 6.10465e-23 0)
(-3.68115e-23 4.19872e-23 -6.33257e-38)
(-3.44883e-23 7.15823e-23 2.90251e-38)
(-3.46837e-21 5.47303e-21 4.87387e-39)
(-4.86194e-23 1.71536e-22 -6.06576e-38)
(-3.61475e-21 7.48414e-21 0)
(-1.05098e-22 9.18826e-23 0)
(-1.01312e-22 7.43557e-23 3.54871e-39)
(3.23091e-21 9.66881e-21 2.44823e-40)
(2.57239e-21 1.05532e-20 -7.80918e-39)
(2.76285e-21 6.25282e-21 -3.5966e-38)
(3.51171e-21 5.39034e-21 3.62478e-38)
(1.45487e-21 9.10261e-22 6.20487e-38)
(3.00659e-22 -4.9056e-23 -6.40205e-38)
(-3.79829e-23 7.658e-23 -7.55201e-39)
(-4.46494e-23 1.81478e-22 1.27877e-39)
(1.92209e-21 8.6159e-21 0)
(8.56876e-23 -8.16434e-22 6.56152e-38)
(-2.97765e-22 -3.32968e-22 0)
(-3.93956e-22 -2.95704e-22 -1.92615e-38)
(-4.95283e-21 1.60378e-21 -5.62306e-38)
(-8.05443e-21 -2.47246e-21 5.80882e-38)
(1.19173e-21 1.08896e-20 -4.89686e-39)
(-3.47793e-22 4.54651e-22 5.61455e-38)
(-1.5418e-22 6.86207e-22 -8.52196e-40)
(-1.43595e-23 6.62017e-23 0)
(-3.39824e-23 1.23417e-22 7.31176e-39)
(7.45254e-23 -9.04244e-22 -4.09737e-38)
(-6.2591e-23 2.88593e-22 -3.73681e-39)
(-2.62051e-22 -7.47856e-22 -3.60729e-38)
(-5.36514e-22 8.18641e-22 -4.96517e-38)
(-4.47321e-22 1.17411e-21 -1.63578e-39)
(-1.35177e-22 3.94293e-22 5.86896e-38)
(-2.29469e-22 3.87641e-22 0)
(8.19664e-22 7.99964e-22 0)
(5.6627e-22 1.142e-21 -4.37435e-38)
(-4.34325e-23 -9.49701e-22 0)
(-1.12979e-23 1.01358e-22 5.8796e-38)
(-1.61599e-20 7.82086e-21 8.56686e-38)
(2.6602e-21 -4.79564e-23 7.90902e-38)
(-1.06594e-22 6.82118e-22 -4.87078e-38)
(-2.81719e-20 9.97483e-21 -1.88097e-39)
(-6.35314e-22 5.37914e-22 -5.278e-38)
(2.00322e-21 -1.10951e-21 -3.6776e-38)
(-2.54896e-23 1.82812e-22 -5.70041e-38)
(-1.8038e-20 -1.48866e-20 -2.11248e-38)
(-3.37638e-22 1.38463e-21 5.02423e-38)
(6.70013e-22 1.02781e-21 4.36529e-38)
(-2.24572e-20 1.32502e-20 -4.44176e-38)
(-1.61241e-21 1.04745e-20 0)
(-1.98001e-22 6.19457e-22 5.77661e-38)
(9.29588e-22 -1.07605e-20 -2.91927e-38)
(-8.40251e-23 2.38285e-22 5.90247e-38)
(1.98417e-21 -4.82744e-22 -3.91167e-38)
(-3.57941e-20 -1.53776e-20 -1.44089e-38)
(4.81031e-22 6.59538e-22 -4.68111e-38)
(-2.99289e-22 1.02934e-20 6.90389e-39)
(-1.39493e-20 2.0153e-20 0)
(1.2276e-23 8.17509e-23 1.48898e-38)
(-3.05485e-21 6.35969e-21 -1.0114e-37)
(1.54206e-24 8.50279e-23 6.23188e-38)
(-8.12033e-21 1.14346e-20 0)
(1.76367e-21 3.15051e-22 7.94601e-40)
(-1.58125e-20 2.81793e-21 -4.17189e-38)
(-3.96177e-24 1.1186e-22 0)
(-1.21818e-22 9.90057e-23 0)
(1.24716e-21 -1.08804e-20 -3.06009e-38)
(-9.79114e-21 6.91489e-21 6.06373e-38)
(-2.13148e-20 2.12334e-20 0)
(3.66028e-21 -3.94102e-21 3.08362e-38)
(-1.45264e-20 -2.70053e-20 -4.10451e-38)
(3.27537e-21 -5.2458e-21 -3.01888e-38)
(2.75222e-21 -5.27765e-22 -4.0875e-38)
(1.13727e-22 9.2061e-22 4.69198e-38)
(1.54127e-23 7.67804e-23 -1.36559e-38)
(-2.53647e-22 -5.80132e-21 -5.19176e-38)
(-2.79705e-20 5.34754e-22 1.14777e-38)
(-1.12164e-22 8.46656e-23 0)
(-2.48585e-22 8.68714e-22 2.74091e-39)
(-1.42562e-22 7.46056e-23 0)
(3.57235e-21 8.46139e-21 -2.39564e-40)
(3.02763e-21 8.23709e-21 0)
(-2.09644e-21 5.87778e-21 -7.62243e-38)
(3.11915e-24 3.55048e-23 0)
(2.84632e-21 -1.8596e-21 3.59071e-38)
(-5.16462e-21 1.32365e-21 -6.07023e-38)
(-4.74978e-22 9.06865e-22 0)
(3.39275e-21 -7.56431e-21 0)
(-3.2491e-22 6.04041e-22 -5.73163e-38)
(2.77071e-21 -2.95912e-21 0)
(-1.06056e-21 -8.76705e-21 4.24654e-38)
(-1.68054e-22 1.33844e-22 1.89846e-39)
(-2.12786e-22 9.55052e-23 -9.62451e-40)
(-1.67709e-21 -2.47752e-22 8.05671e-38)
(-1.08024e-23 1.39812e-22 6.43086e-38)
(-3.4386e-22 -2.95755e-21 4.17776e-38)
(-2.52061e-23 1.48439e-22 -3.68105e-39)
(-3.90904e-22 8.48748e-22 5.24556e-38)
(-2.30982e-20 -4.56512e-22 5.8943e-40)
(-2.00333e-20 2.24191e-21 2.35445e-38)
(-2.28766e-20 -5.98976e-21 2.11848e-39)
(1.24449e-21 5.93652e-22 0)
(3.80444e-21 -8.19447e-21 2.68661e-38)
(-1.73051e-20 -3.85555e-22 -2.37497e-38)
(2.11379e-21 -7.22604e-21 0)
(2.33452e-21 4.17275e-21 0)
(-1.24987e-21 1.28827e-21 7.83529e-38)
(-7.76184e-24 7.60959e-23 -4.83985e-38)
(-1.54341e-21 1.06899e-22 -1.18979e-38)
(-2.00362e-23 6.51214e-23 -4.81e-38)
(-2.7602e-22 6.91107e-23 0)
(-9.67237e-23 7.27831e-23 0)
(-7.36447e-22 -1.57841e-21 -6.38944e-38)
(-9.58996e-24 9.672e-23 -9.49533e-38)
(-8.69917e-23 1.58106e-22 -6.20256e-38)
(-2.62105e-20 4.30703e-21 2.09827e-38)
(-3.24125e-23 3.44589e-24 4.30993e-38)
(-4.02339e-23 9.4802e-23 0)
(4.08262e-21 -6.07899e-21 0)
(3.62416e-22 1.22977e-21 3.9777e-39)
(-2.23168e-22 1.44063e-22 6.08937e-38)
(-1.28575e-23 1.4137e-22 5.75883e-38)
(2.21121e-22 -9.93649e-21 -3.85362e-38)
(-3.55484e-22 9.99724e-23 0)
(-1.9667e-23 1.33041e-22 0)
(-3.08966e-22 9.30891e-22 -1.20492e-39)
(-1.28602e-22 -1.40791e-22 -1.07006e-37)
(-4.34309e-22 4.69993e-23 1.79104e-39)
(-2.43188e-22 3.49742e-23 5.66594e-38)
(-5.70365e-21 5.64103e-21 -1.34852e-38)
(2.79384e-21 -9.70455e-21 -2.69852e-38)
(-8.88612e-22 -4.04481e-21 -5.6473e-41)
(-5.98541e-23 3.60142e-23 -5.9835e-38)
(3.27653e-21 1.07604e-21 0)
(-5.19777e-22 1.13536e-22 0)
(-1.85665e-20 1.57884e-23 -1.89335e-38)
(-6.13199e-21 -2.32012e-21 5.37241e-38)
(-3.09815e-21 -1.2713e-22 0)
(-5.80046e-22 9.72211e-24 -5.71887e-38)
(1.01578e-21 -9.22507e-21 5.49887e-38)
(-7.0511e-23 -1.25842e-22 -1.35999e-39)
(-2.50796e-22 -3.81709e-22 5.70687e-38)
(-1.17008e-23 8.30857e-23 0)
(-4.10099e-22 2.32322e-21 -1.90482e-38)
(-2.43592e-22 -4.91641e-22 4.75578e-38)
(1.53253e-21 8.96845e-21 4.02591e-38)
(2.76189e-22 -2.75069e-21 3.62908e-38)
(5.75026e-22 -4.40828e-21 -9.82479e-40)
(-1.03397e-20 -1.57668e-21 -4.27059e-38)
(2.25119e-22 -6.27551e-21 -6.42758e-39)
(-1.62582e-22 -3.28657e-23 -1.31338e-38)
(4.71252e-22 -5.61918e-21 3.54249e-39)
(1.46623e-21 -5.3475e-21 -2.28912e-38)
(-6.52876e-22 1.15344e-22 5.67612e-38)
(-6.64416e-22 -3.58052e-23 -2.22319e-40)
(-8.02684e-21 5.67232e-21 -1.82895e-38)
(2.65971e-21 4.38428e-21 -3.49433e-40)
(-5.97894e-22 -3.34064e-22 5.37182e-38)
(1.0496e-21 -1.37766e-21 2.57118e-38)
(2.96711e-22 1.16566e-22 0)
(1.22991e-21 8.70101e-22 6.30813e-38)
(3.66927e-22 6.43564e-21 6.50426e-38)
(4.65807e-22 2.97681e-21 -2.15004e-39)
(3.76486e-22 -5.60204e-22 0)
(2.27641e-22 -5.01925e-22 -1.72792e-38)
(1.83838e-22 -3.3424e-21 -4.81532e-38)
(5.54151e-22 -3.0039e-21 4.26479e-41)
(-2.68e-22 1.16297e-21 -5.29879e-41)
(5.1294e-22 -1.67502e-21 2.16146e-38)
(-3.85469e-23 3.02384e-22 -9.1607e-38)
(-1.78012e-22 9.36038e-22 -5.69857e-38)
(1.96594e-22 1.41122e-21 4.43735e-41)
(8.47579e-23 1.54377e-21 -4.45141e-41)
(-1.76234e-22 -6.99892e-22 -4.37281e-38)
(-4.04494e-22 1.1311e-21 5.24242e-41)
(-1.12144e-22 3.0377e-21 -3.74103e-38)
(-2.27233e-22 1.43813e-21 4.98503e-38)
(-1.75413e-22 1.21958e-21 0)
(-1.50522e-23 1.50341e-21 0)
(-7.54634e-23 8.17436e-22 0)
(-1.18488e-22 1.59023e-21 4.70093e-41)
(2.81896e-22 -1.21631e-21 0)
(-7.2486e-23 6.109e-22 1.86356e-39)
(-3.82477e-23 5.25591e-22 0)
(-2.06218e-23 5.72761e-22 -3.86741e-38)
(-1.76029e-23 1.03398e-21 4.58804e-38)
(3.88908e-24 -3.49067e-21 3.12873e-38)
(-3.23555e-23 6.69077e-23 4.43404e-38)
(1.59087e-22 8.93308e-24 0)
(-2.18193e-23 1.44256e-22 4.88695e-38)
(5.72058e-23 1.16748e-21 -4.82827e-38)
(-8.45913e-23 -3.06405e-22 0)
(2.93518e-22 -1.96507e-21 -1.63245e-38)
(3.84673e-22 3.82609e-21 -1.21451e-38)
(-3.31908e-23 4.15233e-22 4.46994e-38)
(-3.62397e-22 2.08942e-21 -4.60885e-38)
(8.93364e-24 6.23281e-22 -3.671e-38)
(1.91981e-22 3.59669e-22 -5.12878e-38)
(-5.65839e-23 9.506e-22 4.83689e-38)
(-1.31657e-22 1.43225e-21 -4.99103e-38)
(-4.79597e-22 6.55701e-22 1.01051e-37)
(-6.66909e-22 1.35432e-22 5.5609e-38)
(-6.38729e-22 -6.89991e-23 -5.2743e-38)
(-5.30683e-22 1.4303e-22 0)
(8.13623e-23 -4.05027e-22 2.49127e-38)
(-4.5253e-22 -9.39613e-23 -1.6545e-39)
(-1.48277e-22 1.68051e-22 -4.89069e-38)
(1.23501e-22 -7.19834e-23 4.84749e-38)
(4.45098e-22 -5.61996e-22 -5.05279e-39)
(8.22364e-22 -3.51255e-22 0)
(1.39409e-21 4.43277e-22 -3.82187e-38)
(3.06966e-22 -8.12692e-22 4.22725e-38)
(5.13471e-22 1.62205e-22 0)
(1.53855e-21 3.14631e-22 6.66416e-39)
(1.55792e-21 1.17363e-22 7.07333e-39)
(8.81512e-22 2.13134e-23 3.60751e-38)
(9.16881e-22 -2.669e-22 1.05631e-37)
(1.46995e-21 2.92666e-22 -3.67341e-38)
(2.33954e-21 7.86847e-22 -4.79188e-38)
(1.15122e-21 -6.65145e-23 3.41697e-38)
(2.02689e-21 2.69835e-22 0)
(2.81691e-21 2.59662e-22 0)
(1.95335e-21 5.56816e-22 2.23924e-38)
(3.20551e-21 2.79976e-22 -8.99205e-40)
(-4.05805e-22 -5.49264e-22 0)
(1.75203e-21 2.12025e-21 0)
(-2.48739e-22 -3.90391e-22 0)
(3.91004e-21 2.39188e-21 -4.02904e-39)
(1.25305e-21 1.99214e-21 -2.47315e-37)
(4.95817e-21 -1.45556e-21 -3.86418e-38)
(2.4714e-21 -9.78844e-21 3.06955e-38)
(4.33886e-21 8.60707e-23 0)
(4.91527e-21 8.02475e-22 0)
(-5.05823e-22 3.24194e-22 0)
(-1.48154e-23 -2.40482e-22 -5.8974e-38)
(5.33599e-21 -8.65778e-23 -1.53937e-38)
(5.67514e-21 4.35669e-21 0)
(5.80165e-21 6.97599e-22 1.46389e-38)
(5.44942e-21 -3.62066e-21 6.65678e-38)
(5.94098e-21 -2.19495e-22 3.72334e-38)
(1.0294e-21 8.98898e-21 -1.83524e-38)
(6.08169e-21 1.50142e-21 -3.72343e-38)
(-3.62124e-22 7.13195e-21 2.62187e-38)
(5.78187e-21 -5.41327e-23 -6.31599e-41)
(-1.41294e-22 1.79535e-22 -1.8556e-39)
(-1.85941e-22 1.24043e-20 2.98329e-38)
(3.11336e-21 6.76602e-21 1.86011e-38)
(-1.4993e-22 -7.17542e-23 -4.89152e-38)
(5.38638e-21 1.7441e-21 0)
(1.73071e-21 -1.75277e-22 1.87047e-38)
(6.53783e-22 1.19557e-20 3.8375e-38)
(-2.0928e-20 -1.39989e-21 1.68713e-38)
(4.61292e-21 -2.20314e-22 0)
(3.47554e-21 2.12384e-21 0)
(1.45785e-22 1.38356e-21 -4.10268e-38)
(4.95615e-23 5.56837e-22 0)
(-6.39034e-22 -1.05451e-20 -4.27435e-39)
(1.5799e-21 -5.06215e-21 2.07669e-40)
(-2.86005e-22 2.09786e-22 -3.2916e-40)
(3.44617e-23 1.00258e-21 0)
(-1.13129e-22 4.63015e-22 -6.00071e-38)
(-2.34628e-21 1.11728e-20 6.95939e-39)
(-3.61072e-22 -7.02062e-21 -2.69555e-38)
(1.65767e-22 7.24644e-22 -3.57314e-38)
(-1.20235e-20 -2.95002e-21 0)
(-2.3138e-22 2.80859e-22 0)
(-2.88308e-21 -4.74151e-21 2.75437e-38)
(-5.29131e-21 -5.8092e-21 1.28569e-40)
(-9.19924e-21 -3.28378e-21 -1.04959e-40)
(-4.16911e-22 3.35518e-22 -5.93139e-38)
(-5.88357e-22 6.33558e-22 1.0804e-37)
(3.81782e-21 -1.31026e-21 3.93276e-38)
(3.90388e-22 8.99885e-22 7.17647e-38)
(2.80346e-22 2.70919e-22 0)
(2.04373e-21 -4.86487e-21 4.79368e-40)
(1.76354e-21 -2.60637e-21 -2.57695e-38)
(-9.3384e-21 -4.53475e-21 4.23411e-38)
(-2.55325e-21 8.36684e-21 -1.4935e-38)
(-6.31214e-21 1.90716e-21 -9.43098e-39)
(-1.05543e-20 2.32079e-21 -5.577e-38)
(-8.48786e-21 -1.94688e-20 5.42928e-38)
(-3.67844e-22 -1.05129e-21 3.06323e-38)
(4.73011e-21 -2.86298e-21 -4.01468e-38)
(5.13067e-21 -4.27314e-21 -7.32288e-38)
(-1.10619e-22 -9.43301e-22 4.00928e-38)
(-2.91219e-21 -5.38006e-21 -1.00681e-37)
(1.38503e-21 -7.48831e-21 -2.38735e-38)
(-2.82266e-22 1.34496e-21 -5.02529e-38)
(-3.59078e-22 2.02546e-22 -2.89224e-40)
(3.8131e-21 -6.11044e-22 0)
(-1.425e-20 8.23379e-22 5.3073e-39)
(4.64677e-21 -5.84133e-21 -6.23994e-38)
(2.90197e-21 -6.85389e-21 0)
(1.30208e-22 3.55876e-22 2.83027e-38)
(-5.39424e-21 -7.52439e-21 0)
(-2.93607e-23 3.95782e-23 0)
(-1.28261e-20 2.73293e-21 1.83893e-38)
(-1.54967e-22 5.79787e-23 4.57e-38)
(1.22313e-21 -8.47515e-22 -1.24675e-40)
(-2.99132e-21 -7.92529e-21 4.7645e-38)
(1.32113e-21 -3.18524e-21 2.23665e-38)
(-1.0053e-20 -2.1653e-22 2.43565e-38)
(-5.88275e-23 4.43335e-22 -9.47893e-40)
(-4.95058e-23 3.05648e-22 -5.89645e-38)
(-1.50382e-20 1.30159e-21 -2.0178e-38)
(-1.46566e-22 2.39459e-22 0)
(-4.01605e-21 -8.58679e-21 -3.8137e-38)
(-3.23472e-22 -5.93902e-22 -2.51659e-38)
(-3.78506e-20 1.40466e-20 -1.24014e-38)
(-5.32376e-24 1.93507e-24 -2.50086e-38)
(5.36415e-21 -2.55042e-21 7.69292e-38)
(-1.47134e-22 1.51225e-21 -4.6777e-41)
(-6.17841e-22 4.17553e-22 -5.35076e-38)
(-2.27276e-22 -7.54356e-24 -4.19849e-38)
(-3.08456e-23 4.87495e-24 -4.90905e-38)
(1.8104e-21 -9.42307e-21 -1.93918e-39)
(-2.71467e-22 -5.01497e-22 5.38157e-38)
(-1.77126e-23 1.78288e-24 2.51868e-38)
(-3.15204e-20 -3.43922e-20 0)
(-5.49744e-23 -1.01679e-20 -5.00931e-40)
(-1.42719e-21 -1.04623e-20 3.78531e-38)
(4.25959e-21 -4.63078e-21 3.04999e-38)
(-6.83345e-23 1.1544e-22 2.99463e-38)
(-3.22129e-23 2.16818e-22 9.46156e-38)
(1.3002e-21 2.00817e-22 3.90029e-38)
(-2.67416e-23 1.47041e-23 6.00898e-38)
(2.85309e-23 1.36289e-21 0)
(-5.31537e-22 4.87367e-22 -1.74869e-39)
(-3.65346e-23 1.29874e-23 -2.86478e-38)
(7.08226e-22 2.43936e-23 0)
(7.76071e-22 4.41511e-22 -3.41151e-38)
(-4.29183e-22 6.62174e-22 -5.44695e-38)
(-6.84143e-21 2.72524e-20 9.36686e-38)
(5.37884e-24 6.87474e-24 0)
(-1.90759e-21 1.12716e-20 -5.05792e-38)
(6.04546e-24 9.23072e-24 -2.31849e-38)
(-2.57597e-20 3.50977e-20 0)
(1.59165e-23 1.61594e-23 -3.35903e-38)
(-3.85802e-20 -3.28884e-21 6.49791e-39)
(1.18547e-23 5.00531e-23 1.66181e-38)
(-1.12961e-20 2.36887e-20 0)
(-2.2995e-20 -2.77126e-20 1.1642e-39)
(-1.90356e-23 1.27956e-24 6.43619e-38)
(-7.48475e-23 9.04233e-23 0)
(1.92595e-21 4.4625e-21 0)
(-2.80749e-21 -4.31964e-21 0)
(-5.66381e-23 1.44113e-22 3.20551e-38)
(-4.31384e-23 -3.20857e-23 0)
(-2.36414e-21 1.55229e-21 1.66779e-39)
(-3.20536e-21 1.05943e-20 -6.23436e-39)
(1.83446e-21 2.4517e-21 0)
(-1.24199e-21 3.68482e-21 -1.63979e-38)
(-6.88651e-23 6.20063e-23 0)
(-1.14602e-20 -1.41079e-21 3.63654e-38)
(-1.92803e-22 -1.88307e-22 8.09277e-38)
(-2.98893e-22 5.40081e-21 1.32488e-37)
(-9.32044e-23 1.00628e-22 1.65058e-38)
(1.26808e-21 5.59721e-21 0)
(2.11821e-21 8.43534e-21 -4.3475e-38)
(1.94237e-21 5.43922e-21 0)
(4.89293e-21 6.08906e-21 -1.01055e-38)
(3.82707e-21 2.54804e-21 -4.21978e-40)
(3.82377e-21 7.92051e-21 0)
(4.9529e-21 4.38475e-21 -4.51485e-39)
(-4.90128e-24 9.02558e-23 -3.35244e-38)
(2.22942e-21 1.00095e-21 0)
(1.2622e-21 1.20591e-21 0)
(1.77065e-22 -7.67772e-22 -3.06213e-38)
(3.34024e-22 -4.08787e-22 0)
(2.45796e-22 3.52242e-22 1.93938e-38)
(-3.26364e-22 -4.7152e-22 1.34271e-37)
(-7.74749e-23 -6.31924e-22 -2.44492e-38)
(-5.40091e-22 -3.0424e-22 -5.67402e-38)
(-5.00414e-22 -4.90022e-22 0)
(-2.86076e-22 -1.15566e-23 -1.20208e-37)
(-1.70723e-22 -3.88686e-22 0)
(-6.63715e-21 5.67923e-21 2.40291e-38)
(-3.16138e-20 3.56154e-20 0)
(5.75e-24 4.75677e-24 0)
(-2.69584e-20 -3.52023e-20 0)
(-2.94963e-23 -6.36329e-24 -2.27979e-38)
(-3.91109e-20 3.83254e-22 1.35858e-38)
(-3.53838e-20 -2.24817e-20 0)
(-2.42713e-21 -1.15999e-20 0)
(-2.02527e-24 -1.85981e-23 4.35515e-38)
(-7.43351e-21 -2.69027e-20 0)
(8.88484e-24 -6.16711e-24 -5.59707e-38)
(-3.42445e-20 1.82343e-20 8.5415e-39)
(-3.60189e-23 8.9868e-23 3.36271e-38)
(1.37742e-24 3.3032e-23 0)
(-1.27145e-22 5.91471e-23 3.03432e-38)
(-1.51068e-23 4.52686e-23 0)
(-2.68011e-20 2.56454e-20 0)
(-1.23655e-21 -3.99564e-21 0)
(-3.1373e-23 9.33401e-23 2.01864e-39)
(1.56592e-23 4.53971e-23 3.022e-38)
(-3.61498e-20 2.17077e-20 -8.47836e-39)
(-1.42134e-23 5.69851e-23 3.58962e-38)
(8.25605e-25 1.24941e-23 3.62836e-38)
(-1.81769e-20 -7.58914e-21 2.26388e-38)
(-6.3612e-22 1.64073e-21 2.76236e-38)
(-2.03567e-20 -4.14439e-20 -4.442e-38)
(-6.09903e-21 7.93716e-21 3.7696e-40)
(-9.38944e-24 3.32006e-21 -7.10886e-38)
(1.03462e-21 6.19051e-21 4.12438e-38)
(1.12769e-22 3.03448e-21 -2.97718e-38)
(-4.39227e-21 1.46417e-20 1.11005e-37)
(1.23952e-23 3.29606e-23 3.45455e-38)
(5.05719e-21 5.25936e-21 1.08664e-38)
(1.02618e-21 5.93252e-21 2.42321e-39)
(-2.67715e-23 1.0603e-22 6.01289e-38)
(5.33788e-21 2.41957e-21 9.93637e-39)
(1.94893e-22 5.64155e-22 0)
(5.92009e-22 8.88803e-22 -1.98096e-38)
(-1.69105e-22 4.91198e-23 -3.17641e-38)
(2.22852e-22 3.85177e-22 0)
(-4.0142e-23 1.39332e-22 -3.23499e-38)
(8.55902e-22 -2.50077e-22 0)
(8.51494e-25 -3.11216e-22 -3.25005e-38)
(-4.36146e-22 -5.17576e-22 2.39289e-39)
(-4.08916e-22 -6.2226e-22 -3.33559e-38)
(-4.0083e-22 -4.75291e-23 8.81084e-38)
(-5.89462e-22 -4.56632e-22 -1.8071e-39)
(-4.4805e-22 -1.38581e-22 -3.24026e-38)
(-1.72304e-22 -2.38103e-22 -2.82944e-38)
(-5.36014e-22 -1.45818e-22 3.49336e-38)
(-2.70243e-22 -7.92655e-22 2.45338e-38)
(2.06053e-21 9.89912e-21 0)
(-3.85323e-20 -1.28297e-20 -4.60229e-39)
(1.26326e-21 1.1869e-20 -6.03176e-38)
(-7.85503e-23 7.17957e-23 0)
(6.62312e-23 -9.27691e-22 -4.66292e-38)
(1.9424e-21 5.18912e-21 0)
(1.49894e-21 2.66138e-21 1.50543e-37)
(-3.59818e-23 -6.95207e-24 -3.3406e-38)
(-1.92985e-23 1.07742e-23 4.28823e-40)
(-3.32834e-23 4.96264e-23 -5.01505e-40)
(-7.86305e-25 -2.00412e-23 5.16483e-38)
(-3.26034e-21 -1.26994e-20 0)
(-1.41607e-20 -3.31141e-20 1.46649e-38)
(-6.31205e-23 8.70936e-23 -7.56615e-38)
)
;

boundaryField
{
    back
    {
        type            empty;
    }
    front
    {
        type            empty;
    }
    left
    {
        type            noSlip;
    }
    top
    {
        type            uniformFixedValue;
        uniformValue    
        {
            type            scale;
            scale           
            {
                type            squarePulse;
                start           0.3;
                duration        0.3;
            }
            xScale          
            {
                type            constant;
                value           1;
            }
            value           
            {
                type            constant;
                value           (0 -0.7 0);
            }
        }
        value           uniform (0 -0 0);
    }
    right
    {
        type            noSlip;
    }
    bottom
    {
        type            zeroGradient;
    }
}


// ************************************************************************* //
