/*--------------------------------*- C++ -*----------------------------------*\
  =========                 |
  \\      /  F ield         | OpenFOAM: The Open Source CFD Toolbox
   \\    /   O peration     | Website:  https://openfoam.org
    \\  /    A nd           | Version:  9
     \\/     M anipulation  |
\*---------------------------------------------------------------------------*/
FoamFile
{
    format      ascii;
    class       volVectorField;
    location    "1.23";
    object      U;
}
// * * * * * * * * * * * * * * * * * * * * * * * * * * * * * * * * * * * * * //

dimensions      [0 1 -1 0 0 0 0];

internalField   nonuniform List<vector> 
942
(
(0.127138 -0.387135 0)
(0.273932 0.0286029 3.53331e-17)
(0.126673 0.343703 0)
(0.0529439 -0.435945 -1.8449e-17)
(0.121006 0.351867 1.11765e-17)
(0.16938 -0.143323 1.97951e-17)
(0.0434018 -0.0702152 5.24459e-17)
(0.197092 -0.154859 0)
(0.0283615 -0.26676 -4.07995e-17)
(0.0304817 -0.293751 4.15605e-17)
(0.193476 0.143511 0)
(0.278215 -0.100626 0)
(0.0508008 -0.442536 1.72209e-17)
(0.176535 0.163026 0)
(0.294606 -0.0989134 0)
(0.255838 0.0189013 -3.84238e-17)
(0.266237 0.235144 -1.50757e-17)
(0.10817 -0.386864 0)
(0.253565 0.134913 -4.52258e-18)
(0.114802 0.0288356 7.00413e-18)
(0.273689 0.24267 2.56535e-17)
(0.287218 -0.112026 2.07145e-17)
(0.0821506 -0.14822 0)
(0.149109 0.271299 -4.0967e-17)
(0.210778 0.149208 0)
(0.16458 0.294423 3.07022e-17)
(0.101231 0.296645 0)
(0.0987775 -0.195701 2.60372e-17)
(0.198051 0.274386 0)
(0.0832112 -0.283461 1.6424e-17)
(0.174614 0.300103 2.06429e-17)
(0.0891419 0.29122 0)
(0.171374 0.256492 1.95027e-17)
(0.234166 -0.0101521 2.29579e-17)
(0.12291 0.266803 -2.26327e-17)
(0.114198 -0.124843 4.32707e-17)
(0.246679 -0.294498 1.42589e-18)
(0.0245044 -0.227641 0)
(0.236917 -0.304023 -7.27873e-19)
(0.143249 0.242331 2.92608e-17)
(0.228857 -0.048143 -4.10582e-17)
(0.352658 -0.224522 0)
(0.0935081 0.15826 -2.03834e-17)
(0.0621167 -0.114349 -1.7482e-17)
(0.0641803 -0.0991386 -4.41453e-17)
(0.235774 0.200496 9.86694e-18)
(0.250655 0.0922633 -2.00445e-17)
(0.213545 -0.00154211 -1.89573e-17)
(0.180511 -0.0511495 2.12261e-17)
(0.195075 0.171962 2.47267e-17)
(0.269107 0.133909 0)
(0.0324087 -0.0590566 0)
(0.0561216 -0.0529568 -2.94079e-17)
(0.119028 0.237171 2.31738e-17)
(0.0306177 -0.360988 0)
(0.238392 -0.122604 -1.54159e-17)
(0.114986 -0.0224604 -3.92969e-17)
(0.0378421 -0.379847 -2.75975e-18)
(0.182135 -0.0262236 5.03317e-17)
(0.35342 0.0493854 2.15485e-17)
(0.0625305 -0.209935 -2.05323e-17)
(0.111926 0.279486 -5.3256e-17)
(0.277019 -0.0141051 2.46515e-17)
(0.130411 -0.35364 -1.98997e-17)
(0.0392758 -0.23182 1.90017e-17)
(0.271784 -0.00761905 1.47259e-17)
(0.0994748 0.274598 4.16556e-17)
(0.260028 0.0541816 -1.89954e-17)
(0.185372 -0.0904444 1.96449e-17)
(0.108647 -0.223427 5.3685e-18)
(0.264822 0.0362984 0)
(0.0331097 -0.181259 0)
(0.114398 0.00438919 -2.57105e-18)
(0.0789334 -0.318379 4.91734e-18)
(0.12959 0.256262 -2.19766e-17)
(0.176868 0.0575269 9.89268e-22)
(0.174843 0.0443043 2.57887e-18)
(0.110275 0.259241 2.29968e-17)
(0.167271 0.303467 -2.46647e-17)
(0.279429 0.0106345 -5.03481e-18)
(0.0879818 -0.0891464 3.01464e-17)
(0.175239 0.299399 -1.06667e-17)
(0.204801 0.119128 -2.71775e-18)
(0.253808 0.00130948 1.10739e-17)
(0.239869 -0.0125127 0)
(0.071655 0.326954 0)
(0.319262 0.0465654 -2.25739e-17)
(0.24738 -0.0722369 6.24165e-18)
(0.186307 0.181095 0)
(0.221421 0.122615 3.09512e-17)
(0.36107 -0.206007 -1.55248e-17)
(0.0995077 0.184466 7.21372e-19)
(0.036841 -0.412737 3.09438e-18)
(0.279783 -0.120599 0)
(0.257645 -0.150753 -6.06823e-18)
(0.251939 0.0898673 1.12432e-17)
(0.334628 -0.229796 1.91715e-17)
(0.223959 -0.0633912 -1.81487e-17)
(0.135998 -0.141723 -2.69959e-17)
(0.0351785 -0.180864 -3.83531e-17)
(0.0512495 -0.175866 -1.15572e-17)
(0.0305005 -0.424612 1.27555e-17)
(0.261805 0.111805 0)
(0.10296 -0.196918 1.47927e-17)
(0.307472 -0.184324 -2.31338e-17)
(0.0573039 -0.171079 -3.77041e-17)
(0.253446 0.201797 -1.31767e-17)
(0.219144 0.226681 0)
(0.229352 0.0287402 2.04956e-17)
(0.240842 0.0595992 0)
(0.143687 -0.0876815 0)
(0.157818 -0.0688058 -2.07168e-17)
(0.301275 0.0620647 4.11467e-17)
(0.0338663 -0.208409 0)
(0.205422 0.161284 0)
(0.0619226 0.115827 2.81445e-18)
(0.349486 0.0858085 -2.20985e-17)
(0.0696467 -0.429931 2.31615e-17)
(0.0176139 -0.0796454 2.73366e-22)
(0.381025 -0.04852 -2.67364e-18)
(0.0296344 -0.077549 9.06414e-18)
(0.132041 -0.101437 -2.32263e-17)
(0.0517591 0.0876285 0)
(0.180561 0.0196727 2.06395e-17)
(0.183385 0.00583855 1.66945e-17)
(0.162177 0.306805 -4.38233e-17)
(0.0104149 -0.0183154 2.35177e-17)
(0.131773 0.192969 -2.2339e-17)
(0.158518 0.201678 4.08221e-17)
(0.018926 -0.0221015 2.14751e-17)
(0.204386 0.104318 -1.10059e-17)
(0.205037 0.136319 -2.54112e-17)
(0.200469 0.0746581 0)
(0.144609 0.00508638 0)
(0.164887 0.0230036 -2.29364e-17)
(0.198902 0.165242 -1.58963e-17)
(0.0732934 -0.0371471 1.39936e-18)
(0.183306 0.0463426 0)
(0.0879847 -0.0315017 2.8624e-17)
(0.113349 -0.0255792 -9.77856e-18)
(0.125017 -0.013774 2.30152e-17)
(0.178183 0.182259 0)
(0.32049 0.084755 -2.2572e-17)
(0.156297 0.311484 2.43078e-17)
(0.174533 -0.12965 -5.72955e-18)
(0.172184 0.276855 -1.03259e-17)
(0.079183 -0.178935 0)
(0.0434326 -0.21093 -1.37027e-17)
(0.200652 -0.2173 3.43645e-17)
(0.0823391 0.327386 0)
(0.200271 -0.137663 6.1908e-18)
(0.387879 -0.0106506 6.77491e-18)
(0.129701 0.231523 0)
(0.133423 -0.190083 1.28778e-17)
(0.120407 0.245443 -2.2511e-17)
(0.206374 -0.28202 0)
(0.237693 -0.0209092 2.52508e-17)
(0.014096 -0.0799582 0)
(0.362244 0.0689442 0)
(0.239169 0.0754739 9.36521e-18)
(0.261224 -0.027473 -3.27219e-17)
(0.177906 -0.240303 0)
(0.0342755 -0.423839 0)
(0.205579 -0.0997157 1.15518e-17)
(0.373159 -0.00320311 0)
(0.160237 0.183692 -3.43711e-17)
(0.0626063 -0.199059 0)
(0.132695 -0.234481 0)
(0.238718 0.230297 2.01165e-17)
(0.264595 0.0842915 2.39567e-17)
(0.250796 0.0215915 -2.008e-17)
(0.20245 -0.0689411 -2.66323e-18)
(0.171963 -0.112707 -5.48275e-21)
(0.0856153 -0.201341 1.28384e-17)
(0.0754389 0.348198 0)
(0.120781 -0.33598 -2.47804e-17)
(0.225234 0.0856956 -2.3814e-17)
(0.113128 -0.34545 0)
(0.321379 -0.147379 8.19855e-19)
(0.147724 -0.347048 0)
(0.107079 -0.1644 -1.50914e-17)
(0.203084 0.262977 0)
(0.238907 -0.258133 -2.92622e-17)
(0.139402 -0.360262 6.58226e-21)
(0.0923759 -0.364913 -1.4747e-17)
(0.181839 0.292067 0)
(0.349063 0.132644 -1.16919e-17)
(0.137072 0.329741 2.3531e-17)
(0.0945748 0.333506 3.35536e-17)
(0.169918 -0.366046 1.11417e-17)
(0.150244 0.294254 4.54555e-17)
(0.17771 -0.352071 -1.11795e-17)
(0.109194 -0.269725 -1.41573e-17)
(0.18188 0.295024 -2.15429e-17)
(0.144555 0.322257 1.19119e-17)
(0.0639632 -0.43502 -1.05458e-17)
(0.155151 0.309829 0)
(0.106605 -0.298194 3.80624e-17)
(0.226867 -0.0350638 -2.7597e-17)
(0.0426744 0.0569692 2.12289e-17)
(-8.37228e-05 -0.0492603 0)
(0.0801835 -0.434337 1.07137e-17)
(0.147752 0.3187 0)
(0.251198 0.245413 -2.52308e-17)
(0.302769 0.097208 2.38813e-17)
(0.263109 -0.0962818 0)
(0.225877 -0.152918 2.37485e-17)
(0.132466 0.330979 -5.20712e-17)
(0.0636665 0.107754 -2.04452e-17)
(0.120176 0.223802 2.00078e-17)
(0.147052 0.316924 -1.15589e-17)
(0.0870025 -0.417685 1.06219e-20)
(0.0497499 -0.324259 1.83903e-17)
(0.121512 0.292984 1.10789e-17)
(0.154468 0.312459 0)
(0.144241 -0.423182 -1.35896e-21)
(0.0980949 0.343391 -2.75472e-17)
(0.182284 0.249002 2.32598e-17)
(0.158911 0.304137 2.29184e-17)
(0.167467 0.297777 -3.53573e-21)
(0.174166 -0.411963 0)
(0.135776 -0.423961 -2.17535e-17)
(0.199878 -0.364055 0)
(0.115547 -0.425257 0)
(0.00708038 -0.0430337 -2.34438e-17)
(0.0442323 0.160483 2.32236e-17)
(0.131978 0.291118 -1.6321e-17)
(0.203881 -0.39419 -2.24156e-17)
(0.0104257 -0.0322438 3.42331e-17)
(0.185272 0.287273 0)
(0.192602 0.291807 -2.10352e-17)
(0.134257 0.324492 -4.07361e-17)
(0.0542937 0.137626 2.2524e-17)
(0.00992439 -0.0399014 -1.23591e-17)
(0.162045 -0.419061 -1.12587e-17)
(0.074502 -0.400092 8.88431e-21)
(0.173485 0.254212 -2.41243e-17)
(0.192574 -0.406442 2.2498e-17)
(0.179442 0.293281 -2.18687e-17)
(0.171805 0.291366 2.26911e-17)
(0.180703 0.285533 0)
(0.133977 -0.219457 -5.56898e-18)
(0.224987 -0.385136 1.11243e-17)
(0.10876 -0.290776 -1.26861e-17)
(0.13345 -0.302489 -2.24371e-17)
(0.158355 0.308026 -2.26947e-17)
(0.232917 -0.37294 1.1189e-17)
(0.132877 -0.42315 -1.20975e-17)
(0.222399 -0.388457 -2.24233e-17)
(0.170999 0.297824 5.58565e-18)
(0.140605 0.298771 -5.73937e-18)
(0.297577 -0.0899595 -2.09834e-17)
(0.152219 0.284303 0)
(0.166035 0.302877 1.68776e-17)
(0.162031 -0.31192 2.22683e-17)
(0.102892 -0.415255 2.4515e-17)
(0.207895 -0.387646 0)
(0.206633 -0.347814 0)
(0.199561 0.245872 -1.13608e-17)
(0.109639 -0.270372 1.26351e-17)
(0.164318 -0.40578 -1.10181e-17)
(0.19981 0.235739 1.11766e-17)
(0.132761 0.279012 -2.80718e-17)
(0.189716 -0.31344 -5.88826e-18)
(0.220871 -0.357657 1.16271e-17)
(0.0413384 -0.272875 0)
(0.135498 -0.285669 0)
(0.233444 -0.33686 0)
(0.190519 0.291951 2.13635e-17)
(0.251984 -0.367091 1.13121e-17)
(0.26141 -0.34809 2.13752e-17)
(0.117967 0.328186 -2.09177e-17)
(0.285487 -0.0686135 2.43912e-17)
(0.120744 0.305453 -1.10408e-17)
(0.142474 0.318107 2.31296e-17)
(0.189715 0.232588 -2.31654e-17)
(0.101136 0.130501 0)
(0.240077 -0.2474 0)
(0.157083 0.29687 -1.14139e-17)
(0.0436776 -0.0503602 -2.38847e-17)
(0.162522 -0.294293 0)
(0.139387 -0.133244 -1.93672e-18)
(0.0949064 -0.134113 2.4022e-17)
(0.253099 -0.27347 0)
(0.289624 0.2144 4.45394e-17)
(0.379122 0.0686129 -2.21656e-17)
(0.234876 -0.291522 3.35531e-17)
(0.256779 -0.320011 2.22029e-17)
(0.187973 -0.292053 5.77113e-18)
(0.214651 -0.306152 5.73695e-18)
(0.279981 0.224871 -2.25823e-17)
(0.323708 -0.062887 2.65067e-17)
(0.187471 0.220892 -1.03645e-17)
(0.303684 -0.279497 2.49044e-17)
(0.201812 -0.208445 6.39056e-18)
(0.295264 0.214398 -2.04346e-17)
(0.387596 0.0322816 0)
(0.387231 0.0496022 1.14661e-17)
(0.395599 0.0120269 1.06649e-17)
(0.377372 0.0837451 0)
(0.352747 0.139988 0)
(0.227207 -0.267842 -1.14734e-17)
(0.403838 -0.0569776 -5.15187e-18)
(0.399339 -0.118916 -3.57372e-17)
(0.345544 0.156532 -3.56841e-17)
(0.237355 -0.373711 1.10953e-17)
(0.382971 -0.18142 -3.53561e-17)
(0.100857 -0.0294076 0)
(0.102745 0.0341541 -1.05107e-17)
(0.0646359 0.105588 2.20192e-17)
(0.0215405 -0.0529313 1.78465e-17)
(0.0849589 0.050447 -3.79862e-22)
(0.0748419 -0.0468859 -3.15773e-18)
(0.113084 0.0159672 -2.19778e-17)
(0.341928 -0.272972 7.78066e-21)
(0.0712278 0.0755599 3.54606e-17)
(0.0404432 -0.0509443 -2.41215e-17)
(0.109937 -0.0134582 1.13615e-21)
(0.0845877 0.0398257 -6.23922e-18)
(0.0956872 -0.0420072 0)
(0.0894173 0.0153698 -6.45369e-18)
(0.0637974 0.0839427 0)
(0.0263728 -0.0430316 2.53154e-17)
(0.106578 -0.00349518 -4.51556e-17)
(0.321156 -0.0442152 -2.78569e-17)
(0.206991 0.219377 -2.30107e-17)
(0.0820132 0.062849 0)
(0.317022 -0.300037 -1.14544e-17)
(0.363212 -0.244173 0)
(0.0596929 -0.0552208 0)
(0.300949 0.214967 -4.45968e-17)
(0.289521 -0.32505 -1.95467e-17)
(0.297956 -0.243101 1.12024e-17)
(0.402455 -0.0752195 -2.0215e-17)
(0.263397 -0.218239 0)
(0.309827 0.203033 2.23058e-17)
(0.393472 -0.139709 1.27322e-17)
(0.301812 0.184236 -6.56552e-19)
(0.306328 0.199366 0)
(0.0608044 -0.0421461 -2.25716e-17)
(0.338197 0.158248 3.27575e-17)
(0.283133 0.0984368 -2.25693e-17)
(0.375983 -0.200688 -5.79268e-18)
(0.325961 0.18352 -5.5647e-17)
(0.379099 0.0802848 -2.27681e-17)
(0.291968 0.223388 0)
(0.365952 0.108628 2.31644e-17)
(0.351344 -0.262377 2.22092e-17)
(0.255218 -0.338591 2.21874e-17)
(0.389479 0.0491319 -1.12072e-17)
(0.317506 0.19801 2.23015e-17)
(0.395626 0.0154727 1.55402e-22)
(0.330292 -0.290964 -5.64394e-17)
(0.399763 -0.0180108 -1.17475e-17)
(0.308871 0.17061 -1.99065e-17)
(0.2439 -0.219027 0)
(0.350134 0.133324 2.27878e-17)
(0.306516 -0.317919 0)
(0.332001 0.153372 1.1175e-17)
(0.296108 0.10624 2.2585e-17)
(0.399319 -0.0526279 2.86236e-17)
(0.303227 -0.170897 0)
(0.299466 -0.0785312 -3.16297e-18)
(0.277294 -0.341067 1.88861e-17)
(0.401096 -0.112054 -2.25719e-17)
(0.320699 -0.0633159 1.1882e-17)
(0.282513 -0.136262 -1.14448e-17)
(0.127502 0.0643055 5.21902e-17)
(0.388195 -0.172986 3.35613e-17)
(0.282312 0.0864769 -5.87725e-18)
(0.351977 -0.0348622 0)
(0.329536 0.173664 2.20489e-17)
(0.126283 0.0455124 -1.13504e-17)
(0.366049 -0.231553 -2.15448e-17)
(0.329417 0.177756 1.12717e-17)
(0.381372 0.0622032 1.12158e-17)
(0.336623 0.162767 1.12871e-17)
(0.369158 0.0909863 2.32179e-17)
(0.281676 -0.345581 1.09301e-17)
(0.390566 0.0301533 1.11604e-17)
(0.0783011 0.113782 2.56089e-17)
(0.0089869 -0.0359392 0)
(0.084142 0.00125869 2.29287e-17)
(0.0247466 -0.0173853 0)
(0.132 0.0869964 5.66596e-18)
(0.395298 -0.00227647 3.52211e-17)
(0.404531 -0.0935971 4.44964e-17)
(0.334238 -0.0940705 3.45711e-18)
(0.354134 0.116594 -4.62883e-17)
(0.39555 -0.0359192 -4.71443e-17)
(0.114081 0.0273458 -1.16179e-17)
(0.0399414 -0.0138956 -5.83787e-18)
(0.244057 -0.193075 0)
(0.329678 -0.0292052 2.31904e-17)
(0.0645311 -0.0081711 6.13244e-18)
(0.299417 -0.212337 0)
(0.319716 -0.145654 2.21572e-17)
(0.0979321 0.0119629 5.96318e-18)
(0.124921 0.104153 1.17214e-17)
(0.0296894 -0.0148723 -1.49267e-18)
(0.0623055 -0.0164239 -1.02771e-17)
(0.345028 -0.264145 -3.30991e-17)
(0.294347 -0.0686719 0)
(0.277323 -0.148816 1.06461e-17)
(0.395546 -0.153663 0)
(0.309515 0.193217 0)
(0.169842 -0.209326 0)
(0.336738 0.138037 0)
(0.378147 -0.214437 1.10516e-17)
(0.0134234 -0.0151813 3.44643e-17)
(0.108406 0.112841 -2.44572e-17)
(0.351055 -0.0721576 1.12241e-17)
(0.334909 -0.180302 0)
(0.391722 -0.0690123 3.35614e-17)
(0.395115 -0.125579 0)
(0.290001 -0.331849 -1.11441e-17)
(0.306918 -0.320889 1.11608e-17)
(0.342092 -0.213658 1.10704e-17)
(0.287084 0.202385 2.24222e-17)
(0.354385 -0.232629 1.10478e-17)
(0.292575 -0.180578 2.33757e-17)
(0.383318 -0.18317 -4.45356e-17)
(0.262942 -0.190736 0)
(0.31005 -0.265838 -1.10419e-17)
(0.390416 -0.14339 2.22706e-17)
(0.393329 -0.0863287 -2.23405e-17)
(0.317423 0.18009 0)
(0.269853 0.100358 2.3573e-17)
(0.365448 -0.046726 2.2561e-17)
(0.303645 -0.0238508 -4.19141e-17)
(0.267636 -0.0574541 0)
(0.379189 -0.0322562 2.25421e-17)
(0.316031 -0.0509047 0)
(0.2812 0.120528 0)
(0.128421 -0.151724 0)
(0.314526 -0.20358 0)
(0.377672 0.0286977 3.3609e-17)
(0.31636 -0.235656 0)
(0.373098 -0.1999 1.11702e-17)
(0.33766 -0.0408662 -2.3669e-17)
(0.339569 -0.246092 1.10277e-17)
(0.322593 -0.131372 -2.05439e-17)
(0.357142 0.0850682 -2.25475e-17)
(0.345163 -0.0164041 0)
(0.278203 -0.318118 -2.22369e-17)
(0.370561 -0.0611694 -3.36359e-17)
(0.316951 0.154967 0)
(0.290085 0.143046 0)
(0.354652 -0.199754 0)
(0.328132 -0.293489 2.21465e-17)
(0.324507 0.12775 2.53716e-21)
(0.265784 0.13236 -2.49486e-21)
(0.270107 0.111728 -2.32923e-17)
(0.328629 -0.276881 0)
(0.3053 0.143034 0)
(0.295535 0.19182 0)
(0.311115 0.168312 0)
(0.301957 0.0286586 0)
(0.311502 -0.305388 -1.10972e-17)
(0.278222 0.131918 -2.29206e-17)
(0.380996 -0.00194988 3.36816e-17)
(0.369303 0.0582644 -1.12436e-17)
(0.200239 0.285109 2.24682e-17)
(0.308828 0.129701 -1.11992e-17)
(0.2575 0.228122 1.13839e-17)
(0.294395 0.119029 -1.12569e-17)
(0.263077 -0.249444 0)
(0.371314 -0.0182368 -2.25227e-17)
(0.371287 0.0107739 -4.47107e-17)
(0.253999 0.182678 0)
(0.365844 0.0397896 -2.24092e-17)
(0.33542 0.061322 -2.28502e-17)
(0.355761 0.0671768 0)
(0.380514 -0.0970092 0)
(0.27321 0.198932 4.07857e-21)
(0.195498 0.215225 1.02824e-17)
(0.369758 -0.167385 0)
(0.309808 0.102932 -3.37499e-17)
(0.378891 -0.112604 0)
(0.267187 0.220958 0)
(0.254396 -0.367219 -2.20073e-17)
(0.26462 0.207515 -2.24495e-17)
(0.341979 0.108368 0)
(0.267255 0.185631 -2.24564e-17)
(0.377279 -0.151703 -1.1145e-17)
(0.289054 0.178506 2.24117e-17)
(0.35676 -0.0877922 -2.29559e-17)
(0.342414 0.0916063 2.25217e-17)
(0.344193 -0.166309 0)
(0.24697 0.191091 -1.12382e-17)
(0.234782 0.169217 -3.9807e-17)
(0.285256 0.154571 0)
(0.247822 0.171635 0)
(0.326513 0.112539 3.36253e-17)
(0.264729 -0.354637 -2.16515e-17)
(0.208108 0.229241 0)
(0.274319 0.176035 2.24538e-17)
(0.182008 0.238816 4.74668e-17)
(0.295643 0.167364 -2.2404e-17)
(0.297101 -0.293571 0)
(0.26238 0.142676 4.78842e-17)
(0.251557 0.203546 1.12172e-17)
(0.290537 -0.272401 0)
(0.225822 0.226204 2.24711e-17)
(0.29526 0.0819405 -1.23525e-17)
(0.207956 0.248952 0)
(0.323828 0.0834829 0)
(0.310025 0.041752 0)
(0.24601 0.247333 1.97177e-17)
(0.313002 0.0201605 -1.08776e-17)
(0.350886 -0.134764 -2.72716e-17)
(0.243323 0.211307 0)
(0.213392 0.212398 1.15686e-17)
(0.245875 0.223358 -2.24345e-17)
(0.228494 0.177246 3.80134e-17)
(0.276526 -0.298048 0)
(0.209867 0.200845 -9.77645e-18)
(0.224193 0.214813 0)
(0.33048 0.0452108 0)
(0.241674 0.25918 0)
(0.329869 -0.105387 0)
(0.309799 0.0887108 1.13046e-17)
(0.343359 0.0365343 0)
(0.232105 0.207635 0)
(0.335141 0.0206185 -1.13453e-17)
(0.334627 -0.00465549 -1.11515e-17)
(0.265826 0.163362 0)
(0.216806 0.243067 0)
(0.271294 0.153291 0)
(0.346783 0.0105076 4.48235e-17)
(0.321693 0.0682275 3.41437e-17)
(0.252714 0.162468 0)
(0.352906 -0.118809 1.92719e-17)
(0.166227 0.290562 -2.27094e-17)
(0.236792 0.230275 2.24407e-17)
(0.206017 0.25847 -2.2508e-17)
(0.198141 0.286232 5.04032e-21)
(0.216598 0.194021 0)
(0.22891 -0.354132 0)
(0.143227 0.277133 2.18655e-17)
(0.15459 -0.358477 0)
(0.234636 0.188992 0)
(0.255388 0.241216 -1.99188e-17)
(0.209199 -0.283154 -2.82975e-17)
(0.230976 0.263542 0)
(0.194392 0.283244 -2.23956e-17)
(0.228885 0.196926 0)
(0.236077 0.241871 -2.24374e-17)
(0.209653 0.27157 -1.12267e-17)
(0.200148 0.275785 4.492e-17)
(0.226182 0.247091 0)
(0.217342 0.232792 -2.24536e-17)
(0.178357 0.276182 1.13169e-17)
(0.223566 0.257779 0)
(0.138802 0.308388 2.83936e-17)
(0.213873 0.26237 -1.12356e-17)
(0.18482 0.278135 -2.25795e-17)
(0.249116 0.141313 -2.10904e-17)
(0.129202 0.312981 -1.14258e-17)
(0.244346 0.150997 0)
(0.191048 0.252186 -2.27396e-17)
(0.194546 -0.398039 0)
(0.143419 -0.407312 3.28684e-17)
(0.197017 0.264017 3.37996e-17)
(0.161822 0.279416 2.26772e-17)
(0.207616 0.283151 4.51046e-17)
(0.225095 0.271639 -1.1909e-17)
(0.209019 0.283835 -2.27134e-17)
(0.163396 0.269306 0)
(0.0623925 -0.322616 0)
(0.169198 0.282339 -2.2687e-17)
(0.128355 0.322388 4.72522e-17)
(0.21568 0.276051 0)
(0.193847 0.27259 -3.38034e-17)
(0.132992 -0.401852 -9.27421e-21)
(0.154052 0.304542 1.14371e-17)
(0.172693 0.264261 0)
(0.180708 0.267479 1.14861e-17)
(0.154012 0.262685 -3.41641e-17)
(0.133206 0.25245 0)
(0.107268 -0.422921 2.55272e-17)
(0.117741 0.369878 -4.85762e-17)
(0.00968011 -0.403414 0)
(0.189611 0.261398 0)
(0.177192 -0.395039 -2.2246e-17)
(0.163491 -0.404303 0)
(0.143888 0.264979 2.27497e-17)
(0.127903 0.355107 6.55901e-19)
(0.0774788 -0.365023 -2.44228e-17)
(0.145192 0.310927 -2.29783e-17)
(0.314616 -0.210575 -1.83695e-17)
(0.146514 -0.39439 2.23491e-17)
(0.0106216 -0.439151 0)
(0.133665 0.341908 0)
(0.138862 0.331401 7.72188e-17)
(0.00683169 -0.33175 -4.96594e-17)
(0.133169 0.291137 -4.92376e-17)
(0.214644 -0.0740336 0)
(0.101869 0.381451 2.41408e-17)
(0.10284 -0.389212 -3.4904e-17)
(0.11598 -0.382871 3.51103e-17)
(0.00399794 -0.223984 0)
(0.0872465 0.15862 -2.50148e-17)
(0.0816148 0.383969 -7.46248e-17)
(0.00713608 -0.225754 -2.35843e-17)
(0.230334 0.273119 3.34222e-21)
(0.122622 0.35626 2.10757e-17)
(0.088896 -0.364081 -2.40071e-17)
(0.218799 0.278659 1.16057e-17)
(0.13168 0.344603 0)
(0.26587 0.250901 -2.64726e-17)
(0.109757 0.366889 5.46062e-17)
(0.138061 0.333007 -2.60794e-17)
(0.142323 0.320951 -4.2739e-21)
(0.206437 -0.0834656 3.7022e-17)
(0.295359 -0.0132588 -3.52974e-21)
(0.381881 -0.0691249 4.40157e-17)
(0.301645 0.00798892 1.61796e-17)
(0.171498 -0.384688 0)
(0.0107333 -0.282066 2.50411e-17)
(0.125851 0.264651 0)
(0.265351 0.0783972 -1.49293e-17)
(0.0895044 0.369499 -7.82753e-19)
(0.015409 -0.156143 0)
(0.0885811 0.357584 7.20996e-19)
(0.125021 0.338274 2.52236e-17)
(0.0739187 0.157901 -2.96811e-17)
(0.00978023 -0.166286 -7.1276e-18)
(0.0547693 -0.294802 5.95675e-18)
(0.175343 -0.0362621 3.52542e-17)
(0.26127 0.0673415 2.61678e-17)
(0.239967 0.131839 -2.79371e-17)
(0.193441 -0.021359 2.1826e-17)
(0.197769 -0.359624 0)
(0.242 -0.0397684 1.31724e-17)
(0.283137 0.0507342 0)
(0.161245 0.303916 2.08898e-17)
(0.0929405 -0.309686 0)
(0.199815 0.245349 -4.98221e-17)
(0.314222 0.1435 -2.67782e-17)
(0.31063 -0.00235036 -2.20253e-17)
(0.0457721 -0.102248 -1.91433e-17)
(0.278218 -0.0807116 0)
(0.300057 0.0254492 1.23782e-18)
(0.233551 0.0585831 0)
(0.262206 -0.111028 -3.8942e-17)
(0.226175 -0.0909108 -1.85104e-17)
(0.240733 -0.0845207 -6.51201e-18)
(0.0127072 -0.0420785 4.87509e-17)
(0.110036 -0.178501 0)
(0.0841503 -0.319142 2.05983e-17)
(0.257236 0.256329 0)
(0.220625 -0.106388 -3.53145e-17)
(0.0141261 -0.374223 -2.64375e-17)
(0.357513 0.10361 2.47699e-17)
(0.299863 0.0498442 0)
(0.294398 0.0696494 -6.50505e-18)
(0.110928 0.307895 0)
(0.217736 0.243847 2.4524e-17)
(0.0304294 -0.372556 7.79861e-19)
(0.00926459 -0.280661 5.2609e-17)
(0.193099 -0.382605 0)
(0.0181428 -0.425783 2.25816e-17)
(0.0144887 -0.372372 2.41757e-17)
(0.0310574 -0.438281 1.26921e-17)
(0.0867448 -0.205824 -1.86517e-21)
(0.310096 -0.00435268 -3.40049e-17)
(0.117705 0.337174 0)
(0.307876 -0.2571 0)
(0.0620688 0.2682 -1.25943e-17)
(0.345248 0.1176 2.54293e-17)
(0.0716512 0.250217 0)
(0.0246952 -0.086017 1.24891e-17)
(0.0792436 0.234466 -2.10465e-17)
(0.0234951 -0.0830868 0)
(0.0553048 -0.42309 0)
(0.038904 0.175803 -1.63104e-21)
(0.0514988 0.15178 2.18666e-17)
(0.0121676 -0.0412459 1.22085e-17)
(0.050819 -0.371896 -1.24702e-17)
(0.38218 -0.143809 0)
(0.163618 0.247925 2.4682e-17)
(0.276122 -0.301081 -1.24819e-17)
(0.117784 0.124578 -1.24919e-17)
(0.129955 0.11192 0)
(0.143296 0.0858934 0)
(0.159775 0.063525 1.11791e-17)
(0.103286 0.168514 -2.39691e-17)
(0.0711705 0.0685634 0)
(0.140893 0.0951596 2.09373e-17)
(0.128603 -0.0803009 0)
(0.111924 0.133448 1.23559e-17)
(0.0736814 -0.0912318 -2.39358e-17)
(0.143887 0.0756217 3.19473e-18)
(0.147926 0.0695201 1.91744e-17)
(0.104645 0.152551 -2.53912e-17)
(0.107379 0.140967 -2.56696e-17)
(0.0664201 -0.0863072 0)
(0.136279 0.104453 2.34147e-17)
(0.0769257 0.0670574 0)
(0.0853452 0.0443738 -3.01783e-18)
(0.0937865 0.0380593 0)
(0.0640287 0.0929429 0)
(0.0658695 0.078413 -1.2419e-17)
(0.071218 -0.0506872 -9.97866e-22)
(0.0352418 -0.0461149 0)
(0.0838113 0.0568119 -1.97509e-17)
(0.389614 -0.0355502 -1.30949e-17)
(0.210906 0.183801 -2.42768e-17)
(0.301669 0.126371 0)
(0.00438704 -0.331868 -6.64775e-21)
(0.171814 0.232999 -3.9572e-17)
(0.225567 0.262254 -2.84445e-17)
(0.0258964 -0.287074 0)
(0.11385 -0.0883979 -4.86087e-17)
(0.153924 0.250524 -1.2061e-17)
(0.108996 0.320682 0)
(0.227196 0.159047 2.45358e-17)
(0.0853565 -0.4334 -1.35368e-17)
(0.142489 0.238842 2.74855e-17)
(0.0643972 -0.0495676 2.46412e-17)
(0.284277 0.23193 1.29558e-17)
(0.265139 0.244761 3.80875e-17)
(0.243296 0.161489 1.36707e-17)
(0.243133 -0.168313 0)
(0.136962 -0.0746394 -4.84224e-17)
(0.149125 -0.0699678 -5.91672e-18)
(0.145607 -0.182066 3.6862e-17)
(0.00780142 -0.403065 -2.50854e-17)
(0.393779 -0.0803197 -4.11644e-17)
(0.258954 0.155519 2.02363e-17)
(0.129987 0.341222 -3.33275e-17)
(0.042533 -0.398394 6.38973e-18)
(0.370595 0.100972 2.47671e-17)
(0.359286 0.130325 -3.72412e-17)
(0.256573 0.123027 5.21407e-17)
(0.156028 -0.13024 0)
(0.117385 -0.424802 -2.60821e-17)
(0.0941153 0.200217 4.22752e-17)
(0.15221 -0.168584 -2.44981e-17)
(0.0916188 -0.43693 1.42841e-17)
(0.268606 0.220909 -6.42075e-18)
(0.0312853 0.19447 0)
(0.304707 0.0634363 -1.26047e-17)
(0.249402 -0.334121 -2.6311e-17)
(0.183407 -0.206355 2.47347e-17)
(0.107488 -0.411212 1.58788e-17)
(0.0596755 0.127871 -2.73187e-17)
(0.0839205 -0.266781 1.43067e-17)
(0.367858 0.0306269 -2.0039e-17)
(0.0577102 -0.283019 0)
(0.176512 0.192732 4.63999e-17)
(0.269415 -0.0485724 -2.5313e-17)
(0.288382 -0.0315397 3.23052e-17)
(0.0815276 -0.0448046 3.09182e-17)
(0.403624 -0.040388 6.3891e-18)
(0.395743 -0.0049945 -1.35695e-17)
(0.165589 -0.0151066 -2.87131e-17)
(0.172127 -0.00461222 2.73383e-17)
(0.247165 0.263923 0)
(0.121281 0.117328 0)
(0.0138654 -0.423395 -2.75349e-17)
(0.00525668 -0.0341601 -1.38583e-17)
(0.00904497 -0.00273909 -2.80425e-17)
(0.0180692 -0.441046 1.21552e-21)
(0.118168 -0.16 1.26139e-17)
(0.119488 -0.0848576 -2.56094e-17)
(0.00239812 -0.0864017 0)
(0.0264645 -0.0102691 0)
(0.223539 -0.197089 4.57509e-17)
(0.0123183 0.218719 -4.57431e-17)
(0.0455857 -0.0488165 -1.29953e-17)
(0.167067 0.200329 1.48986e-17)
(0.00128187 -0.036117 2.63016e-17)
(0.0762045 0.306468 2.97368e-17)
(0.239337 0.100127 0)
(0.217358 0.174374 0)
(0.213732 0.0950091 -1.33327e-17)
(0.0376193 0.332519 1.54444e-17)
(0.191398 0.204362 -1.21436e-17)
(0.0308973 -0.0817317 -2.01338e-17)
(0.0560939 -0.206811 1.32605e-17)
(0.222827 0.0327463 -3.30249e-18)
(0.217595 0.0396273 -4.53836e-17)
(0.107647 0.358183 -3.16407e-17)
(0.182688 -0.161144 7.65819e-18)
(0.16929 0.220837 3.27458e-17)
(0.0866032 -0.026737 -4.36722e-22)
(0.329728 -0.254956 2.25877e-17)
(0.15774 -0.0438279 2.70198e-17)
(0.2183 0.135692 -1.28999e-17)
(0.090534 0.309942 -4.32607e-17)
(0.0155596 -0.19696 2.82058e-17)
(0.157739 -0.0494452 -1.33188e-17)
(0.146614 -0.0604034 -2.66408e-17)
(0.189846 -0.188652 2.29133e-17)
(0.137002 0.21699 -3.1501e-18)
(0.0418398 -0.0470342 6.54869e-18)
(0.0871088 0.214777 5.8258e-18)
(0.154382 0.0259694 0)
(0.148847 0.0281743 8.88638e-18)
(0.114818 0.351686 1.4172e-17)
(0.206185 -0.172766 3.08267e-17)
(0.139743 0.329955 0)
(0.236954 -0.0544438 -5.51462e-18)
(0.375369 -0.163426 3.09633e-17)
(0.360817 -0.100648 1.72217e-17)
(0.151766 0.310421 0)
(0.00475063 -0.0365052 -2.75597e-17)
(0.281781 -0.280533 1.4095e-17)
(0.0895186 -0.00984398 -3.68509e-18)
(0.137946 0.332804 -1.87628e-18)
(0.246571 0.255126 6.84664e-18)
(-0.00172456 -0.0347698 3.02177e-17)
(0.135966 0.277911 0)
(0.344562 -0.146045 0)
(0.288939 -0.2382 0)
(0.238515 0.26311 -1.5111e-17)
(0.198556 0.196296 0)
(0.282674 0.214681 2.51722e-17)
(0.0605184 -0.399612 -1.45115e-17)
(0.00135531 -0.0832824 -1.53614e-17)
(0.147987 0.308447 0)
(0.37408 -0.110648 -7.63597e-18)
(0.183426 0.151052 0)
(0.281861 0.182458 8.59985e-19)
(0.035134 0.0405103 1.48584e-17)
(0.00633008 -0.0901019 2.16174e-17)
(0.136055 -0.28699 0)
(0.0619784 -0.160752 2.7869e-17)
(0.152288 0.314357 0)
(0.146828 0.32028 0)
(0.0537804 -0.341564 1.82901e-18)
(0.360866 -0.0793263 -2.68722e-17)
(0.0341243 -0.0873312 -1.60502e-18)
(0.180291 -0.117045 0)
(0.29933 0.153824 5.27591e-17)
(0.152802 0.298643 1.50519e-18)
(0.0545 0.291093 -1.35199e-17)
(0.100424 -0.0929961 0)
(0.232555 0.148284 -1.19303e-17)
(0.127798 -0.250384 -3.19198e-17)
(0.200939 -0.122725 2.97797e-17)
(0.176342 0.215306 1.42597e-17)
(0.152138 -0.259832 1.29948e-17)
(0.2785 0.233955 -1.40286e-17)
(0.0128431 -0.0862013 -2.89307e-17)
(0.256804 -0.162922 -2.69236e-17)
(0.197423 0.129135 0)
(0.262556 -0.124462 1.8987e-17)
(0.156085 -0.330493 6.47752e-18)
(0.389499 -0.104914 2.51968e-17)
(0.101402 0.322665 6.86615e-18)
(0.11248 0.343284 0)
(0.323873 -0.175421 2.47773e-17)
(0.352957 -0.184205 4.01506e-17)
(0.358957 0.0125051 0)
(0.201516 -0.308971 4.10904e-18)
(0.0125281 -0.0371201 -1.8983e-17)
(0.34938 -0.0181761 0)
(0.0358586 -0.332117 -1.74629e-18)
(0.338155 0.145959 -2.52695e-17)
(0.257037 0.111854 -2.04145e-21)
(0.366817 0.113523 3.70187e-21)
(0.178927 -0.3338 -6.66832e-18)
(0.159185 -0.158091 -3.06419e-17)
(0.2445 0.0491668 3.37926e-17)
(0.144846 0.322233 5.98103e-17)
(0.243864 0.121032 -3.0995e-17)
(0.0793177 -0.0346548 4.54104e-17)
(0.318684 0.0124708 6.3715e-18)
(0.0356586 -0.163959 1.50545e-17)
(0.1322 0.34126 2.93207e-17)
(0.178971 -0.240023 0)
(0.238892 -0.14451 -4.17785e-17)
(0.129506 -0.155828 -2.62481e-17)
(0.166538 0.170304 7.29366e-18)
(0.284901 -0.213034 0)
(0.139565 0.329154 -3.15271e-17)
(0.172358 -0.217978 -3.06537e-17)
(0.317636 0.115648 0)
(0.0505081 -0.154026 1.67874e-17)
(0.0734936 -0.412042 1.84522e-17)
(0.222978 -0.33858 -1.5173e-17)
(0.196067 -0.228868 1.87256e-18)
(0.0690877 -0.278444 0)
(0.00503269 -0.437893 6.34323e-21)
(0.162491 0.236219 0)
(0.0790484 -0.0882887 2.72287e-17)
(0.158677 -0.228221 -3.81334e-18)
(0.216074 0.274098 1.54765e-17)
(0.00679263 -0.179781 0)
(0.0709634 0.12636 3.34222e-17)
(0.280502 -0.0313651 3.07283e-17)
(0.208166 -0.1848 -7.72458e-18)
(0.241656 -0.177991 -2.51017e-17)
(0.112081 -0.168804 -5.27015e-17)
(0.135829 0.334357 0)
(0.294691 -0.0437269 0)
(0.156254 0.208645 -3.23317e-17)
(0.143529 0.201531 4.20655e-17)
(0.370115 -0.130892 1.30825e-17)
(0.404949 -0.0193794 1.502e-17)
(0.164372 -0.244983 1.09326e-17)
(0.0084306 -0.174427 -1.6618e-17)
(0.0978455 0.351886 0)
(0.149899 0.223486 0)
(0.264719 -0.260381 0)
(0.11177 -0.434018 -1.07825e-18)
(0.0745763 0.00884288 1.74779e-17)
(0.283828 0.0662975 8.18407e-18)
(0.072454 0.367186 4.29256e-17)
(0.0890412 -0.25716 1.6072e-21)
(0.343556 -0.108743 3.22728e-17)
(0.245867 -0.13456 8.13693e-18)
(0.0454141 0.310867 -9.79688e-22)
(0.239085 0.267461 0)
(0.261409 -0.236496 -2.77566e-17)
(0.144519 0.322911 0)
(0.146912 0.319661 -2.8377e-17)
(0.275307 0.0542903 0)
(0.182869 -0.10486 2.43484e-17)
(0.204354 0.103207 -7.96553e-18)
(0.0708412 -0.191303 -1.7955e-17)
(0.253295 0.182772 0)
(0.0616463 0.344913 2.40756e-17)
(0.212462 -0.113998 7.99867e-18)
(0.149037 0.189037 3.29454e-17)
(0.0644152 -0.373383 0)
(0.179423 -0.303056 -3.17005e-17)
(0.22598 0.108057 7.7843e-18)
(0.0134904 -0.161524 -3.13494e-17)
(0.186265 -0.18614 -3.34527e-17)
(0.147055 -0.140536 0)
(0.0561854 -0.397449 -9.04173e-18)
(0.348422 -0.133896 -2.15541e-17)
(0.36107 -0.16525 -2.09247e-17)
(0.144345 -0.223681 4.07316e-17)
(0.0139331 -0.0799011 3.52011e-17)
(0.274953 0.196431 0)
(0.0786939 -0.382556 -1.14495e-17)
(0.0829054 -0.403063 -3.50977e-17)
)
;

boundaryField
{
    back
    {
        type            empty;
    }
    front
    {
        type            empty;
    }
    top
    {
        type            codedFixedValue;
        value           nonuniform List<vector> 10((0 -0.400846 0) (0 -0.436085 0) (0 -0.330367 0) (0 -0.22465 0) (0 -0.22465 0) (0 -0.330367 0) (0 -0.400846 0) (0 -0.0836931 0) (0 -0.0836931 0) (0 -0.436085 0));
        name            ParabolicTimeDependentU_max;
        code            #{
		const vectorField& Cf = patch().Cf();
		vectorField& field = *this;

		const scalar r = 12.0*1e-3;