/*--------------------------------*- C++ -*----------------------------------*\
  =========                 |
  \\      /  F ield         | OpenFOAM: The Open Source CFD Toolbox
   \\    /   O peration     | Website:  https://openfoam.org
    \\  /    A nd           | Version:  9
     \\/     M anipulation  |
\*---------------------------------------------------------------------------*/
FoamFile
{
    format      ascii;
    class       surfaceScalarField;
    location    "1.57";
    object      phi;
}
// * * * * * * * * * * * * * * * * * * * * * * * * * * * * * * * * * * * * * //

dimensions      [0 3 -1 0 0 0 0];

internalField   nonuniform List<scalar> 
1363
(
-3.06193e-07
-6.52934e-08
3.71487e-07
-1.6153e-07
2.64745e-07
-1.03215e-07
9.86967e-07
-6.69404e-07
-3.17562e-07
-1.60031e-07
4.00319e-07
-2.40288e-07
8.51181e-07
1.35786e-07
6.31244e-07
-8.49858e-08
-5.46258e-07
-3.65498e-07
3.65498e-07
3.05015e-07
3.26229e-07
-2.63683e-07
2.81095e-07
-1.74121e-08
1.16002e-08
-2.75283e-07
-3.48655e-07
3.12803e-07
3.58523e-08
3.98159e-07
-4.67092e-07
6.89331e-08
2.84775e-07
-4.44806e-07
-4.28455e-07
4.02107e-07
2.63482e-08
1.41605e-07
2.56554e-07
-2.07809e-07
4.62793e-08
9.52245e-08
-3.62768e-07
2.67544e-07
-1.67123e-07
-1.39071e-07
4.42659e-07
1.37406e-07
-5.80065e-07
-6.63513e-08
6.63513e-08
1.18628e-07
-2.3404e-08
-1.28975e-07
-3.38117e-07
5.39723e-07
-3.51638e-07
-1.88086e-07
-8.34696e-08
5.1093e-07
-4.27461e-07
-1.95827e-07
-1.52828e-07
3.43905e-07
-4.27374e-07
8.11813e-07
-7.31879e-07
-7.99341e-08
6.99117e-08
4.69812e-07
-4.5991e-07
6.07929e-07
-1.48019e-07
-2.95159e-08
-2.94891e-07
3.24407e-07
-2.05676e-07
1.02505e-07
1.0317e-07
2.23308e-08
7.89482e-07
1.07953e-07
-5.67863e-07
-6.48346e-07
1.02944e-07
5.45401e-07
7.21274e-07
-6.17393e-07
-1.03881e-07
-3.59946e-07
-5.75655e-07
9.35601e-07
2.07158e-07
-4.13334e-07
2.06177e-07
2.74774e-07
-5.48754e-08
-2.19898e-07
-2.60856e-07
4.68013e-07
8.5882e-08
4.25048e-07
5.7662e-07
-5.51911e-07
-2.4709e-08
9.77209e-07
-2.05654e-07
-7.71556e-07
-3.19541e-07
4.05423e-07
-1.84357e-07
-1.81142e-07
2.34597e-07
1.30901e-07
5.08211e-07
-3.12933e-08
-4.76917e-07
-5.88855e-07
8.34698e-08
5.05385e-07
-1.83689e-08
-6.29977e-07
-1.22073e-08
5.88828e-07
-1.8701e-07
-2.41446e-07
5.08654e-07
-6.59949e-08
-2.05923e-07
-1.45715e-07
-9.41032e-07
5.81086e-07
5.83808e-07
-2.28441e-07
-3.55366e-07
3.64232e-07
-3.52632e-07
2.04847e-07
-3.11623e-07
1.06776e-07
-2.4385e-07
2.4385e-07
4.54021e-09
3.59692e-07
-1.8797e-07
-5.58802e-08
1.13039e-08
3.28533e-07
-3.39837e-07
-2.2235e-07
1.92834e-07
8.08917e-07
-6.90594e-07
-1.18323e-07
-5.61739e-08
1.59118e-07
-3.89258e-07
3.23964e-07
2.77533e-07
-2.75891e-09
1.37664e-07
-1.37662e-08
-1.23898e-07
7.70379e-08
6.224e-07
-5.58716e-07
-6.36833e-08
8.67962e-07
-6.63115e-07
6.17772e-07
-2.87056e-07
-3.30717e-07
1.63053e-07
1.01692e-07
-1.94255e-07
2.07112e-07
-1.28565e-08
-1.75231e-07
1.75231e-07
-4.94731e-08
-2.45418e-07
4.62509e-07
1.21299e-07
2.75763e-08
-9.39276e-08
4.59927e-08
2.03586e-08
3.06801e-08
-2.34493e-07
2.88174e-08
-1.16477e-07
-9.13324e-08
4.79398e-08
1.61214e-07
-2.09154e-07
4.4641e-07
-2.21434e-07
2.5492e-08
1.95942e-07
2.11873e-08
2.62415e-08
-4.00077e-08
-9.84918e-07
9.46435e-07
3.8483e-08
-6.69577e-08
7.82616e-08
-1.74323e-08
4.68005e-08
-2.93682e-08
9.64208e-08
3.05686e-07
-1.44348e-07
-7.70862e-08
1.79869e-07
7.9734e-07
2.97142e-07
-4.62211e-08
-2.50921e-07
-3.6158e-07
3.6612e-07
-2.97556e-07
-1.40668e-08
-2.92479e-07
3.99255e-07
-2.09629e-07
1.4757e-07
6.20582e-08
4.68323e-07
-6.73976e-07
3.85062e-08
-5.59386e-08
-4.14134e-07
4.62074e-07
5.51828e-08
2.13649e-07
-6.9624e-09
-2.06687e-07
4.46353e-08
-4.06215e-07
-8.02013e-08
4.33416e-07
-3.28316e-07
3.58373e-08
-6.75263e-08
2.6036e-07
2.40444e-08
4.84166e-07
-4.80148e-08
6.06913e-07
-5.58898e-07
5.13152e-08
5.71084e-07
4.16356e-08
-6.00352e-07
1.02925e-07
7.65037e-07
7.51666e-08
-7.38282e-07
-1.30641e-07
-6.39656e-08
-1.3029e-07
5.46018e-08
2.58201e-07
2.97142e-07
7.5923e-08
-3.3631e-07
2.60387e-07
3.09637e-07
9.06816e-08
-1.58058e-07
2.13241e-07
1.4865e-07
-7.58718e-07
6.10068e-07
-2.13241e-07
1.45715e-07
-8.47238e-07
1.81035e-08
8.29135e-07
-3.19541e-07
-1.28952e-07
1.96418e-07
-1.81856e-07
-5.2637e-08
-2.05923e-07
5.13376e-07
-4.05423e-07
-5.13376e-07
3.6679e-07
1.46587e-07
-9.41032e-07
-2.84453e-07
4.2186e-07
2.84453e-07
-2.87482e-07
3.02835e-09
-4.2186e-07
5.0533e-07
-5.9828e-07
5.79912e-07
5.9828e-07
-5.46965e-07
2.87482e-07
-3.18775e-07
9.22928e-07
-8.20004e-07
-5.0533e-07
5.46965e-07
-7.44837e-07
8.20004e-07
7.44837e-07
-7.57044e-07
-5.79912e-07
7.57044e-07
-1.77133e-07
3.18775e-07
-3.6679e-07
-5.4718e-08
1.26025e-07
-3.07881e-07
3.46973e-07
-4.19578e-08
-1.42815e-07
1.38336e-07
-4.25392e-07
9.46446e-08
1.12467e-07
2.88168e-07
3.662e-07
-6.54367e-07
-3.15508e-07
-6.6941e-07
2.36512e-07
1.10461e-07
1.51639e-07
-5.93034e-07
4.41395e-07
5.46793e-07
-5.93014e-07
-4.95196e-07
5.98287e-07
-1.03091e-07
-6.7818e-07
6.07865e-08
-7.65836e-07
5.0498e-07
-5.31749e-09
3.1559e-08
1.68726e-08
3.30073e-08
-4.98799e-08
-7.77679e-09
-1.82052e-07
-2.52367e-08
1.99192e-08
-8.8824e-07
1.22404e-07
-4.31839e-07
1.91551e-07
7.16614e-08
-5.38821e-08
-1.77793e-08
4.30349e-07
-2.7871e-07
1.96378e-08
-4.28036e-07
4.08398e-07
6.46155e-08
1.49034e-07
8.26926e-07
-3.9351e-07
1.29996e-07
-9.49667e-08
-5.88922e-08
-1.49454e-07
-8.2201e-08
3.30272e-07
1.50804e-07
7.9563e-07
-4.62822e-07
1.9532e-07
2.67502e-07
-7.01397e-09
1.54584e-07
-2.74204e-07
-1.88618e-07
1.34796e-08
-3.11036e-07
-5.93402e-07
1.84599e-07
4.08803e-07
-5.35394e-07
4.01975e-08
3.49534e-07
2.58395e-07
-1.25167e-07
-3.98082e-07
-2.16596e-07
3.03595e-07
-2.5013e-07
-5.98115e-08
3.09942e-07
-5.94703e-07
1.51575e-07
4.43128e-07
6.42976e-07
-9.58484e-07
7.56175e-07
-5.71575e-07
9.36171e-07
-7.45305e-07
-1.90867e-07
2.51647e-07
5.04528e-07
6.48513e-08
2.65421e-07
4.39762e-08
5.9194e-08
-1.70927e-07
-4.23776e-07
4.41381e-07
-1.56606e-07
5.82891e-07
-4.35987e-07
-1.46904e-07
-3.68269e-07
-1.83643e-07
2.84493e-07
-2.84493e-07
-1.58058e-07
1.99069e-07
2.42312e-07
-1.74134e-07
3.20639e-09
-2.32772e-07
-1.49685e-07
-1.63521e-07
3.17054e-07
-7.18405e-07
8.6998e-07
-3.50483e-08
1.59115e-07
-1.89376e-07
3.88445e-07
-2.17129e-07
3.96165e-07
-1.79036e-07
-9.41906e-07
8.23583e-07
-4.81081e-08
-3.63436e-07
4.32203e-07
-6.87672e-08
-3.2844e-07
9.71416e-07
8.87908e-07
-5.43626e-07
-3.44282e-07
-6.06648e-07
1.70661e-07
-4.76907e-07
-1.29741e-07
7.73708e-08
5.49906e-07
-6.27277e-07
5.6421e-09
-3.69078e-07
-7.00422e-07
9.52068e-07
3.96914e-07
-1.38944e-07
-2.57971e-07
2.01508e-08
-2.01508e-08
4.87977e-07
-4.87977e-07
-1.45523e-07
-7.96383e-07
2.12716e-07
6.99914e-07
-9.12631e-07
2.5196e-07
1.5726e-07
-4.09219e-07
-8.01166e-08
3.83712e-07
-8.40435e-07
1.2203e-07
3.88609e-07
-3.88609e-07
2.64559e-08
-2.64559e-08
5.09574e-07
2.00794e-07
-3.9017e-07
6.47325e-07
2.40583e-07
7.62622e-07
2.95936e-07
-6.75375e-07
1.98468e-07
-5.18115e-07
4.04492e-07
4.22434e-07
-8.77297e-07
-8.20763e-08
9.59373e-07
4.9058e-07
-2.23079e-07
-2.58393e-07
6.67196e-07
-1.95012e-07
1.77383e-07
-9.19159e-07
7.41777e-07
3.28147e-07
1.66195e-07
7.90648e-07
3.27329e-08
-1.96254e-07
1.88995e-07
-9.343e-07
-3.3648e-07
8.41008e-07
2.49501e-07
-7.82498e-07
4.9866e-07
4.53408e-07
-5.62187e-07
-3.90746e-07
9.52933e-07
2.32187e-07
-3.77129e-07
-2.50148e-07
3.93373e-07
-9.5556e-07
-9.00263e-07
-4.47497e-07
9.46157e-07
-4.28325e-07
-4.90835e-07
3.65501e-07
7.43728e-07
-1.10923e-06
-2.09226e-08
1.79091e-08
7.23868e-07
6.91204e-07
-6.73295e-07
-9.42393e-07
9.23416e-07
1.89773e-08
8.02389e-09
-1.31468e-07
9.55051e-07
-6.8132e-07
-4.48272e-07
8.41645e-07
-8.82498e-07
-3.13239e-07
1.19574e-06
-8.62709e-07
6.71843e-07
3.75163e-07
-5.81086e-07
-8.25838e-07
2.50183e-07
-4.13561e-07
7.88724e-07
-1.10725e-06
2.24754e-07
6.75388e-07
-4.3999e-07
-2.35398e-07
-6.1974e-07
6.11963e-07
-9.10915e-08
1.05395e-06
-9.62855e-07
-1.13762e-06
1.04653e-06
6.91575e-07
2.54582e-07
1.05708e-06
4.80031e-07
1.95358e-07
2.2349e-07
-2.15466e-07
-8.46202e-07
3.9793e-07
-1.75625e-07
3.09362e-07
-1.33736e-07
-8.64632e-07
5.51394e-07
-5.027e-08
1.50913e-07
-1.00643e-07
7.32524e-07
-6.09911e-07
-1.22613e-07
1.12784e-07
2.68646e-07
-8.78557e-07
-4.97957e-09
6.16942e-07
6.22192e-07
-8.56342e-08
-5.36558e-07
-5.33063e-08
-1.07785e-06
3.36673e-07
7.41179e-07
-9.60454e-07
3.84362e-07
5.76092e-07
8.70778e-08
5.35114e-07
3.03553e-07
6.5582e-07
-1.06104e-06
3.42488e-07
7.18557e-07
-2.12942e-07
2.12942e-07
-9.39276e-08
-2.50921e-07
-1.81142e-07
5.20855e-08
-5.20855e-08
5.39381e-08
-5.39381e-08
-1.28952e-07
4.3281e-07
-9.69804e-07
5.36994e-07
-9.64663e-08
9.64663e-08
-2.74666e-07
2.74666e-07
-1.8797e-07
-9.4604e-08
9.4604e-08
1.65861e-07
-1.65861e-07
4.59927e-08
1.45116e-07
-1.45116e-07
2.34597e-07
1.96418e-07
1.98965e-07
2.45246e-08
3.94855e-07
4.95307e-07
-8.90162e-07
1.20516e-08
-1.20516e-08
4.7489e-07
-6.50516e-07
-1.20547e-06
4.33912e-07
1.33416e-07
-1.33416e-07
-5.21924e-07
8.19341e-08
5.55673e-07
-3.79847e-07
-1.75826e-07
-5.78644e-07
-7.44951e-07
1.3236e-06
-6.48479e-07
-4.29374e-07
-1.19011e-06
6.11469e-07
-3.55544e-07
-1.6638e-07
-7.29996e-07
-2.30458e-07
-1.21583e-08
1.10233e-07
-9.80744e-08
-6.24283e-08
-9.22928e-07
3.41132e-07
-2.54054e-07
9.94633e-08
-5.6067e-07
4.61206e-07
-8.81175e-07
4.17973e-07
-2.93124e-07
-1.24849e-07
-7.96714e-07
7.91734e-07
2.32847e-07
-7.91422e-07
7.40499e-07
5.09225e-08
-7.72658e-07
-3.93895e-07
8.80735e-07
-7.67951e-07
9.51661e-07
-6.83015e-07
-4.94914e-07
9.63333e-07
-6.42281e-07
-3.21052e-07
-4.80081e-08
1.58241e-07
-6.95105e-07
-4.95008e-07
-8.13034e-07
7.274e-07
-9.48426e-08
1.5482e-07
-8.66202e-07
7.11382e-07
8.09863e-07
-7.10399e-07
9.84306e-07
-6.47633e-07
2.52143e-07
5.87531e-07
-8.39674e-07
-1.82792e-07
4.86146e-07
-3.03354e-07
3.11357e-07
1.06355e-06
-6.79193e-07
-3.07465e-07
-2.97282e-07
6.04747e-07
4.42449e-07
-6.22258e-07
1.7981e-07
1.1444e-06
-8.01915e-07
-4.66303e-07
-9.43663e-08
3.47616e-07
1.30144e-06
-8.67523e-07
-6.89934e-07
5.65085e-07
8.40207e-08
3.12523e-10
9.44883e-07
-6.33526e-07
1.8371e-07
2.80318e-07
4.15076e-07
4.8146e-07
-6.64252e-07
-7.25342e-08
3.42025e-07
9.37697e-07
1.81114e-07
-7.19777e-07
5.38664e-07
-5.52492e-07
1.10462e-06
-5.52133e-07
7.87686e-07
-3.45238e-07
6.09436e-07
-1.38209e-06
1.78681e-07
-3.70116e-07
4.14407e-07
-7.62991e-07
5.96611e-07
-5.2204e-07
-1.38802e-07
4.2026e-07
5.50847e-07
-8.48128e-07
-4.30938e-07
1.01847e-06
-1.02138e-06
3.73752e-07
-1.10506e-06
4.25862e-07
9.38213e-07
6.66948e-09
8.43371e-07
-5.13375e-07
-7.27686e-07
1.24106e-06
-8.41417e-07
6.06019e-07
-1.3809e-06
-3.76939e-07
-4.62735e-07
-1.23038e-06
4.28468e-07
3.85206e-07
6.55896e-07
-1.40085e-06
-6.90649e-07
-6.06309e-07
-1.97906e-07
5.23265e-07
6.22413e-07
3.02186e-07
-9.24598e-07
4.99228e-07
-3.18114e-07
1.92157e-07
-1.34761e-08
9.64438e-07
4.17592e-07
1.87155e-07
-1.14728e-07
7.73311e-07
-6.58583e-07
-7.66311e-07
9.50021e-07
7.71462e-07
-8.10122e-07
6.58711e-07
-8.5135e-07
8.51663e-07
-2.68906e-07
8.0757e-07
1.0532e-06
-1.86604e-07
8.97986e-07
-7.34608e-07
-1.84764e-07
9.19372e-07
7.26198e-07
-1.22111e-06
7.69932e-07
-9.08734e-07
-5.88547e-07
7.0064e-07
-1.12093e-07
4.08536e-07
-9.21212e-07
-2.44806e-07
7.0008e-07
4.99611e-07
-6.02826e-07
-3.77741e-07
-6.95532e-07
9.7585e-07
-8.17155e-07
9.01176e-07
2.35692e-07
-1.5128e-07
-7.83945e-07
5.16472e-07
2.67473e-07
5.00632e-07
2.09539e-07
-6.45438e-07
9.39589e-07
-2.94152e-07
1.32866e-07
-4.98255e-08
-7.39556e-07
7.89381e-07
-9.72977e-07
3.66668e-07
9.0856e-07
-3.02541e-07
-4.51347e-07
1.1017e-06
-6.73231e-07
9.83224e-08
-8.08722e-07
-5.47115e-07
-3.03914e-07
1.02742e-06
6.04646e-07
-8.82946e-07
8.10412e-07
-9.47979e-07
4.1105e-07
6.82888e-07
-9.27694e-07
-3.12832e-08
3.56053e-07
5.83536e-07
-5.37529e-07
8.58387e-07
-3.20858e-07
2.27614e-07
6.91758e-07
-8.31681e-07
-4.60253e-07
-2.65091e-07
2.98019e-07
9.00214e-07
-1.27796e-06
1.9294e-07
5.07699e-07
9.60699e-07
-4.6518e-07
-5.04241e-07
9.69422e-07
5.79298e-08
-5.24233e-07
-9.26755e-07
5.36009e-07
7.50792e-07
-7.82075e-07
-9.15907e-08
5.91202e-07
2.95698e-07
-7.09242e-07
4.13544e-07
-1.43732e-07
-4.59093e-07
1.06976e-06
3.96285e-07
5.64414e-07
-3.9499e-07
-4.95173e-07
9.12756e-07
3.13472e-07
5.44915e-07
-9.13577e-07
5.18587e-07
-9.60353e-07
-8.31146e-07
4.85911e-07
-1.90213e-07
-5.22647e-07
-6.98281e-07
-3.95939e-07
-8.42013e-07
6.32474e-07
1.75096e-07
-8.84699e-07
6.19608e-07
-4.17587e-07
-5.09169e-07
7.30606e-09
-2.12073e-07
-6.64241e-07
4.08515e-07
-3.22186e-07
8.58195e-07
8.81208e-08
-1.09043e-07
-5.0107e-07
-4.12507e-07
-7.11268e-07
6.98328e-07
-3.74364e-07
8.97008e-07
-4.41769e-07
9.42206e-08
2.95656e-07
1.90255e-07
-3.21098e-07
8.22059e-07
5.49138e-07
-3.77941e-07
-1.71197e-07
2.2804e-07
4.04472e-07
-2.48196e-07
8.98452e-07
-6.50256e-07
7.00127e-07
9.51832e-07
-1.61184e-07
-7.66311e-07
7.13929e-07
-2.0623e-07
8.20364e-07
5.01856e-07
6.08651e-07
-1.9876e-08
5.38271e-07
3.19924e-07
-7.0009e-07
-2.3421e-07
-4.21706e-09
-1.04826e-07
2.76023e-07
-8.57681e-08
2.31475e-07
-9.25645e-07
2.25555e-07
1.818e-07
2.14365e-07
4.7996e-07
-1.51813e-07
8.42504e-07
-2.7832e-07
-9.28575e-07
8.42655e-07
-6.171e-07
-1.31387e-07
-2.46349e-07
3.21448e-07
-7.50993e-08
-8.71103e-07
-6.96462e-08
1.86122e-07
2.04552e-07
-5.91451e-07
-8.18774e-08
1.99228e-08
-5.01795e-07
3.82594e-07
1.40007e-07
2.48204e-07
1.76815e-07
3.3172e-08
-5.48086e-09
1.20141e-07
2.17919e-07
1.7599e-07
1.45994e-07
3.78537e-07
4.11324e-07
9.554e-08
-3.95649e-08
-5.5975e-08
-8.75534e-07
-2.83952e-07
4.26016e-07
-1.76515e-07
8.75849e-08
1.31364e-07
2.39371e-07
2.14617e-07
-8.24427e-07
-3.87132e-07
1.19809e-07
9.91399e-08
-1.42042e-07
5.62737e-08
2.06079e-07
8.94335e-08
-4.68623e-07
8.16608e-08
3.69677e-08
-9.4518e-07
1.1466e-07
5.96456e-07
8.66459e-08
8.89409e-09
3.7533e-07
-4.39285e-07
-3.19433e-07
-5.50426e-07
4.4818e-07
2.63574e-07
6.50695e-07
-2.76419e-07
-1.10838e-06
-1.13417e-07
-9.57575e-07
2.00576e-07
8.4876e-08
-3.13317e-07
9.67064e-08
-1.51582e-07
-2.48176e-07
1.74435e-07
6.94147e-08
-8.99273e-08
-1.86491e-07
-3.50578e-07
4.6445e-07
-8.92775e-07
-8.11169e-08
-9.74243e-08
2.60477e-07
-4.80011e-07
-4.60513e-07
2.71895e-07
4.9612e-07
1.48134e-07
-9.2246e-08
-5.58876e-08
-4.28058e-08
1.93694e-08
-6.95686e-08
-8.203e-08
-2.56087e-07
4.61586e-09
-4.28058e-08
-2.54434e-07
1.61916e-07
-8.0255e-08
7.62773e-08
-1.6651e-07
3.31883e-07
-7.14957e-08
4.93777e-07
-5.01083e-07
-2.315e-08
8.75117e-07
-6.27779e-08
-3.53034e-07
1.38057e-07
2.14977e-07
-1.55474e-07
-1.83634e-07
-2.0704e-07
-4.0017e-07
-1.93204e-07
-6.89057e-08
1.27318e-08
1.12399e-06
1.36982e-07
1.72379e-07
5.4366e-07
-5.56824e-08
8.17524e-08
-4.65647e-07
-1.94935e-08
3.96443e-08
4.65647e-07
1.94935e-08
2.09514e-07
5.4366e-07
1.80656e-07
-7.86968e-07
5.5651e-07
7.68581e-07
-5.27998e-07
3.03508e-08
-5.51552e-08
-4.13111e-08
2.8807e-08
-1.67554e-08
7.75776e-08
-1.00942e-07
-1.86337e-07
-6.45845e-08
-5.51552e-08
-2.38007e-08
-2.82848e-08
-6.4726e-09
6.04107e-08
1.16104e-07
-2.74795e-07
1.28832e-10
-7.75776e-08
-1.70264e-08
1.00942e-07
-6.33761e-09
1.86337e-07
-4.12201e-08
-1.16104e-07
-2.90123e-08
2.74795e-07
2.38007e-08
2.8807e-08
-6.4726e-09
1.70336e-08
-5.99517e-07
6.79323e-08
-3.79385e-07
6.77404e-07
2.85051e-07
-3.47829e-07
4.3676e-08
4.84304e-08
1.51482e-07
8.94095e-07
-5.16685e-07
6.32879e-08
-4.41532e-07
4.84304e-08
2.09443e-07
-4.04801e-07
3.67158e-07
-3.6413e-07
6.21717e-07
-1.11978e-07
5.80404e-08
1.11978e-07
-5.98416e-07
5.91177e-07
7.23918e-09
-8.68659e-07
-2.12907e-07
1.88885e-07
-5.06447e-07
3.29608e-07
5.45447e-07
-5.96369e-07
-4.41743e-07
3.2965e-07
3.29657e-09
-4.76297e-08
3.57929e-07
2.42554e-07
-6.56689e-07
3.056e-07
2.91588e-07
-5.82143e-07
5.82143e-07
-2.05282e-07
-6.22078e-07
-2.1417e-07
3.57929e-07
3.36511e-07
-4.6245e-07
3.0901e-07
-1.63661e-07
-2.64375e-07
1.1104e-07
-2.98195e-07
7.58213e-07
-4.37161e-07
-1.56411e-07
1.56411e-07
-2.82971e-08
-2.01663e-07
-6.13517e-08
6.13517e-08
-1.99617e-07
1.99617e-07
-2.23356e-07
2.02175e-08
9.87006e-08
-4.75391e-07
7.12061e-08
4.04185e-07
5.23887e-07
-5.23887e-07
1.61214e-07
1.28759e-07
2.7964e-07
3.30073e-08
-7.25092e-07
1.21378e-07
3.32065e-08
1.1504e-07
-4.66753e-07
-6.15008e-07
-1.78421e-08
-8.61377e-09
-1.52111e-07
-5.45756e-08
2.38501e-08
7.78419e-08
5.11731e-09
1.87328e-08
-9.31338e-07
-1.38418e-08
-1.88939e-07
-3.57319e-07
-5.26689e-07
1.47304e-07
1.74435e-07
1.48292e-08
1.81113e-07
6.43898e-08
-1.30829e-07
1.56966e-07
-1.56966e-07
-1.32553e-07
6.83947e-07
-5.06117e-07
-2.09154e-07
-5.111e-08
5.111e-08
-7.95552e-07
-4.72094e-07
1.05903e-07
8.7578e-09
-6.84109e-08
-3.37909e-07
5.34899e-07
-1.96989e-07
-5.76363e-07
2.17651e-07
3.58712e-07
-4.98799e-08
-1.03385e-07
2.79738e-07
-1.73836e-07
-3.13027e-07
-4.52514e-08
4.52514e-08
2.95329e-07
4.6721e-07
-4.5373e-07
1.50333e-08
1.57346e-07
-2.79766e-08
1.90945e-07
3.63179e-08
-2.81035e-07
2.92567e-07
-6.30476e-07
-3.10982e-07
-3.93176e-07
6.58596e-07
6.06479e-08
-2.53852e-07
-9.02304e-08
3.15421e-07
-2.58653e-07
1.04761e-08
1.78421e-08
1.70872e-07
2.77981e-08
7.66359e-08
1.65136e-07
5.73569e-09
7.99678e-07
-7.23042e-07
1.58983e-07
2.84233e-07
-2.75199e-07
5.22141e-07
-3.21012e-08
6.96116e-07
-1.91136e-07
-6.08542e-07
3.29521e-07
-5.08359e-08
2.37155e-07
-2.33949e-07
-2.09276e-08
6.68145e-07
-5.73924e-07
3.24119e-07
-6.55117e-08
1.5504e-07
6.33192e-08
6.75384e-07
1.4042e-07
-1.45806e-07
2.36487e-07
1.49406e-07
-6.77016e-07
6.00638e-07
3.97931e-07
-2.50627e-07
3.56711e-07
-7.39666e-08
1.35458e-07
-2.28552e-07
-2.09641e-07
-8.53886e-07
1.13432e-07
-3.93243e-07
-4.59968e-08
5.82554e-08
3.24179e-07
6.37761e-08
-9.41126e-08
1.20036e-07
-1.83803e-07
1.94279e-07
4.62851e-09
-2.2317e-08
)
;

boundaryField
{
    back
    {
        type            empty;
        value           nonuniform List<scalar> 0();
    }
    front
    {
        type            empty;
        value           nonuniform List<scalar> 0();
    }
    top
    {
        type            calculated;
        value           nonuniform List<scalar> 10(-3.90674e-07 -4.25019e-07 -3.21984e-07 -2.18949e-07 -2.18949e-07 -3.21984e-07 -3.90674e-07 -8.15693e-08 -8.15693e-08 -4.25019e-07);
    }
    outer_arc
    {
        type            calculated;
        value           uniform 0;
    }
    bottom
    {
        type            calculated;
        value           nonuniform List<scalar> 10(9.4075e-07 4.81872e-07 -2.76912e-08 -3.38061e-07 -7.89861e-07 1.15949e-06 -4.53988e-07 1.21156e-06 -2.98317e-07 9.90641e-07);
    }
    inner_arc
    {
        type            calculated;
        value           uniform 0;
    }
}


// ************************************************************************* //
