/*--------------------------------*- C++ -*----------------------------------*\
  =========                 |
  \\      /  F ield         | OpenFOAM: The Open Source CFD Toolbox
   \\    /   O peration     | Website:  https://openfoam.org
    \\  /    A nd           | Version:  9
     \\/     M anipulation  |
\*---------------------------------------------------------------------------*/
FoamFile
{
    format      ascii;
    class       volScalarField;
    location    "0.99";
    object      p;
}
// * * * * * * * * * * * * * * * * * * * * * * * * * * * * * * * * * * * * * //

dimensions      [0 2 -2 0 0 0 0];

internalField   nonuniform List<scalar> 
578
(
8.94801e-22
5.64178e-22
2.23134e-21
1.76037e-21
-2.8287e-22
2.1794e-21
1.26009e-21
-2.73949e-22
3.23699e-22
5.73832e-23
1.89119e-21
-1.38e-22
1.73665e-21
-7.6709e-23
1.19054e-21
1.35618e-21
1.19676e-21
1.20303e-21
-4.58922e-23
5.36765e-22
1.77556e-21
1.41547e-21
1.78939e-21
1.88768e-21
1.89592e-21
-1.78551e-22
1.67963e-21
1.61658e-21
9.9723e-22
1.30713e-21
1.66641e-21
2.25931e-21
9.48958e-22
1.76033e-21
1.22818e-21
8.33283e-22
-9.20608e-23
-2.88173e-22
1.31835e-21
-4.95078e-22
-1.71854e-22
-1.77953e-22
-4.04808e-22
1.23269e-21
1.03577e-21
1.37346e-21
1.27386e-21
3.24073e-22
2.1802e-21
1.68258e-21
2.49248e-21
1.75443e-21
2.45026e-21
1.76649e-21
1.7171e-21
1.29008e-21
1.96815e-21
1.48012e-21
1.54797e-21
6.4558e-22
2.28595e-21
1.2339e-21
6.40591e-23
-1.10738e-22
1.71103e-21
1.32992e-21
9.52148e-22
1.97396e-21
1.75223e-21
-9.8633e-23
1.80276e-21
2.2752e-21
1.72871e-21
-2.9567e-23
1.93562e-21
-1.24901e-22
1.10569e-22
2.81802e-22
1.73342e-21
1.71395e-21
2.2264e-21
-4.65317e-22
2.56756e-21
2.51647e-21
6.12316e-22
4.28766e-22
2.60585e-21
1.39861e-21
-2.38923e-23
4.47611e-22
1.69053e-21
1.51859e-21
7.84688e-22
1.74598e-21
1.85615e-21
2.11399e-21
1.72546e-21
1.73436e-21
6.88514e-22
1.29466e-21
1.62604e-21
-1.902e-22
1.69576e-21
1.95627e-21
1.69551e-21
-2.97171e-22
1.98598e-21
-2.28579e-22
5.07835e-22
4.10439e-23
7.67695e-22
-2.20687e-22
5.18463e-22
1.98842e-21
2.09402e-21
1.71495e-21
1.77221e-21
1.08166e-21
4.69544e-22
1.71386e-21
-1.71405e-22
2.96561e-21
-2.16503e-22
1.75175e-21
2.32825e-21
2.64212e-22
2.1595e-21
1.35948e-21
7.29702e-22
3.87603e-23
6.27798e-22
2.21672e-22
1.76067e-21
-2.49336e-22
5.45901e-22
1.01417e-21
-2.96029e-22
1.72674e-21
1.79823e-21
6.98495e-22
6.90417e-22
1.08016e-22
6.14321e-22
1.52379e-21
-2.77134e-22
6.37953e-22
1.81521e-22
1.66406e-21
-2.04511e-22
-4.61602e-23
1.51065e-22
6.90358e-22
1.00467e-22
-2.82379e-22
1.11466e-21
1.67623e-21
1.01446e-21
1.76392e-21
1.64533e-21
2.01446e-22
1.36354e-22
1.98357e-22
8.573e-22
1.54718e-22
1.33562e-21
1.41621e-22
1.55305e-21
1.05362e-21
1.80228e-21
1.70286e-21
2.84388e-22
-3.73535e-22
1.18002e-21
3.67746e-22
9.81409e-22
1.71475e-21
1.72124e-21
5.32567e-22
1.82483e-22
1.10483e-21
1.01833e-21
6.63698e-22
3.20441e-22
1.72534e-21
1.05856e-21
1.68602e-21
1.22554e-21
1.07861e-21
1.10061e-21
8.92426e-22
-1.04938e-22
1.17497e-23
1.70836e-21
1.13605e-21
-4.81177e-22
1.71321e-21
1.82104e-21
1.64669e-21
1.27167e-21
-1.30385e-22
1.78302e-21
1.73676e-21
3.03717e-21
1.71317e-21
1.70995e-21
-2.07177e-22
1.14024e-21
-5.99868e-22
-9.76543e-24
7.68074e-22
8.62906e-23
1.05256e-21
4.92558e-22
1.72636e-21
5.0763e-22
1.74517e-21
1.13055e-21
-1.13754e-22
1.23405e-21
2.13535e-22
-1.69053e-22
9.5134e-22
-1.37284e-22
-4.58552e-23
1.31925e-21
2.78336e-22
1.70923e-21
1.82257e-21
1.67415e-21
9.2913e-22
-6.40273e-22
2.93363e-21
4.15048e-22
-2.48663e-22
2.39775e-22
3.61938e-22
-1.25254e-22
1.66163e-21
1.76031e-21
6.81946e-24
1.03326e-21
-4.11681e-22
1.71786e-21
9.51636e-22
1.6408e-21
-2.168e-22
5.76771e-22
6.74906e-22
4.18783e-22
1.71571e-21
1.7295e-21
3.93221e-22
2.30685e-21
1.58879e-22
2.31601e-21
-4.89464e-23
1.12793e-21
1.24525e-21
1.61191e-22
2.78434e-21
-1.66948e-22
9.80058e-22
1.82306e-21
1.83038e-21
7.48598e-22
-1.80233e-22
2.81481e-22
-5.61362e-23
8.75735e-22
3.07863e-22
-2.39967e-22
2.062e-22
2.1639e-22
1.70432e-21
1.73683e-21
1.71884e-21
1.69024e-21
9.58232e-23
1.71623e-21
1.737e-21
-2.3214e-22
1.71385e-21
1.69672e-21
1.71813e-21
1.72886e-21
4.95884e-22
-1.9278e-22
2.89267e-22
1.7883e-21
1.76676e-21
1.85367e-22
4.00581e-22
1.69225e-21
1.79813e-21
1.784e-21
1.82048e-21
-2.48079e-22
-6.11888e-24
1.69185e-21
1.80055e-21
1.74719e-21
-1.25128e-22
1.73382e-21
1.6482e-21
1.80675e-21
1.70841e-21
1.30938e-22
1.18743e-21
1.7123e-21
1.71742e-21
-6.52362e-23
1.62718e-21
1.69506e-21
-1.37861e-22
1.74988e-21
1.71113e-21
3.23682e-22
-1.13571e-22
-2.13448e-22
1.76417e-21
3.45066e-22
1.69033e-21
1.71845e-21
1.81864e-21
1.71091e-21
1.65261e-21
9.7091e-22
8.72987e-22
-2.07339e-22
1.64795e-21
1.71985e-21
1.54696e-21
1.69324e-21
1.68141e-21
4.19248e-22
1.79102e-21
1.73411e-21
1.6991e-21
1.43957e-21
1.69919e-21
1.71554e-21
1.73601e-21
1.62267e-21
1.28491e-21
1.72655e-21
2.19129e-21
1.89179e-21
5.97106e-22
-1.75276e-22
7.86253e-22
-1.63645e-22
-1.89958e-22
1.00136e-21
1.4411e-21
-2.4892e-22
1.36577e-21
1.77398e-21
1.00496e-21
-4.26423e-23
2.19881e-21
1.62533e-21
1.49433e-21
1.70611e-21
-1.27213e-22
1.69572e-21
1.67546e-21
1.5714e-21
2.11649e-21
1.73394e-21
-6.14062e-22
-2.38633e-22
1.1134e-21
-6.93222e-22
1.90852e-21
-3.23791e-23
2.631e-21
1.68271e-21
7.50328e-22
-2.79317e-22
1.21275e-21
1.71818e-21
-1.86974e-22
9.1444e-22
1.75133e-21
1.69225e-21
1.69245e-21
1.81229e-21
1.33782e-21
1.02297e-21
-1.71011e-22
1.72344e-21
1.75652e-21
1.75592e-21
-2.85664e-23
8.11325e-22
1.69867e-21
2.15913e-21
1.58297e-21
1.81849e-21
1.91885e-21
-7.29434e-22
2.16503e-21
1.69648e-21
1.25129e-21
1.70832e-21
1.50124e-21
1.96557e-21
1.07792e-21
1.79846e-21
1.97334e-21
1.64344e-21
6.89803e-22
1.36761e-21
2.96903e-22
6.87874e-22
1.83068e-21
-8.96207e-23
8.58191e-22
-2.51148e-22
1.68365e-21
7.37827e-22
2.03666e-21
-9.63249e-23
1.12046e-21
4.55417e-22
-5.97293e-23
-4.80042e-22
1.18518e-21
-4.67574e-22
-1.11186e-22
1.63151e-21
1.78477e-21
1.4442e-21
1.73138e-21
3.92721e-22
-1.07831e-22
-2.52718e-22
7.56951e-22
-2.82777e-22
1.25027e-21
7.30719e-22
1.74948e-21
1.78633e-21
1.65294e-21
1.79946e-21
1.57263e-21
1.66728e-21
1.19872e-21
6.59081e-22
1.67343e-21
7.58767e-22
1.70224e-21
1.01977e-21
1.75428e-21
1.02106e-21
1.70315e-21
8.36124e-22
1.65313e-21
1.8352e-21
2.1e-21
2.72134e-21
1.27806e-21
1.35787e-21
-1.50501e-22
1.48608e-21
3.94659e-22
3.79094e-22
9.75966e-23
1.52668e-21
-1.54312e-22
1.59479e-21
1.62879e-21
3.9055e-22
1.68708e-21
1.55041e-21
-1.20751e-22
-1.56845e-22
4.64383e-22
8.74922e-22
5.21335e-22
1.85602e-21
1.8565e-21
2.62056e-21
1.61208e-21
1.68717e-21
-1.50092e-22
1.51372e-21
1.68614e-21
1.70591e-21
2.26928e-21
1.76607e-21
1.58667e-21
-5.17075e-23
1.77294e-21
1.68457e-21
5.19623e-22
1.71164e-21
5.59115e-22
1.69808e-21
1.7725e-21
-2.87118e-22
1.63385e-21
-9.06936e-23
1.73571e-21
2.427e-21
1.68966e-21
6.51303e-22
1.77882e-21
3.35095e-22
1.69387e-21
1.66136e-21
2.26926e-21
1.76977e-21
1.37366e-21
7.98122e-22
1.66564e-21
-1.63923e-22
-5.1137e-22
2.11855e-21
1.75059e-21
1.90765e-21
1.90825e-21
1.47752e-21
-1.32929e-22
-1.66464e-22
1.72291e-21
1.60474e-21
1.80362e-21
3.56779e-22
1.04882e-21
3.30032e-22
-1.46767e-22
1.64149e-21
1.65311e-21
2.21751e-21
3.97322e-22
2.09561e-21
5.69174e-22
1.83867e-21
1.68922e-21
1.78229e-21
2.17567e-21
6.19539e-22
-8.27542e-23
2.34417e-21
1.7856e-21
1.97691e-21
1.78452e-21
7.40297e-22
-1.28112e-22
1.91578e-21
9.24143e-22
-9.5966e-23
2.60451e-21
1.93076e-21
1.41427e-21
1.9287e-22
1.61489e-21
1.72008e-21
1.67148e-21
1.71199e-21
2.7749e-21
-1.90094e-22
1.68203e-21
1.76691e-21
2.05946e-21
1.76286e-21
1.29436e-21
1.69135e-21
1.75519e-21
6.08582e-22
2.17427e-21
1.98653e-21
1.03838e-21
2.87999e-21
1.92623e-21
1.60941e-21
1.73828e-21
)
;

boundaryField
{
    front
    {
        type            empty;
    }
    back
    {
        type            empty;
    }
    bottom
    {
        type            uniformFixedValue;
        uniformValue    
        {
            type            scale;
            scale           
            {
                type            squarePulse;
                start           0.3;
                duration        0.3;
            }
            xScale          
            {
                type            constant;
                value           1;
            }
            value           
            {
                type            constant;
                value           15.1;
            }
        }
        value           uniform 0;
    }
    left
    {
        type            zeroGradient;
    }
    top
    {
        type            zeroGradient;
    }
    right
    {
        type            zeroGradient;
    }
    inner_arc
    {
        type            zeroGradient;
    }
}


// ************************************************************************* //
