/*--------------------------------*- C++ -*----------------------------------*\
  =========                 |
  \\      /  F ield         | OpenFOAM: The Open Source CFD Toolbox
   \\    /   O peration     | Website:  https://openfoam.org
    \\  /    A nd           | Version:  9
     \\/     M anipulation  |
\*---------------------------------------------------------------------------*/
FoamFile
{
    format      ascii;
    class       volScalarField;
    location    "0.69";
    object      p;
}
// * * * * * * * * * * * * * * * * * * * * * * * * * * * * * * * * * * * * * //

dimensions      [0 2 -2 0 0 0 0];

internalField   nonuniform List<scalar> 
578
(
-5.59032e-09
-1.45365e-08
-4.125e-09
4.83216e-10
-1.34763e-08
9.00697e-09
1.31509e-08
-1.14143e-08
-9.60313e-09
-2.19512e-08
4.69666e-09
-1.12909e-08
3.95821e-11
-1.27486e-08
1.23044e-08
-4.68046e-10
-6.94038e-09
-6.32504e-09
-8.80478e-09
-6.38599e-09
5.34351e-10
2.59725e-10
2.98309e-09
3.60746e-09
3.53106e-09
-8.37735e-09
-8.68389e-10
-1.85334e-09
-1.04692e-08
7.43394e-11
-1.15672e-09
1.01468e-08
-4.28642e-09
9.29353e-10
1.1046e-08
-4.76516e-09
-1.1391e-08
-1.09045e-08
-2.50597e-10
-1.57483e-08
-1.22729e-08
-9.96181e-09
-1.26588e-08
1.28902e-08
-3.25478e-09
1.60223e-08
1.22688e-08
-1.03467e-08
-4.00397e-10
-1.11443e-09
1.40195e-08
-7.93378e-12
1.34423e-08
7.94254e-10
-1.99951e-10
-6.03614e-09
2.78825e-09
2.10476e-09
-3.44879e-09
-7.321e-09
-6.68422e-09
-9.57996e-09
-9.37393e-09
-1.41411e-08
-2.47936e-10
1.19082e-08
-2.37479e-09
6.36041e-09
4.32282e-09
-8.12495e-09
1.42475e-09
9.75178e-09
-2.09088e-10
-9.47397e-09
4.51423e-09
-1.50747e-08
-1.22309e-08
-1.00432e-08
-1.89107e-10
8.95364e-09
1.10411e-08
-1.09203e-08
1.6237e-08
1.52702e-08
2.65784e-09
8.56069e-09
1.60608e-08
-4.08744e-09
-9.02273e-09
8.21067e-09
-8.32541e-10
5.8402e-09
1.05038e-08
2.33668e-10
5.42878e-09
9.63524e-09
-2.17975e-10
-2.46193e-10
-2.07502e-08
1.22632e-08
1.14777e-08
-9.28391e-09
-6.66177e-10
7.3125e-09
-3.50109e-10
-1.28967e-08
5.06648e-09
-1.52762e-08
1.0195e-08
-1.34259e-08
-4.268e-09
-8.80506e-09
-7.20808e-09
7.60934e-09
8.39814e-09
-4.54081e-10
3.78561e-10
-7.16964e-09
8.07213e-09
-2.49484e-10
-7.41071e-09
2.13063e-08
-1.02753e-08
2.63246e-10
1.23377e-08
5.40734e-09
9.09956e-09
-1.34012e-10
1.00558e-08
1.41554e-09
1.01707e-08
4.76283e-09
2.47154e-10
-8.19462e-09
9.06587e-09
9.72702e-09
-1.33433e-08
-4.38289e-10
5.06668e-09
1.02403e-08
1.10268e-08
2.97466e-09
9.83363e-09
-3.74786e-09
-9.39457e-09
3.61195e-09
3.70287e-09
-1.37909e-09
-1.03031e-08
-1.8231e-11
-1.0995e-08
4.68737e-09
-1.35629e-08
-7.58613e-09
1.19797e-08
-1.07902e-09
-8.05156e-09
3.90108e-10
1.29388e-08
-1.11708e-08
-1.17095e-08
-1.14187e-08
1.16946e-08
-1.07135e-08
-6.10104e-09
3.21277e-09
-4.26292e-09
1.20992e-08
7.94947e-10
-3.78754e-10
-9.76993e-09
-1.37118e-08
1.00142e-08
7.29879e-09
1.17446e-08
-3.89707e-10
-1.80869e-10
-6.6836e-09
-1.07575e-08
-9.27219e-09
1.28849e-08
-1.13756e-08
6.77473e-09
-1.84335e-10
1.01525e-08
-1.07626e-09
-6.90454e-10
1.32959e-08
1.18738e-08
-1.32958e-08
-1.19551e-08
-1.15807e-08
4.29124e-09
1.19081e-08
-1.70493e-08
-2.37439e-10
1.30438e-09
-1.7502e-09
1.14789e-08
-1.20123e-08
5.58924e-10
-3.00718e-11
2.24349e-08
-5.74211e-10
-3.30352e-10
-1.22908e-08
1.11462e-08
-5.38701e-10
-1.15322e-08
1.88405e-09
2.01111e-09
1.11256e-08
8.58595e-09
-1.02981e-10
8.85117e-09
6.03288e-11
1.18318e-08
-1.18766e-08
1.18598e-08
4.51202e-09
-1.1783e-08
1.16301e-08
-5.38779e-09
-1.20124e-08
1.29774e-08
5.32272e-09
-2.00561e-10
9.80568e-10
-1.46569e-09
-1.05268e-08
-1.94789e-08
2.14187e-08
8.25163e-09
-5.09082e-09
5.03767e-09
-8.88296e-09
-1.2343e-08
1.24868e-08
1.1459e-10
-1.96682e-09
1.24562e-08
-1.38524e-08
-4.21858e-10
1.24989e-08
-1.69626e-09
-9.3972e-09
1.02077e-08
-1.95383e-08
8.63215e-09
-1.43855e-11
-2.09926e-10
7.25068e-09
1.1572e-08
1.43148e-09
1.06022e-08
-3.0085e-09
-8.35539e-09
1.12713e-08
-1.00258e-08
1.92761e-08
-4.60476e-09
1.29355e-08
1.26321e-09
1.43913e-09
-1.14124e-08
-6.4897e-09
3.52323e-09
-2.31413e-09
-1.60133e-08
4.16978e-09
-4.20708e-09
4.21306e-09
1.90456e-09
-3.06082e-10
2.83708e-11
-5.08144e-11
-6.17428e-10
2.27923e-09
1.21367e-08
4.10686e-10
-1.27604e-08
-3.15628e-10
-3.27627e-10
-1.16113e-10
-2.78458e-11
9.6116e-09
-5.65031e-09
5.56546e-09
1.90972e-09
1.27673e-09
1.69028e-09
6.88223e-09
-7.17887e-10
1.10361e-08
8.30553e-10
1.19001e-09
-1.27319e-08
-1.42925e-09
-1.37257e-09
6.70903e-10
1.43113e-10
-1.74833e-09
-5.25765e-10
-2.68158e-09
1.23817e-09
1.92381e-10
3.85469e-11
-7.58803e-09
1.6318e-10
-3.1301e-11
-3.55053e-09
-1.14732e-09
-1.46858e-10
-1.96277e-09
7.19124e-10
-2.80015e-10
6.26525e-09
-1.50859e-09
-3.57211e-09
7.65951e-10
6.57551e-09
-3.75297e-10
-2.23925e-10
2.25129e-09
-3.26294e-10
-8.81107e-10
1.10549e-08
1.14923e-08
-1.19215e-08
-1.01725e-09
-4.02098e-10
9.63975e-09
-5.07009e-10
-8.05956e-10
8.02149e-09
1.38892e-09
7.92372e-11
-6.21111e-10
-4.60887e-09
-7.27642e-10
-2.26319e-10
-1.74436e-10
-1.14761e-09
-6.20532e-09
5.20119e-10
1.05069e-08
5.86735e-09
9.44382e-09
-9.44677e-09
1.09207e-08
-1.04526e-08
-1.15168e-08
1.16667e-08
-4.14863e-09
-1.46776e-08
1.50234e-08
1.48855e-09
1.42771e-08
-1.53921e-08
1.50709e-08
-3.81669e-10
-5.13213e-09
9.2525e-10
-7.54545e-09
-1.54586e-10
4.50085e-10
-1.19915e-09
9.27752e-09
4.41775e-11
-1.09006e-09
-1.10552e-08
-1.03012e-08
4.26071e-09
6.20783e-09
4.33608e-09
1.59938e-08
-6.82697e-10
1.06996e-08
-1.10872e-08
-2.64562e-09
-2.85068e-10
-1.12084e-08
1.17188e-08
2.18467e-09
1.19187e-09
-3.55543e-10
5.91912e-11
1.43183e-08
1.33841e-08
-8.69321e-09
-1.15141e-10
2.32978e-09
2.72806e-09
-3.10504e-09
-1.25157e-09
1.16722e-09
1.0353e-08
-2.37773e-09
1.80919e-09
3.84676e-09
-1.79718e-10
8.36513e-09
3.87138e-11
-7.4298e-09
-3.77747e-10
-1.62324e-09
6.94813e-09
-3.12619e-09
3.70794e-09
7.06288e-09
-1.02781e-09
-9.70014e-09
-5.50464e-09
5.99577e-09
-3.56887e-09
4.42519e-09
-9.59725e-09
9.60188e-09
-1.28691e-08
-9.89533e-10
1.05416e-08
6.08415e-09
-1.04248e-08
1.26607e-08
8.1022e-09
-5.03179e-09
-8.25836e-09
-7.96268e-09
-1.01538e-08
-4.76433e-09
7.61244e-09
2.08989e-09
2.91113e-09
-1.27932e-10
7.21763e-09
-6.50212e-09
-1.12172e-08
-6.56458e-09
-6.78177e-09
-3.08317e-09
-5.45848e-09
1.99316e-10
4.88791e-10
-1.24649e-09
9.42453e-09
-2.58756e-09
-1.66779e-09
8.24279e-09
8.1522e-09
-7.35154e-10
1.08228e-08
-5.51024e-10
8.5014e-09
7.3196e-11
1.08151e-08
-1.5939e-10
-1.41535e-08
3.34151e-09
2.4167e-09
-7.80459e-09
1.686e-08
9.65806e-09
-6.6175e-09
-6.77696e-09
-2.54732e-09
-8.33995e-09
7.23594e-09
-1.30794e-08
-4.25411e-09
-6.32098e-09
-2.21797e-09
-2.09959e-09
7.30597e-09
-1.00296e-09
-2.88663e-09
-9.82564e-09
-7.34112e-09
-8.05953e-09
-4.05609e-09
-6.99706e-09
2.4003e-09
3.78942e-09
-3.3503e-09
-1.94473e-09
-9.62761e-10
-6.00036e-09
-4.1119e-09
-8.16118e-10
-6.16083e-10
1.03595e-08
3.41729e-10
7.55796e-09
-3.92844e-09
3.27108e-10
-5.98553e-10
8.50022e-09
-4.1079e-10
9.65542e-09
-7.40355e-10
2.72609e-10
-1.23946e-08
-2.01127e-09
-6.5481e-09
8.43511e-11
-6.58642e-09
-7.98796e-10
9.5929e-09
6.35603e-10
6.51385e-09
-6.24679e-10
-1.22086e-09
1.17528e-08
6.53866e-11
1.56384e-08
1.07792e-08
-7.66376e-10
-1.11177e-08
-1.5125e-08
7.43682e-09
1.95638e-10
3.64918e-09
5.12644e-09
-3.22798e-09
-8.83586e-09
-9.60648e-09
-1.2001e-10
-2.57208e-09
7.36058e-10
-1.0331e-08
-1.02374e-08
-1.08221e-08
-1.08176e-08
-1.84217e-09
-1.38841e-09
9.85956e-09
8.01226e-09
6.73927e-09
9.05509e-09
7.90378e-09
-9.85519e-10
4.73852e-10
9.36833e-09
-5.71968e-09
-8.31183e-09
1.1656e-08
1.25551e-09
4.47101e-09
-6.68567e-09
-5.18825e-09
-7.80317e-09
6.33568e-09
1.16201e-08
-7.57818e-09
1.07358e-08
6.81858e-09
-4.34735e-09
-1.12997e-08
-1.82066e-09
-2.76869e-10
-8.80513e-10
-6.95803e-10
1.16266e-08
-1.0052e-08
-8.17817e-10
3.46779e-10
6.51901e-09
6.8444e-11
-6.49665e-09
-6.26623e-10
1.67753e-10
1.00087e-08
-6.97088e-09
7.19183e-09
-9.86101e-09
-3.93194e-09
4.29162e-09
5.54921e-09
3.97682e-09
)
;

boundaryField
{
    front
    {
        type            empty;
    }
    back
    {
        type            empty;
    }
    bottom
    {
        type            uniformFixedValue;
        uniformValue    
        {
            type            scale;
            scale           
            {
                type            squarePulse;
                start           0.3;
                duration        0.3;
            }
            xScale          
            {
                type            constant;
                value           1;
            }
            value           
            {
                type            constant;
                value           15.1;
            }
        }
        value           uniform 0;
    }
    left
    {
        type            zeroGradient;
    }
    top
    {
        type            zeroGradient;
    }
    right
    {
        type            zeroGradient;
    }
    inner_arc
    {
        type            zeroGradient;
    }
}


// ************************************************************************* //
