/*--------------------------------*- C++ -*----------------------------------*\
  =========                 |
  \\      /  F ield         | OpenFOAM: The Open Source CFD Toolbox
   \\    /   O peration     | Website:  https://openfoam.org
    \\  /    A nd           | Version:  9
     \\/     M anipulation  |
\*---------------------------------------------------------------------------*/
FoamFile
{
    format      ascii;
    class       surfaceScalarField;
    location    "0.69";
    object      phi;
}
// * * * * * * * * * * * * * * * * * * * * * * * * * * * * * * * * * * * * * //

dimensions      [0 3 -1 0 0 0 0];

internalField   nonuniform List<scalar> 
816
(
2.91737e-16
1.01078e-14
-1.03996e-14
-3.44989e-15
1.4247e-14
-1.07971e-14
-1.75903e-14
1.7882e-14
1.06353e-15
-1.40672e-15
3.43198e-16
9.91108e-15
-9.91108e-15
-5.31694e-15
6.95355e-15
-1.63661e-15
-1.03432e-14
1.03432e-14
-9.30526e-15
9.30526e-15
-2.10519e-14
6.20341e-17
2.09898e-14
2.68679e-15
-6.13668e-15
5.53105e-15
-1.0848e-14
2.46439e-14
-1.78424e-14
-6.80149e-15
4.72392e-16
-3.7325e-16
-9.91419e-17
2.38166e-14
-2.15786e-14
-2.238e-15
-2.35234e-14
2.07637e-14
2.75968e-15
-1.80951e-14
2.97554e-14
-1.16603e-14
-1.115e-14
-3.24458e-15
1.43946e-14
2.15455e-14
-1.77348e-15
-1.9772e-14
2.89446e-15
2.17494e-14
9.88653e-15
-3.09384e-14
1.87147e-15
-8.07942e-16
2.22293e-15
-2.0318e-14
1.17054e-14
-4.87544e-15
-6.82994e-15
3.0611e-15
1.24027e-15
-4.30138e-15
3.50292e-15
-4.41819e-16
-2.02556e-14
4.9566e-15
1.5299e-14
1.55804e-15
-1.41936e-15
-1.38681e-16
4.21852e-16
-9.2787e-16
5.06018e-16
6.59671e-15
7.65032e-15
1.03632e-14
1.93922e-14
1.65096e-15
-1.22911e-15
1.87566e-15
5.07788e-15
3.14606e-14
-2.10974e-14
4.27602e-15
-2.87705e-15
-1.39897e-15
-2.32203e-15
-2.12014e-14
-5.09462e-15
2.44868e-14
2.18765e-15
2.16289e-14
-2.96656e-15
-1.7289e-14
3.06323e-14
-1.11521e-14
-1.94802e-14
6.16277e-15
3.74831e-15
-7.72343e-15
-6.4108e-15
6.33869e-15
2.09079e-14
-1.44107e-16
-1.06566e-14
-5.10638e-15
1.5763e-14
-6.21334e-15
-4.12982e-15
8.02114e-15
1.94908e-14
-1.94288e-14
1.3042e-14
5.44104e-16
1.01393e-15
-1.1822e-15
-1.8723e-16
1.36943e-15
3.91647e-16
8.07447e-17
8.59261e-15
3.11277e-15
2.40753e-15
1.86849e-15
-1.80447e-16
1.80447e-16
6.69885e-15
-1.83276e-15
-4.8661e-15
-4.87544e-15
-1.06566e-14
-2.43682e-14
1.32182e-14
8.40604e-15
-1.35007e-14
-2.82268e-15
3.93781e-15
-7.18239e-15
-8.95587e-15
7.18239e-15
-6.99167e-16
-2.08794e-14
5.8896e-16
-3.79516e-16
-2.09444e-16
2.1097e-14
-1.89178e-16
2.01529e-14
1.13077e-14
-8.52913e-15
1.40602e-14
-9.0026e-15
2.62038e-14
-1.72012e-14
4.76423e-15
1.74759e-14
-2.22402e-14
6.25865e-16
6.93466e-16
5.61385e-16
2.75753e-17
1.77798e-14
8.56966e-15
-2.63494e-14
5.13013e-15
-5.78203e-15
6.51899e-16
8.4226e-15
-8.4226e-15
-1.24892e-14
2.23758e-14
-1.68892e-14
4.39993e-15
1.88135e-16
-3.82957e-15
-6.57e-15
1.03996e-14
-1.71847e-14
-6.56446e-15
2.37492e-14
1.01078e-14
7.71784e-15
-7.71784e-15
-1.12777e-14
1.12777e-14
-1.21486e-14
2.36801e-14
-1.15315e-14
6.05621e-15
1.85051e-15
-1.8723e-16
6.39583e-15
3.03028e-16
-5.32452e-16
-1.65496e-14
1.7082e-14
1.4498e-14
6.24766e-16
-1.51227e-14
2.31605e-16
8.67086e-15
-2.08195e-14
5.78046e-16
1.78353e-14
-1.84133e-14
9.5072e-16
-8.03119e-16
-1.476e-16
-2.06629e-14
-1.28681e-16
1.87532e-14
-1.86245e-14
-1.52872e-16
8.13049e-17
2.68679e-15
1.66421e-15
-2.28656e-14
-2.62045e-16
2.13591e-14
-1.47495e-14
1.95137e-14
2.89171e-16
3.54341e-16
-6.43512e-16
-1.49817e-14
8.45247e-17
-8.45247e-17
-2.94241e-15
2.45713e-14
3.49352e-15
7.72343e-15
6.05622e-15
-7.80691e-16
-7.64191e-15
1.07855e-14
1.37013e-14
2.24325e-14
2.07916e-14
-2.58349e-14
5.04327e-15
4.47863e-16
-1.58692e-16
-1.01735e-15
-3.89378e-16
9.34413e-15
1.38576e-14
-2.32017e-14
-2.81708e-16
1.47797e-14
-6.8347e-17
1.52872e-16
-9.62492e-16
1.62614e-14
-1.28425e-14
1.56479e-15
4.46041e-15
1.62484e-15
2.46632e-16
-5.12468e-15
-1.90727e-14
2.07078e-14
-1.63505e-15
-3.39566e-15
-1.37891e-14
1.88915e-14
-1.32691e-14
-5.62246e-15
1.81532e-14
3.95289e-15
-2.16053e-14
1.22261e-16
2.1483e-14
-2.22309e-14
3.15818e-15
3.46709e-16
6.04011e-16
-5.3762e-15
5.3762e-15
-1.95422e-14
-2.06308e-15
-1.54995e-16
1.96707e-14
-1.95157e-14
-2.97956e-16
-1.75444e-14
-1.58919e-14
-9.94292e-15
-1.53825e-14
1.55047e-14
-2.65696e-16
5.81098e-15
-5.54528e-15
-4.07775e-15
-1.56482e-14
1.44032e-16
3.29458e-15
-3.43861e-15
-6.33869e-15
-2.25945e-16
-1.92543e-14
-2.22785e-15
-1.15613e-14
1.37892e-14
2.82315e-17
-1.50855e-16
1.22623e-16
1.97881e-14
-1.58352e-14
-2.41047e-14
-6.35699e-16
2.47404e-14
6.95958e-15
-6.95958e-15
8.40604e-15
9.41364e-16
4.43484e-15
2.32894e-15
2.20562e-14
-2.43852e-14
-2.16481e-16
7.60584e-16
-9.32376e-15
1.59205e-14
1.06026e-16
2.74207e-16
-3.80234e-16
-6.57e-15
2.16927e-15
-2.6274e-14
-1.87101e-14
5.81098e-15
-1.88951e-14
1.82594e-14
-1.84711e-15
1.84711e-15
1.75603e-14
-1.70308e-15
-1.58466e-14
1.81756e-14
-2.58646e-17
1.31892e-16
1.91313e-15
-2.10832e-15
1.95182e-16
-1.80351e-15
-1.70916e-14
6.41079e-15
-6.70875e-15
7.20063e-15
-7.35563e-15
-6.45845e-16
4.9737e-15
-4.32785e-15
3.41128e-16
-1.61878e-14
7.69533e-16
-9.78977e-16
9.99693e-16
-2.3016e-16
2.25623e-14
-9.6181e-15
7.81459e-15
-1.12853e-15
-2.19389e-16
1.34792e-15
-6.33473e-15
6.67585e-15
-3.97115e-15
1.92275e-14
-1.52563e-14
-1.43015e-14
1.6152e-14
1.18783e-15
7.20636e-16
1.895e-14
2.82313e-17
-1.35007e-14
9.16018e-15
9.73135e-15
2.26439e-14
1.07652e-15
-2.37204e-14
-1.39945e-15
2.70918e-16
-2.25024e-14
-1.07797e-15
2.35804e-14
1.89763e-14
-7.16933e-16
1.77948e-14
3.80799e-16
6.13668e-15
-1.04082e-15
-7.85795e-16
1.82661e-15
-1.31893e-16
3.63433e-16
-2.3154e-16
1.50856e-16
-3.67336e-16
1.85723e-14
-1.88713e-14
2.98974e-16
1.82873e-14
-1.78984e-14
-3.88909e-16
-2.5864e-17
3.84709e-16
-2.42486e-15
-5.29298e-15
8.72312e-16
1.25134e-15
-1.4815e-15
7.42875e-16
-9.43348e-16
1.56304e-14
8.15312e-16
-1.23766e-14
2.54036e-14
1.24981e-15
-2.0792e-14
4.88754e-17
1.20246e-15
-1.43984e-14
2.1513e-15
-5.2646e-16
-3.51254e-15
4.32785e-15
2.0638e-14
-1.4981e-14
-1.20677e-15
-1.31186e-14
1.406e-14
7.09766e-15
-7.81459e-15
7.05665e-15
-6.67585e-15
1.31433e-14
-1.55408e-15
-2.49305e-16
1.80339e-15
-1.39944e-15
-2.42486e-15
4.9737e-15
-3.839e-15
-1.45102e-14
-9.6181e-15
7.09766e-15
7.05665e-15
2.44047e-16
-8.94836e-16
1.25119e-14
-1.16171e-14
-6.33473e-15
-2.33988e-15
-5.23747e-16
-3.67337e-16
-5.54528e-15
-2.70919e-16
2.95771e-15
7.20063e-15
6.21311e-16
2.56735e-15
-3.18867e-15
1.87549e-15
1.9002e-15
1.88076e-14
2.61209e-15
2.4658e-15
1.09513e-15
-3.54e-15
2.44488e-15
1.36943e-15
1.81211e-14
-2.19601e-14
4.47665e-16
-2.44602e-14
2.42711e-14
3.54e-15
-4.43484e-15
3.63433e-16
7.06631e-16
8.43031e-15
3.14285e-15
-9.5946e-15
2.44776e-15
2.07185e-14
2.91731e-15
-2.2947e-15
2.04539e-15
1.58717e-15
-5.36875e-16
-1.75782e-15
2.18611e-15
-1.5648e-15
-3.51254e-15
7.35563e-15
2.43019e-15
7.81136e-16
-3.21132e-15
6.70875e-15
2.03048e-15
1.25952e-15
7.85867e-16
1.16955e-15
7.05935e-16
6.72367e-16
-5.71582e-16
1.22743e-15
-1.22743e-15
1.85329e-15
-1.57252e-14
-1.88918e-14
3.09399e-16
-2.41771e-15
-9.53263e-16
9.53263e-16
-7.06631e-16
-3.97413e-15
-1.67772e-15
1.70308e-15
-2.53551e-17
1.67772e-15
-7.24458e-16
2.77176e-15
1.85329e-15
-1.96993e-14
-3.67292e-15
3.45353e-15
8.4984e-16
-1.29475e-15
4.44907e-16
1.52221e-15
2.44288e-15
5.7738e-16
1.68319e-15
-2.26057e-15
-4.34286e-16
1.01167e-15
-9.60488e-15
1.05328e-15
-2.34803e-15
2.78856e-15
-1.52903e-15
1.82662e-15
-1.06478e-15
-2.15805e-15
1.49699e-14
2.30807e-15
5.22795e-16
2.31674e-15
-2.83953e-15
-6.09187e-16
2.10256e-15
2.05509e-16
2.13808e-14
-1.06216e-17
2.11319e-15
-6.24637e-16
2.49917e-14
-2.61866e-15
2.82417e-15
-1.82523e-15
-1.17384e-15
2.34339e-15
1.69898e-16
3.22526e-15
6.93227e-17
-2.50932e-15
9.80291e-16
4.25536e-15
-2.57217e-15
-8.13566e-16
9.28573e-15
-2.10679e-14
1.17822e-14
5.16872e-15
-5.16872e-15
-4.73928e-15
4.73928e-15
-5.6353e-15
5.6353e-15
5.63032e-15
-5.63032e-15
6.16277e-15
-6.21334e-15
-1.62078e-15
-2.86816e-15
4.48894e-15
8.02114e-15
-3.41541e-15
2.60184e-15
-7.87703e-15
7.87703e-15
-7.64191e-15
-7.61499e-15
7.61499e-15
-1.6454e-15
1.22868e-14
-1.06414e-14
3.93781e-15
-8.39952e-16
-6.6672e-15
7.50715e-15
-4.84099e-15
4.84099e-15
-3.12157e-15
1.93996e-14
-1.6278e-14
-8.3126e-15
-2.24564e-14
4.13334e-16
-8.95587e-15
-8.53877e-15
1.71084e-14
6.67457e-15
-1.31707e-14
2.34541e-14
8.59261e-15
-1.23382e-15
-4.66574e-16
8.91037e-16
1.23469e-14
2.04774e-15
-3.16397e-15
-1.27862e-14
1.59502e-14
9.12287e-15
-1.59078e-14
-9.37635e-16
-1.01711e-16
8.13049e-17
-7.69831e-15
-1.33696e-14
1.17013e-14
-1.72564e-14
-3.01287e-14
1.03566e-14
-4.6906e-15
-1.14092e-14
1.60998e-14
-2.06401e-15
-2.94622e-15
9.50273e-17
2.85119e-15
-1.80602e-14
-1.66924e-15
1.66924e-15
-2.99817e-16
-2.19364e-16
7.86969e-15
-1.52022e-17
-6.93224e-17
4.85446e-16
-1.67635e-14
-1.92652e-14
1.75748e-14
-1.5527e-14
7.42109e-15
-1.91224e-14
5.95173e-15
2.22879e-14
1.45169e-14
7.03529e-15
-3.28448e-15
-1.32651e-14
5.51407e-15
1.23212e-14
-9.5979e-15
-1.67515e-14
1.20911e-15
5.6067e-15
-1.88758e-14
-1.63994e-14
1.46743e-14
1.94324e-14
1.78197e-14
-2.11331e-14
3.31335e-15
-5.96027e-15
-1.93461e-15
-4.08626e-15
-7.79834e-16
-5.96026e-15
-4.1404e-15
-2.61867e-14
-2.34173e-15
2.85284e-14
1.72512e-15
6.69076e-15
9.07224e-15
9.2269e-18
7.2078e-17
-5.45043e-15
5.45043e-15
1.8254e-14
4.17859e-15
8.54324e-15
1.29641e-14
-1.64448e-14
-1.99994e-14
3.2359e-15
1.53545e-15
6.20917e-16
2.71894e-15
-3.58602e-15
8.67082e-16
-1.19503e-15
7.39028e-16
-1.13805e-14
2.69358e-15
-1.97614e-14
1.74197e-14
-8.11404e-16
-9.2787e-16
1.58606e-14
-1.52022e-17
-8.19136e-15
9.22699e-18
-1.46538e-14
2.79391e-15
-9.2542e-16
2.73835e-15
-9.26987e-15
2.10521e-14
3.25374e-15
-1.61413e-14
-7.06038e-15
-8.68864e-15
-6.38923e-15
-1.8077e-16
1.19329e-14
3.98758e-15
-1.11927e-15
-1.91677e-15
5.28415e-15
6.05787e-16
5.21817e-15
3.18786e-15
1.51688e-14
2.13968e-14
7.45028e-16
-3.69125e-15
5.06018e-16
-6.38923e-15
-2.5129e-16
3.73914e-16
-2.92052e-15
5.23554e-17
1.50546e-14
9.51677e-15
-1.69545e-14
5.21817e-15
6.69076e-15
3.55701e-15
2.33987e-14
2.20821e-15
5.09293e-16
-1.31315e-14
-5.38108e-18
5.38108e-18
-2.28014e-16
2.0164e-14
5.23386e-18
-5.23386e-18
1.6997e-14
-1.36186e-16
-2.47096e-17
1.73693e-14
-5.381e-18
5.23433e-18
2.0036e-14
-4.98145e-15
-1.42508e-14
2.51574e-15
-1.8964e-14
2.14985e-16
1.58929e-16
1.28066e-14
-1.32732e-14
-1.30294e-17
-1.42684e-15
-2.15918e-15
2.27579e-15
-1.58233e-15
1.66366e-17
-1.52823e-16
4.14207e-16
-1.17932e-14
1.16915e-14
2.35893e-15
1.98928e-15
9.51143e-16
-2.03799e-14
-7.83733e-15
1.97598e-15
1.50649e-15
1.72389e-14
3.36126e-17
-3.1098e-17
6.22285e-15
-9.43428e-15
-2.3254e-15
-2.23167e-14
-2.55926e-15
-1.42219e-14
-6.55409e-16
1.11092e-14
-1.10774e-14
4.84583e-16
2.05832e-17
-1.44613e-17
1.91119e-15
-7.08985e-15
-4.43467e-15
-2.25728e-15
)
;

boundaryField
{
    front
    {
        type            empty;
        value           nonuniform List<scalar> 0();
    }
    back
    {
        type            empty;
        value           nonuniform List<scalar> 0();
    }
    bottom
    {
        type            calculated;
        value           nonuniform List<scalar> 
12
(
-7.90673e-15
-2.2106e-14
1.83492e-14
-1.83792e-14
1.06897e-14
2.44488e-15
-2.44776e-15
1.86425e-14
2.20952e-14
-1.8607e-14
-1.06697e-14
7.89488e-15
)
;
    }
    left
    {
        type            calculated;
        value           uniform 0;
    }
    top
    {
        type            calculated;
        value           uniform 0;
    }
    right
    {
        type            calculated;
        value           uniform 0;
    }
    inner_arc
    {
        type            calculated;
        value           uniform 0;
    }
}


// ************************************************************************* //
