/*--------------------------------*- C++ -*----------------------------------*\
  =========                 |
  \\      /  F ield         | OpenFOAM: The Open Source CFD Toolbox
   \\    /   O peration     | Website:  https://openfoam.org
    \\  /    A nd           | Version:  9
     \\/     M anipulation  |
\*---------------------------------------------------------------------------*/
FoamFile
{
    format      ascii;
    class       volVectorField;
    location    "2.41";
    object      U;
}
// * * * * * * * * * * * * * * * * * * * * * * * * * * * * * * * * * * * * * //

dimensions      [0 1 -1 0 0 0 0];

internalField   nonuniform List<vector> 
1655
(
(0.016453 -0.0102148 -4.79113e-18)
(-0.0236258 0.0259931 3.15321e-17)
(-0.0883867 0.0199479 2.56032e-17)
(-0.0147998 0.0120632 -1.53183e-17)
(0.0524812 0.0473874 0)
(0.0106809 0.00556495 9.63907e-18)
(-0.131388 0.0225322 0)
(0.0455036 0.162968 -1.702e-17)
(0.100191 0.253003 0)
(0.0484819 0.0397688 -8.35357e-18)
(0.0379242 -0.0156854 3.82853e-17)
(0.0464839 -0.0208988 -3.77172e-17)
(0.0310774 0.0961336 -2.2888e-21)
(0.0226509 0.00406375 -1.9887e-17)
(-0.0566456 -0.203476 1.93896e-17)
(-0.226327 0.159855 0)
(-0.253914 0.139887 3.35091e-17)
(0.0442624 -0.0758441 1.02245e-17)
(0.0130364 0.00731029 -3.8443e-17)
(0.0194738 0.0297796 -1.1034e-17)
(-0.157366 0.0960407 4.44292e-18)
(0.0932887 0.273489 0)
(0.0654634 0.103163 -2.05578e-17)
(0.0548208 0.0927399 9.55376e-18)
(0.0254726 -0.017614 -6.02835e-18)
(-0.268524 0.159142 -3.95458e-17)
(-0.191811 0.148048 -1.74653e-17)
(0.0719708 0.245847 -2.03574e-17)
(0.0613224 0.240259 2.74585e-17)
(-0.0263609 0.0247789 -1.98681e-17)
(-0.215164 0.0415205 4.91136e-17)
(0.00238775 0.0261823 -5.32142e-18)
(0.00674801 -0.0638732 -7.30227e-18)
(-0.0867066 -0.00286398 0)
(0.0353204 -0.0881192 0)
(-0.0921644 -0.0126757 0)
(0.0193141 0.00876556 -2.59441e-17)
(-0.028575 0.0399002 0)
(0.00789121 -0.060056 -9.9946e-18)
(-0.0291563 0.0306105 -3.40431e-17)
(-0.137756 0.106108 1.90274e-17)
(0.0633711 0.0848558 1.66344e-17)
(0.00868262 -0.053921 -1.04507e-17)
(0.0168615 0.00663337 3.04284e-17)
(-0.0162292 -0.00243897 0)
(-0.0130427 0.00772805 0)
(-0.0245702 0.0108055 4.7645e-17)
(-0.0230952 0.0270049 0)
(0.0341554 0.0217327 1.8619e-17)
(0.0181368 -0.0574298 2.54175e-18)
(0.0225342 0.0128063 2.8659e-17)
(-0.0387812 0.0265368 -1.91613e-17)
(-0.0593559 -0.221172 -2.07631e-17)
(0.0975786 0.244301 1.82026e-17)
(0.137378 0.178906 -2.35304e-17)
(-0.114105 -0.18165 0)
(-0.0718922 0.053506 -9.26347e-18)
(0.0139412 -0.0112988 0)
(0.0404705 -0.0111547 0)
(-0.112392 -0.177966 2.00112e-17)
(-0.244406 0.0314866 -4.90864e-17)
(0.00628426 0.00510399 0)
(0.0304656 -0.01916 0)
(0.0620251 0.183508 -4.69947e-18)
(0.0468895 0.0128304 0)
(-0.133487 0.0401527 0)
(0.0419606 0.00123897 4.43904e-17)
(0.0274103 -0.0109058 -2.20116e-17)
(0.024425 -0.129605 0)
(0.0554013 0.080775 -1.90126e-17)
(0.00221513 -0.00328046 2.44633e-17)
(-0.105883 0.026688 -1.16143e-18)
(-0.0941795 0.0605375 -1.22669e-18)
(-0.0620931 -0.200002 1.77037e-17)
(-0.227468 -0.0285777 -2.2673e-17)
(-0.00787885 0.0156577 1.08224e-17)
(0.0547152 0.217573 -6.23645e-18)
(0.0252529 -0.186743 0)
(-0.140875 0.102164 0)
(-0.0320226 0.0409097 0)
(0.0434848 0.0129744 2.44284e-17)
(-0.0130833 0.0359976 -1.10066e-17)
(0.135822 0.178611 2.40346e-17)
(0.0320167 0.0114632 1.22734e-17)
(-0.074805 0.00679575 0)
(-0.0739487 -0.149523 0)
(-0.204584 -0.0215988 -1.3682e-17)
(-0.0998929 0.0759564 0)
(0.0103669 -0.024055 -9.5865e-18)
(-0.0836701 -0.143958 0)
(-0.0662582 -0.118286 0)
(-0.0984433 0.0143321 1.20078e-17)
(0.0271491 0.0159561 2.35301e-17)
(0.0143691 0.00868015 0)
(-0.0132115 0.071467 0)
(0.0201079 0.00987229 3.91758e-17)
(0.023089 0.000930317 -3.76264e-17)
(0.0181638 -0.00754189 0)
(-0.017778 0.0230824 -1.14038e-17)
(-0.0224011 -0.0748227 2.41196e-17)
(-0.12839 0.0077952 -7.57281e-17)
(0.00967961 -0.000470141 -2.48712e-17)
(0.0306977 0.0189931 -2.43032e-17)
(0.0300679 0.0019576 2.60712e-17)
(0.092697 0.0481565 0)
(0.0142099 0.00684137 -1.50581e-18)
(0.0940902 0.184259 -2.07549e-17)
(0.00841824 0.00106196 0)
(-0.0135329 -0.0686182 0)
(-0.109739 -0.165909 -2.09454e-17)
(-0.00267474 -0.0676145 1.68109e-17)
(0.0118841 -0.00187289 1.94991e-17)
(-0.115059 -0.163752 1.26998e-17)
(-0.0953972 -0.0268548 2.2063e-17)
(0.101404 0.160717 1.97372e-17)
(-0.0584549 -0.130668 -1.24496e-17)
(0.0934347 0.173636 -2.10997e-17)
(0.0282064 -0.00191828 0)
(0.0112393 -0.0173489 1.90041e-17)
(0.0991682 0.0616868 -4.2199e-17)
(-0.12949 -0.156 -3.61138e-17)
(-0.212567 -0.0434435 3.68379e-17)
(-0.23201 0.000502805 -2.91908e-17)
(0.11507 -0.00316958 2.74681e-17)
(0.0356551 0.00601037 9.65918e-18)
(0.0674612 0.145314 0)
(0.026962 -0.0534439 -2.39989e-17)
(-0.00740456 0.043562 2.16245e-17)
(-0.217183 0.16419 -2.91661e-18)
(-0.0473574 -0.0611954 -2.87416e-18)
(0.0541848 0.0328891 5.49489e-18)
(-0.00249132 -0.0676756 2.96739e-17)
(0.0717224 0.182315 1.82119e-17)
(0.0657573 0.132573 1.91833e-17)
(-0.00443486 -0.0250812 0)
(0.0039828 -0.00643823 0)
(0.060753 0.061321 -1.1223e-17)
(-0.0430956 -0.152365 1.88434e-17)
(-0.035074 0.0151308 1.01792e-17)
(0.0341435 -0.000560374 -1.00697e-17)
(-0.0697848 -0.133087 1.30364e-17)
(-0.146779 0.12276 1.79878e-17)
(-0.19856 0.164307 0)
(-0.20905 -0.0742733 0)
(-0.297383 0.137022 -1.10951e-17)
(-0.235076 -0.0626204 0)
(-0.169538 -0.0800315 -3.88983e-17)
(-0.118453 -0.142033 3.12625e-17)
(-0.130718 -0.102402 2.01982e-17)
(-0.307953 0.0671411 0)
(-0.296654 0.0274612 1.90907e-17)
(-0.312908 0.105702 -1.02702e-17)
(-0.262615 -0.0414431 1.99643e-17)
(-0.286267 -0.013022 1.74273e-17)
(-0.0664147 -0.1554 0)
(0.0218599 -0.0448604 3.87083e-17)
(0.0261341 0.00483333 2.47586e-18)
(-0.170943 -0.0666312 1.02919e-17)
(0.102881 0.171604 0)
(0.00911176 0.00927532 -2.64306e-17)
(-0.184121 -0.0882712 2.94172e-17)
(0.0817105 -0.0796551 0)
(0.108957 0.237275 -1.44051e-21)
(-0.176246 -0.0593039 0)
(-0.211963 -0.063896 0)
(0.0346542 -0.0122927 -1.01906e-17)
(0.0836078 0.237034 0)
(0.0895089 0.14993 -3.98287e-17)
(0.0174876 0.000554683 6.12145e-18)
(0.0151443 -0.249285 0)
(-0.23238 0.150054 0)
(0.139675 0.191449 0)
(-0.16083 -0.121249 1.2102e-17)
(0.106177 0.204215 2.09433e-17)
(-0.0660476 0.0428097 1.28787e-18)
(0.105404 0.193312 2.08694e-17)
(0.0452621 0.027455 5.51482e-18)
(-0.00284422 -0.260891 0)
(-0.106606 -0.0914458 -2.27944e-17)
(0.0174055 0.0077252 1.80499e-17)
(-0.0974553 -0.174234 2.56795e-17)
(0.142012 0.175003 1.62758e-17)
(0.00354596 0.000380962 -3.50932e-17)
(0.0938656 -0.00363132 -6.00799e-18)
(-0.00920715 0.00110102 -1.15684e-17)
(-0.0986474 -0.129585 0)
(-0.00756714 0.0173388 0)
(-0.103228 -0.111697 0)
(0.0794748 0.00134406 0)
(0.143894 0.172119 -1.58283e-17)
(-0.0110587 0.0149978 -2.08374e-17)
(0.0182988 0.0139119 0)
(0.119086 0.0681596 -2.12825e-17)
(-0.0184382 0.0262249 2.69254e-17)
(-0.0735984 -0.158297 0)
(0.0113135 -0.0159872 -1.30494e-17)
(0.107508 0.0549692 0)
(-0.0875873 -0.140989 0)
(-0.0166929 0.0177196 2.48746e-17)
(0.144958 0.154872 0)
(0.0520609 -0.00594542 1.37701e-17)
(0.0238083 -0.00289131 -6.18349e-18)
(-0.193897 -0.0104542 2.22608e-17)
(-0.203148 0.0120193 4.97606e-17)
(-0.0169388 -0.0628 -1.90418e-17)
(-0.189819 0.0945874 1.49361e-17)
(0.0114549 -0.0833525 0)
(0.105497 0.0271757 0)
(-0.0477412 -0.070024 6.81323e-17)
(-0.133005 -0.0178376 0)
(0.0928063 0.0267031 3.61125e-17)
(0.0315041 0.0256786 -9.99066e-18)
(-0.00215784 -0.0129962 0)
(0.0795088 0.152801 2.08174e-17)
(0.0337869 -0.00540558 -2.14269e-18)
(0.059041 -0.00376071 4.68411e-17)
(-0.130766 -0.0219642 -1.16605e-17)
(0.0545697 -0.0549977 0)
(0.0886504 0.0200481 2.05386e-17)
(0.14746 0.153453 0)
(-0.0198437 0.0334007 0)
(-0.142242 0.080636 -4.32938e-17)
(0.0123548 -0.069251 3.08949e-17)
(0.148213 0.16025 2.11443e-17)
(0.00819948 -0.0751196 -2.22763e-17)
(-0.0424091 -0.165982 2.1259e-17)
(-0.0388761 -0.175117 -2.11503e-17)
(-0.0371527 -0.0824901 0)
(0.0886309 0.0125622 2.60441e-17)
(0.106279 0.00609373 2.0873e-17)
(0.0240956 -0.11066 0)
(0.100306 -0.00958518 -2.61128e-17)
(0.119344 -0.0211495 2.60996e-17)
(0.0312965 -0.174631 -4.06931e-17)
(0.00434575 -0.0902653 -2.19707e-17)
(0.0223247 -0.11257 2.14169e-17)
(-0.0589149 -0.155563 0)
(0.1152 0.0445102 0)
(-0.0542515 -0.170623 2.63773e-17)
(0.120562 -0.0449629 2.08816e-17)
(-0.0943776 -0.173273 -1.97223e-17)
(-0.0198373 0.025034 3.80935e-17)
(0.137545 -0.0604242 -2.60777e-17)
(0.00573328 -0.0103451 1.82284e-17)
(0.150635 0.148415 5.28928e-18)
(-0.0732785 0.0699038 -2.6852e-17)
(-0.232267 0.0721716 1.5744e-17)
(0.107759 0.226547 0)
(-0.0760824 -0.153257 -5.28888e-18)
(0.147485 0.164761 0)
(0.0288391 0.0114566 -1.73997e-17)
(-0.0351602 0.0495676 4.32274e-18)
(0.0975199 0.0394291 -2.09995e-17)
(0.0570651 0.0283596 -1.51401e-17)
(0.00771798 -0.0995386 2.15978e-17)
(0.105907 0.0234434 -2.57744e-17)
(-0.0493531 -0.0951979 -2.21937e-17)
(0.151026 0.145525 -5.26972e-18)
(-0.0237689 -0.280376 2.77964e-17)
(0.0218441 -0.0734135 2.03568e-17)
(0.104629 -0.118663 1.57405e-17)
(-0.109641 -0.0571808 2.18598e-17)
(-0.0191808 -0.182639 2.10634e-17)
(0.0502003 0.0250385 2.08064e-17)
(0.080299 0.0193812 2.10586e-17)
(0.109115 0.148871 2.10765e-17)
(0.0258185 -0.0810984 0)
(0.0298135 -0.0356599 -2.99901e-17)
(0.00136313 -0.074543 1.16475e-17)
(0.0428965 -0.0460838 0)
(-0.0219246 -0.155438 -2.23091e-17)
(0.050646 -0.130665 1.60951e-17)
(-0.0216297 0.0201604 1.11714e-17)
(-0.111766 -0.0622834 0)
(0.0130925 -0.200843 -1.84184e-22)
(0.0540173 -0.115269 -1.62197e-17)
(-0.230391 0.0786595 0)
(0.151956 0.133874 2.63429e-17)
(0.112255 0.0814402 -2.6703e-17)
(0.128133 -0.150149 5.15883e-18)
(0.134608 0.130081 2.16029e-17)
(0.114683 0.138057 5.2869e-18)
(0.0312297 -0.139837 2.14937e-17)
(-0.083381 -0.216267 1.88167e-17)
(-0.0826854 -0.198589 -3.54343e-17)
(0.0708128 -0.0741867 -2.15854e-17)
(0.13491 0.106833 2.13156e-17)
(-0.00801703 -0.0719375 1.93545e-17)
(0.0207632 -0.0872152 0)
(0.0523475 -0.0783585 0)
(0.0855702 -0.0240201 2.11746e-17)
(-0.0830518 0.0658059 2.06174e-17)
(0.0375828 -0.0709942 4.48455e-17)
(0.137558 0.199414 0)
(0.133257 0.0853722 -2.1301e-17)
(-0.0175953 -0.117149 5.39641e-18)
(0.0265516 0.104776 0)
(0.104377 0.0154764 -3.63555e-17)
(-0.00326685 -0.0205133 -2.11473e-17)
(-0.0701896 -0.0912668 -5.34017e-17)
(-0.0211624 -0.0845591 -2.24996e-17)
(-0.0104236 -0.010119 0)
(-0.0125008 -0.0138742 3.26847e-17)
(-0.0137924 -0.139028 -5.35118e-18)
(-0.00978957 -0.183235 -4.2093e-17)
(0.119625 0.0933248 -2.27652e-17)
(-0.0343983 -0.105685 -5.43981e-18)
(-0.0910791 -0.125242 5.29692e-18)
(0.129453 0.0690029 -5.3097e-18)
(0.0102039 -0.187877 -2.09656e-17)
(0.0407804 -0.0746118 0)
(-0.262504 0.131795 1.11982e-17)
(-0.105103 -0.10497 -5.33205e-18)
(0.117845 -0.131698 -5.24737e-18)
(0.111248 0.159623 0)
(0.139201 0.0950325 0)
(-0.022215 0.00381633 -2.10742e-17)
(0.137913 0.155045 -2.12936e-17)
(0.0227315 -0.184414 5.22719e-21)
(-0.042384 -0.0943729 2.35086e-17)
(0.14027 0.134165 0)
(0.0381312 -0.0585828 -2.25848e-17)
(-0.011063 -0.0781682 2.97881e-18)
(-0.00955982 -0.127541 -5.38159e-18)
(-0.0222365 -0.0946429 -2.18962e-17)
(-0.0204519 0.00122869 3.04326e-17)
(-0.0239968 0.00338216 1.04213e-17)
(0.117528 0.148445 -2.66304e-17)
(-0.0723154 -0.110426 0)
(0.120323 0.0646214 -2.08835e-17)
(0.0164336 -0.10125 0)
(0.140447 0.113143 2.12871e-17)
(-0.0037065 0.0430451 9.6048e-18)
(-0.0983609 -0.0949341 -2.13441e-17)
(0.106814 0.0302638 2.13805e-17)
(-0.0514875 -0.157384 -1.5858e-17)
(0.127745 0.072962 1.5695e-17)
(0.0327747 -0.0805869 -2.24331e-17)
(-0.00777251 -0.175633 0)
(0.0961492 0.00404176 0)
(-0.0262117 -0.0840528 2.32251e-17)
(-0.00165681 -0.158326 2.12299e-17)
(0.0116449 -0.179093 0)
(0.0930461 0.00309659 -2.59869e-17)
(-0.0566056 -0.143465 0)
(-0.00244772 -0.147154 -3.73334e-17)
(0.0365987 -0.0366897 0)
(-0.0294578 -0.117526 5.41667e-18)
(-0.0443406 -0.106624 0)
(-0.115683 -0.0237692 0)
(0.0271465 0.0636308 0)
(0.0300212 -0.0216193 2.09644e-17)
(0.111687 -0.00609488 0)
(-0.0135849 -0.0961079 2.18125e-17)
(0.131895 0.216696 0)
(0.0410368 -0.186 0)
(-0.013442 -0.164699 0)
(0.00858385 -0.178614 -3.38616e-21)
(0.145454 0.104307 -2.10838e-17)
(0.022211 -0.164187 2.62871e-17)
(-0.102003 -0.197676 -1.80221e-17)
(0.0222193 -0.094061 0)
(0.124771 0.22541 -5.64575e-18)
(0.136452 -0.153271 2.0728e-17)
(-0.0175335 0.050355 2.19415e-17)
(-0.0979226 -0.188919 -1.82645e-17)
(-0.0807197 -0.108545 5.60646e-18)
(0.0222948 0.0451386 -2.0956e-17)
(0.147067 0.135535 0)
(0.0249174 -0.141882 0)
(-0.0241275 0.0339114 0)
(-0.00458871 -0.0883432 2.18664e-17)
(-0.0209649 0.0482582 0)
(0.0346121 -0.183766 0)
(0.0171229 0.0284444 0)
(0.135053 0.0818252 5.29191e-18)
(0.138875 0.0862585 1.56227e-17)
(0.0822163 0.164736 -8.9532e-22)
(0.0263257 -0.122276 5.30208e-18)
(-0.0287834 -0.157929 -2.12942e-17)
(0.0222129 -0.0927447 -5.45529e-18)
(0.141572 -0.147744 0)
(0.0965915 0.138124 -2.19048e-17)
(0.126673 -0.158649 -2.58774e-17)
(-0.0378068 -0.131995 -5.36644e-18)
(0.13153 0.208695 0)
(0.0470158 -0.18408 0)
(0.149373 0.120951 8.70237e-23)
(0.0247975 -0.117137 0)
(-0.0246816 -0.173893 -5.26618e-18)
(-0.191841 0.13874 1.97044e-17)
(0.0547649 0.00110253 -2.09863e-17)
(0.142052 0.0911288 -2.08471e-17)
(0.138007 0.192269 0)
(0.0117716 -0.163219 0)
(0.061154 -0.18234 -2.08633e-17)
(0.0549822 -0.179623 2.08771e-17)
(0.0673847 -0.0471463 0)
(0.116798 0.222287 0)
(0.120814 0.0833311 0)
(0.0189008 -0.183533 -2.09873e-17)
(0.0187126 -0.069103 4.46178e-17)
(0.150362 -0.14226 5.16794e-18)
(0.122321 0.137738 -2.63847e-17)
(0.105764 0.0524618 -5.22771e-18)
(0.000751393 -0.107886 -2.16269e-17)
(0.142948 0.181944 2.12848e-17)
(0.042285 -0.00767699 -2.63387e-17)
(-0.0187954 0.0263916 0)
(0.130937 0.0773661 0)
(0.00685231 0.00724864 0)
(0.159782 -0.132294 5.16535e-18)
(0.118689 -0.163059 5.19905e-18)
(0.122735 0.0683626 0)
(0.00608045 -0.116657 0)
(0.165753 -0.117822 -2.06659e-17)
(0.143662 0.176018 0)
(0.110106 -0.025541 0)
(0.107988 -0.168183 -1.56254e-17)
(0.0738777 -0.179479 2.08583e-17)
(0.114112 0.0783676 2.08668e-17)
(0.151807 -0.139072 -5.16614e-18)
(-0.0461028 -0.00172255 5.2996e-18)
(0.0702957 -0.178747 0)
(0.0881454 -0.174302 2.08641e-17)
(-0.184124 0.0894294 -1.32061e-17)
(0.1285 -0.0395705 0)
(0.0178184 -0.171598 1.58259e-17)
(-0.0730666 -0.123317 2.12982e-17)
(0.141671 0.0631698 2.60001e-17)
(-0.0512481 -0.13643 0)
(0.0296602 0.0246658 -1.46635e-21)
(0.0860418 -0.176418 0)
(0.0355799 0.0275608 -6.88277e-18)
(0.158531 -0.125269 1.5504e-17)
(0.169148 -0.114868 -1.55077e-17)
(0.0318183 -0.142142 2.11811e-17)
(-0.0369712 -0.0664501 9.02929e-18)
(-0.00160398 -0.00328698 0)
(0.1718 -0.115886 0)
(-0.124325 0.105466 1.81375e-17)
(0.122289 -0.141308 0)
(0.0641416 0.0150887 2.62926e-17)
(0.082782 -0.170722 0)
(0.117062 -0.15884 0)
(0.170229 -0.121147 -2.58322e-17)
(0.123264 0.0651553 2.08333e-17)
(0.128973 0.0750281 0)
(0.1242 0.0632249 -1.13574e-21)
(0.0856916 0.0293669 2.09007e-17)
(0.13127 0.0580727 -5.20565e-18)
(0.196181 -0.047214 -2.07108e-17)
(0.121287 0.0495395 -5.20596e-18)
(0.135946 -0.149154 5.17267e-18)
(0.134869 0.0551292 -4.16234e-17)
(0.141467 -0.133441 2.58695e-17)
(0.129504 0.0836917 0)
(0.105992 -0.160687 0)
(0.139477 0.0661866 0)
(0.00040307 0.0139895 0)
(0.136395 -0.136876 -5.17549e-18)
(0.129878 -0.132419 -5.18035e-18)
(0.137591 -0.14646 5.17398e-18)
(0.189174 -0.0453296 -2.07352e-17)
(0.103562 0.0725968 -2.09007e-17)
(0.0883236 0.139364 4.21064e-17)
(0.126458 -0.151283 -5.17855e-18)
(0.0955151 -0.168845 0)
(0.142237 -0.112941 5.22213e-18)
(0.14448 -0.132758 0)
(0.138222 -0.121018 -2.07419e-17)
(0.0290829 -0.118703 1.58672e-17)
(0.144659 -0.142099 5.17258e-18)
(0.0918509 0.0380312 5.22844e-18)
(0.196857 -0.0333887 2.07276e-17)
(0.144457 -0.116641 -5.18114e-18)
(0.132266 -0.102582 -3.63209e-17)
(0.167094 -0.0999086 -1.55246e-17)
(0.144725 -0.0825375 1.56519e-17)
(-0.00844548 0.0143467 -1.01121e-17)
(0.0458625 -0.170571 -2.624e-17)
(0.125726 0.0720218 0)
(0.149009 -0.105008 -5.17431e-18)
(0.0968107 0.0463307 5.22206e-18)
(0.151538 -0.104078 -5.17918e-18)
(0.149101 -0.125529 -1.55168e-17)
(0.0350421 0.0291025 -2.08886e-17)
(0.0375559 0.0314476 0)
(0.0976358 0.0457968 0)
(0.0582114 -0.169675 -5.25321e-18)
(0.197409 -0.0255374 -4.668e-17)
(0.0849337 0.0488009 -2.09041e-17)
(0.161427 -0.107695 5.16986e-18)
(0.166458 0.0370926 -5.19248e-18)
(0.164041 -0.0454414 -2.07756e-17)
(0.161163 -0.114985 5.17288e-18)
(-0.11196 0.0594561 -2.95165e-19)
(0.00676353 0.0219622 0)
(0.17409 -0.10826 1.5505e-17)
(0.170584 0.0421726 2.5947e-17)
(0.159453 -0.0208708 0)
(0.13602 -0.0980418 2.07512e-17)
(-0.0354898 0.00769717 1.05893e-17)
(0.185307 -0.0273249 2.59453e-17)
(-0.0867602 0.0547571 0)
(0.159347 -0.0301084 1.55917e-17)
(0.0743096 0.0393003 -2.09557e-17)
(0.169584 -0.0254321 -5.20251e-18)
(0.181533 -0.0507682 2.03393e-22)
(0.0653257 0.0405714 -1.57184e-17)
(0.115676 0.0892981 1.57243e-17)
(0.15616 -0.0392393 -2.59703e-17)
(0.140916 0.0624098 -5.20172e-18)
(0.154589 -0.0980719 -5.17964e-18)
(0.0455889 0.0317827 0)
(0.16686 0.031114 2.07665e-17)
(0.184645 -0.0391178 0)
(0.188455 -0.0737961 1.55168e-17)
(-0.0987336 0.0476147 1.87684e-17)
(-0.0957124 0.03975 0)
(0.15005 -0.0102916 -2.08341e-17)
(0.159533 -0.0423453 0)
(0.123866 -0.111897 4.1691e-17)
(0.190843 -0.032893 0)
(-0.126784 0.0525821 -2.00703e-17)
(0.16741 -0.0808488 2.58911e-17)
(0.135852 -0.0255237 -1.57218e-17)
(0.168238 -0.0354883 -2.97453e-22)
(0.178472 -0.0682968 5.18024e-18)
(0.146098 0.0138576 -2.59904e-17)
(0.136319 -0.0182308 2.0984e-17)
(0.086077 0.049774 2.0906e-17)
(-0.0240061 0.0186872 -1.16699e-17)
(-0.0275793 -0.00101181 1.98229e-17)
(-0.0235947 -0.0160697 1.31343e-18)
(-0.0214796 0.0283672 2.49387e-18)
(-0.00922955 -0.00949316 -9.60591e-23)
(-0.0240132 0.0119712 -4.26525e-17)
(-0.0267131 -0.00650617 0)
(-0.0226231 0.00236626 -1.84916e-17)
(-0.0269057 -0.0107566 -3.08998e-17)
(-0.0451751 0.0307925 -5.47353e-17)
(-0.0256906 -0.013366 -2.09739e-17)
(-0.0278506 0.0044023 0)
(-0.0257785 0.0186222 3.06828e-17)
(-0.0204256 -0.0165814 2.11121e-17)
(-0.025158 0.015848 2.28694e-17)
(-0.0268569 -0.000967831 0)
(0.155415 -0.0829494 1.55564e-17)
(-0.0340914 -0.00913111 -3.25394e-17)
(-0.0300866 0.0139006 0)
(0.156974 -0.0541012 -5.19379e-18)
(-0.226943 0.103527 0)
(0.131673 -0.0329203 -1.56328e-17)
(0.175726 -0.0615078 5.18078e-18)
(-0.0740683 0.0495277 0)
(-0.144077 -0.0545351 0)
(0.137826 -0.0850887 5.19058e-18)
(0.155838 0.0256782 -2.0793e-17)
(0.0920162 0.0471035 -5.22342e-18)
(0.197716 -0.0395382 1.55463e-17)
(0.123409 0.0190986 -3.64966e-17)
(0.160759 -0.0880438 5.21359e-18)
(0.111009 0.0309629 -1.55071e-17)
(0.108838 0.071472 0)
(-0.0443031 0.0358053 -2.29644e-21)
(0.196418 -0.0538715 2.58869e-17)
(0.0978128 -0.171921 -5.19612e-18)
(0.0820494 0.0385934 1.59143e-21)
(0.135075 0.0196826 -1.551e-17)
(0.112682 -0.0915345 -5.25518e-18)
(0.126753 0.0468096 4.16579e-17)
(-0.1198 -0.0567392 1.89779e-17)
(0.133104 0.0553713 4.68484e-17)
(0.137919 0.0290755 -2.58808e-17)
(0.193512 -0.0609357 -1.55235e-17)
(0.150146 -0.0477812 2.59696e-17)
(0.0545806 0.0071934 -4.20513e-17)
(-0.0377579 0.0345153 2.10114e-17)
(0.151679 -0.135211 -2.58523e-17)
(0.120744 -0.0275799 2.09055e-17)
(0.123989 -0.0212963 -3.8416e-22)
(0.128123 0.0856624 0)
(-0.0212821 0.0302924 3.55788e-17)
(0.141556 0.0249543 1.56109e-17)
(0.123459 -0.0148877 2.12325e-17)
(0.0565248 0.0333967 4.13277e-17)
(0.17649 -0.0479423 2.07731e-17)
(0.17618 0.0111445 5.19176e-18)
(0.178504 -0.0656053 -1.55645e-17)
(0.137668 -0.0790741 -2.07642e-17)
(0.173626 -0.0313389 5.19827e-18)
(0.170779 -0.0162088 0)
(0.168496 -0.00261354 -5.19864e-18)
(0.178888 -0.0835313 -5.17706e-18)
(-0.020334 0.0323102 -2.10152e-17)
(0.108529 -0.0951697 4.16413e-17)
(-0.0750792 -0.084573 -1.92985e-17)
(0.167168 0.00963125 -1.55864e-17)
(0.11066 0.0412791 -2.08509e-17)
(0.166786 0.0208288 -1.55707e-17)
(-0.210927 0.0211075 5.15713e-18)
(0.041948 0.0292836 1.52211e-17)
(0.0615217 0.0405398 2.09623e-17)
(-0.219156 0.0507706 1.01311e-17)
(-0.218016 0.0759827 0)
(-0.169189 -0.0476808 -1.10343e-17)
(-0.0718952 -0.114664 -3.53716e-17)
(-0.0810715 0.0603016 4.218e-17)
(-0.189647 -0.0303273 4.79875e-18)
(0.166787 -0.0704434 -2.07279e-17)
(0.140868 -0.0542989 5.19622e-18)
(-0.143703 0.112654 0)
(-0.202201 -0.00747359 -4.2581e-17)
(-0.0809415 -0.0621933 0)
(0.166993 0.0312152 -2.59485e-17)
(-0.0220361 0.032433 2.10301e-17)
(0.114848 -0.0340238 2.08438e-17)
(0.168184 -0.10015 -2.06751e-17)
(0.0279816 0.0244244 2.61303e-17)
(-0.0157369 0.0291742 -2.10313e-17)
(0.184056 -0.0588479 0)
(0.000609556 0.0214588 -4.20904e-17)
(0.0677324 0.0331981 -2.51484e-17)
(0.184419 -0.0763452 2.59139e-17)
(0.109041 0.0177666 2.08775e-17)
(0.182226 -0.0417215 -1.5578e-17)
(0.179728 -0.0256654 0)
(0.177243 -0.0110326 5.19969e-18)
(0.173379 0.00447209 -1.03819e-17)
(0.177982 -0.108647 -5.16596e-18)
(0.183635 0.0146801 1.55566e-17)
(0.175205 0.00217903 0)
(0.08614 -0.00978575 2.30349e-17)
(0.125182 -0.0397411 -2.60536e-17)
(0.173733 0.0141442 4.67097e-17)
(0.0917538 -0.0198506 0)
(0.0648851 -0.0229126 1.04295e-17)
(0.146547 -0.0605756 0)
(0.193156 -0.0679158 5.17406e-18)
(0.0943435 -0.040151 -2.60807e-17)
(-0.0430706 0.0135491 -1.81007e-17)
(0.163443 -0.127816 1.55002e-17)
(0.085003 -0.0254924 0)
(0.116459 -0.0439267 -2.74723e-17)
(0.0939 0.0646674 2.0912e-17)
(0.154494 -0.0766151 -5.18528e-18)
(0.0977039 -0.0121415 -2.28654e-17)
(0.177465 0.0345486 -2.07429e-17)
(-0.185455 0.123269 -5.2089e-18)
(0.172715 0.0250885 0)
(0.117391 -0.0820157 0)
(0.190391 -0.0767498 -5.17336e-18)
(0.180562 -0.0849385 0)
(0.169468 -0.0933608 2.58764e-17)
(0.0876789 -0.0520522 0)
(0.190069 -0.0844891 5.17149e-18)
(0.147013 0.047117 0)
(0.192351 -0.0448297 1.55464e-17)
(0.0397689 0.0132732 0)
(0.16867 -0.0771509 2.07279e-17)
(0.149368 0.0335511 5.19089e-18)
(0.15424 0.0198719 3.63836e-17)
(0.187477 -0.080894 -2.58632e-17)
(0.176842 -0.100685 0)
(0.118389 0.038587 0)
(0.069768 0.00148439 2.0511e-17)
(0.107336 -0.0386907 3.21984e-17)
(0.0734758 -0.019909 0)
(0.115043 -0.0632666 0)
(0.14699 0.0239884 3.6282e-17)
(0.187732 -0.00164793 2.07438e-17)
(0.0970821 0.00673636 -5.30921e-18)
(0.14477 0.0733193 0)
(0.121304 0.0144945 2.08524e-17)
(0.157168 0.00196773 1.04022e-17)
(0.153564 0.0632631 -5.19382e-18)
(0.073925 0.0245723 0)
(0.100717 0.0336102 5.19602e-18)
(0.0624731 0.00406842 -9.39431e-18)
(0.151116 0.0556407 0)
(0.152406 0.0426861 0)
(0.164909 0.0129833 -1.03862e-17)
(0.182567 -0.0933178 5.16955e-18)
(0.176275 0.0237592 -1.03754e-17)
(-0.00113782 0.0216292 5.26626e-18)
(0.0775745 -0.0281404 1.04035e-17)
(-0.00507393 -0.0436175 9.81388e-18)
(0.167123 0.0408566 0)
(0.171644 0.0351063 1.03758e-17)
(0.175969 0.0302698 -1.01341e-21)
(0.136386 0.0150109 5.20832e-18)
(0.121073 0.0697967 0)
(0.179746 0.0319283 5.18535e-17)
(0.132505 -0.0644183 2.59992e-17)
(0.155041 0.0513564 -5.19514e-18)
(0.0772714 0.00471776 -1.55712e-17)
(0.142217 0.0381755 0)
(0.111602 -0.0582577 -2.70347e-17)
(0.100875 -0.0452553 3.67794e-17)
(0.186245 -0.0917482 -5.16943e-18)
(0.127558 -0.0579935 5.20015e-18)
(0.0942545 -0.0692854 2.21945e-17)
(0.167187 0.0193367 -3.11639e-17)
(0.134753 0.0738636 0)
(0.141199 0.0810139 -2.60151e-17)
(0.101032 0.010167 0)
(0.192232 -0.0608177 -2.07101e-17)
(0.166364 0.0495454 4.67032e-17)
(0.10869 0.0559751 -1.25583e-21)
(0.0195207 0.00431341 2.10713e-17)
(0.192903 0.000150094 2.59252e-17)
(-0.0562236 0.0430833 0)
(0.193816 -0.0696119 -5.17443e-18)
(0.195376 -0.0540012 1.55311e-17)
(0.110405 0.0588002 0)
(0.0809678 0.0137749 5.50927e-18)
(0.152489 0.0614193 2.07849e-17)
(0.179287 -0.104829 -1.55028e-17)
(-0.185499 0.136612 0)
(0.183014 0.0218229 0)
(0.175196 0.0407231 0)
(0.0494111 -0.0512272 0)
(0.183628 -0.0977087 2.06728e-17)
(0.118453 0.127738 2.63304e-17)
(0.0471114 -0.0184704 -2.10959e-17)
(0.156376 0.0591462 -5.19325e-18)
(0.126264 0.041002 -2.08401e-17)
(0.18517 -0.0574041 1.55461e-17)
(0.0917131 0.0137278 0)
(-0.123302 0.0796612 5.19486e-18)
(0.097991 0.0534445 4.69997e-17)
(0.146109 0.0701794 0)
(0.182574 0.0253204 -2.59255e-17)
(0.104931 0.0619664 -5.21797e-18)
(0.135469 0.0520735 -1.56159e-17)
(0.134705 0.0713434 0)
(0.143139 0.00364974 -7.41852e-22)
(0.168688 0.0478525 -4.15173e-17)
(0.110832 0.0062104 -5.31291e-18)
(0.0667564 -0.0166508 0)
(0.097365 0.0654273 0)
(0.0901607 -0.05799 -1.72332e-17)
(0.0440166 -0.0258493 4.93252e-22)
(0.169852 0.0441416 -2.07552e-17)
(0.183266 0.0216109 -1.55582e-17)
(0.155404 0.0655155 -2.0774e-17)
(0.117519 -0.0772737 0)
(0.0691233 0.00717473 2.44856e-17)
(0.147955 0.00926292 1.05073e-17)
(0.153272 0.0693701 -9.75908e-22)
(0.0886767 0.010713 -5.32226e-18)
(0.0422523 0.0196741 0)
(-0.140235 0.102101 -3.61595e-17)
(-0.122201 0.0750046 -4.19459e-17)
(0.0746053 0.0291561 0)
(0.112394 0.0421651 2.08664e-17)
(0.158732 0.0623517 2.07706e-17)
(0.155571 -0.120726 0)
(0.113965 0.0642314 -2.08553e-17)
(-0.0330604 0.0312168 -2.09772e-17)
(-0.0613081 0.0462578 2.15519e-17)
(0.141027 0.0781927 1.56054e-17)
(0.0892596 0.0354565 0)
(-0.0572339 -0.0772277 -2.059e-17)
(0.147463 0.0552791 -2.07952e-17)
(0.132915 0.00985411 5.30686e-18)
(0.0230433 -0.00200526 0)
(0.146894 0.0754293 0)
(0.111341 0.0546711 -1.56425e-17)
(-0.0245693 0.0255791 2.0979e-17)
(0.124492 0.0445346 -5.21041e-18)
(0.100719 0.0358567 0)
(-0.0652634 -0.0546066 0)
(0.195288 -0.0384816 -3.62774e-17)
(0.189563 0.00310004 -5.18515e-18)
(0.0930535 -0.0731543 5.58737e-18)
(0.16386 0.0568926 2.59539e-17)
(0.188811 0.0114867 1.55548e-17)
(0.189233 0.00421888 -3.62951e-17)
(0.150212 0.0652456 -2.59835e-17)
(0.149205 0.0730925 -2.07875e-17)
(0.145754 0.0783918 2.59958e-17)
(0.151182 0.0697359 4.67671e-17)
(0.185548 0.0106145 1.5556e-17)
(0.186472 0.0147857 -1.55527e-17)
(0.0880955 0.0474994 -5.32174e-18)
(0.178909 -0.0918984 0)
(0.161018 0.0578145 -4.15382e-17)
(0.192087 -0.0097098 -2.07475e-17)
(0.0887333 0.0267783 -2.09132e-17)
(-0.080061 0.0602609 2.08665e-17)
(0.166577 0.0518579 -2.07583e-17)
(0.107118 0.059764 0)
(0.137262 0.0838082 0)
(-0.00952415 -0.106697 0)
(0.191339 -0.0294295 2.075e-17)
(0.0745958 0.0253776 0)
(0.0963088 0.0556452 -1.56654e-17)
(0.112634 0.0337808 0)
(0.0822655 0.0497289 0)
(0.115924 0.0768457 0)
(0.125489 0.0771837 -5.20891e-18)
(0.100909 0.0322107 0)
(0.159153 -0.129618 2.06741e-17)
(0.189691 -0.015 -5.18745e-18)
(0.141856 0.0824941 0)
(0.0770665 0.0529287 -2.64804e-17)
(0.00791851 -0.00645642 -2.11315e-17)
(0.103196 0.064009 0)
(0.194044 -0.0236158 5.18795e-18)
(0.0924589 -0.131927 0)
(0.0320848 -0.0586566 1.58946e-17)
(0.110788 0.0696938 0)
(0.0225952 -0.00234276 0)
(0.033374 -0.0290464 -2.11217e-17)
(0.133257 0.0799378 0)
(0.143097 0.0779464 -2.08022e-17)
(0.119144 0.0720695 5.21137e-18)
(-0.0778811 0.0554456 0)
(0.183008 0.00157769 1.55725e-17)
(0.129875 0.0726994 5.20633e-18)
(-0.0329732 -0.029725 0)
(0.0613626 0.0400997 -1.42448e-17)
(0.190329 -0.0206924 -2.59608e-17)
(-0.00313445 0.00539998 -8.6599e-22)
(0.133202 0.0797285 -2.08484e-17)
(0.0262569 -0.00419992 2.10632e-17)
(0.141581 0.080411 -2.08046e-17)
(0.110029 0.0215526 0)
(0.0655264 0.0188636 -1.57453e-17)
(0.136108 0.0859277 0)
(0.16818 -0.0155502 -2.08258e-17)
(0.140891 0.0738492 0)
(0.139919 0.0439319 5.20447e-18)
(0.14144 0.0897916 5.20773e-18)
(0.138379 0.065387 0)
(0.134915 0.0781291 5.20651e-18)
(0.0699779 0.039354 1.83004e-17)
(0.135144 0.077895 1.56128e-17)
(0.0663461 -0.0363877 0)
(0.142324 0.0300323 -1.56136e-17)
(-0.0444227 0.0334593 0)
(0.0790555 0.0492846 0)
(0.066269 0.0390888 -1.88534e-17)
(0.14142 0.0850342 0)
(-0.0336032 0.0208836 0)
(0.083784 0.0167728 -5.45879e-18)
(0.0783662 -0.0972073 2.62462e-17)
(0.141233 0.0879808 -2.08242e-17)
(0.159582 0.0528586 -2.07737e-17)
(-0.115762 -0.0444539 2.1778e-17)
(0.0106827 -0.0296748 2.13983e-17)
(0.129619 0.0757459 0)
(0.132239 0.0705051 -5.20654e-18)
(0.0869403 0.0569625 0)
(0.0370676 -0.0440525 -1.08736e-17)
(0.14039 0.0850012 1.5071e-22)
(0.122895 0.0687895 0)
(0.133741 -0.0110146 -2.65181e-17)
(0.0905894 0.057739 0)
(0.0742343 0.0361881 -5.24187e-18)
(0.0177259 -0.0191138 1.66995e-17)
(0.035633 -0.0390205 2.11029e-17)
(0.139332 0.086016 2.08225e-17)
(0.141243 0.0395617 1.56124e-17)
(0.0668683 0.0430651 -8.77027e-18)
(0.161384 0.047808 4.15455e-17)
(0.136737 0.0812158 2.08323e-17)
(0.0805945 0.0386864 -5.24211e-18)
(0.103921 0.054475 0)
(0.137234 0.0945846 0)
(0.105119 0.116168 2.10788e-17)
(0.149507 0.0510647 1.55957e-17)
(0.156829 -0.0119151 2.64793e-17)
(0.0620242 -0.0765765 -5.20868e-18)
(0.143139 0.0711992 0)
(0.0461541 -0.0625639 0)
(0.19575 -0.0122311 0)
(-0.137143 0.0903444 -2.08017e-17)
(0.101431 0.0457316 0)
(0.0976959 0.115717 -2.14301e-17)
(-0.136335 0.0990137 3.66069e-17)
(0.0611688 0.0384168 4.18956e-17)
(0.107811 0.0559719 -2.08734e-17)
(0.18363 -0.0158772 0)
(0.109201 0.0529435 -2.08746e-17)
(0.154428 0.0417072 0)
(0.116543 0.0657504 0)
(0.132403 0.0914704 0)
(0.0965324 0.0715695 1.58166e-17)
(0.147393 0.118038 0)
(-0.0714119 -0.126842 0)
(0.127459 0.0280775 0)
(0.0672624 0.0459738 0)
(0.0539924 -0.176703 -5.24902e-18)
(0.147504 0.109622 0)
(0.195813 -0.0200112 2.59299e-17)
(0.141198 0.0920497 -5.20729e-18)
(0.149563 0.136045 0)
(0.110997 0.0455154 -2.08705e-17)
(0.155159 0.036445 -5.19745e-18)
(0.0364626 -0.0552982 5.42961e-18)
(0.123754 0.0792324 0)
(0.0544365 0.0347529 -2.0425e-17)
(0.143366 0.0952474 -2.08723e-17)
(0.0978951 0.0210692 5.32597e-18)
(0.0852303 0.0616871 -1.57772e-17)
(0.0904387 0.0386934 2.66443e-17)
(0.0688899 -0.0935171 -2.0924e-17)
(0.141666 0.0950975 0)
(-0.0062452 -0.00699915 0)
(-0.0834555 0.0520662 0)
(0.102108 0.126727 0)
(0.101476 0.0774195 -1.57785e-17)
(0.143631 0.0943286 -5.23551e-18)
(0.144439 0.0991125 2.08881e-17)
(-0.249507 0.180831 1.22496e-17)
(0.100715 0.043765 -5.269e-18)
(0.0306801 -0.0392627 2.19109e-17)
(0.0888898 0.0498936 0)
(0.0799926 0.0595766 -1.67456e-17)
(0.127846 0.0617932 5.20973e-18)
(0.193261 -0.00740035 0)
(0.139173 0.0884039 -2.08323e-17)
(0.125385 0.0642659 5.2093e-18)
(0.152004 0.132835 -2.63013e-17)
(0.079533 -0.112833 0)
(0.145509 0.0984638 -4.18256e-17)
(0.100149 0.105137 0)
(0.146851 0.110819 0)
(0.02066 -0.0833939 5.44524e-18)
(0.148745 0.11798 0)
(0.105182 0.0835667 -1.58065e-17)
(0.0910765 0.0675778 -5.26362e-18)