/*--------------------------------*- C++ -*----------------------------------*\
  =========                 |
  \\      /  F ield         | OpenFOAM: The Open Source CFD Toolbox
   \\    /   O peration     | Website:  https://openfoam.org
    \\  /    A nd           | Version:  9
     \\/     M anipulation  |
\*---------------------------------------------------------------------------*/
FoamFile
{
    format      ascii;
    class       volVectorField;
    location    "2.57";
    object      U;
}
// * * * * * * * * * * * * * * * * * * * * * * * * * * * * * * * * * * * * * //

dimensions      [0 1 -1 0 0 0 0];

internalField   nonuniform List<vector> 
1655
(
(0.0393352 -0.0129808 -4.52723e-18)
(0.0113564 -0.0254521 2.98882e-17)
(-0.0742275 0.015823 2.42671e-17)
(-0.0163367 0.00444396 -1.44934e-17)
(0.0547048 0.0572696 0)
(0.0203261 0.00972381 9.11168e-18)
(-0.106057 0.0243165 0)
(0.0431203 0.157841 -1.61019e-17)
(0.0922104 0.260164 0)
(0.0529555 0.0513876 -7.89403e-18)
(0.0324744 -0.00617582 3.62579e-17)
(0.0451895 -0.0110735 -3.57203e-17)
(0.0291324 0.0943255 -1.95769e-21)
(0.0166128 -0.00843406 -1.88412e-17)
(0.00593749 -0.0677141 1.85331e-17)
(-0.113906 -0.0147984 0)
(-0.171802 0.0825953 3.20937e-17)
(0.0220537 -0.135706 9.63036e-18)
(0.00997318 0.0023958 -3.63856e-17)
(0.00853548 -0.00602214 -1.04593e-17)
(0.0147056 -0.0703401 4.24094e-18)
(0.087201 0.277746 0)
(0.0647628 0.106064 -1.94434e-17)
(0.0524391 0.0919283 9.03587e-18)
(0.0424855 -0.0120992 -5.69261e-18)
(-0.16558 0.0750531 -3.79457e-17)
(-0.0306086 -0.0398191 -1.68097e-17)
(0.0677241 0.244301 -1.92626e-17)
(0.0561919 0.230041 2.59985e-17)
(0.0322063 -0.0363674 -1.8787e-17)
(-0.15265 0.0403335 4.67293e-17)
(0.00612842 0.0181126 -5.04028e-18)
(0.0150035 -0.0624715 -6.91421e-18)
(-0.0760316 -0.0139439 0)
(0.0136795 -0.13707 0)
(-0.0773691 -0.0182905 0)
(0.0268551 0.0142684 -2.45188e-17)
(0.0113553 -0.0331822 0)
(0.0112607 -0.0620916 -9.46244e-18)
(0.0212796 -0.0408473 -3.22685e-17)
(0.0212923 -0.0736619 1.81779e-17)
(0.0622988 0.089401 1.57274e-17)
(0.0103968 -0.0555527 -9.89545e-18)
(0.0045566 -0.000833638 2.88252e-17)
(-0.00528806 -0.0439845 0)
(-0.0190731 0.00684916 0)
(-0.0222964 0.00420775 4.50844e-17)
(-0.00621888 -0.0114356 0)
(0.0446227 0.0298036 1.7595e-17)
(0.0106216 -0.0513775 2.40972e-18)
(0.0299901 0.0146304 2.7091e-17)
(-0.0291989 0.0231627 -1.81517e-17)
(0.0165028 0.0325587 -1.99042e-17)
(0.0905485 0.253684 1.72076e-17)
(0.070361 0.0899739 -2.2481e-17)
(-0.0178564 0.00644274 0)
(0.0236972 -0.0677744 -8.80149e-18)
(0.0106741 -0.00378165 0)
(0.0197385 -0.00146944 0)
(0.0269611 0.0571245 1.90908e-17)
(-0.164412 0.0269777 -4.66972e-17)
(0.0107733 0.00528311 0)
(0.0540565 -0.0169467 0)
(0.0583266 0.180482 -4.44588e-18)
(0.0161468 0.00141571 0)
(-0.104859 0.0430682 0)
(0.00335842 -0.00152084 4.2119e-17)
(0.0161591 0.000618053 -2.08488e-17)
(-0.000752775 -0.149451 0)
(0.0553437 0.0831083 -1.79825e-17)
(0.00245218 0.000935011 2.31537e-17)
(-0.0837321 0.0299816 -1.10148e-18)
(0.0607915 -0.0483621 -1.16537e-18)
(0.00332206 -0.0859133 1.6979e-17)
(-0.141745 -0.0248481 -2.15892e-17)
(-0.00730127 -0.00841498 1.0265e-17)
(0.0506865 0.209673 -5.90424e-18)
(-0.00528048 -0.143687 0)
(0.0133537 -0.0711648 0)
(0.0483264 -0.0393573 0)
(0.0161862 0.0022566 2.31895e-17)
(-0.0100244 0.00750437 -1.04453e-17)
(0.0644618 0.0797746 2.29592e-17)
(0.01369 0.00108631 1.16301e-17)
(0.0552185 -0.0460605 0)
(-0.0185901 -0.109786 0)
(-0.135284 -0.0189198 -1.30359e-17)
(0.0579555 -0.0539646 0)
(0.0704649 -0.0703232 -9.02028e-18)
(-0.0514349 -0.0583266 0)
(-0.0569446 -0.0923753 0)
(-0.0821181 0.0094456 1.13846e-17)
(0.0193837 0.0062471 2.22731e-17)
(0.026565 0.0162359 0)
(0.00193916 0.0239346 0)
(0.017919 0.00431869 3.70864e-17)
(-0.00610952 -0.00252518 -3.56678e-17)
(0.00212653 0.00116326 0)
(-0.0144371 0.01512 -1.07984e-17)
(0.0332745 -0.0646735 2.28566e-17)
(-0.104767 0.00362027 -7.18248e-17)
(-0.0132669 -0.00358936 -2.35346e-17)
(0.0387195 0.0281313 -2.29652e-17)
(0.00322157 -0.00526984 2.46852e-17)
(0.0342881 -0.0239932 0)
(0.0182212 0.00817465 -1.42411e-18)
(0.0928239 0.203061 -1.95967e-17)
(0.0174218 -0.0251668 0)
(0.0263093 -0.0675664 0)
(-0.0442478 -0.00127178 -2.02236e-17)
(0.0107291 -0.0689714 1.59187e-17)
(0.0196612 -0.000242697 1.84468e-17)
(-0.0511767 0.00891464 1.22128e-17)
(0.060748 -0.0502538 2.08993e-17)
(0.102801 0.18073 1.86329e-17)
(-0.0278875 -0.115371 -1.17822e-17)
(0.0929948 0.191463 -1.99219e-17)
(0.00562088 0.003324 0)
(0.0765935 -0.0649047 1.78751e-17)
(0.0328957 -0.0178732 -4.01648e-17)
(-0.0457387 0.00777116 -3.44995e-17)
(-0.13134 -0.0339079 3.50658e-17)
(-0.150495 0.000622987 -2.77616e-17)
(0.0975538 -0.00159586 2.60257e-17)
(-0.00249425 0.000225599 9.15714e-18)
(0.0642892 0.145118 0)
(0.00916056 -0.0452951 -2.27612e-17)
(0.00384456 0.0197158 2.05063e-17)
(-0.147257 -0.000765008 -2.81261e-18)
(0.0311881 -0.0556041 -2.72737e-18)
(0.0636405 0.0390374 5.19226e-18)
(0.0104207 -0.0701915 2.80852e-17)
(0.0682823 0.184438 1.72216e-17)
(0.0640352 0.133763 1.81431e-17)
(0.0120931 -0.0151804 0)
(0.0520552 -0.0811853 0)
(0.0625152 0.0700832 -1.06086e-17)
(0.0266611 0.0340878 1.80421e-17)
(0.0203975 -0.0547535 9.61033e-18)
(0.00252356 -0.00300745 -9.55349e-18)
(0.0277764 0.0534921 1.24453e-17)
(0.0090032 -0.0411611 1.7252e-17)
(-0.0493952 -0.0104179 0)
(-0.111783 -0.038465 0)
(-0.195335 0.0880404 -1.06063e-17)
(-0.121153 -0.0352791 0)
(-0.0862524 -0.0262342 -3.70461e-17)
(-0.0170244 0.0289798 2.98091e-17)
(-0.0489822 0.00601307 1.92648e-17)
(-0.183838 0.0509226 0)
(-0.162122 0.0247186 1.82288e-17)
(-0.197838 0.0724946 -9.81244e-18)
(-0.133411 -0.0209216 1.90768e-17)
(-0.147213 -0.00217653 1.66422e-17)
(-0.0121237 -0.129444 0)
(0.00559117 -0.0433549 3.67181e-17)
(0.00441868 -0.00290629 2.34609e-18)
(-0.116908 -0.0267882 9.79628e-18)
(0.10311 0.192289 0)
(-0.0118656 0.00100241 -2.50477e-17)
(-0.106474 -0.0244356 2.801e-17)
(0.141573 -0.100302 0)
(0.0994388 0.245031 -1.49619e-21)
(-0.119658 -0.0314266 0)
(-0.126179 -0.0381713 0)
(0.0174581 -0.00100736 -9.65888e-18)
(0.0790664 0.245353 0)
(0.0914172 0.169124 -3.76091e-17)
(-0.0119608 -0.00206276 5.79523e-18)
(-0.00825402 -0.147181 0)
(-0.194034 0.0948015 0)
(0.0938128 0.13875 0)
(-0.0805555 -0.00138315 1.1517e-17)
(0.101592 0.221023 1.97774e-17)
(0.0590376 -0.0468996 1.21887e-18)
(0.102231 0.210967 1.97076e-17)
(0.0576658 0.0364388 5.21101e-18)
(-0.0114307 -0.152637 0)
(0.0603804 -0.0487987 -2.17119e-17)
(0.00687933 -0.0153453 1.71095e-17)
(-0.014199 -0.0146978 2.4795e-17)
(0.086013 0.104066 1.54943e-17)
(0.0127607 0.0043374 -3.31761e-17)
(0.0706551 -0.00093086 -5.6961e-18)
(0.0160038 -0.0593619 -1.09253e-17)
(0.051993 -0.0421944 0)
(-0.00352267 -0.0157028 0)
(0.0542831 -0.0478889 0)
(0.0368573 -0.0786701 0)
(0.0944915 0.114201 -1.50716e-17)
(0.00396552 -0.0427368 -1.96915e-17)
(0.0200179 0.0095527 0)
(0.0364409 -0.038108 -2.02736e-17)
(-0.0110005 0.0236749 2.55123e-17)
(0.0258861 -0.0364313 0)
(0.0154172 -0.0187213 -1.23429e-17)
(0.0452352 -0.05084 0)
(0.0409521 -0.0377537 0)
(0.0474971 -0.0470727 2.34671e-17)
(0.0858699 0.079619 0)
(0.0167047 0.00164932 1.30755e-17)
(-0.00728348 0.00100825 -5.856e-18)
(-0.136686 -0.00727195 2.12018e-17)
(-0.143222 0.0150848 4.73346e-17)
(-0.0714079 -0.0730056 -1.79643e-17)
(-0.0306683 -0.0658816 1.43357e-17)
(0.0183277 -0.0602788 0)
(0.0228915 -0.0629204 0)
(0.0388074 -0.0583058 6.46159e-17)
(-0.100422 -0.0214216 0)
(0.0895081 0.0177515 3.42026e-17)
(0.0355922 0.0217916 -9.45688e-18)
(0.0392847 -0.0761127 0)
(0.0794741 0.163705 1.96692e-17)
(0.0120684 -0.0186955 -2.03322e-18)
(0.0224115 0.0018555 4.44534e-17)
(-0.104634 -0.0235725 -1.10559e-17)
(0.115605 -0.0846395 0)
(0.088541 0.016572 1.94471e-17)
(0.0979329 0.0935202 0)
(-0.00616408 -0.00378091 0)
(0.0309723 -0.0602919 -4.1481e-17)
(0.0168263 -0.0599934 2.92758e-17)
(0.126686 0.132471 2.00589e-17)
(0.0193357 -0.0603542 -2.1137e-17)
(-0.0190821 -0.0376263 2.03797e-17)
(-0.0512479 -0.0470479 -2.02436e-17)
(-0.0605141 -0.0944223 0)
(0.0909431 0.0167013 2.46498e-17)
(0.107393 0.015117 1.97568e-17)
(0.00222558 -0.0805244 0)
(0.103973 0.0237737 -2.46852e-17)
(0.122433 0.0228877 2.46939e-17)
(-0.00711643 -0.138456 -3.86155e-17)
(0.0184181 -0.0589733 -2.08793e-17)
(0.00504842 -0.0751762 2.03445e-17)
(0.0176886 -0.0309504 0)
(0.0201623 -0.0531028 0)
(-0.0494715 -0.0492447 2.52154e-17)
(0.120973 0.0306032 1.97491e-17)
(-0.0139342 -0.040737 -1.89496e-17)
(0.00824014 -0.0313007 3.60793e-17)
(0.142014 0.0242155 -2.47088e-17)
(0.0326661 -0.0471817 1.72179e-17)
(0.124196 0.108203 5.0176e-18)
(0.0513894 -0.0566867 -2.54875e-17)
(-0.169666 0.0645437 1.5042e-17)
(0.099156 0.236827 0)
(0.01086 -0.0385164 -5.0663e-18)
(0.116976 0.127843 0)
(0.0165239 -0.000338528 -1.64889e-17)
(0.0462259 -0.0484991 4.08889e-18)
(-0.00373514 -0.0234154 -1.99856e-17)
(0.0564707 0.0206362 -1.4336e-17)
(0.0147151 -0.0594718 2.05249e-17)
(0.102684 0.0163697 -2.44121e-17)
(0.0434095 -0.0554279 -2.10708e-17)
(0.134199 0.112323 -4.99781e-18)
(-0.0122208 -0.159034 2.66182e-17)
(0.0169635 -0.0557579 1.93144e-17)
(0.150842 -0.150757 1.48295e-17)
(0.0617718 -0.0468439 2.07736e-17)
(-0.102855 -0.0672174 2.00661e-17)
(0.0537645 0.0216095 1.9694e-17)
(-0.00242348 -0.0439754 2.00271e-17)
(0.112032 0.167701 1.98977e-17)
(0.0193277 -0.05718 0)
(0.00555859 -0.032862 -2.84193e-17)
(0.0202354 -0.0628495 1.10412e-17)
(0.0162609 -0.0352512 0)
(0.0136974 0.0391398 -2.13749e-17)
(0.000842537 -0.127231 1.52222e-17)
(0.000450763 -0.0345775 1.0569e-17)
(0.0527879 -0.0433859 0)
(-0.010815 -0.145267 -3.39232e-23)
(-0.00121712 -0.11857 -1.53278e-17)
(-0.172873 0.0702949 0)
(0.130693 0.0884505 2.49839e-17)
(0.0436995 -0.0153312 -2.55119e-17)
(0.160844 -0.180001 4.85923e-18)
(0.0574926 0.0200346 2.06418e-17)
(0.118661 0.153488 4.99602e-18)
(-0.00883726 -0.131169 2.03116e-17)
(0.0342189 0.0545353 1.79873e-17)
(0.0018706 -0.0372475 -3.39306e-17)
(0.00378041 -0.0993039 -2.04357e-17)
(0.0488379 -0.00508443 2.03785e-17)
(0.024352 -0.0655478 1.83498e-17)
(0.0193131 -0.0588643 0)
(0.01285 -0.125419 0)
(0.0186892 -0.087588 1.99981e-17)
(0.0447571 -0.0693784 1.95685e-17)
(0.0246755 -0.0501926 4.25619e-17)
(0.107575 0.171216 0)
(0.0438866 -0.0158884 -2.03653e-17)
(0.0122953 -0.0490843 5.14641e-18)
(0.0254456 0.100745 0)
(0.103568 0.0146539 -3.44246e-17)
(0.0224471 -0.0383043 -1.99527e-17)
(0.0515097 -0.0556164 -5.07612e-17)
(0.0290232 -0.0585368 -2.13761e-17)
(0.0066245 0.00225002 0)
(-0.000713451 -0.0039033 3.09639e-17)
(-0.00894173 -0.0465259 -5.11138e-18)
(-0.149364 -0.0837035 -3.99284e-17)
(0.051643 -0.0120788 -2.17233e-17)
(0.0255701 -0.0496034 -5.18117e-18)
(0.0119324 -0.0427582 5.06056e-18)
(0.0551598 -0.0228185 -5.06597e-18)
(-0.164611 -0.107335 -1.98512e-17)
(-0.00381306 -0.109679 0)
(-0.197652 0.0957842 1.06694e-17)
(0.0472792 -0.0391937 -5.08156e-18)
(0.168145 -0.163731 -4.93932e-18)
(0.11286 0.178999 0)
(0.0639001 0.00187139 0)
(0.0322085 -0.0736824 -1.99171e-17)
(0.0672047 0.0601102 -2.03414e-17)
(-0.188744 -0.116622 5.05792e-21)
(0.0372543 -0.0544668 2.23611e-17)
(0.0612919 0.0337566 0)
(0.0277262 -0.0423927 -2.14281e-17)
(0.0255581 -0.0626891 2.82437e-18)
(0.00196499 -0.0519253 -5.13218e-18)
(0.0252296 -0.0560661 -2.08081e-17)
(-0.0187006 0.00577268 2.88066e-17)
(-0.0158572 0.00392678 9.86687e-18)
(0.120225 0.164128 -2.5163e-17)
(0.0461467 -0.0501424 0)
(0.0461205 0.0258867 -1.99153e-17)
(0.0151905 -0.0615001 0)
(0.0556708 0.0141551 2.03522e-17)
(0.00393325 0.00213286 9.13287e-18)
(-0.0119612 -0.0526465 -2.03358e-17)
(0.0246084 -0.0616861 2.02706e-17)
(-0.0926281 -0.0614928 -1.5109e-17)
(0.0538028 0.0216972 1.49674e-17)
(0.0242254 -0.056039 -2.12953e-17)
(-0.0967186 -0.0691279 0)
(0.0112751 -0.0682424 0)
(0.033114 -0.0606164 2.20409e-17)
(-0.0502339 -0.0584115 2.02643e-17)
(-0.0120324 -0.145376 0)
(0.0964848 0.0191051 -2.45836e-17)
(0.0260352 0.053577 0)
(-0.0277846 -0.0568894 -3.56628e-17)
(0.0217206 -0.0281693 0)
(0.0174052 -0.0484519 5.16244e-18)
(0.0326479 -0.0507202 0)
(0.0405252 -0.049858 0)
(0.0272823 0.0667439 0)
(-0.0581798 -0.0596955 1.97722e-17)
(0.113886 0.0180196 0)
(0.0207559 -0.0556723 2.0751e-17)
(0.104697 0.194063 0)
(-0.164956 -0.134101 0)
(-0.0569815 -0.0536846 0)
(-0.11451 -0.0981706 -4.13033e-21)
(0.108068 0.0302473 -2.00435e-17)
(-0.20863 -0.101958 2.47391e-17)
(0.0331519 0.0652468 -1.72108e-17)
(0.0178791 -0.0619873 0)
(0.104215 0.215542 -5.34806e-18)
(0.137913 -0.149466 1.96128e-17)
(-0.00748944 0.0222393 2.08422e-17)
(0.00993432 -0.00853591 -1.75025e-17)
(0.0525204 -0.0514426 5.32714e-18)
(0.0238868 0.0501116 -1.98122e-17)
(0.0889418 0.0606401 0)
(-0.0213491 -0.0834783 0)
(-0.00887051 0.000905179 0)
(0.0206715 -0.0596106 2.07585e-17)
(-0.00984278 0.01673 0)
(-0.135134 -0.143333 0)
(0.0209766 0.0337571 0)
(0.0824919 -0.0082076 5.03887e-18)
(0.0979981 0.0637118 1.48435e-17)
(0.0811187 0.176935 -1.31148e-21)
(-0.00372847 -0.0811826 5.03738e-18)
(-0.0217935 -0.0372703 -2.03822e-17)
(0.00342697 -0.0795337 -5.17021e-18)
(0.17985 -0.150522 0)
(0.100756 0.159781 -2.06772e-17)
(0.106203 -0.165331 -2.44853e-17)
(0.0142248 -0.039219 -5.1301e-18)
(0.108289 0.19376 0)
(-0.143501 -0.149343 0)
(0.117099 0.0590862 -4.11135e-22)
(-0.00778339 -0.129539 0)
(-0.149196 -0.0775027 -4.98915e-18)
(-0.0191567 -0.0579097 1.89511e-17)
(-0.0538422 -0.0325285 -1.98144e-17)
(0.101175 0.0643018 -1.98073e-17)
(0.113221 0.17259 0)
(-0.0636338 -0.082013 0)
(-0.106441 -0.168718 -1.97495e-17)
(-0.157634 -0.128821 1.97116e-17)
(0.00281514 -0.0920153 0)
(0.105297 0.227891 0)
(0.118245 0.0714685 0)
(-0.149951 -0.116186 -1.98646e-17)
(0.0155135 -0.061324 4.23041e-17)
(0.205847 -0.133705 4.8724e-18)
(0.1256 0.148678 -2.4933e-17)
(0.0365694 0.0337715 -4.97517e-18)
(0.0123821 -0.0568153 -2.05878e-17)
(0.111425 0.148674 2.01938e-17)
(-0.0714735 -0.0209434 -2.48525e-17)
(0.00332572 -0.0122991 0)
(0.0809291 0.0550879 0)
(0.0150858 0.0167924 0)
(0.214757 -0.0942391 4.87682e-18)
(0.054042 -0.156343 4.93439e-18)
(0.0621428 0.0449626 0)
(0.00652136 -0.0588918 0)
(0.216394 -0.0544451 -1.95397e-17)
(0.119074 0.152173 0)
(0.112715 0.0291172 0)
(0.0281969 -0.171185 -1.48163e-17)
(-0.0918666 -0.160539 1.97283e-17)
(0.112793 0.0659015 1.97507e-17)
(0.192425 -0.111781 -4.87602e-18)
(-0.0463709 -0.0044069 5.01049e-18)
(-0.115338 -0.140016 0)
(-0.0184267 -0.193918 1.97031e-17)
(-0.149329 0.0782271 -1.2546e-17)
(0.132362 0.0268328 0)
(-0.0979955 -0.101121 1.50363e-17)
(-0.0822201 -0.0606878 2.01981e-17)
(0.132486 0.0448715 2.46331e-17)
(0.023067 -0.0421213 0)
(0.0204211 0.017022 -3.54926e-22)
(-0.0446953 -0.174313 0)
(0.0386894 0.035967 -6.50479e-18)
(0.199948 -0.0698969 1.46599e-17)
(0.236276 -0.0764159 -1.46395e-17)
(-0.0191149 -0.0953577 2.01507e-17)
(-0.0991808 -0.0528905 8.5029e-18)
(0.00984423 0.00909436 0)
(0.237295 -0.0591041 0)
(-0.0227646 -0.0187512 1.74493e-17)
(0.0256965 -0.0924185 0)
(-0.0420682 -0.0014935 2.49249e-17)
(-0.0937962 -0.125004 0)
(0.026438 -0.131533 0)
(0.240998 -0.0792778 -2.43612e-17)
(0.109685 0.049774 1.97385e-17)
(0.0664575 0.0421575 0)
(0.112758 0.0462197 -3.86937e-22)
(-0.0143368 -0.00143346 1.99205e-17)
(0.121469 0.0398784 -4.931e-18)
(0.188162 -0.0216413 -1.964e-17)
(0.111972 0.0314379 -4.93389e-18)
(0.111842 -0.125882 4.90222e-18)
(0.125814 0.0364024 -3.9438e-17)
(0.118632 -0.0828856 2.45494e-17)
(0.126776 0.0738117 0)
(-0.0258387 -0.119125 0)
(0.129212 0.0487702 0)
(-0.00425445 0.0130579 0)
(0.19985 -0.152419 -4.87014e-18)
(0.0569331 -0.0727022 -4.94158e-18)
(0.189094 -0.166259 4.87394e-18)
(0.180205 -0.0236021 -1.96589e-17)
(0.10216 0.0602505 -1.97825e-17)
(0.0909844 0.156672 3.97566e-17)
(0.0536632 -0.114676 -4.9319e-18)
(-0.046366 -0.135399 0)
(0.126053 -0.0390445 4.96064e-18)
(0.215734 -0.137935 0)
(0.207896 -0.121547 -1.9537e-17)
(-0.00350229 -0.0870082 1.50753e-17)
(0.144125 -0.107363 4.90238e-18)
(0.0138385 0.0207474 4.97962e-18)
(0.183444 -0.0167395 1.96469e-17)
(0.212661 -0.108963 -4.87991e-18)
(0.194376 -0.0937987 -3.4251e-17)
(0.21684 -0.0636003 -1.46735e-17)
(0.149337 0.008827 1.48442e-17)
(-0.0128881 0.00318246 -9.5685e-18)
(-0.176422 -0.110457 -2.47566e-17)
(0.079773 0.0568208 0)
(0.151992 -0.0214081 -4.91617e-18)
(0.0886826 0.0282671 4.94761e-18)
(0.210138 -0.0801205 -4.88856e-18)
(0.149686 -0.0630616 -1.47244e-17)
(0.0318388 0.0181951 -1.9777e-17)
(0.0316423 0.0142682 0)
(0.0381881 0.0364175 0)
(-0.0562148 -0.174865 -4.96249e-18)
(0.18248 -0.0132307 -4.42115e-17)
(0.0713183 0.0376949 -1.9802e-17)
(0.20071 -0.0315575 4.89511e-18)
(0.160834 0.0250461 -4.91764e-18)
(0.15566 -0.024908 -1.96956e-17)
(0.227685 -0.0892635 4.87661e-18)
(-0.0919167 0.0614798 -2.79905e-19)
(0.00390827 0.00775218 0)
(0.232164 -0.0667492 1.46359e-17)
(0.163944 0.0281624 2.45758e-17)
(0.142651 -0.0125833 0)
(0.192692 -0.0841748 1.95676e-17)
(-0.0383398 -0.00322324 1.00209e-17)
(0.170148 -0.016084 2.45866e-17)
(-0.0814256 0.0621231 0)
(0.144042 -0.0173281 1.47807e-17)
(0.0676782 0.0229503 -1.98519e-17)
(0.153684 -0.0152639 -4.92964e-18)
(0.175224 -0.0266276 3.80719e-22)
(0.0593778 0.0233414 -1.48851e-17)
(0.111605 0.0826569 1.48855e-17)
(0.144487 -0.0217985 -2.46201e-17)
(0.144133 0.0513184 -4.92145e-18)
(0.204899 -0.0711398 -4.88949e-18)
(0.0420886 0.0160776 0)
(0.160028 0.020078 1.9668e-17)
(0.172589 -0.0214104 0)
(0.201163 -0.034063 1.47004e-17)
(-0.0761417 0.0528139 1.77965e-17)
(-0.0747851 0.044334 0)
(0.146536 0.00559797 -1.97225e-17)
(0.167561 0.00956559 0)
(0.187867 -0.120504 3.9252e-17)
(0.177151 -0.018393 0)
(-0.0996349 0.0539651 -1.90349e-17)
(0.198101 4.66088e-05 2.45056e-17)
(0.119183 -0.0142549 -1.49042e-17)
(0.154985 -0.0201605 -2.36771e-22)
(0.187174 -0.0352284 4.90903e-18)
(0.13823 0.00926593 -2.46251e-17)
(0.118395 -0.0103307 1.98829e-17)
(0.0750289 0.0351386 1.98038e-17)
(0.0204508 -0.0159191 -1.10539e-17)
(-0.0199601 0.00118607 1.87678e-17)
(-0.00872754 -0.00732446 1.24456e-18)
(0.0157747 -0.0228292 2.36263e-18)
(0.00365879 0.0030345 -1.16427e-22)
(-0.00297986 0.00343571 -4.04431e-17)
(-0.020007 -0.00414697 0)
(-0.0168291 0.00413314 -1.74988e-17)
(-0.0137441 -0.00650992 -2.92697e-17)
(-0.0311881 0.0310335 -5.18648e-17)
(-0.0106013 -0.00613223 -1.98734e-17)
(-0.0198869 0.00461381 0)
(0.0277695 -0.0239656 2.90523e-17)
(-0.00596627 -0.00434117 2.00086e-17)
(0.0130119 -0.00674978 2.16793e-17)
(-0.0243482 -0.00405769 0)
(0.18762 -0.0521977 1.47175e-17)
(-0.0226887 -0.00564125 -3.08123e-17)
(-0.0136766 0.00751287 0)
(0.155445 -0.0296543 -4.92282e-18)
(-0.137386 0.0643303 0)
(0.118222 -0.0178738 -1.48205e-17)
(0.177661 -0.0323367 4.90943e-18)
(-0.0623919 0.0590778 0)
(-0.0721046 -0.0267761 0)
(0.180073 -0.0617259 4.90514e-18)
(0.149401 0.0166096 -1.96921e-17)
(0.083116 0.0305718 -4.94828e-18)
(0.187041 -0.017921 1.47319e-17)
(0.116239 0.0120487 -3.45646e-17)
(0.193583 -0.00361091 4.92846e-18)
(0.105231 0.019108 -1.46924e-17)
(0.108051 0.0582277 0)
(-0.0269372 0.0377477 -1.20799e-21)
(0.19334 -0.0225337 2.45392e-17)
(-0.0224279 -0.159728 -4.92141e-18)
(0.0759092 0.022308 -2.02013e-22)
(0.127821 0.0122426 -1.46935e-17)
(0.171575 -0.0919233 -4.95341e-18)
(0.117924 0.0289932 3.94742e-17)
(-0.0625467 -0.0227284 1.80747e-17)
(0.138022 0.0458277 4.43217e-17)
(0.128975 0.016913 -2.45248e-17)
(0.194263 -0.0270062 -1.47178e-17)
(0.143911 -0.026224 2.46141e-17)
(-0.0345933 0.0119158 -3.98055e-17)
(-0.0224765 0.0430086 1.99011e-17)
(0.222423 -0.126589 -2.4345e-17)
(0.10423 -0.0147052 1.98195e-17)
(0.104943 -0.0113793 -2.47256e-22)
(0.125007 0.0753129 0)
(-0.00869814 0.0306334 3.37205e-17)
(0.136146 0.0163263 1.47807e-17)
(0.103817 -0.00789541 2.01194e-17)
(0.0519931 0.0191948 3.91435e-17)
(0.183528 -0.00157722 1.96587e-17)
(0.163855 0.00548637 4.91856e-18)
(0.199239 -0.00395461 -1.47248e-17)
(0.171712 -0.0550574 -1.96222e-17)
(0.171181 -0.00165482 4.91974e-18)
(0.162725 -0.00118559 0)
(0.157611 0.00113542 -4.92504e-18)
(0.216097 -0.0127207 -4.89687e-18)
(-0.00429273 0.0373412 -1.99144e-17)
(0.170027 -0.101511 3.92392e-17)
(0.0158462 0.0223934 -1.84523e-17)
(0.155054 0.00540428 -1.47697e-17)
(0.102312 0.0249415 -1.97556e-17)
(0.154347 0.0111058 -1.47577e-17)
(-0.11176 0.0170748 4.92871e-18)
(0.0409094 0.0207093 1.44131e-17)
(0.0543397 0.0274452 1.98516e-17)
(-0.127733 0.0358265 9.67848e-18)
(-0.132266 0.0505598 0)
(-0.0800039 -0.0235604 -1.05332e-17)
(0.0164319 0.0546142 -3.37637e-17)
(0.0134145 -0.0397499 4.01591e-17)
(-0.0902926 -0.0140917 4.58596e-18)
(0.179042 -0.0390683 -1.96283e-17)
(0.141917 -0.0306147 4.92269e-18)
(-0.0622267 0.0119925 0)
(-0.0983909 -0.000979947 -4.07032e-17)
(-0.0230583 -0.00470803 0)
(0.154959 0.0177412 -2.45929e-17)
(-0.0175745 0.0483308 1.98882e-17)
(0.102066 -0.0178784 1.97594e-17)
(0.210469 -0.0211631 -1.95801e-17)
(0.0352751 0.0247775 2.47256e-17)
(0.000136666 0.0427019 -1.99035e-17)
(0.195058 -0.00652212 0)
(-0.0136713 0.0500073 -3.97742e-17)
(0.0640839 0.0210426 -2.382e-17)
(0.210928 -0.0124406 2.45406e-17)
(0.0993819 0.0106939 1.97726e-17)
(0.181751 -0.00486261 -1.4758e-17)
(0.172107 -0.00404182 0)
(0.16591 -0.00203135 4.92564e-18)
(0.15999 0.00122928 -9.83667e-18)
(0.237805 -0.0490913 -4.88101e-18)
(0.170916 0.00742622 1.47409e-17)
(0.162374 0.00179087 0)
(0.0585462 -0.00237817 2.1842e-17)
(0.116011 -0.0212393 -2.46982e-17)
(0.160667 0.00721908 4.42721e-17)
(0.0709825 -0.00862627 0)
(0.0489702 -0.00769299 9.88663e-18)
(0.153664 -0.0345824 0)
(0.201276 -0.0283506 4.90524e-18)
(0.0927635 -0.0223758 -2.47053e-17)
(-0.040605 -0.00144983 -1.71197e-17)
(0.234902 -0.093121 1.4618e-17)
(0.0682615 -0.0106342 0)
(0.113118 -0.0240827 -2.60375e-17)
(0.0932878 0.0530683 1.9794e-17)
(0.177901 -0.0469153 -4.90553e-18)
(0.0732155 -0.0047598 -2.1677e-17)
(0.167761 0.0213642 -1.96536e-17)
(-0.175472 0.0799962 -4.95163e-18)
(0.16021 0.0136794 0)
(0.166431 -0.0696487 0)
(0.21265 -0.0224814 -4.89989e-18)
(0.206915 -0.0439926 0)
(0.209171 -0.0568177 2.44574e-17)
(0.114646 -0.039374 0)
(0.217643 -0.0316065 4.89718e-18)
(0.13707 0.0295395 0)
(0.188307 -0.0127534 1.47267e-17)
(0.0460051 0.033407 0)
(0.189114 -0.043023 1.96283e-17)
(0.139404 0.019512 4.91934e-18)
(0.1462 0.012005 3.44578e-17)
(0.209517 -0.0366052 -2.45025e-17)
(0.230153 -0.0310134 0)
(0.110466 0.0231302 0)
(0.0411758 -0.00154034 1.94555e-17)
(0.0991101 -0.0204186 3.05154e-17)
(0.0533233 -0.00755956 0)
(0.141407 -0.043229 0)
(0.137793 0.0138197 3.43823e-17)
(0.172098 -0.00151246 1.9659e-17)
(0.0795745 0.00228571 -5.03128e-18)
(0.134947 0.0570975 0)
(0.111534 0.00831024 1.97487e-17)
(0.143445 0.000233151 9.8557e-18)
(0.145555 0.0454467 -4.91999e-18)
(0.0553336 0.0101835 0)
(0.0945034 0.0204276 4.92249e-18)
(0.0309562 -0.0011609 -8.91156e-18)
(0.141843 0.0374142 0)
(0.142494 0.0260039 0)
(0.154098 0.0068948 -9.83918e-18)
(0.226515 -0.0261624 4.89288e-18)
(0.166311 0.0139895 -9.82914e-18)
(0.00700403 0.047015 4.97055e-18)
(0.0650289 -0.0115873 9.86305e-18)
(-0.0966506 -0.0273833 9.24511e-18)
(0.156214 0.0250329 0)
(0.160353 0.0207209 9.8341e-18)
(0.166978 0.0188731 -4.08106e-22)
(0.127578 0.00884202 4.93318e-18)
(0.124648 0.0605131 0)
(0.168076 0.0189087 4.91392e-17)
(0.149207 -0.0399464 2.4614e-17)
(0.145897 0.0333589 -4.92258e-18)
(0.0489781 7.4367e-05 -1.47704e-17)
(0.132304 0.0226174 0)
(0.130745 -0.0388276 -2.557e-17)
(0.105063 -0.0261971 3.48405e-17)
(0.225742 -0.0343464 -4.89466e-18)
(0.137232 -0.0350154 4.92299e-18)
(0.142634 -0.0655861 2.09333e-17)
(0.157664 0.0113844 -2.95205e-17)
(0.11917 0.0590634 0)
(0.126106 0.0667224 -2.46492e-17)
(0.0861306 0.00497148 0)
(0.199435 -0.0161285 -1.96187e-17)
(0.157276 0.032636 4.42505e-17)
(0.0974988 0.0396355 -3.14447e-22)
(0.0101232 0.0478719 1.98898e-17)
(0.176894 -0.00163151 2.45688e-17)
(-0.0580784 0.0585164 0)
(0.205582 -0.0223946 -4.90492e-18)
(0.194561 -0.0170239 1.47244e-17)
(0.0590996 0.048696 0)
(0.0578516 0.00486493 5.22402e-18)
(0.152105 0.0476674 1.96729e-17)
(0.234861 -0.0527101 -1.46586e-17)
(-0.192314 0.0703536 0)
(0.169263 0.0115837 0)
(0.166179 0.0262246 0)
(0.00404676 -0.107044 0)
(0.227805 -0.0464799 1.95462e-17)
(0.122453 0.138746 2.48881e-17)
(0.0070544 0.0435138 -1.99739e-17)
(0.148628 0.0411563 -4.91977e-18)
(0.127781 0.0314748 -1.97196e-17)
(0.183764 -0.0289579 1.4738e-17)
(0.0746392 0.00641086 0)
(-0.139728 0.0635783 4.92139e-18)
(0.0928665 0.0383713 4.45077e-17)
(0.13751 0.0531907 0)
(0.170284 0.0142238 -2.45688e-17)
(0.103352 0.0482667 -4.93964e-18)
(0.139034 0.0417657 -1.47736e-17)
(0.121607 0.0556827 0)
(0.130177 0.00133855 -3.38474e-22)
(0.162862 0.0331252 -3.93225e-17)
(0.0971361 0.00275841 -5.03408e-18)
(0.0537731 0.0411132 0)
(0.0958834 0.0522827 0)
(0.123002 -0.0453839 -1.62863e-17)
(-0.026952 0.0348211 4.06129e-21)
(0.160416 0.0280961 -1.96656e-17)
(0.171337 0.0121094 -1.47423e-17)
(0.149731 0.0485904 -1.96739e-17)
(0.159565 -0.0621494 0)
(0.0394593 0.000393737 2.32295e-17)
(0.136808 0.00490262 9.95339e-18)
(0.147321 0.0529675 -5.3443e-22)
(0.0693334 0.0037784 -5.04446e-18)
(0.0107401 0.0242514 0)
(-0.17849 0.0540756 -3.4238e-17)
(-0.12235 0.0696021 -3.97227e-17)
(0.055497 0.0130065 0)
(0.112574 0.0319288 1.97477e-17)
(0.15524 0.0468454 1.96677e-17)
(0.227546 -0.101329 0)
(0.116752 0.0536416 -1.97323e-17)
(-0.056466 0.052115 -1.97826e-17)
(-0.0785919 0.0575084 2.03758e-17)
(0.127966 0.0637587 1.4786e-17)
(0.0780455 0.020719 0)
(-0.0978607 0.00136496 -1.94856e-17)
(0.149265 0.0434962 -1.96805e-17)
(0.122019 0.0051043 5.02655e-18)
(-0.0172526 0.0450164 0)
(0.139948 0.0604255 0)
(0.101776 0.0370273 -1.48194e-17)
(-0.0793138 0.0446503 1.97801e-17)
(0.127737 0.035449 -4.93017e-18)
(0.0949394 0.0243457 0)
(-0.0950335 -0.00277504 0)
(0.185979 -0.0134869 -3.43864e-17)
(0.173929 0.000484977 -4.91454e-18)
(0.146375 -0.0729075 5.27149e-18)
(0.15725 0.0401064 2.45837e-17)
(0.174459 0.0051543 1.4741e-17)
(0.174323 0.000747531 -3.43972e-17)
(0.150498 0.0521187 -2.45933e-17)
(0.146294 0.059117 -1.96797e-17)
(0.13784 0.0641042 2.46186e-17)
(0.148341 0.0549753 4.42752e-17)
(0.170383 0.00463324 1.47437e-17)
(0.172144 0.00712958 -1.47418e-17)
(0.0782196 0.0307405 -5.04166e-18)
(0.215693 -0.0484502 0)
(0.157082 0.0421334 -3.9333e-17)
(0.176313 -0.00528985 -1.96625e-17)
(0.0738287 0.0143433 -1.98192e-17)
(-0.116409 0.0526817 1.97043e-17)
(0.159613 0.0354007 -1.96638e-17)
(0.0880688 0.0482938 0)
(0.131097 0.073303 0)
(0.0149188 -0.0551523 0)
(0.180277 -0.010015 1.96504e-17)
(-0.000194464 0.0220148 0)
(0.0908688 0.0401232 -1.48348e-17)
(0.111158 0.0248775 0)
(0.0764576 0.0356981 0)
(0.115486 0.0649164 0)
(0.126938 0.0680621 -4.92888e-18)
(0.0945382 0.0213243 0)
(0.233944 -0.111213 1.94693e-17)
(0.175118 -0.00644261 -4.91452e-18)
(0.131295 0.0698088 0)
(0.0803122 0.0475088 -2.5045e-17)
(-0.0868201 0.0269552 -1.98784e-17)
(0.101064 0.0496729 0)
(0.180066 -0.00988635 4.91449e-18)
(0.101816 -0.179312 0)
(-0.135967 -0.0328786 1.49418e-17)
(0.110824 0.0570742 0)
(-0.0215084 0.0192993 0)
(-0.0713722 0.0155984 -1.99428e-17)
(0.133065 0.0708812 0)
(0.139265 0.0657572 -1.96928e-17)
(0.122183 0.0624173 4.93034e-18)
(-0.136182 0.0410562 0)
(0.168397 -0.000735762 1.47551e-17)
(0.133839 0.064255 4.92513e-18)
(-0.0595162 0.00548579 0)
(0.0668482 0.038238 -1.34742e-17)
(0.174461 -0.0128899 -2.45926e-17)
(-0.0614201 0.0382128 -2.61907e-21)
(0.0968287 0.063302 -1.97884e-17)
(-0.0351208 0.016587 1.99338e-17)
(0.137369 0.0689054 -1.96953e-17)
(0.103015 0.014164 0)
(0.00760243 0.0309272 -1.49358e-17)
(0.129697 0.075337 0)
(0.151622 -0.0100764 -1.97302e-17)
(0.141924 0.0630756 0)
(0.14142 0.0337594 4.92527e-18)
(0.110127 0.0703983 4.9423e-18)
(0.142472 0.0552484 0)
(0.113396 0.0646667 4.93675e-18)
(0.0613447 0.0255604 1.73321e-17)
(0.135018 0.068434 1.47743e-17)
(0.0230855 -0.100509 0)
(0.13888 0.0208478 -1.47832e-17)
(-0.118508 0.028942 0)
(0.0753192 0.0370311 0)
(0.0598126 0.0273289 -1.78563e-17)
(0.129823 0.07234 0)
(-0.141754 0.0143309 0)
(0.062368 0.00716089 -5.17604e-18)
(0.116555 -0.138316 2.47359e-17)
(0.120356 0.0729406 -1.97417e-17)
(0.157431 0.039086 -1.96684e-17)
(-0.00823061 -0.0544046 2.07777e-17)
(-0.0695282 0.00910734 2.01382e-17)
(0.0971848 0.0625277 0)
(0.135952 0.0614194 -4.92546e-18)
(0.0854228 0.0448216 0)
(0.0885475 -0.0951418 -1.02334e-17)
(0.120968 0.0712564 6.71209e-22)
(0.103347 0.0558633 0)
(0.115856 -0.00626646 -2.51279e-17)
(0.0876034 0.0441111 0)
(0.0410591 0.0378317 -4.9729e-18)
(-0.074714 0.00751667 1.57493e-17)
(-0.0958431 0.000957875 1.98995e-17)
(0.109327 0.069564 1.976e-17)
(0.140926 0.0292171 1.47758e-17)
(0.0694785 0.0373278 -8.29593e-18)
(0.158218 0.0341873 3.93354e-17)
(0.112044 0.0666986 1.97532e-17)
(0.0375298 0.0390487 -4.97318e-18)
(0.060012 0.0487387 0)
(0.123344 0.0793315 0)
(0.11093 0.133704 1.99127e-17)
(0.150034 0.0388838 1.47597e-17)
(0.140198 -0.00768976 2.50889e-17)
(0.110379 -0.117294 -4.90422e-18)
(0.143874 0.059468 0)
(0.0856503 -0.117311 0)
(0.179321 -0.00783945 0)
(-0.216022 0.000406118 -1.96707e-17)
(0.00789595 0.00669213 0)
(0.103534 0.134841 -2.02442e-17)
(-0.194047 0.0391807 3.46615e-17)
(0.0487705 0.0292506 3.96795e-17)
(0.107728 0.0438121 -1.97556e-17)
(0.167539 -0.0104702 0)
(0.109554 0.0413273 -1.97568e-17)
(0.152446 0.0301791 0)
(0.0813001 0.0550178 0)
(0.12434 0.0791968 0)
(0.0980856 0.0701996 1.49587e-17)
(0.0977094 0.0454231 0)
(0.0417469 -0.0464184 0)
(0.123965 0.0194908 0)
(0.0766215 0.0547489 0)
(-0.0828563 -0.175609 -4.96952e-18)
(0.121374 0.0418932 0)
(0.179911 -0.0115419 2.45693e-17)
(0.118862 0.0751689 -4.93826e-18)
(0.105924 0.0760398 0)
(0.111901 0.0352612 -1.97516e-17)
(0.151667 0.0253049 -4.9207e-18)
(0.06899 -0.113172 5.11366e-18)
(0.124635 0.069703 0)
(0.0659934 0.0449831 -1.9298e-17)
(0.113319 0.0718542 -1.98112e-17)
(0.0862826 0.0123291 5.0452e-18)
(0.0900765 0.063177 -1.49213e-17)
(0.0785838 0.0228865 2.52447e-17)
(0.0983933 -0.138987 -1.97204e-17)
(0.12008 0.0768464 0)
(-0.125887 -0.000557677 0)
(-0.200652 0.00409516 0)
(0.107499 0.146901 0)
(0.102232 0.0783063 -1.4922e-17)
(0.0929571 0.0425771 -4.98507e-18)
(0.116709 0.0742487 1.98262e-17)
(-0.17348 0.0597358 1.17262e-17)
(0.0959979 0.0304772 -4.98934e-18)
(0.0765968 -0.0963245 2.06216e-17)
(0.0668426 0.0428211 0)
(0.0874234 0.073543 -1.58217e-17)
(0.132985 0.0526248 4.92801e-18)
(0.177099 -0.00568255 0)
(0.125284 0.0756358 -1.97392e-17)