/*--------------------------------*- C++ -*----------------------------------*\
  =========                 |
  \\      /  F ield         | OpenFOAM: The Open Source CFD Toolbox
   \\    /   O peration     | Website:  https://openfoam.org
    \\  /    A nd           | Version:  9
     \\/     M anipulation  |
\*---------------------------------------------------------------------------*/
FoamFile
{
    format      ascii;
    class       volScalarField;
    location    "1.36";
    object      p;
}
// * * * * * * * * * * * * * * * * * * * * * * * * * * * * * * * * * * * * * //

dimensions      [0 2 -2 0 0 0 0];

internalField   nonuniform List<scalar> 
1655
(
13.7867
13.787
13.7777
13.7897
13.7977
13.7949
13.777
13.7877
13.7729
13.7974
13.7871
13.7869
13.7896
13.7883
13.7769
13.7647
13.7435
13.7751
13.7931
13.7895
13.7791
13.7724
13.7942
13.7949
13.7865
13.7553
13.7666
13.7767
13.7793
13.7994
13.7704
13.7787
13.7908
13.7856
13.7767
13.7877
13.7949
13.7878
13.791
13.7868
13.7809
13.7962
13.7913
13.7931
13.7867
13.7893
13.7893
13.7863
13.7965
13.7913
13.7945
13.7778
13.7704
13.776
13.7766
13.7884
13.7743
13.7873
13.7887
13.7831
13.7717
13.7936
13.7866
13.7867
13.7926
13.7715
13.7919
13.7876
13.7758
13.7963
13.7875
13.7741
13.7883
13.7785
13.7813
13.7873
13.7807
13.7786
13.7762
13.7965
13.7919
13.7872
13.7746
13.793
13.7934
13.7904
13.7816
13.7857
13.7863
13.7909
13.7922
13.7794
13.7931
13.7967
13.7875
13.7931
13.7919
13.7886
13.7808
13.7911
13.7799
13.792
13.7971
13.7922
13.7711
13.7936
13.7861
13.8
13.7914
13.7918
13.7903
13.7874
13.7919
13.791
13.7892
13.7925
13.7876
13.7892
13.7865
13.773
13.7906
13.7858
13.7761
13.7899
13.7915
13.7917
13.7911
13.7872
13.7601
13.7946
13.7955
13.7904
13.7874
13.7919
13.797
13.7869
13.7971
13.7667
13.7766
13.7911
13.7776
13.762
13.7538
13.7829
13.7503
13.7794
13.7829
13.7852
13.7845
13.7594
13.7648
13.7545
13.7743
13.7698
13.789
13.7916
13.7922
13.7897
13.7877
13.7926
13.7886
13.7858
13.7766
13.7881
13.7869
13.7882
13.7773
13.7904
13.792
13.7769
13.7573
13.7797
13.7891
13.7829
13.7909
13.7847
13.796
13.7766
13.7892
13.7919
13.7887
13.7805
13.7944
13.7902
13.7878
13.7867
13.7871
13.7887
13.7788
13.7822
13.7876
13.7934
13.782
13.7759
13.7854
13.8002
13.7804
13.787
13.7861
13.7829
13.7902
13.7898
13.7762
13.7766
13.7934
13.7768
13.7902
13.783
13.7931
13.7845
13.7773
13.7757
13.7871
13.7902
13.7917
13.7912
13.7889
13.7862
13.7745
13.7844
13.7873
13.7817
13.7905
13.7868
13.7904
13.7848
13.7828
13.7938
13.7718
13.7712
13.7877
13.7675
13.7677
13.7809
13.7901
13.788
13.786
13.7845
13.7817
13.7655
13.7885
13.7875
13.7667
13.7935
13.7873
13.7894
13.7643
13.7789
13.7833
13.7855
13.7929
13.7946
13.7927
13.7771
13.7895
13.7762
13.7906
13.7885
13.7757
13.7904
13.785
13.7868
13.7818
13.7742
13.7925
13.7906
13.7899
13.7919
13.7906
13.7904
13.7611
13.7818
13.7876
13.7845
13.781
13.7834
13.7625
13.7889
13.7773
13.7812
13.78
13.7918
13.7838
13.7744
13.7792
13.7837
13.7827
13.7909
13.7899
13.7795
13.7822
13.786
13.7894
13.7811
13.7851
13.7889
13.7865
13.7736
13.7876
13.7912
13.7906
13.7967
13.7964
13.7873
13.7795
13.779
13.7896
13.7825
13.7873
13.7789
13.7862
13.7571
13.7845
13.7839
13.7893
13.7864
13.7834
13.7792
13.7766
13.7904
13.7818
13.789
13.7908
13.7882
13.7901
13.7888
13.7884
13.7907
13.7898
13.7928
13.7893
13.7842
13.7889
13.7796
13.7869
13.7791
13.7926
13.7895
13.783
13.7856
13.7908
13.7855
13.783
13.7695
13.7716
13.7866
13.7896
13.7888
13.7896
13.7812
13.7932
13.793
13.7692
13.79
13.7786
13.7765
13.7847
13.7824
13.7888
13.7721
13.7801
13.7893
13.7779
13.7771
13.7875
13.786
13.79
13.7954
13.7851
13.7871
13.7869
13.7903
13.7873
13.7803
13.7968
13.7883
13.7929
13.7889
13.7876
13.7855
13.7876
13.7787
13.7915
13.7778
13.7878
13.7805
13.7785
13.7882
13.7854
13.778
13.7745
13.7932
13.7931
13.7828
13.785
13.7787
13.7744
13.7853
13.7794
13.7942
13.7806
13.7877
13.7783
13.792
13.793
13.7893
13.7834
13.7937
13.7881
13.7928
13.7982
13.7758
13.7764
13.7928
13.7887
13.7735
13.7849
13.7662
13.7775
13.7771
13.7942
13.776
13.7901
13.7747
13.78
13.7635
13.7668
13.7837
13.7779
13.7878
13.7875
13.7896
13.7778
13.7978
13.7734
13.7798
13.7868
13.7945
13.7979
13.7758
13.754
13.7703
13.7937
13.7729
13.7739
13.7779
13.7894
13.7929
13.7885
13.7929
13.7869
13.7809
13.7848
13.7746
13.7859
13.7715
13.7935
13.7725
13.7887
13.79
13.7821
13.7696
13.7808
13.7829
13.7946
13.7915
13.7729
13.7739
13.7689
13.7818
13.7831
13.7874
13.7741
13.793
13.7814
13.783
13.7841
13.7819
13.7675
13.7881
13.772
13.7926
13.769
13.7847
13.783
13.7713
13.7881
13.7858
13.7928
13.7836
13.7808
13.7892
13.7713
13.7891
13.7852
13.7816
13.7653
13.7862
13.7801
13.7881
13.787
13.7842
13.7885
13.7846
13.763
13.7864
13.7839
13.786
13.7837
13.7863
13.7956
13.786
13.7916
13.7833
13.7841
13.7888
13.784
13.781
13.7672
13.77
13.7725
13.7702
13.7844
13.7833
13.7684
13.7705
13.7875
13.7855
13.7828
13.7765
13.7879
13.7881
13.7867
13.7904
13.7942
13.787
13.7972
13.7868
13.7921
13.7888
13.7932
13.7743
13.7936
13.7897
13.7864
13.7952
13.7866
13.7916
13.7838
13.7924
13.7875
13.7851
13.7449
13.7871
13.7836
13.7647
13.7749
13.7845
13.7897
13.786
13.78
13.791
13.7697
13.7788
13.7939
13.7704
13.7796
13.7764
13.7823
13.7771
13.7852
13.7837
13.7771
13.7919
13.7796
13.7807
13.7858
13.7933
13.7674
13.78
13.7877
13.7881
13.7939
13.7723
13.7905
13.7886
13.7814
13.7725
13.7874
13.7724
13.7848
13.7732
13.7744
13.776
13.7729
13.769
13.7852
13.7788
13.778
13.7825
13.7801
13.7554
13.7786
13.7877
13.7471
13.7458
13.7731
13.7796
13.7643
13.7649
13.7838
13.7857
13.7487
13.7595
13.78
13.7823
13.765
13.7873
13.7717
13.7724
13.7665
13.7737
13.7628
13.7798
13.7739
13.7916
13.774
13.7748
13.7761
13.7874
13.7761
13.7861
13.7778
13.7896
13.7868
13.7797
13.7882
13.7879
13.7851
13.7797
13.7868
13.786
13.7778
13.7879
13.7865
13.7945
13.7842
13.7891
13.7865
13.7595
13.7818
13.7851
13.7763
13.7815
13.7823
13.7863
13.7779
13.7843
13.7763
13.7669
13.7832
13.7811
13.7896
13.7801
13.7741
13.7813
13.7914
13.7869
13.7883
13.7856
13.7788
13.7797
13.7913
13.7901
13.7909
13.7885
13.7882
13.7927
13.7799
13.7915
13.7864
13.7834
13.7885
13.7748
13.7875
13.7644
13.7875
13.7946
13.7844
13.7838
13.7877
13.7903
13.793
13.7851
13.7853
13.7855
13.7913
13.782
13.7857
13.7865
13.7771
13.7858
13.7857
13.7886
13.7907
13.7917
13.7912
13.7761
13.7864
13.7879
13.7627
13.7832
13.7624
13.7774
13.7774
13.7926
13.792
13.7905
13.7783
13.7606
13.7832
13.7869
13.7877
13.7789
13.793
13.7617
13.7875
13.7918
13.7827
13.7916
13.7581
13.7932
13.7894
13.7848
13.7933
13.7916
13.7899
13.7894
13.7885
13.7907
13.7634
13.7942
13.786
13.7607
13.7858
13.7862
13.7891
13.7853
13.7919
13.7894
13.7898
13.7917
13.7919
13.7597
13.76
13.7929
13.7924
13.7897
13.7815
13.7931
13.7612
13.7608
13.7911
13.7927
13.7933
13.791
13.7902
13.7611
13.7907
13.7867
13.7598
13.7919
13.7926
13.7921
13.7778
13.7814
13.7858
13.7882
13.7846
13.7847
13.7909
13.791
13.7913
13.7905
13.7814
13.783
13.7931
13.7809
13.7892
13.7799
13.7927
13.7598
13.7876
13.7904
13.7928
13.7894
13.777
13.793
13.7934
13.7921
13.7936
13.7939
13.7933
13.7924
13.7798
13.7782
13.792
13.7948
13.7592
13.7936
13.7786
13.7852
13.7614
13.7936
13.7923
13.7605
13.7929
13.7917
13.7933
13.7586
13.7862
13.7927
13.7925
13.7949
13.7841
13.7604
13.7926
13.7929
13.7922
13.7916
13.7927
13.7932
13.7867
13.792
13.7912
13.7931
13.7919
13.7916
13.7932
13.7926
13.7801
13.7907
13.7598
13.7937
13.7936
13.7925
13.758
13.7923
13.786
13.7928
13.7899
13.7792
13.7933
13.7921
13.7924
13.7941
13.7863
13.7924
13.7907
13.7885
13.7938
13.7918
13.7936
13.7602
13.7927
13.791
13.7944
13.7896
13.7922
13.7924
13.7922
13.7939
13.7938
13.7907
13.7877
13.7862
13.7916
13.7867
13.7818
13.7581
13.7929
13.7937
13.7573
13.7896
13.793
13.7853
13.7928
13.7903
13.7921
13.7941
13.7959
13.7871
13.7885
13.7913
13.7963
13.7821
13.7897
13.7823
13.7933
13.7864
13.7925
13.79
13.7869
13.7936
13.7964
13.7934
13.7921
13.796
13.7928
13.7863
13.7936
13.7593
13.7568
13.7927
13.796
13.7926
13.7936
13.7531
13.7928
13.7867
13.7907
13.7967
13.7923
13.7834
13.7931
13.7926
13.79
13.7861
13.7933
13.7947
13.7934
13.7874
13.7927
13.796
13.7962
13.7869
13.7914
13.792
13.7812
13.7936
13.7925
13.7596
13.7938
13.7911
13.785
13.7935
13.79
13.7929
13.7872
13.7966
13.7963
13.7923
13.7895
13.7916
13.7668
13.7907
13.7915
13.7875
13.7914
13.7924
13.7934
13.7863
13.7933
13.7915
13.7608
13.7869
13.7918
13.7885
13.7581
13.7887
13.7746
13.7929
13.7858
13.7924
13.7953
13.7969
13.7888
13.7952
13.7921
13.7931
13.7957
13.7914
13.7883
13.759
13.7866
13.7962
13.7917
13.7929
13.7913
13.7926
13.7872
13.7929
13.7974
13.7907
13.7864
13.7929
13.7606
13.7923
13.793
13.7942
13.7961
13.7958
13.7862
13.795
13.7922
13.7953
13.787
13.7903
13.7871
13.7874
13.7863
13.7959
13.7946
13.7878
13.7927
13.7925
13.7914
13.7868
13.7862
13.7864
13.7913
13.7687
13.7912
13.7931
13.7857
13.7879
13.7939
13.7869
13.7912
13.7866
13.7632
13.7911
13.7627
13.7855
13.788
13.7889
13.787
13.7922
13.7872
13.7969
13.7874
13.7631
13.7928
13.7884
13.7858
13.7881
13.7886
13.7923
13.7881
13.7877
13.782
13.7886
13.7873
13.7866
13.7648
13.7812
13.7869
13.7907
13.7913
13.7748
13.7703
13.7909
13.7932
13.7875
13.7579
13.7913
13.7871
13.7924
13.7953
13.7905
13.7885
13.7869
13.7873
13.7951
13.7894
13.7884
13.7918
13.77
13.7687
13.7922
13.7863
13.7753
13.7947
13.7891
13.7819
13.7725
13.7878
13.789
13.7683
13.79
13.7919
13.7772
13.7924
13.7917
13.7912
13.7933
13.7814
13.7952
13.7682
13.7877
13.79
13.7951
13.7861
13.7906
13.7837
13.7875
13.7949
13.7748
13.7841
13.7874
13.7911
13.7845
13.7946
13.7846
13.7953
13.788
13.7846
13.7945
13.7909
13.7857
13.7853
13.7834
13.783
13.7713
13.785
13.785
13.7939
13.7725
13.7747
13.794
13.7933
13.7962
13.7807
13.7884
13.7837
13.7927
13.7852
13.7898
13.7711
13.7891
13.7942
13.7685
13.7761
13.7906
13.79
13.7955
13.791
13.7946
13.7688
13.7695
13.7708
13.7952
13.7899
13.7829
13.7917
13.794
13.7938
13.7876
13.789
13.7992
13.7911
13.7665
13.7648
13.7895
13.792
13.7816
13.7689
13.7688
13.7842
13.7955
13.7948
13.7941
13.79
13.764
13.7883
13.7839
13.8013
13.7946
13.7619
13.794
13.7944
13.7884
13.7921
13.7726
13.7902
13.775
13.7808
13.7386
13.7926
13.7946
13.7617
13.7847
13.7797
13.7869
13.7718
13.7736
13.7664
13.7866
13.788
13.7949
13.7948
13.7836
13.7862
13.7743
13.7855
13.7704
13.7905
13.7629
13.7744
13.7932
13.7848
13.7649
13.77
13.7833
13.7654
13.7708
13.7692
13.78
13.7743
13.794
13.7953
13.7945
13.7884
13.7694
13.7971
13.7963
13.7864
13.7711
13.7658
13.792
13.7949
13.7834
13.7956
13.796
13.7648
13.7956
13.7779
13.7705
13.7668
13.7848
13.7646
13.7838
13.77
13.7953
13.7967
13.766
13.7969
13.8007
13.7928
13.7654
13.7889
13.7661
13.7628
13.7875
13.7854
13.7689
13.7669
13.7613
13.7859
13.7982
13.7674
13.7671
13.7624
13.7698
13.7653
13.7826
13.7853
13.7807
13.7874
13.7826
13.7868
13.7631
13.7888
13.7891
13.7698
13.7923
13.7834
13.7916
13.7898
13.7873
13.788
13.7649
13.7673
13.7901
13.7966
13.7977
13.7857
13.7639
13.7647
13.763
13.7871
13.7759
13.7721
13.7873
13.7735
13.7897
13.7756
13.7958
13.7715
13.7706
13.7586
13.7928
13.7861
13.7939
13.7971
13.7969
13.7862
13.7977
13.7757
13.7948
13.7897
13.7961
13.7976
13.7887
13.7556
13.7851
13.7908
13.7752
13.7896
13.7862
13.7784
13.7892
13.771
13.7856
13.7637
13.791
13.79
13.7838
13.7789
13.7775
13.7906
13.7924
13.7714
13.7909
13.76
13.7676
13.7931
13.7927
13.7869
13.7941
13.7945
13.7927
13.7873
13.7928
13.7934
13.7949
13.7934
13.7868
13.792
13.7869
13.7929
13.793
13.7869
13.7937
13.7948
13.7926
13.7868
13.7875
13.7932
13.7916
13.7918
13.7651
13.7884
13.7955
13.7965
13.7921
13.7872
13.7922
13.7791
13.7907
13.7928
13.7625
13.7946
13.7865
13.7866
13.7798
13.7905
13.7872
13.7899
13.7867
13.7958
13.7866
13.7873
13.7805
13.7946
13.7914
13.7868
13.7944
13.7878
13.7718
13.7866
13.7861
13.7934
13.7899
13.7599
13.7897
13.7929
13.7633
13.7944
13.7929
13.7826
13.7875
13.7742
13.787
13.7866
13.7928
13.7867
13.7673
13.7941
13.791
13.7866
13.784
13.7561
13.7854
13.7921
13.7938
13.7933
13.7872
13.7952
13.7586
13.7878
13.7871
13.788
13.791
13.7915
13.7973
13.7872
13.7869
13.7974
13.7905
13.7863
13.7867
13.7864
13.7871
13.7871
13.7833
13.7893
13.7894
13.7866
13.7713
13.7706
13.7874
13.7871
13.7872
13.7874
13.7907
13.7693
13.7824
13.7944
13.7947
13.7922
13.7942
13.7924
13.8023
13.7917
13.7671
13.7968
13.7921
13.7932
13.7963
13.7864
13.7931
13.7954
13.7924
13.7955
13.7869
13.8031
13.7833
13.7875
13.7871
13.7942
13.7984
13.7921
13.7924
13.7906
13.7917
13.7943
13.7872
13.7882
13.7759
13.7881
13.7974
13.7918
13.7762
13.7971
13.7784
13.7878
13.7719
13.7821
13.7903
13.787
13.7911
13.7933
13.7935
13.7974
13.7945
13.7977
13.7961
13.7976
13.7978
13.797
13.7977
13.7901
13.7919
13.7768
13.7867
13.7962
13.7865
13.7903
13.7895
13.7797
13.7736
13.7879
13.7962
13.7603
13.7907
13.788
13.7911
13.7863
13.7904
13.7875
13.7973
13.7936
13.7872
13.7867
13.7877
13.7902
13.7771
13.7862
13.7924
13.7831
13.7871
13.7732
13.7873
13.7926
13.7778
13.7589
13.7894
13.7901
13.7746
13.7956
13.793
13.7878
13.7941
13.7972
13.7953
13.7872
13.7904
13.7877
13.7927
13.792
13.7931
13.7971
13.7874
13.787
13.7672
13.7837
13.7959
13.7882
13.7908
13.7911
13.7933
13.7865
13.775
13.7902
13.7874
13.7707
13.7894
13.7867
13.7934
13.7915
13.756
13.7967
13.7866
13.7939
13.7821
13.7971
13.7746
13.7886
13.79
13.7701
13.7872
13.7646
13.7905
13.7873
13.7921
13.7765
13.7926
13.7979
13.7866
13.7862
13.783
13.7911
13.7902
13.7662
13.7872
13.7906
13.8031
13.7851
13.7714
13.7845
13.7942
13.7716
13.7979
13.7908
13.7914
13.7849
13.7928
13.7939
13.7906
13.78
13.7875
13.7865
13.7742
13.7896
13.7931
13.7768
13.7879
13.7974
13.7463
13.7922
13.7871
13.7918
13.7907
13.7942
13.7934
13.7972
13.794
13.7963
13.7898
13.7893
13.791
13.797
13.7809
13.7863
13.7925
13.7865
13.7925
13.7863
13.7815
13.7919
13.7865
13.7777
13.7877
13.7968
13.7866
13.7915
13.7911
13.7899
13.7743
13.7916
13.7917
13.7911
13.7972
13.7738
)
;

boundaryField
{
    back
    {
        type            empty;
    }
    front
    {
        type            empty;
    }
    top
    {
        type            zeroGradient;
    }
    outer_arc
    {
        type            zeroGradient;
    }
    bottom
    {
        type            uniformFixedValue;
        uniformValue    
        {
            type            table;
            format          csv;
            file            "outlet_p.csv";
            nHeaderLine     1;
            refColumn       0;
            componentColumns List<label> 1(1);
            separator       ",";
            mergeSeparators 0;
        }
        value           uniform 13.7694;
    }
    inner_arc
    {
        type            zeroGradient;
    }
}


// ************************************************************************* //
