/*--------------------------------*- C++ -*----------------------------------*\
  =========                 |
  \\      /  F ield         | OpenFOAM: The Open Source CFD Toolbox
   \\    /   O peration     | Website:  https://openfoam.org
    \\  /    A nd           | Version:  9
     \\/     M anipulation  |
\*---------------------------------------------------------------------------*/
FoamFile
{
    format      ascii;
    class       volScalarField;
    location    "0.73";
    object      p;
}
// * * * * * * * * * * * * * * * * * * * * * * * * * * * * * * * * * * * * * //

dimensions      [0 2 -2 0 0 0 0];

internalField   nonuniform List<scalar> 
464
(
1.07185e-11
-2.00849e-11
-5.51814e-12
-4.55936e-12
-2.37343e-11
-5.5422e-12
4.62038e-12
-4.40715e-12
-3.89529e-12
-2.60369e-12
1.07454e-11
2.4949e-11
3.45639e-12
2.50717e-11
6.89741e-12
5.94224e-12
-1.07091e-12
-1.15852e-12
-3.07829e-12
-3.64852e-12
-4.0683e-12
-5.62024e-12
-4.97181e-12
-4.84976e-12
-4.75452e-12
-4.98434e-12
1.6413e-11
-3.14846e-12
1.49611e-11
-5.7662e-12
-5.67723e-12
9.04991e-13
1.65789e-12
-1.79617e-13
-8.54999e-13
-1.72807e-12
-2.17466e-12
-2.68644e-12
-2.86116e-12
3.39551e-12
-3.51835e-12
-5.1038e-12
-5.10576e-12
2.11087e-11
1.77446e-11
3.92165e-12
-3.31548e-12
-2.44803e-12
-1.87127e-12
-3.31872e-12
-3.21485e-12
-2.59492e-12
-2.38018e-12
-3.21327e-12
-3.1297e-12
-2.51317e-12
-3.0343e-12
-3.03141e-12
-3.07325e-12
-2.57616e-12
-1.97609e-12
-1.43864e-11
-2.50052e-12
-3.18742e-12
-9.16084e-12
-3.57629e-12
-2.71248e-12
-1.51973e-12
1.44671e-11
-3.10109e-12
-3.12288e-12
-1.22826e-11
1.02149e-11
-2.45321e-12
-6.19798e-12
-2.76852e-12
-2.70317e-12
4.87823e-12
-2.94507e-12
1.02698e-11
-2.15971e-11
-5.80475e-12
-3.40014e-11
-6.57601e-12
-2.14981e-11
-2.82359e-12
-1.02173e-11
-5.97119e-12
-4.32607e-12
-5.09147e-12
-1.92332e-11
-1.55268e-11
-2.43577e-12
2.11241e-11
-2.55899e-12
-2.58311e-12
-3.13095e-12
-5.42888e-12
-1.45951e-11
-2.90087e-12
-4.40953e-12
-2.50997e-12
-4.87154e-12
8.03979e-14
-2.51234e-13
-3.37043e-11
-6.25072e-12
-2.54522e-12
-1.9124e-11
-3.17421e-12
-2.89137e-12
-2.8938e-12
-2.54127e-12
-1.11746e-11
-3.83954e-12
-4.25977e-12
-2.85482e-11
-7.0203e-12
-1.7332e-11
-6.11607e-12
-2.93686e-12
3.00061e-12
-7.95856e-12
1.01041e-11
-2.90962e-12
-2.98571e-12
-2.94638e-12
-3.18956e-12
-1.07177e-12
-3.05786e-11
-6.71025e-12
2.77588e-11
-2.41063e-12
-4.63552e-12
-6.14374e-12
-2.40442e-11
-7.14841e-12
-3.55951e-12
-3.36464e-12
-6.34362e-12
-7.24464e-12
-2.57594e-12
-3.32976e-12
-4.20858e-12
-7.41523e-12
-7.7848e-12
-4.10569e-12
-6.14732e-12
-3.25622e-12
-5.97872e-12
-4.63211e-12
-4.62192e-12
2.16326e-12
-3.69484e-12
-2.13288e-11
-6.62727e-12
-1.40836e-12
-3.91713e-12
-2.16621e-12
-1.63447e-11
-1.58213e-12
-4.30105e-12
-5.29839e-12
-5.25269e-12
-4.89585e-12
-7.15087e-12
3.78199e-13
-4.47585e-12
1.29609e-12
-4.47926e-12
-3.49475e-12
-1.239e-11
-9.25809e-12
-5.94262e-12
-5.59508e-12
-2.94053e-12
-3.77026e-12
-3.96604e-12
5.76343e-12
-8.34811e-13
-3.90503e-12
-2.81368e-12
-7.56866e-13
-8.95702e-13
8.38395e-13
-4.40475e-13
-3.00063e-12
-2.78373e-12
-7.25875e-12
-2.63121e-12
-2.7067e-12
-2.6045e-12
-1.69778e-12
-2.51456e-12
-3.20127e-12
-3.34756e-12
-4.12839e-12
-2.97154e-12
2.49715e-13
-2.97809e-12
-2.81628e-12
-3.29797e-12
-2.44015e-12
-3.21024e-12
-2.61455e-12
-1.82043e-12
-2.79096e-12
-3.3385e-12
-3.61515e-12
-1.15363e-11
-6.77423e-12
-3.21133e-12
-1.48048e-12
-1.70395e-12
-4.16978e-12
-3.05552e-12
1.85958e-12
-2.18581e-12
1.53181e-11
-3.70646e-12
-9.29201e-13
-3.08564e-12
-3.08487e-12
-3.31023e-12
-3.60814e-12
-3.91723e-12
-3.38071e-12
-3.09046e-12
-3.23213e-12
-3.19863e-12
-3.07735e-12
-2.70026e-12
-2.66897e-12
-2.72235e-12
-2.54041e-12
-2.96812e-12
-2.05913e-12
-2.32574e-12
-2.66347e-12
-1.99687e-12
-2.74032e-12
-2.01592e-12
-2.344e-12
-2.39316e-12
-2.47158e-12
-1.65167e-12
-2.12031e-12
-3.57738e-12
-1.72202e-12
-3.6802e-12
-1.72092e-12
-1.60003e-12
-2.15111e-12
-3.78837e-12
-2.20693e-12
-1.84475e-12
-3.8804e-12
-3.62142e-12
-1.96554e-12
-8.85857e-13
-1.68076e-12
-2.00231e-12
-1.65002e-12
1.91644e-12
-1.33172e-12
1.1808e-12
-1.51592e-12
-3.66575e-12
5.27557e-12
4.83958e-13
-5.53063e-12
-9.44077e-13
-1.30278e-12
3.0869e-12
3.80809e-12
-1.31362e-12
-2.75239e-13
-3.3728e-12
-3.80878e-12
-9.01713e-12
-2.17997e-12
-3.62477e-12
-3.89604e-12
-2.33178e-12
4.94343e-12
-3.92344e-12
-3.85487e-12
-6.76145e-12
-3.41576e-12
-2.43561e-12
-5.24507e-12
-2.77072e-12
-3.47835e-12
-3.31052e-12
-2.36878e-12
-3.29894e-12
-3.50058e-12
-2.73811e-12
-2.7102e-12
-8.58647e-12
3.50266e-12
1.2101e-12
8.3995e-12
2.33804e-11
-1.87963e-12
-2.18147e-12
-2.19575e-12
-2.70241e-12
-1.51805e-11
-3.7354e-12
-3.19624e-12
-4.05811e-12
-2.28846e-12
2.09387e-12
-2.424e-12
-2.98138e-12
-3.6186e-12
-9.69288e-12
-4.21819e-12
3.05161e-12
-5.84818e-12
-2.91768e-12
-1.25564e-11
-2.71632e-12
-1.97802e-12
-1.43135e-12
-1.2542e-12
7.17982e-12
-3.24033e-12
-6.70971e-12
-4.26347e-12
-6.92163e-12
-4.8362e-12
-2.01502e-12
-3.17555e-12
-3.7242e-12
-5.50632e-12
-4.56967e-12
-4.28735e-12
-4.69601e-12
-4.3408e-12
1.427e-11
-5.04102e-12
-7.1401e-12
-2.03565e-12
-3.90655e-12
-1.47195e-12
-2.9293e-12
-4.56124e-12
-3.13652e-12
-3.33901e-12
-4.62345e-12
-3.06794e-12
-3.16743e-12
-3.13196e-12
-1.27044e-11
-5.79622e-12
-3.04275e-11
-5.88694e-12
-1.9971e-11
-5.21405e-12
1.3073e-12
-5.78818e-12
-2.18987e-11
1.32884e-11
-3.23532e-12
-4.01298e-12
-1.67932e-12
3.17866e-11
-6.16418e-12
-4.23128e-12
2.77473e-11
7.20283e-12
-7.50237e-13
1.96175e-11
-4.93241e-12
1.2435e-11
-5.33035e-12
1.28311e-11
-6.1079e-12
3.46553e-12
4.76065e-13
-5.3333e-13
-2.56958e-13
-1.33512e-12
3.57702e-13
-1.2016e-12
-5.45558e-12
-1.2717e-12
-9.54606e-13
-2.64305e-12
-1.89177e-12
-2.28585e-12
-2.11447e-12
-3.41964e-12
-4.53206e-12
-4.09519e-12
-5.14915e-12
-4.85994e-12
1.01124e-11
-1.12021e-11
-4.97163e-12
2.1179e-11
-3.9163e-12
1.97279e-12
9.06103e-12
2.58704e-11
-3.45562e-12
1.27612e-11
-3.58133e-12
-5.11624e-12
-3.78587e-12
-5.35775e-12
-5.06644e-12
-4.98985e-12
-1.0251e-11
3.76933e-11
-3.52404e-12
-5.19499e-12
-1.49416e-11
-4.05766e-12
-4.86156e-12
1.2385e-11
2.45215e-11
1.1971e-11
7.65211e-12
1.0214e-11
7.14275e-12
5.18127e-12
-3.43865e-11
-6.11322e-12
-4.67281e-13
-1.18987e-13
-5.9234e-12
-1.50256e-12
-9.19258e-13
-1.18377e-12
-5.21094e-12
-1.20895e-12
-6.58253e-12
-2.16807e-12
-1.93502e-12
-3.16233e-12
-3.55774e-12
-4.72939e-12
-3.99497e-12
-4.65418e-12
-5.39025e-12
-4.28958e-12
-3.45413e-12
1.88455e-12
3.06618e-12
2.88892e-12
-5.26068e-12
-2.66639e-12
-1.23537e-12
-1.48488e-12
-3.46274e-12
-3.93877e-12
-3.71695e-12
-3.75444e-12
3.58171e-11
2.25925e-11
-5.29039e-12
)
;

boundaryField
{
    back
    {
        type            empty;
    }
    front
    {
        type            empty;
    }
    left
    {
        type            zeroGradient;
    }
    top
    {
        type            zeroGradient;
    }
    right
    {
        type            zeroGradient;
    }
    bottom
    {
        type            uniformFixedValue;
        uniformValue    
        {
            type            scale;
            scale           
            {
                type            squarePulse;
                start           0.3;
                duration        0.3;
            }
            xScale          
            {
                type            constant;
                value           1;
            }
            value           
            {
                type            constant;
                value           15.1;
            }
        }
        value           uniform 0;
    }
}


// ************************************************************************* //
