/*--------------------------------*- C++ -*----------------------------------*\
  =========                 |
  \\      /  F ield         | OpenFOAM: The Open Source CFD Toolbox
   \\    /   O peration     | Website:  https://openfoam.org
    \\  /    A nd           | Version:  9
     \\/     M anipulation  |
\*---------------------------------------------------------------------------*/
FoamFile
{
    format      ascii;
    class       surfaceScalarField;
    location    "0.73";
    object      phi;
}
// * * * * * * * * * * * * * * * * * * * * * * * * * * * * * * * * * * * * * //

dimensions      [0 3 -1 0 0 0 0];

internalField   nonuniform List<scalar> 
663
(
-2.65994e-17
2.66518e-17
-5.24586e-20
9.45504e-18
3.04888e-17
-5.17993e-20
5.17993e-20
1.05308e-18
-5.13963e-19
-5.39121e-19
-1.34534e-17
2.29084e-17
7.0227e-21
-5.88219e-20
-2.87219e-17
2.12249e-18
3.42064e-19
7.11021e-19
-3.37531e-17
1.3777e-17
1.99761e-17
-3.23578e-19
-3.34295e-17
-1.16731e-17
3.8325e-17
1.88128e-17
-1.06648e-17
-8.14796e-18
-1.49449e-17
1.7833e-17
9.79755e-19
3.14165e-18
-2.54721e-18
-5.94441e-19
3.24053e-18
-9.88847e-20
2.41787e-18
-2.24178e-18
-1.76087e-19
2.52394e-18
-1.06068e-19
3.29322e-20
-3.29322e-20
3.65517e-18
-4.52593e-18
8.70756e-19
-9.26937e-19
4.58211e-18
-1.31417e-18
-1.71171e-18
3.02588e-18
-3.40878e-18
2.09461e-18
-1.36258e-18
1.12993e-18
2.32647e-19
1.06701e-19
-6.20664e-19
-7.63726e-19
-5.98855e-19
-3.74581e-18
2.48258e-18
1.26322e-18
1.15682e-18
-3.91642e-19
-7.65181e-19
6.42838e-19
-4.38864e-18
2.23504e-18
-1.85604e-18
-3.78995e-19
1.10336e-18
1.13168e-18
-3.0742e-18
3.45075e-18
-3.76559e-19
5.40348e-19
-3.61454e-18
2.95921e-18
-3.4361e-18
4.76891e-19
3.01206e-18
-5.28442e-20
1.86959e-18
6.54352e-19
3.59437e-18
-1.72478e-18
-1.73119e-19
2.06051e-19
3.02877e-19
8.53946e-19
-3.34905e-18
2.57933e-19
3.09112e-18
-2.71335e-18
-1.81258e-18
3.79546e-18
-4.24211e-18
4.46655e-19
3.86674e-19
-6.43459e-19
3.12604e-18
-1.13083e-17
-1.08518e-19
-1.78141e-18
3.87885e-18
-2.09744e-18
-3.63268e-18
3.31512e-18
3.17564e-19
-5.08928e-19
5.08928e-19
-5.64761e-19
1.424e-18
-4.13735e-18
1.60067e-18
3.31663e-19
-1.93233e-18
-4.04522e-18
6.7208e-19
3.37315e-18
6.03665e-19
-3.03443e-18
2.43076e-18
4.89848e-18
-4.29482e-18
-1.10151e-18
2.70218e-18
-2.88292e-18
-1.07394e-18
-1.93505e-18
3.00899e-18
3.70165e-18
-4.77559e-18
-3.4496e-18
-5.95625e-19
-2.06051e-19
-5.29501e-18
1.68512e-17
-1.15562e-17
-2.72965e-18
1.48328e-18
1.24637e-18
2.35781e-18
-2.82268e-18
4.64869e-19
-2.19169e-17
2.15933e-17
-1.25005e-18
-1.78438e-18
-3.03245e-18
3.36457e-18
-3.32117e-19
8.40592e-19
-1.98211e-17
1.58114e-19
4.74037e-18
4.41091e-18
-7.09264e-19
-2.72119e-17
2.8792e-18
-2.23636e-18
-1.31838e-18
-2.3143e-18
2.36867e-19
3.51525e-18
-3.75212e-18
-1.07838e-18
8.40877e-19
-3.87333e-18
-2.70389e-17
2.69865e-17
-3.04187e-18
1.10682e-18
3.31992e-19
1.21233e-17
1.36373e-17
-2.57606e-17
-4.20792e-19
4.0313e-19
1.76628e-20
4.22989e-18
-7.69997e-18
3.47008e-18
1.60434e-19
3.4136e-20
-1.9457e-19
1.63532e-17
-1.11781e-18
-1.61184e-18
1.6484e-17
3.67155e-19
-2.60359e-19
-1.76885e-18
1.35944e-18
4.09413e-19
-3.56228e-18
3.79915e-18
4.79704e-18
-1.35746e-17
3.39236e-18
-3.04458e-18
-3.47781e-19
-1.18349e-17
-1.27964e-17
2.46314e-17
2.94259e-18
4.4977e-19
2.32415e-18
-6.8406e-19
-1.02052e-19
5.05182e-19
7.36125e-19
1.06998e-18
-1.8061e-18
1.08774e-17
-2.58223e-17
-1.17804e-18
-5.90813e-19
-7.43295e-19
4.05841e-18
8.98635e-19
-2.07667e-18
1.81249e-18
1.63827e-18
-1.62362e-18
-7.69997e-18
3.4136e-20
3.10234e-18
2.62226e-19
-2.88266e-18
7.6797e-18
-3.58837e-18
4.89011e-18
-1.30173e-18
3.1313e-18
6.87166e-19
-3.81846e-18
2.56046e-18
5.7758e-20
-1.83663e-18
2.57276e-18
-2.59177e-19
1.61862e-18
-1.34652e-18
2.24515e-18
-3.47008e-18
5.87419e-19
2.25707e-19
1.94569e-19
-4.20276e-19
1.06998e-18
1.10493e-18
-8.79222e-19
-4.33167e-18
-9.72584e-18
2.06033e-17
1.22551e-17
4.22897e-18
-1.71973e-17
1.93198e-17
3.2931e-18
4.0334e-18
-9.02102e-19
1.66211e-17
-4.36601e-18
-3.0202e-18
3.70736e-18
2.0112e-18
1.00085e-18
3.40336e-18
-3.40336e-18
9.3302e-19
-2.27954e-18
-4.51435e-19
-1.7286e-18
2.18003e-18
5.87418e-19
-4.20276e-19
3.75287e-19
-1.14047e-18
-1.38561e-18
1.38561e-18
7.39199e-19
-1.19063e-18
-8.75869e-19
-4.06859e-18
3.35933e-18
1.98597e-18
-7.392e-19
3.18924e-19
-1.23633e-19
3.63888e-18
-1.60202e-18
2.53504e-18
8.44572e-19
-2.76249e-18
-6.01938e-20
-1.59132e-18
2.05708e-19
7.75606e-19
-2.37762e-18
-2.74123e-18
4.61696e-19
3.147e-18
3.62873e-18
-6.77573e-18
3.50301e-18
5.30385e-19
1.6574e-18
1.19063e-18
1.94978e-19
-1.89294e-18
-3.48845e-19
-1.64878e-18
2.42439e-18
6.89523e-18
7.62538e-18
5.43267e-20
1.98648e-18
-4.62339e-18
2.63691e-18
5.51683e-19
-2.20046e-18
1.9869e-19
-3.95081e-18
-1.59132e-18
2.81651e-19
-1.87297e-18
2.52941e-18
-5.42929e-19
-3.58605e-18
3.86771e-18
-2.01217e-19
3.83268e-18
-3.63146e-18
-1.73104e-18
1.73104e-18
-1.4441e-18
-2.86941e-19
7.99253e-18
-1.92973e-18
1.8061e-18
-3.44031e-18
1.92973e-18
2.36384e-19
-3.25658e-18
-1.42508e-18
1.97676e-18
-1.57827e-18
1.53189e-19
-3.68898e-18
6.83598e-18
-5.26282e-21
-2.84692e-18
2.85218e-18
2.42746e-18
-4.00572e-18
-3.31869e-20
2.85358e-18
-2.8204e-18
1.11476e-18
-1.11476e-18
1.10949e-18
1.27572e-18
-1.47694e-18
-1.27572e-18
1.60968e-19
1.10319e-18
-1.13637e-18
1.10319e-18
-1.20772e-18
1.4441e-18
-3.83646e-18
-5.9529e-19
4.43175e-18
1.20772e-18
-1.04531e-19
1.54603e-18
-1.54603e-18
2.21954e-19
-5.4118e-19
-4.23441e-18
-4.39419e-18
3.85301e-18
-4.51299e-18
-4.31945e-18
4.47756e-18
1.12301e-19
-4.25833e-18
-1.35864e-19
1.88029e-18
-1.76799e-18
-4.49663e-18
2.38296e-19
1.76799e-18
1.88029e-18
1.86123e-18
-1.86123e-18
1.72536e-18
-1.13637e-18
8.40592e-19
-1.30893e-18
1.30893e-18
-1.87297e-18
-1.47694e-18
-9.859e-19
9.859e-19
1.72536e-18
1.10949e-18
1.90609e-20
-3.31724e-19
-1.09686e-18
-4.00917e-19
-6.95944e-19
-7.32641e-19
-8.8517e-19
-3.1334e-18
4.01857e-18
-7.42824e-19
1.0183e-20
-2.77956e-19
-1.16313e-18
-3.70205e-18
5.68645e-19
-1.22939e-18
-2.47266e-18
1.39715e-18
-4.16433e-18
4.73297e-18
-5.63025e-20
2.14557e-18
1.06668e-18
-3.21225e-18
3.44482e-18
-1.29925e-18
-1.28569e-18
-3.3133e-18
4.37998e-18
1.11456e-19
-9.50798e-19
-2.26145e-18
9.72163e-19
-1.1878e-18
5.85754e-20
-3.48938e-18
-8.92222e-19
2.84152e-19
-4.79714e-18
-2.78038e-18
5.18934e-19
-1.58882e-18
-2.58348e-19
-2.52204e-18
-2.97045e-18
-2.84693e-20
-1.86045e-18
1.88892e-18
-5.92663e-20
-1.66292e-19
-7.2593e-19
-4.24641e-19
-4.56172e-19
2.88056e-18
-1.58882e-18
-4.53111e-19
9.91703e-19
-2.98615e-18
1.99445e-18
-3.2688e-20
-4.20423e-19
-1.09023e-18
-1.42233e-18
2.51257e-18
-7.89751e-19
7.57063e-19
-3.03117e-18
2.57661e-18
4.54558e-19
2.01952e-19
-5.01762e-19
-8.88282e-19
1.9939e-18
3.2685e-18
-3.86294e-18
-1.05499e-19
2.68211e-18
-3.24533e-18
6.93856e-20
-9.57667e-19
6.42486e-19
-1.18542e-18
3.72306e-18
3.406e-18
-5.36986e-19
6.06371e-19
-2.15575e-19
-1.50978e-18
1.50978e-18
1.80225e-18
9.72153e-19
-2.15757e-18
1.9674e-18
1.85714e-20
3.87876e-19
-3.12697e-18
-7.35974e-19
2.97827e-18
-2.00612e-18
2.24207e-19
1.28558e-18
6.03634e-18
-1.04024e-17
-9.1552e-19
-1.64512e-18
3.82482e-18
-5.46993e-18
9.86116e-18
-2.55361e-18
-3.08611e-18
-1.59822e-18
3.58353e-18
-1.28558e-18
1.49203e-19
-2.80681e-18
2.91134e-18
-2.40982e-18
-4.13882e-18
-1.23346e-17
1.18096e-17
5.24998e-19
5.99807e-18
3.0574e-18
5.36967e-19
1.54114e-18
-2.2982e-18
-3.92196e-19
1.71172e-18
3.42042e-18
4.68017e-18
1.26176e-17
-5.72234e-18
1.61046e-18
-2.21683e-18
-4.28448e-18
1.87466e-18
-1.79032e-19
5.21096e-19
8.92859e-18
-6.15306e-19
-1.24074e-18
-3.15251e-18
-1.22847e-18
1.22847e-18
-3.59528e-18
2.96738e-18
1.61474e-18
3.18653e-17
-1.81746e-17
1.68965e-19
-1.68965e-19
4.91847e-18
-1.10935e-18
2.41058e-18
-2.75666e-19
2.75666e-19
-1.27474e-18
-9.66327e-20
9.66327e-20
2.91459e-18
-3.81795e-17
1.79303e-18
-1.12043e-18
-2.00345e-20
-5.80223e-19
1.7712e-18
-3.00331e-18
1.05522e-17
7.02278e-21
1.05522e-17
7.02278e-21
-3.00195e-18
3.34908e-17
8.76049e-20
-3.58053e-20
-7.06283e-18
-4.11588e-20
-2.85219e-18
2.55286e-17
8.88969e-21
-4.18218e-20
-5.50595e-19
2.5618e-18
4.38312e-18
-1.25822e-18
1.05186e-20
8.6114e-20
-2.77321e-19
-2.97233e-18
-2.30159e-18
4.0865e-19
2.77321e-19
5.01327e-19
-2.79867e-18
1.31789e-18
9.39294e-19
-1.21901e-18
2.20906e-18
-2.37003e-18
-1.34788e-18
-1.52118e-18
2.30555e-18
1.9416e-18
-8.65778e-19
7.6065e-19
-6.54582e-19
-3.62736e-18
2.6552e-18
9.16738e-19
-9.16738e-19
2.20599e-18
2.81413e-18
-2.39099e-18
-3.30653e-19
2.59297e-18
-3.86365e-18
3.1688e-17
8.7605e-20
2.84431e-17
1.05183e-20
2.48024e-17
-1.1193e-17
1.03812e-17
-1.03812e-17
8.88957e-21
-1.36395e-17
8.88957e-21
-1.99162e-17
-1.35133e-17
3.87305e-19
-4.07339e-19
3.88017e-19
-4.69377e-19
8.13597e-20
-1.56505e-18
-5.11619e-19
4.38312e-18
-1.77456e-19
1.13757e-19
-1.09919e-17
1.31789e-18
1.21901e-18
-2.12066e-20
7.6065e-19
6.54582e-19
2.21617e-18
3.08693e-18
-2.70828e-18
-6.13664e-19
-1.11047e-18
-2.24142e-20
-1.94077e-20
1.9987e-19
)
;

boundaryField
{
    back
    {
        type            empty;
        value           nonuniform List<scalar> 0();
    }
    front
    {
        type            empty;
        value           nonuniform List<scalar> 0();
    }
    left
    {
        type            calculated;
        value           uniform 0;
    }
    top
    {
        type            calculated;
        value           uniform 0;
    }
    right
    {
        type            calculated;
        value           uniform 0;
    }
    bottom
    {
        type            calculated;
        value           nonuniform List<scalar> 8(-3.99439e-17 -1.36906e-17 3.52649e-17 -2.40056e-17 -3.46899e-17 2.40207e-17 3.9435e-17 1.36094e-17);
    }
}


// ************************************************************************* //
