/*--------------------------------*- C++ -*----------------------------------*\
  =========                 |
  \\      /  F ield         | OpenFOAM: The Open Source CFD Toolbox
   \\    /   O peration     | Website:  https://openfoam.org
    \\  /    A nd           | Version:  9
     \\/     M anipulation  |
\*---------------------------------------------------------------------------*/
FoamFile
{
    format      ascii;
    class       volVectorField;
    location    "0.73";
    object      U;
}
// * * * * * * * * * * * * * * * * * * * * * * * * * * * * * * * * * * * * * //

dimensions      [0 1 -1 0 0 0 0];

internalField   nonuniform List<vector> 
464
(
(-6.86186e-10 -5.00539e-10 -4.16723e-29)
(-4.49381e-10 1.03833e-09 0)
(4.0936e-13 8.69492e-13 0)
(2.47595e-11 -1.08163e-12 2.80182e-28)
(-3.21578e-10 8.2804e-10 0)
(3.1951e-13 6.82457e-13 -8.53211e-29)
(-6.55736e-10 -3.05798e-10 4.56429e-28)
(2.34519e-11 -4.8671e-12 0)
(-8.07704e-10 3.96254e-11 -4.88188e-29)
(-7.65688e-10 3.25642e-10 -3.39132e-28)
(-5.4648e-10 -6.45132e-10 3.66292e-29)
(-2.30601e-10 -3.96517e-10 -3.69515e-29)
(-7.14249e-10 -9.38771e-11 1.14167e-29)
(-1.66349e-10 -4.05113e-10 0)
(-1.49113e-11 9.74289e-11 1.59812e-28)
(-3.33037e-12 9.39474e-11 -3.72974e-28)
(-5.82085e-12 8.24279e-11 0)
(-5.04866e-12 7.1396e-11 -2.75157e-29)
(1.04132e-12 -4.66346e-13 -1.4538e-28)
(2.29515e-12 1.35219e-10 2.22494e-28)
(6.80521e-12 1.41018e-10 -3.34556e-28)
(3.37734e-11 8.95837e-11 8.084e-29)
(3.91042e-11 9.5186e-11 -3.86898e-29)
(2.89943e-11 8.60709e-12 0)
(1.72446e-11 6.66489e-13 -2.87762e-28)
(2.92708e-11 1.42239e-11 1.48546e-28)
(-5.88041e-11 -2.89512e-11 -4.87013e-28)
(1.54961e-11 -2.10307e-11 -1.81382e-28)
(-8.12418e-11 -1.15672e-11 0)
(2.93258e-11 4.72956e-11 0)
(3.54075e-11 3.98792e-11 1.9317e-29)
(1.93834e-11 1.0626e-10 -2.28918e-31)
(1.45471e-11 1.15043e-10 1.73043e-29)
(1.39201e-11 9.72328e-11 -2.91573e-29)
(1.39234e-11 9.12166e-11 2.93858e-29)
(-5.12263e-12 8.02017e-11 1.17162e-28)
(-1.17725e-11 1.03101e-10 -1.10913e-28)
(2.60286e-12 -4.37885e-12 -2.16978e-29)
(1.23796e-11 -2.5826e-11 1.24734e-29)
(5.32784e-12 9.64899e-11 0)
(-4.69548e-12 1.36632e-10 2.9885e-28)
(2.50262e-11 1.19996e-10 0)
(3.415e-11 1.08781e-10 -9.81436e-29)
(-8.80221e-11 -1.21915e-10 -1.10307e-27)
(-1.76647e-10 -2.30569e-10 1.1254e-27)
(2.4783e-12 1.08161e-10 1.33179e-29)
(4.56792e-11 -7.55846e-11 1.8065e-28)
(1.40474e-11 -9.05699e-11 1.68558e-30)
(2.83134e-12 -9.51223e-12 0)
(7.89633e-12 -1.11906e-11 2.10076e-29)
(-6.10418e-12 1.41289e-10 -1.99952e-28)
(1.5298e-11 -4.60111e-11 -7.59426e-30)
(-3.41592e-12 1.03521e-10 -1.10274e-28)
(1.80352e-11 -8.7915e-11 -1.87585e-28)
(1.4516e-11 -1.28687e-10 -5.91666e-30)
(2.30998e-11 -6.43428e-11 1.43105e-28)
(3.81605e-11 -6.81402e-11 0)
(-2.89561e-11 -8.27212e-11 0)
(-2.32718e-11 -1.19233e-10 -1.84787e-28)
(-7.6433e-12 1.13979e-10 0)
(4.50267e-12 -1.29778e-11 1.28641e-28)
(-3.6618e-10 3.43229e-10 1.55434e-27)
(-2.98979e-11 -4.90512e-11 3.10198e-28)
(-1.13579e-11 -6.2969e-11 -1.90982e-28)
(-6.29926e-10 3.35922e-10 -2.05698e-29)
(2.96229e-11 -5.78227e-11 -2.02593e-28)
(-1.07103e-11 -9.661e-11 -1.56688e-28)
(5.5534e-12 -2.5079e-11 -8.15714e-29)
(-3.96842e-10 -5.0589e-10 -4.06053e-28)
(5.38004e-12 -1.41056e-10 1.87449e-28)
(-2.08182e-11 -1.20381e-10 1.84404e-28)
(-5.02849e-10 4.52635e-10 -8.25123e-28)
(-5.77401e-11 4.52821e-11 0)
(2.24485e-11 -8.96711e-11 1.47049e-28)
(-1.48286e-12 -1.12855e-10 -3.42491e-28)
(2.10968e-11 -4.06962e-11 1.67453e-28)
(-1.83312e-11 -9.53426e-11 -1.68091e-28)
(-7.78134e-10 -4.6169e-10 -4.55692e-28)
(-2.65459e-11 -5.96717e-11 -1.80436e-28)
(-2.31275e-11 6.84115e-11 2.44225e-28)
(-3.09562e-10 5.91548e-10 0)
(6.28329e-12 6.30772e-12 8.15905e-29)
(-7.18244e-11 2.12031e-10 -1.98197e-27)
(2.26595e-12 4.16775e-12 4.05066e-28)
(-1.86644e-10 3.86933e-10 0)
(-3.06024e-11 -7.44146e-11 6.63484e-30)
(-3.62748e-10 2.23208e-10 -7.3833e-28)
(7.09743e-12 1.02594e-11 0)
(4.11374e-11 -1.06634e-11 0)
(-9.79656e-12 -1.06775e-10 -2.64374e-28)
(-2.25565e-10 3.13529e-10 1.14669e-27)
(-4.71339e-10 6.324e-10 0)
(8.64416e-12 -8.7626e-11 1.51577e-28)
(-3.16989e-10 -7.39742e-10 -1.07288e-27)
(1.31561e-11 -9.56145e-11 -1.48969e-28)
(-2.29597e-11 -6.67165e-11 -1.51357e-28)
(-1.84891e-11 -8.90437e-11 1.80855e-28)
(1.18526e-11 8.05937e-12 -7.48292e-29)
(-9.13728e-12 -5.35378e-11 -9.48056e-28)
(-6.23404e-10 9.01796e-12 -1.81361e-29)
(4.27736e-11 1.33556e-12 0)
(1.8068e-11 -1.11647e-10 1.21361e-29)
(4.94761e-11 9.90218e-12 0)
(2.08389e-11 1.0074e-10 2.24e-31)
(1.79158e-11 1.02888e-10 0)
(-4.80063e-11 1.63461e-10 -1.57164e-27)
(8.17524e-13 4.55813e-13 0)
(-6.14818e-12 -8.82338e-11 1.53501e-28)
(-1.22606e-10 1.71687e-10 -1.14792e-27)
(2.93706e-11 -1.16676e-10 0)
(1.97995e-11 -1.0392e-10 0)
(3.68594e-11 -9.31344e-11 -1.84417e-28)
(1.1759e-12 -9.23772e-11 0)
(-3.37335e-11 -6.13712e-11 5.99435e-28)
(4.59263e-11 -2.1164e-11 7.14916e-30)
(5.73967e-11 2.1018e-12 -4.06221e-30)
(-4.34835e-11 7.62105e-11 1.58178e-27)
(3.67349e-12 1.2142e-11 4.53226e-28)
(-9.55556e-12 -2.47436e-11 7.62624e-28)
(1.12817e-11 2.51785e-11 -2.40244e-29)
(2.98054e-11 -1.15702e-10 1.72105e-28)
(-5.16637e-10 -5.33617e-11 -6.36167e-30)
(-4.58011e-10 1.63753e-10 3.23759e-28)
(-5.15369e-10 -2.83518e-10 -3.99107e-28)
(-2.45257e-11 -1.06811e-10 0)
(2.16141e-11 -1.00622e-10 1.99167e-28)
(-4.00154e-10 7.3549e-11 -3.2658e-28)
(1.41911e-11 -1.01884e-10 0)
(3.42366e-12 9.01547e-11 0)
(-3.1475e-11 6.86808e-11 1.53542e-27)
(1.78243e-12 3.66291e-12 -3.14586e-28)
(-3.48592e-11 -7.01304e-11 -1.28162e-27)
(1.95662e-12 -3.59629e-12 -1.05327e-28)
(6.1087e-11 1.49374e-11 0)
(1.42042e-11 6.39206e-11 0)
(-1.89294e-11 8.35877e-12 -1.25444e-27)
(2.36688e-12 8.5495e-12 -6.86113e-28)
(2.63886e-11 -2.3665e-11 -2.26944e-28)
(-5.88658e-10 1.76029e-10 3.69969e-28)
(1.99082e-12 2.89048e-11 2.9448e-28)
(5.40434e-12 3.7287e-11 0)
(2.0246e-11 -9.31372e-11 0)
(-1.28973e-11 -1.14266e-10 2.20747e-30)
(5.48318e-11 -1.88723e-11 2.39247e-28)
(4.83258e-12 2.31476e-11 4.24601e-28)
(-8.33658e-12 -9.86832e-11 -5.03383e-28)
(6.4041e-11 2.24022e-12 0)
(1.4254e-11 2.02843e-11 0)
(-1.52975e-12 -9.17367e-11 -3.56261e-30)
(3.35311e-12 5.93263e-11 -6.87739e-28)
(6.26931e-11 2.14214e-11 8.7042e-30)
(5.43641e-11 3.92827e-11 2.82348e-28)
(-1.56057e-10 1.82713e-11 1.78725e-28)
(1.45162e-11 -1.11184e-10 -2.00051e-28)
(-2.33311e-11 -8.94423e-12 -1.06578e-30)
(4.41066e-12 5.03e-11 -4.27645e-28)
(-3.23412e-12 6.92504e-11 0)
(6.13437e-11 3.96602e-12 0)
(-4.24201e-10 1.42471e-12 -1.77712e-30)
(-1.43423e-10 1.10459e-10 9.5245e-28)
(-1.16265e-10 -4.38139e-13 0)
(5.59382e-11 2.7111e-11 -2.48897e-28)
(5.5008e-12 -1.05525e-10 6.28052e-28)
(1.62772e-12 3.359e-11 2.57306e-29)
(1.70787e-12 6.74457e-11 3.02144e-28)
(2.93459e-12 1.55508e-11 0)
(-6.63469e-11 1.80779e-11 -2.75829e-29)
(4.55244e-12 1.14183e-10 2.63954e-28)
(9.45389e-12 9.61202e-11 -4.83642e-29)
(2.18936e-12 -3.57345e-11 4.31103e-28)
(5.26738e-12 -5.92693e-11 -4.25215e-29)
(-2.42418e-10 1.37186e-10 -6.35536e-28)
(-2.19722e-13 -6.9536e-11 -1.27599e-28)
(2.17667e-11 8.67165e-11 -8.0316e-29)
(4.24699e-12 -6.82509e-11 8.29748e-29)
(8.55433e-12 -8.57584e-11 -1.69734e-28)
(5.0101e-11 3.1006e-12 2.4624e-28)
(4.09585e-11 3.05309e-11 -9.37817e-31)
(-2.00465e-10 -1.40014e-11 2.61629e-28)
(4.41733e-12 7.7399e-11 5.83718e-30)
(3.63475e-11 8.42943e-11 2.45071e-28)
(-1.914e-12 -7.72857e-11 1.64722e-28)
(1.29624e-12 2.32493e-11 0)
(2.32851e-12 4.25703e-11 -5.93553e-29)
(3.727e-12 5.50626e-11 5.07496e-29)
(3.49125e-12 4.72129e-11 -4.83432e-31)
(-5.18012e-13 -4.23297e-11 0)
(2.31228e-13 -2.19455e-11 -1.28659e-28)
(6.03893e-13 -4.04085e-11 -7.01428e-28)
(4.10744e-12 -4.96157e-11 3.24772e-31)
(1.11025e-11 -1.27452e-10 -1.65423e-31)
(1.8592e-12 -4.34035e-11 1.60941e-28)
(2.40131e-12 -3.06504e-11 -1.58559e-28)
(9.91562e-12 -1.07095e-10 -1.52688e-28)
(-1.6623e-11 -1.32992e-10 1.9045e-31)
(-1.0418e-11 -1.27145e-10 -1.91054e-31)
(3.70656e-12 1.34075e-10 -2.42699e-28)
(1.85386e-11 -1.32354e-10 1.63663e-31)
(1.80845e-12 2.74884e-11 2.61129e-29)
(3.05855e-12 -1.35719e-10 1.80914e-28)
(4.80259e-12 -1.1839e-10 0)
(-5.3654e-12 -1.17411e-10 0)
(1.65443e-12 -6.91526e-11 0)
(-4.64244e-12 -1.3513e-10 1.86678e-31)
(1.4299e-12 -2.42548e-11 0)
(3.65945e-12 -6.25626e-11 -1.25317e-29)
(3.9729e-13 -3.76712e-11 0)
(-6.78957e-13 -3.72265e-11 -1.53376e-28)
(-2.2028e-12 -6.7975e-11 2.18518e-28)
(-3.22877e-12 -3.87248e-11 4.96467e-28)
(2.94702e-12 2.41247e-11 3.1827e-28)
(-8.78988e-13 -2.25772e-11 0)
(3.09124e-12 -1.63264e-11 7.1749e-29)
(-1.41101e-12 2.97774e-11 -9.32721e-29)
(2.60608e-13 3.7952e-11 0)
(2.27204e-12 -2.93882e-11 -1.56426e-28)
(9.31768e-13 3.32883e-11 -6.32196e-29)
(1.48973e-12 -3.5386e-11 9.56771e-29)
(-1.00748e-11 2.48348e-11 1.66371e-28)
(-1.51125e-12 -3.44563e-11 -1.74841e-28)
(7.91904e-13 2.27089e-11 4.34029e-29)
(-3.8771e-13 -7.09012e-11 1.91824e-28)
(-6.59607e-13 -1.21629e-10 -1.81132e-28)
(8.6006e-12 -6.22998e-11 3.87485e-28)
(3.09727e-11 3.09265e-12 2.28535e-28)
(1.93727e-11 3.47581e-11 -2.16525e-28)
(8.67718e-12 4.4873e-12 0)
(-1.83431e-11 9.41515e-11 9.34596e-29)
(-1.82803e-12 3.4606e-11 -5.72275e-30)
(-1.19795e-11 1.87298e-12 -1.91292e-28)
(-2.09138e-11 3.43903e-11 1.89602e-28)
(-2.18411e-11 1.10437e-10 -1.87024e-29)
(-2.90377e-11 8.53557e-11 0)
(-3.32325e-11 -5.46671e-11 -1.61942e-28)
(-1.70976e-11 1.31682e-10 1.58453e-28)
(-2.81059e-11 3.71228e-12 0)
(-2.56059e-11 8.85766e-11 -9.46526e-30)
(-3.08859e-11 7.6165e-11 -8.60599e-30)
(-3.22636e-11 3.28281e-11 1.60295e-28)
(-1.88107e-11 1.06903e-10 1.05354e-28)
(-3.49671e-11 2.7208e-12 -1.63323e-28)
(-2.28559e-11 6.92853e-11 -1.18428e-28)
(-2.85137e-11 9.86239e-11 1.35707e-28)
(-3.40282e-11 2.91027e-11 0)
(-3.14103e-11 2.22499e-12 0)
(-1.0805e-11 1.00424e-10 -1.15456e-29)
(-2.53678e-11 2.57088e-11 -3.85601e-30)
(-1.78078e-13 1.20965e-10 0)
(-1.36542e-11 8.08236e-11 0)
(-1.57119e-12 6.79882e-11 0)
(-7.13792e-12 6.37347e-11 -8.64659e-29)
(-9.12444e-12 9.55007e-11 -1.76685e-28)
(9.14212e-13 -4.2837e-11 -1.33779e-28)
(4.34131e-12 -1.02413e-10 2.65191e-28)
(-1.81012e-11 1.59782e-12 0)
(-8.67856e-12 2.21653e-11 0)
(5.87108e-11 -4.00068e-11 0)
(-2.45139e-12 3.52964e-11 -1.33796e-28)
(9.51953e-13 -1.18257e-13 -1.11899e-28)
(2.40283e-11 6.407e-11 0)
(1.05659e-11 2.03051e-11 1.06817e-28)
(2.71121e-11 -4.71855e-11 2.57077e-28)
(1.92785e-11 -1.71832e-13 9.05338e-29)
(-1.61203e-11 8.27351e-11 6.67272e-29)
(2.54348e-11 2.11507e-11 -9.0536e-29)
(-5.63416e-11 5.59634e-11 -2.83017e-28)
(2.79447e-11 -5.68617e-13 -2.07997e-31)
(3.6923e-11 -3.06881e-11 -6.98773e-30)
(-2.58631e-11 9.91877e-11 -1.65818e-28)
(1.989e-12 6.97377e-11 -6.76315e-29)
(1.38298e-11 8.92505e-11 -2.92556e-28)
(2.48738e-11 2.1947e-11 0)
(-2.9563e-11 -1.05759e-13 2.65738e-29)
(-7.88082e-12 1.08372e-10 -4.83426e-29)
(-4.69537e-10 -1.56358e-10 9.0033e-29)
(1.56168e-11 -4.97001e-13 0)
(-1.96823e-12 2.25814e-11 0)
(-8.26772e-12 -1.07463e-10 -1.99859e-28)
(-1.86122e-12 -3.015e-11 0)
(-3.05619e-11 -8.78979e-11 -1.01212e-28)
(-2.61252e-11 -4.52069e-11 8.16077e-31)
(5.52233e-11 -3.53825e-11 -4.76269e-30)
(-3.2875e-12 -6.14141e-11 0)
(1.54237e-11 -6.80225e-11 -1.46168e-28)
(-6.66747e-11 7.13045e-11 -2.1295e-28)
(-5.62572e-11 -5.57006e-11 -1.85514e-28)
(-3.37354e-12 -5.31863e-11 -2.25233e-28)
(-2.8988e-10 5.14871e-11 0)
(4.44085e-11 -5.17219e-11 0)
(-1.08519e-10 -2.87246e-11 1.90302e-28)
(-1.53025e-10 -1.94081e-11 1.39881e-30)
(-2.34704e-10 8.59342e-12 -1.10744e-30)
(5.72629e-11 -5.10853e-11 -2.26128e-28)
(3.67296e-11 -7.96333e-11 4.17526e-28)
(-7.95235e-12 -6.17975e-11 1.36566e-28)
(-8.58958e-12 -9.47058e-11 3.93953e-28)
(-2.39485e-12 -4.60548e-11 0)
(9.19581e-12 -9.14195e-11 6.68825e-30)
(1.22283e-12 -8.70705e-11 -1.65092e-28)
(-2.26156e-10 6.23946e-11 6.29392e-28)
(-8.90348e-11 5.2711e-11 1.40407e-28)
(-1.74493e-10 4.90383e-12 -3.00741e-29)
(-2.58069e-10 -1.40408e-10 -1.13226e-27)
(-1.90376e-10 -5.50545e-10 1.35533e-27)
(-1.26865e-11 1.11294e-10 7.02144e-29)
(9.80881e-12 -6.10778e-11 -1.28358e-28)
(2.34075e-11 -6.44801e-11 -2.51823e-28)
(-8.1496e-12 9.42799e-11 6.87986e-29)
(-7.19343e-11 2.34993e-11 -1.77061e-27)
(1.01285e-11 -9.73893e-11 -2.39223e-28)
(-1.41442e-12 -1.3279e-10 -1.87493e-28)
(6.12352e-11 -2.96432e-11 -4.26036e-30)
(-1.73179e-11 -4.4805e-11 0)
(-3.29524e-10 -1.8966e-11 2.76198e-30)
(2.3769e-11 -6.8601e-11 -2.65902e-28)
(5.13556e-13 -6.84315e-11 0)
(-1.6298e-12 -2.56363e-11 1.78454e-28)
(-1.37389e-10 5.69517e-13 0)
(1.45605e-11 -3.79175e-12 0)
(-2.97332e-10 -5.19734e-11 -2.6545e-28)
(3.08661e-11 6.18056e-11 2.63127e-28)
(-6.42743e-12 -9.0623e-11 -6.56185e-31)
(-7.7873e-11 -1.93795e-11 8.29976e-28)
(3.70043e-12 -7.80048e-11 1.62701e-28)
(-2.49801e-10 -1.99131e-13 2.18728e-29)
(5.0783e-12 -5.20268e-11 6.76089e-30)
(5.84139e-12 -3.87375e-11 -8.03474e-29)
(-3.4834e-10 -1.21041e-10 3.43689e-28)
(3.46549e-11 -4.33663e-11 0)
(-1.1633e-10 -3.67208e-11 -4.16894e-28)
(1.69027e-11 1.32463e-10 -1.3791e-28)
(-8.35473e-10 3.54743e-10 -1.48667e-28)
(3.43884e-12 3.52286e-13 -1.17363e-28)
(1.86581e-11 -4.41862e-11 2.49612e-28)
(-7.23958e-12 -1.40661e-10 -1.85755e-31)
(4.76421e-11 -5.05048e-11 -2.08167e-28)
(3.93823e-11 7.10091e-11 -2.5042e-28)
(4.81283e-12 -5.15634e-13 -2.17994e-28)
(1.21084e-11 -1.12499e-10 -4.66051e-29)
(1.74834e-11 1.30945e-10 2.81609e-28)
(1.95569e-12 -8.42139e-13 1.10986e-28)
(-6.87459e-10 -9.18295e-10 0)
(-3.97801e-11 -8.6343e-11 -4.18573e-30)
(-5.93866e-11 -7.5377e-11 4.13796e-28)
(1.60368e-11 -4.90682e-11 1.32954e-28)
(2.49081e-11 -1.55197e-11 1.09374e-28)
(3.05935e-12 -2.41618e-11 1.34317e-28)
(-1.86469e-11 -1.06909e-10 1.67602e-28)
(8.8753e-12 3.90385e-14 2.66838e-28)
(-1.48465e-11 -1.28907e-10 0)
(5.05172e-11 -6.65394e-11 -6.07177e-30)
(7.24737e-12 -1.41009e-12 -1.26237e-28)
(-6.36497e-12 -8.35987e-11 0)
(-1.14347e-11 -1.00663e-10 -1.92862e-28)
(4.07452e-11 -9.74672e-11 -1.77092e-28)
(-1.49216e-10 6.46267e-10 1.78142e-27)
(-3.48511e-13 3.63257e-14 0)
(-4.33987e-11 2.70705e-10 -9.61929e-28)
(4.3832e-16 -3.2996e-13 -1.35248e-28)
(-5.75664e-10 9.28009e-10 0)
(3.16125e-12 1.96674e-12 -1.6935e-28)
(-8.41397e-10 -1.09228e-10 6.0897e-29)
(2.28917e-12 2.38435e-12 9.12237e-29)
(-2.4881e-10 6.44924e-10 0)
(-4.98223e-10 -7.8853e-10 3.28294e-29)
(3.91771e-13 -3.14479e-14 1.99451e-28)
(3.08844e-11 -1.10528e-11 0)
(9.82559e-13 9.15819e-11 0)
(-6.37839e-11 -1.83163e-10 0)
(1.70454e-11 3.7413e-11 2.05886e-28)
(2.47468e-12 -1.39716e-12 0)
(-3.91205e-11 -6.53574e-11 2.49409e-27)
(-8.97223e-11 4.40384e-11 -4.04758e-29)
(-1.16593e-12 8.09539e-11 0)
(-1.96638e-11 1.07432e-11 1.59708e-28)
(3.43354e-11 3.52328e-12 0)
(-2.71762e-10 -2.24725e-10 6.40294e-28)
(1.63111e-11 1.06092e-10 4.92847e-28)
(-8.06893e-12 4.99236e-11 1.46656e-27)
(1.86293e-11 5.84366e-11 1.01101e-28)
(2.28212e-12 5.86884e-11 0)
(1.3643e-11 9.92044e-11 5.16793e-29)
(8.06267e-12 8.78823e-11 0)
(2.48915e-11 7.79644e-11 -1.1353e-29)
(1.84912e-12 7.27979e-11 5.23498e-30)
(1.603e-11 8.26036e-11 0)
(1.76666e-11 7.297e-11 -4.21684e-29)
(2.00915e-11 1.4135e-11 -1.71573e-28)
(6.86888e-14 3.83915e-11 0)
(-2.26907e-12 4.40224e-11 0)
(-1.76975e-11 1.26566e-10 -7.21495e-29)
(-1.90057e-11 1.1319e-10 0)
(-1.9361e-12 5.04583e-11 4.69832e-29)
(-3.21103e-12 5.61507e-11 2.65869e-28)
(-1.04815e-11 1.09728e-10 -1.07216e-28)
(3.95906e-11 9.16163e-11 -2.46448e-28)
(2.47129e-11 1.06423e-10 0)
(5.12758e-11 5.65478e-11 -6.11209e-28)
(9.53109e-12 1.19953e-10 0)
(-1.66393e-10 -6.66792e-11 5.84729e-28)
(-7.07225e-10 9.14947e-10 0)
(1.72711e-12 4.84329e-13 0)
(-5.84357e-10 -9.49554e-10 0)
(9.07367e-14 -5.36814e-13 -9.0111e-29)
(-8.61099e-10 -6.27211e-12 2.10101e-28)
(-7.76327e-10 -6.29673e-10 0)
(-5.41498e-11 -2.8241e-10 0)
(1.84698e-14 3.06687e-13 1.58782e-28)
(-1.62432e-10 -6.40123e-10 0)
(-2.95144e-13 6.03447e-14 -2.05896e-28)
(-7.51623e-10 5.17516e-10 1.58608e-28)
(1.61376e-11 -1.07157e-11 1.23751e-28)
(1.28973e-11 3.40665e-12 0)
(4.53633e-11 2.2193e-11 1.56026e-28)
(1.92619e-11 4.90769e-12 0)
(-5.91348e-10 7.2231e-10 0)
(-2.73268e-11 -1.16563e-10 0)
(8.8885e-12 -8.54416e-12 6.95245e-30)
(9.98172e-12 4.54895e-12 1.52358e-28)
(-7.98229e-10 5.79527e-10 -1.57436e-28)
(1.22282e-11 -5.82632e-12 1.35383e-28)
(5.8892e-12 6.46064e-13 1.70276e-28)
(-4.10359e-10 -3.44594e-10 4.35154e-28)
(-1.23033e-11 -6.02058e-12 -1.13299e-27)
(-4.45624e-10 -1.04719e-09 -8.59724e-28)
(-1.5409e-10 -7.74159e-12 2.46888e-28)
(-2.32054e-12 3.21338e-11 -5.40375e-28)
(5.57046e-13 5.86414e-11 1.98967e-28)
(1.68686e-13 3.12267e-11 -1.43624e-28)
(-1.00813e-10 3.86491e-10 2.28878e-27)
(3.57616e-13 1.95289e-13 2.01521e-28)
(2.44345e-11 6.10639e-11 1.22079e-29)
(7.36645e-12 7.93569e-11 5.44855e-31)
(2.13685e-11 2.29962e-11 3.31763e-28)
(1.05702e-11 5.50412e-11 1.39384e-28)
(-1.68901e-13 1.83273e-11 0)
(-1.93802e-12 3.47981e-11 1.99883e-29)
(4.65121e-11 3.74458e-11 -1.63332e-28)
(-1.19289e-12 1.77163e-11 0)
(1.15668e-11 4.04457e-11 -2.0778e-28)
(-2.3146e-11 1.1737e-10 0)
(-8.20252e-13 2.40684e-11 -4.69553e-29)
(-2.30282e-12 8.48553e-11 9.56121e-30)
(6.83276e-12 1.06181e-10 -1.17761e-28)
(5.69098e-11 5.38584e-11 4.4269e-28)
(1.74283e-11 8.83361e-11 -7.66767e-30)
(5.0596e-11 7.2719e-11 -1.58701e-28)
(8.20353e-12 9.77643e-11 -1.76265e-28)
(5.05627e-11 6.49161e-11 1.64025e-28)
(-2.98175e-12 1.32069e-10 9.28973e-29)
(1.1464e-11 1.09612e-10 0)
(-8.52296e-10 -3.60942e-10 -1.30944e-28)
(3.92444e-12 1.15286e-10 1.59816e-28)
(3.70857e-11 2.12599e-11 0)
(-1.08509e-11 1.36128e-10 -1.75061e-28)
(2.9137e-12 8.44793e-11 0)
(-2.98998e-12 9.28132e-11 1.044e-28)
(1.2331e-12 -1.61601e-12 -1.13534e-28)
(6.1954e-12 -3.49549e-12 -5.5289e-30)
(4.54458e-12 -4.39468e-12 -7.78128e-30)
(-1.84147e-13 -1.37722e-13 2.01695e-28)
(-7.57036e-11 -3.39989e-10 0)
(-3.09316e-10 -8.40743e-10 2.35071e-28)
(3.10489e-11 2.99111e-11 -4.17137e-28)
)
;

boundaryField
{
    back
    {
        type            empty;
    }
    front
    {
        type            empty;
    }
    left
    {
        type            noSlip;
    }
    top
    {
        type            uniformFixedValue;
        uniformValue    
        {
            type            scale;
            scale           
            {
                type            squarePulse;
                start           0.3;
                duration        0.3;
            }
            xScale          
            {
                type            constant;
                value           1;
            }
            value           
            {
                type            constant;
                value           (0 -0.7 0);
            }
        }
        value           uniform (0 -0 0);
    }
    right
    {
        type            noSlip;
    }
    bottom
    {
        type            zeroGradient;
    }
}


// ************************************************************************* //
