/*--------------------------------*- C++ -*----------------------------------*\
  =========                 |
  \\      /  F ield         | OpenFOAM: The Open Source CFD Toolbox
   \\    /   O peration     | Website:  https://openfoam.org
    \\  /    A nd           | Version:  9
     \\/     M anipulation  |
\*---------------------------------------------------------------------------*/
FoamFile
{
    format      ascii;
    class       surfaceScalarField;
    location    "2.82";
    object      phi;
}
// * * * * * * * * * * * * * * * * * * * * * * * * * * * * * * * * * * * * * //

dimensions      [0 3 -1 0 0 0 0];

internalField   nonuniform List<scalar> 
2420
(
3.81182e-07
-5.55771e-07
1.74589e-07
1.68042e-07
-1.68042e-07
4.5368e-07
-4.73328e-07
1.96482e-08
-4.63329e-07
4.63329e-07
-3.80829e-07
1.6711e-07
2.13718e-07
5.36525e-08
-8.46746e-08
3.10221e-08
2.03703e-07
2.49978e-07
-5.35307e-07
2.88488e-08
5.06458e-07
1.12216e-06
-1.21098e-06
8.88272e-08
-3.00629e-07
-8.01997e-08
-1.15631e-06
5.34248e-07
6.22066e-07
-6.02966e-07
-5.53348e-07
-5.35307e-07
-9.16403e-08
-6.49327e-08
1.56573e-07
-1.50766e-08
-3.83567e-07
3.98644e-07
-7.46091e-08
1.70252e-07
-9.56428e-08
-7.3083e-08
1.60555e-07
-8.74725e-08
1.78996e-07
-3.53246e-07
1.7425e-07
1.50609e-07
-2.01928e-07
5.1319e-08
-1.22835e-07
3.11946e-08
-3.87198e-08
2.17966e-07
-1.79246e-07
6.88186e-09
-3.18326e-07
4.54381e-07
-1.36055e-07
-4.015e-07
8.31736e-08
-2.06375e-07
5.87557e-07
-4.94805e-08
-2.36025e-08
3.81358e-08
-1.12745e-07
-4.10267e-07
-8.10115e-07
1.22038e-06
-9.58574e-07
5.48307e-07
2.02158e-07
-9.62621e-08
-1.05896e-07
-6.05812e-07
-2.61291e-07
8.67103e-07
1.30851e-07
6.07112e-07
-7.37963e-07
-4.44088e-07
4.29551e-07
1.45371e-08
1.89173e-07
5.24272e-08
-2.416e-07
-1.27722e-07
3.06717e-07
1.91766e-08
1.69997e-07
1.91134e-09
5.17412e-08
9.58365e-08
7.2205e-08
-4.28267e-08
-4.01261e-07
-9.58535e-10
-1.67083e-07
7.69771e-08
-1.15697e-07
3.84418e-07
4.70267e-08
-4.31445e-07
3.27279e-07
-3.70105e-07
2.37808e-07
-2.55591e-07
1.77822e-08
8.60889e-08
-7.05722e-08
-1.55168e-08
-3.99371e-08
-4.23392e-07
2.20146e-07
2.43183e-07
1.09388e-07
-2.32986e-08
-1.30072e-07
2.36592e-07
-1.0652e-07
-5.2184e-08
3.79463e-07
1.32237e-08
-9.78983e-08
-3.42477e-07
-5.04909e-07
4.89832e-07
-7.76149e-07
-4.34833e-07
1.3082e-07
9.48809e-08
-2.25701e-07
1.85051e-07
-2.21728e-08
-1.62878e-07
3.11994e-09
7.86929e-09
-1.09892e-08
9.39932e-07
-4.05684e-07
-9.16944e-07
7.47784e-07
1.6916e-07
1.97789e-07
-1.27379e-08
8.9587e-08
-6.95399e-07
-9.97738e-08
6.07071e-08
3.90668e-08
-1.20981e-08
-5.43673e-07
-7.35809e-07
7.64658e-07
2.6696e-07
-2.32968e-07
-3.39924e-08
-6.4524e-07
3.83949e-07
-2.28486e-07
1.17366e-09
2.27313e-07
-9.05301e-07
9.34584e-07
-2.92828e-08
1.19611e-07
-2.47333e-07
-1.70821e-08
3.46311e-08
-4.41537e-07
1.88051e-07
-2.63362e-07
7.53104e-08
-1.45163e-07
-2.38404e-07
1.57161e-07
1.49688e-07
-3.06849e-07
-9.27134e-08
1.03216e-07
-1.05026e-08
-9.25292e-07
-3.32823e-08
-5.30631e-08
1.72674e-07
8.0097e-08
8.67674e-08
1.1539e-07
1.37196e-07
1.29764e-07
-5.31831e-08
-3.95303e-08
2.57018e-07
-1.26198e-07
2.16208e-08
2.16188e-07
1.05227e-07
1.76594e-07
-2.81821e-07
-1.78206e-07
-7.13201e-08
2.49526e-07
2.94422e-07
-1.37261e-07
2.40425e-07
-5.23741e-08
-3.12669e-07
1.03362e-07
2.09307e-07
-3.48271e-07
1.30125e-07
2.18146e-07
-1.24979e-07
-2.23292e-07
1.44888e-07
-1.2524e-07
-3.03809e-08
1.8099e-07
2.23011e-08
-1.52373e-07
1.76038e-08
-5.10737e-08
3.34699e-08
-9.779e-08
-1.04138e-07
-1.21205e-07
-1.07281e-07
-8.86844e-07
-3.01002e-08
1.16009e-07
4.91103e-07
-4.66184e-07
1.63516e-07
3.02668e-07
2.31915e-07
-8.70266e-08
-1.42357e-07
2.31839e-07
-8.94822e-08
1.42227e-07
9.4365e-08
-2.5171e-07
1.09353e-07
1.88122e-07
-2.40908e-07
5.27856e-08
-7.00115e-08
-2.97624e-08
-8.61702e-07
1.57344e-07
7.04357e-07
1.01967e-08
-1.06459e-07
-1.86203e-07
-2.79982e-07
1.96293e-07
-2.18466e-07
-5.05467e-09
-3.33073e-07
3.38128e-07
2.51294e-07
-8.54261e-07
2.8733e-07
-9.10375e-08
3.24056e-07
-2.18829e-07
7.97471e-07
-1.13989e-07
-6.83482e-07
-3.03185e-07
-7.33879e-07
-1.27822e-07
7.07847e-07
-8.88834e-08
-2.23786e-07
1.89483e-07
-1.3613e-09
1.53869e-07
1.33461e-07
5.12007e-08
-3.42057e-07
2.90856e-07
8.09156e-08
-5.26337e-07
4.45422e-07
-4.64942e-07
-6.26844e-08
5.27626e-07
-2.52943e-07
1.31738e-07
-6.56131e-07
1.48692e-07
5.07439e-07
-3.23905e-07
2.71721e-07
8.80829e-08
-7.04791e-08
1.18504e-07
5.17479e-08
1.67545e-07
-3.72269e-07
2.04724e-07
3.08424e-07
-1.56759e-07
-1.51666e-07
-3.38592e-07
3.33537e-07
-8.84188e-07
1.48379e-07
-4.37881e-07
-2.18251e-07
-4.48115e-08
4.48115e-08
1.10646e-07
5.91275e-08
-1.69773e-07
-2.68271e-07
-1.23872e-07
3.92143e-07
-5.04909e-07
7.86929e-09
1.37059e-07
-1.35886e-07
1.97789e-07
2.71466e-08
1.09892e-08
-2.71466e-08
5.1139e-08
-2.39925e-08
2.54128e-08
2.61559e-07
-2.86972e-07
1.911e-07
8.74725e-08
-2.78572e-07
-2.61559e-07
3.1276e-07
-1.07338e-07
2.86972e-07
-1.79634e-07
1.41131e-07
1.27379e-08
-3.85028e-08
-1.41131e-07
1.79634e-07
-6.32951e-07
5.7245e-07
6.05009e-08
6.32951e-07
-5.43364e-07
-5.7245e-07
2.78572e-07
2.93877e-07
-3.1276e-07
4.62448e-07
-4.62448e-07
5.43364e-07
1.74752e-07
-2.46072e-07
-2.79087e-08
-2.95997e-07
4.3436e-08
-2.76404e-07
-2.20148e-07
3.2436e-07
-1.04212e-07
6.35915e-08
-1.14514e-07
-3.27486e-07
1.47471e-07
-1.45609e-07
-1.86167e-09
-9.25087e-07
1.48938e-07
2.30441e-07
9.39186e-08
2.55854e-07
1.01352e-07
-9.88196e-07
-1.24495e-06
5.94865e-07
-7.08854e-07
-2.1104e-08
2.62224e-09
-5.56853e-08
2.68447e-07
-1.07892e-07
-3.7818e-07
6.72807e-08
3.10899e-07
-2.61872e-07
2.23369e-07
-8.81441e-07
1.05892e-07
7.7555e-07
-7.24097e-07
8.15365e-08
2.26888e-07
2.64182e-08
-2.37959e-08
8.71735e-08
2.85936e-07
-3.7311e-07
-1.04103e-07
-1.87324e-08
-3.27531e-08
-2.40378e-07
-1.37801e-07
2.74548e-08
-1.42311e-08
-3.97276e-07
-6.76658e-08
6.12728e-08
1.62706e-08
-7.75434e-08
-4.33533e-07
5.98201e-08
3.73713e-07
-9.92049e-08
4.60218e-08
-3.46359e-07
2.22874e-07
4.31036e-08
-2.65978e-07
-3.37322e-07
9.69437e-08
-5.58632e-08
-1.4709e-08
-5.81277e-08
1.18835e-07
-1.59173e-07
-7.90725e-09
1.6708e-07
-7.13957e-07
3.71479e-07
-4.57749e-07
2.07321e-08
4.37017e-07
-3.46147e-08
6.3701e-08
-3.97929e-07
-1.1305e-07
2.16412e-07
-1.86153e-07
-1.51169e-07
-8.88488e-08
-1.85652e-07
2.74501e-07
-2.46442e-07
1.57593e-07
1.57312e-08
-2.24661e-07
2.0893e-07
3.14035e-09
2.14825e-07
-4.18702e-07
3.67846e-07
5.08564e-08
1.16245e-07
-1.24152e-07
-2.29592e-07
3.97138e-07
3.64342e-08
1.5993e-08
9.52077e-07
-1.12339e-06
1.71314e-07
-4.92628e-08
-6.64694e-07
1.09687e-07
7.43557e-07
1.31314e-08
-1.17234e-07
2.94351e-07
-1.57292e-07
8.62029e-08
-6.70263e-08
1.917e-07
-4.42287e-08
3.54379e-08
8.43152e-07
-8.7859e-07
8.10221e-08
-2.67175e-07
1.01826e-08
6.11793e-08
3.35761e-07
9.37899e-08
-4.21676e-07
3.72867e-07
4.88083e-08
-8.29415e-08
4.9483e-07
-4.73727e-07
-2.11029e-08
1.95227e-08
4.75307e-07
-2.07561e-07
-5.28309e-07
-1.91825e-08
5.47491e-07
-6.43896e-09
-5.2187e-07
-3.18306e-07
4.47889e-07
-1.29583e-07
1.93908e-07
8.66275e-08
-2.80535e-07
-2.1548e-07
4.09388e-07
6.42265e-08
1.08448e-07
4.22939e-07
-5.50932e-08
-4.13677e-07
9.53702e-08
-4.52995e-07
5.23115e-08
6.39333e-08
-4.59108e-07
4.78631e-07
5.90907e-07
3.62197e-07
-9.53105e-07
2.16773e-07
8.84881e-08
-2.72153e-08
1.08919e-06
-4.98282e-07
3.51736e-08
9.63792e-09
-3.90014e-07
-3.16619e-08
-1.50564e-07
9.81897e-08
8.7576e-07
-4.68781e-07
-4.06979e-07
-7.11555e-07
-2.13532e-07
-2.20911e-08
4.53889e-07
-1.75436e-07
-8.01546e-08
2.5259e-07
-1.80401e-07
-7.21892e-08
9.02814e-07
4.82825e-09
4.18111e-07
-1.08795e-06
1.1549e-07
3.67939e-07
-4.83428e-07
-4.27319e-07
3.73055e-08
1.72086e-07
-1.45668e-07
3.73107e-07
-2.79317e-07
1.42504e-07
-2.166e-07
7.40959e-08
3.76019e-07
-9.00826e-08
5.4215e-07
-6.68423e-08
1.78458e-07
6.98403e-08
1.8275e-07
7.10838e-07
-6.76406e-07
-3.44317e-08
3.21553e-07
5.15536e-08
1.7792e-07
-2.05829e-07
3.52046e-07
-4.34987e-07
2.42783e-07
-6.74807e-08
-1.75303e-07
4.89832e-07
1.81218e-07
-1.16991e-07
3.26249e-08
5.47777e-08
3.21241e-07
5.64048e-08
5.20431e-08
1.60178e-07
2.10403e-08
3.16355e-07
5.59404e-07
3.6167e-09
-4.30936e-07
1.30718e-07
7.99976e-08
-2.10716e-07
7.14669e-07
-2.60264e-07
-4.54405e-07
-1.94419e-07
2.08727e-07
-1.43079e-08
6.63657e-07
-6.69706e-07
6.04862e-09
8.33216e-08
7.68559e-08
-1.77797e-07
-3.27112e-07
-3.00696e-07
1.22899e-07
-1.08678e-07
1.29718e-07
1.65477e-07
1.60308e-09
4.61468e-07
-3.22518e-07
-1.38949e-07
3.7241e-07
1.89726e-07
-2.3283e-07
-1.75072e-08
4.89234e-08
2.55463e-07
-3.04386e-07
5.32272e-07
-4.64991e-07
-3.21515e-08
8.4463e-08
4.58648e-07
-1.4644e-08
-4.44004e-07
5.06458e-07
-8.97772e-07
9.63792e-09
4.32407e-07
-2.78649e-07
-1.53758e-07
-3.57717e-07
4.67882e-07
-1.10165e-07
2.58561e-08
-3.55499e-09
2.58561e-08
-4.88256e-07
4.64493e-07
2.37623e-08
4.71823e-07
7.03266e-08
-4.15199e-07
4.69353e-07
-5.41547e-08
-4.2849e-07
4.06399e-07
1.118e-08
1.04346e-07
-1.15526e-07
5.95479e-07
-1.23656e-07
1.35705e-07
-1.71538e-07
3.58329e-08
-3.25696e-07
5.16796e-07
-2.83423e-07
4.25927e-07
2.73561e-08
-2.09715e-08
7.09257e-08
4.67353e-07
1.28126e-07
-3.54599e-07
4.70089e-07
-1.77851e-07
2.26774e-07
1.03751e-07
-2.96082e-08
5.26834e-08
-4.53492e-07
4.23392e-07
-4.53492e-07
-1.27493e-08
-8.60477e-08
4.53986e-07
4.05881e-07
-3.93808e-07
-1.20728e-08
-3.70154e-07
3.74982e-07
8.60661e-08
-6.52046e-08
6.52046e-08
4.25756e-07
-1.93572e-08
-2.21136e-08
1.2646e-07
4.57425e-07
2.12056e-08
3.80759e-07
2.51222e-08
3.07017e-07
-5.41582e-07
4.74739e-07
4.18197e-08
-4.64765e-07
-5.31974e-07
6.52158e-08
4.66758e-07
1.39726e-07
-1.58453e-07
1.52014e-07
-3.27112e-07
-6.74802e-08
4.54709e-07
4.15935e-07
3.75872e-07
-5.46304e-08
2.96321e-07
-2.96321e-07
-1.60029e-07
-6.46321e-08
-7.18252e-08
-4.00703e-07
4.53387e-07
5.60595e-07
-5.43043e-07
-1.75522e-08
-1.80043e-07
6.47396e-07
-4.76366e-07
5.87937e-07
-1.13197e-07
8.47545e-08
2.30126e-07
-3.1488e-07
4.53559e-07
-5.83254e-07
1.29695e-07
-1.29323e-07
2.25545e-09
-7.81997e-08
6.38795e-07
6.58923e-07
-8.27146e-07
1.68223e-07
2.10784e-09
-2.10784e-09
8.74503e-08
-2.0596e-07
2.0596e-07
-1.81109e-07
4.14589e-07
1.00844e-07
-5.15433e-07
1.01246e-07
-1.01246e-07
-4.55797e-07
-8.81301e-08
8.81301e-08
6.31025e-07
-4.64281e-07
-1.66744e-07
1.39868e-07
-1.39868e-07
-3.07718e-08
6.91555e-07
-2.64499e-07
-4.27056e-07
6.15735e-07
3.3756e-07
1.10329e-07
-4.97469e-07
1.84725e-07
-3.14308e-07
8.04214e-07
-1.45291e-07
5.95725e-07
-6.30157e-07
-5.36159e-07
-2.90987e-07
-1.8997e-08
4.73706e-07
-1.07707e-08
4.50982e-07
2.33742e-07
2.12561e-07
5.27752e-07
-3.26478e-08
-5.28038e-08
-1.07225e-07
2.23673e-07
4.67882e-07
-4.9924e-07
3.42485e-08
5.69951e-07
-1.03194e-07
6.67589e-07
-2.16607e-07
4.67884e-07
1.79512e-07
-7.89755e-07
-3.73733e-07
-3.81248e-07
7.54981e-07
2.90207e-07
-1.91559e-07
-9.86482e-08
1.01791e-08
7.94035e-07
-6.41173e-07
-2.85325e-08
1.35554e-07
3.00913e-07
-4.36467e-07
4.27494e-07
-9.38338e-09
-4.02296e-07
-1.90124e-07
1.3732e-07
9.58365e-08
3.83129e-07
-6.47628e-07
-7.14321e-08
7.14321e-08
-8.02622e-07
-1.24974e-07
9.27595e-07
-7.83197e-07
2.47038e-07
5.18682e-07
4.66747e-07
-3.92532e-08
-7.53672e-07
1.06789e-06
-3.14222e-07
5.15934e-08
4.55349e-07
-6.70829e-07
-4.65814e-07
-3.17383e-07
2.23606e-07
4.43983e-07
3.33717e-07
-7.0745e-07
-7.92442e-07
2.99023e-07
-3.06673e-07
7.64913e-09
6.91491e-07
2.72561e-07
-6.47454e-07
3.74893e-07
-2.84536e-07
7.33774e-07
-4.49238e-07
8.17546e-07
4.56754e-07
4.46962e-07
-7.62869e-07
9.68607e-07
-2.05739e-07
-4.71992e-07
1.03698e-07
-6.74392e-07
5.70694e-07
7.16544e-07
1.23004e-07
3.58801e-08
-1.58884e-07
-8.78646e-07
-1.05582e-06
3.07495e-07
7.48324e-07
-9.56241e-08
5.10213e-07
-5.57964e-08
2.64726e-07
-2.86275e-08
2.86275e-08
2.89162e-07
7.78732e-07
7.30569e-07
-1.41344e-07
-5.89226e-07
-1.21483e-09
-1.88909e-07
4.87885e-07
2.03605e-07
-5.47581e-07
7.9462e-07
-7.66657e-07
-9.5385e-07
8.09408e-07
1.44441e-07
1.24874e-07
-1.59446e-07
-7.94404e-07
-2.87626e-07
-1.04054e-06
2.77676e-07
-7.18158e-08
8.30808e-07
-7.58993e-07
6.60595e-07
4.55239e-07
-1.11583e-06
-6.53276e-07
8.21499e-07
-3.79949e-07
-7.18751e-07
-2.9057e-08
7.47808e-07
7.9051e-07
-4.8516e-07
-3.0535e-07
-7.38615e-07
1.91034e-07
8.09161e-07
4.02721e-07
-5.69378e-07
6.21013e-07
-5.16351e-08
1.18188e-08
-8.45889e-07
7.74073e-07
-3.10937e-07
6.44654e-07
-1.13129e-07
-2.5073e-07
6.52975e-07
1.30838e-07
-7.83813e-07
6.79398e-07
-5.83847e-08
5.25422e-07
1.53976e-07
4.28886e-07
-9.13254e-08
2.99698e-07
1.17865e-06
-5.49356e-07
-6.29289e-07
7.54923e-07
-2.29502e-07
4.54504e-07
3.00419e-07
-1.14074e-06
3.81547e-07
7.59193e-07
1.17639e-06
-5.87073e-07
-5.89313e-07
4.89683e-07
-6.26359e-07
1.36676e-07
6.33071e-07
-3.0307e-07
-3.44557e-07
1.04094e-06
-3.87963e-07
-5.6934e-07
1.02458e-06
-9.74581e-07
3.46586e-07
6.27995e-07
-1.84709e-07
2.80921e-07
5.57875e-07
-8.38796e-07
-2.94213e-07
-1.42254e-07
1.83748e-07
-5.49784e-07
3.66036e-07
6.90677e-07
4.87968e-07
-8.81017e-07
1.45039e-07
7.35978e-07
7.26715e-07
3.92094e-07
-6.1526e-07
2.23166e-07
-3.35161e-08
9.12056e-07
-8.7854e-07
-6.67086e-07
-6.02294e-07
7.1246e-07
-1.10166e-07
-3.45438e-07
-3.92415e-07
-3.09701e-07
7.01796e-07
-5.9567e-07
-6.81734e-07
1.2774e-06
8.0109e-07
-7.59646e-07
-6.30079e-07
1.38972e-06
-3.6165e-07
8.10008e-07
-4.48358e-07
1.35532e-06
-5.73034e-07
-7.82282e-07
4.71729e-07
-1.04107e-06
-8.79405e-07
-3.1071e-07
8.68585e-07
1.33584e-07
5.79708e-07
-7.13292e-07
1.18764e-06
-2.75587e-07
2.16086e-08
-5.90091e-07
5.68482e-07
1.00954e-06
-3.67067e-07
-4.17577e-07
-1.97682e-07
1.17943e-06
-4.05361e-07
7.67523e-07
1.20684e-07
-8.88206e-07
-6.57077e-07
5.47828e-08
6.05232e-07
-2.21284e-07
-4.49659e-07
6.73597e-07
-2.23938e-07
5.33969e-07
-7.07466e-08
-4.63222e-07
4.60668e-07
-3.06692e-07
-5.18445e-08
-6.80656e-07
1.18893e-06
-5.08273e-07
-1.3018e-06
7.28761e-07
9.28993e-07
-1.6147e-07
1.28147e-06
-1.1444e-06
-1.37067e-07
-1.1743e-06
4.92569e-07
-6.83876e-07
-1.97142e-07
-1.53117e-07
1.53117e-07
1.75594e-07
-1.75594e-07
1.21076e-07
-1.21076e-07
-1.67083e-07
-3.55499e-09
-6.26863e-07
6.26863e-07
-2.04239e-07
2.04239e-07
2.48796e-07
-2.48796e-07
-7.00577e-08
-1.8278e-07
1.8278e-07
2.20146e-07
-2.5063e-07
2.5063e-07
6.2599e-08
-6.2599e-08
1.07569e-07
-1.07569e-07
1.36287e-08
-1.36287e-08
2.95055e-07
8.05757e-07
-1.10081e-06
-2.75317e-07
2.75317e-07
-4.72474e-07
4.72474e-07
-4.32354e-07
9.76002e-07
-5.43648e-07
9.25924e-07
-1.20151e-06
4.96638e-07
3.5081e-07
6.40368e-07
3.69175e-07
1.23763e-07
-5.4134e-07
7.13869e-07
2.01519e-07
2.63355e-07
3.97994e-08
-3.03154e-07
4.95731e-07
-1.03938e-06
1.2107e-06
3.52407e-07
2.7334e-07
-6.25747e-07
-4.35717e-07
2.14433e-07
-4.68057e-07
-2.90936e-07
-3.73818e-07
-6.67251e-07
1.93516e-07
-2.23049e-07
5.23468e-07
-5.14483e-07
-6.01352e-07
-4.1891e-07
4.40519e-07
2.96263e-07
-1.33565e-06
-8.50823e-07
3.82767e-07
9.74628e-08
-2.06504e-07
1.75956e-08
-4.18761e-07
4.73544e-07
7.3565e-07
-3.75871e-07
-4.45542e-07
4.09262e-07
-5.05774e-07
3.87118e-07
-4.10727e-07
9.03296e-07
-1.03391e-06
6.60087e-07
-2.15257e-08
5.55494e-07
-9.28909e-07
8.01393e-07
1.27516e-07
6.69419e-07
2.65821e-07
-9.3524e-07
9.35423e-07
-3.84159e-07
4.27037e-07
-4.28782e-08
-7.61825e-07
3.12166e-07
-1.12048e-06
2.37366e-07
8.83112e-07
7.55703e-07
4.33225e-07
-2.04328e-07
2.37619e-07
-1.36813e-06
2.23727e-07
-1.18173e-06
-1.39934e-06
2.57214e-07
1.14213e-06
1.64851e-07
7.45537e-07
-9.07007e-07
-9.71465e-07
4.27817e-07
5.1139e-08
-1.27502e-06
9.59614e-07
3.15409e-07
-3.11328e-07
6.62138e-07
-1.03593e-06
-1.65583e-07
1.22245e-06
-3.27316e-07
1.62216e-07
6.47893e-07
-1.49971e-07
7.60828e-07
-6.10857e-07
-8.69054e-07
1.02152e-06
-1.3993e-07
1.7973e-07
1.71336e-07
-3.34788e-07
-8.08312e-07
-7.39827e-07
-1.89082e-07
-4.28933e-07
1.20767e-06
1.00136e-06
-1.99968e-07
-1.13076e-06
-2.99919e-07
-2.26403e-07
5.26323e-07
-9.38466e-07
-1.17562e-06
-1.19497e-06
8.19103e-07
1.1914e-06
-1.09005e-06
-2.25928e-07
-7.3014e-07
5.80343e-07
-1.00791e-06
4.27568e-07
-5.87038e-07
1.60938e-07
1.02581e-06
1.00816e-06
-5.68052e-07
2.57115e-07
-1.16285e-07
9.22043e-07
-7.10646e-07
-5.99937e-07
-2.671e-07
8.67037e-07
-6.88816e-08
3.37329e-07
-1.01781e-06
3.65871e-07
4.35219e-07
2.1113e-07
8.10395e-07
1.02329e-06
-1.67674e-07
-8.55618e-07
-3.41619e-07
-2.35879e-07
-5.48692e-07
7.84571e-07
1.05588e-06
-8.4475e-07
-1.13481e-06
5.33462e-07
-4.37212e-07
6.08548e-07
-1.6786e-07
3.30076e-07
1.25588e-06
-4.25912e-07
-1.15428e-07
7.93513e-07
-3.41644e-07
-8.4009e-07
7.41679e-08
1.53145e-07
6.9695e-08
6.99544e-07
2.79917e-07
-1.41068e-06
-2.56353e-07
1.94711e-07
6.16417e-08
-9.04784e-07
1.07082e-07
7.97703e-07
-3.06688e-08
-2.72485e-07
8.91112e-08
-8.28938e-07
-9.09631e-07
7.03892e-07
-3.94665e-08
-6.63499e-08
1.05816e-07
1.82185e-07
-5.04467e-08
-1.01456e-06
6.34612e-07
-7.19027e-07
-4.15787e-07
7.29144e-07
-6.01628e-07
1.22674e-06
7.9762e-07
-6.13716e-07
-1.83904e-07
5.12167e-07
-1.02035e-06
8.15233e-08
-1.10687e-06
3.87841e-07
-7.9146e-07
-4.56581e-07
-9.89037e-08
6.50898e-07
-5.51995e-07
-1.05856e-06
3.22899e-08
8.89753e-07
-4.81099e-07
7.31834e-07
-6.63825e-07
-3.44087e-07
3.81988e-07
-1.91208e-07
5.5708e-07
-9.1649e-07
7.69321e-07
1.47168e-07
-8.82353e-07
6.90964e-07
1.9139e-07
-7.77739e-08
-8.02547e-08
7.28148e-07
-9.45177e-07
4.64078e-07
-9.91545e-07
7.91855e-07
-3.10269e-08
1.13987e-06
2.6122e-07
-1.40108e-06
1.99151e-07
-5.97283e-07
6.32018e-08
-2.90341e-08
-3.41678e-08
-5.78794e-07
-4.07337e-08
6.19527e-07
8.1525e-07
5.62562e-08
-1.25138e-07
2.41103e-07
-1.25891e-06
5.57336e-07
-1.88359e-07
2.24192e-07
1.19724e-06
2.20068e-08
-6.6318e-07
-2.1146e-07
-7.31827e-07
9.43288e-07
-2.75019e-07
2.91725e-07
-4.49059e-09
-2.87234e-07
-7.67286e-08
-1.37887e-07
4.75216e-07
-1.68988e-08
3.87267e-07
-3.70369e-07
-9.56227e-08
-8.17457e-07
-4.30867e-07
-8.52702e-08
5.16137e-07
-4.35442e-07
1.6532e-08
6.46836e-07
-5.57725e-07
3.43411e-07
3.58384e-07
4.11373e-07
-3.49731e-07
1.0912e-07
6.82735e-07
-2.15645e-07
-8.04394e-07
2.55701e-07
-7.34111e-07
5.22651e-07
8.23805e-07
-1.19913e-07
1.54503e-07
-2.04949e-07
4.52079e-08
7.28182e-07
1.21399e-07
3.56972e-07
-4.78371e-07
2.51139e-07
-1.94883e-07
5.56434e-07
-6.94321e-07
-6.38567e-08
2.43902e-08
-3.08257e-07
4.38892e-08
2.64368e-07
-6.98706e-07
-8.96588e-07
-5.29771e-07
-7.55585e-07
7.62854e-07
-7.26973e-09
-1.13032e-07
-1.9281e-07
1.28954e-07
5.8727e-08
-4.09063e-08
-1.78207e-08
-4.76176e-07
-5.3436e-08
8.51139e-07
-5.45494e-07
5.38225e-07
-1.48921e-07
-1.42651e-08
7.29922e-08
8.10067e-07
1.41978e-06
3.3226e-07
5.32471e-07
-8.0749e-07
-1.21471e-06
1.01475e-06
-9.53495e-07
2.94363e-08
-7.57618e-07
7.04182e-07
7.38106e-07
2.44165e-07
2.29172e-07
-2.46071e-07
-1.66235e-07
-3.57644e-07
-1.05304e-06
-3.7347e-08
-2.90028e-08
-7.02785e-08
7.25801e-07
1.54618e-07
-8.80419e-07
-2.28609e-07
8.20197e-07
-5.91588e-07
4.75279e-07
-3.48759e-07
3.01997e-07
1.86268e-07
-1.90759e-07
3.30574e-07
-2.85773e-08
-4.34111e-07
-5.41565e-07
-1.97896e-07
7.39461e-07
-1.16596e-06
-1.59667e-07
8.50631e-07
-1.93288e-07
4.50403e-07
2.1648e-07
1.95887e-07
-4.12367e-07
1.72745e-07
3.43393e-07
-2.71439e-07
-7.60324e-08
3.47471e-07
1.10169e-07
-4.90083e-07
3.79913e-07
-4.53002e-07
-1.33302e-07
2.54701e-07
-3.40304e-07
5.56784e-07
-7.70173e-07
8.0692e-07
-6.88137e-08
1.80861e-07
-1.14258e-06
1.2292e-07
-6.74915e-07
-1.47567e-07
-3.9888e-07
2.05592e-07
4.65102e-07
9.24623e-07
-7.75491e-07
4.30934e-07
1.43698e-07
1.11003e-07
6.47253e-07
1.25914e-07
5.38156e-08
-2.0506e-07
3.35038e-07
3.90842e-07
8.86563e-07
6.40449e-07
-7.09263e-07
-3.58831e-07
7.15964e-08
-7.85077e-07
3.58021e-07
5.08056e-09
5.63402e-07
8.61034e-07
-6.69645e-07
2.03675e-07
2.54972e-08
1.42599e-07
2.44518e-07
-2.31506e-07
1.26212e-07
2.04362e-07
1.75097e-07
2.59042e-07
-3.37851e-08
-1.97721e-07
3.63802e-08
-6.54142e-08
-1.31127e-07
-4.51042e-08
1.76231e-07
-8.45231e-07
3.54143e-07
4.91088e-07
-5.70814e-07
4.04579e-07
3.56515e-07
7.00966e-08
-2.74845e-07
-5.00646e-07
-3.44656e-08
-4.69605e-07
2.53961e-07
3.22239e-08
1.77084e-07
-5.86189e-07
8.72969e-07
6.37453e-07
2.65843e-07
5.41417e-07
-1.84446e-07
8.76922e-08
-3.3234e-07
-7.96402e-09
-2.55254e-07
-1.03577e-07
-1.44919e-07
-2.1243e-07
3.36357e-07
-2.60926e-07
-4.97276e-07
-2.87999e-07
7.85275e-07
6.10643e-07
-5.88636e-07
1.02829e-06
-9.89029e-08
6.17809e-08
1.32439e-07
-1.9422e-07
-1.41259e-06
3.59554e-07
1.50408e-07
-2.69087e-07
1.18678e-07
5.95766e-07
1.48767e-08
-7.70267e-08
-1.17856e-07
7.15734e-07
-3.935e-07
2.31319e-08
1.35166e-06
-4.18382e-07
2.48817e-08
-4.67684e-07
-7.61572e-07
-8.04393e-07
3.07116e-07
-4.29433e-07
6.00081e-07
-1.70648e-07
2.12771e-07
5.60575e-08
2.68514e-07
-2.91736e-07
-1.4745e-07
4.39186e-07
-4.30898e-07
6.14646e-07
-2.22816e-08
-2.92598e-07
7.89016e-07
-4.30995e-07
3.08801e-07
-4.44337e-08
1.20908e-07
-3.98257e-07
-5.01017e-07
7.2469e-07
9.01958e-08
-5.76883e-07
-4.98134e-08
1.78767e-07
8.73344e-08
-3.66125e-07
2.74748e-07
-1.24339e-07
6.01815e-07
-4.77995e-07
6.11579e-07
3.76347e-08
-5.03587e-07
4.65953e-07
5.40221e-07
1.84469e-07
-1.47082e-07
1.4874e-07
-1.65856e-09
2.58988e-07
-1.71359e-08
7.42693e-07
-5.88074e-07
-1.02152e-07
4.64244e-07
-3.62092e-07
5.41105e-07
2.22971e-08
-1.04153e-06
8.26126e-07
5.06639e-07
-4.51839e-07
2.09031e-08
-1.84105e-07
6.54512e-07
-1.14291e-07
1.91383e-08
-6.07774e-07
6.55546e-07
-4.84185e-08
-6.07128e-07
2.84286e-07
-9.9561e-08
-5.98641e-07
6.18932e-07
-2.02913e-08
-5.09427e-07
6.13172e-07
-1.03745e-07
1.22086e-07
1.79568e-07
-5.86592e-08
1.64937e-07
-2.5822e-08
-3.98038e-07
-2.49416e-07
1.69215e-07
-3.96085e-07
-2.55956e-07
-3.95131e-07
-3.50712e-07
-1.27659e-07
3.10133e-07
3.45415e-08
-2.68923e-08
3.33262e-07
-4.442e-07
-1.0758e-07
5.51779e-07
2.36422e-07
-2.02671e-07
-3.37508e-08
-1.66451e-07
-6.17362e-07
5.58247e-07
8.32444e-07
1.9585e-07
2.03325e-07
3.08569e-07
5.69054e-08
5.52692e-07
1.01821e-07
-1.15071e-07
-1.54016e-07
2.36097e-07
-3.02003e-07
6.59061e-08
-6.33088e-07
4.26365e-07
-5.13829e-08
-4.55128e-07
2.8387e-07
4.44688e-07
-5.47882e-07
-6.43738e-08
3.53709e-08
-4.88596e-07
5.07734e-07
2.00439e-08
2.99809e-07
7.20722e-09
-5.25998e-07
5.73784e-07
-4.77859e-08
3.77988e-08
-5.05593e-07
5.76822e-07
-7.1229e-08
7.66413e-08
3.56781e-07
-4.33422e-07
4.37139e-07
-3.80295e-07
2.18453e-07
9.72656e-08
-3.15719e-07
-5.20096e-08
-9.55574e-08
5.90326e-07
5.79589e-07
3.93427e-08
7.59472e-08
-1.49134e-07
7.31865e-08
5.92757e-07
-2.80585e-07
-4.53699e-09
5.41908e-07
-2.49806e-07
-1.30489e-07
5.34116e-07
7.79196e-09
4.78465e-07
-5.54761e-07
5.69637e-07
-5.06487e-07
1.78914e-08
5.08233e-08
-2.69807e-07
2.6527e-07
5.13825e-07
5.04507e-09
5.68739e-07
-1.74977e-07
5.20405e-09
-4.74121e-07
-5.14518e-07
4.47038e-07
1.92961e-07
3.96652e-07
1.13561e-07
-5.01442e-07
-3.90353e-08
1.1103e-07
1.79177e-07
-2.83418e-08
4.87115e-07
2.67093e-08
2.94401e-07
4.75034e-07
-7.83821e-08
1.15669e-07
1.78732e-07
-6.18278e-07
-3.71686e-08
6.55447e-07
1.10772e-07
-6.99998e-07
-6.70878e-08
-6.25688e-07
-3.74916e-08
3.42612e-07
1.32423e-07
-4.82482e-07
7.73786e-08
4.05104e-07
-6.64723e-07
2.50718e-08
-6.62303e-08
4.11586e-08
1.29946e-08
-1.54139e-07
-8.75722e-07
4.63285e-07
4.12437e-07
-1.2973e-07
-2.4338e-07
-3.64877e-07
5.58249e-07
-3.02646e-07
3.02065e-07
2.24637e-07
-1.20762e-08
7.98911e-08
1.56531e-07
2.18032e-07
-1.31102e-07
2.73328e-07
-1.62261e-07
2.36752e-08
1.38586e-07
-4.72626e-07
-4.10275e-09
4.76729e-07
9.26217e-08
8.61454e-08
-2.68453e-07
4.39877e-07
-3.87112e-07
-6.5577e-07
-6.18992e-08
-5.97642e-07
-1.80868e-07
1.86072e-08
-2.68158e-07
-9.6719e-08
-1.75028e-07
1.32211e-07
4.28172e-08
-2.92044e-07
5.78831e-07
-5.57928e-07
-2.22112e-07
7.83091e-07
-6.34154e-07
9.38384e-08
-1.50652e-07
2.26232e-07
2.45234e-07
1.30421e-07
9.45116e-08
-6.1016e-08
3.70426e-07
-3.71642e-08
-5.5101e-07
7.00382e-07
-1.20675e-07
5.41663e-07
-2.89587e-08
-6.52132e-07
6.81091e-07
-8.25675e-08
6.79205e-07
-5.96637e-07
5.78968e-07
1.99647e-07
2.71275e-08
5.92584e-07
-3.35639e-07
6.74808e-08
-6.69268e-07
1.60304e-07
5.08964e-07
4.2563e-07
4.03222e-08
3.53015e-08
1.89335e-07
7.26238e-08
-6.66886e-07
6.191e-07
5.41001e-07
3.79671e-08
6.83863e-07
-6.94634e-07
-2.9775e-07
-3.78885e-08
5.89809e-07
-3.50597e-08
2.59252e-07
1.11882e-07
2.69594e-07
1.79419e-07
2.66447e-07
-1.32831e-07
2.9461e-07
2.12227e-08
-3.15833e-07
-3.46559e-08
-6.21114e-07
2.92702e-07
-2.1606e-07
6.66737e-07
-6.27395e-07
7.11114e-07
-2.31236e-07
-4.79878e-07
2.41364e-07
1.11082e-07
1.0548e-08
1.8992e-08
-2.954e-08
-2.57172e-07
2.93644e-07
-5.60851e-07
6.12444e-07
-1.74259e-07
1.40508e-07
2.43518e-07
4.01136e-07
-6.10204e-07
6.44453e-07
6.26914e-07
-3.74292e-07
6.76001e-08
-6.07976e-07
-5.89103e-08
-4.17361e-07
5.37162e-07
-2.06854e-07
-3.66696e-08
2.43523e-07
1.40888e-07
6.294e-07
-7.11967e-07
-2.47176e-07
3.13082e-07
2.23997e-09
-4.03691e-08
-5.43687e-07
-7.55349e-07
5.01814e-08
-7.74278e-07
-2.13246e-07
-6.97639e-07
9.05114e-08
1.51727e-07
-1.03484e-06
-4.56233e-08
1.71292e-07
1.72174e-07
1.18117e-07
1.82413e-07
2.57464e-07
-6.64881e-07
2.20175e-07
1.78563e-07
-2.09334e-07
2.25448e-07
5.59827e-07
-1.58467e-08
3.77737e-07
1.18442e-07
5.40466e-07
3.8349e-07
2.89831e-07
4.6515e-07
-9.72962e-08
3.14613e-08
3.38641e-07
-2.95763e-07
-1.16663e-07
-5.48449e-07
2.99033e-07
-3.48892e-07
-6.86305e-07
-5.95818e-07
9.06827e-08
-1.27352e-07
1.36747e-07
1.29919e-07
1.88747e-07
1.5472e-07
4.95412e-08
-5.61709e-07
7.76096e-07
5.80916e-07
3.54324e-07
-4.09029e-07
-1.78009e-07
6.21456e-07
-7.4213e-07
1.48478e-07
-7.44296e-07
-9.0892e-08
-2.7037e-07
7.08447e-07
9.35931e-08
7.92069e-08
-5.4103e-07
7.66478e-07
-3.53071e-07
-3.54029e-07
4.23155e-07
2.38071e-08
-3.86615e-07
7.45392e-07
-3.58778e-07
-4.94805e-08
2.74649e-07
-5.93653e-07
-4.8059e-07
3.46856e-07
-4.22888e-07
-7.03998e-07
7.10687e-07
-4.01544e-07
3.63656e-07
4.95779e-07
-7.47899e-08
-3.42621e-07
5.19645e-08
6.90968e-07
-7.72266e-07
8.97434e-07
-1.65601e-07
1.82178e-07
4.36196e-07
-4.65663e-07
-2.61833e-07
-2.73474e-07
-1.44492e-07
-3.45591e-07
8.04395e-08
9.23605e-08
3.07102e-07
-5.13991e-07
9.77276e-07
-4.15845e-07
5.4554e-07
5.95362e-07
-2.48507e-07
-6.09646e-07
6.05543e-07
7.99334e-08
4.43589e-07
-1.72825e-07
3.0804e-07
-7.08362e-08
1.02816e-07
-1.08535e-06
2.3196e-07
2.13907e-07
-2.78578e-07
5.77611e-07
-3.65793e-07
-2.1109e-07
-1.71369e-07
4.0578e-07
2.49658e-07
3.4687e-07
1.57617e-07
-6.80442e-07
3.08084e-07
-4.39246e-07
5.9955e-07
-4.3017e-07
6.80784e-08
2.23512e-07
-1.2921e-07
4.7608e-07
1.43461e-07
5.64386e-07
-4.98874e-07
6.72918e-07
-1.35131e-07
-7.80093e-08
2.03713e-07
8.52736e-07
1.17617e-07
4.1633e-07
-1.00676e-07
-5.83738e-07
2.36584e-07
-3.29105e-07
1.65536e-08
-1.51685e-07
9.62564e-07
-5.17022e-07
-1.93624e-07
1.67408e-07
1.62171e-07
1.57491e-08
4.58192e-07
-4.12056e-07
7.74209e-08
3.22665e-08
-5.36122e-08
-9.63937e-08
-3.00882e-07
1.30964e-07
-7.95973e-09
2.35757e-07
1.87617e-08
1.03066e-06
-4.82348e-07
2.77427e-08
1.35377e-07
-6.21907e-08
-6.34339e-07
6.41221e-07
2.0189e-07
1.88312e-07
-3.90202e-07
2.73571e-07
-9.93208e-08
-1.64204e-07
-1.36251e-07
-2.4224e-08
-5.25702e-08
1.27437e-07
3.91339e-09
2.42818e-07
-3.84555e-08
3.72385e-07
-2.05275e-07
1.04114e-07
3.0528e-08
3.01732e-07
2.25869e-07
-1.21508e-08
4.64099e-09
3.08612e-07
1.45769e-07
-2.51432e-07
-1.04396e-08
1.43836e-07
-1.01997e-07
1.61279e-07
-5.92813e-08
5.1563e-07
-9.17201e-09
2.26685e-07
5.86043e-07
4.29929e-07
2.87972e-07
2.69108e-07
4.43691e-07
5.86964e-07
-6.95772e-07
-4.97151e-07
-4.0828e-07
3.7983e-07
-3.00988e-08
5.1563e-07
2.82471e-08
-1.54775e-07
-2.21842e-07
9.94066e-08
-6.40357e-08
2.93731e-07
-1.99893e-07
-1.81358e-07
-6.10233e-07
2.54349e-07
-5.55358e-09
-2.72132e-07
-3.18539e-09
-4.80971e-07
-1.45892e-07
1.43713e-07
-2.2637e-08
-9.36211e-08
-3.18753e-07
8.78157e-07
-1.97477e-07
-1.43713e-07
9.36211e-08
1.97477e-07
-1.46971e-08
3.06382e-07
-1.98813e-07
3.18753e-07
-8.78157e-07
2.54349e-07
-2.72132e-07
-4.80971e-07
3.06382e-07
1.65228e-07
-9.22362e-08
-9.36526e-08
4.58824e-07
2.33973e-07
-1.22786e-07
1.22786e-07
-9.36526e-08
-3.48559e-07
-2.54653e-07
2.04241e-07
4.17013e-07
-2.03105e-07
2.85416e-07
1.73369e-07
-2.64406e-07
-4.97657e-08
-1.03351e-07
4.97657e-08
-1.57335e-07
-7.52136e-07
-4.92813e-07
1.00146e-07
-2.02085e-08
-6.91019e-08
2.70992e-07
-1.92113e-07
5.91634e-08
-2.82949e-07
1.1977e-07
-9.65667e-07
-2.00095e-07
-4.5941e-07
1.8076e-07
5.78196e-07
3.52626e-08
-4.49994e-07
-4.7157e-08
2.66285e-07
1.8742e-07
1.38394e-07
-3.401e-08
5.57644e-08
3.96746e-07
-3.57993e-07
-3.8753e-08
3.78179e-07
-6.95676e-08
5.27424e-08
-5.27424e-08
-1.90118e-07
-4.4249e-08
-4.45353e-07
2.56418e-08
9.92429e-08
-2.02594e-07
-5.54408e-08
4.52187e-07
4.33583e-07
-4.54169e-07
1.3165e-07
-2.10911e-07
6.62618e-07
-1.70426e-07
3.09284e-07
-2.71989e-07
1.05086e-07
-4.05241e-07
-9.84854e-08
-5.31992e-08
2.07504e-07
4.08905e-07
5.07105e-07
-4.0205e-08
-5.82803e-08
-5.10737e-08
-3.01249e-07
-3.44874e-08
5.41927e-07
-2.44705e-07
7.79475e-08
-7.79475e-08
1.91467e-07
-3.83504e-08
-1.91467e-07
5.07076e-08
-4.85998e-08
4.85998e-08
-1.00827e-07
-2.23744e-07
-1.61879e-07
1.14921e-08
-1.62144e-07
-1.04963e-06
-6.11646e-08
1.51847e-07
2.69182e-08
3.42109e-08
-3.17347e-07
-6.07944e-07
-3.76218e-08
2.1099e-07
-9.55965e-08
1.13773e-07
-1.31594e-07
-3.46147e-08
-1.41277e-07
4.51079e-07
-4.51079e-07
3.46505e-07
1.14757e-07
-3.26305e-08
-3.97328e-07
-2.56344e-07
3.84932e-08
2.17851e-07
1.59929e-07
1.92084e-08
3.25327e-08
-1.2539e-07
-4.33905e-08
-6.70091e-08
2.72519e-08
-1.09566e-07
-1.32984e-08
-1.14054e-07
-3.4777e-08
3.4777e-08
7.86211e-08
8.26576e-08
2.61833e-07
7.91331e-08
-1.05212e-07
2.60793e-08
-5.67526e-08
2.70896e-08
-6.86212e-08
-5.07105e-07
4.06508e-08
6.86212e-08
-9.21697e-08
2.99872e-08
6.21825e-08
-7.47775e-08
2.19527e-09
1.60458e-07
3.34699e-08
-1.02973e-06
6.06076e-07
4.23658e-07
-3.401e-08
-1.36392e-07
-5.92813e-08
1.36392e-07
5.07643e-08
1.75345e-08
-8.83707e-08
1.35972e-09
-2.06678e-08
-1.35972e-09
2.06678e-08
7.03814e-08
-7.03814e-08
-2.01109e-07
1.3758e-07
-2.99269e-07
-1.32175e-07
-1.00268e-07
1.99511e-07
-2.45495e-08
-1.51044e-07
1.51044e-07
-4.82348e-07
5.71251e-08
4.33905e-08
-1.16041e-07
1.41309e-08
-1.14757e-07
1.66017e-07
-9.67018e-08
2.42985e-08
1.41408e-07
3.88228e-07
3.0148e-07
-3.23717e-08
-1.17971e-07
-1.87854e-07
-1.61879e-07
-1.14706e-07