/*--------------------------------*- C++ -*----------------------------------*\
  =========                 |
  \\      /  F ield         | OpenFOAM: The Open Source CFD Toolbox
   \\    /   O peration     | Website:  https://openfoam.org
    \\  /    A nd           | Version:  9
     \\/     M anipulation  |
\*---------------------------------------------------------------------------*/
FoamFile
{
    format      ascii;
    class       volScalarField;
    location    "0.82";
    object      p;
}
// * * * * * * * * * * * * * * * * * * * * * * * * * * * * * * * * * * * * * //

dimensions      [0 2 -2 0 0 0 0];

internalField   nonuniform List<scalar> 
464
(
4.69732e-17
-9.72402e-17
-1.85998e-17
-1.80404e-17
-1.12259e-16
-1.85516e-17
2.00242e-17
-1.79403e-17
-1.68123e-17
-1.32244e-17
4.83953e-17
1.09288e-16
1.50545e-17
1.11742e-16
2.09003e-17
1.44928e-17
-1.89356e-17
-1.8577e-17
-1.70814e-17
-1.35598e-17
-1.38124e-17
-1.60513e-17
-1.5654e-17
-1.80704e-17
-1.82436e-17
-1.80504e-17
6.74084e-17
-1.69008e-17
5.91917e-17
-1.75006e-17
-1.75882e-17
-5.89624e-18
-4.00988e-18
-1.28792e-17
-1.35609e-17
-1.75868e-17
-1.72851e-17
-1.67616e-17
-1.6587e-17
2.55698e-18
-1.34475e-17
-1.50272e-17
-1.51264e-17
9.45016e-17
8.11458e-17
5.19834e-18
-1.5593e-17
-1.4638e-17
-1.59476e-17
-1.71321e-17
-1.33246e-17
-1.60234e-17
-1.42815e-17
-1.28861e-17
-1.26539e-17
-1.57081e-17
-1.58785e-17
-8.58268e-18
-7.89623e-18
-1.4454e-17
-1.61548e-17
-6.51969e-17
-8.25782e-18
-1.13135e-17
-4.21949e-17
-1.34625e-17
-1.90489e-18
-1.56246e-17
6.56404e-17
-1.19481e-17
-6.08575e-18
-5.5445e-17
4.18563e-17
-1.50326e-17
-1.93583e-17
-1.63322e-17
-4.31868e-18
2.04259e-17
-1.02376e-17
3.87161e-17
-9.74388e-17
-1.86143e-17
-1.55763e-16
-1.88282e-17
-9.73892e-17
-6.88084e-18
-4.58387e-17
-1.85186e-17
-1.74957e-17
-1.6919e-17
-8.6941e-17
-7.0898e-17
-3.04453e-18
9.80317e-17
-1.32908e-18
-5.30091e-18
-1.01974e-17
-1.84416e-17
-5.83817e-17
-1.36117e-17
-1.75601e-17
-1.42194e-17
-1.74893e-17
-9.03602e-18
-1.33664e-17
-1.54437e-16
-1.8796e-17
-3.29752e-18
-8.58588e-17
-1.37832e-17
-3.83906e-18
-1.51368e-17
-9.25677e-19
-4.54146e-17
-1.7031e-17
-1.6936e-17
-1.28834e-16
-1.8524e-17
-7.30021e-17
-1.81059e-17
-1.42799e-17
1.28611e-17
-3.65676e-17
4.45136e-17
-6.01801e-18
-7.13833e-18
-1.39344e-17
-1.60854e-18
-1.50453e-17
-1.38988e-16
-1.86567e-17
1.24271e-16
-1.65001e-17
-1.67221e-17
-1.65348e-17
-1.06795e-16
-1.82098e-17
-1.71054e-17
-1.56553e-17
-1.51198e-17
-1.67663e-17
-4.32706e-18
-4.82357e-18
-1.68968e-17
-1.78576e-17
-2.743e-17
-1.62739e-17
-1.83855e-17
-1.16545e-17
-1.44626e-17
-1.60717e-17
-1.67395e-17
7.22812e-18
-8.89425e-18
-9.28138e-17
-1.56218e-17
-2.21746e-17
-1.54787e-17
-1.08019e-17
-7.23955e-17
-7.73919e-18
-1.50537e-17
-1.36092e-17
-1.40504e-17
-1.36904e-17
-1.72463e-17
-1.15834e-18
-1.40637e-17
-6.8597e-18
-3.39782e-18
3.44538e-18
-5.50297e-17
-2.99798e-17
-1.61352e-17
-9.37687e-18
8.12657e-19
-1.45979e-17
-1.41816e-17
2.21829e-17
-1.69638e-17
-1.43866e-17
2.03375e-18
-2.48723e-17
-2.58506e-17
-1.70922e-17
-2.49277e-17
8.484e-18
8.82945e-18
-1.95731e-17
9.65067e-18
-1.31994e-17
1.07499e-17
-1.43046e-17
-1.37335e-17
-8.31812e-18
-7.61311e-18
-1.3878e-17
-1.32438e-17
-1.97647e-17
-1.18218e-17
-1.2533e-17
-8.73232e-18
-1.29235e-17
-9.97251e-18
9.32587e-18
-1.39802e-17
-1.20492e-17
-9.89894e-18
-8.54937e-18
-4.2767e-17
-1.6165e-17
5.79442e-18
-1.53954e-17
-1.70352e-17
-1.3667e-17
5.72645e-18
-1.11806e-17
-1.3438e-17
6.15665e-17
-6.84406e-18
-2.428e-17
-1.11912e-17
-1.08969e-17
-1.24033e-17
-1.37089e-17
-1.33624e-17
-1.27464e-17
-1.23278e-17
-1.24847e-17
-1.17152e-17
-1.19337e-17
-1.27601e-17
-1.18309e-17
-9.18733e-18
-1.32733e-17
-1.06965e-17
-1.32098e-17
-1.15428e-17
-1.14178e-17
-1.4485e-17
-9.54868e-18
-1.10455e-17
-1.30803e-17
-1.11066e-17
-8.47048e-18
-1.61891e-17
-1.08342e-17
-1.39631e-17
-1.35897e-17
-1.35722e-17
-9.73634e-18
-1.47363e-17
-7.25786e-18
-1.2021e-17
-7.48339e-18
-1.01313e-17
-1.53605e-17
-1.39027e-17
-6.93973e-18
-6.34347e-18
-1.06507e-17
-7.54758e-18
-6.01398e-18
2.27586e-18
-8.57304e-18
1.6971e-18
-5.951e-18
-1.69355e-17
1.51341e-17
-9.72054e-19
-1.56346e-17
-7.77687e-18
-5.69146e-18
6.03845e-18
1.59101e-17
-5.46791e-18
-4.24821e-18
-6.05801e-18
-2.92794e-18
-3.46675e-17
-9.3029e-18
-1.64049e-17
-4.91507e-18
-1.53454e-17
1.63988e-17
-1.5148e-17
-4.55595e-19
-2.9988e-17
-1.62985e-17
-1.10084e-17
-2.22845e-17
-1.26706e-17
-1.56854e-17
-1.39434e-17
-4.1842e-18
-3.05955e-18
4.30471e-18
1.62999e-18
2.10925e-18
-3.76268e-17
1.09962e-17
3.41239e-18
3.53248e-17
1.07433e-16
-1.50933e-17
-3.5824e-18
-4.35978e-18
-1.55853e-17
-6.59414e-17
-4.39757e-18
-1.13068e-17
-1.61885e-17
-7.52034e-18
7.47419e-18
-6.15905e-18
-9.82599e-18
1.51937e-18
-4.1322e-17
-1.79581e-17
1.12501e-17
-1.69869e-17
6.42197e-19
-5.31205e-17
2.61582e-18
-9.51012e-18
-1.46351e-17
-1.51126e-17
3.02037e-17
-1.6526e-17
-2.79522e-17
-1.40501e-17
-3.19176e-17
-1.83954e-17
-7.10199e-18
-1.03098e-17
-1.44339e-17
-1.66204e-17
-1.82537e-17
-8.44243e-18
-1.43902e-17
-1.81394e-17
6.87384e-17
-1.8992e-17
-2.79949e-17
-8.30293e-18
-1.74625e-17
-1.48984e-17
-3.78392e-18
-1.8225e-17
-9.69961e-18
-1.48662e-17
-1.82789e-17
-1.83497e-19
-1.88031e-18
-1.47398e-17
-6.32026e-17
-1.8729e-17
-1.42875e-16
-1.87523e-17
-9.26528e-17
-1.8447e-17
8.07973e-18
-1.86626e-17
-9.78661e-17
6.08703e-17
-1.72508e-17
-1.75625e-17
-1.9769e-17
1.45946e-16
-1.77554e-17
-1.80596e-17
1.21593e-16
2.64558e-17
-1.81912e-17
8.45695e-17
-1.80197e-17
5.32884e-17
-1.51264e-17
4.73789e-17
-1.70245e-17
-2.07793e-18
-1.15106e-17
-1.60857e-17
-6.98313e-18
-1.1541e-17
-4.55849e-18
-1.12769e-17
-1.83091e-17
-2.61946e-17
-1.86636e-17
-1.4044e-17
-1.48134e-17
-1.62543e-17
-1.42742e-17
-1.29119e-17
-1.4789e-17
-1.40209e-17
-1.65567e-17
-1.44302e-17
4.27315e-17
-5.30527e-17
-1.83698e-17
9.67083e-17
-1.78525e-17
6.88953e-18
4.31089e-17
1.22825e-16
-1.74599e-17
6.37229e-17
-1.75772e-17
-2.67882e-17
-1.75392e-17
-1.85686e-17
-1.75632e-17
-1.83257e-17
-4.63616e-17
1.70893e-16
-1.73759e-17
-1.84067e-17
-6.61612e-17
-1.78136e-17
-1.83489e-17
5.50976e-17
1.07204e-16
5.78997e-17
3.00203e-17
3.51678e-17
1.68932e-17
6.55116e-18
-1.5878e-16
-1.88365e-17
-6.2031e-18
-1.69579e-17
-1.83038e-17
-1.05409e-17
-2.37199e-17
-2.24936e-17
-1.72556e-17
-2.10888e-17
-1.75753e-17
-1.39115e-17
-1.52587e-17
-1.26842e-17
-1.33694e-17
-1.61506e-17
-1.36529e-17
-1.56837e-17
-1.46723e-17
-1.51125e-17
-1.39984e-17
-4.32297e-18
1.49106e-17
4.17546e-18
-1.78678e-17
-1.35877e-17
-1.73458e-17
-1.45204e-17
-1.74508e-17
-1.78118e-17
-1.75947e-17
-1.77142e-17
1.62004e-16
1.05381e-16
-1.77628e-17
)
;

boundaryField
{
    back
    {
        type            empty;
    }
    front
    {
        type            empty;
    }
    left
    {
        type            zeroGradient;
    }
    top
    {
        type            zeroGradient;
    }
    right
    {
        type            zeroGradient;
    }
    bottom
    {
        type            uniformFixedValue;
        uniformValue    
        {
            type            scale;
            scale           
            {
                type            squarePulse;
                start           0.3;
                duration        0.3;
            }
            xScale          
            {
                type            constant;
                value           1;
            }
            value           
            {
                type            constant;
                value           15.1;
            }
        }
        value           uniform 0;
    }
}


// ************************************************************************* //
