/*--------------------------------*- C++ -*----------------------------------*\
  =========                 |
  \\      /  F ield         | OpenFOAM: The Open Source CFD Toolbox
   \\    /   O peration     | Website:  https://openfoam.org
    \\  /    A nd           | Version:  9
     \\/     M anipulation  |
\*---------------------------------------------------------------------------*/
FoamFile
{
    format      ascii;
    class       surfaceScalarField;
    location    "0.82";
    object      phi;
}
// * * * * * * * * * * * * * * * * * * * * * * * * * * * * * * * * * * * * * //

dimensions      [0 3 -1 0 0 0 0];

internalField   nonuniform List<scalar> 
663
(
-1.04735e-22
1.24329e-22
-1.95943e-23
2.67015e-23
1.31418e-22
-5.38297e-26
5.38296e-26
6.63828e-25
-3.36436e-25
-3.27393e-25
-5.77164e-23
8.4418e-23
-2.48625e-27
-5.13382e-26
-1.32576e-22
2.7841e-23
2.30631e-25
4.33236e-25
-1.56438e-22
6.56671e-23
9.07709e-23
-1.83163e-23
-1.38122e-22
-2.56614e-23
1.4999e-22
7.0545e-23
-2.51163e-23
-4.54287e-23
-6.69084e-23
6.19248e-23
8.62005e-24
2.80375e-23
-3.06719e-23
2.63445e-24
2.99394e-23
-1.90192e-24
9.56374e-25
-4.85228e-24
3.89591e-24
1.79253e-24
-8.36125e-25
3.72271e-26
-3.72273e-26
1.19294e-24
-4.91697e-25
-7.0124e-25
6.13516e-25
5.7941e-25
-8.85096e-25
-3.30939e-25
1.21604e-24
-1.17296e-24
2.87913e-25
-7.98734e-25
6.57692e-25
1.41042e-25
7.51554e-26
-4.11559e-25
-4.4918e-25
-3.49516e-25
1.54943e-26
-8.73405e-24
8.71855e-24
6.82575e-25
-2.65784e-25
-4.16791e-25
2.64285e-23
-2.6413e-23
1.05976e-24
-9.40917e-25
-1.18847e-25
4.35532e-25
6.24226e-25
-3.12391e-23
2.73568e-23
3.88228e-24
1.28165e-24
-3.25207e-23
2.66059e-23
-2.27762e-23
-3.82966e-24
1.495e-23
1.16558e-23
2.09472e-24
-3.022e-25
7.43454e-25
1.35126e-24
-1.12091e-25
1.4928e-25
1.57547e-25
5.25031e-25
-2.80866e-23
1.4882e-24
2.65984e-23
2.73715e-25
-7.65423e-25
5.29485e-25
-1.11392e-24
5.84439e-25
-6.43473e-25
-1.96968e-23
1.09627e-23
-4.48132e-23
1.85277e-24
-9.70676e-25
1.40048e-24
-4.29801e-25
-1.26269e-24
1.2869e-24
-2.4208e-26
-3.06804e-25
3.06804e-25
-3.77853e-25
4.80585e-25
-2.06874e-25
8.6885e-25
1.24294e-25
-9.93144e-25
-1.19579e-26
6.98546e-26
-5.78957e-26
-9.69139e-25
-3.01215e-26
9.99261e-25
3.62593e-25
-1.33172e-24
-3.04412e-25
1.17325e-24
-1.27514e-24
1.70776e-24
-1.20189e-24
-5.05869e-25
1.98198e-24
-2.74259e-25
5.34351e-26
-6.53249e-26
-1.49272e-25
1.03607e-24
5.25929e-23
-5.3629e-23
1.14102e-24
6.76264e-24
-7.90365e-24
1.32705e-25
-7.29983e-25
5.97278e-25
-1.02662e-22
8.43455e-23
9.74618e-25
-1.00473e-24
-9.59357e-24
3.79231e-24
5.80127e-24
4.311e-25
-7.109e-23
-6.61071e-25
1.02367e-24
4.21502e-25
1.56047e-24
-1.01626e-22
2.95334e-23
-3.10494e-24
-1.74377e-25
-1.08831e-24
-3.90706e-24
3.6245e-23
-3.23379e-23
-4.68124e-25
-8.1403e-24
-1.45325e-24
-1.25505e-22
1.05911e-22
-2.01363e-25
-1.00057e-24
-1.13848e-24
3.21467e-23
6.71995e-23
-9.93462e-23
-2.89509e-25
2.77989e-25
1.15194e-26
1.98727e-23
-2.62373e-23
6.36457e-24
1.08568e-25
4.23449e-26
-1.50913e-25
5.20194e-23
4.52019e-24
-3.37919e-24
7.60581e-23
-2.34652e-23
-1.8097e-25
-9.38392e-25
7.19667e-25
2.18725e-25
-3.81231e-23
3.4216e-23
-1.60952e-24
-3.44264e-23
2.34326e-23
-7.95986e-24
-1.54727e-23
-3.64733e-23
-5.96021e-23
9.60754e-23
1.33755e-23
1.00571e-23
-1.37767e-24
-6.87151e-26
-6.80998e-26
3.46072e-25
2.6835e-24
1.43916e-23
-1.70751e-23
5.24166e-23
-1.19325e-22
-6.0802e-25
-3.30349e-25
2.75356e-25
1.01154e-24
3.87946e-25
-9.95944e-25
5.95889e-24
2.13979e-23
-1.68172e-23
-2.62373e-23
4.23248e-26
1.6164e-23
-1.23716e-23
-1.34137e-23
1.18042e-23
-1.41734e-24
8.11977e-25
6.05362e-25
2.0286e-23
1.06497e-23
-3.09358e-23
1.22604e-24
8.20411e-24
-3.06741e-23
3.33575e-23
-5.84658e-26
7.78163e-25
-5.59127e-25
9.47066e-25
-6.36448e-24
-7.04926e-24
1.2035e-25
1.50945e-25
-2.71294e-25
1.43915e-23
6.50163e-25
-5.2983e-25
-1.14195e-24
-4.15877e-23
9.40043e-23
4.10785e-23
3.49796e-23
-6.09176e-23
8.87587e-23
4.94166e-24
3.66672e-23
-1.63812e-23
7.4902e-23
-3.38235e-23
-1.88882e-23
2.95379e-23
-8.65991e-25
1.5816e-23
6.41955e-24
-6.41957e-24
2.6406e-25
-8.23195e-25
-1.19182e-25
-8.65947e-25
9.85129e-25
-7.0493e-24
-2.71314e-25
2.5519e-25
-6.71979e-25
-4.60586e-25
4.60586e-25
3.98358e-25
-5.17508e-25
-1.75603e-23
-2.04998e-25
1.76547e-24
8.8859e-25
-3.98403e-25
1.27089e-25
6.72333e-25
3.55726e-23
-4.65858e-25
7.29902e-25
4.69188e-25
1.50313e-25
-8.80304e-25
-3.30159e-25
-1.30405e-25
-2.75312e-27
-4.63131e-25
-1.15708e-24
3.33859e-25
-4.24465e-24
2.94802e-23
-2.52355e-23
2.78108e-23
8.85642e-24
7.34225e-24
5.17455e-25
-5.68599e-26
-1.98205e-24
-2.87022e-24
-2.38556e-25
2.35792e-25
3.33142e-23
3.46086e-23
-2.28044e-23
7.48795e-24
-1.37443e-23
6.25631e-24
-2.90278e-25
5.17069e-26
2.6511e-24
-3.4989e-23
-3.30153e-25
-1.90474e-25
-1.39679e-25
2.73079e-24
4.7572e-24
-8.09597e-25
6.19149e-25
-2.54546e-24
3.04255e-23
-2.78801e-23
-1.37517e-23
1.37517e-23
-1.03463e-23
-3.40537e-24
1.11435e-23
-1.64028e-23
1.70751e-23
-1.19682e-24
1.64027e-23
3.42183e-24
-2.231e-23
1.08934e-25
-3.99207e-25
6.95634e-25
-5.86701e-25
-3.29606e-23
2.87161e-23
-2.36826e-24
-1.26341e-23
1.50023e-23
1.18533e-24
-4.89693e-25
2.13735e-24
6.93325e-24
-9.0706e-24
6.30859e-24
-6.30858e-24
3.94032e-24
9.16391e-24
-1.17094e-23
-9.16398e-24
2.85543e-24
4.04003e-24
-1.90267e-24
4.04001e-24
-6.92447e-24
1.03463e-23
-1.15119e-24
5.19678e-25
6.3151e-25
6.92445e-24
-2.88444e-24
4.91863e-25
-4.91863e-25
-1.39622e-25
2.53569e-25
-5.2783e-25
-1.18738e-25
3.72324e-25
-1.96084e-25
-8.59205e-25
1.98156e-25
-2.27677e-25
1.02404e-26
-1.29013e-25
1.24543e-25
-3.5222e-25
-4.4294e-25
4.53195e-25
3.52236e-25
1.24569e-25
-1.20162e-25
1.20162e-25
-2.49189e-25
-1.90268e-24
4.31099e-25
6.8299e-26
-6.82984e-26
-1.39682e-25
-1.17094e-23
-1.32617e-23
1.32617e-23
-2.49189e-25
3.94032e-24
2.44748e-25
1.14961e-24
3.87933e-25
-7.19859e-25
1.10779e-24
4.29757e-25
6.23604e-27
-6.25943e-25
6.19707e-25
-5.14178e-25
9.43935e-25
8.31352e-26
8.93332e-26
-4.70675e-26
-5.78923e-25
2.14787e-24
-2.19496e-24
-3.88507e-24
-8.51185e-25
2.72225e-25
-9.11222e-25
5.06473e-24
-5.30061e-24
2.35886e-25
-4.05407e-25
5.47012e-24
1.23661e-24
-6.51559e-24
1.21495e-24
-2.64846e-24
9.86478e-24
-9.62894e-24
-2.60045e-24
2.82162e-24
-5.08205e-24
-2.61969e-24
4.78275e-24
2.267e-25
-4.22784e-25
-9.42493e-26
-9.53469e-24
8.70462e-26
1.48095e-23
-1.49037e-23
-1.21544e-23
-1.72799e-23
1.07478e-24
1.62051e-23
-1.03123e-23
-7.89177e-24
1.26745e-23
6.91776e-24
-4.78701e-25
7.14492e-25
8.70464e-26
-1.03621e-23
2.09147e-23
-2.68553e-23
5.94062e-24
8.14665e-24
-1.85087e-23
-2.11257e-23
-3.87594e-24
2.50016e-23
-1.25572e-23
2.07038e-23
-2.49673e-23
3.18124e-23
-6.84508e-24
8.35753e-24
-2.22365e-23
-1.27682e-23
1.03336e-24
3.7513e-23
-3.48786e-23
1.13403e-23
2.04721e-23
-1.25364e-24
6.12886e-24
-1.8897e-23
-7.49587e-25
5.50676e-24
3.0668e-23
3.30867e-23
-1.05908e-23
1.67196e-23
1.67396e-25
8.17919e-26
-8.17921e-26
4.89844e-24
2.05347e-23
-1.50279e-23
7.09935e-25
1.78655e-25
8.49164e-26
-7.24375e-24
-2.76348e-23
2.24251e-23
-1.89035e-24
-6.55194e-25
5.73388e-25
1.1869e-23
-4.56925e-23
-5.65232e-25
8.68086e-24
2.92514e-23
-2.05705e-23
4.11204e-23
-9.08529e-25
-3.99348e-25
-1.12968e-23
1.11017e-24
-5.73482e-25
-1.3292e-24
-1.22529e-23
1.51374e-23
-3.45489e-23
-1.89792e-23
-5.55814e-23
2.71446e-23
2.84368e-23
2.54515e-23
-1.42034e-25
8.8546e-25
7.32363e-25
-2.14362e-23
-8.86357e-26
-1.54622e-23
2.61325e-23
1.43372e-25
5.54553e-23
-2.21411e-23
8.6205e-24
-2.53402e-23
-1.78954e-23
-1.66535e-23
-1.24602e-25
3.55251e-25
2.24947e-23
-4.77344e-25
-4.63595e-25
-3.26932e-24
-5.16016e-25
5.16016e-25
-3.72241e-23
1.29436e-24
-7.14941e-25
1.46229e-22
-9.33963e-23
1.2949e-25
-1.2949e-25
5.96558e-25
-7.98558e-25
7.38745e-25
-2.04662e-25
2.04662e-25
1.8044e-25
-8.00291e-26
8.00291e-26
2.86967e-23
-1.65522e-22
3.23257e-23
-6.51979e-25
-1.99919e-26
3.48842e-24
-8.4097e-26
-4.59859e-24
4.11655e-23
-2.49008e-27
4.11655e-23
-2.4901e-27
2.68966e-24
1.28729e-22
7.24924e-26
-1.8672e-26
-3.4734e-23
-3.98349e-26
-1.49282e-23
9.03881e-23
3.72533e-27
-4.09648e-26
-7.58533e-24
6.71935e-24
1.50397e-23
-6.48704e-25
1.69898e-26
6.30267e-26
4.54314e-24
-3.07398e-23
-7.41708e-24
5.43506e-24
-4.54314e-24
-1.76686e-23
-6.69197e-25
1.21232e-23
5.21582e-25
-1.02212e-23
1.36083e-23
-1.64637e-23
-5.45742e-24
9.12252e-25
2.43544e-23
1.75965e-23
-5.17282e-25
1.07009e-24
-2.33941e-25
3.42575e-26
2.5662e-24
-1.56941e-25
1.5694e-25
-1.45796e-25
5.41865e-25
-1.20465e-24
-4.18351e-25
7.99593e-25
2.02377e-24
1.37216e-22
7.24968e-26
1.19085e-22
1.69604e-26
1.11495e-22
-5.96118e-23
4.04912e-23
-4.04912e-23
3.70126e-27
-5.87319e-23
3.70126e-27
-9.43022e-23
-4.38194e-23
2.50084e-25
-2.7006e-25
2.70474e-25
-3.27438e-25
5.69638e-26
-7.69367e-25
-2.26585e-25
1.50397e-23
-1.27776e-25
8.51714e-26
-3.73433e-23
1.21232e-23
1.02212e-23
-4.80939e-26
1.07009e-24
2.3394e-25
7.98118e-25
9.68619e-26
-8.81495e-25
-5.93576e-25
-5.76117e-25
-2.03545e-26
-2.06359e-26
1.48161e-25
)
;

boundaryField
{
    back
    {
        type            empty;
        value           nonuniform List<scalar> 0();
    }
    front
    {
        type            empty;
        value           nonuniform List<scalar> 0();
    }
    left
    {
        type            calculated;
        value           uniform 0;
    }
    top
    {
        type            calculated;
        value           uniform 0;
    }
    right
    {
        type            calculated;
        value           uniform 0;
    }
    bottom
    {
        type            calculated;
        value           nonuniform List<scalar> 8(-1.5812e-22 -5.2833e-23 1.36826e-22 -9.8882e-23 -1.34526e-22 9.92231e-23 1.56428e-22 5.18834e-23);
    }
}


// ************************************************************************* //
