/*--------------------------------*- C++ -*----------------------------------*\
  =========                 |
  \\      /  F ield         | OpenFOAM: The Open Source CFD Toolbox
   \\    /   O peration     | Website:  https://openfoam.org
    \\  /    A nd           | Version:  9
     \\/     M anipulation  |
\*---------------------------------------------------------------------------*/
FoamFile
{
    format      ascii;
    class       volVectorField;
    location    "0.82";
    object      U;
}
// * * * * * * * * * * * * * * * * * * * * * * * * * * * * * * * * * * * * * //

dimensions      [0 1 -1 0 0 0 0];

internalField   nonuniform List<vector> 
464
(
(-3.1802e-15 -1.70424e-15 -2.08163e-34)
(-2.0586e-15 4.0813e-15 0)
(6.9695e-19 6.81208e-19 0)
(1.56635e-17 -6.53585e-19 1.09119e-33)
(-1.47725e-15 3.21155e-15 0)
(6.26073e-19 6.20645e-19 -2.80196e-34)
(-3.03749e-15 -9.33953e-16 1.99312e-33)
(1.49223e-17 -3.01026e-18 0)
(-3.73702e-15 1.35856e-16 -1.3796e-34)
(-3.53781e-15 1.09767e-15 -1.59559e-33)
(-2.52758e-15 -2.21227e-15 1.62716e-34)
(-1.0702e-15 -1.12614e-15 -1.6484e-34)
(-3.30656e-15 -2.86342e-16 2.52881e-35)
(-7.59919e-16 -1.28867e-15 0)
(-1.82471e-17 1.01861e-15 2.66577e-34)
(2.15279e-17 8.80927e-16 -1.01884e-33)
(6.58078e-17 1.19417e-16 0)
(3.23079e-17 6.65663e-17 -4.34837e-34)
(7.83722e-19 -6.16966e-19 -7.87678e-34)
(-2.14116e-17 1.79888e-17 7.90237e-34)
(-1.87444e-17 2.15374e-17 -1.16649e-33)
(4.6498e-18 3.67616e-17 2.25212e-34)
(1.23932e-18 3.59816e-17 -1.18413e-34)
(1.72961e-17 5.19267e-18 0)
(1.1637e-17 4.28964e-19 -1.12071e-33)
(1.68375e-17 8.56187e-18 5.16692e-34)
(-2.5423e-16 4.4412e-16 -2.05618e-33)
(8.6414e-18 -1.31273e-17 -1.00976e-33)
(-3.57231e-16 6.27263e-16 0)
(1.22461e-17 2.50534e-17 0)
(1.57488e-17 2.14878e-17 6.26854e-35)
(3.23452e-16 8.81056e-16 3.36077e-36)
(2.46849e-16 9.8158e-16 1.7687e-36)
(2.8856e-16 5.84949e-16 -7.34669e-34)
(3.46669e-16 4.97749e-16 7.40426e-34)
(2.24906e-17 3.48335e-17 1.08603e-33)
(2.95097e-17 3.53485e-17 -9.90082e-34)
(1.83105e-18 -3.43796e-18 -1.22348e-34)
(6.27141e-18 -1.55365e-17 2.44503e-35)
(8.1249e-17 8.21714e-16 0)
(-1.69649e-17 1.34845e-17 1.17069e-33)
(-6.94301e-18 3.61112e-17 0)
(-5.50856e-18 3.56442e-17 -3.07088e-34)
(-4.136e-16 2.75489e-17 -4.98307e-33)
(-8.13408e-16 -3.58996e-16 5.08516e-33)
(8.36879e-17 9.72971e-16 1.83411e-35)
(9.37506e-18 -3.28137e-17 8.94887e-34)
(-5.82338e-19 -3.29878e-17 -2.41738e-35)
(1.29945e-18 -5.79788e-18 0)
(4.91313e-18 -7.59254e-18 1.18456e-34)
(-1.21745e-17 9.3902e-18 -7.97586e-34)
(5.84931e-18 -2.42318e-17 -5.84625e-35)
(-3.82222e-18 -2.4498e-18 -5.75324e-34)
(-2.60024e-17 -1.73353e-17 -7.26265e-34)
(-2.18574e-17 -2.44185e-17 -2.38239e-35)
(6.961e-18 -3.11446e-17 9.17594e-34)
(1.12701e-17 -3.21455e-17 0)
(4.79056e-17 -2.05943e-17 0)
(3.48252e-17 -2.4881e-17 -4.16995e-34)
(-1.16098e-18 -1.11955e-18 0)
(2.44728e-18 -8.3635e-18 9.58268e-34)
(-1.69158e-15 8.15171e-16 7.02349e-33)
(1.87443e-16 -5.08539e-17 8.55472e-34)
(-1.55493e-17 -7.42594e-18 -6.80741e-34)
(-2.91504e-15 1.01301e-15 -6.34443e-35)
(-2.37009e-17 -1.35033e-17 -8.06622e-34)
(1.82001e-16 -2.04476e-16 -1.55187e-34)
(2.24371e-18 -1.38251e-17 -8.63596e-34)
(-1.84438e-15 -1.55824e-15 -1.82439e-33)
(-1.95614e-17 -2.05234e-17 6.9223e-34)
(5.08751e-17 -4.0028e-17 4.16131e-34)
(-2.33025e-15 1.35695e-15 -3.73255e-33)
(-2.32332e-16 8.68987e-16 0)
(2.16575e-18 -3.63245e-17 8.90381e-34)
(8.72097e-17 -1.06189e-15 -9.82158e-34)
(9.37704e-18 -2.25874e-17 9.79246e-34)
(1.75873e-16 -1.4109e-16 -2.4187e-34)
(-3.61315e-15 -1.64876e-15 -1.96428e-33)
(2.22908e-17 -9.72959e-18 -6.06786e-34)
(-8.59139e-17 8.61062e-16 8.48826e-34)
(-1.43622e-15 2.01562e-15 0)
(4.48508e-18 4.48078e-18 2.68693e-34)
(-3.31222e-16 6.15828e-16 -9.0468e-33)
(1.61955e-18 3.50853e-18 1.14328e-33)
(-8.63005e-16 1.14454e-15 0)
(1.25233e-16 -4.88476e-17 2.73161e-35)
(-1.66387e-15 3.07526e-16 -3.33227e-33)
(4.55427e-18 7.07155e-18 0)
(2.1922e-17 -6.14279e-18 0)
(1.13851e-16 -1.05645e-15 -8.61551e-34)
(-1.04324e-15 7.19055e-16 5.16593e-33)
(-2.18784e-15 2.14457e-15 0)
(3.4429e-16 -4.22621e-16 1.34078e-34)
(-1.45904e-15 -2.75166e-15 -4.94175e-33)
(3.11187e-16 -5.4766e-16 -1.30584e-34)
(2.25239e-16 -1.02862e-16 -4.03658e-34)
(-9.62885e-19 -1.10796e-17 6.08195e-34)
(7.97861e-18 5.42798e-18 -2.46427e-34)
(-3.17082e-17 -5.91881e-16 -3.90186e-33)
(-2.87428e-15 2.0167e-17 -5.06194e-35)
(2.27636e-17 8.02452e-19 0)
(-4.3709e-18 -3.56005e-17 2.63502e-35)
(2.38373e-17 5.40457e-18 0)
(3.54235e-16 7.58444e-16 -3.28858e-36)
(2.97079e-16 7.29361e-16 0)
(-2.1997e-16 5.63335e-16 -7.23388e-33)
(6.59959e-19 8.04138e-19 0)
(2.64556e-16 -2.61648e-16 1.5032e-34)
(-5.63462e-16 1.47486e-16 -5.17147e-33)
(-1.35137e-17 -3.21424e-17 0)
(3.25712e-16 -7.58011e-16 0)
(3.66703e-18 -3.71809e-17 -9.13548e-34)
(2.55712e-16 -3.56391e-16 0)
(-1.23151e-16 -8.77374e-16 2.37714e-33)
(2.2038e-17 -1.17066e-17 3.23444e-35)
(2.42308e-17 1.1353e-18 -1.62284e-35)
(-2.01158e-16 -1.71616e-17 7.08722e-33)
(2.07227e-18 8.26601e-18 1.17969e-33)
(-3.97107e-17 -3.03576e-16 3.13848e-33)
(5.87623e-18 1.52063e-17 -6.69466e-35)
(-6.42588e-18 -3.68144e-17 8.18305e-34)
(-2.36317e-15 -8.16293e-17 -2.6879e-35)
(-2.09701e-15 2.41847e-16 1.49956e-33)
(-2.37804e-15 -7.02542e-16 -1.733e-33)
(9.58725e-17 -6.42037e-17 0)
(3.65198e-16 -8.01403e-16 4.77984e-34)
(-1.80386e-15 -2.04378e-17 -1.51263e-33)
(2.05198e-16 -7.36639e-16 0)
(2.91764e-16 3.82099e-16 0)
(-1.454e-16 1.22939e-16 7.0085e-33)
(1.0929e-18 3.02137e-18 -8.879e-34)
(-1.62343e-16 -1.22465e-16 -5.67282e-33)
(1.14299e-18 -2.68648e-18 -7.8398e-34)
(2.20468e-17 7.27614e-18 0)
(3.07499e-18 2.90037e-17 0)
(-8.61785e-17 -1.56802e-16 -5.62057e-33)
(1.09876e-18 5.72981e-18 -1.7383e-33)
(1.42563e-17 -1.41147e-17 -1.04955e-33)
(-2.71361e-15 4.33997e-16 1.70856e-33)
(-6.80303e-19 9.70422e-18 7.06972e-34)
(1.14948e-18 1.77981e-17 0)
(3.87761e-16 -6.1231e-16 0)
(2.76792e-17 -2.71269e-17 8.96772e-35)
(2.33057e-17 -9.90744e-18 1.0155e-33)
(2.02174e-18 1.32999e-17 1.05151e-33)
(1.44251e-17 -9.82517e-16 -1.86031e-33)
(1.85387e-17 9.53397e-19 0)
(8.08787e-18 1.25941e-17 0)
(-2.3473e-17 -1.22561e-17 -3.20804e-35)
(-2.05922e-18 1.59033e-17 -1.69643e-33)
(1.26711e-17 9.13765e-18 2.99478e-35)
(1.97355e-17 1.94297e-17 9.64649e-34)
(-5.89395e-16 5.28277e-16 5.75041e-34)
(2.69828e-16 -9.47043e-16 -4.80104e-34)
(-1.03678e-16 -4.05568e-16 -4.63439e-36)
(-3.46466e-19 1.91288e-17 -1.0187e-33)
(6.06203e-17 1.69097e-16 0)
(6.07313e-18 1.80625e-18 0)
(-1.9111e-15 -7.03638e-19 -9.8497e-35)
(-6.50154e-16 -2.12614e-16 4.17994e-33)
(-3.42951e-16 -4.26733e-18 0)
(-1.74241e-18 9.70412e-18 -9.12258e-34)
(9.76675e-17 -9.16754e-16 1.63881e-33)
(-1.36284e-18 6.82584e-18 1.83171e-35)
(-3.65783e-18 9.66042e-18 8.25637e-34)
(9.52625e-19 8.54885e-18 0)
(-7.42346e-17 2.24471e-16 -2.05014e-34)
(-8.05844e-18 1.89237e-17 8.54827e-34)
(1.28717e-16 7.4587e-16 5.24604e-34)
(2.61178e-17 -2.80696e-16 3.03793e-34)
(5.5292e-17 -4.52396e-16 -2.72507e-34)
(-1.09607e-15 -1.2562e-16 -2.80737e-33)
(1.71164e-17 -6.28058e-16 -6.91865e-34)
(2.43691e-18 3.5214e-17 -2.23752e-34)
(4.50238e-17 -5.66006e-16 4.82864e-34)
(1.37124e-16 -5.59684e-16 7.34822e-35)
(-9.97196e-18 9.96093e-19 9.05011e-34)
(-1.79075e-17 8.67773e-18 -3.40171e-36)
(-8.38648e-16 5.08975e-16 9.92441e-34)
(1.18837e-16 3.63715e-16 1.44646e-34)
(-1.6461e-17 2.3234e-17 8.4301e-34)
(8.79815e-17 -2.168e-16 -1.23547e-34)
(2.4245e-17 1.31352e-16 0)
(4.26344e-17 2.00055e-16 -1.61277e-33)
(4.0416e-17 4.21275e-16 2.5312e-34)
(4.79366e-17 3.08035e-16 -3.7684e-35)
(3.20097e-17 -1.11946e-16 0)
(2.09437e-17 -7.99426e-17 4.67495e-34)
(1.53558e-17 -3.3673e-16 -1.87511e-33)
(5.36411e-17 -3.24307e-16 -6.10303e-37)
(-1.03896e-17 -2.83425e-17 -7.70706e-37)
(4.44653e-17 -2.06049e-16 -5.84792e-34)
(-5.67624e-19 -9.57342e-18 -1.36499e-33)
(-5.03193e-18 -2.89064e-17 -8.51078e-34)
(9.61322e-18 -1.48779e-17 4.63216e-37)
(3.05308e-18 -5.95294e-18 -4.64683e-37)
(-1.31375e-17 1.62116e-17 -7.8599e-34)
(-1.56078e-17 -3.0584e-17 7.62507e-37)
(2.46116e-17 1.96856e-16 -8.75576e-34)
(-1.34259e-17 -1.68502e-17 6.77827e-34)
(-8.5438e-18 -1.9602e-17 0)
(-3.73927e-18 -8.9947e-19 0)
(-3.92753e-18 -9.70283e-18 0)
(-9.98316e-18 -6.4018e-18 5.9286e-37)
(2.65528e-17 -1.3903e-16 0)
(-2.33464e-18 -1.64268e-17 3.87563e-35)
(-2.03538e-18 -1.79549e-18 0)
(-1.71491e-18 3.49792e-18 -5.03552e-34)
(-2.83555e-18 6.21539e-18 4.59429e-34)
(-6.69401e-18 -3.53778e-16 1.73668e-33)
(3.15484e-19 1.06115e-17 7.54841e-34)
(1.42554e-17 -3.64526e-17 0)
(9.77481e-19 -8.39728e-18 7.41856e-34)
(3.4018e-18 -3.22741e-18 -7.70899e-34)
(-2.02951e-18 2.44822e-18 0)
(2.91136e-17 -2.09584e-16 2.19035e-34)
(1.43751e-17 2.61366e-16 6.67357e-34)
(-1.48267e-18 -6.64975e-18 6.54788e-34)
(-4.12088e-17 3.04075e-16 9.10764e-34)
(-5.59533e-20 6.50719e-18 -3.676e-34)
(2.35441e-17 8.38032e-17 1.19162e-33)
(-4.39922e-18 -8.55623e-19 6.29783e-34)
(-8.89141e-18 -8.09115e-18 -6.78642e-34)
(-2.83257e-17 -9.9054e-18 1.46067e-33)
(-2.45412e-17 9.08607e-19 8.22159e-34)
(-2.84883e-17 7.30829e-18 -7.803e-34)
(-2.91863e-17 9.37308e-19 0)
(-1.75305e-18 1.18026e-17 3.61289e-34)
(-2.47409e-17 5.24937e-18 -2.25979e-35)
(-1.54347e-17 3.0847e-19 -7.20574e-34)
(8.44945e-19 5.33907e-18 7.14209e-34)
(1.51231e-17 1.60288e-17 -9.2911e-35)
(4.77264e-17 2.15247e-17 0)
(9.06701e-17 -2.24018e-17 -4.67601e-34)
(8.38277e-18 1.25081e-17 8.12003e-34)
(2.48419e-17 1.29124e-18 0)
(1.55643e-16 9.18867e-17 -1.33378e-35)
(1.25354e-16 5.22953e-17 3.69953e-36)
(5.56592e-17 9.829e-18 6.22139e-34)
(1.11668e-16 1.01968e-16 8.86404e-34)
(9.67757e-17 2.15873e-18 -6.32747e-34)
(2.26828e-16 1.0901e-16 -7.08276e-34)
(7.32192e-17 3.9416e-17 7.15118e-34)
(1.41906e-16 2.15641e-17 0)
(1.98979e-16 3.4634e-18 0)
(1.15311e-16 1.43656e-16 7.12654e-36)
(2.54615e-16 4.13868e-17 -2.03969e-35)
(-8.75622e-18 7.27979e-18 0)
(2.55068e-16 1.82412e-16 0)
(-3.93315e-18 1.14277e-18 0)
(3.39276e-16 1.94174e-16 -6.14465e-34)
(1.90642e-16 2.11812e-16 -1.68473e-33)
(4.14036e-16 -1.69225e-16 -3.38771e-34)
(2.3949e-16 -9.43901e-16 8.64215e-34)
(3.20454e-16 3.55574e-18 0)
(3.76786e-16 6.559e-17 0)
(5.76278e-18 -1.56842e-17 0)
(-1.55002e-18 -2.60448e-18 -6.64991e-34)
(4.36009e-16 -3.24038e-18 -5.38511e-34)
(4.90056e-16 4.21993e-16 0)
(4.78209e-16 9.81741e-17 5.15338e-34)
(5.09789e-16 -3.48326e-16 7.63805e-34)
(5.23026e-16 -1.10815e-19 4.42861e-34)
(1.45434e-16 8.40886e-16 3.44378e-35)
(5.39272e-16 1.39691e-16 -4.42871e-34)
(-5.31267e-17 6.64667e-16 -7.66247e-34)
(5.35403e-16 -6.80995e-18 -7.98343e-37)
(1.79875e-17 -1.72945e-17 -3.1614e-35)
(-1.52533e-17 1.08812e-15 -4.39319e-34)
(2.89917e-16 6.52473e-16 -3.49045e-35)
(-5.0612e-19 3.25259e-17 -8.34635e-34)
(4.9033e-16 1.77281e-16 0)
(1.41029e-16 -6.4193e-19 2.00049e-34)
(1.2347e-16 1.06212e-15 2.20082e-35)
(-2.14994e-15 -2.34521e-16 4.3833e-34)
(4.2256e-16 -4.96295e-18 0)
(3.03085e-16 2.16776e-16 0)
(8.76351e-18 -7.42193e-18 -3.24453e-34)
(3.21989e-18 3.52321e-18 0)
(-7.69673e-17 -1.03951e-15 -5.37034e-34)
(1.42439e-16 -4.70678e-16 3.51338e-36)
(2.00537e-17 -1.75189e-17 -2.1335e-35)
(1.52165e-18 5.6188e-18 0)
(3.30874e-18 -3.05867e-17 -9.38098e-34)
(-2.00012e-16 9.91484e-16 -7.46388e-34)
(-5.2919e-17 -6.64042e-16 -7.6451e-34)
(9.02924e-18 -9.75253e-18 3.10285e-35)
(-1.27213e-15 -2.58766e-16 0)
(1.63166e-17 -2.59728e-17 0)
(-3.18483e-16 -4.4257e-16 7.8293e-34)
(-5.74197e-16 -5.51542e-16 5.87808e-36)
(-9.77532e-16 -3.02848e-16 -5.17382e-36)
(1.17447e-17 -2.19418e-17 -9.56376e-34)
(-1.61841e-17 -2.2089e-17 1.67344e-33)
(3.3439e-16 -1.86646e-16 3.44403e-34)
(2.91402e-17 -3.88389e-17 3.84879e-34)
(1.93922e-17 -4.70085e-17 0)
(1.91916e-16 -5.2179e-16 5.37948e-35)
(1.54557e-16 -3.30379e-16 1.23824e-34)
(-9.93791e-16 -4.13586e-16 2.78011e-33)
(-2.59082e-16 7.76604e-16 3.12294e-34)
(-6.55808e-16 1.76636e-16 -2.0498e-34)
(-1.1677e-15 1.07563e-16 -4.79789e-33)
(-8.7989e-16 -1.97451e-15 6.2583e-33)
(1.50235e-17 1.2103e-17 4.54231e-34)
(4.30215e-16 -2.96516e-16 -3.23823e-34)
(4.80897e-16 -4.26225e-16 -6.99762e-34)
(3.68183e-18 -9.72675e-19 4.41862e-34)
(-3.17355e-16 -5.23484e-16 -7.6906e-33)
(1.34513e-16 -7.56024e-16 -3.83111e-34)
(-2.05773e-17 -1.55889e-17 -6.92377e-34)
(1.77328e-17 -1.37341e-17 -2.13488e-35)
(3.02197e-16 -9.98891e-17 0)
(-1.44589e-15 7.38153e-17 2.79645e-35)
(4.45551e-16 -5.52985e-16 -8.43087e-34)
(2.8072e-16 -6.45519e-16 0)
(8.07046e-18 -9.50146e-18 -2.54237e-35)
(-5.72608e-16 -7.22911e-16 0)
(9.98323e-18 -2.43448e-18 0)
(-1.30589e-15 2.35592e-16 -1.00731e-33)
(1.01534e-17 3.03645e-17 7.87827e-34)
(1.08114e-16 -1.82e-16 -1.47274e-37)
(-3.2451e-16 -7.82521e-16 3.56271e-33)
(1.17919e-16 -3.71586e-16 -1.26655e-34)
(-1.04121e-15 -1.12184e-17 2.55437e-34)
(-3.99632e-19 -1.92394e-17 -1.7745e-35)
(1.29001e-18 -1.79624e-17 -8.85466e-34)
(-1.57209e-15 4.47635e-17 1.44251e-33)
(1.50122e-17 -2.33404e-17 0)
(-4.34312e-16 -8.25397e-16 -1.68451e-33)
(-1.80615e-17 2.81444e-17 -4.14836e-34)
(-3.88625e-15 1.36011e-15 -7.75466e-34)
(2.7486e-18 2.43374e-19 -4.44476e-34)
(4.9732e-16 -2.54624e-16 6.56809e-34)
(-1.28121e-17 -1.22635e-17 -5.8993e-37)
(-9.74092e-18 -1.594e-17 -8.39724e-34)
(1.06971e-17 3.2688e-17 -7.27912e-34)
(3.69611e-18 -3.8392e-19 -8.70906e-34)
(1.7648e-16 -9.355e-16 -2.74694e-34)
(-1.24921e-17 3.22522e-17 8.90872e-34)
(1.70499e-18 -6.10904e-19 4.52331e-34)
(-3.18892e-15 -3.53646e-15 0)
(-2.12887e-17 -9.78097e-16 -1.59409e-35)
(-1.64777e-16 -1.00988e-15 1.67177e-33)
(4.06672e-16 -4.27737e-16 4.31261e-34)
(1.46237e-17 -9.57154e-18 5.1311e-34)
(3.64644e-19 -1.01e-17 1.42066e-33)
(1.1026e-16 -9.99785e-17 2.41167e-34)
(6.55803e-18 7.69735e-20 1.06604e-33)
(-3.37791e-18 -1.24691e-17 0)
(-1.66485e-18 -2.37063e-17 -2.77816e-35)
(5.45288e-18 -9.23658e-19 -5.14487e-34)
(5.64997e-17 -1.0613e-16 0)
(6.36487e-17 -8.23493e-17 -1.47463e-34)
(-1.57447e-18 -3.4919e-17 -8.47995e-34)
(-6.85117e-16 2.65262e-15 8.51592e-33)
(-1.31137e-19 1.35994e-19 0)
(-1.98955e-16 1.09161e-15 -4.59843e-33)
(1.07815e-19 -7.90816e-20 -4.23047e-34)
(-2.64559e-15 3.52218e-15 0)
(2.72254e-18 1.37272e-18 -5.99559e-34)
(-3.90449e-15 -3.86991e-16 1.78633e-34)
(1.94211e-18 1.92327e-18 2.9958e-34)
(-1.14372e-15 2.35842e-15 0)
(-2.29956e-15 -2.86891e-15 1.51688e-34)
(4.69055e-19 -3.14192e-19 1.08063e-33)
(1.79371e-17 -6.64689e-18 0)
(2.29027e-16 3.39111e-16 0)
(-2.9186e-16 -5.31008e-16 0)
(7.64262e-18 2.09042e-17 5.69767e-34)
(2.20365e-18 -1.01055e-18 0)
(-1.87588e-16 2.32839e-17 1.10003e-32)
(-3.38607e-16 9.08772e-16 -2.06709e-34)
(1.12511e-16 2.51802e-16 0)
(-8.05354e-17 3.66256e-16 7.9438e-34)
(1.97932e-17 2.13986e-18 0)
(-1.24034e-15 -2.65013e-16 2.72466e-33)
(-3.70444e-18 3.38577e-17 1.38663e-33)
(-3.00134e-17 5.40365e-16 5.48058e-33)
(5.76349e-18 2.85168e-17 2.87265e-34)
(2.39841e-17 4.83742e-16 0)
(1.92679e-16 7.20568e-16 -5.59709e-34)
(1.74201e-16 4.96415e-16 0)
(4.48557e-16 5.67835e-16 -2.0226e-34)
(3.57977e-16 2.83031e-16 -1.73694e-35)
(3.59482e-16 7.17789e-16 0)
(4.37076e-16 4.26102e-16 -3.37121e-34)
(1.21845e-17 8.82257e-18 -5.96787e-34)
(3.09471e-17 9.89095e-17 0)
(6.90997e-18 5.86549e-18 0)
(2.26533e-17 1.90275e-17 -4.60672e-34)
(6.6002e-17 6.51889e-17 0)
(1.7309e-18 -6.32742e-18 5.27769e-34)
(-2.28797e-18 -5.9375e-18 1.51306e-33)
(-1.52986e-17 1.29143e-17 -4.03688e-34)
(-9.51076e-18 2.86869e-17 -8.9068e-34)
(-2.0974e-17 2.47154e-17 0)
(1.48173e-17 2.60825e-17 -2.04024e-33)
(-8.69132e-18 2.62111e-17 0)
(-7.42911e-16 4.46366e-16 2.46607e-33)
(-3.25574e-15 3.53341e-15 0)
(1.53473e-18 3.36343e-19 0)
(-2.70181e-15 -3.62009e-15 0)
(3.084e-19 -4.44302e-19 -4.18923e-34)
(-3.99454e-15 -1.6174e-17 1.02709e-33)
(-3.59587e-15 -2.35826e-15 0)
(-2.43557e-16 -1.13979e-15 0)
(7.10623e-20 1.61823e-19 7.90088e-34)
(-7.3271e-16 -2.63192e-15 0)
(-1.57845e-19 -7.3843e-21 -1.01715e-33)
(-3.48023e-15 1.84093e-15 7.3417e-34)
(1.02948e-17 -6.98528e-18 5.629e-34)
(9.00474e-18 2.16006e-18 0)
(2.17009e-17 1.20781e-17 5.28717e-34)
(1.26171e-17 2.96031e-18 0)
(-2.74003e-15 2.58866e-15 0)
(-1.26506e-16 -4.03253e-16 0)
(5.92987e-18 -5.92564e-18 3.31233e-35)
(7.16596e-18 3.01878e-18 5.39402e-34)
(-3.69469e-15 2.17396e-15 -7.28743e-34)
(8.44423e-18 -3.92225e-18 6.03463e-34)
(4.58584e-18 4.4657e-19 6.44867e-34)
(-1.89453e-15 -8.44283e-16 1.95515e-33)
(-5.54755e-17 1.1593e-16 -4.94334e-33)
(-2.04667e-15 -4.13979e-15 -4.05871e-33)
(-6.46461e-16 6.68172e-16 9.39244e-34)
(-2.30823e-18 2.94463e-16 -1.92945e-33)
(1.57062e-17 5.17334e-16 3.79106e-34)
(7.68302e-18 2.5944e-16 -2.73657e-34)
(-4.57284e-16 1.44115e-15 1.05347e-32)
(4.83396e-19 5.64094e-19 6.30341e-34)
(4.5635e-16 4.91436e-16 2.1749e-34)
(1.17158e-16 5.17675e-16 4.24719e-35)
(1.1724e-17 1.36486e-17 1.07309e-33)
(4.41343e-16 2.67239e-16 1.08922e-33)
(1.20046e-17 2.86575e-17 0)
(1.07625e-17 2.95512e-17 3.53958e-34)
(1.94783e-17 1.9484e-17 -5.53475e-34)
(3.8268e-18 5.54702e-18 0)
(4.52294e-18 2.13187e-17 -5.75007e-34)
(5.4053e-17 3.99814e-17 0)
(-1.43809e-19 -4.4316e-18 -3.44656e-34)
(-2.4059e-17 1.12224e-17 3.45761e-35)
(-2.5678e-17 1.6511e-17 -4.56169e-34)
(1.11565e-17 2.29103e-17 1.47967e-33)
(-2.6482e-17 1.71077e-17 -2.61817e-35)
(4.32145e-18 2.82385e-17 -5.38026e-34)
(-4.2776e-18 2.57979e-17 -4.89088e-34)
(-2.09494e-18 2.29313e-17 5.60036e-34)
(-1.03693e-17 5.4537e-18 4.44036e-34)
(1.6804e-16 9.01463e-16 0)
(-3.94489e-15 -1.36998e-15 -5.72617e-34)
(1.61789e-16 1.054e-15 2.97683e-34)
(1.91532e-17 1.21504e-17 0)
(-2.95866e-18 7.51804e-18 -9.00546e-34)
(1.57157e-16 3.34609e-16 0)
(1.83442e-16 2.59794e-16 9.98185e-34)
(1.20051e-18 -1.41368e-18 -5.54031e-34)
(4.71105e-18 -2.48044e-18 -3.53493e-36)
(3.43196e-18 -3.25777e-18 -5.94479e-36)
(1.07533e-19 -2.3921e-19 9.47743e-34)
(-3.48621e-16 -1.27386e-15 0)
(-1.41312e-15 -3.30804e-15 1.13613e-33)
(1.5405e-17 1.6918e-17 -1.34949e-33)
)
;

boundaryField
{
    back
    {
        type            empty;
    }
    front
    {
        type            empty;
    }
    left
    {
        type            noSlip;
    }
    top
    {
        type            uniformFixedValue;
        uniformValue    
        {
            type            scale;
            scale           
            {
                type            squarePulse;
                start           0.3;
                duration        0.3;
            }
            xScale          
            {
                type            constant;
                value           1;
            }
            value           
            {
                type            constant;
                value           (0 -0.7 0);
            }
        }
        value           uniform (0 -0 0);
    }
    right
    {
        type            noSlip;
    }
    bottom
    {
        type            zeroGradient;
    }
}


// ************************************************************************* //
