/*--------------------------------*- C++ -*----------------------------------*\
  =========                 |
  \\      /  F ield         | OpenFOAM: The Open Source CFD Toolbox
   \\    /   O peration     | Website:  https://openfoam.org
    \\  /    A nd           | Version:  9
     \\/     M anipulation  |
\*---------------------------------------------------------------------------*/
FoamFile
{
    format      ascii;
    class       volScalarField;
    location    "0.32";
    object      p;
}
// * * * * * * * * * * * * * * * * * * * * * * * * * * * * * * * * * * * * * //

dimensions      [0 2 -2 0 0 0 0];

internalField   nonuniform List<scalar> 
578
(
15.1898
15.2697
15.202
15.4089
15.098
15.3256
15.1004
15.1247
15.1397
15.2457
15.3434
15.1274
15.4696
15.1103
15.111
15.2157
15.5735
15.3399
15.1282
15.1564
15.4023
15.2067
15.6222
15.3258
15.3334
15.1129
15.4034
15.3857
15.3041
15.1997
15.3903
15.3021
15.188
15.3639
15.1075
15.1822
15.1068
15.1072
15.1886
15.0827
15.0939
15.1272
15.1095
15.0954
15.133
15.0816
15.0944
15.1173
15.2031
15.4229
15.3042
15.4707
15.5638
15.3586
15.4737
15.329
15.6937
15.173
15.4695
15.1764
15.367
15.593
15.3374
15.092
15.4643
15.1168
15.1786
15.353
15.2934
15.1111
15.3506
15.3087
15.467
15.1078
15.34
15.0806
15.1616
15.18
15.4626
15.1736
15.3165
15.1983
15.2243
15.2183
15.1735
15.0878
15.2922
15.3403
15.1067
15.0989
15.3975
15.1414
15.1052
15.4534
15.2919
15.2849
15.4704
15.4743
15.2587
15.1038
15.0954
15.1002
15.4618
15.1749
15.4854
15.1028
15.327
15.079
15.0913
15.0776
15.182
15.1083
15.1661
15.377
15.3156
15.471
15.4278
15.3709
15.1023
15.475
15.1101
15.25
15.1101
15.3863
15.2214
15.0997
15.3046
15.2181
15.1141
15.0929
15.1148
15.0978
15.444
15.1036
15.1051
15.1753
15.1263
15.471
15.4117
15.1174
15.113
15.0963
15.1134
15.3398
15.107
15.1778
15.1034
15.4601
15.1055
15.0965
15.1488
15.038
15.1743
15.1006
15.125
15.4341
15.3506
15.4489
15.1758
15.1364
15.1178
15.0957
15.1163
15.1633
15.3282
15.1003
15.3367
15.1324
15.4599
15.4171
15.1799
15.1278
15.1807
15.1038
15.1305
15.456
15.4493
15.4482
15.1804
15.3048
15.1317
15.2487
15.0956
15.4543
15.1727
15.4744
15.1792
15.1074
15.1361
15.2991
15.1325
15.1563
15.1903
15.1436
15.2186
15.4166
15.4364
15.4377
15.1583
15.141
15.4743
15.4502
15.245
15.4227
15.4386
15.1312
15.1596
15.1213
15.127
15.1789
15.1032
15.1292
15.1061
15.4318
15.1086
15.384
15.1457
15.1427
15.1229
15.1023
15.1215
15.1246
15.1028
15.1608
15.1463
15.1054
15.399
15.4468
15.4473
15.3081
15.2206
15.2462
15.1057
15.0893
15.0893
15.19
15.1524
15.155
15.4666
15.1017
15.1265
15.1198
15.4047
15.1204
15.424
15.1105
15.1104
15.2757
15.188
15.3829
15.4196
15.1027
15.2851
15.1048
15.3146
15.0964
15.3177
15.1377
15.1717
15.2694
15.1
15.139
15.4179
15.4088
15.2838
15.1053
15.1078
15.1016
15.2871
15.1097
15.1102
15.102
15.0998
15.3873
15.4359
15.3852
15.3905
15.1033
15.1632
15.3698
15.1438
15.3908
15.3818
15.4133
15.374
15.107
15.1008
15.1035
15.3414
15.3468
15.1001
15.1066
15.404
15.1732
15.3743
15.3848
15.136
15.093
15.3484
15.3722
15.3736
15.1008
15.3626
15.3413
15.3985
15.3711
15.0968
15.3146
15.361
15.3705
15.1028
15.3468
15.3503
15.1012
15.3578
15.3838
15.1043
15.1063
15.1088
15.3641
15.1065
15.372
15.4017
15.3446
15.435
15.3651
15.1473
15.1206
15.1259
15.3571
15.4531
15.1581
15.3576
15.3683
15.1083
15.3497
15.4119
15.3746
15.3321
15.3959
15.3946
15.4023
15.3443
15.3208
15.3495
15.2492
15.4813
15.096
15.0934
15.0935
15.0944
15.0897
15.0884
15.3356
15.0806
15.0804
15.3456
15.0785
15.0535
15.053
15.3613
15.6892
15.3469
15.0942
15.3465
15.4445
15.3521
15.3858
15.4265
15.1783
15.0951
15.4548
15.1123
15.4198
15.1765
15.4824
15.4419
15.0932
15.0904
15.5958
15.4741
15.095
15.0941
15.3871
15.3694
15.4113
15.7092
15.0803
15.0763
15.0948
15.4841
15.4955
15.4551
15.1005
15.2437
15.6048
15.3386
15.3445
15.5506
15.336
15.1845
15.3234
15.6586
15.2972
15.4912
15.4741
15.3625
15.5445
15.3842
15.3913
15.5208
15.3429
15.3238
15.0975
15.4748
15.4087
15.1086
15.1117
15.106
15.4243
15.1012
15.3269
15.1273
15.1083
15.1013
15.0999
15.0886
15.3213
15.0921
15.0977
15.1608
15.3476
15.1418
15.4903
15.0967
15.1066
15.0922
15.3723
15.096
15.4338
15.4344
15.4006
15.4509
15.3674
15.1392
15.3705
15.3493
15.1825
15.1878
15.3655
15.1194
15.5106
15.1155
15.5073
15.1202
15.3763
15.2897
15.5196
15.3416
15.324
15.2759
15.191
15.3671
15.0949
15.3439
15.1776
15.0943
15.1827
15.402
15.1029
15.3472
15.4001
15.1943
15.4494
15.3376
15.1152
15.0995
15.1876
15.0408
15.189
15.345
15.3535
15.248
15.35
15.4484
15.097
15.3389
15.5833
15.4831
15.1191
15.5821
15.1704
15.1026
15.4727
15.4392
15.0972
15.3877
15.0998
15.6412
15.6433
15.112
15.3915
15.0972
15.3971
15.3358
15.4694
15.0977
15.4337
15.0975
15.4835
15.3659
15.2681
15.3767
15.0797
15.0956
15.3732
15.1116
15.0834
15.3208
15.4886
15.3446
15.5964
15.342
15.0982
15.1
15.3855
15.3489
15.4369
15.0901
15.301
15.0593
15.1199
15.4087
15.3596
15.3509
15.1919
15.3288
15.103
15.189
15.4951
15.4969
15.3314
15.1944
15.1036
15.2932
15.3563
15.3396
15.2635
15.1448
15.0981
15.4147
15.1219
15.1002
15.0933
15.481
15.3507
15.1497
15.3467
15.3798
15.4496
15.463
15.0586
15.0938
15.4899
15.4933
15.3254
15.4851
15.3471
15.5284
15.5267
15.1001
15.2498
15.513
15.3271
15.2734
15.3349
15.177
15.1928
)
;

boundaryField
{
    front
    {
        type            empty;
    }
    back
    {
        type            empty;
    }
    bottom
    {
        type            uniformFixedValue;
        uniformValue    
        {
            type            scale;
            scale           
            {
                type            squarePulse;
                start           0.3;
                duration        0.3;
            }
            xScale          
            {
                type            constant;
                value           1;
            }
            value           
            {
                type            constant;
                value           15.1;
            }
        }
        value           uniform 15.1;
    }
    left
    {
        type            zeroGradient;
    }
    top
    {
        type            zeroGradient;
    }
    right
    {
        type            zeroGradient;
    }
    inner_arc
    {
        type            zeroGradient;
    }
}


// ************************************************************************* //
