/*--------------------------------*- C++ -*----------------------------------*\
  =========                 |
  \\      /  F ield         | OpenFOAM: The Open Source CFD Toolbox
   \\    /   O peration     | Website:  https://openfoam.org
    \\  /    A nd           | Version:  9
     \\/     M anipulation  |
\*---------------------------------------------------------------------------*/
FoamFile
{
    format      ascii;
    class       surfaceScalarField;
    location    "0.32";
    object      phi;
}
// * * * * * * * * * * * * * * * * * * * * * * * * * * * * * * * * * * * * * //

dimensions      [0 3 -1 0 0 0 0];

internalField   nonuniform List<scalar> 
816
(
-1.29e-10
-8.98e-10
1.03e-09
-4.39e-11
-1.64e-09
1.68e-09
1.56e-09
-1.69e-09
1.99e-09
-1.98e-09
-7.54e-13
1.03e-09
-1.03e-09
2.15e-09
3.8e-10
-2.53e-09
1.07e-09
-1.07e-09
-1.01e-09
1.01e-09
-2.04e-09
-1.6e-10
2.2e-09
-7.01e-10
6.57e-10
3.19e-09
-1.03e-09
2.51e-09
-1.78e-09
-7.37e-10
4.1e-10
1.76e-09
-2.17e-09
2.47e-09
-2.2e-09
-2.66e-10
2.49e-09
-2.1e-09
-3.89e-10
-1.66e-09
2.85e-09
-1.19e-09
7.65e-10
7.08e-10
-1.47e-09
-2.37e-09
1.2e-10
2.25e-09
2.84e-10
2.23e-09
1.04e-09
-3.08e-09
1.47e-09
5.12e-10
2.74e-10
-1.93e-09
1.4e-09
-2.71e-10
-1.13e-09
-1.37e-09
-6.87e-10
2.06e-09
-1.47e-09
1.02e-10
-2.1e-09
4.69e-10
1.63e-09
-1.77e-09
1.94e-09
-1.72e-10
2.22e-12
4.84e-10
-4.87e-10
5.74e-10
-2.21e-09
8.94e-10
1.96e-09
-1.17e-09
1.17e-09
-1.42e-09
1.8e-09
3.24e-09
-2.34e-09
-2.33e-09
1.13e-09
1.2e-09
2.02e-10
2.28e-09
-4.49e-10
2.41e-09
2.11e-10
2.26e-09
-3.45e-10
-1.75e-09
-3.05e-09
1.12e-09
1.93e-09
6.55e-10
3.78e-10
-8.22e-10
-7.22e-10
6.61e-10
-2.1e-09
1.92e-12
-1.42e-09
-4.31e-10
1.85e-09
6.59e-10
4.11e-10
-8.68e-10
1.99e-09
-2.15e-09
-1.49e-09
-1.68e-09
-8.77e-11
-4.8e-11
5.62e-10
-5.14e-10
2.04e-09
-1.63e-09
1.28e-09
1.15e-10
-8.88e-10
-1.44e-09
1.15e-09
9.6e-10
6.91e-10
-2.31e-09
1.62e-09
-2.71e-10
-1.42e-09
2.6e-09
-1.84e-09
8.2e-10
-1.27e-09
2.3e-10
-4.1e-10
1.12e-09
1.24e-09
-1.12e-09
-6.01e-11
-2.14e-09
-1.19e-09
-1.49e-09
2.68e-09
-2.16e-09
5.88e-11
2.14e-09
1.1e-09
1.43e-09
1.76e-09
-7.97e-10
2.77e-09
-1.98e-09
4.75e-10
1.77e-09
-2.24e-09
-3.41e-10
-1.47e-09
1.05e-09
-2.23e-09
1.77e-09
9.36e-10
-2.7e-09
9.91e-10
1.84e-09
-2.83e-09
8.83e-10
-8.83e-10
-1.2e-09
2.24e-09
-1.71e-09
5.13e-10
2.81e-09
3.59e-10
6.68e-10
-1.03e-09
-2.3e-09
1.7e-10
2.13e-09
-8.98e-10
8.52e-10
-8.52e-10
-9.95e-10
9.95e-10
1.12e-09
-2.4e-09
1.28e-09
-7.39e-10
-1.99e-10
5.62e-10
-1.94e-09
2.63e-09
-2.44e-11
-1.73e-09
1.75e-09
-1.53e-09
-4.49e-11
1.58e-09
7.68e-10
-1.06e-09
2.18e-09
-9.89e-12
-1.88e-09
1.89e-09
1.59e-09
1.14e-09
-2.73e-09
-1.99e-09
5.51e-11
1.78e-09
-1.83e-09
-1.09e-09
-1.21e-09
-7.01e-10
-1.67e-10
2.45e-09
2.23e-11
-2.18e-09
-1.48e-09
1.96e-09
-2.33e-09
1.7e-09
6.24e-10
1.48e-09
1.28e-09
8.24e-10
-2.33e-10
2.49e-09
-1.54e-09
8.22e-10
-7.39e-10
-8.02e-11
-8.02e-10
9.38e-10
1.47e-09
2.24e-09
1.94e-09
-2.61e-09
6.7e-10
-7.93e-10
-1.53e-09
-5.52e-10
-1.43e-09
-3.28e-10
-1.9e-09
2.23e-09
6.79e-11
-1.6e-09
2.29e-09
-1.01e-09
-9.53e-11
1.72e-09
-1.15e-09
1.54e-10
4.77e-10
1.6e-09
-1.22e-10
-2.97e-10
1.88e-09
-2.12e-09
2.4e-10
-1.19e-09
-1.11e-09
-2.02e-09
1.47e-09
5.52e-10
-1.88e-09
-3.53e-10
2.25e-09
-4.46e-11
-2.2e-09
2.26e-09
-3.87e-10
-6.75e-10
2.26e-09
-5.65e-10
5.65e-10
2.09e-09
1.62e-10
2.81e-11
-2.05e-09
2.02e-09
9.17e-12
-1.79e-09
-2.08e-09
-5.25e-10
1.56e-09
-1.6e-09
1.27e-11
-6.62e-10
6.49e-10
3.87e-10
1.57e-09
3.09e-11
1.46e-09
-1.49e-09
-6.61e-10
-1.36e-10
2.07e-09
1.8e-10
1.25e-09
-1.43e-09
-1.12e-09
7.33e-10
3.85e-10
-2.02e-09
1.66e-09
-2.36e-09
-9.4e-11
2.46e-09
-8.06e-10
8.06e-10
8.2e-10
9.37e-11
4.72e-10
-2.27e-10
-2.3e-09
2.53e-09
-7.41e-11
-1.6e-09
2.29e-09
-1.71e-09
-4.83e-10
2.02e-09
-1.54e-09
6.68e-10
2.34e-10
-2.6e-09
-1.91e-09
-6.62e-10
-2.03e-09
1.94e-09
-5.65e-10
5.65e-10
-1.84e-09
-5.35e-10
1.7e-09
-1.93e-09
-1.22e-09
7.41e-10
-9.56e-10
3.33e-09
-2.37e-09
-1.93e-10
-1.84e-09
7.22e-10
-7.13e-10
-8.01e-10
8.29e-10
9.1e-11
-5.65e-10
4.74e-10
1.2e-11
1.69e-09
1.7e-09
9.79e-10
-1.14e-09
2.84e-09
-2.16e-09
-1.09e-09
8.98e-10
8.04e-12
-1.48e-09
1.47e-09
7.43e-10
-7.31e-10
2.41e-10
-1.87e-09
1.63e-09
1.53e-09
-1.73e-09
1.67e-09
-3.29e-11
-2.02e-09
-1.12e-09
-1.27e-09
-9.81e-10
-1.04e-09
-2.25e-09
-2.2e-10
2.47e-09
-5.56e-10
5.64e-10
-2.19e-09
-2.26e-10
2.42e-09
2.01e-09
-7.15e-11
-1.82e-09
-1.1e-10
-6.57e-10
-2.03e-09
3.2e-09
-1.17e-09
-7.41e-10
6.59e-10
8.24e-11
-7.33e-10
6.59e-10
-2.05e-09
2.04e-09
1.15e-11
1.9e-09
-1.78e-09
-1.14e-10
-1.22e-09
2.81e-09
-6.05e-10
-2.46e-10
-2.98e-09
1.86e-09
9.83e-10
1.1e-10
-2.85e-11
-1.86e-09
-6.37e-11
1.32e-09
-2.64e-09
-9.25e-11
2.18e-09
3.08e-09
-1.22e-09
1.48e-09
1.24e-09
3.51e-10
4.1e-10
-4.74e-10
2.19e-09
1.52e-09
1.65e-10
-1.35e-09
1.44e-09
8.27e-10
-8.98e-10
-8.41e-10
7.31e-10
-1.34e-09
-2.08e-09
3.34e-09
-1.25e-09
-5.56e-10
-6.05e-10
-5.65e-10
-4.09e-10
-1.47e-09
-1.09e-09
8.27e-10
-8.41e-10
-6.92e-10
-6.52e-11
1.3e-09
-1.23e-09
7.43e-10
1.12e-09
8.14e-11
6.59e-10
6.49e-10
-5.64e-10
-1.37e-10
-8.01e-10
-1.61e-09
-1.06e-09
2.67e-09
1.91e-09
-1.77e-10
-1.94e-09
4.38e-11
1.76e-09
1.45e-10
-4.06e-10
2.62e-10
-5.14e-10
1.81e-09
-2.22e-09
9.49e-12
2.67e-09
-2.61e-09
4.06e-10
-4.72e-10
6.59e-10
6.58e-10
-1.92e-10
3.76e-10
-9.63e-10
-2.66e-10
-2.22e-09
3.35e-10
1.22e-09
2.11e-09
1.59e-09
-2.04e-09
3.26e-09
-2.12e-09
5.08e-10
4.1e-10
-8.29e-10
-1.14e-09
-1.78e-09
2.92e-09
7.13e-10
-3.1e-09
-1.23e-09
3.34e-09
-1.27e-09
3.17e-09
2.12e-09
8.38e-11
-3.82e-10
3.82e-10
-7.23e-10
-1.52e-09
2e-09
1.98e-09
1.35e-09
-5.36e-10
5.36e-10
-6.58e-10
-4.86e-10
-6.67e-10
5.35e-10
1.33e-10
6.67e-10
-1.32e-10
-3.35e-10
-7.23e-10
-2e-09
-1.84e-09
3.61e-10
-3.38e-09
1.21e-09
2.17e-09
-1.26e-09
2.08e-10
-2.02e-09
3.33e-09
-1.32e-09
-3.26e-09
1.24e-09
9.83e-10
-1.89e-09
3.1e-09
1.67e-09
-2.89e-09
-2.21e-10
1.44e-10
1.03e-09
-1.56e-09
2.08e-09
-1.03e-09
-1.54e-09
2.58e-09
-2e-09
3.37e-09
-1.29e-09
2.3e-09
1.09e-09
2.29e-09
2.68e-09
-2.64e-09
-2.64e-09
1.35e-09
2.07e-09
-3.3e-09
2.03e-09
-9.75e-10
1.83e-09
-3.68e-10
-1.92e-09
-9.77e-10
1.13e-09
2.21e-09
3.31e-09
-5.21e-10
-1.43e-09
1.95e-09
-5.87e-10
5.87e-10
-5.27e-10
5.27e-10
6.5e-10
-6.5e-10
6.3e-10
-6.3e-10
6.55e-10
6.59e-10
1.95e-09
-2.65e-09
7e-10
-8.68e-10
2.07e-09
1.24e-09
8.66e-10
-8.66e-10
-8.02e-10
8.44e-10
-8.44e-10
-2.96e-09
1.12e-09
1.84e-09
-4.1e-10
-3.2e-09
1.99e-09
1.21e-09
-5.82e-10
5.82e-10
-2.73e-09
1.1e-09
1.63e-09
-9.71e-10
-1.91e-09
-1.71e-09
1.24e-09
-8.14e-10
1.75e-09
-6.26e-10
-2.43e-09
-2.54e-09
1.28e-09
6.83e-10
6.29e-11
1.04e-10
1.08e-11
-1.48e-09
-3.13e-09
1.77e-09
1.37e-09
-2.01e-09
-9.66e-10
-6.8e-10
-5.57e-11
8.84e-10
-2.43e-09
1.01e-09
-1.33e-09
-1.8e-09
3.16e-09
-9.14e-10
-1.71e-09
6.69e-10
1.04e-09
-1.42e-10
-2.05e-09
5.03e-11
2e-09
-7e-10
4.84e-10
-4.84e-10
-3.01e-11
-1.16e-09
-1.06e-09
-1.39e-09
2.21e-09
2.27e-09
-6.38e-10
-2.12e-09
-1.57e-09
8.8e-11
2.79e-09
-1.46e-09
-9.69e-10
-2.1e-09
-1.49e-09
-2.08e-09
-3.69e-10
-1.36e-09
-5.82e-10
-1.3e-09
-9.6e-10
-1.74e-09
-2.46e-09
-5.49e-10
2.02e-09
-1.7e-09
-1.56e-09
-1.98e-09
1.78e-09
-2.09e-09
3.17e-10
-7.06e-10
-2.14e-10
-1.75e-10
1.79e-09
-7.06e-10
-4.41e-10
2.68e-09
3.83e-10
-3.06e-09
3.05e-09
7.74e-10
1.08e-09
-1.26e-09
2.14e-09
6.55e-10
-6.55e-10
1.86e-09
3.78e-10
9.37e-10
1.93e-10
-1.69e-09
1.88e-09
-2.52e-09
2.54e-09
1.35e-09
1.16e-09
-2.06e-09
9e-10
3.73e-11
2.71e-09
-8.72e-10
1.29e-09
2.09e-09
-1.71e-09
7.56e-11
4.84e-10
-1.65e-09
7.04e-10
8.88e-10
8.45e-10
1.49e-09
-1.68e-09
2.39e-10
-1.29e-09
8.77e-11
1.86e-09
-1.59e-09
1.67e-09
5.58e-10
-1.44e-09
7.26e-10
-5.73e-11
7.78e-10
-2.49e-09
-1.24e-10
-2.91e-09
3.98e-10
-8.45e-11
5.78e-10
2.42e-10
-1.74e-09
2.24e-09
2.02e-10
-2.25e-09
-4.87e-10
7.26e-10
1.6e-09
-1.21e-09
-1.63e-09
-1.02e-09
1.51e-09
9.8e-10
-1.72e-09
5.78e-10
7.74e-10
-2.23e-09
-2.4e-09
2.34e-09
-6.45e-12
-1.37e-09
-1.08e-09
1.08e-09
6.8e-10
-2.14e-09
-1.1e-09
1.1e-09
-1.78e-09
-2.23e-09
-1.78e-09
-1.82e-09
1.03e-09
9.93e-10
2.11e-09
-6e-10
-1.49e-09
1.57e-09
1.9e-09
-2.37e-09
1.16e-09
-1.34e-09
1.41e-09
-1.69e-09
-1.11e-09
-9.43e-10
-1.09e-09
-3.8e-10
-1.72e-09
-5.18e-10
9.87e-10
-1.31e-09
1.25e-09
2.69e-10
1.92e-09
2.88e-11
-2.18e-09
-2.08e-09
-1.12e-09
-1.95e-10
-1.77e-09
-4.02e-11
-1.22e-10
-3.21e-10
-1.04e-09
9.35e-10
2.19e-09
-2.4e-10
-1.45e-09
3.82e-11
1.33e-09
1.76e-09
-1.78e-09
-1.73e-09
-1.84e-09
-1.92e-09
-7.37e-10
5e-10
2.86e-10
)
;

boundaryField
{
    front
    {
        type            empty;
        value           nonuniform List<scalar> 0();
    }
    back
    {
        type            empty;
        value           nonuniform List<scalar> 0();
    }
    bottom
    {
        type            calculated;
        value           nonuniform List<scalar> 
12
(
9.38e-10
2.23e-09
1.88e-09
1.92e-09
1.11e-09
2.62e-10
2.66e-10
1.85e-09
2.29e-09
2e-09
1.13e-09
9.2e-10
)
;
    }
    left
    {
        type            calculated;
        value           uniform 0;
    }
    top
    {
        type            calculated;
        value           nonuniform List<scalar> 8(-2.11e-09 -2.11e-09 -2.09e-09 -2.09e-09 -2.09e-09 -2.11e-09 -2.11e-09 -2.09e-09);
    }
    right
    {
        type            calculated;
        value           uniform 0;
    }
    inner_arc
    {
        type            calculated;
        value           uniform 0;
    }
}


// ************************************************************************* //
