/*--------------------------------*- C++ -*----------------------------------*\
  =========                 |
  \\      /  F ield         | OpenFOAM: The Open Source CFD Toolbox
   \\    /   O peration     | Website:  https://openfoam.org
    \\  /    A nd           | Version:  9
     \\/     M anipulation  |
\*---------------------------------------------------------------------------*/
FoamFile
{
    format      ascii;
    class       surfaceScalarField;
    location    "1.56";
    object      phi;
}
// * * * * * * * * * * * * * * * * * * * * * * * * * * * * * * * * * * * * * //

dimensions      [0 3 -1 0 0 0 0];

internalField   nonuniform List<scalar> 
1363
(
-2.76496e-07
-1.63545e-07
4.40041e-07
-1.62298e-07
2.61998e-07
-9.96991e-08
9.95514e-07
-6.74952e-07
-3.20562e-07
-1.45424e-07
3.81241e-07
-2.35817e-07
8.59117e-07
1.36398e-07
5.81877e-07
-7.85611e-08
-5.03315e-07
-3.57775e-07
3.57775e-07
2.764e-07
3.05476e-07
-2.5621e-07
2.7697e-07
-2.07598e-08
1.14224e-08
-2.67632e-07
-3.41687e-07
3.07283e-07
3.44047e-08
4.13651e-07
-4.91161e-07
7.75102e-08
2.83755e-07
-4.29179e-07
-4.20827e-07
3.93907e-07
2.69192e-08
1.41661e-07
2.7199e-07
-2.07091e-07
4.47921e-08
9.23246e-08
-3.7579e-07
2.83465e-07
-1.77992e-07
-9.85034e-08
4.70289e-07
1.38819e-07
-6.09108e-07
-7.95531e-08
7.95531e-08
1.1843e-07
-2.61051e-08
-1.49088e-07
-3.42073e-07
6.35294e-07
-3.71617e-07
-2.63677e-07
-8.03156e-08
5.41366e-07
-4.61051e-07
-1.92982e-07
-1.48705e-07
3.60985e-07
-4.41301e-07
8.0952e-07
-7.28848e-07
-8.06714e-08
1.49163e-07
4.86131e-07
-4.95715e-07
6.30258e-07
-1.34543e-07
-6.84092e-08
-2.41298e-07
3.09708e-07
-1.97066e-07
9.35738e-08
1.03493e-07
2.25206e-08
7.86999e-07
9.76132e-08
-5.93328e-07
-6.75993e-07
1.06274e-07
5.69719e-07
7.17909e-07
-6.12634e-07
-1.05275e-07
-3.3948e-07
-6.28312e-07
9.67792e-07
2.05393e-07
-3.73207e-07
1.67814e-07
2.62078e-07
-4.67705e-08
-2.15307e-07
-2.15287e-07
4.2068e-07
7.8745e-08
4.62621e-07
5.96086e-07
-5.82738e-07
-1.33485e-08
9.77262e-07
-2.30605e-07
-7.46657e-07
-3.71248e-07
4.49993e-07
-1.79086e-07
-1.78689e-07
2.20629e-07
1.37145e-07
5.25466e-07
-2.34131e-08
-5.02053e-07
-6.07839e-07
8.02644e-08
5.27575e-07
-1.65318e-08
-6.59461e-07
-2.38701e-08
6.19956e-07
-1.84419e-07
-2.36408e-07
5.32065e-07
-6.17763e-08
-2.69872e-07
-1.01745e-07
-9.84195e-07
6.44715e-07
6.17342e-07
-2.42103e-07
-3.75239e-07
3.53146e-07
-3.41724e-07
1.97325e-07
-3.03361e-07
1.06036e-07
-2.43373e-07
2.43373e-07
2.40188e-09
3.50744e-07
-1.9002e-07
-5.3353e-08
2.37114e-08
3.12072e-07
-3.35784e-07
-2.14199e-07
1.4579e-07
8.06005e-07
-6.86706e-07
-1.19299e-07
-7.75574e-08
1.83831e-07
-4.70675e-07
3.07129e-07
2.59646e-07
2.43169e-09
1.3847e-07
-1.77942e-08
-1.20676e-07
7.71571e-08
6.49744e-07
-5.79271e-07
-7.04736e-08
8.82867e-07
-6.85542e-07
6.27034e-07
-2.94922e-07
-3.32113e-07
1.63043e-07
9.89547e-08
-1.87197e-07
2.02637e-07
-1.544e-08
-1.8057e-07
1.8057e-07
-1.14602e-08
-2.29838e-07
4.9416e-07
1.23182e-07
2.75777e-08
-1.07131e-07
5.3121e-08
2.64321e-08
3.12029e-08
-2.37201e-07
4.01349e-08
-1.19771e-07
-8.73197e-08
4.45432e-08
1.33112e-07
-1.77655e-07
4.54559e-07
-2.1612e-07
2.56388e-08
1.90481e-07
1.86995e-08
2.29817e-08
-4.07759e-08
-9.82271e-07
9.43821e-07
3.84498e-08
-7.48623e-08
9.85737e-08
-4.97599e-09
4.5937e-08
-4.0961e-08
9.4058e-08
2.99849e-07
-1.43782e-07
-7.23377e-08
2.11961e-07
7.65301e-07
2.92902e-07
-4.70682e-08
-2.45834e-07
-3.51486e-07
3.53888e-07
-2.66997e-07
-3.63641e-08
-2.84265e-07
3.90301e-07
-2.04256e-07
1.4291e-07
6.13467e-08
4.69707e-07
-7.00312e-07
4.02978e-08
-4.52738e-08
-3.77084e-07
4.21627e-07
4.54474e-08
2.11325e-07
-4.59787e-09
-2.06727e-07
4.1734e-08
-3.9322e-07
-7.57744e-08
4.47949e-07
-3.48857e-07
6.45914e-08
-1.06333e-07
2.52123e-07
1.59015e-08
5.09564e-07
-4.92675e-08
6.31061e-07
-5.81794e-07
5.63905e-08
5.93354e-07
4.28468e-08
-6.22118e-07
1.07678e-07
7.75189e-07
6.99228e-08
-7.55465e-07
-1.45336e-07
-5.95725e-08
-1.27624e-07
5.40377e-08
2.53245e-07
2.92902e-07
8.12615e-08
-3.30631e-07
2.4937e-07
3.10259e-07
7.09821e-08
-1.62632e-07
2.08079e-07
1.46236e-07
-7.3412e-07
5.87883e-07
-2.08079e-07
1.01745e-07
-8.66076e-07
3.52075e-08
8.30868e-07
-3.71248e-07
-1.35778e-07
1.99269e-07
-1.86082e-07
-5.11195e-08
-2.69872e-07
5.47607e-07
-4.49993e-07
-5.47607e-07
3.83047e-07
1.64559e-07
-9.84195e-07
-3.11728e-07
4.50547e-07
3.11728e-07
-3.10367e-07
-1.36136e-09
-4.50547e-07
5.30812e-07
-6.30049e-07
6.13517e-07
6.30049e-07
-5.73658e-07
3.10367e-07
-3.3378e-07
9.48988e-07
-8.41309e-07
-5.30812e-07
5.73658e-07
-7.71387e-07
8.41309e-07
7.71387e-07
-7.95257e-07
-6.13517e-07
7.95257e-07
-1.8174e-07
3.3378e-07
-3.83047e-07
-6.40743e-08
1.25729e-07
-3.1181e-07
3.1555e-07
-3.915e-08
-1.30707e-07
1.39705e-07
-4.34627e-07
9.46879e-08
1.07949e-07
2.28788e-07
4.11664e-07
-6.40451e-07
-3.14765e-07
-6.67506e-07
2.20981e-07
9.45692e-08
1.58285e-07
-5.80928e-07
4.22643e-07
5.41134e-07
-5.88202e-07
-4.96026e-07
5.76113e-07
-8.00868e-08
-6.73977e-07
6.1343e-08
-7.19917e-07
5.0463e-07
-8.5452e-09
3.15269e-08
2.02349e-08
2.49586e-08
-4.51936e-08
-1.85587e-08
-1.76679e-07
-3.23687e-08
2.38235e-08
-8.96894e-07
1.76977e-07
-4.17507e-07
1.8169e-07
6.48842e-08
-4.63764e-08
-1.85078e-08
4.18954e-07
-2.60669e-07
2.03633e-08
-4.20867e-07
4.00503e-07
6.16057e-08
1.49719e-07
8.31247e-07
-3.83298e-07
1.29009e-07
-9.45426e-08
-6.61072e-08
-1.35509e-07
-9.08875e-08
4.01286e-07
1.50213e-07
7.93608e-07
-4.8132e-07
1.98013e-07
2.83307e-07
-5.42987e-09
1.4834e-07
-2.95539e-07
-1.85781e-07
3.55981e-08
-3.02595e-07
-6.30479e-07
2.05029e-07
4.2545e-07
-5.25072e-07
2.9046e-08
3.55519e-07
2.74739e-07
-1.4442e-07
-4.32466e-07
-1.89452e-07
3.23852e-07
-2.43051e-07
-6.13738e-08
3.04425e-07
-6.04148e-07
1.53563e-07
4.50585e-07
6.40833e-07
-9.55598e-07
8.0602e-07
-6.00991e-07
9.35262e-07
-7.39785e-07
-1.95477e-07
2.9795e-07
5.0807e-07
1.60967e-07
2.40319e-07
6.09289e-08
4.25637e-08
-1.73169e-07
-4.30979e-07
4.28659e-07
-1.44904e-07
5.95282e-07
-4.39825e-07
-1.55457e-07
-3.87979e-07
-1.94758e-07
3.38139e-07
-3.38139e-07
-1.62632e-07
2.10263e-07
2.18396e-07
-1.78622e-07
5.45291e-09
-2.46781e-07
-1.58617e-07
-1.71873e-07
2.99414e-07
-7.2339e-07
8.76953e-07
-3.31098e-08
1.64303e-07
-1.74576e-07
3.84839e-07
-2.17397e-07
3.95196e-07
-1.77799e-07
-9.38191e-07
8.18892e-07
-5.28931e-08
-4.18891e-07
4.53245e-07
-3.4354e-08
-3.28655e-07
9.69488e-07
8.81048e-07
-5.35992e-07
-3.45056e-07
-6.18115e-07
1.7829e-07
-4.76714e-07
-1.41401e-07
1.1164e-07
5.79626e-07
-6.91266e-07
-5.81225e-08
-3.60769e-07
-6.96618e-07
9.94568e-07
4.00532e-07
-1.17147e-07
-2.83385e-07
9.51867e-09
-9.51867e-09
4.85125e-07
-4.85125e-07
-1.4803e-07
-7.90161e-07
2.12548e-07
7.16408e-07
-9.28956e-07
2.48688e-07
1.6837e-07
-4.17058e-07
-5.86802e-08
3.82532e-07
-8.47966e-07
1.24576e-07
3.85448e-07
-3.85448e-07
3.46345e-08
-3.46345e-08
5.64886e-07
2.07354e-07
-3.8193e-07
6.39449e-07
2.41599e-07
7.92174e-07
3.09617e-07
-6.82771e-07
2.06057e-07
-5.14401e-07
3.87927e-07
4.4332e-07
-8.53853e-07
-1.31425e-07
9.85278e-07
5.11591e-07
-2.28284e-07
-2.72512e-07
6.97961e-07
-2.0835e-07
1.37445e-07
-8.77597e-07
7.40152e-07
3.66178e-07
1.68215e-07
7.87232e-07
5.51599e-09
-1.77389e-07
1.91587e-07
-9.31372e-07
-3.65849e-07
8.73919e-07
2.67691e-07
-8.28043e-07
4.74233e-07
5.20335e-07
-5.5587e-07
-3.91386e-07
9.47255e-07
2.39079e-07
-3.81918e-07
-3.09348e-07
3.92129e-07
-9.47998e-07
-8.95436e-07
-4.9062e-07
9.64853e-07
-4.12414e-07
-4.65183e-07
3.18014e-07
8.13837e-07
-1.13185e-06
-1.61165e-08
7.84272e-08
6.61725e-07
6.9212e-07
-6.13693e-07
-9.43621e-07
9.23359e-07
2.02618e-08
-7.83255e-09
-1.33342e-07
9.52234e-07
-6.83663e-07
-4.41366e-07
8.33495e-07
-8.6095e-07
-3.16407e-07
1.17736e-06
-8.66005e-07
6.70528e-07
3.74843e-07
-6.44715e-07
-8.47803e-07
2.19491e-07
-4.82561e-07
8.57404e-07
-1.11879e-06
2.57841e-07
6.74113e-07
-4.36812e-07
-2.37301e-07
-6.18031e-07
5.99473e-07
-4.0403e-08
1.03915e-06
-9.98742e-07
-1.14291e-06
1.10251e-06
7.40245e-07
2.24608e-07
1.05826e-06
4.76436e-07
1.97677e-07
1.92206e-07
-2.00038e-07
-8.36299e-07
3.94932e-07
-2.32399e-07
3.55834e-07
-1.23435e-07
-8.38762e-07
5.22355e-07
-5.09562e-08
1.48129e-07
-9.71728e-08
7.17475e-07
-6.1255e-07
-1.04925e-07
9.94435e-08
2.51724e-07
-8.64274e-07
-1.36426e-08
6.13115e-07
6.19254e-07
-8.79153e-08
-5.31339e-07
-7.96449e-08
-1.06437e-06
3.24817e-07
7.39549e-07
-9.42113e-07
3.9234e-07
5.49773e-07
8.70086e-08
5.32246e-07
3.73763e-07
6.11515e-07
-1.04304e-06
3.70425e-07
6.72611e-07
-2.13693e-07
2.13693e-07
-1.07131e-07
-2.45834e-07
-1.78689e-07
5.98812e-08
-5.98812e-08
7.63572e-08
-7.63572e-08
-1.35778e-07
4.4421e-07
-1.00307e-06
5.58857e-07
-8.82299e-08
8.82299e-08
-2.41593e-07
2.41593e-07
-1.9002e-07
-1.03797e-07
1.03797e-07
1.74186e-07
-1.74186e-07
5.3121e-08
1.38434e-07
-1.38434e-07
2.20629e-07
1.99269e-07
1.81279e-07
1.09271e-08
3.9203e-07
4.89588e-07
-8.81618e-07
2.92198e-09
-2.92198e-09
4.74016e-07
-7.06415e-07
-1.20431e-06
4.57648e-07
9.79065e-08
-9.79065e-08
-5.22622e-07
8.58102e-08
5.4858e-07
-4.51871e-07
-9.67088e-08
-5.54526e-07
-7.40403e-07
1.29493e-06
-6.4124e-07
-4.23127e-07
-1.15138e-06
5.96856e-07
-3.53634e-07
-1.68988e-07
-6.91506e-07
-2.50607e-07
-1.30379e-08
1.14327e-07
-1.01289e-07
-6.39941e-08
-9.48988e-07
3.38802e-07
-2.51793e-07
1.00344e-07
-5.58879e-07
4.58536e-07
-8.31075e-07
4.17629e-07
-2.92246e-07
-1.25383e-07
-7.98175e-07
7.84532e-07
2.33939e-07
-7.90896e-07
7.34964e-07
5.59319e-08
-7.60095e-07
-3.29075e-07
8.71971e-07
-7.72528e-07
9.42952e-07
-6.91228e-07
-5.29051e-07
9.57117e-07
-6.52243e-07
-3.04874e-07
-4.65563e-08
1.60883e-07
-6.75511e-07
-4.75872e-07
-8.1149e-07
7.23574e-07
-1.57835e-07
1.56112e-07
-8.64438e-07
7.08327e-07
8.07636e-07
-7.07292e-07
9.81393e-07
-6.56576e-07
2.75833e-07
5.54495e-07
-8.30328e-07
-1.86872e-07
5.04799e-07
-3.17927e-07
2.40249e-07
1.05435e-06
-6.62013e-07
-3.22997e-07
-2.95274e-07
6.18271e-07
4.25611e-07
-6.26744e-07
2.01133e-07
1.12553e-06
-7.551e-07
-4.62847e-07
-9.60318e-08
3.27515e-07
1.28053e-06
-8.22886e-07
-6.88357e-07
5.62974e-07
7.37963e-08
-6.36356e-09
9.46662e-07
-7.06413e-07
1.70424e-07
2.65889e-07
4.13113e-07
4.92882e-07
-6.79754e-07
-7.65256e-08
3.2915e-07
9.02333e-07
1.75007e-07
-7.28384e-07
5.53377e-07
-5.20493e-07
1.0792e-06
-5.58703e-07
7.97756e-07
-3.72145e-07
6.21473e-07
-1.38157e-06
1.81802e-07
-3.50911e-07
4.34019e-07
-7.62167e-07
5.93179e-07
-4.8523e-07
-1.40864e-07
4.49459e-07
5.66477e-07
-8.61751e-07
-4.57934e-07
1.01243e-06
-1.02319e-06
3.66615e-07
-1.09783e-06
4.35819e-07
1.00157e-06
-5.49102e-08
8.43737e-07
-5.34813e-07
-6.84844e-07
1.21966e-06
-8.39034e-07
6.01733e-07
-1.3577e-06
-3.94352e-07
-4.35975e-07
-1.21118e-06
4.56082e-07
3.81839e-07
6.52396e-07
-1.3928e-06
-6.63813e-07
-6.10078e-07
-1.99193e-07
5.19882e-07
6.38605e-07
2.94487e-07
-9.33092e-07
5.03989e-07
-3.28982e-07
2.06507e-07
-2.47046e-08
9.67755e-07
4.33898e-07
1.84373e-07
-1.1359e-07
7.69269e-07
-6.55679e-07
-7.76074e-07
9.46498e-07
7.36226e-07
-7.61723e-07
6.48668e-07
-8.53676e-07
8.47312e-07
-2.58543e-07
8.1192e-07
1.0476e-06
-1.87445e-07
8.95772e-07
-7.31217e-07
-1.83917e-07
9.15135e-07
7.29173e-07
-1.25822e-06
7.66706e-07
-9.0757e-07
-5.85352e-07
6.94957e-07
-1.09604e-07
4.06292e-07
-9.18663e-07
-2.45855e-07
6.96579e-07
5.01857e-07
-6.01556e-07
-4.14487e-07
-7.09213e-07
9.75102e-07
-8.22763e-07
8.96559e-07
2.47989e-07
-1.51957e-07
-7.80653e-07
5.13307e-07
2.67346e-07
5.01846e-07
1.99028e-07
-6.40067e-07
9.32266e-07
-2.92199e-07
1.23735e-07
-4.28834e-08
-7.43181e-07
7.86065e-07
-9.78947e-07
3.68869e-07
9.04316e-07
-3.02583e-07
-4.44269e-07
1.09637e-06
-6.40284e-07
1.00882e-07
-8.08174e-07
-5.43128e-07
-3.04217e-07
1.03549e-06
6.001e-07
-8.83213e-07
8.06688e-07
-9.4265e-07
4.32553e-07
6.78428e-07
-9.24282e-07
-3.5901e-08
3.54485e-07
5.77782e-07
-5.31616e-07
8.48228e-07
-3.16612e-07
2.27703e-07
6.87431e-07
-8.23816e-07
-4.5841e-07
-2.64223e-07
2.97503e-07
8.90952e-07
-1.30544e-06
1.91052e-07
5.03904e-07
9.54584e-07
-4.61303e-07
-5.01779e-07
9.63082e-07
6.08175e-08
-5.23665e-07
-9.22818e-07
5.31432e-07
7.47357e-07
-7.83258e-07
-8.59389e-08
5.87796e-07
2.95484e-07
-7.09519e-07
4.14035e-07
-1.37259e-07
-4.64297e-07
1.08122e-06
3.94512e-07
5.60072e-07
-3.90235e-07
-4.91383e-07
9.07819e-07
3.10551e-07
5.37677e-07
-9.03016e-07
5.1278e-07
-9.52686e-07
-8.2912e-07
4.88575e-07
-1.93091e-07
-5.38093e-07
-7.05385e-07
-3.92613e-07
-8.42644e-07
6.43616e-07
1.68304e-07
-8.78484e-07
6.14261e-07
-4.18146e-07
-5.04672e-07
2.80696e-09
-2.09554e-07
-6.59948e-07
4.0604e-07
-3.25468e-07
8.569e-07
1.00012e-07
-1.16128e-07
-4.9572e-07
-4.07296e-07
-7.03849e-07
7.55764e-07
-4.48635e-07
8.88333e-07
-4.42173e-07
5.95159e-08
2.98355e-07
1.90221e-07
-3.17046e-07
8.20075e-07
5.51816e-07
-3.74815e-07
-1.77e-07
2.34769e-07
4.01929e-07
-2.53957e-07
8.98416e-07
-6.44459e-07
7.00284e-07
9.52388e-07
-1.65155e-07
-7.68358e-07
7.05771e-07
-2.01867e-07
8.19045e-07
4.96217e-07
6.02199e-07
-3.58689e-08
5.33589e-07
3.23312e-07
-6.92904e-07
-2.38468e-07
-1.77951e-08
-9.83332e-08
2.75333e-07
-8.51126e-08
2.30194e-07
-9.20501e-07
2.27597e-07
1.77003e-07
2.18193e-07
5.0444e-07
-1.38262e-07
8.48818e-07
-2.81052e-07
-9.25511e-07
8.36692e-07
-6.09095e-07
-1.32843e-07
-2.24765e-07
3.40264e-07
-1.15499e-07
-8.79134e-07
-7.01911e-08
1.80241e-07
1.97853e-07
-6.3686e-07
-7.19742e-08
2.00178e-08
-5.13504e-07
3.84357e-07
1.2085e-07
2.39854e-07
1.71479e-07
3.52071e-08
-1.28138e-08
1.27073e-07
2.24185e-07
1.71914e-07
1.39702e-07
3.87432e-07
4.33607e-07
9.14367e-08
-3.65491e-08
-5.48876e-08
-8.76585e-07
-2.83433e-07
4.33801e-07
-1.66109e-07
8.14396e-08
1.30459e-07
2.39627e-07
2.37159e-07
-8.22594e-07
-3.85816e-07
1.17499e-07
9.44e-08
-1.43592e-07
5.84794e-08
2.18248e-07
8.66016e-08
-4.78297e-07
8.17674e-08
3.66623e-08
-9.46776e-07
1.14259e-07
6.11617e-07
7.6056e-08
1.53807e-08
3.83313e-07
-4.24436e-07
-3.09684e-07
-5.51617e-07
4.46416e-07
2.53354e-07
6.73233e-07
-2.7271e-07
-1.10603e-06
-1.07389e-07
-9.55814e-07
2.02001e-07
1.0208e-07
-3.44183e-07
1.01585e-07
-1.48356e-07
-2.27407e-07
1.73395e-07
6.99784e-08
-9.01255e-08
-1.82585e-07
-3.45649e-07
4.8254e-07
-8.94954e-07
-8.57216e-08
-9.33364e-08
2.56379e-07
-4.9242e-07
-4.71906e-07
2.86125e-07
5.20079e-07
1.51739e-07
-9.9107e-08
-5.26318e-08
-3.89834e-08
3.24665e-08
-6.36934e-08
-7.54392e-08
-2.66634e-07
6.16793e-10
-3.89834e-08
-2.53658e-07
1.65004e-07
-8.32371e-08
6.5501e-08
-1.61483e-07
3.25704e-07
-7.63343e-08
4.94459e-07
-4.97266e-07
-2.63989e-08
8.71563e-07
-6.17154e-08
-3.40143e-07
1.33165e-07
2.06978e-07
-1.50133e-07
-1.77653e-07
-2.00441e-07
-3.87445e-07
-1.95548e-07
-6.6846e-08
-1.07113e-08
1.12536e-06
1.41454e-07
2.1438e-07
5.40845e-07
-5.57199e-08
8.26525e-08
-4.62605e-07
-3.00366e-08
3.95553e-08
4.62605e-07
3.00366e-08
2.08984e-07
5.40845e-07
1.72946e-07
-7.72657e-07
5.2205e-07
7.61689e-07
-5.2009e-07
7.11057e-08
-4.6678e-08
-4.15519e-08
1.97588e-08
-1.68368e-08
8.552e-08
-1.12561e-07
-1.80558e-07
-6.52762e-08
-4.6678e-08
-3.14827e-08
-2.83985e-08
1.98046e-08
5.65526e-08
1.08593e-07
-2.49675e-07
8.08281e-09
-8.552e-08
-1.82772e-08
1.12561e-07
-8.76348e-09
1.80558e-07
-4.21235e-08
-1.08593e-07
-2.98409e-08
2.49675e-07
3.14827e-08
1.97588e-08
1.98046e-08
6.95575e-09
-5.91715e-07
7.59644e-08
-3.72816e-07
6.70318e-07
2.99625e-07
-3.61341e-07
3.80465e-08
1.93454e-08
1.52594e-07
8.91825e-07
-5.09594e-07
8.54936e-08
-4.35608e-07
1.93454e-08
2.07834e-07
-4.05511e-07
3.87204e-07
-3.88565e-07
6.0282e-07
-1.27809e-07
5.14521e-08
1.27809e-07
-5.84196e-07
5.56036e-07
2.81599e-08
-8.47562e-07
-2.21904e-07
1.92577e-07
-5.13139e-07
3.14855e-07
5.36781e-07
-5.92713e-07
-4.37235e-07
3.2763e-07
-1.69346e-08
-2.05045e-08
3.54245e-07
2.4289e-07
-6.19974e-07
3.0389e-07
2.99367e-07
-5.79295e-07
5.79295e-07
-1.93013e-07
-5.95872e-07
-2.14002e-07
3.54245e-07
3.4773e-07
-4.40709e-07
3.12881e-07
-1.62569e-07
-2.58298e-07
1.20785e-07
-3.05159e-07
7.46505e-07
-4.41631e-07
-1.58493e-07
1.58493e-07
-2.80864e-08
-1.95367e-07
-6.10463e-08
6.10463e-08
-2.36058e-07
2.36058e-07
-2.15966e-07
1.78964e-08
1.07024e-07
-4.54133e-07
3.31727e-08
4.2096e-07
5.21446e-07
-5.21446e-07
1.33112e-07
1.25089e-07
2.75414e-07
2.49586e-08
-7.23226e-07
1.17397e-07
3.09427e-08
1.08633e-07
-4.65641e-07
-6.06838e-07
-2.42219e-08
-1.04126e-08
-1.47504e-07
-5.92227e-08
1.93471e-08
7.96075e-08
3.04922e-09
1.62979e-08
-9.33102e-07
-1.36739e-08
-1.75673e-07
-3.27643e-07
-5.20021e-07
1.47206e-07
1.73395e-07
1.33777e-08
1.77103e-07
6.37729e-08
-1.28149e-07
1.58805e-07
-1.58805e-07
-1.29189e-07
6.51544e-07
-5.00884e-07
-1.77655e-07
-5.61702e-08
5.61702e-08
-7.96705e-07
-4.71067e-07
1.07456e-07
6.80258e-09
-1.00046e-07
-3.13929e-07
5.09722e-07
-1.95793e-07
-5.8795e-07
2.18711e-07
3.69239e-07
-4.51936e-08
-5.23296e-08
2.85719e-07
-1.78263e-07
-3.30018e-07
-4.30151e-08
4.30151e-08
2.97994e-07
4.6285e-07
-4.27252e-07
5.08034e-08
1.63577e-07
-3.0393e-08
2.02194e-07
3.59277e-08
-2.89956e-07
2.97789e-07
-6.11717e-07
-3.23193e-07
-4.62203e-07
7.02521e-07
6.32053e-08
-2.58753e-07
-9.30989e-08
3.21661e-07
-2.45024e-07
1.76177e-08
2.42219e-08
1.51122e-07
3.52054e-08
2.39287e-08
1.51225e-07
-1.03266e-10
7.94633e-07
-7.70705e-07
1.66845e-07
2.53886e-07
-2.38003e-07
5.27298e-07
-2.17552e-08
6.58196e-07
-1.53565e-07
-6.41068e-07
2.92438e-07
-4.73954e-08
2.40817e-07
-2.35365e-07
-1.80185e-08
6.47357e-07
-5.87842e-07
3.1807e-07
-6.39375e-08
1.71653e-07
6.25544e-08
6.75517e-07
1.39306e-07
-1.47211e-07
2.18193e-07
1.50229e-07
-6.67928e-07
5.93728e-07
3.92779e-07
-2.45573e-07
3.50656e-07
-8.96679e-08
1.30328e-07
-1.96749e-07
-2.08984e-07
-8.51457e-07
1.19447e-07
-3.73182e-07
-3.28411e-08
5.78489e-08
3.28463e-07
5.13489e-08
-9.06149e-08
1.20999e-07
-1.67644e-07
1.85262e-07
2.17852e-09
-4.19056e-09
)
;

boundaryField
{
    back
    {
        type            empty;
        value           nonuniform List<scalar> 0();
    }
    front
    {
        type            empty;
        value           nonuniform List<scalar> 0();
    }
    top
    {
        type            calculated;
        value           nonuniform List<scalar> 10(-3.78094e-07 -4.11333e-07 -3.11616e-07 -2.11899e-07 -2.11899e-07 -3.11616e-07 -3.78094e-07 -7.89427e-08 -7.89427e-08 -4.11333e-07);
    }
    outer_arc
    {
        type            calculated;
        value           uniform 0;
    }
    bottom
    {
        type            calculated;
        value           nonuniform List<scalar> 10(9.49325e-07 4.93486e-07 -2.23933e-08 -3.51257e-07 -8.21039e-07 1.16002e-06 -4.76786e-07 1.20841e-06 -3.43082e-07 9.87088e-07);
    }
    inner_arc
    {
        type            calculated;
        value           uniform 0;
    }
}


// ************************************************************************* //
