/*--------------------------------*- C++ -*----------------------------------*\
  =========                 |
  \\      /  F ield         | OpenFOAM: The Open Source CFD Toolbox
   \\    /   O peration     | Website:  https://openfoam.org
    \\  /    A nd           | Version:  9
     \\/     M anipulation  |
\*---------------------------------------------------------------------------*/
FoamFile
{
    format      ascii;
    class       volVectorField;
    location    "0.06";
    object      U;
}
// * * * * * * * * * * * * * * * * * * * * * * * * * * * * * * * * * * * * * //

dimensions      [0 1 -1 0 0 0 0];

internalField   nonuniform List<vector> 
1655
(
(0.124693 -0.075088 -4.08876e-18)
(0.0648101 -0.0969419 2.7041e-17)
(0.276951 0.0117206 2.16181e-17)
(0.103664 -0.0231002 -1.30586e-17)
(0.0841019 0.120071 0)
(0.117026 0.0818876 8.15462e-18)
(0.286236 0.00224359 0)
(0.0351374 0.160201 -1.44766e-17)
(0.0209345 0.164537 0)
(0.0871767 0.116831 -7.07508e-18)
(0.132626 -0.0569043 3.26756e-17)
(0.131904 -0.0606607 -3.21999e-17)
(0.0277104 0.109966 -3.6652e-21)
(-0.0160364 -0.127889 -1.70877e-17)
(0.0892896 0.300183 1.63746e-17)
(0.183718 -0.190942 0)
(0.277848 -0.178108 2.88099e-17)
(0.0507751 0.218779 8.60965e-18)
(0.131502 0.0534678 -3.25791e-17)
(-0.0128494 -0.109025 -9.50933e-18)
(0.164362 -0.163005 3.81874e-18)
(0.0180508 0.161214 0)
(0.0579581 0.137385 -1.74863e-17)
(0.0614394 0.134411 8.11006e-18)
(0.12613 -0.0709357 -5.13031e-18)
(0.237236 -0.176252 -3.39946e-17)
(0.175146 -0.196212 -1.50456e-17)
(0.0239686 0.158635 -1.74887e-17)
(0.0254021 0.160187 2.35548e-17)
(0.0492993 -0.119041 -1.69885e-17)
(0.311962 -0.0356077 4.18635e-17)
(0.25109 0.01815 -4.47334e-18)
(0.0124723 -0.270756 -6.22435e-18)
(0.266709 0.0774359 0)
(0.0551619 0.222267 0)
(0.262495 0.0908412 0)
(0.113867 0.0846929 -2.18694e-17)
(0.0911728 -0.13416 0)
(0.00564523 -0.266211 -8.52012e-18)
(0.0958838 -0.132007 -2.91882e-17)
(0.145777 -0.159117 1.63672e-17)
(0.0667635 0.132391 1.41166e-17)
(0.00494709 -0.242596 -8.92537e-18)
(0.135777 0.0395774 2.58196e-17)
(0.0740881 -0.143359 0)
(0.144746 -0.0322888 0)
(0.145417 -0.0265548 4.06028e-17)
(0.068994 -0.144684 0)
(0.101714 0.100851 1.5764e-17)
(-0.00119579 -0.228965 2.17259e-18)
(0.117187 0.0778976 2.4268e-17)
(0.261151 0.00947843 -1.61085e-17)
(0.099856 0.314292 -1.75213e-17)
(0.0244679 0.162817 1.5626e-17)
(0.0406108 0.186763 -2.00376e-17)
(0.182908 0.252871 0)
(0.147312 -0.221566 -7.91232e-18)
(0.136053 -0.0579047 0)
(0.138323 -0.0346326 0)
(0.218999 0.282813 1.68864e-17)
(0.326132 -0.0137644 -4.18289e-17)
(0.126885 0.0648455 0)
(0.122085 -0.0768628 0)
(0.0344755 0.152958 -4.01142e-18)
(0.138967 0.0281672 0)
(0.284399 -0.0284533 0)
(0.143347 0.0050012 3.77805e-17)
(0.135028 -0.049092 -1.87579e-17)
(0.0533342 0.228476 0)
(0.066934 0.133757 -1.61438e-17)
(0.134962 -0.0527085 2.08084e-17)
(0.278339 -0.0159577 -9.8502e-19)
(0.143521 -0.155366 -1.04962e-18)
(0.102749 0.286125 1.49244e-17)
(0.32314 0.0726649 -1.92372e-17)
(0.0505058 -0.150633 9.27715e-18)
(0.0248896 0.156586 -5.34598e-18)
(0.0597056 0.232239 0)
(0.151046 -0.181201 0)
(0.085619 -0.120625 0)
(0.138089 0.0243833 2.0739e-17)
(0.055568 -0.150882 -9.43007e-18)
(0.0364038 0.188228 2.04696e-17)
(0.134945 0.0374076 1.03967e-17)
(0.0907842 -0.174034 0)
(0.139838 0.23956 0)
(0.306278 0.0559422 -1.15728e-17)
(0.151711 -0.14838 0)
(0.107553 -0.108075 -8.18549e-18)
(0.169752 0.225609 0)
(0.158677 0.218928 0)
(0.280508 0.0251047 1.00502e-17)
(0.129409 0.0499089 1.99197e-17)
(0.103272 0.0977282 0)
(0.0288185 -0.144497 0)
(0.129619 0.0566503 3.31433e-17)
(0.144107 0.00646101 -3.2041e-17)
(0.136593 -0.0361187 0)
(0.25256 0.0309838 -9.55601e-18)
(0.054122 -0.293332 2.04167e-17)
(0.289273 0.0359796 -6.39284e-17)
(0.139224 0.0142652 -2.1083e-17)
(0.10016 0.10212 -2.05645e-17)
(0.139014 0.0184219 2.21553e-17)
(0.0365399 0.205299 0)
(0.124664 0.0681273 -1.27165e-18)
(0.0403922 0.15517 -1.77213e-17)
(0.030045 -0.0862601 0)
(0.039045 -0.298551 0)
(0.196082 0.231823 -1.76116e-17)
(0.0147058 -0.298528 1.43476e-17)
(0.12932 -0.0623468 1.66458e-17)
(0.204259 0.225013 1.06878e-17)
(0.104775 -0.196504 1.88661e-17)
(0.0512646 0.150918 1.68363e-17)
(0.1453 0.226291 -1.04764e-17)
(0.0435865 0.152474 -1.80182e-17)
(0.13872 -0.0310372 0)
(0.110678 -0.104326 1.6223e-17)
(0.0407351 0.203495 -3.54014e-17)
(0.222856 0.2322 -3.0551e-17)
(0.308668 0.103103 3.12282e-17)
(0.317964 0.0291112 -2.48194e-17)
(0.152711 -0.00547494 2.35246e-17)
(0.139576 0.0108427 8.21719e-18)
(0.0450463 0.143886 0)
(-0.0066266 -0.199127 -2.05728e-17)
(0.0215594 -0.144542 1.8595e-17)
(0.191801 -0.19002 -2.51461e-18)
(0.046177 -0.239923 -2.45334e-18)
(0.111462 0.0910973 4.66252e-18)
(0.0141701 -0.302209 2.52904e-17)
(0.0352272 0.150196 1.5542e-17)
(0.0484153 0.141718 1.63376e-17)
(0.0185944 -0.0432626 0)
(0.0974965 -0.124537 0)
(0.0789981 0.118489 -9.52299e-18)
(0.0887851 0.217308 1.59141e-17)
(0.0751103 -0.138303 8.67435e-18)
(0.142246 0.0016709 -8.56153e-18)
(0.149451 0.199766 1.09898e-17)
(0.189514 -0.240619 1.54168e-17)
(0.229192 -0.236914 0)
(0.327284 0.145135 0)
(0.307217 -0.14326 -9.5399e-18)
(0.339668 0.103663 0)
(0.30888 0.182903 -3.28143e-17)
(0.255559 0.25598 2.63732e-17)
(0.275623 0.218731 1.6981e-17)
(0.337654 -0.067401 0)
(0.350691 -0.0247498 1.63123e-17)
(0.317766 -0.105765 -8.81145e-18)
(0.35571 0.0651322 1.69728e-17)
(0.357835 0.0229511 1.48452e-17)
(0.128709 0.23993 0)
(-0.00680574 -0.189964 3.31429e-17)
(0.140048 0.0314332 2.10399e-18)
(0.270822 0.14572 8.67619e-18)
(0.0476482 0.153889 0)
(0.134716 0.0229128 -2.24672e-17)
(0.276833 0.175321 2.48636e-17)
(0.118602 -0.102059 0)
(0.0277003 0.165557 -5.16549e-22)
(0.278097 0.134929 0)
(0.294151 0.135781 0)
(0.135533 -0.0410954 -8.68811e-18)
(0.0238917 0.160156 0)
(0.0502036 0.14641 -3.39291e-17)
(0.139879 0.00995066 5.19381e-18)
(0.055528 0.239945 0)
(0.270528 -0.169356 0)
(0.0452767 0.179589 0)
(0.256084 0.202353 1.02191e-17)
(0.0378645 0.16118 1.79068e-17)
(0.108171 -0.153177 1.10105e-18)
(0.0412837 0.15884 1.78443e-17)
(0.107788 0.0927304 4.67761e-18)
(0.0606343 0.246075 0)
(0.119568 -0.227512 -1.95217e-17)
(-0.0214153 -0.0969091 1.55344e-17)
(0.169812 0.247253 2.1601e-17)
(0.0497528 0.182382 1.38721e-17)
(0.120185 0.0767969 -2.96816e-17)
(0.148882 -0.00447952 -5.13551e-18)
(0.085821 -0.134644 -9.89836e-18)
(0.144861 -0.230019 0)
(0.0597033 -0.146891 0)
(0.123083 -0.239315 0)
(0.0587412 0.20598 0)
(0.0544377 0.179806 -1.349e-17)
(0.0762134 -0.138444 -1.78061e-17)
(0.125366 0.0612656 0)
(0.0650632 0.197251 -1.7992e-17)
(0.255996 -0.0057824 2.27142e-17)
(0.152625 -0.226232 0)
(0.0268481 -0.0622569 -1.12012e-17)
(0.0593517 0.200521 0)
(0.142263 -0.238244 0)
(0.104578 -0.110935 2.12481e-17)
(0.0591231 0.182314 0)
(0.142282 -0.0136165 1.17383e-17)
(0.143566 -0.00967636 -5.25924e-18)
(0.308238 0.0385565 1.88859e-17)
(0.309575 0.00402713 4.22915e-17)
(0.161813 0.196071 -1.60078e-17)
(0.169086 -0.173799 1.28638e-17)
(0.0258077 -0.252128 0)
(0.0703752 0.200204 0)
(0.0564357 -0.254685 5.79175e-17)
(0.27812 0.076276 0)
(0.225487 0.00249569 3.07025e-17)
(0.242279 -0.00462222 -8.45421e-18)
(0.0968611 -0.130044 0)
(0.0466022 0.145167 1.77557e-17)
(-0.020609 -0.104729 -1.84085e-18)
(0.14328 -0.00340125 3.99038e-17)
(0.273841 0.104323 -9.8256e-18)
(0.115008 -0.101144 0)
(0.226252 -0.0149054 1.74789e-17)
(0.0639878 0.179225 0)
(0.0623159 -0.149183 0)
(0.16843 -0.156052 -3.7175e-17)
(0.0139285 -0.25791 2.63057e-17)
(0.0675395 0.17029 1.80427e-17)
(0.0233013 -0.262093 -1.89876e-17)
(0.140812 -0.216961 1.82562e-17)
(0.146947 -0.206106 -1.81836e-17)
(0.156053 0.206666 0)
(0.224295 -0.032099 2.21729e-17)
(0.21786 -0.0399746 1.77707e-17)
(0.0607488 -0.178948 0)
(0.213403 -0.0633357 -2.22486e-17)
(0.205764 -0.0683385 2.22541e-17)
(0.0670072 0.229968 -3.44518e-17)
(0.0398257 -0.253415 -1.87712e-17)
(0.0554343 -0.18644 1.84335e-17)
(0.142825 -0.229942 0)
(0.0762645 0.19662 0)
(0.158616 -0.202609 2.26409e-17)
(0.196199 -0.0879507 1.78572e-17)
(0.157441 0.251227 -1.6635e-17)
(0.0805871 -0.135799 3.25493e-17)
(0.18869 -0.0903717 -2.23454e-17)
(0.07254 -0.108248 1.5614e-17)
(0.0725172 0.172037 4.5144e-18)
(0.127256 -0.13051 -2.29871e-17)
(0.317266 -0.0844697 1.33564e-17)
(0.0314615 0.164596 0)
(0.163713 -0.21186 -4.53439e-18)
(0.0630818 0.173595 0)
(0.133473 0.0441755 -1.47485e-17)
(0.0913919 -0.115309 3.70134e-18)
(0.142317 0.171791 -1.77389e-17)
(0.236346 0.00324724 -1.27903e-17)
(0.0437918 -0.2395 1.84544e-17)
(0.221711 -0.00736675 -2.19173e-17)
(0.0831606 -0.276254 -1.88633e-17)
(0.0769286 0.168185 -4.49632e-18)
(0.0580932 0.258806 2.37021e-17)
(0.00682084 -0.237299 1.74104e-17)
(0.118766 -0.114515 1.35766e-17)
(0.144208 -0.207612 1.86895e-17)
(0.140666 -0.196289 1.81305e-17)
(0.237069 -0.0163724 1.75894e-17)
(0.137986 0.180676 1.77814e-17)
(0.0586782 0.149803 1.79693e-17)
(0.00653044 -0.22582 0)
(-0.00498023 -0.15124 -2.5735e-17)
(0.0288434 -0.275902 9.89734e-18)
(-0.0175486 -0.151814 0)
(0.0628902 0.209511 -1.88715e-17)
(0.0705035 0.2236 1.35647e-17)
(0.0763 -0.141361 9.56154e-18)
(0.166877 -0.199954 0)
(0.0732487 0.235434 1.72994e-21)
(0.0769259 0.220371 -1.36625e-17)
(0.309907 -0.092079 0)
(0.0822758 0.169556 2.24829e-17)
(0.0492144 0.199257 -2.25694e-17)
(0.130735 -0.121182 4.46177e-18)
(0.0542477 0.190988 1.83734e-17)
(0.0661337 0.147744 4.50743e-18)
(0.0839087 0.226005 1.81134e-17)
(0.135987 0.311888 1.58978e-17)
(0.122535 0.289003 -2.99394e-17)
(0.0767387 0.210985 -1.81905e-17)
(0.0645863 0.191066 1.81155e-17)
(0.0382374 -0.295549 1.64483e-17)
(0.0164978 -0.231975 0)
(0.0628763 0.21839 0)
(0.0705969 0.20707 1.78017e-17)
(0.127659 -0.145696 1.76558e-17)
(-0.00952605 -0.192458 3.84193e-17)
(0.0453946 0.174332 0)
(0.075537 0.190167 -1.80915e-17)
(0.0872497 -0.242816 4.62816e-18)
(0.0223771 0.107903 0)
(0.221001 -0.0238999 -3.09411e-17)
(0.0461831 -0.0883449 -1.80839e-17)
(0.0827958 -0.260159 -4.54921e-17)
(0.0617797 -0.281906 -1.91522e-17)
(0.108258 0.103023 0)
(0.0780038 0.0683319 2.76966e-17)
(0.10294 -0.219659 -4.60044e-18)
(0.144831 -0.188189 -3.62402e-17)
(0.0540188 0.197176 -1.9263e-17)
(0.0892087 -0.264525 -4.65127e-18)
(0.171829 -0.203593 4.52444e-18)
(0.08703 0.188347 -4.50681e-18)
(0.140473 -0.180482 -1.80637e-17)
(0.0896141 0.21161 0)
(0.308539 -0.141047 9.58808e-18)
(0.165204 -0.212366 -4.55562e-18)
(0.123663 -0.11543 -4.53369e-18)
(0.0556051 0.152338 0)
(0.0809276 0.186157 0)
(0.109459 -0.168773 -1.79617e-17)
(0.04975 0.187999 -1.81043e-17)
(0.144785 -0.174022 5.27604e-21)
(0.0817157 -0.278577 2.00196e-17)
(0.0595303 0.188248 0)
(-0.0175992 -0.164917 -1.9389e-17)
(0.047251 -0.286225 2.52714e-18)
(0.0900699 -0.228402 -4.61556e-18)
(0.0698983 -0.272143 -1.86495e-17)
(0.142282 -0.038967 2.59486e-17)
(0.0984252 -0.0318225 8.90001e-18)
(0.0625738 0.150997 -2.26991e-17)
(0.102075 -0.263803 0)
(0.146347 0.154889 -1.77334e-17)
(0.0332125 -0.220679 0)
(0.0699981 0.187663 1.80794e-17)
(0.00506723 -0.0840496 8.29471e-18)
(0.175719 -0.192666 -1.82158e-17)
(0.0884622 0.195418 1.80218e-17)
(0.160412 -0.192951 -1.36087e-17)
(0.138928 0.157029 1.33283e-17)
(-0.00345333 -0.202957 -1.92255e-17)
(0.129581 -0.194622 0)
(0.0823523 0.199569 0)
(0.0642932 -0.287142 1.97244e-17)
(0.111878 -0.199349 1.8283e-17)
(0.0826905 0.233205 0)
(0.219935 -0.0483756 -2.21272e-17)
(0.120857 0.20649 0)
(0.102541 -0.206995 -3.21051e-17)
(-0.0210794 -0.144682 0)
(0.0978676 -0.250842 4.63171e-18)
(0.0937189 -0.269138 0)
(0.179008 -0.186378 0)
(0.036421 0.101014 0)
(0.153558 0.187552 1.75852e-17)
(0.212712 -0.0548887 0)
(0.0636525 -0.263488 1.86323e-17)
(0.037442 0.173576 0)
(0.141595 -0.167309 0)
(0.123006 -0.202786 0)
(0.126418 -0.185687 -4.81841e-21)
(0.0902092 0.176972 -1.79569e-17)
(0.155288 -0.168209 2.25918e-17)
(0.181698 0.300559 -1.51873e-17)
(0.0188703 -0.218875 0)
(0.0336805 0.171143 -4.83642e-18)
(0.142056 -0.122403 1.79168e-17)
(0.0270056 -0.104872 1.89064e-17)
(0.154383 0.278604 -1.54205e-17)
(0.100352 -0.256115 4.78201e-18)
(0.0440052 0.0940205 -1.77723e-17)
(0.0690586 0.181472 0)
(0.0853279 -0.182802 0)
(0.0491356 -0.104002 0)
(0.048066 -0.267121 1.86212e-17)
(0.0383319 -0.105724 0)
(0.129451 -0.171638 0)
(0.0504995 0.0884918 0)
(0.0924862 0.183618 4.48827e-18)
(0.148784 0.130997 1.33105e-17)
(0.0436327 0.147339 -2.74182e-22)
(0.0702043 -0.177864 4.5693e-18)
(0.126727 -0.214518 -1.8303e-17)
(0.0576003 -0.170276 -4.69151e-18)
(0.139516 -0.117309 0)
(0.0572155 0.145911 -1.86444e-17)
(0.138458 -0.127253 -2.23686e-17)
(0.115872 -0.239613 -4.60319e-18)
(0.0413214 0.171849 0)
(0.134452 -0.165985 0)
(0.0842987 0.175474 -1.9735e-23)
(0.0915142 0.221097 0)
(0.153624 -0.186431 -4.52425e-18)
(0.161342 -0.188324 1.69829e-17)
(0.158719 0.17682 -1.76194e-17)
(0.142657 0.134294 -1.7763e-17)
(0.0496561 0.17207 0)
(0.110615 -0.189462 0)
(0.132185 -0.159353 -1.79869e-17)
(0.14591 -0.161771 1.79724e-17)
(0.0830062 0.207434 0)
(0.0339319 0.166888 0)
(0.130751 0.103598 0)
(0.132012 -0.179133 -1.80892e-17)
(0.0318531 -0.171512 3.83001e-17)
(0.142681 -0.112504 4.46864e-18)
(0.0704275 0.148471 -2.25008e-17)
(0.163225 0.147714 -4.42134e-18)
(0.0596995 -0.236726 -1.85424e-17)
(0.0540174 0.174403 1.81617e-17)
(0.168117 0.174313 -2.21026e-17)
(0.0601163 -0.0956996 0)
(0.155885 0.13464 0)
(0.0634278 0.0818963 0)
(0.151297 -0.10754 4.46442e-18)
(0.140792 -0.132663 4.48925e-18)
(0.155297 0.143146 0)
(0.0638141 -0.22289 0)
(0.159884 -0.101767 -1.78482e-17)
(0.0584436 0.171567 0)
(0.205336 -0.0765439 0)
(0.136807 -0.137499 -1.34953e-17)
(0.136832 -0.154196 1.79688e-17)
(0.13016 0.0985053 1.77966e-17)
(0.148344 -0.112718 -4.46688e-18)
(0.240976 0.106485 4.43483e-18)
(0.143284 -0.155551 0)
(0.128592 -0.146544 1.79985e-17)
(0.282869 -0.108151 -1.1257e-17)
(0.197579 -0.0801443 0)
(0.117752 -0.183164 1.36405e-17)
(0.168517 -0.187966 1.81954e-17)
(0.191698 0.0618967 2.21704e-17)
(0.126611 -0.243395 0)
(0.224118 0.0976504 2.09714e-21)
(0.134676 -0.148119 0)
(0.0920686 0.111116 -5.81946e-18)
(0.157203 -0.107335 1.33891e-17)
(0.147241 -0.0932755 -1.34078e-17)
(0.0871163 -0.174766 1.82591e-17)
(0.172546 0.194951 7.58352e-18)
(0.0696505 0.0741249 0)
(0.15622 -0.0969876 0)
(0.13666 -0.173766 1.55336e-17)
(0.156751 -0.129221 0)
(0.170696 0.163209 2.20925e-17)
(0.147575 -0.150388 0)
(0.146762 -0.133628 0)
(0.150579 -0.0976703 -2.23384e-17)
(0.191738 0.0835436 1.77123e-17)
(0.148238 0.146374 0)
(0.194966 0.0755931 2.34538e-21)
(0.150793 0.170013 1.76557e-17)
(0.199136 0.0596288 -4.42871e-18)
(0.16847 -0.0489952 -1.7854e-17)
(0.208075 0.0478504 -4.43317e-18)
(0.147882 -0.123029 4.46929e-18)
(0.200585 0.0511152 -3.54567e-17)
(0.15738 -0.118146 2.2321e-17)
(0.140242 0.102037 0)
(0.149275 -0.139304 0)
(0.189426 0.0696904 0)
(0.230033 0.107492 0)
(0.131837 -0.111957 -4.47571e-18)
(0.160483 -0.123649 -4.46351e-18)
(0.13412 -0.116689 4.47333e-18)
(0.163281 -0.0464723 -1.78717e-17)
(0.125423 0.0969148 -1.78138e-17)
(0.0539427 0.144323 3.5878e-17)
(0.150594 -0.128492 -4.46843e-18)
(0.145131 -0.144448 0)
(0.167039 -0.112458 4.4983e-18)
(0.134826 -0.107493 0)
(0.132344 -0.103194 -1.79242e-17)
(0.0735718 -0.170689 1.36717e-17)
(0.151307 -0.117853 4.46746e-18)
(0.161864 0.157445 4.42012e-18)
(0.172032 -0.0396176 1.78522e-17)
(0.134785 -0.0988028 -4.47596e-18)
(0.13207 -0.094804 -3.13411e-17)
(0.145777 -0.0843347 -1.34116e-17)
(0.179462 -0.0989858 1.34498e-17)
(0.240632 0.084906 -8.45432e-18)
(0.15232 -0.162466 -2.25612e-17)
(0.16242 0.130423 0)
(0.170029 -0.106315 -4.4553e-18)
(0.215978 0.052698 4.42653e-18)
(0.139183 -0.0898697 -4.47358e-18)
(0.160625 -0.112573 -1.33888e-17)
(0.228459 0.0867631 -1.7534e-17)
(0.232314 0.0657874 0)
(0.170907 0.143406 0)
(0.113893 -0.159815 -4.52958e-18)
(0.176223 -0.0350719 -4.01821e-17)
(0.206001 0.089639 -1.76756e-17)
(0.166062 -0.101075 4.45962e-18)
(0.17065 0.0268811 -4.45269e-18)
(0.154573 -0.0474357 -1.78838e-17)
(0.142095 -0.0938874 4.47157e-18)
(0.264863 -0.0799836 -2.50481e-19)
(0.243393 0.0727513 0)
(0.149235 -0.0882946 1.34072e-17)
(0.176289 0.0291405 2.22434e-17)
(0.158555 -0.0267222 0)
(0.134387 -0.0903788 1.79051e-17)
(0.247284 0.0945679 8.87547e-18)
(0.165201 -0.0326828 2.2337e-17)
(0.247561 -0.0998943 0)
(0.15671 -0.0349933 1.34137e-17)
(0.224331 0.0488395 -1.77315e-17)
(0.160073 -0.0312015 -4.47357e-18)
(0.159054 -0.0497933 -3.45847e-21)
(0.222256 0.0689058 -1.32566e-17)
(0.108034 0.120823 1.34169e-17)
(0.153995 -0.0429296 -2.23471e-17)
(0.160767 0.0633627 -4.4459e-18)
(0.141026 -0.0852358 -4.47248e-18)
(0.233563 0.0539218 0)
(0.170221 0.0208756 1.78147e-17)
(0.162574 -0.0414782 0)
(0.158983 -0.0657365 1.34001e-17)
(0.262728 -0.0683388 1.59185e-17)
(0.271037 -0.0453729 0)
(0.203369 -0.0432198 -1.7821e-17)
(0.191981 -0.0677603 0)
(0.127704 -0.102911 3.59757e-17)
(0.166481 -0.0375826 0)
(0.279085 -0.0591087 -1.70326e-17)
(0.176735 -0.0872293 2.22897e-17)
(0.152034 -0.0333139 -1.34914e-17)
(0.157636 -0.0395241 3.21553e-21)
(0.154352 -0.0626608 4.46937e-18)
(0.208245 -0.0150985 -2.22194e-17)
(0.153592 -0.0259131 1.80034e-17)
(0.209729 0.0806177 1.76772e-17)
(0.0772909 -0.0686121 -1.00001e-17)
(0.100575 -0.0110201 1.69152e-17)
(0.088123 0.050995 1.11564e-18)
(0.0625111 -0.0862982 2.1395e-18)
(0.0761007 0.0709014 -1.48597e-21)
(0.0916667 -0.048666 -3.64721e-17)
(0.100091 0.0140478 0)
(0.100545 -0.0262174 -1.57763e-17)
(0.0957684 0.0349042 -2.62756e-17)
(0.262054 -0.0156862 -4.62222e-17)
(0.0921444 0.043086 -1.7826e-17)
(0.0907465 -0.0179239 0)
(0.0757018 -0.0800538 2.63018e-17)
(0.0827881 0.0595547 1.7915e-17)
(0.0845848 -0.0613582 1.95817e-17)
(0.102182 -0.00193258 0)
(0.143887 -0.0760347 1.34203e-17)
(0.095516 0.0215471 -2.77123e-17)
(0.0870033 -0.035412 0)
(0.150706 -0.0548521 -4.47169e-18)
(0.200065 -0.113636 0)
(0.149273 -0.0409974 -1.34183e-17)
(0.154678 -0.0576351 4.46839e-18)
(0.247655 -0.0875864 0)
(0.237199 0.0731581 0)
(0.137509 -0.0819648 4.47483e-18)
(0.164822 0.0191941 -1.78287e-17)
(0.214306 0.062504 -4.42467e-18)
(0.173035 -0.0450921 1.33959e-17)
(0.156395 0.0206077 -3.12172e-17)
(0.174862 -0.0937507 4.49324e-18)
(0.219476 0.00914676 -1.31873e-17)
(0.132666 0.0901787 0)
(0.25694 -0.0395078 5.13389e-21)
(0.168851 -0.0544986 2.23257e-17)
(0.138991 -0.143202 -4.48146e-18)
(0.224653 0.0380553 -3.17612e-21)
(0.212176 -0.00682871 -1.32522e-17)
(0.127574 -0.0950115 -4.52929e-18)
(0.208556 0.038681 3.54556e-17)
(0.229433 0.105949 1.60113e-17)
(0.156889 0.0591596 4.00336e-17)
(0.210281 0.00808468 -2.21069e-17)
(0.164048 -0.0577487 -1.33933e-17)
(0.150722 -0.0502378 2.23518e-17)
(0.179635 0.15892 -3.53359e-17)
(0.249983 -0.0603332 1.7756e-17)
(0.140002 -0.107728 -2.23617e-17)
(0.14885 -0.0367054 1.79446e-17)
(0.151047 -0.0295924 3.07751e-21)
(0.135961 0.105642 0)
(0.253969 -0.0290591 3.00398e-17)
(0.161001 0.0221869 1.33669e-17)
(0.151805 -0.0214549 1.82098e-17)
(0.233091 0.0325263 3.49121e-17)
(0.185772 -0.0637465 1.78578e-17)
(0.16949 0.00110064 4.45736e-18)
(0.179167 -0.0737482 -1.34033e-17)
(0.139009 -0.0774678 -1.78952e-17)
(0.191429 -0.0526161 4.46328e-18)
(0.195834 -0.0404778 0)
(0.198741 -0.0275671 -4.46209e-18)
(0.171884 -0.0825836 -4.46455e-18)
(0.247673 -0.0490296 -1.77452e-17)
(0.125243 -0.0988731 3.58776e-17)
(0.194622 0.157118 -1.62353e-17)
(0.199933 -0.0142405 -1.33685e-17)
(0.215726 0.0342983 -1.77277e-17)
(0.199358 -0.000884904 -1.33507e-17)
(0.236171 -0.0441733 4.40956e-18)
(0.239481 0.0149144 1.2861e-17)
(0.219412 0.0788476 1.76813e-17)
(0.222231 -0.0703933 8.69319e-18)
(0.202669 -0.0969218 0)
(0.241829 0.0471201 -9.36562e-18)
(0.175719 0.180467 -2.97809e-17)
(0.105728 -0.169593 3.59962e-17)
(0.249713 0.0217515 4.08176e-18)
(0.149917 -0.0649998 -1.78827e-17)
(0.146554 -0.0574231 4.47227e-18)
(0.160495 -0.160368 0)
(0.245089 -0.0160561 -3.63249e-17)
(0.210365 0.128169 0)
(0.196993 0.0121234 -2.22308e-17)
(0.239067 -0.0789959 1.77646e-17)
(0.145717 -0.0439099 1.78944e-17)
(0.168419 -0.0950743 -1.78274e-17)
(0.24166 -0.0256542 2.21124e-17)
(0.239631 -0.0686385 -1.77507e-17)
(0.179772 -0.0672878 0)
(0.2273 -0.0941 -3.55553e-17)
(0.231742 0.0214226 -2.12567e-17)
(0.173107 -0.0764045 2.23379e-17)
(0.152938 0.022876 1.78388e-17)
(0.185641 -0.0570791 -1.33926e-17)
(0.190466 -0.0458879 0)
(0.193979 -0.0338505 4.46204e-18)
(0.16749 -0.00436853 -8.92718e-18)
(0.158355 -0.0915261 -4.46363e-18)
(0.175402 0.00143112 1.33674e-17)
(0.195981 -0.0211992 0)
(0.145426 -0.0170024 1.97089e-17)
(0.146094 -0.048066 -2.23675e-17)
(0.196345 -0.00829922 4.00531e-17)
(0.145482 -0.0348577 0)
(0.137909 -0.0436486 8.92321e-18)
(0.146061 -0.0622294 0)
(0.163884 -0.0631532 4.46587e-18)
(0.137491 -0.0571317 -2.23739e-17)
(0.256986 0.0677073 -1.51745e-17)
(0.148126 -0.102779 1.34034e-17)
(0.141675 -0.0413953 0)
(0.14238 -0.0545622 -2.35838e-17)
(0.124422 0.0915507 1.78147e-17)
(0.145134 -0.0714744 -4.47186e-18)
(0.147585 -0.0213625 -1.95648e-17)
(0.180556 0.019147 -1.77982e-17)
(0.24331 -0.148658 -4.46065e-18)
(0.194989 0.00446696 0)
(0.13205 -0.0865671 0)
(0.168148 -0.0723799 -4.46505e-18)
(0.153291 -0.0730182 0)
(0.14725 -0.079585 2.2355e-17)
(0.131977 -0.0741573 0)
(0.162675 -0.074707 4.46596e-18)
(0.200739 0.0352287 0)
(0.179527 -0.053736 1.33843e-17)
(0.230299 -0.0625427 0)
(0.149401 -0.0697183 1.78827e-17)
(0.204869 0.0135823 4.43443e-18)
(0.164068 0.0136618 3.11998e-17)
(0.158297 -0.0710134 -2.23348e-17)
(0.164185 -0.090295 0)
(0.214943 0.0246189 0)
(0.145051 0.00487424 1.7498e-17)
(0.142428 -0.0504014 2.7641e-17)
(0.142087 -0.0374463 0)
(0.136339 -0.0734706 0)
(0.207568 -0.000505912 3.09969e-17)
(0.188682 -0.0199763 1.78435e-17)
(0.150506 0.0104294 -4.53602e-18)
(0.17919 0.0779764 0)
(0.15579 0.0154929 1.78374e-17)
(0.162036 -0.00459812 8.93355e-18)
(0.185821 0.057066 -4.43727e-18)
(0.140402 0.0422189 0)
(0.221647 0.0190579 4.41577e-18)
(0.14313 0.0121813 -8.01096e-18)
(0.193763 0.0468686 0)
(0.200359 0.0268159 0)
(0.166239 0.00492177 -8.91874e-18)
(0.165902 -0.0844624 4.4621e-18)
(0.17339 0.0113896 -8.9063e-18)
(0.229294 -0.0840787 4.44837e-18)
(0.137823 -0.0479191 8.90441e-18)
(0.178483 0.181342 8.23339e-18)
(0.193016 0.0244015 0)
(0.192002 0.0167766 8.89111e-18)
(0.174488 0.0175 2.95764e-21)
(0.158916 0.0124707 4.46057e-18)
(0.14457 0.0831026 0)
(0.185149 0.015215 4.45046e-17)
(0.141677 -0.0686735 2.23729e-17)
(0.194347 0.0388654 -4.43947e-18)
(0.146209 0.00910243 -1.32836e-17)
(0.206382 0.0222137 0)
(0.13769 -0.069662 -2.32367e-17)
(0.136769 -0.0620212 3.15541e-17)
(0.161521 -0.0802734 -4.46594e-18)
(0.14204 -0.0643645 4.4735e-18)
(0.128128 -0.0868743 1.90773e-17)
(0.167711 0.0103432 -2.67481e-17)
(0.179864 0.0911429 0)
(0.1681 0.0968568 -2.21794e-17)
(0.151605 0.014613 0)
(0.174233 -0.063526 -1.78513e-17)
(0.187721 0.0356352 3.99919e-17)
(0.203185 0.0739869 2.52425e-21)
(0.218033 -0.098233 1.77845e-17)
(0.179161 -0.0138249 2.23097e-17)
(0.233639 -0.102617 0)
(0.168789 -0.0665593 -4.46424e-18)
(0.17426 -0.0575414 1.33881e-17)
(0.170647 0.133762 0)
(0.145581 0.0232704 4.69818e-18)
(0.168354 0.0562479 1.77768e-17)
(0.154532 -0.0872196 -1.33989e-17)
(0.239418 -0.163659 0)
(0.187765 0.00385557 0)
(0.181241 0.0259004 0)
(0.0965523 0.206762 0)
(0.156127 -0.0819478 1.78684e-17)
(0.0736462 0.144802 2.24566e-17)
(0.205442 -0.109293 -1.78854e-17)
(0.187217 0.0496183 -4.43894e-18)
(0.155832 0.0449502 -1.7809e-17)
(0.159158 -0.0548297 1.3404e-17)
(0.149145 0.0215291 0)
(0.233386 -0.132196 4.41937e-18)
(0.137803 0.0695859 4.00627e-17)
(0.182098 0.0710142 0)
(0.183656 0.00840831 -2.22549e-17)
(0.137516 0.0777774 -4.44949e-18)
(0.158614 0.0536287 -1.33447e-17)
(0.183721 0.0841741 0)
(0.159257 -0.000594094 2.98647e-21)
(0.176223 0.0356814 -3.55862e-17)
(0.15322 0.00723693 -4.54298e-18)
(0.211062 -0.0913241 0)
(0.127895 0.0880684 0)
(0.1297 -0.0788014 -1.47946e-17)
(0.201746 -0.11749 -5.29503e-21)
(0.187597 0.0282571 -1.77749e-17)
(0.177258 0.00749527 -1.33702e-17)
(0.179256 0.0589692 -1.7755e-17)
(0.133415 -0.0830018 0)
(0.14433 0.0165958 2.08677e-17)
(0.160836 0.00448248 9.01247e-18)
(0.177201 0.065782 2.43246e-21)
(0.148597 0.0173218 -4.54334e-18)
(0.204443 0.126577 0)
(0.217563 -0.156099 -3.09032e-17)
(0.235263 -0.122163 -3.57265e-17)
(0.139304 0.0466569 0)
(0.149811 0.0512961 1.78086e-17)
(0.174168 0.054646 1.77757e-17)
(0.139774 -0.098614 0)
(0.142376 0.0785012 -1.77916e-17)
(0.220642 -0.115752 -1.77327e-17)
(0.230002 -0.114356 1.82659e-17)
(0.172284 0.090889 1.33041e-17)
(0.142168 0.0496299 0)
(0.210918 0.161358 -1.73188e-17)
(0.16391 0.0523843 -1.77926e-17)
(0.157869 0.00767052 4.54615e-18)
(0.214828 -0.107459 0)
(0.172171 0.0785144 0)
(0.205706 0.0651164 -1.32759e-17)
(0.215394 -0.125075 1.77478e-17)
(0.154642 0.050068 -4.45104e-18)
(0.146177 0.0477316 0)
(0.22064 0.153073 0)
(0.178877 -0.0476851 -3.12303e-17)
(0.18582 -0.0144371 -4.45749e-18)
(0.125923 -0.0909516 4.80597e-18)
(0.181343 0.0457494 2.2216e-17)
(0.178782 -0.00303542 1.33785e-17)
(0.17628 -0.00896994 -3.12192e-17)
(0.166483 0.0622813 -2.22221e-17)
(0.168195 0.0731068 -1.77648e-17)
(0.168829 0.0846518 2.21878e-17)
(0.170768 0.0669211 3.99708e-17)
(0.188968 -0.00798818 1.33673e-17)
(0.185421 -0.00286382 -1.33628e-17)
(0.135466 0.0656192 -4.53328e-18)
(0.152117 -0.0781431 0)
(0.175501 0.0480698 -3.55524e-17)
(0.184815 -0.0259333 -1.7843e-17)
(0.143804 0.0410539 -1.78295e-17)
(0.21938 -0.132112 1.77245e-17)
(0.182011 0.0387096 -1.77764e-17)
(0.192315 0.0986408 0)
(0.150404 0.0995604 0)
(0.0699583 -0.250099 0)
(0.183831 -0.043099 1.78499e-17)
(0.180352 0.1477 0)
(0.135435 0.0732316 -1.33531e-17)
(0.151696 0.0419692 0)
(0.130117 0.07317 0)
(0.133883 0.0950969 0)
(0.142906 0.092516 -4.44535e-18)
(0.147374 0.0430593 0)
(0.142732 -0.102984 1.78819e-17)
(0.186933 -0.0317546 -4.46163e-18)
(0.161112 0.0959476 0)
(0.119117 0.091262 -2.25206e-17)
(0.201349 -0.133586 -1.78453e-17)
(0.134588 0.0818027 0)
(0.182452 -0.0370918 4.46113e-18)
(0.113016 -0.127053 0)
(0.177581 -0.150028 1.3517e-17)
(0.136239 0.0864217 0)
(0.207659 0.137455 0)
(0.192488 -0.13207 -1.79189e-17)
(0.148632 0.0936909 0)
(0.162208 0.0844677 -1.77626e-17)
(0.141237 0.0873092 4.44539e-18)
(0.214925 -0.141019 0)
(0.170331 -0.00867601 1.33922e-17)
(0.150058 0.083796 4.44361e-18)
(0.219541 0.139642 0)
(0.117857 0.0868673 -1.20984e-17)
(0.168712 -0.0281905 -2.23499e-17)
(0.206847 -0.125474 6.07768e-21)
(0.161756 0.122178 -1.77324e-17)
(0.199621 0.145232 1.76385e-17)
(0.158564 0.0898477 -1.77598e-17)
(0.152944 0.0277057 0)
(0.188603 0.14172 -1.32507e-17)
(0.146037 0.103877 0)
(0.16147 -0.0222251 -1.79044e-17)
(0.159121 0.0790162 0)
(0.160644 0.0433639 4.4488e-18)
(0.14887 0.123544 4.43759e-18)
(0.158521 0.0688743 0)
(0.170811 0.103871 4.43467e-18)
(0.129888 0.0657477 1.55673e-17)
(0.152407 0.0891018 1.33275e-17)
(0.063231 0.210018 0)
(0.161248 0.0274833 -1.33706e-17)
(0.20556 -0.141879 0)
(0.12786 0.076781 0)
(0.127596 0.0696748 -1.6035e-17)
(0.156789 0.101016 0)
(0.198955 -0.149111 0)
(0.145019 0.0276665 -4.65383e-18)
(0.110695 -0.116932 2.25799e-17)
(0.153585 0.112334 -1.77571e-17)
(0.170345 0.0445618 -1.77928e-17)
(0.180298 -0.18354 1.86001e-17)
(0.199635 0.157655 1.78975e-17)
(0.167586 0.117143 0)
(0.15322 0.0789307 -4.44559e-18)
(0.127018 0.0836927 0)
(0.10438 -0.111549 -9.3076e-18)
(0.158593 0.107691 -1.55386e-21)
(0.18364 0.0983796 0)
(0.154565 -0.0172897 -2.27479e-17)
(0.12962 0.0809767 0)
(0.193954 0.124328 -4.42129e-18)
(0.189701 0.163968 1.39787e-17)
(0.187424 -0.138922 1.79032e-17)
(0.154494 0.119501 1.77485e-17)
(0.161355 0.0377923 1.33564e-17)
(0.12108 0.0826945 -7.4541e-18)
(0.171056 0.0383144 3.55876e-17)
(0.165793 0.109459 1.77377e-17)
(0.187015 0.13104 -4.41879e-18)
(0.177518 0.128316 0)
(0.131503 0.12067 0)
(0.0717891 0.140711 1.79497e-17)
(0.165158 0.046574 1.33431e-17)
(0.159601 -0.0180723 2.27608e-17)
(0.109162 -0.112194 -4.4751e-18)
(0.162042 0.0735825 0)
(0.102476 -0.119163 0)
(0.178312 -0.024543 0)
(0.192266 -0.171827 -1.77973e-17)
(0.153666 0.160457 0)
(0.067457 0.140137 -1.82521e-17)
(0.20922 -0.164352 3.12829e-17)
(0.212521 0.0983162 3.52889e-17)
(0.142531 0.0700778 -1.7802e-17)
(0.166917 -0.0233314 0)
(0.144914 0.0653259 -1.78076e-17)
(0.165941 0.03548 0)
(0.175746 0.119328 0)
(0.131729 0.114656 0)
(0.109676 0.11171 1.34692e-17)
(0.0794173 0.179764 0)
(0.119191 -0.25488 0)
(0.157234 0.0299291 0)
(0.105412 0.103607 0)
(0.12048 -0.162519 -4.52742e-18)
(0.0949466 0.171989 0)
(0.174579 -0.029675 2.2325e-17)
(0.142481 0.120559 -4.44413e-18)
(0.0739234 0.177822 0)
(0.148091 0.0565224 -1.78121e-17)
(0.166167 0.0296119 -4.45333e-18)
(0.0990562 -0.122986 4.65465e-18)
(0.139103 0.0964997 0)
(0.104875 0.0991828 -1.73339e-17)
(0.136517 0.130537 -1.78117e-17)
(0.148843 0.0296078 4.54593e-18)
(0.110441 0.10683 -1.34291e-17)
(0.141027 0.054145 2.27062e-17)
(0.107148 -0.120478 -1.80019e-17)
(0.137135 0.123812 0)
(0.190191 -0.146332 0)
(0.192335 -0.16472 0)
(0.0647962 0.143577 0)
(0.104541 0.117819 -1.34435e-17)
(0.126127 0.15325 -4.46014e-18)
(0.130803 0.133115 1.78251e-17)
(0.237677 -0.188001 1.05599e-17)
(0.143789 0.0572185 -4.49371e-18)
(0.102074 -0.11621 1.87595e-17)
(0.196634 0.107198 0)
(0.097243 0.115776 -1.42395e-17)
(0.152951 0.069076 4.44861e-18)
(0.176041 -0.0194226 0)
(0.147112 0.110158 -1.77759e-17)
(0.150351 0.0740288 4.44652e-18)
(0.0865683 0.165112 -2.24422e-17)
(0.108347 -0.125215 0)
(0.129307 0.139813 -3.57018e-17)
(0.0746881 0.136925 0)
(0.110578 0.144415 0)
(0.0618808 -0.164434 4.68294e-18)
(0.102094 0.150578 0)
(0.0989115 0.122958 -1.34744e-17)
(0.105877 0.113334 -4.48153e-18)
(0.0992059 -0.126433 -2.26138e-17)
(0.156963 0.0352808 4.45578e-18)
(0.152604 0.0370235 0)
(0.123937 -0.15125 -3.60969e-17)
(0.186958 0.177305 4.29565e-18)
(0.149713 0.0649252 1.33515e-17)
(0.18431 -0.15229 -1.34165e-17)
(0.136444 0.111483 -1.78137e-17)
(0.211363 0.118134 0)
(0.170072 -0.0185315 1.7877e-17)
(0.142223 0.113988 4.00032e-17)
(0.247408 0.11811 -2.29223e-17)
(0.145126 0.0742507 1.77931e-17)
(0.0816755 -0.168736 -1.82439e-17)
(0.0906463 0.120676 -1.60782e-17)
(0.100819 0.118622 -4.49188e-18)
(0.151661 0.0601868 -1.78026e-17)
(0.196816 0.0906005 0)
(0.123981 0.188911 0)
(0.170604 -0.118109 -4.49971e-18)
(0.0425688 -0.277093 0)
(0.190808 0.114771 2.21143e-17)
(0.162165 -0.0135921 0)
(0.178753 0.105059 0)
(0.13576 0.165276 2.22561e-17)
(0.105026 0.145194 0)