/*--------------------------------*- C++ -*----------------------------------*\
  =========                 |
  \\      /  F ield         | OpenFOAM: The Open Source CFD Toolbox
   \\    /   O peration     | Website:  https://openfoam.org
    \\  /    A nd           | Version:  9
     \\/     M anipulation  |
\*---------------------------------------------------------------------------*/
FoamFile
{
    format      ascii;
    class       volScalarField;
    location    "0.77";
    object      p;
}
// * * * * * * * * * * * * * * * * * * * * * * * * * * * * * * * * * * * * * //

dimensions      [0 2 -2 0 0 0 0];

internalField   nonuniform List<scalar> 
578
(
-4.1409e-13
-1.01639e-12
-3.1235e-13
6.79214e-14
-1.01546e-12
6.56361e-13
8.82054e-13
-8.45848e-13
-7.35903e-13
-1.54011e-12
3.56163e-13
-8.46355e-13
2.89553e-14
-9.66142e-13
8.23537e-13
-5.59044e-14
-4.91532e-13
-4.53217e-13
-6.65449e-13
-5.07875e-13
7.38485e-14
1.08359e-15
1.91929e-13
2.85503e-13
2.76533e-13
-6.23122e-13
-2.35223e-14
-9.30667e-14
-7.20101e-13
-3.0068e-14
-4.34807e-14
7.36213e-13
-3.42348e-13
1.01558e-13
7.35721e-13
-3.70528e-13
-8.67975e-13
-8.05761e-13
-4.20239e-14
-1.17388e-12
-9.32286e-13
-7.49064e-13
-9.27692e-13
8.66927e-13
-2.7463e-13
1.08521e-12
8.19678e-13
-7.94882e-13
-4.92898e-14
-4.2241e-14
1.00006e-12
2.73727e-14
9.22926e-13
9.33172e-14
1.23298e-14
-3.78848e-13
1.78713e-13
1.03518e-13
-2.46212e-13
-5.45675e-13
-4.79118e-13
-6.74148e-13
-6.64865e-13
-1.06484e-12
6.48018e-15
7.9895e-13
-2.15822e-13
4.68861e-13
2.69469e-13
-6.09281e-13
1.31206e-13
7.08967e-13
1.01299e-14
-7.14923e-13
3.50219e-13
-1.12943e-12
-9.1682e-13
-7.59882e-13
1.35669e-14
6.04688e-13
7.7819e-13
-7.87865e-13
1.16051e-12
1.0678e-12
1.63685e-13
5.95856e-13
1.15394e-12
-2.44964e-13
-6.90433e-13
5.58554e-13
-2.09578e-14
3.84076e-13
7.02975e-13
4.41544e-14
3.50501e-13
6.66675e-13
9.15156e-15
1.19926e-14
-1.44493e-12
8.18263e-13
7.71554e-13
-6.88876e-13
-2.07766e-14
4.86232e-13
-4.23832e-15
-9.73891e-13
3.87175e-13
-1.14296e-12
7.10857e-13
-1.01334e-12
-3.44625e-13
-6.51603e-13
-5.57818e-13
5.17374e-13
5.7517e-13
-8.78699e-15
5.74212e-14
-5.04071e-13
5.44709e-13
3.1584e-15
-5.50657e-13
1.48962e-12
-7.64982e-13
5.85863e-14
8.78743e-13
3.70047e-13
6.50474e-13
-5.1404e-14
6.73926e-13
9.88029e-14
6.88793e-13
3.28332e-13
4.60298e-14
-6.01161e-13
6.14564e-13
6.43682e-13
-9.95329e-13
-7.21602e-15
3.40371e-13
6.93881e-13
7.53059e-13
2.07769e-13
6.69408e-13
-2.0109e-13
-6.89323e-13
2.29389e-13
2.56237e-13
-6.3096e-14
-7.67182e-13
-2.78189e-15
-8.42577e-13
3.00378e-13
-9.91857e-13
-5.5392e-13
8.01479e-13
-4.1609e-14
-5.48995e-13
5.49097e-14
8.82947e-13
-8.5451e-13
-8.93506e-13
-8.71147e-13
7.9619e-13
-8.21273e-13
-3.60453e-13
2.21793e-13
-2.29044e-13
8.1172e-13
7.95852e-14
7.77874e-15
-7.52827e-13
-1.02157e-12
6.61823e-13
5.05481e-13
7.90013e-13
-1.29379e-15
1.47161e-14
-4.70971e-13
-8.18214e-13
-6.05419e-13
8.69886e-13
-8.08697e-13
4.7679e-13
1.5028e-14
6.74966e-13
-4.58122e-14
-7.23138e-14
8.97578e-13
7.93363e-13
-8.82243e-13
-9.07955e-13
-8.81755e-13
2.86016e-13
7.97324e-13
-1.21244e-12
1.85209e-14
1.16027e-13
-8.46019e-14
7.65528e-13
-9.09022e-13
6.51199e-14
2.61768e-14
1.60099e-12
-7.06428e-15
6.6373e-15
-9.25514e-13
7.42529e-13
-6.24381e-14
-8.7958e-13
1.08311e-13
1.39479e-13
7.41765e-13
5.8551e-13
2.41496e-14
6.04238e-13
4.7653e-14
7.90432e-13
-9.01569e-13
7.9248e-13
3.13955e-13
-8.93917e-13
7.84397e-13
-3.99072e-13
-9.10767e-13
8.72232e-13
3.67809e-13
2.66482e-14
9.31035e-14
-6.77864e-14
-6.80349e-13
-1.37851e-12
1.5311e-12
5.69425e-13
-3.60284e-13
3.52353e-13
-6.83218e-13
-9.33707e-13
8.36626e-13
3.67227e-14
-1.4893e-13
8.42835e-13
-1.02667e-12
8.53053e-15
8.49387e-13
-8.00608e-14
-6.94319e-13
6.99505e-13
-1.34038e-12
5.65378e-13
3.87861e-14
1.96543e-14
4.95808e-13
8.37212e-13
1.02597e-13
7.60766e-13
-2.18028e-13
-5.20127e-13
7.53204e-13
-7.70182e-13
1.37275e-12
-3.35507e-13
8.71154e-13
1.17188e-13
1.31905e-13
-8.02103e-13
-4.80649e-13
2.43455e-13
-1.699e-13
-1.08896e-12
2.91965e-13
-2.95792e-13
2.893e-13
1.29629e-13
2.15606e-14
3.2679e-14
3.97106e-14
-5.18416e-15
1.57137e-13
8.11451e-13
7.16679e-14
-9.61099e-13
1.78589e-14
2.31283e-14
2.82047e-14
4.18637e-14
6.61455e-13
-4.14443e-13
3.86578e-13
1.54802e-13
1.14387e-13
1.17257e-13
4.69614e-13
-1.33072e-14
7.33867e-13
1.0471e-13
1.23796e-13
-9.56377e-13
-1.02739e-13
-3.10539e-14
9.98225e-14
4.94753e-14
-1.23524e-13
2.06078e-14
-1.21148e-13
1.22651e-13
4.32682e-14
-1.76634e-15
-4.77829e-13
5.85671e-14
4.56235e-14
-2.63752e-13
-2.91703e-14
3.80818e-14
-1.38631e-13
9.59184e-14
2.60169e-14
4.30383e-13
-1.12159e-13
-2.48654e-13
9.53279e-14
4.52333e-13
2.15998e-14
2.322e-14
1.97506e-13
7.43584e-15
-9.27084e-15
7.36322e-13
7.78732e-13
-9.00981e-13
-1.99979e-14
-2.12233e-15
6.40742e-13
1.49891e-14
-2.17275e-15
5.50333e-13
1.40336e-13
4.08612e-14
5.8652e-15
-2.62476e-13
-1.27153e-14
2.61843e-14
2.74744e-14
-3.4145e-14
-3.78035e-13
8.24052e-14
7.33129e-13
4.11206e-13
6.36005e-13
-7.0418e-13
7.32969e-13
-7.85884e-13
-8.7227e-13
7.81109e-13
-2.41132e-13
-1.10071e-12
1.01555e-12
1.4583e-13
9.65828e-13
-1.15058e-12
1.02426e-12
5.55376e-15
-3.6593e-13
1.03763e-13
-5.56442e-13
3.24503e-14
4.46045e-14
-4.52197e-14
6.49872e-13
3.57642e-14
-8.99675e-14
-8.24066e-13
-7.293e-13
2.76992e-13
4.3713e-13
2.81231e-13
1.09379e-12
-1.84792e-14
7.20619e-13
-8.24786e-13
-1.87265e-13
3.1524e-15
-8.44012e-13
7.87e-13
1.7665e-13
1.11776e-13
-5.65825e-15
-2.32942e-15
9.6745e-13
9.0392e-13
-6.44807e-13
2.13277e-14
1.6632e-13
2.00328e-13
-2.29304e-13
-1.03633e-13
7.82431e-14
6.90142e-13
-1.09006e-13
1.27647e-13
2.89212e-13
-2.79353e-14
6.02203e-13
-2.43209e-15
-5.02702e-13
-6.97387e-15
-1.04039e-13
4.53386e-13
-2.17882e-13
2.78596e-13
5.05686e-13
-6.75198e-14
-6.78686e-13
-3.33684e-13
4.13049e-13
-2.47463e-13
3.23164e-13
-7.36114e-13
6.36581e-13
-9.58436e-13
-3.50453e-14
7.10177e-13
4.45693e-13
-7.8437e-13
8.50719e-13
5.51449e-13
-3.70928e-13
-5.81727e-13
-5.18032e-13
-7.24875e-13
-3.47338e-13
5.04859e-13
1.82542e-13
1.46572e-13
2.27835e-14
4.88244e-13
-4.84047e-13
-8.39411e-13
-4.51793e-13
-4.86873e-13
-2.0333e-13
-3.74897e-13
5.11132e-14
6.20126e-14
-3.51435e-14
6.30734e-13
-1.51038e-13
-5.71195e-14
5.47666e-13
5.37731e-13
-1.98644e-14
7.29973e-13
-1.73115e-14
5.56457e-13
3.56481e-14
7.21071e-13
2.35651e-14
-9.58797e-13
2.25474e-13
2.07931e-13
-5.55993e-13
1.20263e-12
6.48229e-13
-4.41737e-13
-4.95932e-13
-1.36617e-13
-6.46991e-13
4.95209e-13
-9.61843e-13
-2.78436e-13
-4.66461e-13
-9.78849e-14
-1.06313e-13
4.77663e-13
-4.03395e-14
-1.48658e-13
-7.53015e-13
-5.40686e-13
-6.15406e-13
-3.44974e-13
-5.40295e-13
2.05406e-13
2.94852e-13
-2.49634e-13
-8.1146e-14
-3.60709e-14
-4.37508e-13
-2.27239e-13
-3.19551e-14
-1.99219e-14
6.93834e-13
5.20952e-14
5.04152e-13
-2.91522e-13
5.05315e-14
-1.14464e-14
5.73788e-13
9.06931e-15
6.56415e-13
-2.80073e-14
4.8133e-14
-9.32373e-13
-1.17979e-13
-4.81087e-13
4.68011e-14
-4.71162e-13
-2.97969e-14
6.43721e-13
7.43848e-14
4.44435e-13
-2.0154e-14
-3.77074e-14
8.27666e-13
5.35875e-14
1.05766e-12
7.24856e-13
-2.35189e-14
-8.33843e-13
-1.12664e-12
5.46957e-13
4.24928e-14
2.91236e-13
3.51883e-13
-1.7962e-13
-6.54894e-13
-7.16064e-13
3.47635e-14
-1.20243e-13
7.91804e-14
-7.88548e-13
-6.77918e-13
-8.27457e-13
-8.19297e-13
-8.91888e-14
-4.25422e-14
7.06684e-13
5.23026e-13
4.94985e-13
6.09949e-13
5.25778e-13
-4.08163e-14
5.93756e-14
6.77277e-13
-4.57608e-13
-6.23632e-13
8.41262e-13
1.2679e-13
3.44294e-13
-4.78673e-13
-4.19877e-13
-5.77044e-13
4.18747e-13
7.83243e-13
-5.62631e-13
7.26326e-13
4.70123e-13
-2.71607e-13
-8.63951e-13
-7.26364e-14
2.96404e-14
-3.19547e-14
-2.1373e-14
7.80848e-13
-7.51713e-13
-3.16428e-14
5.18144e-14
4.86492e-13
3.38567e-14
-4.25906e-13
-2.16397e-14
4.20405e-14
6.76969e-13
-5.03143e-13
4.8033e-13
-6.62317e-13
-2.89734e-13
3.3157e-13
3.63306e-13
2.50037e-13
)
;

boundaryField
{
    front
    {
        type            empty;
    }
    back
    {
        type            empty;
    }
    bottom
    {
        type            uniformFixedValue;
        uniformValue    
        {
            type            scale;
            scale           
            {
                type            squarePulse;
                start           0.3;
                duration        0.3;
            }
            xScale          
            {
                type            constant;
                value           1;
            }
            value           
            {
                type            constant;
                value           15.1;
            }
        }
        value           uniform 0;
    }
    left
    {
        type            zeroGradient;
    }
    top
    {
        type            zeroGradient;
    }
    right
    {
        type            zeroGradient;
    }
    inner_arc
    {
        type            zeroGradient;
    }
}


// ************************************************************************* //
