/*--------------------------------*- C++ -*----------------------------------*\
  =========                 |
  \\      /  F ield         | OpenFOAM: The Open Source CFD Toolbox
   \\    /   O peration     | Website:  https://openfoam.org
    \\  /    A nd           | Version:  9
     \\/     M anipulation  |
\*---------------------------------------------------------------------------*/
FoamFile
{
    format      ascii;
    class       volVectorField;
    location    "2.73";
    object      U;
}
// * * * * * * * * * * * * * * * * * * * * * * * * * * * * * * * * * * * * * //

dimensions      [0 1 -1 0 0 0 0];

internalField   nonuniform List<vector> 
942
(
(0.0264674 -0.0686455 0)
(0.00744493 -0.022186 2.79005e-17)
(0.0471658 0.111906 0)
(0.0102712 -0.0788365 -1.4742e-17)
(0.0492803 0.124335 8.83806e-18)
(0.0813778 -0.0928027 1.5506e-17)
(0.00355922 -0.007444 4.10094e-17)
(0.102768 -0.100105 0)
(0.00445359 -0.0483516 -3.22895e-17)
(0.00528132 -0.0530139 3.29124e-17)
(0.0442078 0.029284 0)
(0.0985037 0.015633 0)
(0.00974278 -0.0801829 1.37487e-17)
(0.0482751 0.0376189 0)
(0.101473 0.0282182 0)
(-0.0214188 -0.0195482 -3.03267e-17)
(-0.0159648 -0.0272 -1.19602e-17)
(0.0223721 -0.0694987 0)
(-0.0482932 -0.0212569 -3.57297e-18)
(-0.00603566 -0.00426295 5.4852e-18)
(0.00740826 -0.00558302 2.03917e-17)
(0.122307 0.0139857 1.63484e-17)
(0.0251689 -0.0327359 0)
(-0.0258233 -0.0397407 -3.23407e-17)
(0.0551943 0.0358718 0)
(-0.0308612 -0.0497643 2.43035e-17)
(0.0470682 0.127155 0)
(0.0264752 -0.0352495 2.06591e-17)
(-0.0438857 -0.0469703 0)
(0.0196543 -0.0503618 1.30547e-17)
(-0.0333522 -0.0333075 1.63872e-17)
(0.0403263 0.119556 0)
(-0.0401205 -0.0448853 1.54114e-17)
(-0.0126631 0.0341632 1.81601e-17)
(0.0539854 0.110784 -1.7754e-17)
(-0.0245881 -0.0346481 3.40612e-17)
(-0.0285681 -0.0936023 1.14831e-18)
(0.00531467 -0.0417832 0)
(-0.000362637 -0.075833 -5.88804e-19)
(-0.0275387 -0.0369357 2.30823e-17)
(-0.0311697 0.064225 -3.23349e-17)
(0.024125 -0.0765606 0)
(-0.0177647 -0.0195401 -1.59664e-17)
(0.00643635 -0.0171574 -1.36718e-17)
(0.00825149 -0.0165918 -3.45889e-17)
(-0.0407703 -0.042948 7.79605e-18)
(-0.0528649 -0.0164802 -1.58283e-17)
(-0.0360283 0.0213838 -1.49749e-17)
(-0.0833156 0.0659292 1.66387e-17)
(0.0594774 0.0447396 1.94753e-17)
(-0.0503171 -0.019362 0)
(0.0174835 -0.0247987 0)
(-0.0144851 -0.0154022 -2.2952e-17)
(-0.00144284 -0.0426321 1.83208e-17)
(0.00539175 -0.0655766 0)
(-0.0819797 0.0243165 -1.21491e-17)
(-0.0128733 0.0110878 -3.07581e-17)
(0.00693048 -0.068677 -2.20509e-18)
(-0.0339028 0.0215659 3.93449e-17)
(0.117232 -0.0219297 1.70138e-17)
(0.0155581 -0.0370468 -1.62261e-17)
(0.0502508 0.117875 -4.17756e-17)
(0.0407336 0.0337249 1.95409e-17)
(0.0290399 -0.0617294 -1.59069e-17)
(0.00839743 -0.042256 1.50805e-17)
(-0.0210531 -0.00103861 1.16054e-17)
(0.043148 0.110244 3.26649e-17)
(-0.0305972 -0.00417455 -1.49981e-17)
(-0.116687 0.0342791 1.53529e-17)
(0.0170697 -0.0423796 4.23895e-18)
(-0.00766198 -0.0158715 0)
(0.00642032 -0.0323034 0)
(-0.0441217 -0.00946812 -2.00543e-18)
(0.0167951 -0.0572234 3.91307e-18)
(-0.00948524 -0.0437783 -1.7361e-17)
(0.00292023 -0.0064228 -2.83753e-24)
(-0.00659883 -0.00998649 2.0207e-18)
(0.0460806 0.101456 1.80438e-17)
(-0.0221694 -0.0210754 -1.96102e-17)
(-0.00496068 -0.0140242 -3.97366e-18)
(0.0351076 -0.0474021 2.34708e-17)
(-0.0359989 -0.0438504 -8.45496e-18)
(0.0367904 0.0209073 -2.13816e-18)
(-0.031929 -0.0072894 8.74561e-18)
(-0.0400569 0.00500085 0)
(0.0361781 0.140743 0)
(0.0800729 -0.0124842 -1.78628e-17)
(0.0355721 0.0205823 4.9244e-18)
(0.0581668 0.0467886 0)
(0.0473444 0.0250115 2.44612e-17)
(0.0482251 -0.0391197 -1.24621e-17)
(0.0307383 0.0546703 5.63433e-19)
(0.00693014 -0.0748616 2.4814e-18)
(-0.0409755 0.0361579 0)
(-0.081408 -0.00728636 -4.79244e-18)
(0.0481824 0.0084694 8.87502e-18)
(-0.0204661 -0.0865844 1.52477e-17)
(0.0238407 0.0160968 -1.43391e-17)
(0.038668 -0.0612433 -2.11577e-17)
(0.00945871 -0.0337429 -3.02939e-17)
(0.0126441 -0.0298123 -9.10435e-18)
(0.00585057 -0.07694 1.02739e-17)
(-0.0472735 -0.0177496 0)
(0.0159803 -0.038116 1.16623e-17)
(-0.0452915 -0.0206557 -1.84254e-17)
(0.0176474 -0.0315141 -2.97241e-17)
(-0.0393324 -0.0386535 -1.04749e-17)
(-0.0394016 -0.046963 0)
(-0.0386719 -0.000510387 1.62007e-17)
(-0.0458524 -0.0114563 0)
(-0.121659 0.0325827 0)
(-0.116579 0.0608715 -1.62004e-17)
(0.0415207 -0.00735891 3.25706e-17)
(0.00606549 -0.0368659 0)
(0.0560128 0.0373438 0)
(0.017502 0.0313935 2.19765e-18)
(0.087149 -0.0303699 -1.74938e-17)
(0.013734 -0.0775565 1.86295e-17)
(0.00627241 -0.0173572 -6.72723e-23)
(0.153359 0.0698807 -2.12039e-18)
(0.0131123 -0.021118 7.09043e-18)
(-0.0962214 -0.00385262 -1.81835e-17)
(-0.0034744 0.000333397 0)
(-0.0502417 -0.0120746 1.60968e-17)
(-0.0642683 -0.00352978 1.30302e-17)
(-0.0203304 -0.0396817 -3.4822e-17)
(0.00978175 -0.0175887 1.83764e-17)
(-0.0276034 -0.031607 -1.75473e-17)
(-0.0314558 -0.0386785 3.2091e-17)
(-0.0300241 -0.00878159 1.67793e-17)
(-0.0316418 -0.0117985 -8.64749e-18)
(-0.0274152 -0.0197309 -2.00077e-17)
(-0.0369901 -0.0101465 0)
(-0.0548571 0.0254513 0)
(-0.0386113 0.00775909 -1.7985e-17)
(-0.0298354 -0.0279038 -1.2498e-17)
(-0.12743 0.0433878 1.08407e-18)
(-0.0354983 -0.00488063 0)
(-0.151357 0.0613204 2.21693e-17)
(-0.132897 0.0585075 -7.5967e-18)
(-0.0929064 0.0441467 1.78994e-17)
(-0.0309778 -0.0349897 0)
(0.0376823 -0.0213481 -1.7919e-17)
(-0.00447031 -0.0281831 1.93283e-17)
(0.108176 -0.0818567 -4.47776e-18)
(-0.0401823 -0.0419017 -8.16416e-18)
(0.0127757 -0.031205 0)
(0.00868811 -0.0376267 -1.08267e-17)
(-0.0477536 -0.0691609 2.71722e-17)
(0.0416171 0.143878 0)
(0.133166 -0.0789615 4.83828e-18)
(0.159583 0.0313633 5.3615e-18)
(0.0509336 0.0836605 0)
(0.0210417 -0.0432478 1.01342e-17)
(0.0489083 0.0931389 -1.76562e-17)
(0.009367 -0.0600491 0)
(-0.0408379 0.0133469 1.99124e-17)
(0.00190345 -0.0160562 0)
(0.12273 -0.0323956 0)
(0.0334725 -0.000680792 7.36488e-18)
(-0.0220686 0.0243483 -2.5752e-17)
(0.00759479 -0.055077 0)
(0.00692793 -0.0768594 0)
(0.105552 -0.0273068 9.04563e-18)
(0.145119 0.0270278 0)
(0.0503735 0.0497454 -2.6981e-17)
(0.0156411 -0.0347202 0)
(0.0206387 -0.0468774 0)
(-0.0391688 -0.0472102 1.5917e-17)
(-0.0408567 -0.0117112 1.89764e-17)
(-0.0145407 0.00789836 -1.58518e-17)
(-0.0852927 0.0562108 -2.08703e-18)
(-0.121731 0.0045282 7.95898e-21)
(0.0253846 -0.0357264 1.01902e-17)
(0.0396286 0.155845 0)
(0.0251554 -0.0619683 -1.97882e-17)
(0.0328698 0.00744228 -1.87688e-17)
(0.0236064 -0.0624668 0)
(-0.00865902 0.0238756 6.52973e-19)
(0.0282104 -0.0647788 0)
(0.0175937 -0.0367154 -1.19025e-17)
(-0.0436915 -0.048505 0)
(-0.054633 -0.0915952 -2.32062e-17)
(0.027675 -0.0660123 1.92554e-22)
(0.0191559 -0.0657882 -1.1785e-17)
(-0.0431948 -0.0478478 0)
(0.0716322 -0.0175923 -9.30695e-18)
(0.0379386 0.0789019 1.86282e-17)
(0.0499803 0.155256 2.64273e-17)
(0.0305991 -0.0670266 8.91356e-18)
(0.0707579 0.13632 3.56876e-17)
(0.0306065 -0.0650133 -8.93321e-18)
(0.0276115 -0.0462119 -1.13123e-17)
(-0.0214032 -0.014733 -1.71459e-17)
(0.0314331 0.0636789 9.43332e-18)
(0.012236 -0.0786782 -8.48403e-18)
(0.0314213 0.066397 0)
(0.0252123 -0.0520202 3.03315e-17)
(-0.0331532 0.0599888 -2.19643e-17)
(-0.000147212 -0.0020912 1.65283e-17)
(0.00136842 -0.00864519 0)
(0.0155881 -0.0784279 8.61271e-18)
(0.0151095 0.0253723 0)
(-0.0251666 -0.0347525 -2.00279e-17)
(0.0107186 -0.0110249 1.90355e-17)
(-0.0357425 0.0629312 0)
(-0.106744 -0.0183725 1.8746e-17)
(0.0489872 0.112616 -4.10384e-17)
(-0.00696589 -0.0099562 -1.59654e-17)
(-0.0114677 -0.0346731 1.57816e-17)
(0.0368411 0.081936 -9.15042e-18)
(0.0171203 -0.0753432 3.64281e-22)
(0.00891001 -0.058267 1.46216e-17)
(0.0602592 0.13655 8.69e-18)
(0.00110135 0.00124692 0)
(0.0286403 -0.0756639 -8.3942e-23)
(0.0516668 0.15975 -2.17018e-17)
(0.0978403 0.118101 1.82389e-17)
(0.0407977 0.0874743 1.81283e-17)
(0.0377398 0.0749458 -4.33436e-22)
(0.0339736 -0.0723074 0)
(0.0270805 -0.075712 -1.75194e-17)
(0.0333949 -0.065182 0)
(0.022837 -0.0766018 0)
(0.002469 -0.00948818 -1.82929e-17)
(0.01564 0.0536975 1.81652e-17)
(0.0655855 0.138013 -1.28014e-17)
(0.03759 -0.0666777 -1.80095e-17)
(0.00383339 -0.00762691 2.68091e-17)
(0.029849 0.0493385 0)
(-0.036181 -0.0363349 -1.67073e-17)
(0.0534316 0.125242 -3.21021e-17)
(0.0167927 0.0415323 1.75995e-17)
(0.00305912 -0.00427014 -9.64372e-18)
(0.0314892 -0.0743676 -9.05416e-18)
(0.0146882 -0.0720811 2.93339e-22)
(0.0924789 0.121848 -1.89226e-17)
(0.0356873 -0.070759 1.80875e-17)
(0.0100063 0.0307036 -1.73737e-17)
(0.0517378 0.0943114 1.79232e-17)
(0.0510258 0.083247 0)
(0.0211895 -0.0447929 -4.4108e-18)
(0.0369907 -0.0669087 8.9225e-18)
(0.0238576 -0.0539385 -1.00781e-17)
(0.0255777 -0.0578211 -1.78333e-17)
(0.00648187 0.0217361 -1.8077e-17)
(0.035081 -0.0641082 8.97666e-18)
(0.0260346 -0.0760137 -9.72482e-18)
(0.0384159 -0.0661799 -1.80164e-17)
(0.0113817 0.0336743 4.44614e-18)
(0.0678163 0.140815 -4.5082e-18)
(0.0180425 0.0668233 -1.65756e-17)
(0.0757732 0.136756 0)
(-0.00382468 0.0165446 1.34262e-17)
(0.0273622 -0.0597134 1.77208e-17)
(0.0203322 -0.0747818 1.96944e-17)
(0.0361237 -0.0677673 0)
(0.0337628 -0.0623569 0)
(0.105892 0.111922 -8.91639e-18)
(0.0227387 -0.0514023 1.00393e-17)
(0.0329076 -0.070779 -8.86052e-18)
(0.11032 0.110176 8.7671e-18)
(0.0655012 0.129829 -2.20167e-17)
(0.0297126 -0.058494 -4.68547e-18)
(0.0338544 -0.0627735 9.3266e-18)
(0.00746692 -0.0491279 0)
(0.024236 -0.0561356 0)
(0.0321675 -0.0650092 0)
(-0.0236391 -0.0165095 1.69993e-17)
(0.030719 -0.0728747 9.07815e-18)
(0.0123283 -0.0832077 1.71481e-17)
(0.0580595 0.150048 -1.6427e-17)
(0.0125356 0.0674768 1.9392e-17)
(0.0604771 0.143948 -8.66043e-18)
(0.0506891 0.112333 1.82262e-17)
(0.100697 0.106345 -1.81603e-17)
(-0.0179793 -0.0214122 0)
(0.0278018 -0.111956 0)
(0.0653151 0.1257 -8.98073e-18)
(0.0150883 -0.0244403 -1.86656e-17)
(0.0264791 -0.057622 0)
(-0.0657653 -0.0345226 -1.52765e-18)
(0.0161721 -0.0356831 1.89505e-17)
(0.0200013 -0.107041 0)
(0.0840973 0.0479953 3.53589e-17)
(0.148671 -0.039877 -1.74751e-17)
(0.0221203 -0.0760739 2.6605e-17)
(0.0216709 -0.0868745 1.76943e-17)
(0.0281503 -0.0563402 4.59001e-18)
(0.0283341 -0.0601527 4.56203e-18)
(0.0800042 0.0464134 -1.79317e-17)
(0.0778632 0.0756335 2.09898e-17)
(0.093083 0.0932211 -8.12987e-18)
(-0.053518 -0.13859 1.98075e-17)
(0.0326319 -0.0943766 5.02915e-18)
(-0.00641976 -0.0124726 -1.62919e-17)
(0.159513 -0.0152022 0)
(0.165095 -0.0313225 9.05586e-18)
(0.167097 0.000433214 8.44302e-18)
(0.156552 -0.0442985 0)
(0.125047 -0.00717453 0)
(0.0228975 -0.0815981 -9.10202e-18)
(0.176146 0.0696542 -4.07604e-18)
(0.177521 0.0819736 -2.82628e-17)
(0.101853 0.00292156 -2.83269e-17)
(0.0370105 -0.0671424 8.89777e-18)
(0.122024 0.00747223 -2.82505e-17)
(0.021453 -0.000825834 0)
(-0.000898827 -0.000470259 -8.228e-18)
(0.0174264 0.0263422 1.71896e-17)
(-0.00243711 -0.000598813 1.39458e-17)
(0.00206226 -0.000549456 1.37815e-22)
(0.0477023 -0.0182772 -2.45944e-18)
(-0.0347398 -0.0110521 -1.71525e-17)
(-0.00774109 -0.142394 5.18699e-21)
(0.0103831 0.00875737 2.7685e-17)
(0.00675618 -0.0145135 -1.88204e-17)
(-0.0344652 0.00932145 -1.1485e-21)
(0.00123895 0.000232378 -4.877e-18)
(0.0298683 -0.00905563 0)
(-0.0132588 -0.0102618 -5.03958e-18)
(0.0137083 0.0154283 0)
(0.000229256 -0.00397778 1.97594e-17)
(-0.0475252 -0.00356034 -3.51916e-17)
(0.0787951 0.0627669 -2.21762e-17)
(0.112294 0.0996573 -1.80494e-17)
(0.00331545 0.00103698 0)
(-0.0392644 -0.154485 -9.1175e-18)
(0.0521614 -0.100517 0)
(0.036278 -0.040155 0)
(0.0578662 0.0293166 -3.55238e-17)
(-0.0269624 -0.126853 -1.55982e-17)
(0.0682469 -0.153393 8.85615e-18)
(0.185784 0.0842788 -1.59818e-17)
(0.0768254 -0.136504 0)
(0.0664864 0.0325374 1.77699e-17)
(0.166701 0.0670119 1.00936e-17)
(-0.0285152 -0.0152265 -5.25473e-19)
(0.0124623 0.00396534 0)
(-0.0715437 0.00933499 -1.75592e-17)
(0.0544851 0.00196568 2.6144e-17)
(0.0983542 0.00768079 -1.77904e-17)
(0.0972744 -0.0286633 -4.62687e-18)
(0.0568887 0.017818 -4.44308e-17)
(0.15936 -0.0476655 -1.79485e-17)
(0.0295538 0.00973205 0)
(0.155136 -0.0349245 1.82697e-17)
(0.0296198 -0.136559 1.76805e-17)
(0.0249742 -0.0772352 1.76912e-17)
(0.159069 -0.0373652 -8.82999e-18)
(0.0403071 0.01456 1.78064e-17)
(0.156309 -0.00893262 1.26536e-21)
(-0.015805 -0.162464 -4.48837e-17)
(0.156104 0.0271578 -9.31667e-18)
(-0.0124907 -0.00867131 -1.59083e-17)
(0.0553218 -0.129823 0)
(0.146573 -0.00766896 1.79963e-17)
(-0.0244666 -0.150862 0)
(0.13875 0.0210574 8.84329e-18)
(0.121024 0.00534839 1.77878e-17)
(0.160968 0.058354 2.26328e-17)
(0.184525 -0.052303 0)
(0.0663366 0.0449995 -2.51537e-18)
(0.00115835 -0.104998 1.50979e-17)
(0.195131 0.0856892 -1.78465e-17)
(0.0646208 0.0460933 9.41419e-18)
(0.173047 -0.0176916 -8.9848e-18)
(-0.0131173 -0.00796561 4.10762e-17)
(0.163434 0.0215012 2.66859e-17)
(0.082758 -0.0040115 -4.63728e-18)
(0.126125 0.0613446 0)
(0.0299508 0.000840082 1.76127e-17)
(-0.0178238 -0.00438225 -8.92451e-18)
(0.0922051 -0.0876368 -1.71711e-17)
(0.0967783 0.0263259 8.95492e-18)
(0.158585 -0.043967 8.83788e-18)
(0.113213 0.0193006 8.96922e-18)
(0.161454 -0.0433956 1.83016e-17)
(0.00708602 -0.102456 8.70851e-18)
(0.152554 -0.0242558 8.8199e-18)
(-0.00879459 -0.00928746 2.00845e-17)
(0.0080359 -0.0128878 0)
(-0.0280111 -0.000358261 1.79614e-17)
(-0.0707031 0.0228074 0)
(-0.0163552 -0.0149917 4.46089e-18)
(0.146582 0.00804296 2.79272e-17)
(0.186215 0.0838749 3.51856e-17)
(0.108513 0.0511315 2.73413e-18)
(0.157448 -0.0225459 -3.65207e-17)
(0.146186 0.0402198 -3.74041e-17)
(-0.0179969 -0.00556855 -9.12649e-18)
(-0.100846 0.0482444 -4.52115e-18)
(0.098803 -0.123417 0)
(0.0514592 0.0183656 1.8398e-17)
(-0.0529804 0.0134267 4.78668e-18)
(0.121429 -0.121819 0)
(0.19181 0.00344823 1.74596e-17)
(-0.0186427 -0.00464889 4.67937e-18)
(-0.0184854 -0.0210048 9.22516e-18)
(-0.0993801 0.0453528 -1.15595e-18)
(-0.0805575 0.034416 -7.99294e-18)
(0.048113 -0.148 -2.62877e-17)
(0.0474495 0.0428394 0)
(0.177978 -0.0349578 8.35049e-18)
(0.178432 0.0504813 0)
(0.100604 0.0445602 0)
(-0.00623636 -0.0592998 0)
(0.148483 0.00738225 0)
(0.11768 -0.0512368 8.81285e-18)
(0.00374693 -0.0211151 2.69432e-17)
(-0.0183489 -0.0232459 -1.92279e-17)
(0.10206 0.0546968 8.88979e-18)
(0.187236 -0.0369198 0)
(0.152321 0.06393 2.65715e-17)
(0.194901 0.0733131 0)
(0.00505248 -0.122277 -8.8868e-18)
(-0.0138994 -0.14857 8.86252e-18)
(0.14256 -0.0882509 8.7632e-18)
(0.109605 0.0609744 1.7728e-17)
(0.110458 -0.105562 8.78542e-18)
(0.166669 -0.0775055 1.83767e-17)
(0.175854 -0.000333164 -3.53511e-17)
(0.126266 -0.113637 0)
(0.0423815 -0.16006 -8.73388e-18)
(0.200381 0.0598765 1.76299e-17)
(0.17104 0.074541 -1.76668e-17)
(0.110646 0.0416172 0)
(0.0846499 0.0129501 1.85829e-17)
(0.100635 0.0402345 1.78946e-17)
(0.019993 0.0143899 -3.32407e-17)
(0.0117125 0.0338319 0)
(0.117354 0.0307975 1.78743e-17)
(0.0484999 0.0389247 0)
(0.119794 0.0284392 0)
(-0.00604387 -0.0375547 0)
(0.150253 -0.0975374 0)
(0.127726 -0.027168 2.65413e-17)
(0.0954527 -0.137624 0)
(0.155543 -0.0354292 8.86566e-18)
(0.0661483 0.0327405 -1.8769e-17)
(0.0828825 -0.136507 8.75616e-18)
(0.173965 0.0192522 -1.61407e-17)
(0.14773 -0.0421605 -1.77511e-17)
(0.0704371 0.00755408 0)
(0.0101031 -0.11143 -1.76602e-17)
(0.118368 0.053033 -2.66435e-17)
(0.14103 0.0347712 0)
(0.138076 0.0440551 0)
(0.167389 -0.0547037 0)
(3.94262e-05 -0.16712 1.75723e-17)
(0.148831 0.00731564 1.12693e-22)
(0.113546 0.0446855 1.12311e-22)
(0.0969219 0.0256675 -1.83577e-17)
(0.0286166 -0.167259 0)
(0.144148 0.0344414 0)
(0.114867 0.0578337 0)
(0.134084 0.045081 0)
(0.0334565 -0.0252949 0)
(-0.000464585 -0.163333 -8.81996e-18)
(0.126857 0.0416296 -1.8037e-17)
(0.119886 0.000804752 2.66844e-17)
(0.138517 -0.0441878 -8.85618e-18)
(-0.0405222 -0.0423624 1.78759e-17)
(0.143731 0.0200265 -8.83046e-18)
(0.0982387 0.0664689 9.0001e-18)
(0.130171 0.0200185 -8.87253e-18)
(0.0352881 -0.134358 0)
(0.102841 0.0143709 -1.78787e-17)
(0.109381 -0.0136835 -3.54153e-17)
(0.128898 0.079063 0)
(0.121062 -0.0353357 -1.76996e-17)
(0.108957 -0.0402616 -1.79909e-17)
(0.134781 -0.0435775 0)
(0.162072 0.0691735 0)
(0.120367 0.0722097 4.78456e-22)
(0.0984645 0.0897265 8.06706e-18)
(0.198497 0.0147356 0)
(0.128915 -0.00612435 -2.65833e-17)
(0.182186 0.0700658 0)
(0.100064 0.063521 0)
(0.0310162 -0.0727261 -1.76212e-17)
(0.118522 0.0755633 -1.77007e-17)
(0.151013 -0.0216079 0)
(0.131804 0.0768896 -1.76683e-17)
(0.19969 0.0384415 -8.81694e-18)
(0.132279 0.0634344 1.76681e-17)
(0.124693 0.0595075 -1.81776e-17)
(0.144564 -0.0332185 1.77384e-17)
(0.197366 -0.00824928 0)
(0.129166 0.084726 -8.82859e-18)
(0.106681 0.0664261 -3.12761e-17)
(0.138744 0.0555215 0)
(0.123775 0.07528 0)
(0.147084 -0.00845312 2.64886e-17)
(0.0251103 -0.0830347 -1.73189e-17)
(0.113654 0.104036 0)
(0.132965 0.070738 1.76662e-17)
(0.0968267 0.110835 3.72214e-17)
(0.135947 0.0557913 -1.76619e-17)
(0.00964305 -0.150223 0)
(0.119608 0.0550169 3.76431e-17)
(0.124943 0.0834136 8.8214e-18)
(0.0285648 -0.155087 0)
(0.117517 0.0953476 1.76548e-17)
(0.0932769 -0.013382 -9.73561e-18)
(0.102795 0.10399 0)
(0.121916 -0.029266 0)
(0.0596095 -0.0316215 0)
(0.0730617 0.0496893 1.56337e-17)
(0.0420728 -0.0245285 -8.60906e-18)
(0.185167 0.0419279 -2.15382e-17)
(0.124114 0.0886273 0)
(0.113587 0.0943026 9.07589e-18)
(0.112179 0.0807329 -1.76748e-17)
(0.105672 0.0714128 2.98482e-17)
(0.0147804 -0.123221 0)
(0.102978 0.0825477 -7.67541e-18)
(0.122202 0.0966171 0)
(0.0857456 -0.0361719 0)
(0.0516715 0.0315763 0)
(0.129364 0.0435838 0)
(0.115698 -0.0185213 8.90241e-18)
(0.0928252 -0.034858 0)
(0.12322 0.0908272 0)
(0.0694737 -0.0250022 -8.98262e-18)
(0.0576393 -0.00561987 -8.84428e-18)
(0.132965 0.0689165 0)
(0.105022 0.0957084 0)
(0.131239 0.0601141 0)
(0.0792201 -0.0171955 3.54724e-17)
(0.103057 -0.0343254 2.69009e-17)
(0.120891 0.0684174 0)
(0.168624 0.0510852 1.52457e-17)
(0.0663454 0.117175 -1.78726e-17)
(0.111192 0.0861714 1.76798e-17)
(0.0886907 0.0936215 -1.77273e-17)
(-0.00405223 -0.00469955 -2.7596e-22)
(0.105981 0.0781146 0)
(0.0341194 -0.0641141 0)
(0.0716313 0.131748 1.71427e-17)
(0.0327527 -0.0608455 0)
(0.119814 0.0825015 0)
(0.0750324 0.0475493 -1.58018e-17)
(0.0263193 -0.0609767 -2.24936e-17)
(0.0520805 0.0387394 0)
(0.0312155 0.0404693 -1.77834e-17)
(0.120742 0.0878767 0)
(0.0948818 0.0725795 -1.77148e-17)
(0.0507629 0.0518943 -8.89778e-18)
(0.0496381 0.0623119 3.55991e-17)
(0.0938038 0.0794261 0)
(0.115649 0.102353 -1.76409e-17)
(0.0796275 0.117834 8.89898e-18)
(0.0738234 0.0641467 0)
(0.0639987 0.138572 2.23002e-17)
(0.0718705 0.0714541 -8.88708e-18)
(0.0679813 0.0991743 -1.78091e-17)
(0.100157 0.0497625 -1.65908e-17)
(0.0619991 0.144442 -8.97533e-18)
(0.101713 0.0574104 0)
(0.102153 0.118839 -1.78451e-17)
(0.0345513 -0.0699524 0)
(0.0295054 -0.071987 2.6425e-17)
(0.0865226 0.102825 2.66211e-17)
(0.0799723 0.132778 1.77957e-17)
(0.00078086 0.00528681 3.60146e-17)
(0.0293001 0.0193615 -9.50892e-18)
(-0.0279459 -0.0266467 -1.80979e-17)
(0.084803 0.130674 0)
(0.01182 -0.057451 0)
(0.0770825 0.125908 -1.78345e-17)
(0.0598052 0.141377 3.71261e-17)
(0.023999 0.0171041 0)
(0.0694658 0.0898976 -2.66665e-17)
(0.0262148 -0.0721828 -3.10199e-22)
(0.0564118 0.114561 9.00793e-18)
(0.0897703 0.126833 0)
(0.0900886 0.123756 9.02263e-18)
(0.0777624 0.123425 -2.67855e-17)
(0.0573237 0.101767 0)
(0.0212112 -0.0760877 2.04484e-17)
(0.049033 0.128605 -3.84784e-17)
(0.00169568 -0.0729372 0)
(0.0935734 0.116214 0)
(0.0324033 -0.0702993 -1.78448e-17)
(0.0311811 -0.0720484 0)
(0.0710631 0.121812 1.78361e-17)
(0.0319078 0.0636394 5.20161e-19)
(0.01516 -0.0653707 -1.95435e-17)
(0.0575762 0.124753 -1.80987e-17)
(-0.0492688 -0.058574 -1.45896e-17)
(0.0283204 -0.0709375 1.79184e-17)
(0.002024 -0.0794208 0)
(0.00470099 -0.000108771 0)
(-0.00615727 -0.0306344 6.18343e-17)
(0.00149826 -0.0600884 -3.97874e-17)
(0.000812995 -0.0606448 -3.92193e-17)
(0.0537739 -0.00535069 0)
(0.0538343 0.167826 1.90689e-17)
(0.020329 -0.0697787 -2.79659e-17)
(0.0229706 -0.0687949 2.8132e-17)
(0.000808498 -0.0406367 0)
(0.00695688 -0.0401141 -1.96753e-17)
(0.0462438 0.179621 -5.89397e-17)
(0.00113394 -0.0408332 -1.86417e-17)
(-0.00655279 -0.0178539 -7.43547e-23)
(0.0445385 0.113319 1.66415e-17)
(0.0175023 -0.0650117 -1.91948e-17)
(-0.0263088 -0.0294337 9.25595e-18)
(0.0265978 0.0481415 0)
(0.0251772 0.00350693 -2.12472e-17)
(0.0536951 0.155933 4.31065e-17)
(0.00140481 -0.0134154 -2.08617e-17)
(0.00254818 -0.0528792 1.227e-21)
(0.0633745 -0.0155711 2.9102e-17)
(0.00587056 0.00313611 -6.41585e-22)
(0.151179 0.0837207 3.48025e-17)
(0.0182118 -0.0153794 1.2814e-17)
(0.0348572 -0.0660228 0)
(0.00243529 -0.0512357 1.9983e-17)
(8.33714e-05 -0.0553463 0)
(0.0481123 -0.0027795 -1.17842e-17)
(0.0500905 0.172098 -6.17023e-19)
(0.00237907 -0.0280277 0)
(0.0481919 0.165632 5.67784e-19)
(0.0520796 0.128486 1.99112e-17)
(0.00432073 -0.0241542 -2.32418e-17)
(0.00204679 -0.0304326 -5.63689e-18)
(0.011897 -0.0537231 4.75768e-18)
(-0.0116886 0.0143022 2.76516e-17)
(0.0375929 -0.0107716 2.07966e-17)
(0.0750178 0.0381399 -2.19907e-17)
(-0.0595955 0.0500682 1.7158e-17)
(0.0376583 -0.0600532 0)
(-0.0210393 0.028563 1.0379e-17)
(0.0353947 -0.0214715 0)
(-0.0217014 -0.0493236 1.65629e-17)
(0.0203914 -0.0556944 0)
(-0.0435215 -0.0488278 -3.93831e-17)
(-0.00760195 -0.0143767 -2.14145e-17)
(0.0292231 -0.00721698 -1.7454e-17)
(0.00319448 -0.0113528 -1.49685e-17)
(0.0615803 0.0342504 0)
(0.070913 0.00638145 9.77751e-19)
(0.00683817 -0.00760289 0)
(0.11912 -0.00736225 -3.06691e-17)
(0.0891894 -0.0102788 -1.45781e-17)
(0.0585742 0.00635856 -5.13629e-18)
(-0.0045161 0.00179157 3.80685e-17)
(0.0161197 -0.036487 0)
(0.0177016 -0.0568598 1.63922e-17)
(0.0178105 -0.00170558 0)
(0.108414 -0.022582 -2.77376e-17)
(0.00225354 -0.0678056 -2.12004e-17)
(0.0965865 -0.0309674 1.96671e-17)
(0.0541922 -0.0284417 0)
(0.0731314 -0.0200126 -5.13447e-18)
(0.0558424 0.142941 0)
(-0.0411877 -0.0505329 1.95076e-17)
(0.00633063 -0.0676573 6.26764e-19)
(0.00140709 -0.0507329 4.18841e-17)
(0.0374304 -0.0646285 0)
(0.0035903 -0.0770297 1.81907e-17)
(0.00312034 -0.0674724 1.9434e-17)
(0.00594232 -0.0797099 1.02596e-17)
(0.0163424 -0.0365763 -1.67644e-23)
(0.0902892 0.0351807 -2.70511e-17)
(0.0557082 0.146084 0)
(-0.0627969 -0.123134 0)
(0.0247004 0.098495 -9.86465e-18)
(0.0626656 -0.0248002 2.02406e-17)
(0.026849 0.0883568 0)
(0.00582038 -0.0149275 9.74816e-18)
(0.0283603 0.0796764 -1.64479e-17)
(0.00573083 -0.0103342 0)
(0.0105694 -0.0765353 0)
(0.0148042 0.0622601 -2.7921e-22)
(0.0176765 0.0488924 1.70958e-17)
(0.00353348 -0.00757305 9.52509e-18)
(0.00951557 -0.0667137 -9.99004e-18)
(0.12861 0.0559593 0)
(0.082345 0.112404 1.9364e-17)
(-0.0362038 -0.119753 -9.94437e-18)
(0.0207914 0.0183744 -9.75821e-18)
(0.0129897 0.0123953 0)
(0.00870284 0.00357196 0)
(0.00586094 -0.000490314 8.75582e-18)
(0.0301946 0.0459106 -1.87215e-17)
(0.00661246 0.00359268 0)
(0.00799893 0.00812071 1.63803e-17)
(0.0846245 -0.0365772 0)
(0.0240594 0.0238996 9.64807e-18)
(0.015673 -0.0261993 -1.86757e-17)
(0.00489893 0.00485391 2.49898e-18)
(0.00633748 0.00172497 1.5016e-17)
(0.0277249 0.037143 -1.98246e-17)
(0.0251273 0.030067 -2.00369e-17)
(0.0107663 -0.0179651 0)
(0.0140588 0.0067365 1.83103e-17)
(0.00506961 0.00272073 0)
(0.00279282 -0.000948435 -2.35918e-18)
(0.00169498 0.00107919 0)
(0.0153267 0.019817 0)
(0.0115559 0.0115923 -9.6916e-18)
(0.0573865 -0.0331958 4.77022e-22)
(0.00308095 -0.00899095 0)
(0.00320561 -0.00133016 -1.54403e-17)
(0.164014 0.0581705 -1.03545e-17)
(0.0900283 0.0653919 -1.90673e-17)
(-0.0157671 -0.0101166 0)
(0.00067532 -0.0601042 -1.82795e-22)
(0.0845937 0.0999911 -3.10523e-17)
(-0.0344726 -0.0444145 -2.26391e-17)
(0.00540477 -0.0523904 0)
(0.0775614 -0.0614345 -3.78214e-17)
(0.0755126 0.111354 -9.45661e-18)
(0.0559588 0.150562 0)
(0.0863106 0.0538236 1.92854e-17)
(0.0168342 -0.078172 -1.08755e-17)
(0.0596348 0.0917307 2.157e-17)
(0.050935 -0.0384468 1.91612e-17)
(0.0227792 0.00724567 1.04124e-17)
(0.0533426 0.0260603 3.02824e-17)
(-0.0455569 -0.0325898 1.08159e-17)
(0.140032 -0.0947741 0)
(0.0651719 -0.0227728 -3.77415e-17)
(0.0498559 -0.0213497 -4.62102e-18)
(0.0245135 -0.0506943 2.89706e-17)
(0.00160961 -0.0729607 -2.02035e-17)
(0.171018 0.0857134 -3.24658e-17)
(-0.0466918 -0.0274269 1.61215e-17)
(0.0392722 0.0817891 -2.64829e-17)
(0.0086786 -0.0722304 5.13267e-18)
(0.134013 -0.0396471 1.9594e-17)
(0.116153 -0.0216675 -2.94995e-17)
(0.0896665 0.0366009 4.10746e-17)
(-0.095688 -0.0216333 0)
(0.023505 -0.0763718 -2.11485e-17)
(0.0305336 0.0626991 3.30353e-17)
(0.0316508 -0.0617552 -1.92487e-17)
(0.0179737 -0.0787862 1.14508e-17)
(-0.0240681 -0.030278 -5.12884e-18)
(0.0126771 0.0729962 0)
(0.079313 -0.0285872 -9.93511e-18)
(0.00822568 -0.0783325 -2.10948e-17)
(0.0287393 -0.0736839 1.9532e-17)
(0.0212472 -0.073876 1.2713e-17)
(0.0180602 0.0373476 -2.134e-17)
(0.0196804 -0.0482492 1.13417e-17)
(0.144047 -0.0115526 -1.58236e-17)
(0.0112108 -0.0503473 0)
(0.0594555 0.0552591 3.64861e-17)
(0.00342853 0.0321279 -2.01339e-17)
(0.00425075 0.0253602 2.55737e-17)
(0.0367031 -0.012923 2.41201e-17)
(0.175264 0.0581334 5.02977e-18)
(0.168279 0.0221066 -1.08003e-17)
(-0.0539615 0.0160537 -2.24535e-17)
(-0.067059 0.00574712 2.13374e-17)
(0.0224435 -0.00135685 0)
(0.0176768 0.0121147 0)
(0.00260989 -0.0765696 -2.22433e-17)
(0.000927812 -0.00664622 -1.08629e-17)
(0.00104075 -0.00561295 -2.17205e-17)
(0.00330484 -0.0799434 1.15564e-22)
(0.0216148 -0.0410342 9.92152e-18)
(0.0870309 -0.0532392 -1.99249e-17)
(0.000613787 -0.0158489 0)
(0.00131806 -0.0169798 0)
(-0.0906533 -0.0679921 3.61418e-17)
(0.00430479 0.0849345 -3.58787e-17)
(0.0220212 -0.0299455 -1.01201e-17)
(0.056864 0.0590175 1.17513e-17)
(0.00060676 -0.00868547 2.05126e-17)
(0.0356219 0.126593 2.33812e-17)
(0.0451343 0.0149843 0)
(0.0901063 0.0605311 0)
(0.0305407 0.0119711 -1.05118e-17)
(0.0209103 0.141516 1.22344e-17)
(0.0863738 0.0757478 -9.52821e-18)
(0.00502862 -0.0051475 -1.5716e-17)
(0.0130158 -0.0364004 1.04706e-17)
(-0.0157541 -0.0148738 -2.5986e-18)
(-0.0145869 -0.0133068 -3.589e-17)
(0.0547189 0.157521 -2.50599e-17)
(0.0692863 -0.1003 6.02727e-18)
(0.0761892 0.0842111 2.57467e-17)
(0.0049559 0.00630682 4.33593e-22)
(-0.029221 -0.123094 1.80104e-17)
(0.0150147 0.00752513 2.11675e-17)
(0.0490922 0.0277901 -1.01752e-17)
(0.0433057 0.133213 -3.40938e-17)
(0.00215004 -0.035484 2.21898e-17)
(0.0279962 -0.00182219 -1.04348e-17)
(0.0404029 -0.0127759 -2.08331e-17)
(0.0409263 -0.094655 1.8015e-17)
(0.0506279 0.0725491 -2.47141e-18)
(0.0126875 -0.0195239 5.10497e-18)
(0.0291921 0.0700376 4.55386e-18)
(-0.0330299 -0.0140085 0)
(-0.0254998 -0.0082973 6.96166e-18)
(0.0549011 0.147722 1.11684e-17)
(-0.0999594 -0.0505679 2.44406e-17)
(0.00888786 -0.00712893 0)
(0.0117501 0.0280302 -4.34188e-18)
(0.102059 0.0244276 2.47071e-17)
(0.0999332 0.0817417 1.37101e-17)
(-0.00660408 -0.0553583 0)
(0.000608568 -0.00782758 -2.14958e-17)
(-0.0617339 -0.126284 1.12496e-17)
(-0.0451963 0.00323214 -2.86944e-18)
(0.0172937 0.0212227 -1.50069e-18)
(-0.0161243 -0.0272669 5.48467e-18)
(-5.14424e-05 -0.00668492 2.35736e-17)
(-0.00428554 -0.0595334 0)
(0.0384501 0.0353313 0)
(-0.0770918 -0.0968054 0)
(-0.0227023 -0.0350057 -1.21445e-17)
(0.0883448 0.070667 0)
(-0.0218479 -0.0194318 2.00901e-17)
(0.0117925 -0.0720853 -1.17259e-17)
(0.000126047 -0.0153509 -1.20338e-17)
(-0.00104958 -0.0593738 0)
(0.126593 0.0792149 -6.0628e-18)
(0.0378751 0.0255458 0)
(-0.039304 -0.0242825 6.85002e-19)
(0.00298456 -0.0103452 1.15869e-17)
(0.00118095 -0.0165381 1.69776e-17)
(0.031896 -0.0474502 0)
(0.0126924 -0.0246685 2.19488e-17)
(-0.00140199 -0.0397527 0)
(0.00261033 -0.0563243 0)
(0.0109252 -0.0620357 1.46722e-18)
(0.108004 0.0813672 -2.1319e-17)
(0.00307816 -0.00480884 -1.25392e-18)
(0.124274 -0.0598414 0)
(-0.0300731 -0.01301 4.21696e-17)
(-0.0132501 -0.0536758 1.19448e-18)
(0.0232541 0.111681 -1.06012e-17)
(0.0544912 -0.0603437 0)
(0.0854494 0.0485343 -9.37457e-18)
(0.0316667 -0.0420367 -2.55657e-17)
(0.140031 -0.053083 2.32452e-17)
(0.0790079 0.0805494 1.11895e-17)
(0.0296712 -0.0448647 1.03496e-17)
(0.0588122 0.032964 -1.11937e-17)
(0.00306625 -0.0167545 -2.26007e-17)
(0.160696 -0.0781164 -2.11168e-17)
(0.0306758 0.0179131 0)
(0.138916 -0.0117174 1.49771e-17)
(0.0343816 -0.0538517 5.19166e-18)
(0.162942 0.0892228 1.99436e-17)
(0.0522665 0.148648 5.408e-18)
(0.0558516 0.153721 0)
(-0.0129828 -0.00444422 1.99383e-17)
(0.0280763 -0.00997376 3.21405e-17)
(0.134126 0.00766361 0)
(0.02585 -0.0564476 3.30206e-18)
(-0.000781182 -0.000307495 -1.48153e-17)
(0.123534 0.0464731 0)
(0.0073955 -0.0604731 -1.39909e-18)
(0.0402702 -0.010682 -2.01913e-17)
(0.0817026 0.0255253 2.35212e-22)
(0.142416 -0.0325105 -1.36789e-21)
(0.0351531 -0.0546946 -5.3495e-18)
(0.04501 -0.0793044 -2.40004e-17)
(0.00962909 -0.0166044 2.67573e-17)
(0.0161911 0.000440985 4.77713e-17)
(0.0747551 0.0320703 -2.44488e-17)
(0.0230965 -0.00425161 3.54566e-17)
(0.093023 0.00884945 5.06052e-18)
(0.00810185 -0.0281233 1.18528e-17)
(0.0287862 0.0549493 2.36142e-17)
(0.023973 -0.0541526 0)
(0.161847 -0.0596077 -3.26916e-17)
(0.0264957 -0.0498263 -2.06585e-17)
(0.0428661 0.0356908 5.7299e-18)
(-0.0828693 -0.0712896 0)
(0.0244627 0.0360809 -2.53378e-17)
(0.0238773 -0.0556965 -2.42245e-17)
(0.00656227 -0.0185906 0)
(0.0120103 -0.0224495 1.32095e-17)
(0.01455 -0.0743172 1.48438e-17)
(0.0289252 -0.0645946 -1.22135e-17)
(0.0236988 -0.0706024 1.47633e-18)
(0.0150744 -0.0494054 0)
(0.00100406 -0.0793651 2.30539e-22)
(0.0774263 0.0990446 0)
(0.0228068 -0.0337219 2.12465e-17)
(0.0235059 -0.0495328 -3.01834e-18)
(-0.0346523 -0.0414116 1.23429e-17)
(0.0016224 -0.0324339 0)
(0.00495668 -0.0315474 2.62776e-17)
(0.0480496 0.0564335 2.43432e-17)
(0.0589212 -0.108146 -6.07837e-18)
(-0.101979 -0.04234 -1.9833e-17)
(0.0195963 -0.0386274 -4.1652e-17)
(0.0343776 0.0705069 0)
(0.0214591 0.0350173 0)
(0.0565058 0.0665526 -2.54553e-17)
(0.0486524 0.0608326 3.30049e-17)
(0.109473 0.0639904 1.0426e-17)
(0.173072 0.034681 1.19277e-17)
(0.0246927 -0.0500721 8.64577e-18)
(0.000886782 -0.031564 -1.31039e-17)
(0.0522529 0.163009 0)
(0.0594103 0.0794723 0)
(-0.0689584 -0.104529 0)
(0.0218694 -0.0779971 -8.71374e-19)
(-0.0258985 -0.00277427 1.36199e-17)