/*--------------------------------*- C++ -*----------------------------------*\
  =========                 |
  \\      /  F ield         | OpenFOAM: The Open Source CFD Toolbox
   \\    /   O peration     | Website:  https://openfoam.org
    \\  /    A nd           | Version:  9
     \\/     M anipulation  |
\*---------------------------------------------------------------------------*/
FoamFile
{
    format      ascii;
    class       volScalarField;
    location    "0.72";
    object      p;
}
// * * * * * * * * * * * * * * * * * * * * * * * * * * * * * * * * * * * * * //

dimensions      [0 2 -2 0 0 0 0];

internalField   nonuniform List<scalar> 
464
(
4.13826e-11
-7.76034e-11
-1.69643e-11
-1.26999e-11
-9.24677e-11
-1.71141e-11
1.69024e-11
-1.20478e-11
-1.66106e-11
-1.09832e-11
4.11573e-11
9.72986e-11
1.22985e-11
9.75097e-11
2.63151e-11
2.29722e-11
-2.99723e-12
-3.2856e-12
-5.96998e-12
-1.33022e-11
-1.49353e-11
-2.00128e-11
-1.72747e-11
-1.41259e-11
-1.35e-11
-1.48652e-11
6.36111e-11
-6.55995e-12
5.81598e-11
-1.95431e-11
-1.89607e-11
2.41655e-12
5.63553e-12
-1.22651e-12
-4.23682e-12
-5.71835e-12
-7.82434e-12
-4.17873e-12
-5.40301e-12
1.28304e-11
-1.31716e-11
-1.8548e-11
-1.84483e-11
8.10282e-11
6.75392e-11
1.48488e-11
-8.89001e-12
-5.56735e-12
-9.11612e-13
-7.21697e-12
-1.17776e-11
-4.69816e-12
-7.78441e-12
-1.11235e-11
-1.07676e-11
-4.64534e-12
-7.15182e-12
-1.33301e-11
-1.36804e-11
-8.98091e-12
-1.14257e-12
-5.83023e-11
-1.18022e-11
-1.24219e-11
-3.73029e-11
-1.23592e-11
-1.47098e-11
4.82036e-13
5.53357e-11
-1.11859e-11
-1.46345e-11
-4.97746e-11
3.82857e-11
-5.16289e-12
-2.95304e-11
-5.22203e-12
-1.38947e-11
1.87771e-11
-1.21973e-11
3.91959e-11
-8.60701e-11
-1.85333e-11
-1.34667e-10
-2.24399e-11
-8.59218e-11
-1.33348e-11
-4.23048e-11
-1.94783e-11
-1.20774e-11
-2.45975e-11
-7.73945e-11
-6.19987e-11
-1.38698e-11
8.1702e-11
-1.50076e-11
-1.31126e-11
-1.27809e-11
-1.67028e-11
-6.21548e-11
-1.30659e-11
-1.24131e-11
-6.32598e-12
-1.49106e-11
-9.31866e-13
-1.53764e-12
-1.33102e-10
-2.07223e-11
-1.38862e-11
-7.73846e-11
-9.98832e-12
-1.64181e-11
-7.25559e-12
-1.4584e-11
-4.805e-11
-1.00336e-11
-1.23206e-11
-1.14401e-10
-2.50328e-11
-7.22067e-11
-2.06576e-11
-8.36844e-12
9.91968e-12
-3.32117e-11
3.82265e-11
-1.39313e-11
-1.62832e-11
-1.3741e-11
-1.83317e-11
-4.7348e-12
-1.21818e-10
-2.32848e-11
1.07592e-10
-3.03487e-12
-1.44643e-11
-2.22246e-11
-9.73366e-11
-2.59389e-11
-8.50023e-12
-1.48681e-11
-2.42821e-11
-2.75504e-11
-1.46437e-11
-1.59077e-11
-1.21133e-11
-2.76134e-11
-3.55321e-11
-1.22774e-11
-2.05744e-11
-1.23534e-11
-2.29188e-11
-1.52017e-11
-1.4382e-11
6.11136e-12
-1.94512e-11
-8.73291e-11
-2.52683e-11
-4.39462e-12
-1.21802e-11
-1.06188e-11
-6.69384e-11
-9.17962e-12
-1.44496e-11
-2.63513e-11
-1.98029e-11
-1.84627e-11
-2.67181e-11
-1.04862e-12
-1.64945e-11
4.49799e-12
-2.45026e-11
-2.10303e-11
-5.12633e-11
-4.23199e-11
-2.16247e-11
-2.87807e-11
-1.74543e-11
-1.2363e-11
-1.37028e-11
2.07762e-11
-3.29974e-12
-1.3373e-11
-1.62319e-11
-1.43265e-12
-1.75299e-12
4.49069e-12
-5.67121e-15
-1.83957e-11
-1.76633e-11
-3.47547e-11
-1.77667e-11
-8.27147e-12
-1.74199e-11
-2.43764e-12
-6.83736e-12
-1.38886e-11
-1.4774e-11
-1.51637e-11
-9.50759e-12
2.20222e-12
-1.06618e-11
-9.33908e-12
-1.39627e-11
-7.56407e-12
-1.2924e-11
-1.74046e-11
-3.52121e-12
-9.81468e-12
-1.3654e-11
-1.56385e-11
-5.06368e-11
-2.56263e-11
-1.86215e-11
3.08473e-13
-5.19037e-12
-1.52885e-11
-1.91998e-11
8.24797e-12
-5.79521e-12
5.9298e-11
-1.67336e-11
-1.99565e-12
-1.18279e-11
-1.17559e-11
-1.20327e-11
-1.24718e-11
-1.43532e-11
-1.23186e-11
-1.20676e-11
-1.19558e-11
-1.24022e-11
-1.20953e-11
-1.03648e-11
-1.08408e-11
-1.20271e-11
-9.50111e-12
-1.22181e-11
-8.64269e-12
-9.95352e-12
-1.09078e-11
-8.05961e-12
-1.20441e-11
-9.19217e-12
-9.33564e-12
-1.0365e-11
-1.16184e-11
-6.35316e-12
-9.7371e-12
-1.2866e-11
-7.52675e-12
-1.32395e-11
-8.57623e-12
-6.67404e-12
-1.1411e-11
-1.92571e-11
-1.1127e-11
-9.08916e-12
-1.20124e-11
-1.33097e-11
-1.05772e-11
-6.06076e-12
-8.65827e-12
-1.13086e-11
-9.66303e-12
5.68051e-12
-7.7321e-12
2.2456e-12
-9.29269e-12
-9.2399e-12
1.9556e-11
-7.18929e-13
-2.00025e-11
-6.18398e-12
-8.41482e-12
1.06359e-11
1.31878e-11
-8.54089e-12
-3.69384e-12
-1.55443e-11
-1.864e-11
-3.99226e-11
-1.19107e-11
-9.6269e-12
-1.83696e-11
-4.15384e-12
1.76842e-11
-1.91716e-11
-1.9657e-11
-2.92775e-11
-8.63858e-12
-1.26335e-11
-2.38861e-11
-1.36081e-11
-9.66229e-12
-1.06222e-11
-1.2853e-11
-1.64267e-11
-1.9455e-11
-1.64659e-11
-1.59975e-11
-3.6583e-11
1.17693e-11
2.28789e-12
3.12589e-11
9.04757e-11
-6.31773e-12
-1.25354e-11
-1.28019e-11
-9.94102e-12
-6.28665e-11
-2.05271e-11
-1.21404e-11
-1.20752e-11
-1.15186e-11
6.14223e-12
-1.37559e-11
-1.57783e-11
-1.91908e-11
-4.1446e-11
-1.10663e-11
9.99545e-12
-2.03097e-11
-1.62039e-11
-5.29835e-11
-1.63422e-11
-1.04341e-11
-6.91543e-13
1.01847e-12
2.64121e-11
-7.47718e-12
-2.98506e-11
-1.54223e-11
-2.7233e-11
-1.37542e-11
-1.11942e-11
-1.26421e-11
-1.21503e-11
-1.90334e-11
-1.26042e-11
-2.2459e-11
-1.71495e-11
-1.16412e-11
5.48844e-11
-2.38283e-11
-3.21135e-11
-1.14389e-11
-9.94855e-12
-4.5115e-13
-1.47972e-11
-1.25063e-11
-1.292e-11
-9.84521e-12
-1.29634e-11
-1.64812e-11
-1.63362e-11
-8.85301e-12
-4.87057e-11
-1.83327e-11
-1.18686e-10
-1.88026e-11
-7.82798e-11
-1.55034e-11
3.86892e-12
-1.83612e-11
-8.71248e-11
5.12644e-11
-6.63241e-12
-1.03718e-11
-6.58318e-12
1.22901e-10
-2.12316e-11
-1.12131e-11
1.07937e-10
2.677e-11
-2.18574e-12
7.56042e-11
-1.46711e-11
4.74691e-11
-1.94599e-11
5.00388e-11
-2.16735e-11
1.42269e-11
1.53347e-12
-2.19604e-12
-2.98227e-12
-6.60219e-12
-5.70208e-13
-6.40419e-12
-1.70157e-11
-2.9724e-12
-1.64924e-12
-1.01879e-11
-7.12846e-12
-7.74928e-12
-6.29387e-12
-1.30639e-11
-1.59036e-11
-1.46202e-11
-1.72442e-11
-1.79432e-11
3.78584e-11
-4.35981e-11
-1.43052e-11
8.26437e-11
-9.73783e-12
7.88545e-12
3.47504e-11
9.9868e-11
-7.63368e-12
4.85494e-11
-8.20769e-12
-2.00178e-11
-9.24644e-12
-1.63042e-11
-1.58593e-11
-1.46165e-11
-4.10541e-11
1.46879e-10
-8.05626e-12
-1.54847e-11
-5.93918e-11
-1.04021e-11
-1.38279e-11
4.70921e-11
9.4983e-11
4.59892e-11
2.83571e-11
3.9677e-11
2.84247e-11
2.09082e-11
-1.35161e-10
-1.99541e-11
-4.22595e-12
-1.12006e-13
-1.94865e-11
-7.84028e-12
-1.4973e-12
-2.64697e-12
-1.68673e-11
-2.71565e-12
-2.35668e-11
-8.31074e-12
-5.72289e-12
-1.15832e-11
-1.29037e-11
-1.5652e-11
-1.46473e-11
-1.56629e-11
-2.01005e-11
-1.44176e-11
-1.26195e-11
6.84565e-12
1.16569e-11
1.0021e-11
-1.64884e-11
-9.7245e-12
-4.98335e-12
-6.38184e-12
-7.65282e-12
-9.83089e-12
-8.89303e-12
-9.01789e-12
1.39949e-10
8.76969e-11
-1.67194e-11
)
;

boundaryField
{
    back
    {
        type            empty;
    }
    front
    {
        type            empty;
    }
    left
    {
        type            zeroGradient;
    }
    top
    {
        type            zeroGradient;
    }
    right
    {
        type            zeroGradient;
    }
    bottom
    {
        type            uniformFixedValue;
        uniformValue    
        {
            type            scale;
            scale           
            {
                type            squarePulse;
                start           0.3;
                duration        0.3;
            }
            xScale          
            {
                type            constant;
                value           1;
            }
            value           
            {
                type            constant;
                value           15.1;
            }
        }
        value           uniform 0;
    }
}


// ************************************************************************* //
