/*--------------------------------*- C++ -*----------------------------------*\
  =========                 |
  \\      /  F ield         | OpenFOAM: The Open Source CFD Toolbox
   \\    /   O peration     | Website:  https://openfoam.org
    \\  /    A nd           | Version:  9
     \\/     M anipulation  |
\*---------------------------------------------------------------------------*/
FoamFile
{
    format      ascii;
    class       surfaceScalarField;
    location    "0.72";
    object      phi;
}
// * * * * * * * * * * * * * * * * * * * * * * * * * * * * * * * * * * * * * //

dimensions      [0 3 -1 0 0 0 0];

internalField   nonuniform List<scalar> 
663
(
-1.08193e-16
1.03836e-16
4.35741e-18
4.09495e-17
1.21301e-16
-2.58044e-19
2.58044e-19
5.16615e-18
-2.52558e-18
-2.64057e-18
-5.35896e-17
9.45391e-17
3.56965e-20
-2.93739e-19
-1.12284e-16
4.09049e-18
1.68008e-18
3.48608e-18
-1.3175e-16
5.3358e-17
7.83921e-17
2.67322e-18
-1.34423e-16
-5.2248e-17
1.56084e-16
7.73595e-17
-4.7337e-17
-3.00226e-17
-5.89256e-17
7.44924e-17
2.86715e-18
9.29915e-18
-5.66871e-18
-3.63044e-18
9.34126e-18
-4.21111e-20
1.13861e-17
-9.76121e-18
-1.6249e-18
1.17238e-17
-3.37697e-19
1.67729e-19
-1.67729e-19
1.76941e-17
-2.18535e-17
4.15941e-18
-4.46061e-18
2.21547e-17
-6.4284e-18
-8.26838e-18
1.46968e-17
-1.65362e-17
1.01078e-17
-6.67229e-18
5.52805e-18
1.14425e-18
5.2743e-19
-3.05301e-18
-3.73384e-18
-2.93845e-18
-1.86984e-17
1.44018e-17
4.29665e-18
5.66132e-18
-1.9253e-18
-3.73602e-18
-2.87637e-18
-1.58221e-17
1.08871e-17
-9.05793e-18
-1.82916e-18
5.34726e-18
5.53983e-18
-8.23969e-18
1.09763e-17
-2.73662e-18
2.39875e-18
-1.06384e-17
8.82732e-18
-1.18853e-17
3.05797e-18
1.14332e-17
-2.6059e-18
8.52099e-18
3.20282e-18
1.7105e-17
-8.58397e-18
-8.51718e-19
1.01945e-18
1.47848e-18
4.18285e-18
-1.03286e-17
9.56714e-19
9.3719e-18
-1.30244e-17
-8.82915e-18
1.83563e-17
-2.05495e-17
2.19325e-18
1.82007e-18
1.36006e-18
1.30417e-17
-4.59769e-17
-9.87343e-19
-8.68864e-18
1.88136e-17
-1.0125e-17
-1.76258e-17
1.60938e-17
1.53195e-18
-2.49792e-18
2.49792e-18
-2.77702e-18
6.90573e-18
-1.99301e-17
7.81184e-18
1.61023e-18
-9.42206e-18
-1.9564e-17
3.26367e-18
1.63003e-17
2.86999e-18
-1.46372e-17
1.17672e-17
2.36607e-17
-2.07907e-17
-5.32655e-18
1.31384e-17
-1.40152e-17
-5.67523e-18
-8.96666e-18
1.46419e-17
1.7334e-17
-2.30092e-17
-1.66231e-17
-2.94092e-18
-1.01945e-18
-2.66439e-17
7.17839e-17
-4.51401e-17
-1.33511e-17
5.72822e-18
7.62292e-18
1.12317e-17
-1.36609e-17
2.42921e-18
-8.53342e-17
8.80074e-17
-5.97737e-18
-8.65983e-18
-1.25985e-17
1.53404e-17
-2.74187e-18
4.10815e-18
-8.22706e-17
7.44265e-19
2.29164e-17
2.1127e-17
-3.79299e-18
-1.11978e-16
7.60889e-18
-1.04853e-17
-6.36363e-18
-1.12621e-17
2.13416e-18
9.24543e-18
-1.13796e-17
-5.23922e-18
5.67631e-18
-1.82748e-17
-1.05474e-16
1.09831e-16
-1.47448e-17
5.77818e-18
1.94018e-18
5.29748e-17
5.22896e-17
-1.05264e-16
-2.07087e-18
1.97945e-18
9.14178e-20
1.64549e-17
-3.22957e-17
1.58409e-17
7.83378e-19
1.66623e-19
-9.50001e-19
6.94296e-17
-6.35798e-18
-6.99315e-18
6.45433e-17
7.2406e-18
-1.28749e-18
-8.62706e-18
6.63307e-18
1.99399e-18
-9.05478e-18
1.11889e-17
2.42896e-17
-5.96885e-17
1.15466e-17
-1.29746e-17
1.42797e-18
-5.05333e-17
-4.98618e-17
1.00395e-16
1.14124e-17
1.342e-19
1.14045e-17
-3.51318e-18
-5.10541e-19
2.49e-18
3.08479e-18
2.01101e-18
-5.09579e-18
4.20522e-17
-1.00978e-16
-5.73959e-18
-2.88747e-18
-3.57094e-18
1.96648e-17
4.36264e-18
-1.01022e-17
7.53672e-18
3.4396e-18
-4.34857e-18
-3.22957e-17
1.66624e-19
1.16284e-17
3.71197e-18
-1.12649e-17
3.55545e-17
-1.74029e-17
2.36505e-17
-6.24761e-18
1.09266e-17
1.09591e-18
-1.20225e-17
1.245e-17
-1.34618e-18
-2.10466e-18
5.18945e-18
-1.24395e-18
7.87701e-18
-6.53442e-18
1.08971e-17
-1.58409e-17
4.57597e-18
1.09754e-18
9.50001e-19
-2.04754e-18
2.01101e-18
5.40847e-18
-4.31092e-18
-2.09739e-17
-3.88614e-17
8.09136e-17
5.1573e-17
1.29704e-17
-7.15783e-17
7.56688e-17
1.4769e-17
1.17835e-17
-8.56871e-19
6.55627e-17
-1.39897e-17
-1.0689e-17
1.17849e-17
9.78979e-18
1.64343e-18
1.54792e-17
-1.54792e-17
4.50541e-18
-1.10398e-17
-2.18655e-18
-8.42708e-18
1.06136e-17
4.57597e-18
-2.04754e-18
1.8461e-18
-5.58212e-18
-6.7167e-18
6.7167e-18
3.59406e-18
-5.78062e-18
-6.10068e-19
-1.95373e-17
1.57443e-17
9.65311e-18
-3.59406e-18
1.54652e-18
-8.01872e-19
1.00473e-17
-7.74971e-18
1.22551e-17
4.12097e-18
-1.32857e-17
-3.7518e-19
-7.70827e-18
9.91576e-19
3.72254e-18
-1.14723e-17
-1.33168e-17
2.277e-18
1.66977e-17
1.14044e-17
-2.81021e-17
1.11535e-17
6.29996e-19
6.58698e-18
5.78062e-18
9.36082e-19
-8.65911e-18
-1.10209e-18
-7.95949e-18
1.1682e-17
2.67013e-17
3.00306e-17
5.52385e-18
8.25826e-18
-2.00331e-17
1.17749e-17
2.62965e-18
-1.05891e-17
3.69589e-19
-1.17492e-17
-7.70827e-18
1.36578e-18
-9.07406e-18
1.21072e-17
-3.84897e-18
-1.73668e-17
1.87326e-17
-4.36929e-19
1.22076e-17
-1.17706e-17
-5.52808e-18
5.52808e-18
-4.86236e-18
-6.6572e-19
3.72712e-17
-5.89767e-18
5.09579e-18
-1.66955e-17
5.89767e-18
4.41589e-19
-1.11306e-17
-6.86769e-18
9.49734e-18
-7.56963e-18
7.01941e-19
-1.0844e-17
2.75417e-17
4.36399e-19
-1.11123e-17
1.06759e-17
1.17914e-17
-1.93611e-17
-5.77035e-19
1.22738e-17
-1.16968e-17
4.08172e-18
-4.08172e-18
4.51811e-18
4.27704e-18
-4.71397e-18
-4.27704e-18
1.95326e-19
4.48951e-18
-5.06655e-18
4.48951e-18
-4.42077e-18
4.86236e-18
-1.85945e-17
-2.85981e-18
2.14543e-17
4.42077e-18
6.87391e-20
7.51634e-18
-7.51634e-18
1.07024e-18
-2.77489e-18
-2.02343e-17
-2.12123e-17
1.84374e-17
-2.18274e-17
-2.09105e-17
2.16548e-17
5.43812e-19
-2.05404e-17
-6.71914e-19
9.13039e-18
-8.58658e-18
-2.17467e-17
1.20625e-18
8.58658e-18
9.13039e-18
9.03851e-18
-9.03851e-18
8.3666e-18
-5.06654e-18
4.10815e-18
-6.28115e-18
6.28115e-18
-9.07405e-18
-4.71397e-18
-1.85919e-18
1.85919e-18
8.3666e-18
4.51811e-18
9.1878e-20
-1.51848e-18
-5.27543e-18
-1.97626e-18
-3.29918e-18
-3.49474e-18
-4.54088e-18
-1.48652e-17
1.94061e-17
-3.65546e-18
1.60714e-19
-1.22625e-18
-5.76713e-18
-1.791e-17
3.04483e-18
-6.53546e-18
-1.13746e-17
7.64874e-18
-1.98262e-17
2.2871e-17
1.10557e-20
9.24216e-18
6.21666e-18
-1.54588e-17
1.66756e-17
-7.4334e-18
-6.5244e-18
-1.45612e-17
2.07778e-17
1.12434e-18
-6.55334e-18
-8.90548e-18
5.301e-18
-6.30906e-18
1.31385e-18
-1.61861e-17
-5.23949e-18
1.3787e-18
-2.32061e-17
-1.3285e-17
4.37951e-18
-7.69535e-18
-4.18091e-18
-9.10408e-18
-1.18066e-17
3.30518e-18
-9.10616e-18
5.80098e-18
2.0987e-18
7.70854e-19
-6.01034e-18
-3.41005e-18
-2.25198e-18
1.3934e-17
-7.69535e-18
-1.04871e-19
4.71582e-19
-8.84447e-18
8.37289e-18
-1.79853e-18
1.69366e-18
-8.33168e-19
-6.05855e-18
6.89172e-18
-1.2382e-18
-5.60328e-19
-9.47389e-18
5.56782e-18
3.90606e-18
-7.66621e-19
2.63334e-18
-1.59979e-18
9.72311e-18
7.71972e-18
-1.13502e-17
-3.1545e-18
8.72232e-18
-1.57594e-17
-1.01896e-18
-5.8083e-19
3.41414e-18
-7.26311e-18
1.16258e-17
9.33531e-18
-2.5964e-19
-7.59315e-19
-1.09985e-18
-7.26674e-18
7.26674e-18
7.94265e-18
1.1112e-19
-7.37423e-18
9.5313e-18
1.2181e-19
1.87624e-18
-1.40377e-17
2.68755e-18
9.79067e-18
-9.67955e-18
1.22042e-18
6.04632e-18
2.73818e-17
-4.13715e-17
-4.48389e-18
-1.02425e-17
1.24095e-17
-2.2652e-17
3.97913e-17
-1.23769e-17
-1.49074e-17
-5.39419e-18
1.69647e-17
-6.04632e-18
9.7978e-19
-1.09964e-17
1.09277e-17
-4.10031e-18
-1.63272e-17
-4.86568e-17
5.25787e-17
-3.92192e-18
2.39591e-17
1.47736e-17
2.33134e-18
7.22894e-18
-6.66861e-18
-1.84947e-18
1.21108e-17
1.11192e-17
2.25413e-17
5.01654e-17
-2.34641e-17
6.03485e-18
-5.27553e-18
-1.73003e-17
1.32e-17
-8.84016e-19
2.56409e-18
3.93215e-17
-3.03787e-18
-6.02006e-18
-1.44387e-17
-5.98439e-18
5.98439e-18
-9.45204e-18
1.43915e-17
7.76317e-18
1.24675e-16
-6.87516e-17
8.39286e-19
-8.39286e-19
2.37475e-17
-5.41011e-18
1.16589e-17
-1.36672e-18
1.36672e-18
-6.158e-18
-4.82704e-19
4.82704e-19
7.77368e-18
-1.51671e-16
1.50939e-18
-5.48007e-18
-1.02053e-19
-3.50582e-18
8.5239e-18
-1.34589e-17
4.30209e-17
3.56967e-20
4.30209e-17
3.56967e-20
-1.56408e-17
1.36942e-16
4.35344e-19
-1.773e-19
-2.70817e-17
-2.0232e-19
-1.07252e-17
1.06222e-16
4.1843e-20
-2.09572e-19
-1.13502e-18
1.09248e-17
1.83463e-17
-6.14008e-18
5.70514e-20
4.25653e-19
-2.43746e-18
-7.7977e-18
-9.54088e-18
8.81769e-19
2.43746e-18
6.60177e-18
-1.35661e-17
3.79937e-18
4.59357e-18
-3.75726e-18
7.859e-18
-8.05432e-18
-5.40488e-18
-7.46065e-18
5.98571e-18
5.76699e-18
-4.24438e-18
3.41602e-18
-3.07832e-18
-1.74949e-17
1.21939e-17
4.43168e-18
-4.43168e-18
1.05769e-17
1.36115e-17
-1.15979e-17
-1.65791e-18
1.25745e-17
-1.9744e-17
1.25922e-16
4.35345e-19
1.13996e-16
5.70523e-20
9.75934e-17
-4.18396e-17
4.23054e-17
-4.23054e-17
4.18431e-20
-5.42818e-17
4.18431e-20
-7.72531e-17
-5.71703e-17
1.90046e-18
-2.00251e-18
1.90876e-18
-2.3127e-18
4.03939e-19
-7.62425e-18
-2.47798e-18
1.83463e-17
-8.76564e-19
5.61586e-19
-4.61132e-17
3.79937e-18
3.75726e-18
-1.23407e-19
3.41602e-18
3.07832e-18
1.07376e-17
1.48971e-17
-1.31302e-17
-3.02234e-18
-5.41643e-18
-1.10676e-19
-9.88956e-20
9.8724e-19
)
;

boundaryField
{
    back
    {
        type            empty;
        value           nonuniform List<scalar> 0();
    }
    front
    {
        type            empty;
        value           nonuniform List<scalar> 0();
    }
    left
    {
        type            calculated;
        value           uniform 0;
    }
    top
    {
        type            calculated;
        value           uniform 0;
    }
    right
    {
        type            calculated;
        value           uniform 0;
    }
    bottom
    {
        type            calculated;
        value           nonuniform List<scalar> 8(-1.6225e-16 -5.59236e-17 1.43897e-16 -9.66106e-17 -1.41563e-16 9.65872e-17 1.60109e-16 5.57538e-17);
    }
}


// ************************************************************************* //
