/*--------------------------------*- C++ -*----------------------------------*\
  =========                 |
  \\      /  F ield         | OpenFOAM: The Open Source CFD Toolbox
   \\    /   O peration     | Website:  https://openfoam.org
    \\  /    A nd           | Version:  9
     \\/     M anipulation  |
\*---------------------------------------------------------------------------*/
FoamFile
{
    format      ascii;
    class       volVectorField;
    location    "0.72";
    object      U;
}
// * * * * * * * * * * * * * * * * * * * * * * * * * * * * * * * * * * * * * //

dimensions      [0 1 -1 0 0 0 0];

internalField   nonuniform List<vector> 
464
(
(-2.6783e-09 -2.09841e-09 -1.34641e-28)
(-1.75902e-09 4.22449e-09 0)
(2.0721e-12 4.30028e-12 0)
(1.21503e-10 -5.20109e-12 7.88293e-28)
(-1.25777e-09 3.37917e-09 0)
(1.62941e-12 3.52078e-12 -2.67165e-28)
(-2.56102e-09 -1.3072e-09 1.73234e-27)
(1.15097e-10 -2.39958e-11 0)
(-3.15423e-09 1.658e-10 -1.91301e-28)
(-2.99136e-09 1.3677e-09 -1.39132e-27)
(-2.13417e-09 -2.70104e-09 1.40868e-28)
(-9.00134e-10 -1.71514e-09 -1.42658e-28)
(-2.78987e-09 -4.01456e-10 -1.20555e-28)
(-6.51913e-10 -1.72012e-09 0)
(-7.14156e-11 2.53016e-10 6.16702e-28)
(-2.23405e-11 2.67705e-10 -1.43252e-27)
(-4.08851e-11 3.70724e-10 0)
(-3.06288e-11 3.28353e-10 -7.50743e-29)
(5.07072e-12 -2.47419e-12 -2.91653e-28)
(1.02003e-11 6.53218e-10 8.13397e-28)
(3.23593e-11 6.82116e-10 -1.22207e-27)
(1.6307e-10 4.35443e-10 2.91e-28)
(1.8855e-10 4.61967e-10 -1.36968e-28)
(1.41955e-10 4.23653e-11 0)
(8.49381e-11 3.26709e-12 -8.09621e-28)
(1.43081e-10 6.98849e-11 4.53959e-28)
(-2.34766e-10 -2.47159e-10 -1.88151e-27)
(7.5781e-11 -1.03173e-10 -3.61505e-28)
(-3.23377e-10 -2.0227e-10 0)
(1.42341e-10 2.31142e-10 0)
(1.72087e-10 1.95045e-10 6.25501e-29)
(2.39097e-11 3.29386e-10 -3.59482e-31)
(1.65039e-11 3.50748e-10 5.96062e-29)
(8.43171e-12 3.48591e-10 -1.53615e-28)
(-2.93114e-12 3.37121e-10 1.54819e-28)
(-2.94766e-11 3.77365e-10 4.02683e-28)
(-6.3261e-11 4.87504e-10 -3.8462e-28)
(1.28897e-11 -2.17143e-11 -4.12419e-29)
(6.0357e-11 -1.26445e-10 4.15913e-29)
(7.75533e-12 2.94532e-10 0)
(-2.43275e-11 6.59421e-10 1.11412e-27)
(1.20398e-10 5.8185e-10 0)
(1.64377e-10 5.27754e-10 -3.50326e-28)
(-3.43056e-10 -6.14335e-10 -4.21851e-27)
(-6.91823e-10 -1.06627e-09 4.30476e-27)
(-7.49495e-12 3.18158e-10 4.86035e-29)
(2.20568e-10 -3.67367e-10 4.69453e-28)
(6.76946e-11 -4.39653e-10 3.45691e-29)
(1.37737e-11 -4.68125e-11 0)
(3.87384e-11 -5.50875e-11 3.99299e-29)
(-3.10662e-11 6.81859e-10 -7.40268e-28)
(7.42205e-11 -2.24462e-10 -7.75514e-30)
(-1.69261e-11 5.00485e-10 -3.75439e-28)
(8.56886e-11 -4.24853e-10 -6.66476e-28)
(6.9312e-11 -6.22176e-10 -2.04196e-29)
(1.11835e-10 -3.1334e-10 2.59828e-28)
(1.84539e-10 -3.31603e-10 0)
(-1.53445e-10 -3.93745e-10 0)
(-1.22548e-10 -5.68541e-10 -8.44431e-28)
(-3.80126e-11 5.49753e-10 0)
(2.20391e-11 -6.38054e-11 1.22106e-28)
(-1.43217e-09 1.52146e-09 6.32592e-27)
(-1.82385e-10 -2.24769e-10 1.49178e-27)
(-5.90113e-11 -3.03082e-10 -7.34326e-28)
(-2.46095e-09 1.43885e-09 -1.07038e-28)
(1.41781e-10 -2.79514e-10 -6.75833e-28)
(-8.7482e-11 -4.2161e-10 -8.52151e-28)
(2.69947e-11 -1.2268e-10 3.12823e-29)
(-1.54831e-09 -2.15956e-09 -1.54854e-27)
(2.51401e-11 -6.81694e-10 6.94335e-28)
(-1.12483e-10 -5.7012e-10 8.42681e-28)
(-1.96368e-09 1.94066e-09 -3.34385e-27)
(-2.35666e-10 2.61061e-11 0)
(1.08346e-10 -4.35605e-10 3.21713e-28)
(-2.85925e-11 -3.21145e-10 -1.66478e-27)
(1.02586e-10 -1.98827e-10 3.16036e-28)
(-1.23347e-10 -4.28311e-10 -8.56276e-28)
(-3.03504e-09 -1.91765e-09 -1.7574e-27)
(-1.38233e-10 -2.85511e-10 -7.41747e-28)
(-9.6451e-11 1.43558e-10 9.31977e-28)
(-1.20798e-09 2.47984e-09 0)
(3.09631e-11 3.12088e-11 2.56194e-28)
(-2.80781e-10 9.14399e-10 -7.87098e-27)
(1.11422e-11 2.04024e-11 1.39372e-27)
(-7.29302e-10 1.66297e-09 0)
(-1.74367e-10 -3.47125e-10 6.9417e-30)
(-1.42261e-09 1.041e-09 -3.01872e-27)
(3.46619e-11 5.04273e-11 0)
(2.00676e-10 -5.23114e-11 0)
(-7.66086e-11 -2.91875e-10 -1.30576e-27)
(-8.8189e-10 1.39603e-09 4.6271e-27)
(-1.83893e-09 2.65339e-09 0)
(-2.73563e-11 -3.34829e-10 8.76181e-28)
(-1.23929e-09 -3.04692e-09 -4.14822e-27)
(4.33037e-13 -3.48013e-10 -8.61236e-28)
(-1.5562e-10 -2.98885e-10 -7.41805e-28)
(-9.5282e-11 -4.27698e-10 7.43469e-28)
(5.8226e-11 3.96521e-11 -2.34964e-28)
(-3.88369e-11 -1.3094e-10 -3.98948e-27)
(-2.43932e-09 4.02317e-11 1.5178e-29)
(2.08667e-10 6.54689e-12 0)
(8.70366e-11 -5.41361e-10 6.51052e-29)
(2.40691e-10 4.82141e-11 0)
(2.6284e-11 3.29149e-10 3.5176e-31)
(2.48666e-11 3.45869e-10 0)
(-1.87921e-10 6.84234e-10 -6.18968e-27)
(3.93222e-12 2.17692e-12 0)
(-8.18638e-11 -3.69993e-10 8.34847e-28)
(-4.80713e-10 8.21759e-10 -4.63207e-27)
(1.41119e-10 -5.64918e-10 0)
(2.7565e-11 -3.44592e-10 0)
(1.77685e-10 -4.52186e-10 -4.79242e-28)
(-4.50189e-11 -3.70962e-10 0)
(-1.41007e-10 -1.04746e-10 2.61194e-27)
(2.23443e-10 -1.03312e-10 1.83643e-29)
(2.78541e-10 1.03331e-11 -1.17211e-29)
(-1.70163e-10 3.84448e-10 6.36801e-27)
(1.79533e-11 5.92318e-11 1.62765e-27)
(-3.87346e-11 -5.31961e-11 3.20933e-27)
(5.48857e-11 1.23224e-10 -8.35865e-29)
(1.43321e-10 -5.60722e-10 4.89792e-28)
(-2.02753e-09 -2.47041e-10 -2.1595e-29)
(-1.79712e-09 7.59828e-10 1.39471e-27)
(-2.01606e-09 -1.2501e-09 -1.47438e-27)
(-1.3879e-10 -4.99441e-10 0)
(2.6465e-11 -3.19005e-10 1.0653e-27)
(-1.57827e-09 3.71013e-10 -1.40686e-27)
(2.57546e-11 -3.39764e-10 0)
(-4.15001e-11 3.55471e-10 0)
(-1.23137e-10 3.14333e-10 6.09759e-27)
(8.6457e-12 1.7825e-11 -1.0824e-27)
(-1.35988e-10 -3.21194e-10 -4.97711e-27)
(9.55694e-12 -1.79071e-11 -1.00342e-28)
(2.95915e-10 7.26247e-11 0)
(6.87149e-11 3.11029e-10 0)
(-7.45639e-11 7.83775e-11 -5.0502e-27)
(1.15235e-11 4.15356e-11 -2.49609e-27)
(1.28746e-10 -1.15858e-10 -5.61352e-28)
(-2.30342e-09 7.76423e-10 1.53966e-27)
(9.61364e-12 1.40049e-10 1.12801e-27)
(2.61318e-11 1.81258e-10 0)
(1.79036e-11 -3.22687e-10 0)
(-6.88788e-11 -5.43197e-10 -2.63916e-29)
(2.66206e-10 -9.21665e-11 6.64683e-28)
(2.34321e-11 1.12765e-10 1.56133e-27)
(-4.59922e-11 -2.67939e-10 -2.26067e-27)
(3.09526e-10 1.10063e-11 0)
(6.95393e-11 9.96706e-11 0)
(-9.86667e-12 -4.42412e-10 1.1925e-29)
(1.62175e-11 2.87603e-10 -2.6256e-27)
(3.02622e-10 1.04131e-10 2.86935e-29)
(2.63278e-10 1.91468e-10 9.12417e-28)
(-6.45542e-10 -2.98695e-11 5.58322e-28)
(1.11046e-11 -3.3905e-10 -1.07002e-27)
(-9.26944e-11 4.93916e-11 -4.38457e-30)
(2.12992e-11 2.44085e-10 -1.62249e-27)
(-2.73769e-11 2.97753e-10 0)
(2.9556e-10 1.93026e-11 0)
(-1.67348e-09 7.17091e-12 -1.33243e-28)
(-5.65077e-10 5.99681e-10 3.9216e-27)
(-5.04493e-10 -1.23274e-12 0)
(2.6916e-10 1.3159e-10 -8.27341e-28)
(4.62768e-12 -3.18088e-10 3.11897e-27)
(7.86397e-12 1.62663e-10 1.0592e-28)
(8.42161e-12 3.2682e-10 1.13925e-27)
(1.42261e-11 7.54699e-11 0)
(-3.16961e-10 3.89142e-11 -2.83148e-28)
(2.19768e-11 5.53048e-10 9.71314e-28)
(1.84319e-11 3.0986e-10 -1.65102e-28)
(4.97456e-12 -1.14897e-10 2.3604e-27)
(1.37555e-11 -1.93378e-10 -1.58374e-28)
(-9.55633e-10 7.12444e-10 -2.66105e-27)
(-5.60679e-12 -2.03562e-10 -4.73758e-28)
(1.04946e-10 4.21465e-10 -2.89114e-28)
(1.05884e-11 -2.12203e-10 3.06055e-28)
(1.3235e-11 -2.98826e-10 -1.01398e-27)
(2.40688e-10 1.51063e-11 8.17914e-28)
(1.96556e-10 1.4795e-10 -3.22661e-30)
(-8.08366e-10 -1.86541e-10 9.13607e-28)
(-2.38174e-12 2.98086e-10 1.69898e-29)
(1.74392e-10 4.08068e-10 8.51294e-28)
(-2.64396e-11 -3.26808e-10 9.61084e-28)
(1.33214e-12 8.51616e-11 0)
(2.959e-12 1.63881e-10 -1.2737e-28)
(9.59568e-12 1.7906e-10 1.91109e-28)
(7.16718e-12 1.64613e-10 -1.17792e-31)
(-8.7043e-12 -1.8059e-10 0)
(-2.97353e-12 -8.94931e-11 -8.37704e-28)
(-6.832e-13 -1.24998e-10 -3.35792e-27)
(8.85824e-12 -1.73389e-10 2.0531e-30)
(5.34709e-11 -6.17199e-10 -5.17836e-31)
(1.52436e-13 -1.67248e-10 1.04789e-27)
(1.15586e-11 -1.49191e-10 -2.16781e-28)
(4.76971e-11 -5.19101e-10 -3.99596e-28)
(-8.56616e-11 -6.37936e-10 8.33574e-31)
(-5.30045e-11 -6.1142e-10 -8.36215e-31)
(1.77334e-11 6.48802e-10 -8.93096e-28)
(8.8881e-11 -6.4053e-10 5.12327e-31)
(3.60922e-12 9.23071e-11 1.60093e-28)
(1.46248e-11 -6.56539e-10 6.68973e-28)
(2.30521e-11 -5.73298e-10 0)
(-2.68936e-11 -5.66764e-10 0)
(8.13396e-12 -3.35576e-10 0)
(-2.31728e-11 -6.52623e-10 7.474e-31)
(1.59047e-12 -8.88963e-11 0)
(1.77223e-11 -3.03798e-10 -9.52716e-29)
(1.88687e-12 -1.8319e-10 0)
(-3.35334e-12 -1.81112e-10 -6.08367e-28)
(-1.0686e-11 -3.29563e-10 9.66161e-28)
(-1.48375e-11 -1.12025e-10 2.2194e-27)
(1.42432e-11 1.17041e-10 1.20875e-27)
(-6.99642e-12 -1.01019e-10 0)
(1.49773e-11 -7.99282e-11 -1.8884e-29)
(-7.68015e-12 1.43111e-10 -3.03372e-28)
(1.23287e-12 1.83855e-10 0)
(4.96321e-12 -9.9269e-11 -9.60729e-28)
(1.3289e-12 1.06832e-10 -2.98807e-28)
(7.15312e-12 -1.72073e-10 2.22501e-28)
(-4.09131e-11 5.37488e-11 6.26945e-28)
(-7.57153e-12 -1.67489e-10 -7.73049e-28)
(-8.85051e-13 9.17667e-11 8.92029e-29)
(-1.70403e-12 -3.4401e-10 7.60872e-28)
(-3.45394e-12 -5.88429e-10 -6.69778e-28)
(3.97006e-11 -3.00651e-10 1.4074e-27)
(1.48041e-10 1.50607e-11 8.14615e-28)
(9.20614e-11 1.68217e-10 -7.71064e-28)
(3.97793e-11 2.17613e-11 0)
(-9.43865e-11 4.52418e-10 3.60373e-28)
(-1.17339e-11 1.67074e-10 -2.10486e-29)
(-6.24433e-11 9.12821e-12 -7.46623e-28)
(-1.07984e-10 1.65234e-10 7.40028e-28)
(-1.13263e-10 5.29297e-10 -7.08946e-29)
(-1.53637e-10 4.06497e-10 0)
(-1.81596e-10 -2.57981e-10 -7.4107e-28)
(-8.75798e-11 6.32229e-10 5.85316e-28)
(-1.46542e-10 1.78397e-11 0)
(-1.55116e-10 4.06242e-10 -2.3841e-29)
(-1.75643e-10 3.55049e-10 -2.08433e-29)
(-1.71366e-10 1.56179e-10 6.80757e-28)
(-1.13288e-10 4.91876e-10 4.1613e-28)
(-1.91303e-10 1.28055e-11 -6.94023e-28)
(-1.55397e-10 3.10156e-10 -5.17225e-28)
(-1.54757e-10 4.65983e-10 5.60777e-28)
(-1.94417e-10 1.35474e-10 0)
(-1.92064e-10 1.00945e-11 0)
(-7.49732e-11 4.52247e-10 -4.02485e-29)
(-1.731e-10 1.15058e-10 -1.76469e-29)
(-1.13499e-12 5.85218e-10 0)
(-1.16135e-10 3.50621e-10 0)
(-7.42788e-12 3.29342e-10 0)
(-1.01491e-10 2.66282e-10 -4.29289e-28)
(-8.14792e-11 4.14948e-10 -7.28644e-28)
(-7.80336e-11 -1.7104e-10 -7.18114e-28)
(-3.404e-11 -2.95961e-10 1.3098e-27)
(-1.50729e-10 7.05217e-12 0)
(-1.16464e-10 9.31681e-11 0)
(2.82946e-10 -1.94113e-10 0)
(-1.19103e-11 1.71004e-10 -4.55421e-28)
(-8.22152e-11 1.8351e-13 -5.90368e-28)
(1.50071e-11 2.21795e-10 0)
(-4.51993e-11 7.76741e-11 5.63496e-28)
(2.4041e-11 -1.5531e-10 1.46584e-27)
(-1.33534e-11 -6.85392e-13 5.28166e-28)
(-1.15614e-10 2.21096e-10 1.3541e-28)
(1.1495e-11 7.31836e-11 -5.28178e-28)
(-2.71704e-10 1.27405e-10 -8.46222e-28)
(2.26664e-11 -1.19701e-12 -1.2189e-30)
(1.79769e-10 -1.50071e-10 -1.79496e-29)
(-1.27386e-10 2.46209e-10 -6.05818e-28)
(-5.71372e-11 1.99305e-10 -1.37245e-28)
(6.67034e-11 4.3326e-10 -1.06138e-27)
(1.5152e-11 6.90554e-11 0)
(-1.8205e-10 -3.86322e-13 2.7638e-28)
(-6.90736e-11 2.9863e-10 -1.49482e-28)
(-1.84224e-09 -7.24822e-10 3.59987e-28)
(-1.77282e-11 -1.28811e-12 0)
(-8.00898e-11 6.32368e-11 0)
(-4.27322e-11 -5.15326e-10 -9.37852e-28)
(-9.74166e-12 -1.45572e-10 0)
(-1.36414e-10 -2.00557e-10 -3.7374e-28)
(-1.65171e-10 -1.1823e-10 4.76172e-30)
(2.67469e-10 -1.72273e-10 -2.32896e-30)
(-1.65677e-11 -2.96494e-10 0)
(7.45472e-11 -3.30899e-10 -2.64995e-28)
(-2.88954e-10 1.28699e-10 -7.75575e-28)
(-2.71365e-10 -1.26264e-10 -9.28791e-28)
(-1.82014e-11 -2.53097e-10 -1.17053e-27)
(-1.15315e-09 3.15842e-10 0)
(2.15229e-10 -2.52059e-10 0)
(-4.71315e-10 -4.21056e-11 9.51883e-28)
(-6.33939e-10 2.94478e-11 6.28761e-30)
(-9.47425e-10 1.12215e-10 -5.60855e-30)
(2.76333e-10 -2.48174e-10 -6.52216e-28)
(1.76178e-10 -3.85432e-10 1.37199e-27)
(-1.04487e-10 -2.58398e-10 7.33217e-28)
(-4.76146e-11 -4.46336e-10 1.95853e-27)
(-1.53137e-11 -2.11219e-10 0)
(5.56433e-12 -3.33511e-10 3.31754e-29)
(-2.46362e-11 -3.50963e-10 -9.63239e-28)
(-8.99464e-10 4.05955e-10 2.63582e-27)
(-3.87421e-10 8.52965e-11 4.09319e-28)
(-7.22348e-10 -1.5998e-11 -2.61637e-28)
(-1.01698e-09 -7.24368e-10 -4.25641e-27)
(-7.43411e-10 -2.28484e-09 5.24342e-27)
(-6.5143e-11 5.32458e-10 2.56335e-28)
(-3.90625e-11 -2.32881e-10 -7.26016e-28)
(1.38991e-11 -2.22718e-10 -1.44069e-27)
(-4.07715e-11 4.5362e-10 2.43401e-28)
(-2.86047e-10 2.3791e-10 -7.33952e-27)
(2.04225e-11 -3.13991e-10 -1.28168e-27)
(-8.37799e-12 -6.40882e-10 -6.94504e-28)
(2.96092e-10 -1.4421e-10 1.48061e-30)
(-1.43278e-10 -1.94369e-10 0)
(-1.31065e-09 -1.11482e-10 -3.89217e-30)
(1.95462e-11 -2.15848e-10 -1.50394e-27)
(-6.25658e-11 -1.94292e-10 0)
(-9.45809e-12 -1.21036e-10 9.27629e-28)
(-5.54896e-10 1.68748e-10 0)
(7.17152e-11 -1.8642e-11 0)
(-1.18248e-09 -3.13105e-10 -9.27812e-28)
(1.49548e-10 3.01258e-10 9.07469e-28)
(-5.21581e-11 -3.97451e-10 -3.60292e-30)
(-3.14784e-10 8.32701e-11 3.46661e-27)
(-5.61088e-12 -2.99543e-10 9.78636e-28)
(-1.00817e-09 1.49862e-12 3.86007e-28)
(2.45402e-11 -2.53015e-10 5.94188e-29)
(2.82771e-11 -1.8884e-10 1.7117e-29)
(-1.3735e-09 -6.13373e-10 1.23963e-27)
(1.68291e-10 -2.11632e-10 0)
(-4.82687e-10 5.96129e-12 -1.86517e-27)
(8.10635e-11 6.41118e-10 -5.00827e-28)
(-3.25639e-09 1.45114e-09 -5.79895e-28)
(1.71544e-11 1.76475e-12 -3.33804e-28)
(-1.114e-11 -1.60252e-10 1.41706e-27)
(-3.70142e-11 -6.78256e-10 -7.43706e-31)
(2.28978e-10 -2.44585e-10 -6.73868e-28)
(1.90395e-10 3.45675e-10 -8.72375e-28)
(2.3958e-11 -2.512e-12 -5.99425e-28)
(2.0126e-11 -3.48572e-10 -1.73663e-28)
(8.41802e-11 6.34176e-10 1.02423e-27)
(9.84769e-12 -4.14597e-12 3.03851e-28)
(-2.6815e-09 -3.75334e-09 0)
(-1.96007e-10 -2.07426e-10 -2.00779e-29)
(-2.6068e-10 -1.44969e-10 1.85128e-27)
(-1.21438e-11 -1.47248e-10 7.51118e-28)
(1.21901e-10 -7.61722e-11 2.68868e-28)
(1.47735e-11 -1.17857e-10 1.38022e-29)
(-1.12313e-10 -4.92269e-10 8.53784e-28)
(4.39189e-11 1.94249e-13 7.33733e-28)
(-7.59193e-11 -6.1994e-10 0)
(2.43068e-10 -3.22601e-10 -1.75438e-29)
(3.59607e-11 -7.00807e-12 -3.45604e-28)
(-4.18057e-11 -3.7909e-10 0)
(-6.80069e-11 -4.65761e-10 -9.77102e-28)
(1.96199e-10 -4.72686e-10 -5.02205e-28)
(-5.83673e-10 2.60329e-09 6.91244e-27)
(-1.69262e-12 1.31549e-13 0)
(-1.69758e-10 1.09528e-09 -3.73258e-27)
(-5.11324e-14 -1.60004e-12 -4.37213e-28)
(-2.25155e-09 3.80508e-09 0)
(1.57105e-11 9.73063e-12 -5.04115e-28)
(-3.28227e-09 -4.54444e-10 3.18608e-28)
(1.1237e-11 1.18037e-11 2.85648e-28)
(-9.73225e-10 2.66579e-09 0)
(-1.94628e-09 -3.26261e-09 1.26865e-28)
(2.10374e-12 -3.24392e-13 4.00126e-28)
(1.51059e-10 -5.41116e-11 0)
(-4.04009e-11 3.70882e-10 0)
(-2.49976e-10 -7.89629e-10 0)
(8.2996e-11 1.82954e-10 7.24169e-28)
(1.24024e-11 -6.95473e-12 0)
(-1.51455e-10 -3.31441e-10 9.68422e-27)
(-3.71358e-10 1.11531e-11 -1.5904e-28)
(-2.75405e-11 3.37465e-10 0)
(-7.97507e-11 -3.11899e-11 6.20992e-28)
(1.67973e-10 1.71424e-11 0)
(-1.06714e-09 -1.05867e-09 2.42114e-27)
(7.87558e-11 5.14607e-10 1.80097e-27)
(-3.3756e-11 1.24731e-10 5.70165e-27)
(9.01836e-11 2.84999e-10 3.5523e-28)
(5.73496e-12 1.82925e-10 0)
(2.57872e-11 3.30149e-10 1.75571e-28)
(3.84163e-12 3.21637e-10 0)
(2.63721e-11 2.58602e-10 -1.12175e-28)
(-6.23832e-11 2.91968e-10 1.42664e-29)
(-1.41049e-12 2.48621e-10 0)
(-3.61154e-12 2.6386e-10 -2.21981e-28)
(9.84421e-11 6.958e-11 -5.24329e-28)
(-5.67828e-12 1.63803e-10 0)
(-1.22944e-11 2.09451e-10 0)
(-9.22472e-11 6.05049e-10 -2.64066e-28)
(-1.05493e-10 5.29785e-10 0)
(-9.79402e-12 2.4346e-10 1.31221e-28)
(-1.53596e-11 2.72006e-10 8.68943e-28)
(-5.36099e-11 5.28621e-10 -4.17667e-28)
(1.90569e-10 4.44006e-10 -8.37331e-28)
(1.18382e-10 5.15068e-10 0)
(2.47916e-10 2.75087e-10 -2.01404e-27)
(4.59635e-11 5.81286e-10 0)
(-6.59098e-10 -4.35108e-10 2.18377e-27)
(-2.76462e-09 3.73729e-09 0)
(8.63803e-12 2.41864e-12 0)
(-2.28158e-09 -3.88994e-09 0)
(6.05313e-13 -2.64892e-12 -2.19743e-28)
(-3.35916e-09 -2.77712e-11 8.17155e-28)
(-3.02951e-09 -2.58944e-09 0)
(-2.13152e-10 -1.14167e-09 0)
(6.56569e-14 1.42978e-12 3.57725e-28)
(-6.38526e-10 -2.57676e-09 0)
(-1.38497e-12 2.99239e-13 -4.68128e-28)
(-2.93412e-09 2.15094e-09 6.28001e-28)
(7.90885e-11 -5.26311e-11 3.08795e-28)
(6.36319e-11 1.68128e-11 0)
(2.20803e-10 1.08729e-10 4.96759e-28)
(9.46489e-11 2.41511e-11 0)
(-2.30778e-09 2.99777e-09 0)
(-1.06678e-10 -4.87055e-10 0)
(4.38027e-11 -4.21297e-11 1.65008e-29)
(4.9189e-11 2.2505e-11 4.53534e-28)
(-3.11573e-09 2.38207e-09 -6.23359e-28)
(6.02056e-11 -2.86991e-11 3.42395e-28)
(2.92127e-11 3.26267e-12 4.84298e-28)
(-1.60504e-09 -1.52178e-09 1.65953e-27)
(-4.85248e-11 -5.69493e-11 -4.38937e-27)
(-1.74302e-09 -4.25495e-09 -3.3259e-27)
(-6.21153e-10 -1.92057e-10 9.16178e-28)
(-1.12239e-11 9.28405e-11 -2.10333e-27)
(-1.2009e-12 1.74354e-10 7.96431e-28)
(-1.06374e-12 9.67587e-11 -5.74902e-28)
(-3.95676e-10 1.5914e-09 9.01401e-27)
(1.8573e-12 9.54066e-13 6.51449e-28)
(2.05368e-11 1.92465e-10 1.20622e-28)
(1.15972e-11 2.76461e-10 1.32758e-31)
(1.0443e-10 1.12809e-10 1.06823e-27)
(-3.76119e-11 2.1012e-10 7.18113e-28)
(-3.17946e-12 8.16696e-11 0)
(-1.13951e-11 1.60339e-10 4.99233e-29)
(2.2579e-10 1.82582e-10 -5.20021e-28)
(-6.50563e-12 8.34992e-11 0)
(5.62004e-11 1.97444e-10 -7.30829e-28)
(-1.24303e-10 5.55927e-10 0)
(-4.11671e-12 1.1644e-10 -1.39301e-28)
(-1.34496e-11 4.09685e-10 2.4871e-29)
(3.15481e-11 5.13233e-10 -4.29048e-28)
(2.74664e-10 2.6181e-10 1.47526e-27)
(8.29019e-11 4.27052e-10 -2.81048e-29)
(2.43956e-10 3.53303e-10 -5.30086e-28)
(3.96342e-11 4.74279e-10 -6.51018e-28)
(2.43486e-10 3.15131e-10 5.61348e-28)
(-1.47287e-11 6.38146e-10 3.26112e-28)
(1.91633e-11 3.419e-10 0)
(-3.32656e-09 -1.48e-09 -5.06961e-28)
(-1.83311e-11 3.3542e-10 5.50469e-28)
(1.80899e-10 1.04141e-10 0)
(-5.48252e-11 6.55391e-10 -6.44548e-28)
(-1.71367e-11 3.37893e-10 0)
(-5.07015e-11 3.92692e-10 4.43638e-28)
(6.17733e-12 -8.00173e-12 -2.61736e-28)
(3.06708e-11 -1.72833e-11 -2.44979e-29)
(2.23959e-11 -2.17864e-11 -3.55334e-29)
(-7.4359e-13 -8.11853e-13 4.86235e-28)
(-2.95899e-10 -1.39791e-09 0)
(-1.21171e-09 -3.42e-09 9.06631e-28)
(1.512e-10 1.46532e-10 -1.34357e-27)
)
;

boundaryField
{
    back
    {
        type            empty;
    }
    front
    {
        type            empty;
    }
    left
    {
        type            noSlip;
    }
    top
    {
        type            uniformFixedValue;
        uniformValue    
        {
            type            scale;
            scale           
            {
                type            squarePulse;
                start           0.3;
                duration        0.3;
            }
            xScale          
            {
                type            constant;
                value           1;
            }
            value           
            {
                type            constant;
                value           (0 -0.7 0);
            }
        }
        value           uniform (0 -0 0);
    }
    right
    {
        type            noSlip;
    }
    bottom
    {
        type            zeroGradient;
    }
}


// ************************************************************************* //
