/*--------------------------------*- C++ -*----------------------------------*\
  =========                 |
  \\      /  F ield         | OpenFOAM: The Open Source CFD Toolbox
   \\    /   O peration     | Website:  https://openfoam.org
    \\  /    A nd           | Version:  9
     \\/     M anipulation  |
\*---------------------------------------------------------------------------*/
FoamFile
{
    format      ascii;
    class       volScalarField;
    location    "0.75";
    object      p;
}
// * * * * * * * * * * * * * * * * * * * * * * * * * * * * * * * * * * * * * //

dimensions      [0 2 -2 0 0 0 0];

internalField   nonuniform List<scalar> 
578
(
-4.36529e-12
-1.12465e-11
-3.24318e-12
3.88369e-13
-1.03594e-11
6.86502e-12
1.01084e-11
-8.77749e-12
-7.37444e-12
-1.69655e-11
3.59939e-12
-8.67838e-12
2.32394e-14
-9.79787e-12
9.45341e-12
-3.26178e-13
-5.29531e-12
-4.82975e-12
-6.77077e-12
-4.90614e-12
4.32227e-13
2.60973e-13
2.23995e-12
2.66774e-12
2.57181e-12
-6.44491e-12
-6.81294e-13
-1.48785e-12
-8.07625e-12
6.29285e-14
-9.42291e-13
7.75703e-12
-3.27002e-12
6.23918e-13
8.48755e-12
-3.64436e-12
-8.75538e-12
-8.38602e-12
-2.13564e-13
-1.21022e-11
-9.43275e-12
-7.66235e-12
-9.72894e-12
9.90297e-12
-2.50226e-12
1.23132e-11
9.42876e-12
-7.95613e-12
-3.42961e-13
-8.50259e-13
1.06372e-11
-4.50843e-15
1.02665e-11
5.31576e-13
-1.44714e-13
-4.60308e-12
2.05583e-12
1.57909e-12
-2.64465e-12
-5.60239e-12
-5.14928e-12
-7.27002e-12
-7.11864e-12
-1.08672e-11
-1.98575e-13
9.14811e-12
-1.82499e-12
4.88153e-12
3.31807e-12
-6.24932e-12
9.62258e-13
7.44507e-12
-1.64528e-13
-7.28589e-12
3.43253e-12
-1.15847e-11
-9.39351e-12
-7.71377e-12
-1.39962e-13
6.85735e-12
8.50692e-12
-8.50018e-12
1.26161e-11
1.18406e-11
2.03915e-12
6.53406e-12
1.23373e-11
-3.11709e-12
-6.94736e-12
6.31172e-12
-6.76483e-13
4.48164e-12
8.07326e-12
1.67831e-13
4.167e-12
7.46249e-12
-1.69799e-13
-1.59738e-13
-1.60032e-11
9.41551e-12
8.81643e-12
-7.13721e-12
-5.0176e-13
5.59464e-12
-2.94505e-13
-9.90744e-12
3.8719e-12
-1.17393e-11
7.84137e-12
-1.03168e-11
-3.27553e-12
-6.76842e-12
-5.52695e-12
5.85697e-12
6.47901e-12
-3.5462e-13
2.89614e-13
-5.52217e-12
6.20635e-12
-2.18758e-13
-5.70525e-12
1.64086e-11
-7.90067e-12
2.49501e-13
9.64236e-12
4.15323e-12
7.04183e-12
-1.16149e-13
7.72894e-12
1.08724e-12
7.81684e-12
3.65672e-12
1.82707e-13
-6.3016e-12
6.96905e-12
7.47234e-12
-1.0256e-11
-3.37284e-13
3.87597e-12
7.87316e-12
8.47571e-12
2.296e-12
7.56217e-12
-2.76223e-12
-7.21904e-12
2.76047e-12
2.84849e-12
-9.94845e-13
-7.92119e-12
-1.34786e-14
-8.4493e-12
3.60555e-12
-1.04131e-11
-5.82944e-12
9.20531e-12
-8.17575e-13
-6.19903e-12
2.8139e-13
9.93107e-12
-8.58218e-12
-8.99846e-12
-8.77543e-12
8.99011e-12
-8.23344e-12
-4.49448e-12
2.46679e-12
-3.06022e-12
9.29798e-12
5.50363e-13
-3.06137e-13
-7.50922e-12
-1.05418e-11
7.68787e-12
5.60836e-12
9.0288e-12
-2.9778e-13
-1.39905e-13
-5.1432e-12
-8.26584e-12
-7.09378e-12
9.89873e-12
-8.82506e-12
5.24913e-12
-1.35773e-13
7.7923e-12
-7.85571e-13
-4.85226e-13
1.02163e-11
9.12387e-12
-1.01056e-11
-9.18904e-12
-8.90184e-12
3.35905e-12
9.1523e-12
-1.32279e-11
-1.86125e-13
9.42293e-13
-1.29145e-12
8.8199e-12
-9.23456e-12
3.90095e-13
-2.66384e-14
1.73309e-11
-4.47462e-13
-2.51295e-13
-9.44765e-12
8.56169e-12
-3.89735e-13
-8.86338e-12
1.40089e-12
1.5531e-12
8.54855e-12
6.59999e-12
-7.94791e-14
6.80621e-12
1.08755e-13
9.09096e-12
-9.12894e-12
9.11513e-12
3.46587e-12
-9.05776e-12
8.93962e-12
-4.15002e-12
-9.23253e-12
9.96853e-12
4.09944e-12
-1.51662e-13
6.96222e-13
-1.074e-12
-7.94271e-12
-1.51019e-11
1.65208e-11
6.34541e-12
-3.90442e-12
3.86345e-12
-6.82329e-12
-9.48716e-12
9.5933e-12
9.07156e-14
-1.51927e-12
9.57327e-12
-1.06486e-11
-3.30008e-13
9.60634e-12
-1.27752e-12
-7.22932e-12
7.8484e-12
-1.49687e-11
6.62751e-12
-5.19166e-14
-1.59829e-13
5.57331e-12
8.89861e-12
1.15473e-12
7.9966e-12
-2.32274e-12
-6.22506e-12
8.65674e-12
-7.70795e-12
1.47557e-11
-3.53688e-12
9.93937e-12
9.47005e-13
1.09291e-12
-8.83219e-12
-4.99382e-12
2.67375e-12
-1.76666e-12
-1.22965e-11
3.19639e-12
-3.22566e-12
3.23642e-12
1.45711e-12
-2.38442e-13
2.16102e-14
-5.09859e-14
-5.23786e-13
1.73983e-12
9.32227e-12
2.75297e-13
-9.80708e-12
-2.70715e-13
-2.3867e-13
-8.49263e-14
-4.91315e-14
7.38743e-12
-4.34876e-12
4.28298e-12
1.25473e-12
7.90968e-13
1.2993e-12
5.29137e-12
-5.66045e-13
8.47655e-12
7.3548e-13
9.69343e-13
-9.78755e-12
-1.0981e-12
-8.48055e-13
6.51869e-13
4.87077e-14
-1.3438e-12
-2.44543e-13
-1.86109e-12
9.75395e-13
5.70648e-15
2.92444e-14
-5.74279e-12
1.05726e-13
-2.56078e-14
-2.73185e-12
-8.49011e-13
-1.1628e-13
-1.50207e-12
5.22033e-13
-1.89439e-13
4.81606e-12
-1.21485e-12
-2.71097e-12
5.28114e-13
5.05816e-12
-2.81837e-13
-1.84041e-13
1.67083e-12
-2.54689e-13
-6.36936e-13
8.49249e-12
8.83512e-12
-9.16336e-12
-7.67688e-13
-3.12882e-13
7.40522e-12
-3.8068e-13
-5.46313e-13
6.17131e-12
1.02135e-12
7.05007e-14
-4.22549e-13
-3.43927e-12
-5.82437e-13
-1.53363e-13
-1.25895e-13
-8.75342e-13
-4.68158e-12
3.89376e-13
8.16573e-12
4.51301e-12
7.25704e-12
-7.2635e-12
8.3917e-12
-8.03245e-12
-8.85361e-12
8.97053e-12
-3.15738e-12
-1.12788e-11
1.15422e-11
1.11504e-12
1.09688e-11
-1.18253e-11
1.15785e-11
-2.94889e-13
-3.8978e-12
7.07353e-13
-5.80124e-12
-1.17456e-13
3.46463e-13
-9.15573e-13
7.14685e-12
4.01954e-14
-7.9706e-13
-8.49712e-12
-7.83323e-12
3.2599e-12
4.77247e-12
3.32344e-12
1.22266e-11
-5.19387e-13
8.2198e-12
-8.52124e-12
-2.01713e-12
-2.26317e-13
-8.60414e-12
9.00574e-12
1.68146e-12
9.07939e-13
-2.80867e-13
5.71777e-14
1.10003e-11
1.0282e-11
-6.68459e-12
-6.64502e-14
1.79292e-12
2.09447e-12
-2.38415e-12
-9.66069e-13
8.98691e-13
7.88879e-12
-1.75898e-12
1.38457e-12
2.7405e-12
-1.2227e-13
6.23142e-12
3.04115e-14
-5.7859e-12
-3.23643e-13
-1.25161e-12
5.31873e-12
-2.40234e-12
2.84531e-12
5.44276e-12
-7.85943e-13
-7.48723e-12
-4.16283e-12
4.61814e-12
-2.75005e-12
3.40394e-12
-7.38008e-12
7.37923e-12
-9.89082e-12
-7.57285e-13
8.10189e-12
4.48529e-12
-8.01655e-12
9.72959e-12
6.2286e-12
-3.86674e-12
-6.31117e-12
-6.09088e-12
-7.81131e-12
-3.65956e-12
5.84338e-12
1.60396e-12
2.19144e-12
-6.14661e-14
5.54737e-12
-5.00063e-12
-8.62609e-12
-5.06235e-12
-5.24569e-12
-2.37298e-12
-4.20918e-12
1.69163e-13
3.58438e-13
-8.84947e-13
7.23565e-12
-1.99069e-12
-1.14413e-12
6.32384e-12
6.25618e-12
-6.89422e-13
8.31759e-12
-4.3785e-13
6.53845e-12
7.12779e-14
8.31222e-12
-2.20312e-13
-1.08171e-11
2.56448e-12
1.82627e-12
-6.02918e-12
1.30071e-11
7.41304e-12
-5.08363e-12
-5.21545e-12
-1.94577e-12
-6.41058e-12
5.5645e-12
-1.00338e-11
-3.27102e-12
-4.85961e-12
-1.62462e-12
-1.62208e-12
5.60497e-12
-7.41551e-13
-2.17934e-12
-7.55624e-12
-5.64298e-12
-6.19075e-12
-3.12398e-12
-5.37876e-12
1.7616e-12
2.89208e-12
-2.58252e-12
-1.44727e-12
-7.23691e-13
-4.62099e-12
-3.05287e-12
-6.08095e-13
-4.71501e-13
7.95817e-12
2.42021e-13
5.79888e-12
-3.0188e-12
2.35909e-13
-4.61746e-13
6.53082e-12
-3.73401e-13
7.42093e-12
-5.59705e-13
1.98899e-13
-9.52634e-12
-1.55028e-12
-5.03715e-12
9.14671e-14
-5.06827e-12
-6.04341e-13
7.37544e-12
4.75345e-13
5.01039e-12
-4.83218e-13
-8.76629e-13
9.10339e-12
1.47802e-13
1.20055e-11
8.28488e-12
-7.29974e-13
-8.54484e-12
-1.16197e-11
5.63914e-12
1.46637e-13
2.73141e-12
3.92034e-12
-2.46209e-12
-6.79282e-12
-7.38454e-12
-4.86862e-14
-1.86748e-12
5.40759e-13
-7.93533e-12
-7.83575e-12
-8.31275e-12
-8.31724e-12
-1.40384e-12
-9.94309e-13
7.60276e-12
6.1502e-12
5.04312e-12
6.96118e-12
6.06067e-12
-7.16127e-13
3.25641e-13
7.21e-12
-4.40328e-12
-6.39189e-12
8.97968e-12
8.85057e-13
3.34534e-12
-5.18675e-12
-3.98053e-12
-6.00078e-12
4.86079e-12
8.92996e-12
-5.82667e-12
8.24502e-12
5.25986e-12
-3.33903e-12
-8.68053e-12
-1.34232e-12
-1.39924e-13
-6.66581e-13
-5.21488e-13
8.93167e-12
-7.73036e-12
-6.07426e-13
2.4371e-13
4.9482e-12
5.9608e-14
-4.98768e-12
-4.90287e-13
1.35657e-13
7.69198e-12
-5.38998e-12
5.49494e-12
-7.58616e-12
-3.04803e-12
3.20759e-12
4.24896e-12
3.04156e-12
)
;

boundaryField
{
    front
    {
        type            empty;
    }
    back
    {
        type            empty;
    }
    bottom
    {
        type            uniformFixedValue;
        uniformValue    
        {
            type            scale;
            scale           
            {
                type            squarePulse;
                start           0.3;
                duration        0.3;
            }
            xScale          
            {
                type            constant;
                value           1;
            }
            value           
            {
                type            constant;
                value           15.1;
            }
        }
        value           uniform 0;
    }
    left
    {
        type            zeroGradient;
    }
    top
    {
        type            zeroGradient;
    }
    right
    {
        type            zeroGradient;
    }
    inner_arc
    {
        type            zeroGradient;
    }
}


// ************************************************************************* //
