/*--------------------------------*- C++ -*----------------------------------*\
  =========                 |
  \\      /  F ield         | OpenFOAM: The Open Source CFD Toolbox
   \\    /   O peration     | Website:  https://openfoam.org
    \\  /    A nd           | Version:  9
     \\/     M anipulation  |
\*---------------------------------------------------------------------------*/
FoamFile
{
    format      ascii;
    class       surfaceScalarField;
    location    "0.75";
    object      phi;
}
// * * * * * * * * * * * * * * * * * * * * * * * * * * * * * * * * * * * * * //

dimensions      [0 3 -1 0 0 0 0];

internalField   nonuniform List<scalar> 
816
(
2.34004e-19
7.77003e-18
-8.00403e-18
-2.70786e-18
1.08779e-17
-8.17e-18
-1.35254e-17
1.37594e-17
7.0342e-19
-9.53525e-19
2.50106e-19
7.62331e-18
-7.62331e-18
-4.2401e-18
5.29073e-18
-1.05062e-18
-7.95593e-18
7.95593e-18
-7.15712e-18
7.15712e-18
-1.61941e-17
5.0464e-20
1.61436e-17
1.9749e-18
-4.68276e-18
4.03445e-18
-8.27455e-18
1.89551e-17
-1.37232e-17
-5.23186e-18
2.86875e-19
-2.28132e-19
-5.87423e-20
1.83186e-17
-1.65966e-17
-1.72206e-18
-1.8093e-17
1.59697e-17
2.12338e-18
-1.39045e-17
2.28877e-17
-8.98318e-18
-8.68609e-18
-2.46597e-18
1.11521e-17
1.6561e-17
-1.34138e-18
-1.52196e-17
2.22641e-18
1.67287e-17
7.60329e-18
-2.37974e-17
1.33538e-18
-6.31957e-19
1.71711e-18
-1.56216e-17
9.0828e-18
-3.81572e-18
-5.26709e-18
2.32569e-18
1.07278e-18
-3.39847e-18
2.69566e-18
-3.69967e-19
-1.55799e-17
3.81326e-18
1.17666e-17
1.07191e-18
-9.65125e-19
-1.06785e-19
3.26494e-19
-6.71483e-19
3.44989e-19
5.2013e-18
5.67657e-18
7.96996e-18
1.49177e-17
1.18283e-18
-8.56332e-19
1.58221e-18
3.70852e-18
2.41964e-17
-1.62264e-17
3.23211e-18
-2.24986e-18
-9.82259e-19
-1.78655e-18
-1.63065e-17
-3.92135e-18
1.88391e-17
1.68287e-18
1.66358e-17
-2.28209e-18
-1.32978e-17
2.35644e-17
-8.57924e-18
-1.49851e-17
4.73938e-18
2.88394e-18
-5.94044e-18
-4.9307e-18
4.87503e-18
1.60809e-17
-1.112e-19
-8.19488e-18
-3.92252e-18
1.21174e-17
-4.77864e-18
-3.17729e-18
6.16938e-18
1.49906e-17
-1.49401e-17
1.00389e-17
3.48349e-19
7.23561e-19
-8.87251e-19
-2.26381e-19
1.11363e-18
2.40481e-19
4.63936e-20
6.62879e-18
2.45401e-18
1.8969e-18
1.33521e-18
-1.01895e-19
1.01895e-19
5.14909e-18
-1.56076e-18
-3.58833e-18
-3.81571e-18
-8.19488e-18
-1.87902e-17
1.01041e-17
6.46835e-18
-1.03897e-17
-2.22915e-18
3.07673e-18
-5.5427e-18
-6.88408e-18
5.5427e-18
-5.37363e-19
-1.60592e-17
3.63096e-19
-2.31878e-19
-1.31218e-19
1.62251e-17
-1.44279e-19
1.54973e-17
8.69909e-18
-6.69796e-18
1.07324e-17
-6.89167e-18
2.01489e-17
-1.32573e-17
3.66526e-18
1.34407e-17
-1.71059e-17
4.458e-19
6.94955e-19
3.47583e-19
1.55139e-20
1.3675e-17
6.5913e-18
-2.02663e-17
3.79078e-18
-4.42969e-18
6.38917e-19
6.47781e-18
-6.47781e-18
-9.60871e-18
1.7212e-17
-1.29922e-17
3.38349e-18
1.1945e-19
-2.94806e-18
-5.05597e-18
8.00403e-18
-1.30669e-17
-5.1756e-18
1.82425e-17
7.77003e-18
5.88255e-18
-5.88255e-18
-8.67259e-18
8.67259e-18
-9.34514e-18
1.82116e-17
-8.86647e-18
4.65897e-18
1.43245e-18
-2.26381e-19
4.77841e-18
3.70683e-19
-4.08357e-19
-1.27297e-17
1.3138e-17
1.11512e-17
4.81892e-19
-1.16331e-17
2.177e-19
6.66557e-18
-1.60107e-17
4.44239e-19
1.37186e-17
-1.41628e-17
6.25568e-19
-5.38238e-19
-8.73302e-20
-1.58749e-17
-1.6917e-19
1.44393e-17
-1.42701e-17
-8.63811e-20
4.31524e-20
1.9749e-18
1.2804e-18
-1.75869e-17
-2.02376e-19
1.64275e-17
-1.1344e-17
1.50093e-17
1.78523e-19
2.35465e-19
-4.13988e-19
-1.15273e-17
4.56216e-20
-4.56216e-20
-2.26328e-18
1.8899e-17
2.74015e-18
5.94044e-18
4.65897e-18
-6.01438e-19
-5.87637e-18
8.30011e-18
1.05389e-17
1.72539e-17
1.6044e-17
-1.98733e-17
3.8293e-18
2.72637e-19
-9.41134e-20
-7.08012e-19
-2.45513e-19
7.30557e-18
1.05458e-17
-1.78514e-17
-2.16947e-19
1.13682e-17
-4.0759e-20
8.63809e-20
-7.40193e-19
1.25068e-17
-9.85488e-18
1.18229e-18
3.43089e-18
1.13594e-18
1.99433e-19
-3.97233e-18
-1.46681e-17
1.59278e-17
-1.25971e-18
-2.46665e-18
-1.06002e-17
1.45303e-17
-1.02059e-17
-4.3244e-18
1.39575e-17
3.04355e-18
-1.66176e-17
9.4364e-20
1.65233e-17
-1.70989e-17
2.4308e-18
2.37312e-19
3.88256e-19
-4.13484e-18
4.13484e-18
-1.503e-17
-1.58761e-18
-1.18988e-19
1.51304e-17
-1.50114e-17
-2.29346e-19
-1.34939e-17
-1.21325e-17
-7.7408e-18
-1.1831e-17
1.19254e-17
-2.04508e-19
4.46947e-18
-4.26496e-18
-3.1414e-18
-1.20355e-17
1.44964e-19
2.54944e-18
-2.69441e-18
-4.87503e-18
-1.75221e-19
-1.48099e-17
-1.71539e-18
-8.8896e-18
1.0605e-17
1.16709e-20
-8.93793e-20
7.77084e-20
1.52193e-17
-1.21757e-17
-1.85397e-17
-4.89923e-19
1.90296e-17
5.35083e-18
-5.35083e-18
6.46835e-18
7.24785e-19
3.41005e-18
1.7912e-18
1.69642e-17
-1.87554e-17
-1.48826e-19
4.97175e-19
-7.00132e-18
1.22026e-17
6.63231e-20
1.66315e-19
-2.32638e-19
-5.05597e-18
1.67007e-18
-2.02097e-17
-1.43891e-17
4.46947e-18
-1.4534e-17
1.4044e-17
-1.45511e-18
1.45511e-18
1.35039e-17
-1.31014e-18
-1.21883e-17
1.39795e-17
-1.00585e-20
7.63819e-20
1.38709e-18
-1.47662e-18
8.95314e-20
-1.38803e-18
-1.31459e-17
4.9307e-18
-5.16005e-18
5.53888e-18
-5.65787e-18
-4.97254e-19
3.82511e-18
-3.32786e-18
2.62191e-19
-1.24505e-17
5.10845e-19
-6.42062e-19
6.6585e-19
-1.55006e-19
1.74096e-17
-7.39858e-18
6.01056e-18
-8.5055e-19
-3.31603e-19
1.18215e-18
-4.87251e-18
5.1347e-18
-3.08727e-18
1.47542e-17
-1.16669e-17
-1.09942e-17
1.24266e-17
7.85301e-19
5.53092e-19
1.45773e-17
1.16712e-20
-1.03897e-17
7.04561e-18
7.48468e-18
1.74161e-17
8.28447e-19
-1.82446e-17
-1.14197e-18
2.9142e-19
-1.73075e-17
-8.29318e-19
1.81368e-17
1.45956e-17
-5.51566e-19
1.36867e-17
2.92855e-19
4.68276e-18
-7.89834e-19
-5.66949e-19
1.35678e-18
-7.6382e-20
2.34495e-19
-1.58113e-19
8.93793e-20
-2.38205e-19
1.42848e-17
-1.45151e-17
2.30311e-19
1.40652e-17
-1.37663e-17
-2.98943e-19
-1.00584e-20
2.47063e-19
-1.78626e-18
-4.09628e-18
5.97251e-19
8.81573e-19
-1.03658e-18
5.71321e-19
-7.26617e-19
1.20164e-17
6.29798e-19
-9.51939e-18
1.95395e-17
9.61804e-19
-1.59918e-17
2.1722e-20
8.59851e-19
-1.10737e-17
1.58434e-18
-4.48395e-19
-2.69806e-18
3.32786e-18
1.58736e-17
-1.15223e-17
-9.28178e-19
-1.00885e-17
1.08133e-17
5.45899e-18
-6.01056e-18
5.42755e-18
-5.1347e-18
1.01077e-17
-1.2198e-18
-2.0465e-19
1.42445e-18
-1.14197e-18
-1.78626e-18
3.82511e-18
-2.95799e-18
-1.11557e-17
-7.39858e-18
5.45899e-18
5.42755e-18
1.5315e-19
-6.91003e-19
9.62327e-18
-8.93226e-18
-4.87251e-18
-1.78675e-18
-4.03042e-19
-2.38205e-19
-4.26496e-18
-2.91421e-19
2.26633e-18
5.53888e-18
3.70657e-19
1.99711e-18
-2.36777e-18
1.37851e-18
1.46297e-18
1.44648e-17
2.01264e-18
1.69588e-18
8.39232e-19
-2.71905e-18
1.87982e-18
1.11363e-18
1.3933e-17
-1.6891e-17
3.13136e-19
-1.88129e-17
1.86686e-17
2.71905e-18
-3.41005e-18
2.34495e-19
4.846e-19
6.5842e-18
2.41833e-18
-7.37599e-18
1.88225e-18
1.59347e-17
2.24728e-18
-1.84646e-18
1.64181e-18
1.10691e-18
-5.18279e-19
-1.32818e-18
1.56684e-18
-1.19618e-18
-2.69806e-18
5.65787e-18
1.98573e-18
4.70868e-19
-2.45659e-18
5.16005e-18
1.47883e-18
1.08526e-18
5.56546e-19
9.01298e-19
4.77207e-19
6.57549e-19
-4.39846e-19
9.42981e-19
-9.42981e-19
1.38878e-18
-1.20909e-17
-1.45288e-17
3.07921e-19
-1.78454e-18
-6.84033e-19
6.84033e-19
-4.846e-19
-3.06008e-18
-1.2524e-18
1.31014e-18
-5.77455e-20
1.2524e-18
-5.68365e-19
2.13519e-18
1.38878e-18
-1.51509e-17
-2.93632e-18
2.60471e-18
6.76176e-19
-1.18589e-18
5.09715e-19
1.33372e-18
1.88102e-18
2.73606e-19
1.31294e-18
-1.58655e-18
-2.95823e-19
5.69429e-19
-7.38421e-18
6.68187e-19
-1.85408e-18
2.16827e-18
-1.08301e-18
1.40582e-18
-8.1581e-19
-1.78841e-18
1.15136e-17
1.89027e-18
5.85966e-19
1.69789e-18
-2.28385e-18
-4.39328e-19
1.55788e-18
3.32386e-19
1.64449e-17
-2.13892e-19
1.77178e-18
-4.06597e-19
1.92217e-17
-1.93169e-18
2.26407e-18
-1.26811e-18
-7.87158e-19
1.68846e-18
2.36585e-19
2.62318e-18
-7.37382e-20
-1.90166e-18
8.1865e-19
3.11325e-18
-1.80031e-18
-6.98683e-19
7.294e-18
-1.63212e-17
9.02721e-18
3.97579e-18
-3.97579e-18
-3.64541e-18
3.64541e-18
-4.3344e-18
4.3344e-18
4.33102e-18
-4.33102e-18
4.73938e-18
-4.77864e-18
-1.04395e-18
-2.30272e-18
3.34667e-18
6.16938e-18
-2.50629e-18
1.80761e-18
-6.05818e-18
6.05818e-18
-5.87637e-18
-5.85581e-18
5.85581e-18
-1.28741e-18
9.43518e-18
-8.14777e-18
3.07673e-18
-6.0696e-19
-5.03736e-18
5.64432e-18
-3.72372e-18
3.72372e-18
-2.41742e-18
1.50432e-17
-1.26257e-17
-6.32477e-18
-1.73081e-17
3.19756e-19
-6.88408e-18
-6.56738e-18
1.31587e-17
5.13233e-18
-1.00141e-17
1.80364e-17
6.62879e-18
-8.45925e-19
-3.58612e-19
6.85613e-19
9.63742e-18
1.51464e-18
-2.37526e-18
-9.91308e-18
1.22883e-17
7.05992e-18
-1.23305e-17
-7.38984e-19
-7.83194e-20
4.31524e-20
-5.88454e-18
-1.04367e-17
9.15862e-18
-1.32699e-17
-2.31687e-17
7.94907e-18
-3.62229e-18
-8.89843e-18
1.25207e-17
-1.56608e-18
-2.19123e-18
-8.41248e-20
2.27535e-18
-1.4059e-17
-1.31295e-18
1.31295e-18
-1.99315e-19
-2.98066e-19
5.97463e-18
-5.4935e-21
-4.01278e-20
4.31229e-19
-1.3057e-17
-1.48233e-17
1.36277e-17
-1.21131e-17
5.59037e-18
-1.4749e-17
4.73487e-18
1.713e-17
1.11669e-17
5.29656e-18
-2.52607e-18
-1.02036e-17
4.24102e-18
9.47754e-18
-7.38183e-18
-1.28845e-17
8.13092e-19
4.3123e-18
-1.45182e-17
-1.26137e-17
1.12866e-17
1.49467e-17
1.37044e-17
-1.62552e-17
2.55083e-18
-4.58533e-18
-1.49588e-18
-3.15041e-18
-4.37915e-19
-4.58533e-18
-3.18666e-18
-2.01435e-17
-1.79872e-18
2.19422e-17
1.21463e-18
5.14354e-18
6.97385e-18
1.9171e-21
4.12353e-20
-4.19274e-18
4.19274e-18
1.40383e-17
3.21568e-18
6.57063e-18
1.01287e-17
-1.26516e-17
-1.54252e-17
2.36825e-18
1.0565e-18
4.03626e-19
2.09919e-18
-2.67931e-18
5.80125e-19
-9.21774e-19
6.51918e-19
-8.79969e-18
2.04144e-18
-1.52005e-17
1.34018e-17
-6.23243e-19
-6.71483e-19
1.21989e-17
-5.49329e-21
-6.30025e-18
1.91703e-21
-1.12707e-17
2.05251e-18
-7.17299e-19
1.96826e-18
-7.25363e-18
1.62808e-17
2.44653e-18
-1.23735e-17
-5.47784e-18
-6.56293e-18
-4.91564e-18
-1.40332e-19
9.31032e-18
2.89229e-18
-8.61602e-19
-1.54636e-18
4.06608e-18
4.66231e-19
4.01509e-18
2.45326e-18
1.16786e-17
1.64566e-17
6.52967e-19
-2.8442e-18
3.4499e-19
-4.91564e-18
-1.54598e-19
2.32306e-19
-2.20162e-18
-1.011e-19
1.15794e-17
7.31965e-18
-1.30395e-17
4.01509e-18
5.14354e-18
2.77067e-18
1.7988e-17
1.68765e-18
3.42577e-19
-1.01007e-17
-4.57188e-21
4.57188e-21
-1.34241e-19
1.55057e-17
4.42998e-21
-4.42998e-21
1.30757e-17
-7.94872e-20
-3.28334e-20
1.33591e-17
-4.57164e-21
4.43013e-21
1.54106e-17
-3.83118e-18
-1.09623e-17
1.87515e-18
-1.46027e-17
1.28062e-19
1.04244e-19
9.8505e-18
-1.02091e-17
-6.17845e-21
-1.01597e-18
-1.66334e-18
1.82353e-18
-1.12858e-18
8.14144e-21
-8.76287e-20
1.62673e-19
-9.07088e-18
8.99256e-18
1.81464e-18
1.42675e-18
7.32828e-19
-1.56729e-17
-5.86535e-18
1.62422e-18
1.15908e-18
1.32615e-17
1.62434e-20
-1.44885e-20
4.86706e-18
-7.25624e-18
-1.77425e-18
-1.71448e-17
-1.96978e-18
-1.09941e-17
-5.04979e-19
8.54004e-18
-8.42901e-18
3.09744e-19
1.00649e-20
-6.34716e-21
1.61157e-18
-5.53672e-18
-3.38533e-18
-1.73419e-18
)
;

boundaryField
{
    front
    {
        type            empty;
        value           nonuniform List<scalar> 0();
    }
    back
    {
        type            empty;
        value           nonuniform List<scalar> 0();
    }
    bottom
    {
        type            calculated;
        value           nonuniform List<scalar> 
12
(
-6.09142e-18
-1.70011e-17
1.41137e-17
-1.41356e-17
8.21522e-18
1.87982e-18
-1.88225e-18
1.43381e-17
1.69931e-17
-1.43109e-17
-8.20002e-18
6.0812e-18
)
;
    }
    left
    {
        type            calculated;
        value           uniform 0;
    }
    top
    {
        type            calculated;
        value           uniform 0;
    }
    right
    {
        type            calculated;
        value           uniform 0;
    }
    inner_arc
    {
        type            calculated;
        value           uniform 0;
    }
}


// ************************************************************************* //
