/*--------------------------------*- C++ -*----------------------------------*\
  =========                 |
  \\      /  F ield         | OpenFOAM: The Open Source CFD Toolbox
   \\    /   O peration     | Website:  https://openfoam.org
    \\  /    A nd           | Version:  9
     \\/     M anipulation  |
\*---------------------------------------------------------------------------*/
FoamFile
{
    format      ascii;
    class       surfaceScalarField;
    location    "1";
    object      phi;
}
// * * * * * * * * * * * * * * * * * * * * * * * * * * * * * * * * * * * * * //

dimensions      [0 3 -1 0 0 0 0];

internalField   nonuniform List<scalar> 
1189
(
1.81775e-07
-1.92192e-07
1.04169e-08
1.87087e-07
-5.31204e-09
-3.00405e-07
4.98298e-08
2.50575e-07
-2.91522e-07
5.21549e-08
2.39367e-07
-1.50228e-07
-1.23547e-07
2.73774e-07
1.86521e-07
5.6651e-10
1.97451e-07
-1.093e-08
-6.15122e-07
4.59616e-07
1.55506e-07
2.97104e-07
-6.4744e-08
-2.3236e-07
-1.94235e-07
-1.98827e-07
3.93061e-07
-4.45165e-08
-2.55888e-07
-3.44462e-07
-6.47571e-08
-4.87574e-08
1.13515e-07
8.69722e-08
-1.29823e-08
-7.399e-08
1.8815e-07
3.71952e-09
-1.9187e-07
-2.56454e-07
2.52077e-07
4.37739e-09
-2.56405e-07
-4.88301e-11
-1.44138e-07
2.05911e-08
-2.6711e-07
2.61183e-07
5.92662e-09
-2.5987e-07
2.47471e-07
1.23991e-08
2.79835e-07
-4.43582e-09
-2.75399e-07
-7.7929e-09
1.60618e-08
-2.66422e-07
2.5036e-07
1.64229e-07
-1.48167e-07
2.74775e-07
-2.41951e-07
-3.28241e-08
2.56171e-07
-2.66214e-07
1.00431e-08
2.96444e-07
-2.16692e-08
1.24206e-07
1.72898e-07
2.76884e-07
1.95598e-08
-2.73396e-07
3.14453e-08
-7.28299e-08
8.07275e-09
1.41423e-08
-1.19784e-07
1.19784e-07
-8.06287e-08
-7.66163e-08
1.57245e-07
2.34298e-08
-7.78759e-08
-1.20483e-07
1.98359e-07
8.97476e-08
4.17699e-07
-5.07446e-07
8.68924e-08
-1.30877e-07
4.39847e-08
-1.96393e-08
-2.65535e-07
-2.59871e-08
-9.37163e-09
1.97522e-07
3.02004e-07
-2.51195e-08
7.98041e-08
-2.91704e-08
-5.06337e-08
-2.29391e-07
-3.70317e-08
1.64246e-08
2.39746e-07
3.64691e-08
-2.1715e-08
2.65942e-07
-2.44227e-07
2.57774e-07
-2.05619e-07
-4.09588e-07
3.87873e-07
-1.78659e-07
1.78659e-07
-4.90091e-07
2.13265e-07
2.76825e-07
1.3981e-07
-1.09997e-07
-2.98125e-08
2.62254e-08
5.35787e-08
3.05016e-08
4.99833e-08
-8.04848e-08
-5.14653e-07
6.74446e-07
-1.59793e-07
-5.70194e-07
5.55413e-08
-4.16711e-07
5.1977e-07
-1.0306e-07
1.98418e-08
6.46785e-08
-8.45203e-08
5.19342e-07
-5.40421e-07
2.10786e-08
-4.41713e-07
2.42886e-07
-5.1222e-07
-1.02902e-07
-2.79489e-07
2.79489e-07
5.37447e-08
-2.75193e-08
2.07151e-07
-4.28478e-08
-1.64303e-07
-1.02716e-07
-1.7068e-08
6.08499e-09
-4.43728e-08
3.82878e-08
1.64229e-07
1.27016e-07
-1.23296e-07
6.03008e-07
-1.43392e-07
-1.1794e-07
3.73112e-08
-6.09359e-07
5.44893e-07
6.44658e-08
1.26005e-07
-9.55032e-08
-5.42115e-07
4.59175e-08
4.96198e-07
-1.38988e-07
1.38988e-07
-4.74935e-07
-6.71806e-08
-5.58338e-07
5.80239e-07
-2.19016e-08
-3.51881e-07
3.28154e-07
2.37265e-08
1.05714e-07
-2.73929e-07
1.68215e-07
-9.50269e-08
1.14869e-07
-5.43939e-07
6.33686e-07
-3.83398e-07
3.60489e-07
2.29086e-08
-4.25512e-08
-3.0933e-07
-3.89958e-08
-1.14188e-07
3.75718e-08
3.75872e-07
2.27137e-07
2.65942e-07
-4.66514e-07
4.60973e-07
5.54044e-09
-5.52433e-08
4.90537e-08
-4.90537e-08
-1.56904e-08
8.92109e-08
2.70201e-07
-1.83309e-07
-2.8383e-08
1.48167e-07
-4.90986e-08
2.0691e-07
-2.21337e-07
1.44266e-08
4.65861e-07
-3.02663e-07
-1.63199e-07
-1.89134e-08
-4.476e-07
-1.02896e-08
-4.48716e-08
5.51612e-08
4.10355e-07
5.5506e-08
-7.07635e-08
1.75176e-08
5.32459e-08
-1.44297e-08
1.09197e-07
3.06132e-08
-6.67153e-09
-6.41765e-08
4.81875e-07
2.58992e-07
1.05351e-08
-2.69527e-07
-1.36777e-09
5.51125e-08
-1.35468e-08
-2.39452e-08
6.03861e-08
-3.64409e-08
-1.82176e-07
1.04301e-07
-1.25824e-07
5.01695e-07
-7.36565e-08
-4.66764e-07
-5.99141e-08
4.96245e-08
-2.42549e-07
-2.47542e-07
-1.60204e-07
3.73469e-07
3.80784e-08
-4.54789e-07
1.60172e-09
2.05309e-07
2.60594e-07
2.26862e-07
1.39124e-08
-2.40775e-07
-3.63005e-08
-5.73058e-07
1.06732e-07
1.2013e-07
2.80516e-07
-2.69981e-07
-1.22564e-07
-1.74415e-07
2.56421e-08
1.48773e-07
4.46114e-07
-1.22607e-07
1.09624e-07
8.36132e-08
-1.32371e-07
-9.24073e-09
-6.67978e-08
7.60385e-08
9.61404e-08
1.01839e-08
-1.30667e-07
-2.4819e-09
1.29498e-07
-3.61346e-08
5.36522e-08
5.09701e-08
-9.86896e-10
-1.31159e-07
2.36873e-07
-1.64733e-07
5.09701e-08
-1.49493e-07
3.00173e-07
-1.5068e-07
7.54432e-08
-6.91189e-08
2.07818e-07
-1.38699e-07
6.66359e-07
-1.21466e-07
-2.39073e-07
8.95799e-08
-1.4767e-08
-1.0784e-07
-2.23851e-08
1.05998e-07
8.37437e-09
1.80863e-08
3.70749e-08
-1.22855e-07
-5.156e-08
4.99052e-07
2.00022e-07
-6.84528e-09
-1.93177e-07
-1.38133e-07
2.17687e-07
-1.67857e-07
-3.58144e-07
1.71692e-07
1.86451e-07
4.08632e-07
-3.56425e-07
-5.22075e-08
-4.43728e-08
3.89719e-07
-3.58184e-07
-4.82777e-09
-2.16509e-07
-1.49001e-07
7.98819e-08
8.15228e-09
-5.18395e-08
3.70725e-08
-8.05876e-09
-1.43263e-08
-3.70725e-08
1.43263e-08
2.27462e-08
3.14839e-09
2.0216e-07
-3.82878e-08
4.66622e-08
6.47484e-08
-4.66622e-08
-2.75005e-07
-8.31383e-08
-1.36924e-07
1.40072e-07
4.55678e-08
-4.80497e-08
2.52115e-07
-2.89146e-07
2.76064e-08
2.51883e-07
5.16485e-08
-1.00702e-07
-5.02983e-08
2.24857e-09
4.80497e-08
4.2146e-08
-6.5255e-09
-3.56205e-08
1.02716e-07
-1.42386e-08
-8.84775e-08
4.01115e-07
-1.82912e-07
-2.18203e-07
-5.83963e-08
-1.76093e-07
-9.73025e-08
-9.35868e-08
9.84523e-08
-7.0396e-08
1.25364e-08
5.78596e-08
1.97592e-07
-1.89336e-08
-4.53943e-07
4.54392e-07
-4.48255e-10
-3.225e-08
1.54203e-07
-1.21953e-07
-1.62478e-08
-5.41482e-08
-2.00456e-07
1.86218e-07
-1.1708e-07
-5.02983e-08
5.18395e-08
-8.6939e-10
2.24391e-07
3.67922e-08
9.8579e-08
-2.35642e-07
1.37063e-07
-1.27277e-07
-3.06536e-07
-1.56075e-07
-1.51616e-07
3.07691e-07
-1.42337e-07
3.31548e-07
-1.89211e-07
-4.26337e-07
1.12491e-07
-7.51101e-08
-6.20213e-08
1.37131e-07
-5.1676e-08
4.95197e-08
2.15634e-09
-2.58747e-09
6.29736e-08
6.27903e-08
-2.06443e-08
1.037e-07
9.37512e-08
1.03291e-07
-1.1489e-07
1.15989e-08
-1.21048e-07
2.53803e-08
1.20985e-07
-1.46365e-07
3.21004e-07
1.87064e-07
-5.08068e-07
1.68424e-07
1.86791e-07
-3.55216e-07
-2.32815e-07
3.13515e-07
-8.06998e-08
-2.34167e-09
8.84775e-08
-8.61359e-08
-4.89224e-08
-5.69247e-09
2.00971e-07
-1.95278e-07
-6.85611e-08
3.89565e-07
6.53357e-08
1.03089e-07
-7.21923e-08
-1.60623e-07
-6.94821e-08
1.72773e-07
-4.25857e-07
-1.80619e-07
2.05999e-07
-2.98412e-07
2.62824e-07
1.76917e-08
-2.26726e-07
-2.82593e-08
-3.37621e-08
-2.7037e-07
-5.30125e-08
3.23383e-07
1.80896e-07
-1.83238e-07
5.34236e-09
1.66659e-08
-2.20083e-08
-3.8888e-07
3.2455e-08
1.19676e-07
-1.14334e-07
-2.6313e-07
2.68107e-07
-4.97739e-09
-2.35833e-07
1.71656e-07
8.05876e-09
-3.72292e-08
-5.2219e-07
2.24926e-07
2.97264e-07
-6.47484e-08
3.72292e-08
2.74472e-07
-1.16477e-08
-1.54026e-07
2.87206e-07
-1.3318e-07
5.25077e-08
-6.34377e-08
-4.22412e-07
1.6539e-07
2.57022e-07
-3.35126e-07
-2.37558e-07
2.28187e-07
1.29345e-07
-4.60189e-07
3.30844e-07
-4.05119e-07
5.34464e-07
-2.35621e-07
1.59489e-07
2.01967e-08
-1.62505e-07
1.42308e-07
5.18038e-07
-2.93111e-07
1.25322e-07
-4.33638e-09
1.91277e-07
-2.09282e-07
1.80051e-08
2.48549e-08
1.00467e-07
2.5851e-07
2.8696e-08
4.74151e-07
-3.08761e-07
-4.85124e-08
-6.63779e-08
-2.16062e-07
1.90014e-08
2.49833e-08
-2.07575e-07
2.69568e-08
-1.62984e-08
-1.97592e-07
2.21319e-07
-2.2226e-07
-3.00688e-07
5.22948e-07
2.68267e-07
-1.67104e-07
1.79503e-07
2.74191e-07
2.80823e-10
9.8045e-08
-1.44462e-07
4.64169e-08
2.48946e-07
2.98025e-08
1.9219e-09
-1.69026e-07
-1.22564e-07
-5.01936e-07
2.79676e-07
4.21467e-08
-1.11629e-07
2.23619e-08
-3.36048e-09
6.87498e-08
-6.87498e-08
-2.95951e-07
-1.64239e-07
6.84706e-08
-6.65487e-08
6.34377e-08
-3.04203e-07
1.23232e-08
6.18407e-08
5.78354e-08
2.75688e-07
-1.49743e-09
2.09958e-07
7.60282e-09
4.46789e-07
-6.24146e-09
5.03315e-07
-4.97074e-07
-2.6313e-07
-2.35833e-07
1.92794e-07
-1.67939e-07
-2.14817e-07
5.53509e-09
2.6075e-07
-7.81272e-08
-1.82623e-07
7.98351e-08
1.80915e-07
-7.4165e-08
7.4165e-08
1.36712e-08
2.65566e-07
2.70086e-09
2.59858e-07
9.4134e-08
-3.53992e-07
1.79735e-07
3.26252e-09
-1.82998e-07
5.90042e-08
-2.92032e-07
2.37436e-07
5.45969e-08
1.83439e-07
-1.21598e-07
2.59485e-07
-2.51883e-07
2.61866e-07
-2.68107e-07
2.28033e-07
-4.82977e-08
5.37043e-08
-5.37043e-08
-1.39683e-07
1.81829e-07
3.73387e-08
-3.73387e-08
4.82921e-09
-7.41668e-09
-4.68102e-07
1.72152e-07
2.73252e-07
2.43591e-09
-3.73215e-08
-4.48603e-07
4.85924e-07
-4.80525e-07
3.88117e-08
1.9372e-09
-1.9372e-09
3.39693e-07
1.49681e-07
2.10536e-07
-3.60217e-07
-1.78544e-08
1.78544e-08
8.41315e-08
-8.41315e-08
1.19709e-08
-2.66677e-07
-2.35259e-07
-2.03746e-07
4.12415e-08
-1.88426e-07
-1.70596e-07
-3.37472e-07
-2.38097e-07
-1.17118e-07
9.61404e-08
-7.09025e-08
-4.83601e-07
-5.42298e-08
5.48804e-08
-6.50597e-10
-2.76986e-07
1.96286e-07
1.96777e-07
-3.61015e-07
2.44227e-07
-2.21319e-07
4.82737e-08
1.35165e-07
4.52329e-07
4.81413e-07
2.79746e-08
-1.11621e-08
1.25068e-07
2.69261e-07
7.0432e-08
5.89944e-08
-5.89944e-08
5.42298e-08
-5.25443e-10
-2.28712e-07
-1.33927e-07
2.56615e-07
-7.66913e-09
-1.6344e-07
5.25077e-08
1.56904e-08
-2.23619e-08
-1.07772e-08
3.36048e-09
-2.28315e-08
3.10503e-07
-2.28884e-07
2.5584e-07
1.41639e-07
-1.49557e-07
-7.91547e-08
1.02624e-07
2.28925e-07
2.59485e-07
2.61866e-07
1.71656e-07
-1.07772e-08
6.84706e-08
-1.64648e-07
7.09025e-08
-2.43187e-09
2.04129e-08
2.5136e-07
3.03555e-07
1.99533e-07
-3.87959e-07
-2.52959e-07
2.65847e-07
-2.46765e-07
9.20625e-09
-1.61483e-07
-5.14864e-08
-2.40546e-07
2.19744e-07
-4.55003e-07
5.74095e-07
-1.27981e-07
2.59388e-07
-2.41383e-07
2.76376e-07
-3.12334e-09
2.60329e-08
-3.64443e-09
5.1676e-08
-5.26733e-08
9.97305e-10
2.46267e-07
-5.39378e-07
2.62553e-07
-5.97678e-07
2.61642e-07
-5.99115e-07
2.92778e-07
-6.01539e-07
3.51998e-07
-5.87619e-07
4.29337e-07
-5.46455e-07
4.81989e-07
-4.53293e-07
4.91252e-07
-3.31763e-07
6.65487e-08
-7.55429e-09
4.59744e-07
-2.63458e-07
3.66518e-07
-2.31353e-07
9.61146e-08
-8.60715e-08
2.96423e-07
-2.38588e-07
-2.62821e-07
2.90795e-07
5.31116e-08
3.51613e-09
2.7286e-07
-5.26733e-08
5.30572e-08
-5.48804e-08
1.82313e-09
-5.30572e-08
3.839e-10
3.80595e-08
-3.19417e-07
3.89849e-07
-2.66445e-07
2.69961e-07
-4.65058e-07
4.65058e-07
3.27361e-08
-6.48106e-10
1.33696e-08
-4.26083e-07
-3.89754e-08
-1.72203e-07
5.35099e-07
-4.26083e-07
2.55118e-07
-1.36413e-07
1.30721e-07
1.46887e-08
2.51158e-07
1.98689e-07
1.12684e-08
3.22875e-08
4.48685e-07
3.42035e-09
-2.57193e-07
2.53773e-07
3.8337e-07
-2.89236e-07
-2.3224e-07
2.54613e-07
-2.57736e-07
2.7628e-07
4.95197e-08
3.61319e-07
-2.58696e-07
-2.67348e-07
-3.05027e-07
-2.08736e-07
-8.89508e-08
3.32238e-07
-2.43287e-07
-2.43835e-07
2.49272e-07
-5.43632e-09
4.76823e-08
3.05043e-08
-6.34313e-08
-8.07065e-08
-3.36036e-07
-3.06336e-07
-2.49541e-07
-1.58283e-07
3.7959e-08
-2.48953e-07
5.11804e-09
-2.2175e-07
6.50702e-08
2.71719e-07
4.56105e-09
8.05501e-09
1.1795e-07
-2.58e-09
-2.78162e-07
2.30804e-07
-2.28104e-07
-2.31371e-07
2.4606e-07
2.56573e-07
-2.80032e-09
-2.61872e-09
-2.53594e-07
-1.28514e-08
4.52107e-09
2.52052e-07
-1.77071e-07
2.7624e-07
-8.91339e-09
-2.68654e-07
2.77568e-07
7.53904e-08
2.77735e-07
-2.77735e-07
-6.16598e-08
6.16598e-08
5.65342e-08
-5.65342e-08
-3.17961e-07
3.17961e-07
2.46153e-08
-2.46153e-08
3.70879e-07
-3.70879e-07
6.08357e-08
1.11938e-07
2.62977e-07
-2.49608e-07
6.39525e-08
-1.97358e-07
5.37138e-07
-1.26783e-07
2.69831e-07
6.40944e-09
-1.27893e-07
-8.61359e-08
3.0615e-07
-6.87141e-08
-7.32809e-08
-3.33919e-09
7.20836e-08
2.46532e-07
2.7398e-09
1.14131e-07
6.76986e-08
7.35422e-08
2.15943e-08
2.65526e-07
3.09859e-09
-2.38612e-07
-5.83578e-07
2.74949e-07
-6.63582e-07
4.14041e-07
6.79216e-08
2.38228e-07
-4.18953e-07
4.40282e-08
3.74924e-07
1.66059e-07
1.39097e-07
2.59525e-07
2.57665e-07
4.90466e-08
-3.06711e-07
1.67236e-07
9.91699e-08
2.16557e-07
3.92832e-08
4.55678e-08
-3.55e-07
1.52908e-07
-3.27308e-07
4.31901e-07
2.66035e-07
1.54081e-08
-2.76447e-07
2.58145e-07
-2.48938e-07
-2.99968e-07
7.8218e-08
-2.32635e-07
6.91954e-08
8.53708e-09
-2.55226e-07
7.90261e-08
1.762e-07
-3.17254e-07
7.39669e-08
2.26069e-07
-1.87528e-07
8.53609e-08
1.03545e-07
3.87258e-07
-3.13716e-07
2.53095e-07
-6.5628e-09
8.52203e-08
1.74305e-07
3.25586e-07
2.54617e-07
1.19501e-09
2.70087e-07
9.08514e-08
2.68775e-07
-1.28163e-07
1.41505e-07
1.14022e-08
2.99407e-07
2.71719e-07
-2.63182e-07
-3.03663e-07
5.47245e-08
-2.46525e-07
2.77029e-07
2.70038e-07
-2.89181e-07
-1.44823e-08
-2.04055e-08
5.08076e-07
-1.28275e-07
-5.41957e-08
5.41957e-08
4.04099e-07
-3.32015e-07
1.9974e-07
-1.95534e-07
-4.20522e-09
3.03371e-08
5.39242e-09
-1.42316e-07
-7.7859e-10
-2.56242e-07
2.36453e-07
-8.33253e-08
-3.56267e-07
-2.0313e-07
-2.82301e-07
-1.01962e-07
4.32859e-08
-4.83119e-08
-2.5005e-07
2.71645e-07
4.61724e-08
-1.24107e-07
6.22036e-08
-3.41197e-07
-2.97407e-09
-5.12216e-08
-4.86518e-08
4.23576e-07
-1.6857e-08
4.7218e-08
1.71933e-08
-4.65689e-09
4.80972e-07
-4.97794e-08
3.20546e-07
-2.13814e-07
4.75304e-08
-4.7218e-08
-1.00702e-07
-4.75995e-07
-5.8452e-08
2.66064e-08
3.6184e-08
-1.64902e-07
8.57469e-08
3.58513e-08
-9.73697e-08
-9.48226e-08
5.12216e-08
-1.81149e-07
-3.67361e-08
2.51042e-07
-3.029e-08
-2.08783e-07
1.02343e-07
-3.28263e-07
2.58282e-08
-4.07098e-07
-3.22202e-07
-5.96745e-08
-2.68861e-08
2.27088e-09
-2.22687e-07
7.46155e-08
-3.49621e-07
-2.90325e-07
2.386e-09
-6.65241e-08
-2.73687e-10
9.79902e-08
9.09161e-08
1.21689e-07
-4.75909e-08
1.37904e-07
1.06773e-07
1.07352e-07
7.09543e-08
1.08823e-08
9.60711e-08
1.02931e-07
-1.59466e-07
1.48791e-07
-5.84691e-08
-5.52177e-10
2.87741e-07
-2.62379e-08
-9.08832e-08
-1.2789e-07
-2.09431e-07
6.3601e-07
-6.74985e-07
-3.97117e-07
3.67315e-07
-5.31901e-07
-4.48048e-07
-4.46054e-07
4.15593e-07
7.9829e-09
2.48737e-07
-3.34841e-07
6.41178e-07
3.59749e-07
-1.70962e-07
4.67284e-07
5.84704e-08
2.27088e-09
-1.28672e-07
-1.32877e-07
-1.35416e-07
1.64003e-07
-3.80165e-07
-2.62455e-07
-2.386e-09
3.80165e-07
-2.84977e-07
-2.74355e-07
1.38089e-07
-1.37706e-07
2.65227e-07
2.67371e-09
1.38866e-07
-1.39516e-07
8.76885e-08
3.85782e-09
-4.41675e-08
4.41675e-08
-1.39006e-07
1.3e-09
2.84888e-08
-1.37182e-07
1.39547e-07
-1.06407e-07
7.02728e-08
1.68315e-09
-3.14497e-07
3.06743e-11
-1.59466e-07
-1.48438e-07
-1.91554e-08
-1.56718e-07
-4.83119e-08
-6.2619e-09
-2.37523e-07
2.74315e-07
-3.33523e-08
3.33523e-08
4.18354e-07
-1.8128e-08
-3.79474e-08
-4.61842e-08
-2.87741e-07
-1.61322e-07
-1.14077e-07
-1.8128e-08
-3.79474e-08
-2.57928e-07
-9.86896e-10
2.0485e-09
8.17028e-08
3.18118e-08
3.95466e-07
-3.95466e-07
-2.23606e-07
-6.48887e-10
6.48887e-10
-1.10623e-08
1.60795e-08
6.13555e-09
-7.18862e-08
1.65637e-07
1.94491e-07
1.80897e-07
1.63172e-07
-1.9218e-07
1.74174e-07
4.76217e-07
-3.97117e-07
1.91903e-07
-1.94522e-07
-3.97012e-08
3.97012e-08
1.93586e-07
-1.89506e-07
5.53646e-08
-1.35258e-07
-1.92306e-07
-1.91006e-07
-1.31148e-07
1.77012e-07
3.2955e-08
-3.67315e-07
-9.85708e-08
3.06752e-09
-4.49928e-07
2.31737e-07
-6.59364e-08
1.60795e-08
6.13555e-09
-6.64167e-09
-5.18274e-08
-8.46125e-09
-1.78788e-07
3.57072e-08
1.37067e-07
-1.70962e-07
-5.6194e-08
1.12127e-08
-5.84704e-08
1.64003e-07
-2.62455e-07
6.18962e-09
1.44015e-08
3.78974e-07
5.06095e-07
-1.55862e-08
1.12127e-08
-6.56951e-09
-3.31875e-08
-8.93761e-08
3.30405e-08
-4.87599e-08
1.01529e-07
-5.45809e-07
-3.31875e-08
8.11044e-08
1.16418e-07
-2.45823e-08
6.95915e-08
1.19405e-07
2.6083e-08
1.365e-07
-1.47772e-07
-1.18616e-08
-3.68983e-08
-2.91377e-08
8.61067e-09
)
;

boundaryField
{
    back
    {
        type            empty;
        value           nonuniform List<scalar> 0();
    }
    front
    {
        type            empty;
        value           nonuniform List<scalar> 0();
    }
    left
    {
        type            calculated;
        value           uniform 0;
    }
    top
    {
        type            calculated;
        value           nonuniform List<scalar> 8(-3.05156e-07 -2.66406e-07 -1.88906e-07 -1.88906e-07 -7.26563e-08 -7.26563e-08 -3.05156e-07 -2.66406e-07);
    }
    right_main
    {
        type            calculated;
        value           uniform 0;
    }
    right_branch
    {
        type            calculated;
        value           nonuniform List<scalar> 4(-1.06953e-07 -9.15463e-08 1.45994e-08 -3.36894e-08);
    }
    bottom
    {
        type            calculated;
        value           nonuniform List<scalar> 8(5.72375e-07 7.66201e-08 7.293e-07 -2.60388e-07 6.19073e-07 -1.37938e-07 -5.92705e-08 3.44069e-07);
    }
}


// ************************************************************************* //
