/*--------------------------------*- C++ -*----------------------------------*\
  =========                 |
  \\      /  F ield         | OpenFOAM: The Open Source CFD Toolbox
   \\    /   O peration     | Website:  https://openfoam.org
    \\  /    A nd           | Version:  9
     \\/     M anipulation  |
\*---------------------------------------------------------------------------*/
FoamFile
{
    format      ascii;
    class       surfaceScalarField;
    location    "1";
    object      phi;
}
// * * * * * * * * * * * * * * * * * * * * * * * * * * * * * * * * * * * * * //

dimensions      [0 3 -1 0 0 0 0];

internalField   nonuniform List<scalar> 
12374
(
-9.31492e-11
7.65317e-11
1.66175e-11
1.10802e-11
4.89071e-12
-1.59709e-11
3.46073e-12
-1.08746e-11
7.41385e-12
5.13507e-14
-2.41395e-14
-2.72114e-14
-7.79628e-11
3.61296e-11
4.18333e-11
-1.3316e-11
1.3316e-11
-3.44498e-11
-4.35087e-11
5.36701e-12
1.60342e-13
-5.52732e-12
-8.07749e-09
4.54198e-08
-3.73423e-08
1.3398e-14
-2.19181e-14
8.51979e-15
-5.5651e-11
-3.75403e-11
8.56651e-15
3.68522e-14
-4.54185e-14
9.65505e-13
8.73963e-13
-1.83947e-12
-6.61508e-13
1.62018e-12
4.85919e-12
-1.92322e-12
-2.93596e-12
-4.4894e-13
-1.32065e-11
1.36554e-11
-7.63754e-12
-1.7094e-11
2.47315e-11
1.49477e-11
-2.81881e-11
-7.28606e-11
1.02826e-10
-2.99657e-11
-3.11991e-14
4.73874e-14
-1.61881e-14
-3.98501e-14
9.30677e-15
5.14105e-11
-9.09884e-14
-5.13196e-11
-2.04851e-11
7.2899e-12
1.31951e-11
1.82752e-11
1.90804e-12
-2.01833e-11
1.86634e-09
-9.94381e-09
2.22096e-11
2.92251e-11
-4.98627e-12
1.05011e-11
-5.51482e-12
-2.22082e-09
6.52169e-09
-4.30087e-09
2.46945e-08
-3.85937e-08
1.38991e-08
2.47649e-11
-2.09954e-11
-3.76959e-12
9.45754e-12
8.80109e-12
2.72504e-11
-2.5155e-12
2.75663e-12
2.60107e-12
3.31104e-10
-2.55193e-09
-1.54208e-14
-2.65606e-11
6.08231e-12
9.75313e-09
-1.34972e-08
3.74404e-09
1.75748e-08
4.52091e-10
-1.80269e-08
1.07391e-07
-6.5787e-08
-4.16039e-08
2.034e-11
-5.88978e-12
-1.44503e-11
7.18759e-12
-7.58773e-12
4.00112e-13
7.99099e-12
1.23457e-11
2.33932e-12
-2.94892e-13
-2.04449e-12
8.41608e-12
6.7316e-12
-1.51476e-11
-8.69389e-11
-9.27421e-12
9.62131e-11
1.48489e-11
-6.87224e-12
-8.58254e-12
3.60136e-12
2.34053e-11
-1.18692e-12
-8.91549e-10
-2.86245e-08
2.9516e-08
7.76696e-10
-1.66824e-09
4.87732e-10
1.18494e-09
-1.67267e-09
-3.71496e-10
8.59255e-10
-1.59522e-12
8.41888e-11
-8.25936e-11
-6.47691e-11
6.31827e-11
2.01499e-11
2.79053e-12
-2.29405e-11
5.65981e-13
1.9579e-11
2.38728e-12
2.17743e-11
-6.9152e-12
-3.49596e-12
-3.92297e-12
7.41893e-12
-7.65842e-13
-2.73434e-12
-5.34369e-12
1.64314e-11
1.2625e-11
-9.21248e-12
1.26926e-14
-3.80736e-14
2.53812e-14
6.73228e-12
-4.41226e-12
-3.91261e-07
1.8839e-07
2.02871e-07
2.13516e-08
8.60393e-08
2.1215e-07
-1.13346e-07
-9.88036e-08
3.22607e-14
2.0658e-14
-6.47855e-14
-9.55972e-14
1.60383e-13
3.072e-14
-1.01856e-13
7.79062e-12
7.96779e-12
-1.57584e-11
-1.7747e-14
2.93534e-14
-9.72472e-13
5.84749e-12
-8.87981e-11
1.59762e-11
2.49973e-14
6.71163e-14
-9.21144e-14
-1.18445e-11
1.67671e-11
6.36137e-12
-1.40217e-11
5.14517e-14
-3.29827e-14
-2.61096e-11
2.61095e-11
1.85538e-12
-1.2715e-11
-1.64907e-14
7.10247e-14
-1.25039e-11
6.61504e-12
-4.67539e-12
-7.86136e-12
-6.37394e-12
-2.01819e-11
-2.67157e-07
-1.24104e-07
-2.1266e-11
1.48889e-11
-6.12463e-11
2.68043e-11
7.16286e-12
-7.64832e-12
-2.38021e-12
4.31545e-13
1.94866e-12
1.80392e-07
3.17584e-08
4.63232e-08
-2.16287e-08
-5.2637e-12
1.373e-11
-4.77396e-14
1.90585e-14
6.89012e-12
3.10175e-13
-1.67794e-08
3.43542e-08
-1.91457e-13
8.65649e-14
1.04893e-13
4.18874e-14
2.90255e-16
-4.21776e-14
-1.50737e-08
2.48269e-08
1.00762e-13
-4.30367e-12
4.20291e-12
-6.63719e-14
-1.19174e-13
7.59218e-14
-3.36915e-14
8.47113e-14
-5.10199e-14
-1.22694e-11
-6.54774e-12
9.38709e-12
-2.83939e-12
-6.80217e-12
2.36262e-13
4.15688e-11
-2.22168e-11
-1.9352e-11
-4.00027e-12
-2.21692e-11
4.47656e-08
-1.37939e-08
-3.09717e-08
-6.18824e-08
-4.23861e-09
6.6121e-08
-1.97703e-12
9.94617e-12
-7.96914e-12
-1.12704e-11
-2.15404e-12
1.34244e-11
-1.13476e-11
5.95252e-08
-3.97211e-08
-1.98041e-08
-2.1736e-11
4.66449e-12
2.2577e-10
1.21559e-07
-1.21784e-07
-8.42896e-12
8.59245e-12
-1.6353e-13
-3.17387e-08
-3.01436e-08
-8.06491e-14
1.20257e-13
-3.96079e-14
-1.67855e-11
1.33979e-11
3.38758e-12
-9.60181e-14
7.78321e-14
1.81861e-14
-8.02909e-12
-3.96562e-13
1.06882e-10
-3.17941e-11
-7.50881e-11
3.82451e-11
6.45872e-11
5.12202e-11
-8.28368e-12
9.01125e-12
-7.27619e-13
-6.84805e-14
-2.80691e-14
-7.68053e-12
-5.93599e-13
1.07334e-13
-4.09651e-14
-6.63683e-14
2.07039e-08
-3.6875e-08
1.61711e-08
-7.98671e-12
5.97015e-12
-2.17293e-09
-2.15294e-09
4.32588e-09
-9.87988e-10
-1.31383e-13
3.02201e-14
1.01163e-13
2.58412e-11
-5.04619e-11
2.46207e-11
4.0061e-14
-1.74543e-13
1.34482e-13
2.04254e-08
3.90998e-08
3.15714e-14
-8.82251e-14
-7.11388e-12
9.92768e-12
-2.81384e-12
9.32685e-09
3.6093e-08
1.8958e-14
-2.29065e-14
3.94841e-15
-3.50048e-14
-5.00026e-13
5.35031e-13
1.34187e-12
-1.37291e-12
4.68923e-13
1.06148e-11
-1.10838e-11
-2.10989e-12
-2.78749e-13
-6.12406e-11
4.8636e-11
-2.08409e-11
-2.77951e-11
-7.01991e-13
-1.44629e-11
1.51648e-11
-6.29881e-12
1.15798e-12
5.14082e-12
1.69164e-11
-9.11892e-12
2.96037e-13
-1.82203e-13
-1.13834e-13
4.73419e-14
-1.4801e-13
-1.35596e-13
1.81977e-13
-8.11192e-12
1.27259e-12
6.83936e-12
-7.90985e-12
7.80821e-13
7.88766e-14
-2.08981e-13
1.30105e-13
1.14614e-13
-2.62958e-14
-1.36703e-14
-2.12266e-14
-1.50911e-14
5.14055e-12
1.29661e-11
-6.23597e-12
2.96488e-09
-2.7391e-09
-1.13916e-11
1.15775e-11
3.07063e-11
1.08496e-11
-1.39017e-14
-4.29949e-14
7.37251e-14
6.23415e-12
-6.92272e-12
2.02658e-14
-3.45743e-14
-1.80311e-11
4.25255e-14
-1.32441e-11
2.2874e-11
-9.62989e-12
3.43747e-12
-4.17783e-12
7.40354e-13
2.25185e-12
1.17747e-12
-2.9253e-13
-6.23866e-12
6.53116e-12
-1.4681e-07
3.1346e-07
-1.6665e-07
-3.8691e-14
1.01364e-14
2.85545e-14
-3.29636e-14
-3.92971e-14
7.22608e-14
4.23151e-14
-8.86861e-14
6.35207e-14
9.66142e-15
-7.31822e-14
1.36638e-11
-8.43124e-13
-2.2298e-11
-6.46762e-11
2.96707e-11
-1.86725e-11
-1.09982e-11
-3.4066e-11
1.9593e-11
1.4473e-11
1.09175e-07
-1.15277e-07
6.10128e-09
3.52675e-11
-8.00383e-12
1.39145e-11
4.5661e-12
-1.84806e-11
-2.41191e-12
2.24255e-11
-2.00136e-11
8.10532e-14
-4.85367e-14
-2.89794e-08
-1.17831e-07
-8.20931e-12
3.55022e-12
2.48884e-11
-1.09648e-11
3.71558e-11
-1.06401e-11
-2.65157e-11
-1.73968e-13
2.49038e-13
-7.50703e-14
-8.86743e-12
6.445e-12
2.42236e-12
5.00398e-13
-1.44147e-07
1.44599e-07
4.99503e-11
-2.07193e-11
-2.9231e-11
-5.48238e-12
-2.76527e-12
2.07947e-11
-2.01376e-12
3.27908e-12
-2.54993e-11
4.07443e-12
-1.15483e-11
7.47388e-12
4.16013e-14
3.65193e-14
-4.6196e-12
4.07454e-11
-1.43908e-11
1.28843e-11
1.50655e-12
-9.2364e-12
1.14901e-12
5.4788e-11
-6.40886e-11
1.82768e-12
-1.79908e-12
-2.85971e-14
-8.80429e-12
9.63945e-12
-8.3519e-13
-4.56793e-14
-1.39399e-14
5.96193e-14
-9.15539e-12
3.48906e-13
2.45528e-12
-1.90524e-12
2.38695e-13
1.66654e-12
-9.98323e-12
1.07999e-11
-8.16734e-13
-9.3143e-12
-6.71457e-13
1.15461e-13
-1.6103e-13
4.55693e-14
4.84431e-12
-1.187e-11
7.0257e-12
4.58125e-13
-7.22166e-13
2.64041e-13
1.87387e-12
-6.18516e-12
-1.31501e-11
-2.09137e-11
-1.61814e-13
-1.16103e-11
1.17721e-11
-1.34099e-12
-8.76512e-12
1.01061e-11
-1.03451e-11
2.93127e-12
7.41385e-12
2.78851e-11
2.07444e-11
-9.22349e-12
1.033e-11
-1.10654e-12
-7.68034e-13
4.53219e-13
3.14815e-13
3.10794e-12
-2.86485e-11
2.55406e-11
2.81836e-13
-1.98775e-11
1.95956e-11
1.74435e-11
-1.71476e-11
-9.16022e-12
-7.70754e-14
-7.65258e-13
5.23754e-13
2.41504e-13
-1.05936e-11
1.10666e-11
4.47356e-11
-1.99059e-11
-2.48297e-11
6.81688e-12
-7.50114e-12
6.84237e-13
2.38903e-11
-9.6066e-12
9.28662e-12
3.19951e-13
1.14529e-11
-7.38613e-12
-3.85608e-11
1.86517e-11
-8.73819e-12
-8.82382e-13
1.1169e-11
-1.41456e-11
2.97659e-12
-7.7739e-12
8.75385e-12
-9.79978e-13
-7.38805e-14
-2.03353e-13
1.43235e-13
-7.53407e-12
-2.39633e-13
-7.69089e-12
1.11643e-11
-3.47343e-12
1.19708e-11
-7.12029e-12
1.7733e-11
1.19477e-11
3.39348e-12
3.37677e-11
-8.65615e-12
1.09032e-11
-2.24709e-12
-2.94779e-11
5.53021e-11
-9.18243e-12
5.09891e-13
-2.25947e-11
5.78672e-11
3.85396e-12
5.11062e-12
-8.96459e-12
5.68949e-12
-2.08098e-13
9.11411e-12
-8.90601e-12
-2.26661e-13
1.57325e-13
6.93364e-14
1.65956e-11
3.33525e-11
-5.31546e-13
1.02253e-11
-9.69375e-12
-2.70323e-11
3.16077e-11
-1.0865e-11
1.09769e-11
-1.11908e-13
-3.09267e-13
2.052e-13
9.68331e-14
6.02391e-12
-7.92023e-12
-3.28816e-13
-3.91875e-13
-9.81756e-12
-1.06517e-12
-1.61874e-11
8.45991e-12
-4.48539e-11
3.42179e-11
4.28173e-14
1.94552e-14
-6.22725e-14
-1.0347e-11
9.78527e-12
5.61761e-13
-4.67735e-12
2.5309e-12
9.6235e-12
-2.73295e-12
-4.22808e-15
2.75032e-11
-1.24687e-11
-1.50345e-11
-9.3025e-12
-1.06366e-12
-1.12927e-11
4.9836e-12
1.33375e-11
-2.65805e-11
5.09764e-15
1.31358e-14
-1.23147e-11
-2.07989e-12
7.8634e-14
4.67486e-14
-9.46183e-12
9.40659e-12
5.52361e-14
-9.18542e-12
-2.80595e-13
-7.86481e-12
1.59478e-11
-8.08298e-12
2.91812e-11
-1.14394e-11
-9.01658e-12
-1.33208e-12
-1.07743e-12
4.39078e-13
6.38353e-13
-1.07581e-13
-6.72961e-14
-6.40895e-14
-1.31474e-13
3.00307e-08
-1.66922e-11
3.76466e-12
1.29275e-11
1.05841e-13
-9.6602e-14
-9.4126e-12
9.94078e-12
-5.28183e-13
1.00944e-13
-2.78425e-13
3.29373e-11
-9.58742e-12
1.69694e-13
-1.20186e-11
4.43322e-12
8.12179e-12
8.4089e-12
-1.65306e-11
-3.00341e-12
1.10819e-11
-3.78231e-14
2.85849e-14
1.34947e-11
-1.49818e-11
1.48715e-12
-1.14415e-13
1.35943e-11
-3.55196e-12
-1.32476e-11
-1.02753e-11
1.06363e-11
-3.6093e-13
1.17136e-13
-1.84221e-13
7.85949e-14
-1.04567e-11
1.83102e-13
8.43938e-12
-1.48926e-12
-6.95012e-12
-5.63698e-12
9.83429e-12
-2.93235e-12
-6.90194e-12
-3.51574e-12
1.25576e-11
-9.04186e-12
1.15559e-11
-3.7486e-12
-7.80726e-12
-8.80794e-12
8.79939e-13
-2.94514e-13
-4.35784e-13
7.30297e-13
-2.71864e-09
9.24033e-09
1.70183e-12
1.20422e-11
6.09017e-12
-4.16923e-13
-3.50145e-13
4.65359e-14
-1.19487e-08
-1.54849e-09
-4.66011e-14
-2.63999e-14
7.3001e-14
-5.46926e-12
1.70292e-11
-1.28646e-11
1.05918e-11
2.27279e-12
-1.75403e-11
-1.20228e-11
2.9563e-11
4.32116e-12
1.15825e-11
-1.59036e-11
4.40897e-15
-5.05737e-14
-1.24068e-11
-5.60781e-13
-5.63114e-12
1.60375e-11
-4.39234e-14
1.41003e-14
-5.47946e-11
3.87256e-11
1.60691e-11
1.94925e-11
-9.47476e-12
-1.00177e-11
5.60296e-12
3.98092e-12
-9.58389e-12
-2.35712e-12
-2.09929e-12
4.45642e-12
-7.76789e-12
-2.63378e-13
-4.25088e-14
7.10234e-14
1.25711e-11
-1.33136e-11
-1.55701e-13
-1.12832e-13
2.68533e-13
8.78116e-13
-4.27482e-13
-2.97672e-08
-8.82648e-09
1.2609e-11
-1.09954e-11
-1.61351e-12
-1.67262e-11
-2.18348e-11
5.15565e-13
-8.23246e-13
1.45302e-11
-9.42489e-12
6.75724e-14
-2.31504e-13
6.47461e-12
-9.42583e-12
1.9694e-08
-5.14328e-08
-4.40933e-11
8.4892e-11
-4.07987e-11
1.2154e-11
-8.90105e-12
-3.25296e-12
-1.47449e-12
-2.36191e-11
-2.80385e-11
-2.67871e-11
2.7785e-11
-1.05868e-12
-2.67263e-11
-1.77393e-11
3.7604e-11
-1.98647e-11
1.36772e-11
1.41024e-11
-3.10786e-11
5.90681e-11
-2.79895e-11
-1.0591e-13
-1.12248e-13
-2.50165e-11
4.87164e-11
-2.36998e-11
-2.82465e-11
-3.76365e-11
7.01076e-11
-3.24711e-11
9.77779e-12
4.09779e-12
7.07831e-12
-1.11761e-11
-1.20667e-13
2.80449e-13
-1.59782e-13
1.25368e-11
1.33728e-11
9.50199e-12
5.25318e-12
-1.15533e-12
-8.12085e-12
7.35307e-12
7.6774e-13
1.76975e-11
1.17351e-11
-1.41433e-11
-4.36061e-11
8.02029e-11
-3.65967e-11
1.78718e-12
-4.56458e-11
8.05336e-11
-3.48878e-11
-1.20435e-11
-1.14007e-12
1.31836e-11
3.44321e-12
2.13738e-11
3.52158e-12
8.43837e-12
-1.19599e-11
-2.53938e-11
6.72488e-12
-1.92059e-11
2.65584e-11
-1.42884e-11
5.48242e-12
8.80598e-12
-9.86077e-12
7.84252e-12
2.01821e-12
-1.44276e-12
1.23091e-12
2.11849e-13
-1.07752e-11
6.27981e-14
7.85005e-14
9.34118e-13
3.451e-11
-7.41646e-13
9.44994e-13
-2.03348e-13
1.44668e-11
-5.55117e-11
4.10449e-11
9.11276e-12
2.73797e-11
2.80052e-10
-3.07432e-10
-1.6246e-11
3.9019e-11
-2.2773e-11
-1.97613e-09
2.00352e-09
1.04384e-11
-9.29163e-12
2.53764e-11
-5.95369e-11
3.41604e-11
7.756e-08
-1.06184e-07
-1.00005e-11
8.09292e-12
1.90749e-12
-2.89426e-11
1.02786e-11
3.11061e-13
-6.63997e-13
2.74908e-08
1.72747e-08
1.79242e-11
-6.66865e-12
-7.4634e-12
2.12517e-10
-2.36547e-09
9.1266e-12
-8.72245e-12
-4.04143e-13
4.98147e-11
-8.75167e-11
3.77019e-11
9.89224e-10
5.52424e-13
-6.98407e-13
8.75683e-14
6.10838e-13
-3.00538e-12
3.46586e-12
-4.60453e-13
-8.89144e-12
6.73378e-12
2.15762e-12
-2.13047e-13
-4.92186e-13
1.19431e-13
3.7316e-13
1.05747e-11
-8.1646e-12
-2.41015e-12
-3.95215e-14
1.37348e-14
2.57865e-14
7.66442e-12
2.91425e-12
-2.86503e-11
1.03857e-10
-1.96607e-11
-2.67633e-10
-1.62836e-13
4.33021e-13
-2.70186e-13
-3.42559e-13
7.30403e-13
-3.87843e-13
-3.26429e-11
8.24529e-11
1.35487e-11
7.06997e-12
-8.61085e-12
7.38909e-12
1.22172e-12
3.77062e-11
-7.03636e-11
-3.0059e-14
-1.95122e-14
9.3542e-12
-8.73618e-12
-6.18013e-13
-2.99718e-12
3.37075e-11
-6.09798e-12
9.28611e-12
-3.18812e-12
1.3814e-13
-7.13307e-12
-4.42651e-12
-3.33945e-11
3.6181e-11
-9.8167e-11
8.46885e-12
8.844e-13
1.11496e-11
-7.53064e-12
-3.619e-12
-3.00627e-11
1.33329e-11
-2.02252e-11
3.35463e-11
-1.33211e-11
1.03414e-11
-7.73753e-12
-2.60389e-12
-4.8856e-11
2.86317e-11
-1.30607e-12
-1.36257e-13
6.27201e-12
4.86017e-12
2.59673e-09
-2.26563e-09
3.6443e-11
-2.94439e-13
-1.64688e-13
4.59127e-13
3.24606e-12
7.09229e-12
-9.21473e-12
9.01981e-12
1.94894e-13
1.65672e-12
9.2451e-13
-4.16301e-13
-4.24606e-13
8.46364e-12
-8.33436e-12
-1.29277e-13
2.11692e-11
-5.86808e-11
8.49487e-12
-2.8808e-14
-5.33018e-14
-6.29306e-13
6.82608e-13
2.55418e-11
7.06746e-11
-1.66847e-11
-7.8464e-13
7.41632e-13
-9.99542e-12
9.08996e-12
9.05445e-13
-1.25003e-11
1.78157e-11
-5.3154e-12
2.10346e-11
-4.74622e-13
-6.03242e-13
-2.60308e-12
1.72458e-12
8.78497e-13
5.16627e-12
-9.09562e-12
-7.21688e-12
-4.64756e-12
9.54055e-13
1.69007e-11
3.78493e-14
7.23199e-12
-6.19131e-12
-1.04067e-12
-9.66697e-12
9.06706e-12
5.99906e-13
6.59584e-12
6.39069e-13
8.83587e-14
8.39221e-13
-9.91001e-12
9.0708e-12
-1.33195e-12
9.7506e-14
-2.70821e-11
-1.35395e-11
4.06215e-11
6.73603e-13
-2.05877e-13
7.2775e-13
-2.21753e-12
-9.35097e-12
9.3183e-12
3.26768e-14
9.0065e-12
-8.73665e-12
-2.69857e-13
-5.64398e-13
1.00244e-12
-2.75285e-14
1.55468e-14
1.19816e-14
6.32477e-12
-4.58928e-12
-1.73546e-12
4.32577e-14
5.44832e-12
1.23547e-11
5.21708e-12
2.55982e-13
4.41688e-12
1.89769e-12
2.65298e-13
-1.24758e-12
3.14991e-13
9.32592e-13
-9.66009e-12
1.01316e-11
-4.71494e-13
4.48047e-13
-3.24254e-13
-1.23793e-13
2.05259e-13
-1.94275e-13
6.46143e-13
2.69414e-13
8.06041e-12
-7.62671e-12
-4.33691e-13
8.60215e-12
5.32583e-13
3.90093e-12
-6.4167e-12
-5.50657e-12
1.19233e-11
5.51173e-12
9.58666e-13
-6.47039e-12
1.53288e-11
-9.86598e-12
-5.01886e-11
-2.62893e-13
5.37089e-12
-6.72298e-12
1.35211e-12
-3.30535e-11
1.21438e-11
-1.05471e-11
-2.82722e-13
1.08298e-11
4.58931e-11
-2.39272e-11
-2.19659e-11
-7.17722e-14
-6.75362e-14
6.50263e-13
-3.37879e-13
5.2349e-12
1.33128e-13
-2.01118e-12
1.26239e-11
-1.09781e-12
-2.13207e-13
1.31101e-12
3.05924e-11
1.53103e-11
-2.0332e-12
1.33593e-13
7.03453e-12
-5.04967e-12
-1.98484e-12
2.59846e-13
1.13735e-11
-3.70691e-12
4.09159e-14
2.79823e-12
-6.71222e-13
-2.12701e-12
6.31871e-13
-1.11679e-11
1.02405e-11
-6.66357e-12
-3.57694e-12
2.0014e-11
3.52966e-12
-2.35437e-11
-8.80191e-14
1.55737e-13
-2.51059e-13
-2.41163e-13
4.92223e-13
8.46625e-13
5.7778e-12
-1.25242e-12
-4.52538e-12
9.86488e-12
-1.3944e-12
-9.28381e-12
7.0271e-13
8.5811e-12
4.84015e-12
-1.89827e-11
3.08975e-11
-1.19149e-11
-2.24539e-11
6.01589e-11
4.15748e-12
2.42213e-11
-1.35009e-11
-1.07204e-11
7.24199e-11
-3.65026e-11
-3.59173e-11
6.2685e-12
-5.23707e-12
-1.0314e-12
1.85086e-11
5.71272e-12
6.6951e-12
-4.7005e-12
-1.99458e-12
4.09088e-11
3.1517e-11
1.49217e-13
-3.94084e-13
-3.63399e-14
4.15521e-14
8.69902e-12
-2.09297e-13
6.14585e-12
1.2714e-13
1.70413e-12
9.01019e-14
-2.59395e-12
2.50384e-12
5.33357e-12
-8.94175e-12
2.89667e-11
5.84691e-11
-2.7876e-11
-6.1776e-13
-8.65223e-12
9.41473e-12
-8.16975e-13
2.08717e-12
3.00093e-13
-1.16365e-13
-1.83728e-13
-1.1528e-13
7.45991e-12
-8.59926e-13
2.19776e-11
3.00812e-13
-5.26393e-15
9.60082e-12
6.31197e-13
-4.58545e-14
3.40574e-11
-1.55434e-11
5.41118e-12
-7.01352e-12
1.60236e-12
-1.97983e-11
-2.90652e-11
-5.57972e-13
1.34643e-11
-3.54308e-14
3.8677e-12
-6.17863e-12
2.31092e-12
9.80223e-12
-8.23417e-12
-1.56806e-12
8.68208e-12
5.86573e-13
-9.26865e-12
-1.03781e-12
2.14927e-12
-1.11146e-12
6.63737e-12
-2.23114e-12
-6.65866e-13
-2.15043e-13
8.80909e-13
-8.04226e-11
4.32816e-11
3.71411e-11
-1.31427e-12
-6.47368e-14
1.08821e-13
-4.40846e-14
-6.23028e-13
-1.47148e-13
6.31218e-14
5.63092e-14
1.01397e-11
-4.82379e-12
5.76242e-12
-9.38616e-13
9.41316e-12
2.06048e-12
-2.64991e-12
-8.65081e-12
1.26027e-12
-1.1726e-11
1.57369e-11
-4.01092e-12
8.05315e-14
6.56667e-12
-1.33494e-12
2.60582e-13
-5.6229e-13
3.01708e-13
-4.67062e-12
6.723e-12
-2.05236e-12
6.90682e-12
-4.48572e-12
-2.42108e-12
8.35563e-12
2.32076e-13
5.69192e-12
-9.38831e-12
3.6964e-12
-1.33173e-11
1.57808e-12
-1.93718e-11
-9.27852e-12
1.58562e-12
-3.9532e-11
4.60572e-14
-3.47823e-14
-1.12748e-14
-3.42757e-11
7.29575e-11
-1.07177e-11
1.47686e-12
-7.12361e-13
1.55377e-12
-8.41414e-13
1.91927e-12
1.36054e-12
-3.27981e-12
1.66943e-12
-8.88062e-13
1.2001e-11
-1.26147e-11
6.1374e-13
5.82294e-12
3.22924e-13
4.56812e-12
-6.31508e-12
1.74697e-12
-1.83337e-13
7.07556e-14
5.95073e-12
-1.38562e-12
1.85064e-12
9.9973e-12
-1.79768e-12
-8.19963e-12
5.22428e-11
-8.64352e-11
-2.57912e-12
-2.24369e-12
1.81778e-13
-5.01923e-14
1.72655e-15
4.84657e-14
-1.62999e-11
2.80107e-12
-1.91089e-12
7.19466e-13
1.19142e-12
-5.66686e-12
9.9536e-13
6.64661e-13
-1.1875e-12
-7.82448e-12
2.43518e-12
5.38929e-12
-4.00838e-14
-2.80777e-14
4.54963e-14
-1.39059e-12
2.94929e-13
4.60269e-15
-6.22776e-14
-6.69128e-12
1.17402e-11
4.60589e-11
2.22802e-12
5.18559e-12
7.54415e-13
-5.2555e-12
-4.17386e-13
-2.17573e-11
5.25607e-12
-2.96338e-12
-2.29268e-12
2.94468e-13
5.95808e-11
-8.34513e-14
-2.61963e-11
4.3636e-13
-2.52731e-12
2.09095e-12
-3.70529e-12
3.46988e-12
2.35415e-13
-1.08277e-13
1.00863e-12
4.25392e-12
-4.55187e-12
4.36837e-12
-1.40883e-09
2.67458e-09
-1.26575e-09
9.0477e-11
4.52686e-12
-7.01343e-12
2.48659e-12
-7.962e-12
6.51258e-12
1.44942e-12
-2.6036e-12
-6.99556e-12
1.41049e-11
7.17881e-13
-9.22579e-12
8.50791e-12
1.24397e-14
-5.82268e-14
-1.45442e-12
-2.064e-12
3.51842e-12
-1.80819e-12
-4.91089e-12
8.6637e-12
1.09473e-13
1.20386e-11
-7.52794e-12
-2.24724e-12
9.77518e-12
2.63364e-12
-1.01625e-11
-1.33044e-13
1.64132e-13
-3.10882e-14
-2.30043e-12
-2.9741e-13
-5.49367e-13
2.64637e-12
-2.097e-12
-1.12418e-11
7.77874e-13
1.04639e-11
1.1657e-13
-6.41252e-14
-5.95137e-12
-2.02463e-12
-1.83759e-13
-2.03114e-13
3.86873e-13
-1.04772e-11
-4.64359e-12
1.51208e-11
1.02635e-11
-8.41267e-12
-8.64785e-13
1.12706e-12
-2.62275e-13
-1.17913e-11
5.57454e-13
-5.3853e-13
-3.32157e-13
2.14056e-12
-4.14122e-13
7.99304e-14
5.81722e-14
1.27171e-13
-1.85343e-13
-3.42843e-12
-2.75499e-13
8.60401e-12
-9.21536e-12
8.996e-12
-8.43901e-12
-5.56997e-13
-3.22328e-12
-7.47594e-12
4.69893e-14
1.03835e-14
-5.73728e-14
8.80028e-12
-9.01196e-12
-6.44485e-13
1.67393e-13
4.77092e-13
-6.93578e-12
6.46619e-12
4.69581e-13
9.75693e-12
-1.02633e-11
1.15702e-11
1.25893e-12
-1.25893e-12
-1.29316e-14
4.22057e-14
-3.78743e-14
1.94992e-11
5.60333e-12
-2.3606e-12
2.29344e-13
1.93967e-13
-4.23311e-13
9.91566e-12
2.647e-12
8.58065e-12
4.07662e-13
7.26767e-11
-3.36299e-11
-3.90468e-11
-1.93535e-11
1.59161e-11
-1.77377e-11
1.8216e-12
9.19385e-12
-1.46597e-11
-1.19827e-11
1.46707e-11
-2.68801e-12
-9.19815e-12
6.55205e-12
3.20625e-13
1.26348e-11
-4.06616e-11
1.1771e-12
1.59063e-12
-2.76773e-12
1.77655e-11
-1.57671e-11
-1.99847e-12
7.55838e-14
1.15738e-12
-6.07574e-12
-2.98865e-14
1.57849e-11
-1.80614e-11
2.27648e-12
1.80777e-11
-1.23817e-11
-2.44003e-11
1.23906e-11
2.43957e-11
-1.89471e-11
-5.44865e-12
6.18353e-12
-1.83578e-12
-4.34778e-12
-3.99786e-12
1.82915e-12
2.16871e-12
-1.85749e-12
-1.14582e-12
1.15485e-12
2.10744e-12
-6.59785e-12
-2.02415e-12
8.62197e-12
1.74113e-12
1.06153e-12
8.94435e-12
-8.09056e-12
-8.53786e-13
-1.03182e-12
-2.10804e-13
5.76832e-13
-5.40755e-14
-5.22756e-13
-7.933e-12
1.01805e-13
9.47279e-14
2.70622e-14
-2.3256e-12
1.44461e-12
8.80994e-13
-9.87405e-12
2.89426e-11
-1.90685e-11
-8.84244e-12
-2.08962e-12
1.0932e-11
-5.89702e-12
-1.05344e-12
4.66886e-13
1.02083e-13
-1.47525e-12
1.7947e-12
8.37093e-12
5.7331e-13
-6.60908e-12
-5.87869e-13
1.18227e-12
-1.17561e-11
2.93164e-12
2.91055e-12
-4.14392e-11
2.7525e-12
3.64438e-12
-6.39688e-12
1.08886e-11
-1.02141e-11
1.10948e-11
-4.84839e-13
9.86434e-14
3.86195e-13
9.81884e-12
-9.30389e-12
9.22745e-12
7.64352e-14
4.84369e-11
3.64312e-11
2.56846e-13
2.56551e-13
-5.13397e-13
-4.01634e-11
7.69286e-11
-3.67652e-11
2.29143e-11
2.31836e-11
-7.23261e-12
-1.5951e-11
-7.69263e-12
-1.62375e-12
-4.23683e-12
1.8167e-12
2.42014e-12
7.19812e-12
1.24478e-12
-1.86227e-12
5.14768e-13
1.34751e-12
-6.04658e-13
-1.26555e-12
2.85852e-12
1.01284e-11
-1.29869e-11
-6.8346e-12
8.65771e-12
-1.82312e-12
-1.24737e-12
7.08008e-13
-1.6025e-12
1.86185e-12
-2.5935e-13
6.77736e-12
3.06605e-12
7.62246e-12
-1.13265e-12
-6.48981e-12
1.30514e-11
-1.01877e-11
1.4702e-14
-7.49497e-14
5.18702e-13
-1.08033e-12
5.61628e-13
-2.46132e-14
1.52375e-14
9.37568e-15
3.71481e-11
-7.73125e-11
7.58692e-14
-9.67572e-14
-8.84957e-12
2.01871e-12
-5.99304e-14
4.31756e-14
-4.67086e-13
2.53334e-14
5.70069e-15
-3.10341e-14
-1.28181e-11
1.02661e-11
-7.9537e-12
6.21518e-12
1.73851e-12
1.07917e-12
8.53372e-12
9.48232e-12
-8.12491e-12
-1.76492e-11
4.51773e-11
-2.7528e-11
4.786e-14
-1.71774e-12
-6.40193e-12
8.11967e-12
-9.77104e-13
9.96377e-13
1.94309e-13
-1.19069e-12
3.16865e-12
-1.99103e-12
3.21639e-13
-1.48291e-13
-1.73349e-13
-1.45774e-12
-2.79342e-11
4.3888e-11
-1.59538e-11
1.71781e-11
-2.06869e-11
5.17322e-12
1.55137e-11
-1.00057e-12
1.06483e-11
-9.64773e-12
6.57253e-12
-7.70705e-12
1.13451e-12
-1.02586e-11
9.40227e-13
-2.3319e-13
1.73369e-12
-1.5005e-12
-4.06633e-14
5.40205e-14
4.63038e-08
1.24785e-13
2.04948e-13
-3.29732e-13
-1.17378e-12
-7.76421e-12
-1.37201e-12
4.28037e-15
-1.86776e-14
1.43972e-14
2.20298e-13
-9.42031e-13
7.21734e-13
2.00143e-13
7.09595e-12
-3.1601e-13
2.30817e-12
3.73408e-11
3.53448e-11
1.71474e-12
3.85079e-13
-1.40768e-12
1.02261e-12
9.89012e-12
-8.09399e-12
-1.07493e-12
-7.07528e-13
1.23265e-12
-7.3236e-12
9.38296e-12
-2.05935e-12
-3.01854e-13
1.116e-13
-7.43367e-12
5.9086e-12
1.52506e-12
7.87453e-12
-2.37101e-13
-1.21907e-12
1.45617e-12
-9.57967e-12
1.45652e-11
-4.98551e-12
1.51077e-12
-3.30391e-12
1.79314e-12
9.12965e-12
-7.75084e-12
-1.3788e-12
3.10851e-11
4.8863e-14
-6.20537e-12
-6.18282e-13
-5.85398e-11
3.06185e-11
2.2556e-13
-2.91015e-12
2.68459e-12
8.82501e-13
-4.77334e-13
2.69785e-13
5.8991e-12
-7.68684e-12
1.78777e-12
-4.13018e-13
-7.55732e-13
3.04146e-12
-2.28572e-12
-8.46646e-13
1.12566e-13
7.3408e-13
-6.2037e-13
-8.03485e-12
8.65522e-12
9.32508e-12
-7.51556e-12
8.40834e-12
-8.92771e-13
-2.61704e-12
-2.51424e-12
5.13128e-12
-1.51401e-12
-8.99088e-12
2.63341e-13
-9.92735e-13
4.92175e-13
8.83663e-12
-5.64702e-12
-3.18962e-12
-6.26316e-12
2.96608e-12
-1.56196e-11
3.3282e-12
-1.03297e-10
-1.36906e-08
-2.55499e-13
1.55949e-14
-4.71226e-15
-1.08827e-14
-5.85574e-13
-8.64364e-12
-7.7456e-12
5.73589e-12
2.0097e-12
1.07659e-13
-1.67314e-13
-6.22428e-12
6.45302e-12
-5.91342e-15
1.0323e-12
8.43522e-12
-6.35144e-12
-2.08377e-12
-4.19295e-12
2.13188e-12
-9.28431e-12
3.22505e-12
2.37047e-12
-4.9922e-12
-8.10509e-13
-4.55436e-14
8.93286e-12
-6.2672e-12
-7.23057e-12
-2.96935e-13
-4.05446e-14
-2.37065e-15
-8.55058e-12
2.59572e-12
5.40002e-12
2.24047e-12
-8.39306e-12
1.06114e-12
-1.76749e-13
-7.05623e-12
7.09141e-12
-3.51664e-14
-5.80075e-11
2.43912e-11
-8.46069e-12
9.13239e-12
-6.71695e-13
-1.76654e-13
-9.01871e-13
-1.57682e-11
6.17929e-12
-2.63189e-13
-1.30345e-11
3.17697e-12
-5.14559e-12
-1.07749e-12
9.08766e-12
-8.5305e-12
-5.57166e-13
8.40168e-12
9.92977e-12
-1.12721e-11
-2.00356e-11
1.48922e-11
-6.19364e-12
6.77413e-12
-5.80497e-13
6.95842e-12
1.45914e-12
7.26601e-12
-7.04503e-12
-2.20977e-13
1.16133e-12
-7.24742e-13
-4.3659e-13
4.74377e-13
5.13573e-13
-7.45058e-12
-1.7321e-12
-7.98031e-13
5.9952e-13
1.98511e-13
9.72706e-13
-2.01924e-12
1.04485e-13
7.79672e-14
-7.65891e-12
1.76331e-12
5.08439e-13
8.82342e-12
-9.33185e-12
1.48172e-13
-1.48172e-13
1.34463e-13
-1.2579e-12
1.72076e-12
-5.90717e-14
-1.16731e-13
1.75802e-13
-7.44249e-12
-8.58191e-14
-5.06571e-13
6.65396e-12
1.65259e-11
1.85981e-11
-6.45995e-12
-1.21381e-11
-6.16481e-12
8.62443e-12
-2.45961e-12
-9.37972e-12
9.89611e-12
6.45957e-12
1.05081e-13
-6.91326e-12
7.12697e-13
1.08107e-11
7.77951e-12
8.57116e-12
5.16037e-13
6.45309e-13
5.85152e-12
-3.09988e-12
-3.64498e-12
2.75106e-12
8.93924e-13
4.68493e-12
1.73687e-12
-2.50322e-12
9.05544e-12
-2.4099e-12
-6.64554e-12
1.51233e-12
2.58734e-12
-4.09967e-12
6.3882e-13
2.8371e-12
1.21315e-12
4.96513e-12
-6.17828e-12
-5.19457e-13
-2.81428e-13
-9.3707e-12
-4.50396e-13
-2.88508e-12
-5.68296e-12
6.24074e-12
2.84668e-13
-6.52541e-12
7.05957e-12
2.13396e-13
-9.92282e-12
-5.38424e-13
8.87398e-12
-2.62503e-12
7.41073e-12
-5.64725e-12
-1.76347e-12
7.0631e-14
-7.06309e-14
-3.52576e-12
-1.05822e-12
4.58398e-12
-8.97887e-13
-2.20056e-14
1.23311e-13
1.918e-12
8.09211e-12
-5.7601e-13
-7.52443e-12
9.18949e-12
-1.66505e-12
-7.44488e-14
9.50642e-13
-7.40517e-13
-7.15945e-12
7.62644e-12
-4.66988e-13
4.58107e-13
-8.73837e-12
9.34397e-12
-1.65613e-12
1.05165e-12
8.8711e-12
-7.61287e-12
-1.25823e-12
-6.17258e-14
-8.22985e-14
1.44024e-13
-6.3523e-12
-7.06259e-13
3.27507e-12
4.17803e-12
-7.4531e-12
-8.85226e-12
3.91436e-13
-3.51769e-13
7.54105e-12
-7.18928e-12
7.10532e-12
-7.15178e-13
-6.39014e-12
-9.88408e-12
5.84302e-13
-8.03882e-13
8.01059e-13
2.82261e-15
-1.30375e-11
-2.12108e-12
5.3969e-12
-4.4594e-12
8.6406e-12
1.87216e-14
8.36805e-15
-2.70896e-14
-5.02774e-14
-1.45359e-12
7.4075e-12
-3.90838e-11
1.13095e-11
1.76562e-11
4.92209e-13
-1.10089e-13
-3.44145e-12
-5.49094e-12
8.9324e-12
-3.75285e-13
2.3544e-13
-1.47528e-13
-8.79119e-14
-6.16977e-13
-1.04538e-12
-1.41621e-12
-7.02036e-12
2.77157e-12
-5.81698e-12
8.79196e-12
-2.97499e-12
6.08885e-12
1.33478e-12
1.21363e-11
-8.32764e-12
-3.80866e-12
-8.86442e-12
8.5218e-12
5.81896e-13
-3.15511e-13
-6.64684e-13
-8.85295e-12
9.51763e-12
-3.56561e-12
-2.55265e-13
3.82088e-12
1.33606e-09
-2.74488e-09
8.19003e-12
-8.8301e-12
-2.24777e-12
1.31087e-12
9.36909e-13
6.94562e-13
-2.16612e-12
1.47156e-12
-9.39891e-12
2.15236e-13
8.949e-12
-3.70194e-13
1.80508e-13
-1.20305e-11
8.83944e-12
-4.69949e-13
-4.55974e-13
-3.47113e-13
-9.25233e-12
-3.38966e-13
-2.26389e-12
-1.63103e-12
3.89493e-12
-1.17787e-12
-1.07724e-12
4.61694e-13
3.70371e-12
-8.16468e-12
8.01595e-12
8.71682e-13
1.8581e-12
-3.3745e-12
1.96829e-13
6.64535e-13
-6.88183e-13
1.65073e-13
3.5347e-12
-2.36552e-13
-1.37299e-11
1.00954e-11
-2.10954e-11
-8.33329e-12
2.17651e-12
3.78915e-11
5.14509e-12
3.68699e-12
-8.02048e-13
2.12007e-13
-3.38945e-13
1.26938e-13
-8.70453e-12
2.87791e-12
-2.11968e-11
-1.13476e-12
9.23854e-12
-8.10378e-12
-6.25863e-12
8.56728e-12
-2.30865e-12
8.13691e-13
8.43656e-12
-9.25025e-12
-7.35713e-12
6.64244e-12
-1.81722e-12
-1.47545e-12
-6.75545e-12
8.23091e-12
6.26216e-14
-1.2004e-13
-1.51601e-12
-4.43146e-12
5.401e-12
-9.69533e-13
6.20309e-12
-1.47674e-12
-4.72636e-12
-9.01194e-13
-6.43759e-12
7.3959e-12
8.47449e-13
-8.24334e-12
9.01294e-13
-1.41623e-12
5.14931e-13
-6.00909e-15
-3.39412e-14
3.99502e-14
-4.55735e-14
4.70879e-14
8.99926e-12
-5.977e-12
-3.02226e-12
2.53907e-12
-9.84493e-12
7.30587e-12
-4.36148e-13
-3.11471e-12
3.84712e-12
-2.33168e-12
5.94869e-12
-9.39998e-12
-6.21568e-12
-1.44835e-11
-8.81945e-12
1.30503e-12
1.97147e-13
3.86759e-13
7.64383e-12
-1.15691e-12
-6.48692e-12
4.16574e-12
-1.40301e-12
-2.76272e-12
7.33141e-12
-8.81666e-12
-3.51268e-13
2.48489e-11
-4.16078e-13
8.42342e-12
-8.00735e-12
5.32792e-12
8.7153e-12
-6.16417e-12
9.59794e-13
-8.43954e-12
8.01686e-12
6.57911e-12
-6.46748e-12
-6.9174e-13
-1.44205e-12
-8.4541e-13
-3.79546e-13
8.37594e-12
2.34747e-13
-1.27144e-11
-8.12188e-12
2.08363e-11
6.03303e-13
-9.13493e-12
3.91161e-13
-8.07286e-12
9.19876e-12
-2.68121e-13
1.61839e-12
2.03247e-12
4.6811e-11
-7.86068e-11
-2.27276e-14
-4.05801e-14
4.75137e-14
-8.79135e-12
6.1918e-12
2.59954e-12
-5.04722e-12
-1.0722e-11
-8.54522e-15
-3.66523e-14
1.86508e-12
-6.69164e-13
5.92928e-12
-6.48204e-13
-5.28108e-12
8.93398e-10
-1.75294e-09
8.59543e-10
2.15677e-12
7.17072e-13
8.93719e-12
-9.65427e-12
6.6022e-09
-2.91232e-13
-8.27663e-13
-6.33557e-12
1.35011e-11
-7.16558e-12
2.99097e-12
-7.90054e-12
6.84583e-12
1.05471e-12
6.52323e-12
-7.84555e-12
1.32232e-12
-6.7789e-12
-1.56291e-12
5.25343e-14
1.70369e-12
-3.21519e-12
1.5115e-12
-8.76729e-12
2.42517e-12
-1.83203e-13
8.96394e-13
6.90428e-12
2.08111e-12
-9.63734e-12
1.34275e-12
8.29459e-12
2.50046e-12
-3.77152e-12
1.27106e-12
-1.71451e-12
-1.18262e-11
-3.55272e-12
-7.07283e-13
3.30319e-12
-9.02093e-12
9.74614e-12
-2.39077e-12
9.45364e-12
-7.06287e-12
9.23959e-08
8.44869e-13
-4.6245e-13
3.3494e-12
-1.01574e-11
6.80798e-12
-8.42416e-12
8.41725e-12
6.91141e-15
8.10768e-12
-6.59508e-12
1.11699e-12
-7.86958e-13
1.48641e-12
-5.37471e-14
1.21653e-12
7.52461e-13
6.8898e-12
7.79584e-12
-2.48972e-13
-2.81742e-11
1.54488e-11
-2.71131e-08
6.50222e-12
9.21476e-12
-6.09723e-12
-3.11748e-12
2.90239e-12
-7.33442e-12
8.64154e-13
2.04363e-13
-5.42094e-12
2.12125e-12
3.29969e-12
-4.0595e-12
7.68487e-13
4.69666e-14
-1.19221e-13
-6.25263e-12
-2.52674e-12
5.37837e-12
-8.78416e-12
3.4058e-12
1.19281e-13
-5.5477e-14
-6.38042e-14
-1.05764e-11
7.38293e-12
4.90399e-13
-5.63417e-12
7.48327e-12
-1.8491e-12
1.75507e-11
-1.61723e-11
-1.3784e-12
-7.40334e-14
2.85807e-13
7.22859e-12
-8.12838e-13
8.16328e-12
-9.29864e-12
-1.93129e-12
-4.2106e-12
1.88648e-11
-1.46542e-11
-9.92261e-12
4.94165e-13
9.42844e-12
-6.61462e-12
-3.84958e-12
1.04642e-11
-1.83818e-12
1.02134e-11
-8.37521e-12
9.25363e-12
-3.30834e-12
1.5952e-12
8.22254e-12
-8.98247e-13
7.68693e-12
1.35219e-12
9.11523e-12
-5.76067e-12
8.0391e-13
-2.44439e-12
1.64048e-12
8.39485e-12
-1.04606e-11
-9.68705e-12
7.28671e-12
-1.43582e-12