/*--------------------------------*- C++ -*----------------------------------*\
  =========                 |
  \\      /  F ield         | OpenFOAM: The Open Source CFD Toolbox
   \\    /   O peration     | Website:  https://openfoam.org
    \\  /    A nd           | Version:  9
     \\/     M anipulation  |
\*---------------------------------------------------------------------------*/
FoamFile
{
    format      ascii;
    class       volVectorField;
    location    "1";
    object      U;
}
// * * * * * * * * * * * * * * * * * * * * * * * * * * * * * * * * * * * * * //

dimensions      [0 1 -1 0 0 0 0];

internalField   nonuniform List<vector> 
831
(
(-3.7415e-05 -0.0511241 4.71708e-20)
(-0.00114642 -0.0435611 -1.5962e-19)
(-0.000474768 -0.0760602 -1.44375e-18)
(-0.00803715 -0.0740728 2.63414e-18)
(0.0182238 -0.0652711 -6.7618e-19)
(-0.000638172 -0.0516701 0)
(-0.00060669 -0.042782 0)
(0.0476131 -0.154525 0)
(0.0251153 -0.0608197 1.53157e-18)
(0.0221085 -0.112604 -3.46046e-18)
(-0.000157812 -0.0775157 2.81231e-18)
(0.0266926 -0.0905914 0)
(-0.0302698 0.007706 0)
(-0.0261578 0.0063256 0)
(0.000239909 -0.0527311 -1.40303e-18)
(-0.00157404 -0.063981 -2.25583e-18)
(-0.00188952 -0.0693437 3.72306e-18)
(0.0185652 -0.0319467 6.64343e-19)
(-0.00242486 -0.0663477 -4.28161e-18)
(-0.00187872 -0.0647999 -2.82873e-18)
(-0.00124317 -0.067778 -2.55252e-18)
(-0.00202099 -0.0693388 2.24608e-18)
(-0.00640618 -0.0692624 3.10497e-18)
(-0.00349273 -0.0510282 -1.47361e-18)
(-0.00436936 -0.0683797 -7.38987e-19)
(-0.00180928 0.0571433 1.23513e-18)
(-0.00531478 -0.0720464 0)
(0.0279297 -0.0592049 0)
(-0.00500818 -0.0690984 7.51255e-19)
(-0.00380061 -0.0726813 4.57381e-19)
(-0.0200917 0.00853621 0)
(-0.0188643 0.00461396 -1.66791e-18)
(-0.00166699 -0.023115 -2.89172e-18)
(0.0371342 -0.00412891 -1.852e-19)
(-0.0018103 -0.0632911 2.05043e-18)
(-0.0516033 -0.0106747 -1.56515e-18)
(0.0186955 -0.144292 1.56319e-18)
(0.00950228 -0.0248823 3.2621e-18)
(-0.00250814 -0.0700851 3.11904e-18)
(-0.00816929 -0.0747511 -3.26411e-18)
(-0.000464586 -0.056341 -8.10217e-19)
(-0.00659567 -0.0733607 2.07975e-18)
(-0.0154442 0.00418665 4.05539e-19)
(-0.0081678 -0.0723942 -2.85643e-18)
(-0.00086143 0.058477 -9.09578e-19)
(-0.00624827 -0.071377 -2.94115e-18)
(-0.00232773 -0.0843584 0)
(-0.00649879 -0.0666315 2.50663e-18)
(-0.00553814 -0.106334 -1.48057e-18)
(-0.00222976 -0.0351016 4.30096e-18)
(0.0635734 -0.103515 1.51427e-18)
(0.0114501 -0.0290943 0)
(-0.0228834 -0.000680236 1.39857e-18)
(-0.030127 0.0125504 0)
(0.0150135 -0.170819 -4.31541e-18)
(0.021159 -0.155348 3.75175e-18)
(-0.0221999 -0.117763 0)
(0.00320159 -0.0283889 -8.00441e-19)
(-0.00568826 -0.147448 9.44058e-20)
(0.0265574 -0.132884 1.68473e-18)
(0.0358644 -0.151748 0)
(-0.000834559 -0.056014 0)
(-0.0102521 -0.00279641 0)
(0.0116329 0.0469207 -1.38457e-18)
(-0.0024453 -0.0393345 1.44196e-18)
(0.0060024 -0.0140265 -1.46659e-18)
(-0.0021438 -0.0310863 1.3943e-18)
(0.000959706 -0.0401135 -2.95114e-18)
(0.0480735 -0.139048 0)
(0.0335147 0.0124132 0)
(0.0192395 -0.160216 -1.48244e-18)
(-0.0358111 0.0133947 1.92321e-18)
(0.013463 -0.164794 -5.59468e-20)
(0.00245622 0.0284964 -1.42291e-18)
(0.0202787 -0.157987 -1.66646e-22)
(0.00371721 -0.155489 0)
(-0.0076464 -0.0910221 0)
(0.0371926 -0.0549384 0)
(0.00342972 -0.0354464 0)
(0.0194438 -0.157683 -1.47551e-18)
(-0.00676236 -0.0991089 2.92085e-18)
(-0.010792 -0.0924109 0)
(-0.00270703 -0.15255 -9.36641e-20)
(0.0332796 0.00222723 -1.51454e-18)
(0.0581998 -0.140449 0)
(-0.00150534 -0.0531203 0)
(-0.00931634 -0.132647 0)
(-0.00992177 -0.100482 -2.88358e-18)
(0.0125054 -0.011683 0)
(0.00544762 -0.00272089 -1.56502e-18)
(0.0227086 0.0411204 1.41525e-18)
(0.0269556 -0.0594666 -3.59872e-19)
(-0.00298217 -0.0455511 2.60974e-18)
(-0.00852727 -0.108333 2.97098e-18)
(2.43336e-05 -0.0591202 3.64388e-19)
(0.0336034 -0.122344 0)
(-0.0111677 -0.126443 0)
(0.0114128 -0.0135524 0)
(0.0236092 -0.1289 -1.79558e-18)
(0.0071671 -0.01866 0)
(-0.0034945 -0.057022 -1.43685e-18)
(0.0198404 -0.0259595 -1.44444e-18)
(0.0117873 -0.0315257 -2.81627e-18)
(0.0172919 -0.121596 -1.61421e-18)
(-0.000418116 -0.0767473 -2.68125e-18)
(-0.0142392 -0.00557548 -2.04386e-18)
(-0.0015241 -0.0888671 0)
(0.0141341 0.0121346 -1.56823e-18)
(-0.0522576 -0.00360013 -1.62811e-18)
(0.0531045 -0.120797 -4.06459e-19)
(-0.00981378 -0.142585 -1.95444e-19)
(0.00971571 -0.0156393 -1.47754e-18)
(0.0628971 -0.107172 -1.90426e-19)
(0.0459668 -0.0790935 -2.86137e-18)
(-0.0158823 -0.120671 2.61886e-18)
(-0.000243739 -0.0647782 0)
(-0.000335721 -0.0734727 0)
(0.0536051 -0.0413171 1.76235e-18)
(0.00615532 -0.16036 2.83298e-18)
(0.00574445 -0.0206275 1.4477e-18)
(0.0381749 -0.0383496 -1.58337e-18)
(0.0279285 -0.0522717 0)
(-0.000145154 -0.0797538 2.73247e-18)
(0.000247413 0.0478778 -3.5654e-19)
(-0.000321653 -0.0387318 -1.40432e-18)
(-0.0174173 -0.131896 1.83755e-19)
(-0.0374891 0.0110094 0)
(-0.035661 0.0116948 -1.27546e-18)
(-0.0260763 0.00698172 0)
(0.00683303 0.0402973 1.48401e-18)
(0.0120905 -0.160556 1.44063e-18)
(-0.0390314 -0.0123146 -1.06807e-18)
(0.00238474 -0.0334441 2.9296e-18)
(0.00677413 -0.0207549 0)
(-0.0152431 0.00868236 0)
(0.0379311 -0.0383037 1.83834e-19)
(0.0335077 -0.0537322 -1.45885e-18)
(-0.00922082 0.00375119 0)
(0.0342835 0.0596995 1.63874e-18)
(0.0113352 0.0528602 1.7332e-18)
(-0.0130527 0.0657653 0)
(0.0307899 -0.162697 -1.46621e-18)
(0.030202 0.0755283 -3.46608e-18)
(-0.0338192 0.00966986 1.71098e-18)
(-0.024742 0.00913752 3.36369e-18)
(0.00996773 -0.0147481 0)
(0.0114191 -0.0113574 -3.17943e-18)
(-0.000509299 -0.0438845 -8.48201e-19)
(-0.0116727 -0.133476 -1.29158e-18)
(-0.000326887 -0.0548263 -1.89702e-19)
(0.0235001 0.0232012 1.47788e-18)
(-0.000875769 -0.069569 0)
(-0.0419586 0.079435 0)
(-0.0139724 -0.104079 3.08146e-18)
(0.000932467 -0.0102394 -1.65135e-18)
(-0.01284 -0.114309 -2.99468e-18)
(0.0371239 -0.091379 -1.19147e-18)
(-0.000339129 -0.0636777 0)
(-0.0152264 0.0453253 -3.46387e-18)
(-0.000932009 -0.0589819 1.5384e-18)
(-0.0197232 0.0044862 0)
(-0.00559519 -0.00271783 -1.86958e-18)
(-0.0137236 0.00166872 0)
(-0.000225286 -0.0593839 -1.45922e-18)
(-0.00518327 -0.0634401 0)
(0.00919519 -0.0131939 1.6546e-18)
(0.013592 -0.014007 2.93386e-18)
(-0.0260719 0.0984925 -1.66776e-18)
(-7.13771e-05 -0.046624 -1.66945e-18)
(0.00254886 -0.0189839 1.71876e-18)
(-0.010413 -0.0781456 1.49878e-18)
(-0.000519906 -0.0900723 -3.87016e-19)
(0.0103926 -0.0237217 1.5302e-18)
(0.0007555 -0.0198525 2.05974e-19)
(0.0101527 0.000755994 1.64117e-18)
(-0.00165947 -0.0349907 0)
(0.0415924 -0.0973546 0)
(-0.0108646 0.0682648 4.48349e-23)
(-0.00328635 -0.0715139 1.14183e-18)
(-0.00132219 -0.0202569 1.48245e-18)
(0.0312291 -0.0139668 1.36015e-18)
(0.0287341 -0.102653 1.05078e-19)
(-0.0144514 0.00921273 1.66301e-18)
(-0.00373877 -0.0635376 1.52744e-18)
(-0.0053653 -0.125282 -1.8504e-19)
(-0.00020937 -0.0506691 2.02949e-18)
(-0.0191583 0.0130992 -3.9234e-23)
(-0.00288558 -0.0529969 -1.52663e-18)
(-0.0373341 0.0107678 -8.80924e-19)
(-0.000169734 -0.0109283 0)
(-0.0240563 0.00526339 3.16111e-18)
(-0.00289735 -0.0697124 1.92065e-18)
(0.0540216 -0.00602476 3.70448e-22)
(0.00170442 -0.0436098 -1.9822e-18)
(0.0275682 -0.0829196 0)
(-0.0366318 -0.0663443 0)
(-0.0319747 -0.0743437 1.58916e-18)
(-0.00366832 -0.116387 -1.15018e-18)
(0.031848 0.00443461 -1.67245e-18)
(-0.019064 -0.0310059 1.61746e-18)
(1.7363e-05 -0.0198796 -1.48769e-18)
(0.0135985 0.00631787 0)
(0.011156 0.00986687 -1.16804e-23)
(-0.000490784 -0.047847 0)
(-0.0280196 -0.0258636 -1.63803e-18)
(0.000704949 -0.0347119 -2.02356e-19)
(-0.00386809 -0.0463964 0)
(0.0827244 -0.099515 1.01213e-19)
(0.0437295 -0.0737185 4.99098e-20)
(-0.0602106 -0.0458365 0)
(-0.00135371 -0.0318921 0)
(0.0177217 0.0306018 0)
(-0.000864105 -0.0574901 0)
(0.0752396 -0.0713275 -1.02004e-19)
(0.0397849 -0.0178117 -5.07345e-20)
(-0.0570354 0.00141483 -3.24148e-18)
(-0.0238259 -0.0303939 -1.64943e-18)
(0.0469258 -0.0885935 1.86362e-19)
(-0.00589294 -0.0560385 0)
(-0.0385952 -0.0728411 0)
(-0.000211824 -0.0801797 -1.58764e-18)
(-0.0352585 -0.0495388 -1.61024e-18)
(-0.0109581 0.00227573 0)
(0.00883873 0.0832072 -1.6548e-18)
(-0.00199857 -0.0499467 -1.60273e-18)
(-0.0017027 -0.0038918 1.64752e-18)
(-0.00354575 -0.058064 -5.00493e-20)
(-0.0114446 -0.11131 -3.27036e-18)
(-0.00111073 -0.0259928 -1.62826e-18)
(0.000603832 -0.0968327 0)
(0.0119222 -0.0720795 0)
(0.00175079 -0.0102057 0)
(0.0787091 -0.109767 1.64646e-18)
(0.0114952 -0.0163378 0)
(-0.000413595 -0.0796972 2.09934e-24)
(-0.0342629 -0.0571737 -2.86419e-22)
(-0.000330259 -0.0217652 3.07768e-18)
(0.0688421 -0.0813193 -1.62565e-18)
(0.0841267 -0.110323 -1.63191e-18)
(-0.00189045 -0.0670496 -1.7145e-18)
(0.0366654 -0.124078 -1.69029e-18)
(0.0321396 -0.140612 1.02194e-19)
(0.060793 -0.0973644 0)
(-0.0441095 -0.0810671 1.66307e-18)
(0.00200925 -0.0399419 2.47335e-20)
(0.0751475 -0.112292 0)
(-0.00176921 -0.0384517 0)
(-0.00403789 -0.0670444 0)
(-0.00424668 -0.0394825 0)
(-0.0102795 -0.0889254 6.14782e-21)
(0.0790116 -0.100767 -3.82892e-22)
(-0.0130342 -0.0168328 -1.97919e-19)
(-0.00270752 -0.0574097 2.28344e-18)
(-0.000137686 -0.0066754 0)
(-0.0062885 -0.0629257 0)
(-0.00382403 -0.0607769 1.08641e-19)
(-0.00358958 -0.0713153 4.29624e-18)
(0.0519188 -0.120504 -4.90299e-18)
(-0.000358262 -0.0783811 -4.84215e-18)
(-0.00142019 -0.0521534 0)
(-0.000558049 -0.0801661 3.13351e-18)
(-0.0429641 0.000965222 2.24833e-18)
(-0.000430078 -0.0763584 -1.506e-18)
(0.0164862 0.100459 -1.03869e-19)
(-0.0008361 -0.0433685 0)
(-0.00421186 0.0255178 0)
(0.0553945 -0.117261 0)
(-0.00867505 -0.0303627 1.6563e-18)
(-0.00900919 0.001137 0)
(4.50417e-05 -0.0129688 2.79887e-18)
(0.0423289 -0.110475 1.6444e-18)
(-0.000267725 -0.0253934 0)
(0.000546055 -0.0232062 2.84236e-18)
(0.0653051 -0.0418423 0)
(0.0173621 0.0273536 0)
(-0.0120327 -0.0382579 -1.58874e-18)
(-0.000712675 -0.0796305 -1.56007e-18)
(-0.0533569 -0.0247657 1.68222e-18)
(-0.00335582 -0.120057 -1.47109e-18)
(0.00098819 -0.133278 0)
(-0.00102795 -0.0577248 -1.55784e-18)
(0.00496981 -0.0518918 0)
(-0.00858309 -0.0507087 0)
(-0.00231912 -0.0645985 1.73212e-18)
(-0.02242 -0.0620776 1.61355e-18)
(-0.0186678 -0.0696105 -2.50456e-20)
(-0.000817212 -0.0176453 0)
(-0.00061457 -0.0148303 1.5443e-18)
(-0.00220486 -0.0276654 -4.11686e-18)
(0.00851459 -0.00732145 -2.52739e-20)
(-0.000543475 -0.0764132 6.28592e-18)
(-0.0252625 -0.0924582 -3.1764e-18)
(-0.00120507 -0.0460529 2.96906e-18)
(-0.0172214 -0.0310509 -3.18634e-21)
(-0.0148289 -0.0800739 -8.8077e-24)
(-0.0298631 -0.0229423 6.47875e-23)
(-0.000675371 -0.0916685 -1.50481e-21)
(0.00353673 -0.096097 1.54883e-18)
(-0.00262582 -0.0560341 3.29454e-18)
(0.000232564 -0.0112895 0)
(-0.0127056 -0.0444285 6.38526e-21)
(-0.00215316 0.0083586 -1.64343e-18)
(0.00535497 0.00315307 0)
(0.0443257 -0.118489 -1.62211e-18)
(-0.00103527 -0.0801593 1.55675e-18)
(0.0146714 -0.117755 0)
(0.0308362 -0.131225 4.86265e-19)
(0.00436375 -0.00306212 4.32155e-18)
(-0.0204962 -0.0859461 3.20733e-18)
(0.0377039 -0.0922954 -2.57147e-18)
(0.00712794 -0.0021585 -9.07501e-19)
(-0.0155753 0.0164335 0)
(-0.00214825 -0.0498903 -2.37748e-18)
(0.06164 -0.111646 0)
(-0.00805798 -0.0584117 0)
(0.0493357 -0.109291 1.62501e-18)
(0.0856848 -0.104556 0)
(0.0293206 -0.0927468 2.46322e-20)
(0.00581249 0.021368 0)
(-0.000492198 -0.0273398 -1.55006e-18)
(0.053038 -0.112366 3.3282e-18)
(-8.73498e-05 -0.0212994 0)
(-0.0534017 -0.0663459 2.46607e-20)
(0.042812 -0.0874222 -1.58902e-18)
(-0.00305883 -0.0783895 0)
(-0.0356049 -0.0492175 3.21468e-18)
(-0.00520451 -0.131209 3.71581e-23)
(0.00777642 -0.146459 0)
(-0.00375764 -0.0434456 1.59129e-18)
(-0.0421126 0.0126591 -3.19645e-18)
(-0.00406465 -0.0301973 0)
(-0.0317887 -0.075678 -1.58828e-18)
(-0.0170835 -0.0926932 -1.56767e-18)
(-0.00234869 -0.0398184 -4.35831e-18)
(-0.00139281 -0.0124623 1.60252e-18)
(0.00249763 -0.00545432 0)
(-3.81523e-05 -0.0214547 -1.56412e-18)
(0.0357145 -0.117407 0)
(-0.0579379 -0.0333447 -1.69167e-18)
(0.0326692 -0.0782261 2.88648e-18)
(-0.000460833 -0.0730356 1.63397e-18)
(0.0424352 -0.0753212 1.64287e-18)
(0.000593845 -0.0118051 -3.32808e-18)
(-0.00901344 0.00380552 1.42499e-18)
(-0.00154172 0.00111295 -1.54483e-18)
(-0.00844935 -0.0526629 0)
(-0.00202453 -0.0493004 0)
(-0.011795 -0.0812982 3.18055e-18)
(-0.00794638 -0.0703068 1.6391e-18)
(-0.0358178 -0.00855448 3.39469e-18)
(-0.0024675 -0.0668794 -2.58147e-18)
(-0.0559271 -0.00248149 1.73437e-18)
(-0.0286634 -0.0843886 -1.58943e-18)
(-0.00108355 -0.0566715 1.53887e-18)
(0.00170735 -0.0578451 1.61892e-23)
(-8.0266e-05 -0.0545862 0)
(-0.000339272 -0.05901 0)
(0.0083562 -0.0384029 0)
(0.00790344 0.00433103 1.43432e-18)
(0.00589933 0.00248073 1.52582e-18)
(-0.000299741 -0.0138376 0)
(0.000438617 -0.0129517 -2.94814e-18)
(-0.00122831 -0.0508146 1.61072e-18)
(-0.00032998 -0.0262209 0)
(-0.00238026 -0.0448906 -2.89463e-18)
(0.00571907 -0.0665663 -1.58221e-18)
(0.0684179 -0.115617 1.98219e-19)
(0.0812455 -0.0897426 1.69241e-18)
(0.0462887 -0.0876302 -1.54088e-18)
(0.0450586 -0.0930797 0)
(-0.000576424 -0.0785171 -4.71247e-18)
(-0.00268326 -0.0715346 0)
(0.0445709 -0.0748881 1.56646e-18)
(-0.0138482 -0.0767507 1.66289e-18)
(0.057244 -0.0986593 1.53812e-18)
(0.00573347 0.00971088 -1.48328e-18)
(0.00487745 0.0028502 0)
(-0.0214857 -0.133682 2.90549e-18)
(-0.00561426 -0.0730027 0)
(-0.00117809 -0.0794257 1.55398e-18)
(0.00809454 -0.0893795 -1.36834e-18)
(-0.00077794 -0.0948265 -1.79571e-23)
(-2.68578e-05 -0.0203095 0)
(0.0722379 -0.11247 1.52545e-18)
(0.0834731 -0.122232 -1.52846e-18)
(0.0857716 -0.127704 -1.61263e-18)
(0.0788954 -0.132565 0)
(0.0603807 -0.137351 0)
(0.0306641 -0.138241 1.50701e-18)
(-0.00396308 -0.13131 1.52769e-18)
(-0.03415 -0.11496 -4.92059e-20)
(-0.000786718 -0.0242394 -1.62417e-18)
(-0.0445046 -0.0935556 -1.54831e-18)
(-0.0321699 -0.0746505 -3.05838e-18)
(0.00675434 0.0302982 -1.70519e-18)
(-0.0160207 -0.0692433 -2.44254e-20)
(-0.000394315 -0.0143095 0)
(-0.00962222 -0.0742746 -1.57166e-18)
(-0.0123765 -0.0527986 3.19762e-21)
(-0.0012056 -0.0799586 -4.65627e-18)
(-0.000168642 -0.0107581 1.58945e-18)
(-0.00012359 -0.0108981 0)
(-5.68241e-05 -0.0112578 1.60207e-18)
(-0.000181355 -0.0209614 -1.59606e-18)
(-0.000100866 -0.0205912 1.58259e-18)
(-0.00879653 -0.0589455 0)
(-0.017044 -0.102044 -3.20313e-18)
(-0.00133997 -0.0785288 1.47617e-25)
(0.00239652 -0.110664 -1.66439e-18)
(0.00602234 -0.00448263 1.62526e-18)
(0.0734112 -0.0524982 -1.01991e-19)
(-0.00328806 -0.0695655 2.6142e-20)
(-0.000216801 -0.0132412 0)
(-0.000141236 -0.0109538 -1.59322e-18)
(0.00479922 -0.164361 1.79912e-18)
(-7.2083e-05 -0.0113354 1.58062e-18)
(-0.000776245 -0.0426465 -1.52987e-18)
(-0.0123008 -0.148009 -4.17568e-18)
(0.0039113 -0.10205 -1.69318e-18)
(-0.000684386 -0.0760627 0)
(-0.000561256 -0.0444495 0)
(-0.000758284 -0.0767001 5.03837e-18)
(-0.0555809 -0.0345938 0)
(-0.00884361 -0.139826 1.4961e-18)
(0.00877126 -0.131758 -1.53577e-18)
(-0.00342495 -0.125362 3.05182e-18)
(0.0477232 -0.0821932 0)
(-0.00120414 -0.0756264 1.57382e-18)
(-0.0213437 -0.0973582 1.5859e-18)
(0.0628559 -0.107107 -3.43267e-18)
(-0.000975717 -0.0758729 0)
(-0.00123318 -0.0792901 1.5278e-18)
(-0.000128714 -0.0104672 0)
(-0.0228006 -0.0891408 -4.75994e-18)
(0.0120795 -0.147714 0)
(0.0596146 -0.0969016 -3.06323e-18)
(-0.020974 -0.0823407 -3.48177e-23)
(-0.00167223 -0.0714349 1.57861e-18)
(-0.0112463 -0.0889466 2.04225e-23)
(-0.00734485 -0.0744686 1.59553e-21)
(0.0215678 -0.0261547 1.13042e-18)
(0.0745164 -0.112491 1.52834e-18)
(0.0830242 -0.124641 1.37042e-18)
(0.0818266 -0.133199 0)
(0.069452 -0.140621 9.966e-20)
(0.0454772 -0.146648 0)
(0.0136967 -0.147447 -3.05783e-18)
(-0.0177211 -0.139348 0)
(-0.0347531 -0.120589 1.55602e-18)
(-0.00182822 -0.0750992 -3.20001e-18)
(-0.0302241 -0.0981669 1.52905e-18)
(-0.0624564 0.018716 1.69377e-18)
(-0.0178716 -0.0835643 1.62625e-18)
(-0.00157844 -0.0799656 1.55342e-18)
(-0.033011 0.0108917 1.65962e-18)
(-0.0116369 -0.0836628 -6.11943e-21)
(-0.000992153 -0.0725391 0)
(-0.0240918 -0.0716051 1.60554e-18)
(-3.25528e-05 -0.0699501 0)
(-0.000428149 -0.0694641 -1.90524e-19)
(-0.00122152 -0.072315 -2.42099e-24)
(-0.0299809 -0.0841651 0)
(-0.00074863 -0.0728113 -3.03511e-21)
(-0.00106983 -0.076909 -3.19684e-18)
(-0.00149601 -0.0753642 -3.10399e-18)
(-0.0018421 -0.0535218 -4.64583e-18)
(-0.00168683 -0.0792038 -4.66792e-18)
(-0.00248628 -0.078473 -1.53389e-18)
(0.0411947 -0.0497739 1.46603e-18)
(0.0111689 0.0743842 1.73331e-18)
(0.00918065 -0.00404197 -3.50651e-18)
(-0.011114 0.0134187 1.69785e-18)
(0.00644556 -0.0771073 0)
(0.00264539 0.0054653 0)
(-0.00468121 0.095882 0)
(-0.0313681 -0.0400752 -6.35698e-21)
(-0.0042929 -0.07505 -2.54327e-20)
(-0.0175546 -0.104895 -4.46395e-23)
(0.0325323 -0.0445556 -3.11274e-18)
(0.0263354 -0.141616 1.6618e-18)
(-0.000980394 -0.0448771 1.46478e-18)
(-0.00105176 -0.0789193 -1.65575e-18)
(-0.0019546 -0.079827 4.67736e-18)
(4.52132e-05 -0.0420326 2.0138e-19)
(-0.000837765 -0.0170724 -1.4868e-18)
(-0.0174006 -0.0775611 1.60086e-18)
(-0.00566972 -0.0197806 1.54441e-18)
(-0.0202578 -0.0970073 1.58603e-18)
(-0.00211531 -0.0744263 -9.83083e-20)
(-0.0164711 -0.0472048 0)
(-0.01997 -0.0888428 1.60631e-18)
(-0.00548678 -0.0762995 1.27456e-20)
(-0.000984971 -0.0765236 3.10166e-18)
(-0.00147927 -0.0720031 3.10116e-18)
(-0.00191038 -0.0688131 0)
(0.0465333 -0.0759155 2.95265e-18)
(0.0752447 -0.127204 1.94802e-19)
(-0.00203235 -0.0789515 -3.12898e-18)
(0.064579 -0.152878 -9.32768e-20)
(-0.00638233 -0.150551 6.53009e-23)
(-0.0182156 -0.0828555 -3.20336e-18)
(-0.0108192 -0.115991 1.57182e-18)
(-0.0175611 -0.107517 -1.53161e-18)
(-0.011603 0.00242796 -3.65669e-18)
(0.00156858 -0.00410754 0)
(-0.000157869 -0.0790041 0)
(-0.00814618 0.00208515 0)
(-0.0479191 -0.0420933 0)
(-0.0128784 -0.083039 0)
(-0.00261426 -0.000680656 -1.92086e-18)
(0.00366322 -0.00863622 1.75764e-18)
(0.000273066 -0.0700531 -1.48267e-18)
(-0.0101578 -0.0727651 -1.8073e-24)
(0.000782578 -0.0108105 -1.77544e-18)
(-0.013771 -0.110798 1.56063e-18)
(-0.0400212 -0.0251864 1.63503e-18)
(0.0106504 -0.0126159 0)
(-0.00127372 -0.0296261 1.30219e-18)
(0.0210109 -0.155298 -2.98369e-19)
(-0.00691179 -0.115548 -4.46878e-18)
(0.00642853 -0.0106693 -1.7575e-18)
(-0.00237764 -0.0795895 1.57226e-18)
(0.0180064 0.0136391 4.02886e-19)
(-0.00232741 -0.0766081 4.86301e-18)
(-0.00354373 -0.0764126 -1.67228e-18)
(-0.0495978 0.0553401 -3.33953e-18)
(0.0422719 -0.0485449 -4.73981e-20)
(-0.00443687 -0.0774415 1.7244e-18)
(-0.0204868 -0.0668166 3.23589e-18)
(-0.0199827 -0.0853836 1.60699e-18)
(0.0435591 -0.0338634 -1.28361e-18)
(-0.0265173 -0.045955 1.63607e-18)
(-0.0182666 -0.0621066 -3.24971e-18)
(-0.000907744 -0.0494867 -3.23634e-18)
(-0.0169738 -0.0967669 -1.1907e-20)
(-0.000168504 -0.0653994 0)
(-0.00178314 -0.0704149 1.51991e-18)
(-0.0481582 -0.0562454 0)
(-0.0160841 -0.0855895 0)
(-0.0107601 -0.0675365 -3.26664e-18)
(0.00388311 -0.0168061 8.64707e-19)
(-0.00127894 -0.0789843 1.55679e-18)
(0.0222185 0.0191081 -3.93473e-19)
(-0.01985 -0.0790472 0)
(-0.00250439 -0.0785222 9.91238e-20)
(0.0364758 -0.0315263 1.75282e-18)
(-0.0339138 -0.0236149 1.28734e-20)
(-0.00974671 -0.0781521 0)
(-0.00463966 -0.0779045 -1.66481e-18)
(-0.00364393 -0.0787438 0)
(-0.00815017 -0.07678 -1.62203e-18)
(-0.00174925 -0.076853 -6.59782e-18)
(-0.00203805 -0.0785357 -4.66298e-24)
(-0.00285859 -0.0779691 0)
(-0.00277973 -0.0793584 0)
(0.0450775 -0.159609 1.45773e-18)
(-0.0391239 -0.0445514 -1.28252e-20)
(-0.0135012 -0.0808386 -1.55412e-18)
(-0.0389808 0.0711987 1.60346e-18)
(-0.00222077 0.0145041 -1.66088e-18)
(-0.0158645 -0.10361 1.54082e-18)
(-0.000757543 -0.0563369 0)
(0.0303219 0.00318869 -1.91487e-19)
(4.14049e-05 -0.0111966 2.21775e-19)
(0.00841801 0.00996423 -1.61679e-18)
(0.000130226 -0.0386328 0)
(-0.0130534 -0.109113 -1.57168e-18)
(0.000392675 -0.0197087 6.30607e-21)
(-0.0175372 -0.0691743 3.13958e-21)
(0.0121986 -0.0757833 0)
(0.00330159 -0.0278388 1.93405e-18)
(-0.00243787 -0.0733145 -1.5804e-18)
(-0.0145556 -0.102031 -1.54751e-18)
(-0.0154598 -0.0957219 0)
(-0.0147764 -0.0646414 3.25198e-18)
(-0.0173108 -0.0908562 -6.14981e-21)
(0.0306985 -0.161388 -5.6866e-21)
(-0.024019 -0.0641051 -3.2219e-18)
(-0.0149717 -0.0892019 0)
(0.0527315 -0.156649 0)
(0.000355469 -0.0206098 0)
(-0.00600789 -0.0773821 -1.2739e-20)
(-0.0132294 -0.070881 -2.56397e-20)
(0.00190873 -0.0352585 0)
(-0.0414738 -0.0595283 -1.62969e-18)
(-0.0011445 -0.0611788 0)
(-0.0282635 -0.0559192 -7.36662e-23)
(0.0181396 -0.148479 1.56216e-18)
(-0.00533854 -0.0772641 0)
(-0.00714699 -0.077195 2.5437e-20)
(-0.0136811 -0.103481 3.1806e-18)
(0.000516623 0.0196399 1.61371e-18)
(-0.0116418 -0.116613 -6.33658e-21)
(-0.00801977 -0.00774921 -1.62559e-18)
(-0.000918186 0.016059 0)
(0.00762951 0.0248644 0)
(-0.001483 0.00730881 -5.13999e-20)
(-0.00448232 -0.136994 4.75142e-20)
(-0.0106301 -0.0774521 0)
(0.0486688 -0.0689535 0)
(0.00703275 0.00677816 0)
(0.00414095 0.0096853 9.51092e-20)
(0.00895734 -0.0222352 -1.85586e-23)
(-0.000646586 -0.14293 -9.47798e-20)
(-0.00224337 -0.0173493 -1.61869e-18)
(0.00737004 0.0178173 -1.61281e-18)
(-0.0456147 0.00895616 -1.63451e-18)
(-0.0145142 0.00732377 1.62419e-18)
(-0.000326798 -0.0481915 -5.81225e-20)
(0.00585469 0.0147941 -2.60729e-20)
(-0.0377077 0.0272917 -9.40532e-23)
(0.000658179 0.0116046 1.71499e-18)
(-0.00921044 -0.077391 1.72055e-18)
(0.0481807 0.0285876 3.29921e-18)
(-0.0135947 -0.109146 6.27823e-21)
(0.0343946 -0.071734 0)
(-0.00793397 -0.0829447 -3.01899e-18)
(-0.051384 0.0270508 3.24129e-18)
(0.0104968 -0.188225 1.44476e-22)
(0.00150389 -0.0194319 0)
(0.00641167 0.00446318 0)
(-0.00380893 -0.0576493 -2.94883e-18)
(-0.0191155 0.0894572 1.77363e-22)
(-0.0115616 -0.0784737 0)
(-0.00880695 0.00872489 0)
(-0.0160799 0.00455311 0)
(0.000244928 -0.048785 -1.68656e-18)
(-0.0306109 0.00959206 -1.86466e-19)
(-0.0191831 0.06721 9.48869e-19)
(0.0424556 0.00911981 5.06735e-20)
(0.00732126 0.0137149 1.65371e-18)
(-0.00147568 -0.0512433 -1.96678e-18)
(-0.00120342 -0.0624589 0)
(0.0350947 0.0454464 3.89333e-22)
(-0.0106664 -0.0765341 0)
(-0.019574 0.0308485 1.80791e-22)
(0.0131031 -0.0479297 -1.55161e-18)
(-0.0339596 0.0159515 0)
(-0.0175181 0.0372755 -3.41521e-18)
(-0.0356063 0.0367568 6.28911e-21)
(0.06667 -0.0678319 -5.08753e-20)
(-0.0236574 0.00624458 -3.41983e-23)
(0.00205055 0.00946012 -1.65116e-18)
(-0.0205887 0.120255 0)
(0.00144245 0.0125228 0)
(-0.00400041 0.10951 3.33292e-18)
(-0.0328453 0.0101942 -2.74037e-18)
(-0.00481964 -0.0618688 1.55799e-18)
(0.000419677 -0.0458457 -3.46183e-18)
(0.0570596 -0.0156275 0)
(0.0122496 -0.175298 0)
(-0.00271739 -0.13015 -1.51788e-18)
(0.00725641 0.0101845 0)
(0.0193513 -0.128087 1.92434e-18)
(-0.00961916 0.143087 1.73788e-18)
(-0.0018309 -0.0152361 0)
(0.0200615 -0.0100926 1.55814e-18)
(0.0122898 0.118607 1.0701e-19)
(0.0343697 -0.140988 -5.12834e-20)
(-0.00858416 -0.126484 1.93433e-19)
(0.0613014 -0.0918212 3.79352e-23)
(-0.00891325 -0.121578 -1.615e-18)
(0.0596191 -0.121353 0)
(0.0718883 -0.130052 -1.54922e-18)
(0.0674699 -0.145553 0)
(0.0433075 -0.128315 3.26054e-18)
(0.0201578 0.0835451 3.79118e-22)
(0.0273332 -0.151955 -1.77828e-18)
(0.0252756 -0.0102839 1.62289e-18)
(0.00186393 -0.000697141 0)
(8.25657e-05 -0.0359456 -6.33391e-21)
(-0.000295988 -0.0432061 -1.57138e-18)
(-0.000330141 -0.0376031 0)
(0.018873 -0.0499128 1.7727e-18)
(0.00648634 -0.152685 1.78472e-18)
(0.0119848 -0.113542 1.08921e-19)
(-0.00073717 -0.00141364 1.70187e-18)
(0.00849143 -0.135422 -1.64138e-18)
(-0.0106999 -0.121438 9.75787e-20)
(-0.00418589 -0.000222165 -1.66728e-18)
(0.0155286 -0.174203 1.44184e-18)
(-0.0108027 -0.0848869 4.55368e-18)
(-0.000408371 -0.0737471 2.72877e-18)
(-0.000198671 -0.0367182 1.50809e-18)
(-0.000352803 -0.0381166 0)
(0.000222518 -0.0613647 1.43173e-18)
(-0.000598245 -0.0452954 0)
(-0.000266247 -0.0388416 1.62292e-18)
(-0.0290617 0.0158847 0)
(-0.00123325 -0.00842339 -2.75717e-18)
(-0.000517419 -0.0458052 2.53973e-20)
(-0.000467921 -0.0200385 3.75256e-18)
(-0.000336587 -0.0385405 1.64288e-18)
(-0.000130871 -0.0389318 1.58379e-18)
(0.00175552 -0.0308546 -2.10129e-18)
(-0.0305965 -0.00448976 -1.62183e-18)
(-0.00045779 -0.046313 -3.28688e-18)
(-0.000254951 -0.0798814 -3.46487e-18)
(-0.000290319 -0.0463991 0)
(-0.0154051 0.0405849 3.40176e-18)
(-0.000198032 -0.0799637 1.78261e-18)
(-0.000407409 -0.0352124 -1.03201e-18)
(0.000178633 -0.0761504 4.84227e-18)
(-1.19168e-05 -0.010431 0)
(0.00827717 -0.0149678 1.85163e-18)
(-0.0034791 -0.0759936 0)
(-0.00120387 -0.0207482 0)
(0.00109219 -0.0191675 1.04511e-18)
(-0.00438738 -0.112296 4.43085e-18)
(0.00389611 -0.000550824 1.77063e-18)
(-0.0259968 0.00642059 0)
(-0.0233832 0.0801967 -1.60532e-18)
(-0.012821 0.0724728 0)
(-0.00113684 -0.0653278 3.98189e-18)
(0.00663883 -0.00180805 -3.44218e-18)
(-0.00646473 0.00297421 -4.37386e-19)
(-0.00298401 -0.0785547 0)
(0.00655452 0.00416016 0)
(-0.0175469 0.00455636 0)
(-0.0287761 0.0108497 0)
(-0.00718395 -0.116075 0)
(0.00301994 -0.15981 0)
(0.00125805 0.00309913 1.30795e-18)
(-0.0320697 0.0016916 -3.2637e-18)
(-0.0128531 0.0355905 3.80952e-18)
(-0.00200038 -0.00498829 3.68282e-23)
(-0.00347551 0.0022962 -2.06777e-18)
(-0.00148517 -0.0580529 0)
(-0.000417563 -0.0644425 1.52334e-18)
(0.0137893 -0.124193 0)
(-0.0343464 0.0107748 -2.25526e-18)
(-0.00578302 -0.121643 -2.69073e-23)
(0.00374969 -0.0641269 -2.02904e-18)
(-0.00111305 -0.0632702 0)
(-0.000856427 -0.0667803 0)
(0.0114866 -0.183791 3.5516e-18)
(0.00400378 0.103289 -1.71799e-18)
(-0.00063905 -0.0641916 3.33236e-21)
(0.000611299 -0.00837943 -9.6713e-19)
(-0.000633595 -0.0589049 1.70216e-18)
(-0.00087883 -0.0580708 0)
(-0.0318946 0.00809879 0)
(3.39231e-05 -0.0756942 9.83091e-19)
(-0.00100683 -0.0636111 0)
(-0.000770391 -0.058578 -2.66778e-20)
(-0.000451461 -0.0591172 0)
(-0.000192358 -0.0606464 0)
(-0.000821499 -0.0639129 -1.70551e-18)
(-0.00418982 -0.0768644 3.47148e-18)
(0.000360656 -0.0192313 0)
(0.00287202 0.141182 1.03989e-19)
(0.00911129 0.0945582 0)
(-0.0325742 0.0138445 -2.33694e-18)
(0.0357535 -0.113105 1.499e-18)
(-0.00424505 -0.0785395 4.76133e-27)
(-0.0343423 0.0134838 0)
(0.0066646 -0.0200562 0)
(0.0622942 -0.0341238 0)
(0.075461 -0.141943 1.51599e-18)
(0.00639953 -0.00345716 2.8567e-18)
(0.000196204 -0.00298437 -2.9769e-20)
(-0.0138172 0.00628136 -1.02216e-18)
(-0.00105055 -0.0450723 -2.32464e-19)
(0.0161523 -0.171906 -1.52271e-18)
(0.000299909 -0.0094887 2.02384e-18)
(-0.033522 0.00958337 -8.10297e-19)
(0.0132578 0.0481937 -1.739e-18)
(-0.0173897 -0.0144214 -7.86735e-19)
(0.00421121 0.00032445 -2.01109e-18)
(0.0248641 0.0385964 -1.67467e-18)
(0.0149906 0.0260974 1.69812e-18)
(0.0721149 -0.0905317 1.64768e-18)
(-0.00745479 -0.0756636 -1.47397e-18)
(0.000488316 -0.0651408 0)
(0.00932911 -0.0346597 0)
(0.00931918 -0.0597048 0)
(0.0157688 -0.0849755 -1.05226e-19)
(0.00344523 -0.00523353 9.14954e-19)
(0.0412415 -0.131359 0)
(0.028865 -0.132293 1.5494e-18)
(0.0252641 -0.150978 1.34208e-22)
(-0.00321429 0.0260312 2.07931e-18)
(0.00529704 -0.0919634 1.71955e-18)
(0.00463338 0.00604162 1.3914e-18)
(0.00622467 -0.0108207 0)
(0.00487119 -0.000638953 4.3336e-23)
(-0.00168288 -0.0112621 2.06859e-18)
(0.00386116 -0.00195419 9.35135e-19)
(-0.0137597 0.000582414 4.93834e-19)
(0.00108155 -0.0361109 1.95265e-18)
(-0.00885928 0.0352387 1.06583e-18)
(-0.010692 0.00570353 0)
(-0.0346601 0.0134923 2.60639e-18)
(0.0241652 -0.10384 -1.48423e-18)
(-0.0209655 0.00897824 -3.56211e-18)
(-0.000551174 -0.0617362 0)
(-0.00106168 -0.0496258 1.53825e-18)
(-0.000155768 -0.0792317 -4.12012e-18)
(-0.0368141 0.00164194 0)
(-0.00281125 -0.076716 0)
(-0.000230582 -0.00781055 0)
(0.0136426 -0.191098 -3.04038e-18)
(-0.00699322 0.00316965 1.10756e-18)
(-0.000238021 -0.053217 1.20414e-18)
(0.000580404 -0.021737 -5.06091e-18)
(-0.00658939 -0.0041653 -1.002e-18)
(0.00492133 -0.166017 0)
(-0.000350337 -0.0391126 0)
(0.0212321 -0.162231 1.87996e-18)
(0.000196937 -0.0692579 0)
(-0.00131208 0.0153002 -2.19912e-18)
(0.00658652 -0.0887944 0)
(-0.000162246 -0.0400476 3.06395e-18)
(0.00258896 -0.0446983 2.01639e-18)
(-0.0014892 -0.0722761 -2.21305e-18)
(0.00113666 -0.0318946 0)
(-0.00127548 -0.0574011 0)
(-0.012985 0.0581458 -3.09125e-18)
(-0.00407195 -0.077193 -5.54316e-19)
(0.00873884 -0.181054 -1.81649e-18)
(-0.026318 0.0166675 -1.52898e-18)
(-0.0117565 0.00818302 1.52848e-18)
(0.00117262 -0.0384985 0)
(-0.0343068 -0.00419571 2.86872e-18)
(0.00224111 0.00281555 3.0493e-18)
(-0.00041488 -0.0376678 4.41163e-18)
(-0.000891549 -0.0193749 1.73356e-18)
(-5.1136e-05 -0.0564478 -1.0876e-18)
(-0.0191734 0.0105295 0)
(-0.0115188 -0.0113516 -3.60868e-19)
(-0.0188849 0.0526296 -7.55461e-19)
)
;

boundaryField
{
    back
    {
        type            empty;
    }
    front
    {
        type            empty;
    }
    left
    {
        type            noSlip;
    }
    top
    {
        type            codedFixedValue;
        value           nonuniform List<vector> 8((0 -0.07875 0) (0 -0.06875 0) (0 -0.04875 0) (0 -0.04875 0) (0 -0.01875 0) (0 -0.01875 0) (0 -0.07875 0) (0 -0.06875 0));
        name            ParabolicTimeDependentU_max;
        code            #{
		const vectorField& Cf = patch().Cf();
		vectorField& field = *this;

		const scalar r = 7.75*1e-3;
		const scalar Umax = 0.4;
		const scalar Umin = 0.02;

		scalar 	Uvar = 0.08;
		scalar 	t = this->db().time().value();
		scalar	tau = fmod(t,1);
		
		if (tau > 0 && tau <= 0.35)
		{
			Uvar = 0.08+Umax*(1-(pow(tau-0.175,2)/(0.175*0.175)));
		}
		if (tau > 0.35 && tau <= 0.6)
		{
			Uvar = 0.08+Umin*(-1+(pow(tau-0.475,2)/(0.125*0.125)));
		}
		if (tau > 0.6 && tau <= 1)
		{
			Uvar = 0.08;
		}
		
		forAll(Cf, faceI)
		{
			const scalar x = Cf[faceI][0];
			const scalar y = Cf[faceI][1];
			field[faceI] = vector(0, Uvar*(-1+((x*x)/(r*r))), 0);
		}
	#};
    }
    right_main
    {
        type            noSlip;
    }
    right_branch
    {
        type            zeroGradient;
    }
    bottom
    {
        type            zeroGradient;
    }
}


// ************************************************************************* //
