/*--------------------------------*- C++ -*----------------------------------*\
  =========                 |
  \\      /  F ield         | OpenFOAM: The Open Source CFD Toolbox
   \\    /   O peration     | Website:  https://openfoam.org
    \\  /    A nd           | Version:  9
     \\/     M anipulation  |
\*---------------------------------------------------------------------------*/
FoamFile
{
    format      ascii;
    class       volVectorField;
    location    "1";
    object      U;
}
// * * * * * * * * * * * * * * * * * * * * * * * * * * * * * * * * * * * * * //

dimensions      [0 1 -1 0 0 0 0];

internalField   nonuniform List<vector> 
8357
(
(6.22038e-05 2.43136e-06 -2.42983e-16)
(-5.30279e-06 7.74685e-06 4.61431e-16)
(9.08332e-06 7.37284e-06 5.8224e-17)
(-1.85472e-08 -7.67161e-09 0)
(4.95182e-05 -2.39261e-06 5.2395e-16)
(-8.11525e-06 4.17885e-06 5.20726e-16)
(5.92073e-05 -9.06781e-06 0)
(-4.55491e-06 8.84032e-06 -4.3805e-16)
(0.0461684 0.0023132 0)
(6.04543e-08 -8.05254e-09 2.77262e-16)
(7.39936e-05 -2.80758e-07 -7.26295e-16)
(6.14408e-08 -2.37022e-08 5.52315e-17)
(-9.07268e-07 1.26974e-06 -2.5308e-16)
(-1.05163e-06 1.35053e-06 5.35894e-16)
(-1.20003e-06 7.34275e-06 -4.76476e-16)
(-8.21412e-06 3.59801e-06 1.63422e-16)
(1.09492e-05 8.79677e-06 0)
(-2.90825e-05 -8.47679e-06 -6.53067e-16)
(9.79149e-05 3.41722e-06 -5.73889e-16)
(4.60526e-08 -2.53606e-08 -7.71299e-16)
(3.21261e-08 -1.55563e-08 0)
(5.55274e-05 1.86119e-06 0)
(-7.1033e-06 -7.30403e-07 0)
(-9.98711e-07 -4.04858e-06 0)
(-0.0152107 -0.00279042 0)
(2.68702e-05 2.057e-05 0)
(7.72509e-06 1.54152e-05 2.37141e-16)
(-0.00153395 0.00221453 1.90695e-18)
(-0.0350919 -0.00126186 0)
(1.26681e-05 1.03371e-05 0)
(1.76415e-05 -3.13705e-06 2.84238e-23)
(5.34828e-05 -1.54093e-06 -2.73756e-16)
(5.36691e-06 1.81044e-05 -3.66894e-17)
(-0.00179872 0.00215127 -2.48665e-16)
(3.66624e-08 -1.2161e-08 0)
(-3.76393e-05 2.56783e-08 0)
(0.00918809 -0.00210932 -2.494e-16)
(0.173009 0.0133958 0)
(0.00860262 0.0591771 0)
(7.60406e-06 2.87727e-06 1.25286e-22)
(1.43528e-05 2.46323e-06 -2.61552e-16)
(1.23773e-05 -1.23751e-06 -5.0923e-16)
(6.87032e-06 1.4155e-05 5.32613e-16)
(2.49369e-06 8.03226e-06 -2.67101e-16)
(9.25447e-05 -1.33598e-05 -2.46573e-16)
(1.83069e-06 4.28658e-06 -2.70008e-16)
(3.74472e-06 1.46944e-05 0)
(2.23707e-06 6.78939e-06 0)
(0.0461856 -0.00897505 0)
(-0.0101937 -0.00898963 0)
(-0.00198463 0.000671607 5.77846e-16)
(-0.000797914 0.000352662 -3.03043e-16)
(-0.000114554 8.50895e-05 -2.8307e-16)
(-6.02451e-05 5.12498e-05 2.85679e-16)
(-2.7152e-05 -1.06065e-05 -2.97161e-16)
(2.68041e-06 -1.58713e-05 5.93672e-16)
(2.77908e-05 5.67695e-06 0)
(2.91351e-05 -9.04555e-07 0)
(8.7827e-06 -5.93949e-07 2.7762e-16)
(1.62189e-06 7.63389e-07 -2.80551e-16)
(-2.43594e-06 7.69664e-06 -6.83082e-16)
(6.62864e-06 1.05184e-05 1.84067e-16)
(-4.64972e-08 -5.80104e-08 -3.23756e-16)
(4.0415e-06 1.42854e-05 -9.02315e-16)
(-0.231913 -0.447024 3.05017e-16)
(0.224449 0.0764178 0)
(-0.167975 -0.0905438 -1.97234e-16)
(5.59351e-08 -6.10013e-08 0)
(2.1736e-07 -6.48952e-08 2.67519e-16)
(1.03209e-07 -3.37427e-08 8.60815e-18)
(2.14347e-05 -9.56117e-07 -2.72218e-16)
(7.88699e-08 -6.77975e-08 -2.78081e-16)
(-5.38218e-07 1.71499e-05 -3.2743e-16)
(0.000105263 9.97122e-06 5.56044e-16)
(5.01707e-08 9.12245e-10 0)
(-7.27942e-06 1.01963e-05 2.44679e-16)
(-5.07011e-06 1.53867e-05 -2.30729e-16)
(1.09618e-08 -9.43503e-08 5.26951e-16)
(-2.71872e-06 1.64396e-05 -5.02218e-16)
(-1.1613e-05 7.95536e-06 0)
(6.06887e-08 -3.42448e-09 4.1618e-17)
(-5.9453e-07 2.12051e-06 2.69885e-16)
(5.1692e-06 -1.30273e-06 -1.19216e-16)
(-5.16902e-06 -2.58449e-06 3.59968e-17)
(-0.153225 0.26603 -1.82651e-17)
(-1.59961e-05 -3.31217e-06 -3.66657e-17)
(3.43738e-05 -4.53931e-06 -4.99944e-16)
(1.88165e-06 7.82188e-06 6.04525e-17)
(-2.67256e-06 1.01057e-06 -3.26431e-17)
(-0.246363 -0.0105919 0)
(-0.0637666 -0.0023753 0)
(2.46069e-06 6.22945e-06 -1.47823e-16)
(5.26246e-08 -1.70737e-08 -2.61774e-16)
(-2.81321e-06 8.62223e-07 2.52386e-16)
(-0.0519629 0.00465323 1.41464e-16)
(-6.75986e-08 5.66034e-08 -8.32855e-17)
(3.14015e-08 -4.69065e-08 -4.97821e-16)
(0.0312592 -0.00704622 -2.82034e-16)
(-3.81948e-06 1.61983e-06 -7.74156e-18)
(-1.45416e-07 5.60253e-08 1.62971e-16)
(-5.86276e-08 -1.02789e-07 0)
(-1.61113e-08 -8.73737e-08 -2.77007e-16)
(8.66536e-05 -2.99521e-06 1.41783e-16)
(-2.79492e-06 7.31189e-06 8.43762e-16)
(-9.56331e-06 5.39435e-06 -5.50299e-16)
(5.15017e-05 -8.23578e-06 0)
(3.91889e-05 2.25768e-05 4.95375e-16)
(0.0339261 -0.0257151 -1.46535e-17)
(0.0343537 -0.0023633 0)
(-8.19896e-06 1.0294e-05 4.35325e-16)
(-2.07473e-05 3.84287e-06 0)
(2.22142e-06 7.31714e-06 0)
(-0.0554336 -0.0020366 6.48495e-16)
(-4.38693e-06 7.8664e-06 0)
(0.0145568 -0.0844703 -2.24586e-16)
(-6.94175e-06 9.63012e-06 5.61139e-16)
(0.088587 0.0124276 2.43454e-16)
(1.1805e-07 8.45137e-09 -5.21709e-16)
(1.47229e-05 -2.94281e-06 -5.24167e-16)
(-1.30544e-07 -6.71311e-08 6.24436e-17)
(-1.10452e-05 8.70309e-06 -3.02382e-16)
(0.000104039 -2.54885e-07 0)
(5.27835e-05 7.57214e-07 1.31314e-16)
(7.39618e-05 3.13763e-06 -5.47881e-23)
(-7.64175e-06 1.01976e-05 -2.88079e-16)
(-7.84427e-08 -6.69604e-08 -6.2008e-17)
(-7.61329e-06 1.03112e-05 0)
(-4.86843e-08 -3.9951e-08 2.6632e-16)
(0.0381021 0.000875271 -6.37016e-17)
(1.03771e-05 1.17282e-05 -4.89529e-16)
(0.00514067 -0.000290994 8.40682e-16)
(0.000305138 0.00058504 -5.59813e-16)
(1.78211e-07 3.73412e-08 1.70387e-17)
(4.78514e-05 1.92307e-06 2.64652e-16)
(1.96197e-07 6.64702e-08 5.18743e-16)
(-0.062754 0.00332809 4.56525e-16)
(-9.20672e-08 -3.25192e-08 0)
(1.38558e-07 3.90662e-08 -5.4637e-16)
(-2.70241e-06 7.68462e-06 2.80853e-16)
(0.0414509 0.00338902 0)
(1.95712e-08 -2.09276e-09 0)
(-2.05773e-07 4.98106e-07 0)
(-1.59154e-06 8.50568e-07 0)
(-2.35456e-07 1.37133e-05 -2.76964e-16)
(-2.17401e-06 1.29425e-06 3.92947e-17)
(5.92934e-05 4.67655e-07 6.47491e-17)
(4.93324e-05 4.44529e-06 2.76592e-16)
(3.46725e-05 -5.01278e-06 -6.13488e-16)
(-5.81766e-06 1.46337e-06 0)
(3.58329e-05 -3.04656e-06 0)
(2.82387e-07 4.97926e-08 -2.74396e-16)
(1.40132e-07 -7.90787e-08 -2.6973e-16)
(1.86422e-07 -1.22913e-07 1.69807e-17)
(-1.50478e-06 -1.71281e-06 0)
(-5.41991e-06 8.30363e-06 -2.81128e-16)
(2.24385e-07 2.16501e-08 0)
(1.18954e-07 4.60046e-09 2.9726e-16)
(1.27567e-08 -5.37111e-08 -2.63595e-16)
(-4.22384e-08 -3.7614e-09 0)
(-4.13795e-06 9.90256e-06 2.72497e-16)
(5.89919e-06 9.02687e-06 2.65085e-16)
(0.0189664 -0.0115617 -3.16405e-16)
(1.57895e-05 1.2406e-05 2.8209e-16)
(3.72953e-05 -7.66681e-06 0)
(9.50612e-08 -6.87993e-08 -6.52135e-17)
(2.85007e-08 1.49426e-08 1.69638e-17)
(3.004e-05 -4.48133e-07 -2.2807e-16)
(-2.93817e-08 -1.42709e-08 0)
(-7.72429e-08 -7.04619e-08 5.29493e-16)
(-2.92821e-06 7.50858e-06 0)
(-5.44637e-09 -7.96223e-08 0)
(2.27939e-05 5.02419e-07 0)
(1.57485e-06 -6.70548e-07 0)
(3.95635e-06 -9.33618e-07 -2.7431e-16)
(2.13743e-05 8.84725e-06 1.60712e-17)
(-0.314846 -0.0993703 -2.41103e-19)
(-3.26258e-09 -2.24569e-08 4.86962e-16)
(-4.36055e-08 -1.11895e-08 2.95346e-16)
(-5.46218e-08 -3.20937e-09 2.7146e-16)
(6.79796e-08 4.26629e-08 -5.347e-16)
(6.88369e-06 1.11971e-05 0)
(6.90002e-05 -5.33318e-06 2.6538e-16)
(3.02719e-05 3.52312e-06 2.74927e-16)
(3.32097e-05 3.41921e-06 2.69358e-16)
(0.152187 0.0374503 6.31537e-16)
(3.68453e-05 -1.90665e-06 3.8509e-16)
(1.14025e-05 1.68426e-05 1.71266e-17)
(2.39321e-05 -1.26939e-05 2.97045e-16)
(-4.93659e-08 -2.12916e-08 -1.33094e-16)
(-0.0884229 -0.0136569 -1.17354e-16)
(2.05583e-06 1.71561e-06 -1.4317e-16)
(1.40922e-05 1.84658e-05 -1.70395e-17)
(3.60498e-05 1.26253e-05 2.54871e-16)
(-1.3964e-07 6.66424e-08 0)
(-8.17578e-06 7.17478e-06 5.62875e-16)
(-1.24622e-05 5.98173e-06 -8.38088e-16)
(-0.250156 -0.00578844 -2.0317e-16)
(4.91965e-05 7.93373e-06 2.82033e-16)
(7.23135e-06 -1.78744e-07 0)
(2.71008e-05 1.29482e-06 0)
(-9.4638e-07 1.39882e-06 0)
(3.32652e-05 -1.92602e-05 -4.8557e-16)
(4.38269e-06 1.07916e-05 -5.44328e-16)
(-4.89159e-09 6.77824e-08 8.36404e-16)
(5.11771e-05 3.85107e-06 -7.80383e-16)
(2.06083e-05 6.49692e-07 0)
(-5.20646e-06 -5.64778e-06 0)
(8.37296e-05 -1.58066e-05 -2.90402e-16)
(-1.90741e-06 -3.25742e-06 8.67864e-18)
(-4.79768e-06 1.17338e-05 0)
(-4.62167e-08 -9.404e-09 -1.64961e-17)
(-6.19835e-06 1.09154e-05 0)
(1.35535e-05 4.13213e-07 2.78753e-16)
(1.7082e-06 1.12763e-06 1.79879e-23)
(-9.15843e-06 1.04223e-05 -1.64153e-22)
(-6.11846e-06 1.09303e-05 2.83242e-16)
(-8.13848e-08 1.50185e-07 0)
(5.39359e-06 1.07119e-05 0)
(-6.93844e-07 -7.02658e-08 0)
(-6.50195e-06 1.65036e-06 2.63425e-16)
(3.4577e-05 3.49844e-06 5.31846e-19)
(2.33108e-06 -4.25302e-06 -2.20751e-16)
(-8.5648e-06 1.1629e-05 5.24872e-16)
(1.75738e-06 1.53776e-05 2.62474e-16)
(4.76489e-05 4.21725e-06 5.55221e-16)
(-7.57442e-06 1.05077e-05 -8.91592e-18)
(-7.3805e-07 -4.70815e-08 2.72975e-16)
(6.42532e-05 -9.35865e-06 0)
(-1.04294e-05 6.56405e-06 -1.74065e-17)
(-5.65651e-06 7.62693e-06 1.72405e-17)
(-5.88567e-06 9.80824e-06 -8.86342e-18)
(-7.7281e-07 -1.04762e-07 0)
(9.17948e-07 1.3265e-05 2.74735e-16)
(4.44415e-05 3.08528e-06 2.68957e-16)
(-6.93291e-06 1.06467e-05 -8.21332e-18)
(4.28532e-05 2.75559e-06 -4.29239e-23)
(-8.86423e-06 9.75754e-06 2.94087e-16)
(3.93532e-06 1.10366e-05 -2.76127e-16)
(3.58882e-05 1.60516e-06 0)
(-4.59978e-06 1.00095e-05 2.83515e-16)
(1.15603e-05 -6.70449e-07 5.47852e-16)
(-5.26345e-06 8.68748e-06 2.85015e-16)
(1.1472e-07 7.29557e-10 -5.37066e-16)
(2.22379e-07 3.26563e-08 2.59206e-16)
(-6.47882e-06 7.7579e-06 -5.75692e-16)
(3.22932e-06 1.24503e-05 8.25965e-18)
(4.34513e-06 1.09341e-05 0)
(2.92553e-05 3.52956e-06 0)
(3.4965e-05 1.42387e-05 -2.53739e-16)
(-7.10355e-06 9.8247e-06 2.84822e-16)
(5.55547e-05 4.06765e-06 2.65301e-16)
(-4.30422e-06 9.59713e-06 -5.57722e-16)
(5.05635e-05 2.55523e-06 -2.68643e-16)
(8.49186e-05 -1.25509e-05 2.90033e-16)
(7.06657e-06 -8.71777e-07 -2.77352e-16)
(6.92119e-06 -1.49778e-06 0)
(-2.9138e-08 1.01329e-05 0)
(-2.1987e-07 -3.16274e-09 0)
(4.76779e-05 8.12628e-06 -1.6754e-17)
(-4.6107e-07 9.50176e-06 -1.66512e-17)
(2.55016e-05 1.72924e-05 2.72218e-16)
(-5.90309e-06 1.17132e-05 5.64875e-16)
(-7.14198e-07 -8.96715e-08 0)
(3.23793e-07 5.74456e-08 8.73978e-25)
(-6.87314e-06 8.73437e-06 6.58307e-16)
(-6.66148e-07 -5.73702e-08 0)
(-1.78581e-06 1.1915e-05 -2.92019e-16)
(9.89637e-06 1.30655e-05 1.71053e-17)
(4.2805e-05 1.08943e-05 -8.50376e-18)
(2.56754e-08 -2.68902e-09 -2.58402e-16)
(-2.18853e-06 1.14615e-05 0)
(1.33912e-05 9.3928e-06 1.20307e-18)
(1.22171e-05 3.10984e-06 0)
(-4.50724e-08 -1.49226e-08 2.8509e-16)
(2.52972e-05 4.98541e-06 0)
(-7.24176e-07 1.16819e-05 0)
(-1.00349e-05 3.01903e-06 0)
(2.53818e-05 1.28654e-06 0)
(1.70499e-08 -6.77836e-09 2.60041e-16)
(8.78995e-06 1.03194e-06 -2.75713e-16)
(1.46209e-07 4.89821e-09 -3.27796e-17)
(-1.78588e-07 1.09521e-05 0)
(-1.02497e-07 1.10516e-05 0)
(1.79929e-05 1.75077e-06 0)
(2.91161e-05 2.50885e-06 8.35361e-18)
(9.292e-06 1.23413e-05 0)
(-1.08784e-06 -9.91032e-08 -2.7599e-16)
(1.90318e-07 5.52373e-08 0)
(2.0945e-07 1.06766e-08 0)
(0.0326693 0.00418334 6.72465e-17)
(-1.17576e-05 5.71045e-06 5.32226e-16)
(1.02777e-07 -2.57212e-09 2.6843e-16)
(6.75233e-07 1.12628e-05 -2.79759e-16)
(3.01308e-07 4.13445e-08 2.80917e-16)
(3.32998e-05 2.32795e-06 4.1981e-18)
(1.24478e-07 1.12093e-05 2.82818e-16)
(9.98792e-06 3.44244e-06 0)
(-3.4543e-06 1.21776e-05 3.8004e-17)
(-1.83041e-06 9.95365e-06 -2.97126e-16)
(-4.19533e-09 -4.87281e-09 8.00636e-26)
(-5.99091e-06 9.82402e-06 2.98812e-16)
(-4.97425e-07 8.88256e-06 0)
(1.51314e-05 -5.35436e-07 7.42351e-16)
(9.53868e-07 1.23908e-05 2.7982e-16)
(-7.75238e-08 -5.42294e-09 0)
(2.00673e-07 4.14071e-08 -6.54569e-17)
(3.85994e-07 1.2304e-05 -2.81234e-16)
(1.80625e-06 9.12395e-06 -1.38361e-22)
(3.30809e-06 1.35731e-05 -2.56736e-16)
(3.11815e-06 9.67958e-06 2.72879e-16)
(-1.07257e-05 9.68416e-06 0)
(-5.71112e-06 6.0084e-06 0)
(-1.36276e-05 6.91212e-06 -1.69993e-17)
(-7.03667e-07 -1.25528e-08 5.32148e-16)
(-0.0130851 0.00153145 7.13541e-17)
(7.45516e-06 1.06371e-05 8.37519e-18)
(-2.40093e-05 1.60713e-05 -3.07623e-16)
(-7.32515e-07 -2.82363e-08 0)
(9.75805e-08 -1.05485e-09 -2.66457e-16)
(0.0173833 -0.00192445 2.86997e-16)
(-1.04404e-07 -1.30622e-08 0)
(-4.28083e-06 5.36284e-06 2.65524e-16)
(1.10292e-05 9.73634e-06 0)
(-7.97324e-06 4.57992e-06 -3.92304e-16)
(-4.18584e-06 8.22533e-06 0)
(-5.88408e-08 -1.5374e-08 0)
(-4.13178e-06 6.79289e-06 1.27716e-16)
(6.96558e-07 1.41789e-05 -6.71139e-17)
(2.80128e-05 2.40821e-06 -8.29502e-18)
(6.12825e-08 -5.13084e-08 -5.42435e-16)
(6.06579e-05 8.28562e-07 2.74531e-16)
(5.98589e-06 -1.53688e-06 6.08955e-16)
(2.21279e-05 -1.10852e-05 -7.47813e-17)
(1.75223e-05 -8.94304e-06 0)
(-4.41465e-06 7.45177e-06 5.40017e-16)
(-1.20741e-08 -7.05067e-08 6.89354e-17)
(1.41672e-05 8.98073e-06 0)
(-3.06619e-07 -1.71373e-08 1.10359e-18)
(-7.96758e-07 -5.67282e-08 -2.64425e-16)
(-0.0385563 -0.000713989 0)
(-1.25356e-05 7.15175e-06 -2.68256e-16)
(3.78668e-05 1.99505e-06 -5.23606e-16)
(-8.53396e-07 -2.04916e-08 8.57145e-18)
(1.78104e-05 1.11013e-06 2.78334e-16)
(-2.52495e-07 -1.41971e-08 -2.78314e-16)
(-2.7632e-06 1.01269e-05 0)
(0.058181 0.0139781 -6.15864e-16)
(7.90712e-05 2.91422e-06 -2.59118e-16)
(9.82927e-06 1.40186e-05 -3.21737e-16)
(-7.69844e-06 9.808e-06 2.66605e-16)
(2.52256e-05 1.51339e-05 2.71761e-16)
(5.33573e-05 -3.12401e-07 0)
(3.07949e-05 1.49646e-05 0)
(3.28939e-05 5.02959e-06 0)
(1.15814e-05 2.01619e-05 -4.53769e-18)
(5.09532e-05 3.18293e-06 5.41505e-16)
(-2.38664e-07 3.51422e-09 -2.75407e-16)
(4.2272e-05 4.09863e-06 -2.37016e-16)
(4.433e-05 1.01065e-05 8.49178e-18)
(6.05662e-05 2.75175e-06 0)
(2.64456e-05 4.96776e-06 0)
(-1.49731e-05 -2.72561e-06 0)
(-3.0048e-07 1.79627e-08 -2.74655e-16)
(3.26244e-05 4.12319e-06 0)
(2.1997e-05 1.55377e-07 0)
(-1.27744e-06 -4.56191e-06 3.44196e-17)
(-7.37901e-06 1.03242e-05 0)
(3.79138e-05 3.28706e-06 -3.05464e-16)
(1.36838e-05 -8.65745e-06 -5.86179e-16)
(7.05096e-05 2.91611e-06 0)
(-5.80843e-06 8.54389e-06 0)
(7.76987e-05 3.4564e-06 -2.74233e-16)
(-1.96502e-05 3.65014e-06 2.83889e-16)
(-2.03429e-06 -1.86395e-06 -3.14842e-16)
(4.97127e-05 2.50522e-06 0)
(3.23362e-06 8.64806e-06 2.708e-16)
(-3.14098e-06 -5.90631e-06 2.31084e-16)
(2.3006e-05 3.83782e-06 2.81086e-16)
(6.11971e-05 2.48165e-06 0)
(5.45192e-06 8.77036e-06 -5.46371e-16)
(-8.24424e-06 9.61272e-06 2.8141e-16)
(-1.42542e-06 -5.8665e-07 0)
(8.2778e-07 8.9818e-06 2.74815e-16)
(1.61507e-07 5.13181e-09 2.81158e-16)
(-6.10772e-06 1.0013e-05 -5.69703e-16)
(7.01454e-05 2.93197e-06 5.49868e-16)
(-9.74331e-07 -2.7233e-07 4.25602e-18)
(5.25562e-05 1.23947e-05 -2.71181e-16)
(-7.91836e-07 8.18741e-06 5.50982e-16)
(0.00052 0.00044349 -2.93427e-16)
(3.91951e-05 3.34465e-06 -2.68097e-16)
(-0.00255357 0.000996614 2.84928e-16)
(-1.01004e-05 2.0056e-06 -1.77041e-17)
(5.70534e-05 5.34473e-06 8.25546e-23)
(0.157579 -0.00430695 0)
(-8.45988e-06 9.17878e-06 0)
(2.86164e-05 4.54139e-06 -5.52199e-16)
(-8.51899e-06 9.04196e-06 8.76233e-18)
(-7.83048e-07 2.79901e-07 -3.88558e-17)
(0.0644939 -0.00975127 0)
(1.36033e-05 2.2666e-06 -5.3364e-16)
(1.0308e-05 -4.13623e-07 0)
(0.0025079 -0.00104168 2.83855e-16)
(6.11483e-07 1.02967e-05 0)
(8.59152e-05 1.72566e-06 2.7354e-16)
(0.00240417 -0.00163658 -5.67416e-16)
(-8.28047e-07 -7.81802e-08 -4.19863e-18)
(-6.97421e-08 -7.22139e-07 -2.85449e-16)
(5.65859e-06 -1.14925e-06 -2.87185e-16)
(-6.41357e-06 8.5041e-06 0)
(-1.85951e-07 -6.96073e-07 -2.24802e-18)
(-1.56497e-07 8.56331e-08 2.47525e-16)
(-4.97012e-06 8.90285e-06 -2.80384e-16)
(3.43225e-06 1.06197e-05 5.44141e-16)
(-4.72448e-08 -3.15135e-08 -2.71211e-16)
(3.98303e-06 1.06815e-05 -5.45082e-16)
(2.6027e-05 -1.28258e-06 4.1343e-16)
(8.03878e-05 0.000148887 2.3975e-16)
(-0.000332896 0.000226453 -2.72772e-16)
(-3.5384e-07 3.69351e-07 -2.80105e-16)
(-7.86208e-07 2.4573e-08 0)
(8.20031e-05 2.53109e-06 8.5753e-18)
(7.00348e-06 1.40212e-05 -2.79174e-16)
(-6.24913e-06 7.57061e-06 0)
(7.89448e-05 2.82617e-06 0)
(-5.07422e-08 -3.01265e-08 2.72673e-16)
(1.53218e-06 1.04161e-05 8.46008e-18)
(4.01676e-05 -1.87532e-05 0)
(2.87331e-06 9.06251e-06 0)
(-9.33378e-06 7.29994e-06 0)
(4.25922e-06 1.09006e-05 2.70937e-16)
(-1.786e-05 2.35212e-06 -2.76068e-16)
(-0.000118228 2.84997e-05 -2.72404e-16)
(2.02493e-06 1.05119e-05 0)
(3.37915e-06 1.07394e-05 0)
(2.88803e-05 7.34466e-07 5.45074e-16)
(2.93152e-05 3.39851e-06 0)
(3.06994e-06 1.04173e-05 0)
(4.72929e-05 3.52356e-06 0)
(-1.42009e-06 -5.75907e-07 5.40094e-16)
(5.47378e-06 1.04862e-05 0)
(-0.00197855 0.00201496 5.09887e-16)
(7.56462e-05 3.60549e-06 2.7772e-16)
(-4.76344e-07 -1.54529e-08 2.67229e-19)
(3.42501e-06 1.03307e-05 0)
(-6.15357e-06 9.82635e-06 0)
(-4.03049e-06 9.73468e-06 0)
(-9.10212e-07 -2.346e-08 -8.40921e-18)
(-4.38445e-07 -1.29714e-08 2.79888e-16)
(6.58173e-07 1.02365e-05 8.46715e-18)
(6.18543e-05 -1.11617e-06 5.05848e-16)
(1.55188e-06 1.02949e-05 0)
(5.70219e-07 -4.25102e-07 -5.42083e-16)
(8.92404e-05 -4.81112e-06 -3.11724e-16)
(3.03983e-05 1.14904e-06 0)
(8.74249e-07 -5.2472e-07 2.83585e-16)
(-3.73069e-06 1.16738e-05 4.39337e-18)
(1.32695e-05 2.88639e-06 2.7298e-16)
(3.16833e-05 2.98057e-06 0)
(-1.0542e-06 -7.05674e-08 2.75757e-16)
(-2.7868e-06 7.38445e-07 -9.10456e-18)
(7.26577e-06 -2.55009e-06 -2.9109e-16)
(5.68831e-06 1.0869e-05 0)
(-7.25065e-08 1.16822e-05 -2.80322e-16)
(1.98216e-05 -5.66286e-06 0)
(-1.73e-08 1.46309e-08 0)
(4.25044e-07 1.0016e-05 8.4751e-18)
(-1.44679e-06 1.1286e-05 0)
(4.36306e-06 9.85189e-06 -1.33318e-19)
(2.38639e-07 1.1294e-05 0)
(-7.7996e-06 -1.29458e-06 -2.72041e-16)
(-1.39884e-05 8.39503e-06 -5.71245e-16)
(4.56022e-07 1.2496e-06 2.69135e-16)
(2.81987e-05 2.20749e-05 3.43447e-22)
(-4.41233e-07 1.13997e-06 -5.55878e-16)
(-7.49575e-07 -1.31347e-07 -2.76655e-16)
(2.31156e-05 1.85825e-05 -2.76096e-16)
(-2.57748e-07 1.09958e-05 2.76641e-16)
(1.32419e-06 1.03779e-05 0)
(-9.26703e-07 -5.69635e-08 2.68847e-16)
(-3.18703e-08 -1.76048e-08 1.68563e-17)
(1.09464e-06 9.9307e-06 2.70937e-16)
(1.49902e-07 1.0893e-05 -8.75815e-18)
(1.86216e-05 2.73475e-06 -2.72869e-16)
(3.41355e-06 1.95577e-06 0)
(6.53406e-06 9.53257e-06 0)
(1.2739e-06 1.03626e-05 0)
(-1.39581e-06 5.13674e-07 2.79582e-16)
(3.00771e-07 1.16248e-05 0)
(3.57364e-07 2.41547e-07 2.8434e-16)
(-9.1763e-06 8.32196e-06 2.76258e-16)
(7.69975e-07 1.90923e-07 -2.97421e-24)
(2.2742e-07 1.13747e-05 0)
(5.77147e-07 1.01231e-05 0)
(8.64587e-07 1.03634e-05 -1.07247e-18)
(4.27953e-06 1.08716e-05 2.76406e-16)
(5.28992e-06 8.58569e-06 1.316e-22)
(-9.71621e-07 9.53849e-06 -2.74091e-16)
(5.96069e-06 8.90168e-06 0)
(4.85122e-05 5.94018e-06 -2.55104e-16)
(1.58568e-06 1.0038e-05 -4.22629e-18)
(1.45897e-07 1.08995e-05 2.71262e-16)
(3.25362e-05 4.62188e-06 0)
(-6.88263e-07 9.58395e-06 -5.54845e-16)
(3.98426e-05 -3.05035e-06 5.46649e-16)
(6.52949e-08 -1.15561e-07 0)
(-5.99836e-07 -3.48117e-08 0)
(-1.20766e-06 1.07979e-05 0)
(2.22482e-06 1.43723e-05 2.82701e-16)
(-1.38669e-06 -4.43708e-07 4.34435e-18)
(4.18208e-05 -2.86864e-06 0)
(2.1965e-06 1.10198e-06 0)
(5.29645e-07 9.70619e-06 -5.42513e-16)
(-6.16857e-07 -4.60921e-08 0)
(4.97271e-06 1.07115e-05 0)
(8.47481e-08 1.47425e-08 -3.02078e-16)
(3.22177e-05 2.10722e-06 2.73099e-16)
(-2.77361e-06 6.90213e-07 2.17319e-18)
(-1.30367e-06 9.56497e-06 2.72839e-16)
(1.01004e-05 -2.99744e-06 -2.90838e-16)
(2.37102e-05 7.53115e-06 0)
(-1.86571e-07 -1.02078e-08 2.75205e-16)
(-5.32173e-07 1.45028e-08 -2.79585e-16)
(5.42847e-06 9.43256e-06 5.41435e-16)
(5.76214e-06 -2.86633e-06 2.77487e-16)
(2.76381e-06 1.04934e-05 5.41338e-16)
(7.86951e-07 1.03189e-05 0)
(4.93253e-06 1.09262e-05 0)
(2.59969e-05 2.96613e-06 -2.67732e-16)
(6.12993e-05 2.63602e-06 0)
(5.26548e-06 1.06949e-05 0)
(2.25767e-05 -3.1521e-06 2.73498e-16)
(5.89989e-05 -1.72824e-06 0)
(1.11467e-06 1.04748e-05 5.3829e-16)
(2.31157e-05 -3.56794e-06 -5.64504e-23)
(2.20722e-06 9.89462e-06 0)
(6.1707e-05 8.22733e-07 -2.7278e-16)
(-4.22588e-07 2.12096e-09 2.80467e-16)
(-6.12332e-08 -1.82574e-08 0)
(1.19964e-06 1.0311e-05 -5.41639e-16)
(1.28949e-06 1.06271e-05 -2.72143e-16)
(2.88692e-06 1.04867e-05 -5.37777e-16)
(-2.43917e-06 2.13064e-06 -4.32721e-18)
(4.75114e-06 2.36112e-06 0)
(3.02393e-05 6.59701e-06 -4.38629e-18)
(4.91946e-05 -2.71326e-06 -2.38992e-16)
(4.16074e-07 1.03445e-05 -1.07627e-18)
(1.36152e-06 1.02972e-05 0)
(5.23285e-06 1.00006e-05 -2.71387e-16)
(1.74371e-07 3.81984e-07 4.24804e-18)
(-1.24952e-07 -1.26573e-08 -2.69746e-16)
(1.87242e-07 1.01368e-05 4.23342e-18)
(5.1854e-05 -1.50212e-06 -3.41698e-17)
(-2.42986e-08 3.63914e-07 0)
(1.0302e-05 -3.43724e-06 5.70316e-16)
(1.27142e-06 1.02601e-05 5.40651e-16)
(3.09776e-05 -3.17952e-06 -5.009e-23)
(-1.28645e-06 1.09848e-05 -2.71637e-16)
(4.67506e-05 3.14898e-06 0)
(8.77253e-06 2.15288e-06 -2.76651e-16)
(-4.33792e-08 -2.62705e-08 2.77258e-16)
(-7.14945e-06 3.0753e-06 -2.7601e-16)
(2.5603e-06 1.04306e-05 1.67213e-20)
(5.4313e-07 1.0303e-05 2.71077e-16)
(-2.174e-06 -1.48379e-08 0)
(-6.78399e-07 9.9673e-06 0)
(-8.91264e-07 -1.93434e-07 5.40342e-16)
(6.96767e-05 3.75177e-06 1.71859e-17)
(-3.10721e-06 1.13485e-05 -2.71621e-16)
(-1.34668e-07 -1.78363e-08 0)
(-6.34364e-07 -1.59621e-08 -5.46213e-16)
(2.30812e-06 9.82164e-06 0)
(-7.93909e-08 7.02616e-08 -2.49271e-16)
(3.16911e-05 -3.37504e-06 5.26617e-23)
(-6.34291e-07 -1.40471e-06 -2.79401e-16)
(6.33502e-07 1.03229e-05 0)
(2.50566e-06 1.03549e-05 0)
(-5.83613e-06 4.21818e-06 -3.42565e-16)
(-6.39332e-06 2.70961e-06 -2.7244e-16)
(-1.35136e-06 9.20334e-06 -2.82745e-16)
(1.01697e-07 -1.82859e-08 5.49021e-16)
(1.79103e-06 1.04772e-05 0)
(-6.83699e-07 4.56225e-08 2.93977e-16)
(3.05621e-06 9.312e-06 -2.71426e-16)
(2.97086e-06 9.64938e-06 0)
(-1.28679e-05 8.27217e-06 -2.7508e-16)
(1.45038e-05 -5.32506e-07 -5.36483e-18)
(-2.46504e-06 9.42869e-06 0)
(4.72958e-05 -9.05822e-06 -2.88653e-16)
(6.02907e-06 9.47154e-06 -2.11475e-18)
(6.50912e-05 5.53567e-07 2.60993e-16)
(-5.63303e-08 3.62492e-09 2.80076e-16)
(6.57648e-05 2.01939e-06 -4.28503e-18)
(-7.93211e-06 -2.33915e-06 1.76735e-17)
(-1.59254e-06 5.37414e-08 -2.75307e-16)
(-2.03691e-06 3.24846e-07 2.77402e-16)
(3.41998e-06 1.01104e-05 -2.72116e-16)
(-9.38696e-07 -1.65088e-07 2.50099e-24)
(-8.45638e-06 9.75824e-06 -8.82625e-18)
(-9.46288e-07 1.10665e-05 -5.385e-16)
(-2.24513e-06 9.90537e-06 -2.71862e-16)
(-1.83229e-07 4.33701e-09 -2.78995e-16)
(-1.49484e-06 9.79807e-06 0)
(2.37594e-06 1.03688e-05 0)
(-9.45266e-06 3.17404e-06 0)
(8.5418e-05 4.12936e-06 -2.90553e-16)
(7.9731e-06 1.17183e-06 2.76024e-16)
(-2.74564e-07 1.02923e-08 2.75155e-16)
(-5.66292e-08 -2.31755e-08 -2.80569e-16)
(1.58534e-05 -3.51019e-06 -2.39117e-16)
(-1.92608e-06 3.98351e-07 5.56263e-16)
(7.72518e-07 9.36236e-06 2.72127e-16)
(-8.5081e-06 7.82144e-06 0)
(-1.98258e-06 1.09949e-05 8.12078e-16)
(-1.70941e-06 9.91896e-06 1.07868e-18)
(-5.61288e-08 -1.08024e-07 0)
(6.1986e-08 -2.36137e-08 3.05251e-16)
(-1.4724e-06 -3.8877e-07 0)
(-8.65692e-08 -2.12898e-08 0)
(1.58502e-05 -3.07271e-06 -3.0744e-16)
(-2.35036e-08 9.21906e-06 0)
(4.28582e-05 1.5113e-05 2.74006e-16)
(2.7123e-06 9.54467e-06 -2.12769e-18)
(-5.8664e-07 9.48723e-06 2.71113e-16)
(1.64643e-06 9.37825e-06 2.72589e-16)
(5.32539e-05 1.13452e-05 2.70252e-16)
(2.58781e-06 4.35718e-06 4.25113e-18)
(-6.8687e-07 -2.61071e-08 2.67096e-16)
(5.86898e-05 8.18109e-06 -2.70694e-16)
(-1.03476e-06 9.46504e-06 -5.42817e-16)
(5.92626e-05 5.82024e-06 0)
(2.45944e-06 -8.38825e-07 -5.50628e-16)
(1.40495e-06 -3.67696e-06 5.56273e-16)
(1.58377e-07 2.72165e-08 6.83997e-17)
(4.85911e-06 3.51265e-06 1.73286e-17)
(6.29548e-06 -5.22518e-06 3.1625e-16)
(-0.00375155 -0.000140987 2.90682e-16)
(6.65757e-05 4.635e-06 0)
(-3.03139e-06 9.52799e-06 -2.76261e-16)
(-2.18236e-06 9.89854e-06 2.79793e-16)
(7.76932e-06 9.46181e-06 -1.67535e-17)
(-5.20318e-06 1.04212e-05 2.7536e-16)
(7.12109e-07 1.03114e-05 0)
(2.83849e-08 -5.77241e-08 0)
(-3.51065e-06 2.03941e-07 0)
(-1.37148e-06 9.93775e-06 2.77051e-16)
(2.34352e-06 4.78564e-06 -6.29115e-16)
(-9.90636e-06 1.25506e-05 4.78491e-16)
(-1.03952e-06 7.75593e-06 -5.52524e-16)
(-4.06584e-07 8.7387e-06 2.77603e-16)
(-1.68344e-07 -8.82173e-08 2.3243e-16)
(-2.77666e-06 9.37453e-07 8.87753e-18)
(-5.46176e-07 -2.64979e-06 5.4823e-19)
(-3.64819e-06 8.87949e-06 -2.72345e-16)
(7.35798e-08 8.98303e-08 -2.76529e-16)
(-3.899e-06 9.63947e-06 -2.79334e-16)
(3.99789e-07 1.71595e-08 -2.73782e-16)
(-3.90348e-06 1.03096e-05 -2.79531e-16)
(7.29212e-06 7.18458e-07 2.76378e-16)
(1.75562e-07 -9.02531e-07 -2.74093e-16)
(-5.25027e-06 9.90659e-06 0)
(-4.17659e-07 -8.59617e-07 -1.30136e-23)
(-2.17659e-06 7.62198e-07 2.94636e-16)
(-3.31107e-08 -1.08718e-07 2.74899e-16)
(1.92761e-07 2.17725e-09 2.78078e-16)
(-1.78155e-06 -3.91994e-06 -2.79049e-16)
(8.80579e-07 1.0333e-05 1.07194e-18)
(4.7464e-07 1.02204e-05 5.50942e-16)
(-8.44445e-06 1.38481e-06 -1.7792e-17)
(5.56072e-08 -4.52782e-08 2.77161e-16)
(-3.65837e-08 1.00887e-05 0)
(-1.6469e-07 -6.31261e-07 -2.90066e-16)
(-1.74325e-06 9.09917e-06 -2.78497e-16)
(5.06766e-07 9.31531e-06 2.86856e-16)
(-6.40164e-06 7.7486e-06 0)
(-1.74645e-06 9.18438e-07 3.26408e-17)
(-7.23152e-08 -4.01893e-08 0)
(-1.00051e-08 4.04082e-08 2.73956e-16)
(-3.00448e-08 -3.94172e-08 2.69454e-16)
(-1.51284e-05 7.41357e-06 -2.99647e-16)
(8.7115e-07 2.726e-06 2.63449e-16)
(7.24222e-07 1.92673e-06 -2.88506e-16)
(4.66496e-07 2.75958e-08 2.73972e-16)
(-4.40454e-06 9.80712e-06 2.80462e-16)
(1.23961e-06 1.02796e-05 -2.73974e-16)
(7.34397e-05 2.42288e-06 0)
(1.90763e-05 2.59398e-06 0)
(-1.23911e-06 1.02569e-05 7.35008e-16)
(-1.06534e-05 6.29366e-06 2.85529e-16)
(-7.78816e-06 7.88545e-06 -2.89353e-16)
(-6.68877e-06 4.04314e-06 5.88894e-16)
(-3.25699e-07 5.02663e-09 -2.77975e-16)
(4.24042e-05 -9.34509e-08 2.74473e-16)
(-2.89815e-06 3.79396e-07 1.09648e-18)
(-1.86512e-05 5.95048e-06 0)
(-1.17063e-06 -6.65498e-07 2.7782e-16)
(-4.43405e-07 1.02359e-05 2.79836e-16)
(-2.82692e-05 7.41615e-06 6.56514e-16)
(-1.46938e-05 5.04448e-06 -1.40207e-16)
(-4.71616e-06 5.40368e-06 -7.23325e-17)
(-1.03535e-05 3.06855e-06 2.8784e-16)
(2.30174e-05 -1.24906e-05 3.08721e-16)
(3.09475e-05 -1.19244e-05 3.00556e-16)
(7.60365e-06 -1.12936e-05 2.59524e-16)
(8.79288e-06 -1.29925e-05 4.73889e-16)
(4.99667e-06 3.14398e-06 2.93673e-16)
(-2.87169e-06 5.5058e-07 2.78252e-16)
(8.54546e-07 1.0417e-05 -5.44515e-19)
(-1.27348e-06 6.0053e-07 0)
(-5.3434e-07 -3.21921e-08 -2.7528e-16)
(-3.99544e-06 9.71565e-06 2.767e-16)
(-9.16118e-09 1.16124e-07 -2.75859e-16)
(-2.38062e-06 4.76851e-07 -2.77752e-16)
(2.77897e-05 9.1858e-07 -2.83391e-16)
(-2.29217e-06 6.6585e-06 2.68434e-16)
(-1.62696e-06 9.1683e-06 2.77902e-16)
(-5.19922e-07 -4.30524e-08 -2.74404e-16)
(-1.86389e-06 5.99737e-07 2.81278e-16)
(3.08043e-06 1.03112e-05 -2.75199e-16)
(6.66508e-06 1.02894e-05 -4.3603e-18)
(-2.31084e-06 5.802e-07 -2.76799e-16)
(1.98885e-06 1.04176e-05 0)
(-4.57375e-06 8.59242e-06 -2.77883e-16)
(2.11323e-07 8.53543e-06 -2.74324e-16)
(4.48031e-05 3.47499e-06 2.77574e-16)
(-6.82006e-06 -6.32668e-07 -2.78765e-16)
(5.93726e-07 9.52468e-06 -2.71563e-16)
(3.02361e-05 3.68989e-06 -8.63481e-18)
(-6.87742e-08 -4.94913e-07 0)
(4.29242e-07 8.78585e-06 0)
(-1.23826e-06 1.02685e-05 -2.78019e-16)
(7.57682e-05 2.86479e-06 -2.97674e-16)
(5.24055e-07 1.13719e-10 -2.74392e-16)
(7.1784e-05 5.37597e-06 -2.47308e-16)
(1.95095e-05 -3.39036e-07 -5.5027e-16)
(-2.40038e-06 6.22736e-07 -2.90228e-16)
(2.38789e-05 5.40008e-06 -2.76928e-16)
(-3.91601e-06 1.05052e-05 2.15725e-18)
(-2.24158e-06 2.09701e-06 2.81352e-16)
(1.48798e-06 9.08268e-06 -2.7675e-16)
(1.79142e-06 -4.64182e-07 0)
(1.98371e-06 -4.05438e-07 -5.49028e-16)
(5.54471e-07 7.62355e-06 2.75453e-19)
(-9.33961e-08 9.12051e-06 -1.39909e-22)
(-7.80487e-07 -7.9564e-07 2.69165e-16)
(-2.15576e-06 -6.24662e-07 0)
(3.40254e-06 9.51008e-06 -2.82941e-16)
(8.36465e-07 8.08944e-06 -1.77738e-17)
(-2.32733e-06 7.6373e-06 -2.84429e-16)
(-8.66079e-08 -1.85427e-08 0)
(-1.14404e-06 5.51175e-08 -4.4166e-18)
(-6.57206e-09 -1.45822e-09 5.54412e-16)
(8.13085e-05 5.25707e-06 0)
(9.58649e-08 5.44712e-09 -2.70139e-16)
(4.90777e-07 9.38875e-06 2.73567e-16)
(5.26513e-08 -8.4718e-09 -2.73532e-16)
(-1.94909e-06 4.70498e-07 7.35032e-24)
(-3.35249e-08 -1.30693e-08 -5.63807e-16)
(1.00052e-05 3.33092e-07 0)
(-1.08933e-06 8.89545e-06 2.70581e-19)
(6.41812e-06 2.95093e-06 -2.63251e-16)
(-6.5327e-06 -3.29423e-07 -2.7638e-16)
(-4.80983e-05 1.60505e-05 0)
(4.09143e-08 -4.43439e-08 0)
(-6.50528e-07 8.0011e-06 0)
(-1.05199e-06 -2.39475e-07 -2.74732e-16)
(1.15776e-06 -6.83591e-07 -2.71902e-16)
(-3.20854e-06 3.57438e-07 2.80887e-16)
(3.13765e-07 2.36267e-08 0)
(-4.7788e-06 8.78906e-06 0)
(4.20933e-05 1.85902e-06 -2.78912e-16)
(3.79827e-05 3.23914e-06 2.6646e-16)
(1.98488e-05 3.44062e-07 0)
(2.28707e-06 9.18279e-06 0)
(-6.79729e-07 8.88284e-06 0)
(-7.98201e-06 9.81032e-06 0)
(1.40585e-06 -9.25519e-07 2.7376e-16)
(-7.65129e-08 -2.01045e-08 -2.8337e-16)
(-0.422384 0.0375599 8.55474e-17)
(3.20585e-07 1.02457e-08 0)
(-1.21387e-06 -7.33011e-07 -2.70853e-16)
(-4.99975e-06 1.01793e-05 0)
(-1.09029e-09 -1.96193e-08 0)
(-7.36199e-07 -6.22157e-07 -2.74371e-16)
(1.91682e-07 7.00326e-09 0)
(-5.69782e-06 1.04224e-05 4.68173e-16)
(-2.33719e-06 4.26637e-07 -2.79713e-16)
(7.58191e-05 3.03296e-06 5.51238e-16)
(-3.34621e-06 2.52735e-07 0)
(-1.31689e-06 -1.39502e-08 -2.14684e-18)
(-3.43212e-06 9.51938e-06 5.52315e-16)
(-3.97183e-06 1.01635e-05 0)
(-1.27617e-06 6.53559e-08 0)
(4.44309e-07 9.99455e-06 4.2721e-18)
(3.01743e-07 9.543e-09 0)
(-1.23695e-06 9.02621e-06 1.38427e-22)
(1.76482e-05 1.70765e-06 2.79017e-16)
(1.15988e-06 -5.83724e-07 0)
(1.4997e-05 2.04357e-06 -2.75131e-16)
(-3.48766e-06 1.76523e-06 2.43958e-23)
(8.75683e-07 1.02035e-05 2.75886e-16)
(6.41418e-05 3.34215e-06 2.77694e-16)
(-9.89656e-06 2.9716e-06 2.77385e-16)
(-1.22613e-05 9.90371e-06 -1.73398e-17)
(5.68164e-05 3.38817e-06 1.74397e-17)
(-3.53792e-06 5.76044e-07 2.73947e-16)
(8.50535e-07 -9.19069e-07 -2.75521e-16)
(4.97828e-07 2.81816e-08 5.50349e-16)
(-1.73568e-05 -5.80102e-06 -2.87249e-16)
(-5.9628e-06 1.07133e-05 0)
(3.11066e-06 -7.90693e-07 -2.73688e-16)
(-7.49208e-07 -5.255e-07 2.75684e-16)
(7.42805e-07 9.96593e-06 2.77853e-16)
(8.08342e-07 1.03396e-05 5.49391e-16)
(3.36196e-07 9.71929e-06 -1.48581e-22)
(-5.06614e-06 -1.7071e-07 5.6443e-16)
(1.03815e-06 1.02058e-05 5.55139e-16)
(-7.11583e-06 9.53281e-06 -2.8034e-16)