/*--------------------------------*- C++ -*----------------------------------*\
  =========                 |
  \\      /  F ield         | OpenFOAM: The Open Source CFD Toolbox
   \\    /   O peration     | Website:  https://openfoam.org
    \\  /    A nd           | Version:  9
     \\/     M anipulation  |
\*---------------------------------------------------------------------------*/
FoamFile
{
    format      ascii;
    class       volScalarField;
    location    "1.53";
    object      p;
}
// * * * * * * * * * * * * * * * * * * * * * * * * * * * * * * * * * * * * * //

dimensions      [0 2 -2 0 0 0 0];

internalField   nonuniform List<scalar> 
942
(
12.9896
12.983
12.9711
12.9913
12.9709
12.981
12.9901
12.9802
12.9923
12.9923
12.9836
12.9792
12.9914
12.9834
12.9796
12.9826
12.9798
12.9901
12.9794
12.9834
12.9795
12.9785
12.9822
12.9733
12.9835
12.9742
12.9781
12.9833
12.975
12.9883
12.9754
12.9778
12.9745
12.9763
12.9803
12.9652
12.9576
12.9896
12.9588
12.9734
12.9764
12.9705
12.9726
12.9906
12.9892
12.9779
12.9779
12.9754
12.9751
12.9834
12.98
12.985
12.9671
12.9721
12.9921
12.973
12.9805
12.992
12.9808
12.9765
12.9882
12.9793
12.9765
12.9873
12.9893
12.9818
12.9792
12.9771
12.9719
12.9904
12.9835
12.9917
12.9824
12.9894
12.972
12.9832
12.9837
12.9801
12.9754
12.9822
12.9836
12.9744
12.9833
12.9821
12.9813
12.9744
12.9764
12.9803
12.9831
12.9831
12.973
12.9819
12.9919
12.9745
12.9702
12.9829
12.9685
12.9806
12.9838
12.9889
12.9907
12.9919
12.9784
12.9903
12.9712
12.9874
12.9792
12.977
12.9765
12.9773
12.9692
12.9728
12.977
12.992
12.9834
12.9816
12.9774
12.9911
12.9885
12.9773
12.9879
12.9661
12.9713
12.9825
12.9823
12.975
12.9816
12.9737
12.975
12.9637
12.9781
12.9779
12.977
12.9744
12.975
12.977
12.9674
12.9761
12.9708
12.9733
12.9742
12.9763
12.9775
12.975
12.9805
12.9741
12.9906
12.9916
12.9611
12.9752
12.9795
12.9767
12.9816
12.9868
12.981
12.9621
12.9818
12.9922
12.977
12.9831
12.9814
12.9649
12.991
12.9789
12.9765
12.9832
12.9907
12.9892
12.9782
12.9782
12.9765
12.9751
12.968
12.9872
12.973
12.9906
12.9828
12.9909
12.9744
12.9896
12.9875
12.9757
12.9589
12.9902
12.9898
12.9748
12.9792
12.9728
12.9746
12.9882
12.9779
12.9871
12.9855
12.9757
12.9737
12.9915
12.9752
12.9877
12.9766
12.9702
12.989
12.9915
12.9746
12.9789
12.9784
12.9756
12.9678
12.9737
12.9718
12.9727
12.9747
12.9914
12.9918
12.9785
12.9751
12.9897
12.9735
12.9806
12.9761
12.9761
12.9863
12.9908
12.9842
12.9909
12.9915
12.9781
12.9786
12.9783
12.9883
12.9765
12.975
12.9749
12.9803
12.9907
12.989
12.9917
12.9806
12.9833
12.9759
12.9768
12.9767
12.9889
12.9764
12.9905
12.99
12.9756
12.968
12.9912
12.974
12.976
12.9779
12.9765
12.9789
12.9754
12.9886
12.9914
12.9816
12.983
12.9798
12.9904
12.9862
12.981
12.9796
12.9861
12.9675
12.992
12.9897
12.9784
12.9757
12.9651
12.9592
12.975
12.9773
12.9775
12.9752
12.9815
12.9736
12.98
12.9772
12.9765
12.9879
12.9637
12.9737
12.9789
12.9799
12.9774
12.9801
12.9753
12.9856
12.9826
12.98
12.9768
12.9825
12.9602
12.982
12.9809
12.9768
12.9774
12.9774
12.9781
12.9797
12.9811
12.9777
12.9772
12.9799
12.9742
12.9752
12.9796
12.9831
12.9821
12.9909
12.9833
12.9792
12.9831
12.9666
12.9833
12.9858
12.9813
12.983
12.9788
12.9837
12.9828
12.9886
12.9819
12.9779
12.9816
12.9835
12.9614
12.9715
12.9817
12.9806
12.9576
12.9769
12.9774
12.9791
12.9803
12.9766
12.9802
12.9802
12.965
12.9797
12.9829
12.9738
12.9801
12.9788
12.9799
12.9795
12.9696
12.9742
12.9782
12.9803
12.9782
12.9646
12.9783
12.9805
12.9797
12.9801
12.9606
12.9806
12.9826
12.9784
12.9778
12.9799
12.9589
12.9775
12.9807
12.9783
12.9779
12.9759
12.9833
12.9761
12.9803
12.977
12.9732
12.9805
12.9791
12.9803
12.9796
12.9643
12.9788
12.9723
12.9868
12.9735
12.9635
12.9772
12.979
12.9781
12.9797
12.9802
12.9789
12.976
12.9696
12.9795
12.9811
12.9728
12.9774
12.9783
12.9746
12.9763
12.9671
12.9719
12.972
12.9806
12.978
12.9769
12.9806
12.9633
12.9806
12.9748
12.9705
12.9747
12.9804
12.9773
12.9792
12.9781
12.9665
12.9647
12.976
12.9806
12.9749
12.9778
12.9766
12.9787
12.975
12.9773
12.9785
12.9804
12.9829
12.9803
12.9812
12.9803
12.9797
12.9809
12.9825
12.9692
12.9773
12.9798
12.9763
12.9755
12.9807
12.9742
12.9783
12.9806
12.981
12.9723
12.9798
12.981
12.982
12.9766
12.9682
12.9813
12.9827
12.9828
12.9715
12.9817
12.9806
12.981
12.9828
12.9683
12.9825
12.9798
12.9802
12.9758
12.9817
12.9799
12.9824
12.9787
12.9803
12.9804
12.982
12.9806
12.9819
12.981
12.9788
12.9808
12.9821
12.977
12.9823
12.9784
12.98
12.9685
12.9808
12.981
12.9816
12.9778
12.9813
12.9794
12.9813
12.9779
12.9821
12.9828
12.982
12.9825
12.9815
12.9683
12.9809
12.9816
12.9813
12.9813
12.9731
12.9827
12.9809
12.9757
12.9802
12.9832
12.9792
12.9822
12.983
12.9786
12.9823
12.9781
12.9809
12.9819
12.9799
12.9832
12.9748
12.9829
12.9815
12.9823
12.9777
12.9796
12.9827
12.9816
12.9814
12.9818
12.9815
12.9824
12.9791
12.9823
12.9812
12.9826
12.9826
12.9792
12.9772
12.9799
12.9781
12.9763
12.9825
12.9788
12.9796
12.9839
12.9823
12.9786
12.9826
12.9773
12.9764
12.9821
12.9787
12.9769
12.977
12.9784
12.9803
12.978
12.9775
12.9768
12.9779
12.9776
12.9829
12.9766
12.9832
12.9799
12.9841
12.9883
12.9783
12.9789
12.9765
12.9766
12.9764
12.9798
12.9917
12.9782
12.9755
12.977
12.9773
12.9906
12.9763
12.9797
12.9791
12.9805
12.981
12.9908
12.9688
12.9923
12.9789
12.9874
12.9888
12.9804
12.968
12.9915
12.9762
12.9684
12.9903
12.9916
12.9682
12.9682
12.9903
12.9705
12.9789
12.9696
12.9912
12.9911
12.9897
12.9688
12.9699
12.9926
12.9771
12.9699
12.9914
12.9767
12.97
12.979
12.9699
12.9696
12.9692
12.9789
12.9816
12.9771
12.9822
12.9829
12.9899
12.9692
12.9835
12.9702
12.9921
12.9722
12.973
12.9699
12.9894
12.9896
12.9804
12.9834
12.983
12.9761
12.9732
12.9812
12.9836
12.9745
12.991
12.9753
12.9796
12.9819
12.9909
12.9797
12.9763
12.9837
12.9782
12.979
12.9793
12.9907
12.9897
12.9911
12.9788
12.9784
12.9923
12.9781
12.9835
12.9834
12.9772
12.9766
12.9905
12.9924
12.9785
12.9913
12.9906
12.9917
12.9905
12.9758
12.9736
12.9625
12.9772
12.9786
12.9785
12.9912
12.9797
12.9909
12.9917
12.9765
12.9792
12.9909
12.992
12.9763
12.9813
12.9567
12.9834
12.9835
12.9833
12.9828
12.9823
12.9834
12.9835
12.9794
12.9832
12.9866
12.9831
12.9828
12.9827
12.9829
12.9881
12.9836
12.9834
12.9831
12.9829
12.9825
12.9831
12.98
12.9871
12.9834
12.9765
12.983
12.9794
12.9926
12.9817
12.977
12.9899
12.981
12.9812
12.9761
12.9831
12.9912
12.9817
12.9807
12.9804
12.9788
12.9786
12.9792
12.9789
12.9787
12.9857
12.991
12.9773
12.9793
12.971
12.9908
12.9782
12.9791
12.9827
12.9658
12.9907
12.9813
12.984
12.9912
12.9801
12.9743
12.9831
12.9588
12.983
12.9906
12.981
12.9907
12.9764
12.9915
12.9832
12.9808
12.9813
12.979
12.9773
12.977
12.9812
12.9818
12.9772
12.9834
12.9921
12.9893
12.9698
12.9918
12.9864
12.9801
12.9894
12.9709
12.9622
12.9711
12.983
12.9827
12.9919
12.9766
12.9828
12.9836
12.9829
12.968
12.9827
12.9905
12.9909
12.9838
12.9837
12.9714
12.9814
12.9823
12.9806
12.9655
12.9799
12.9832
12.9768
12.9924
12.9794
12.9789
12.9824
12.9821
12.9844
12.9806
12.9832
12.9839
12.9719
12.9636
12.9694
12.9801
12.9752
12.9769
12.9735
12.9923
12.9584
12.9818
12.9701
12.9781
12.9925
12.9715
12.975
12.9628
12.9772
12.9833
12.9806
12.9917
12.9926
12.9718
12.9767
12.9834
12.9804
12.9693
12.9892
12.9815
12.9905
12.9741
12.9708
12.9902
12.9772
12.9907
12.9796
12.9798
12.9734
12.9753
12.9822
12.9836
12.9792
12.9789
12.9828
12.9749
12.9796
12.9918
12.9784
12.9833
12.9791
12.9806
12.9769
12.9758
12.9734
12.9723
12.9733
12.9759
12.9659
12.9904
12.9764
12.9902
12.9798
12.9828
12.9789
12.9751
12.983
12.9839
12.973
12.983
12.9794
12.9769
12.991
12.9702
12.9849
12.9789
12.9851
12.9833
12.9658
12.971
12.9847
12.9788
12.9904
12.9909
12.9638
12.9832
12.9912
12.9921
12.9818
12.985
12.9861
12.9764
12.9894
12.9701
12.9768
12.9809
12.9658
12.977
12.9723
12.9813
12.9827
12.9825
12.9763
12.9778
12.9871
12.9926
12.9727
12.9822
12.9593
12.9912
12.9838
12.9836
12.9708
12.9905
12.9765
12.9784
12.9727
12.9771
12.9609
12.971
12.9732
12.9838
12.9786
12.9829
12.9904
12.9792
12.9723
12.9786
12.9829
12.9904
12.9712
12.9828
12.9924
12.9619
12.982
12.9907
12.9761
12.9745
12.971
12.9924
12.9803
12.9905
12.9906
)
;

boundaryField
{
    back
    {
        type            empty;
    }
    front
    {
        type            empty;
    }
    top
    {
        type            zeroGradient;
    }
    outer_arc
    {
        type            zeroGradient;
    }
    bottom
    {
        type            uniformFixedValue;
        uniformValue    
        {
            type            table;
            format          csv;
            file            "outlet_p.csv";
            nHeaderLine     1;
            refColumn       0;
            componentColumns List<label> 1(1);
            separator       ",";
            mergeSeparators 0;
        }
        value           uniform 12.9691;
    }
    inner_arc
    {
        type            zeroGradient;
    }
}


// ************************************************************************* //
