/*--------------------------------*- C++ -*----------------------------------*\
  =========                 |
  \\      /  F ield         | OpenFOAM: The Open Source CFD Toolbox
   \\    /   O peration     | Website:  https://openfoam.org
    \\  /    A nd           | Version:  9
     \\/     M anipulation  |
\*---------------------------------------------------------------------------*/
FoamFile
{
    format      ascii;
    class       surfaceScalarField;
    location    "0.02";
    object      phi;
}
// * * * * * * * * * * * * * * * * * * * * * * * * * * * * * * * * * * * * * //

dimensions      [0 3 -1 0 0 0 0];

internalField   nonuniform List<scalar> 
816
(
-1.23e-10
-1.49e-09
1.61e-09
-2.88e-10
-2.65e-09
2.94e-09
2.22e-09
-2.35e-09
4.5e-09
-4.52e-09
1.89e-11
2.86e-09
-2.86e-09
4.52e-09
1.43e-09
-5.95e-09
1.83e-09
-1.83e-09
-2.99e-09
2.99e-09
-5.72e-09
-6.4e-10
6.36e-09
-1.53e-09
1.25e-09
7.28e-09
-2.76e-09
7.29e-09
-5.2e-09
-2.1e-09
1.05e-09
3.52e-09
-4.58e-09
6.96e-09
-6.32e-09
-6.49e-10
3.53e-09
-2.98e-09
-5.46e-10
-5.07e-09
8.06e-09
-2.99e-09
5.82e-10
1.27e-09
-1.85e-09
-3.33e-09
2.47e-10
3.08e-09
8.25e-10
6.47e-09
3e-09
-8.72e-09
3.37e-09
1.13e-09
5.46e-10
-5.61e-09
3.96e-09
-1.04e-09
-2.92e-09
-3.35e-09
-1.7e-09
5.04e-09
-3.69e-09
3.45e-10
-6.09e-09
1.37e-09
4.71e-09
-4.12e-09
4.53e-09
-4.08e-10
-2.9e-11
1.39e-09
-1.36e-09
1.41e-09
-4.06e-09
2.75e-09
5.31e-09
-2.83e-09
2.8e-09
-3.69e-09
5.12e-09
9.22e-09
-6.47e-09
-5.38e-09
2.79e-09
2.59e-09
3.36e-10
3.19e-09
-1.48e-09
6.79e-09
5.82e-10
6.38e-09
-1.06e-09
-5.03e-09
-4.21e-09
1.57e-09
2.65e-09
1.82e-09
1.03e-09
-2.27e-09
-2.17e-09
1.94e-09
-3.01e-09
2.26e-11
-4.24e-09
-1.33e-09
5.57e-09
1.2e-09
6.27e-10
-1.49e-09
5.71e-09
-6.35e-09
-1.99e-09
-3.84e-09
-2.78e-10
-2.56e-10
1.92e-09
-1.67e-09
4.33e-09
-3.28e-09
3.68e-09
2.75e-10
-2.04e-09
-3.34e-09
2.4e-09
2.11e-09
1.68e-09
-4.57e-09
2.89e-09
-1.04e-09
-4.24e-09
3.41e-09
-2.83e-09
2.26e-09
-3.74e-09
7.9e-11
-4.23e-10
1.69e-09
1.94e-09
-1.69e-09
-2.4e-10
-6.08e-09
-2.5e-09
-2.99e-09
5.48e-09
-3.07e-09
5.99e-11
6.04e-09
3.18e-09
2.57e-09
4.71e-09
-2.59e-09
7.8e-09
-5.2e-09
1.39e-09
5.03e-09
-6.42e-09
-9.07e-10
-3.94e-09
2.19e-09
-4.69e-09
4.99e-09
2.71e-09
-7.7e-09
2.59e-09
3.42e-09
-6.01e-09
2.51e-09
-2.51e-09
-3.28e-09
6.29e-09
-4.77e-09
1.49e-09
5.72e-09
5.32e-10
1.08e-09
-1.61e-09
-6.66e-09
3.85e-10
6.27e-09
-1.49e-09
3.08e-09
-3.08e-09
-3.2e-09
3.2e-09
1.59e-09
-3.3e-09
1.71e-09
-1.34e-09
-2.06e-10
1.92e-09
-3.34e-09
5.02e-09
-1.96e-11
-4.86e-09
4.88e-09
-2.35e-09
-3.24e-11
2.39e-09
1.7e-09
-1.56e-09
3.14e-09
1.98e-13
-2.81e-09
2.81e-09
3.43e-09
2.24e-09
-5.67e-09
-5.58e-09
5.43e-10
4.96e-09
-5.5e-09
-2.29e-09
-2.47e-09
-1.53e-09
-2.66e-10
3.46e-09
6.32e-11
-3.13e-09
-4.15e-09
5.54e-09
-4.87e-09
3.39e-09
1.47e-09
2.1e-09
2.62e-09
1.89e-09
-6.25e-10
7.01e-09
-3.36e-09
2.27e-09
-1.34e-09
-1.18e-10
-2.4e-09
2.69e-09
4.1e-09
6.41e-09
5.04e-09
-6.99e-09
1.95e-09
-1.84e-09
-3.03e-09
-1.26e-09
-3.26e-09
5.84e-11
-3.06e-09
3e-09
1.19e-10
-2.47e-09
4.82e-09
-2.2e-09
-2.77e-10
4.99e-09
-3.86e-09
6.58e-10
1.44e-09
3.68e-09
-3.05e-10
-7.73e-10
2.59e-09
-2.77e-09
1.73e-10
-3.41e-09
-3.24e-09
-2.71e-09
2.05e-09
6.57e-10
-2.59e-09
5.39e-11
2.94e-09
-8.89e-11
-2.85e-09
2.76e-09
-1.68e-10
-1.4e-09
4.83e-09
-1.66e-09
1.66e-09
2.72e-09
2.21e-10
4.41e-11
-2.85e-09
2.81e-09
2.25e-11
-5.22e-09
-5.56e-09
-1.43e-09
2.11e-09
-2.2e-09
1.83e-11
-1.06e-09
1.04e-09
1.72e-10
2.13e-09
5.04e-11
3.26e-09
-3.31e-09
-1.94e-09
-1.69e-10
2.81e-09
-8.99e-11
2.17e-09
-2.08e-09
-2.68e-09
1.89e-09
7.91e-10
-2.53e-09
2.58e-09
-6.89e-09
-1.14e-10
7e-09
-1.32e-09
1.32e-09
2.26e-09
2.5e-10
1.41e-09
-3.33e-10
-3.02e-09
3.35e-09
-1.23e-10
-3.72e-09
3.97e-09
-2.56e-09
-1.01e-09
4.51e-09
-3.5e-09
1.08e-09
4.81e-10
-7.37e-09
-5.59e-09
-1.06e-09
-5.74e-09
5.63e-09
-1.49e-09
1.49e-09
-2.62e-09
-1.44e-09
2.34e-09
-2.67e-09
-2.91e-09
1.9e-09
-2e-09
6.96e-09
-4.96e-09
-4.63e-10
-5.28e-09
2.17e-09
-2.14e-09
-1.28e-09
1.32e-09
4.1e-11
-9.62e-10
9.21e-10
1.15e-11
2.33e-09
3.38e-09
2.1e-09
-2.27e-09
5.66e-09
-2.77e-09
-3.08e-09
2.62e-09
-5.07e-11
-3.03e-09
3.08e-09
1.2e-09
-1.18e-09
2.41e-10
-2.82e-09
2.57e-09
2.25e-09
-2.45e-09
3.44e-09
-3.96e-11
-2.81e-09
-2.68e-09
-3.74e-09
-1.28e-09
-1.43e-09
-2.98e-09
-3.06e-10
3.29e-09
-1.41e-09
1.36e-09
-6.35e-09
-5.72e-10
6.93e-09
5.77e-09
-1.5e-10
-2.51e-09
-1.6e-10
-1.25e-09
-3.99e-09
6.35e-09
-2.36e-09
-1.9e-09
1.75e-09
1.51e-10
-1.89e-09
1.77e-09
-2.84e-09
2.82e-09
2.47e-11
5.53e-09
-5.2e-09
-3.25e-10
-2.91e-09
5.68e-09
-2.21e-09
-8.69e-10
-5.99e-09
3.65e-09
2.01e-09
3.11e-10
-3.58e-11
-2.87e-09
3.58e-11
2.13e-09
-3.53e-09
-7.02e-11
2.79e-09
6.1e-09
-2.45e-09
2.06e-09
2.87e-09
8.07e-10
9.57e-10
-9.21e-10
6.3e-09
2.06e-09
2.68e-10
-3.95e-09
4.2e-09
2.47e-09
-2.62e-09
-1.34e-09
1.18e-09
-2.04e-09
-4.05e-09
6.59e-09
-2.54e-09
-1.41e-09
-2.21e-09
-9.62e-10
-9.55e-10
-4.21e-09
-3.08e-09
2.47e-09
-1.34e-09
-1.33e-09
-1.44e-10
3.85e-09
-3.7e-09
1.2e-09
2.29e-09
1.37e-10
1.77e-09
1.04e-09
-1.36e-09
-1.73e-10
-1.28e-09
-3.43e-09
-2.27e-09
5.7e-09
3.74e-09
-1.01e-10
-2.66e-09
2.92e-10
4.83e-09
4.09e-10
-1.27e-09
8.57e-10
-1.67e-09
5.29e-09
-6.25e-09
7.68e-11
3.56e-09
-3.5e-09
1.27e-09
-1.41e-09
1.75e-09
1.77e-09
1.23e-10
1.04e-09
-3e-09
-7.55e-10
-2.78e-09
8.51e-10
2.51e-09
4.08e-09
3.23e-09
-4.04e-09
6.55e-09
-4.64e-09
1.22e-09
9.57e-10
-1.32e-09
-2.43e-09
-3.66e-09
6.09e-09
2.14e-09
-6.31e-09
-2.53e-09
6.61e-09
-2.59e-09
6.33e-09
4.12e-09
7.88e-11
-1.15e-09
1.15e-09
-2.06e-09
-4.59e-09
2.69e-09
4.02e-09
2.94e-09
-1.46e-09
1.46e-09
-1.77e-09
-1.19e-09
-1.79e-09
1.44e-09
3.53e-10
1.79e-09
-3.3e-10
-1.23e-10
-2.06e-09
-5.78e-09
-3.98e-09
9.5e-10
-6.72e-09
2.6e-09
4.12e-09
-2.6e-09
4.91e-10
-3.76e-09
6.54e-09
-2.78e-09
-6.45e-09
2.69e-09
2.01e-09
-3.75e-09
6.35e-09
3.31e-09
-5.84e-09
-9.76e-11
2.02e-10
2.34e-09
-2.13e-09
4.01e-09
-2.35e-09
-3.23e-09
5.59e-09
-3.98e-09
6.71e-09
-2.7e-09
6.61e-09
2.33e-09
4.39e-09
5.49e-09
-3.54e-09
-5.4e-09
2.7e-09
4e-09
-6.8e-09
4.21e-09
-2.09e-09
3.9e-09
-6.46e-10
-3.79e-09
-2.06e-09
2.52e-09
4.02e-09
6.69e-09
-8.1e-10
-3.9e-09
4.7e-09
-1.11e-09
1.11e-09
-1.53e-09
1.53e-09
1.2e-09
-1.2e-09
1.8e-09
-1.8e-09
1.82e-09
1.2e-09
3.62e-09
-5.25e-09
1.63e-09
-1.49e-09
3.84e-09
2.86e-09
1.47e-09
-1.47e-09
-2.4e-09
1.41e-09
-1.41e-09
-5.77e-09
2.78e-09
2.99e-09
-4.23e-10
-6.36e-09
3.45e-09
2.9e-09
-1.7e-09
1.7e-09
-5.4e-09
3.04e-09
2.36e-09
-2.31e-09
-5.17e-09
-3.57e-09
1.94e-09
-2.23e-09
4.94e-09
-9.34e-10
-5.98e-09
-3.47e-09
3.68e-09
1.51e-09
9.28e-11
2.73e-10
9.62e-10
-2.81e-09
-6.34e-09
2.78e-09
3.56e-09
-3.57e-09
-2.62e-09
-1.46e-09
-1.69e-10
2.02e-09
-5.2e-09
1.3e-09
-2.16e-09
-5.29e-09
4.41e-09
-1.32e-09
-3.68e-09
4.97e-10
3.18e-09
-5.58e-10
-4.29e-09
2.57e-10
4.04e-09
-2.38e-09
1.5e-09
-1.5e-09
-1.7e-10
-2.35e-09
-1.71e-09
-2.79e-09
4.68e-09
4.36e-09
-2e-09
-5.76e-09
-1.98e-09
-8.31e-10
6.13e-09
-3.97e-09
-2.01e-09
-2.94e-09
-2.28e-09
-3.6e-09
-1.08e-09
-3.78e-09
-8.71e-10
-1.93e-09
-2.78e-09
-4.92e-09
-5.24e-09
-7.41e-10
2.79e-09
-4.88e-09
-2.15e-09
-2.7e-09
5.13e-09
-5.92e-09
7.87e-10
-2.01e-09
-4.83e-10
-5.56e-10
3.44e-09
-2.01e-09
-1.12e-09
3.62e-09
5.15e-10
-4.13e-09
6.32e-09
2.38e-09
3.19e-09
-2.54e-09
4.56e-09
1.23e-09
-1.23e-09
5.36e-09
1.04e-09
2.64e-09
1.03e-09
-4.69e-09
2.57e-09
-4.56e-09
5.35e-09
3.11e-09
2.58e-09
-4.55e-09
1.97e-09
7.57e-11
5.19e-09
-2.2e-09
2.93e-09
2.92e-09
-2.4e-09
1.09e-10
1.39e-09
-2.19e-09
1.7e-09
1.31e-09
1.97e-09
1.92e-09
-4.01e-09
6.72e-10
-2.53e-09
-2.66e-10
4.97e-09
-3.15e-09
2.44e-09
5.68e-10
-4.28e-09
1.17e-09
-8.85e-11
1.99e-09
-4.55e-09
-3.04e-10
-5.65e-09
1.01e-09
-1.08e-10
1.59e-09
6.71e-10
-2.57e-09
6.41e-09
3.8e-10
-4.67e-09
-1.36e-09
1.17e-09
3.6e-09
-2.81e-09
-3.39e-09
-1.86e-09
4.26e-09
2.74e-09
-4.88e-09
1.59e-09
2.38e-09
-4.93e-09
-3.31e-09
4.64e-09
-1.21e-10
-3.9e-09
-2.43e-09
2.43e-09
1.65e-09
-3.05e-09
-2.47e-09
2.47e-09
-2.42e-09
-4.83e-09
-3.72e-09
-2.48e-09
2.08e-09
2.01e-09
6e-09
-1.74e-09
-4.21e-09
3.29e-09
2.52e-09
-5.18e-09
2.37e-09
-2.06e-09
2.16e-09
-3.53e-09
-2.54e-09
-2.01e-09
-2.79e-09
-1.16e-09
-3.55e-09
-1.28e-09
2.43e-09
-3.71e-09
3.54e-09
7.93e-10
4.1e-09
2.07e-11
-6.37e-09
-5.25e-09
-2.96e-09
-3.16e-10
-2.49e-09
-2.49e-10
-4.35e-10
-5.45e-10
-2.91e-09
2.08e-09
3.14e-09
-6.67e-10
-3.81e-09
9.17e-11
3.54e-09
2.82e-09
-3.85e-09
-3.78e-09
-3.99e-09
-4.52e-09
-1.73e-09
7.95e-10
3.96e-10
)
;

boundaryField
{
    front
    {
        type            empty;
        value           nonuniform List<scalar> 0();
    }
    back
    {
        type            empty;
        value           nonuniform List<scalar> 0();
    }
    bottom
    {
        type            calculated;
        value           nonuniform List<scalar> 
12
(
1.54e-09
2.53e-09
5.16e-09
2.42e-09
3.41e-09
8.57e-10
7.55e-10
5.44e-09
6.48e-09
2.7e-09
2.21e-09
2.49e-09
)
;
    }
    left
    {
        type            calculated;
        value           uniform 0;
    }
    top
    {
        type            calculated;
        value           nonuniform List<scalar> 8(-4.51e-09 -4.51e-09 -4.49e-09 -4.49e-09 -4.49e-09 -4.51e-09 -4.51e-09 -4.49e-09);
    }
    right
    {
        type            calculated;
        value           uniform 0;
    }
    inner_arc
    {
        type            calculated;
        value           uniform 0;
    }
}


// ************************************************************************* //
