/*--------------------------------*- C++ -*----------------------------------*\
  =========                 |
  \\      /  F ield         | OpenFOAM: The Open Source CFD Toolbox
   \\    /   O peration     | Website:  https://openfoam.org
    \\  /    A nd           | Version:  9
     \\/     M anipulation  |
\*---------------------------------------------------------------------------*/
FoamFile
{
    format      ascii;
    class       surfaceScalarField;
    location    "2.75";
    object      phi;
}
// * * * * * * * * * * * * * * * * * * * * * * * * * * * * * * * * * * * * * //

dimensions      [0 3 -1 0 0 0 0];

internalField   nonuniform List<scalar> 
1363
(
-5.09096e-07
3.44609e-07
1.64486e-07
1.98958e-07
-6.95304e-08
-1.29428e-07
7.80888e-07
-5.95936e-07
-1.84953e-07
-1.58011e-07
4.65536e-07
-3.07525e-07
7.12145e-07
6.87433e-08
6.07654e-07
5.73059e-08
-6.6496e-07
-9.28493e-08
9.28493e-08
7.75814e-07
-1.68159e-07
-2.93395e-07
3.02718e-07
-9.32336e-09
1.56433e-08
-3.09038e-07
-3.95035e-07
3.79433e-07
1.56016e-08
7.50458e-07
-7.15168e-07
-3.52893e-08
3.38708e-07
-4.9672e-07
-4.4084e-07
4.29397e-07
1.14422e-08
5.12815e-07
2.37642e-07
1.1415e-07
8.48085e-08
6.3228e-08
-2.23906e-07
1.60678e-07
-2.51525e-07
-2.57571e-07
2.75028e-07
6.36091e-10
-2.75664e-07
-7.35643e-08
7.35643e-08
7.15382e-08
-8.31016e-09
8.82553e-08
-8.03424e-07
-2.09954e-07
9.99803e-09
1.99956e-07
-6.48849e-08
2.63998e-07
-1.99113e-07
-1.67222e-07
-2.27813e-07
2.41638e-07
-3.06523e-07
7.27027e-07
-6.87489e-07
-3.95384e-08
-2.39383e-07
2.94286e-08
-2.41044e-07
3.99393e-07
-1.58349e-07
-4.66115e-09
-3.63336e-07
3.67997e-07
-2.48209e-07
1.20834e-07
1.27375e-07
8.34678e-09
7.1868e-07
9.95409e-08
-3.40585e-07
7.73583e-09
-2.99903e-07
2.92167e-07
6.80644e-07
-6.12176e-07
-6.84679e-08
-1.76595e-07
2.39067e-07
-6.24726e-08
-4.23512e-07
-1.06446e-07
5.29959e-07
3.02121e-07
-1.31994e-07
-1.70127e-07
-2.95194e-07
-1.28318e-07
6.55577e-08
1.9844e-07
6.05558e-07
-2.61393e-07
-3.44165e-07
3.55729e-07
-7.06445e-07
3.50717e-07
-3.92098e-08
1.04768e-07
-4.96137e-08
-4.32357e-08
4.78645e-08
4.49848e-08
3.24716e-07
-3.22822e-08
-2.92434e-07
-1.91698e-07
-1.22865e-08
2.03984e-07
1.57162e-07
-1.49426e-07
8.68687e-08
5.1869e-07
-1.64573e-07
-2.76267e-07
2.40317e-07
3.47107e-08
1.16403e-07
-1.06405e-07
-6.97799e-08
-1.06815e-07
2.91444e-07
-1.42841e-07
-1.48603e-07
4.11789e-07
-3.96146e-07
-2.58041e-07
-2.72138e-07
5.30178e-07
-3.25272e-08
3.25272e-08
1.06249e-09
4.10726e-07
-1.70588e-07
1.38061e-07
-1.34791e-07
7.57259e-07
-6.22468e-07
-2.0704e-07
2.02379e-07
7.42605e-07
-6.66446e-07
-7.61595e-08
-5.77385e-08
-2.42164e-07
-5.82291e-08
4.02838e-07
2.00411e-07
1.01711e-07
-1.7752e-07
9.65336e-08
8.09863e-08
5.51166e-08
1.20046e-07
-1.55623e-07
3.55774e-08
4.69305e-07
-7.27346e-07
2.75021e-07
-1.86025e-07
-8.89965e-08
-7.3989e-08
4.45855e-09
-2.21263e-07
2.08157e-07
1.31066e-08
-3.2739e-07
3.2739e-07
-3.157e-08
-3.31766e-07
2.03083e-07
8.83611e-08
-7.5617e-08
2.05266e-09
1.21287e-07
-4.77229e-08
1.41982e-08
-1.7919e-07
-6.90193e-08
1.61711e-07
-4.75613e-08
-6.90575e-08
1.88846e-07
-1.19789e-07
3.62472e-07
-3.19738e-07
1.35377e-08
3.062e-07
-1.5809e-08
2.06911e-07
-1.10378e-07
-8.63919e-07
8.3416e-07
2.97592e-08
3.24868e-07
-4.5966e-07
9.14922e-08
2.44379e-07
-3.35871e-07
1.18788e-07
3.10609e-07
-1.54056e-07
-1.65683e-07
3.76075e-07
-2.03458e-08
2.80618e-07
-3.39046e-08
-2.46713e-07
-4.16412e-07
4.17474e-07
1.58597e-08
-2.87997e-07
4.02292e-07
1.27887e-07
-1.96673e-07
2.46406e-07
-4.9733e-08
-6.60327e-07
-4.61186e-08
-9.64344e-08
1.87927e-07
-2.79143e-07
2.10085e-07
-6.62933e-09
2.15824e-07
-1.69301e-08
-1.98894e-07
3.99727e-08
-4.56384e-07
4.86191e-08
2.25407e-07
3.31195e-07
7.10968e-08
3.95708e-08
1.62808e-07
3.74239e-08
2.87293e-07
-6.44768e-09
3.62985e-07
-3.56537e-07
7.61019e-08
4.39437e-08
-5.80364e-10
-1.55043e-07
-2.59184e-07
7.28489e-07
-7.6937e-08
-6.50409e-07
3.60446e-07
-9.24112e-08
-1.28852e-07
1.02987e-07
2.76446e-07
2.80618e-07
-2.27253e-07
-4.41656e-07
6.68909e-07
3.84998e-07
8.05383e-08
-7.34635e-08
6.68342e-08
7.96781e-07
-9.73346e-07
1.76566e-07
-6.68342e-08
1.06405e-07
-2.35646e-07
-3.06264e-07
5.4191e-07
-3.92098e-08
-2.42581e-07
3.11581e-07
-1.74956e-07
-4.23437e-09
1.16403e-07
2.04308e-07
-1.04768e-07
-2.04308e-07
1.75044e-07
2.92641e-08
-6.97799e-08
-8.28247e-08
8.34607e-08
8.28247e-08
-1.36314e-07
5.34898e-08
-8.34607e-08
7.11743e-08
-1.46696e-07
3.03857e-07
1.46696e-07
-7.05939e-08
1.36314e-07
-1.68597e-07
3.76044e-07
-6.35229e-07
-7.11743e-08
7.05939e-08
-7.12166e-07
6.35229e-07
7.12166e-07
-6.25297e-07
-3.03857e-07
6.25297e-07
-3.21439e-07
1.68597e-07
-1.75044e-07
1.33193e-07
1.51769e-08
-1.90132e-07
7.14441e-07
6.13725e-08
-1.42145e-07
2.60188e-08
-2.12043e-07
6.64159e-08
1.41741e-07
4.80881e-07
-3.54224e-07
-1.26657e-07
-2.67406e-07
-5.96513e-07
4.84988e-08
6.65942e-07
6.52898e-07
-8.26331e-07
1.73434e-07
5.52466e-07
-5.8637e-07
-1.68997e-07
2.19853e-07
-5.08557e-08
-6.56492e-07
4.4316e-08
-4.26724e-08
-2.52522e-07
2.37526e-07
-3.06151e-08
-7.99892e-09
6.1081e-08
-5.30821e-08
3.15603e-07
-2.7229e-07
3.99585e-08
1.97568e-07
2.13769e-07
-2.56441e-07
-4.87285e-07
1.79761e-07
7.60402e-07
-5.78952e-08
-7.02506e-07
8.24931e-07
-1.72033e-07
1.42855e-08
-4.3509e-07
4.20804e-07
1.00948e-07
1.14876e-07
3.32883e-07
-1.07476e-07
7.05506e-08
4.89416e-08
-1.05482e-07
-1.31719e-07
4.92844e-07
-7.65746e-08
1.45143e-07
6.89017e-07
-3.79981e-07
2.95794e-07
8.41863e-08
2.8214e-08
2.18192e-07
-1.40633e-07
-2.39348e-07
-8.49714e-08
1.00831e-07
-4.3422e-07
3.22865e-07
1.11355e-07
-1.91958e-07
2.2961e-08
2.53928e-07
1.45466e-07
3.74434e-07
-1.38426e-07
-2.83095e-07
2.20328e-07
-5.25715e-07
3.29009e-07
1.96706e-07
-4.30048e-07
2.79999e-08
4.02048e-07
6.11091e-07
-8.78498e-07
4.44903e-07
-1.22038e-07
8.78049e-07
-7.62802e-07
-1.15248e-07
3.3682e-07
1.08083e-07
-3.09768e-07
2.33194e-07
-4.4725e-08
1.721e-07
-2.01083e-08
-4.0994e-07
5.19906e-07
-1.81198e-07
4.4527e-07
-4.35361e-07
-9.90972e-09
2.92722e-08
-2.90666e-07
3.52396e-08
-3.52396e-08
-7.34635e-08
2.0152e-07
3.18386e-07
-8.30821e-08
6.29737e-08
-1.53356e-07
1.82134e-07
-4.19716e-07
6.20731e-07
-6.75035e-07
7.03035e-07
-3.97025e-09
3.53306e-08
-2.46925e-07
4.48445e-07
-2.10307e-07
4.12163e-07
-2.01855e-07
-8.91334e-07
8.15174e-07
-6.79052e-08
-2.0172e-07
4.91697e-07
-2.89977e-07
-2.59832e-07
8.70924e-07
8.93122e-07
-5.59897e-07
-3.33225e-07
-4.98194e-07
6.28334e-08
-4.7071e-07
-2.7484e-08
-3.46572e-07
4.77689e-07
-1.31117e-07
3.16655e-07
-5.18375e-07
-1.004e-07
4.3722e-07
4.66732e-07
-2.56587e-07
-2.10145e-07
7.41877e-08
-7.41877e-08
4.02595e-07
-4.02595e-07
-8.3867e-08
-8.07467e-07
-3.62759e-07
4.55698e-07
-9.29389e-08
2.19043e-07
9.80971e-08
-3.1714e-07
-1.16305e-07
3.36632e-07
-7.03408e-07
2.83726e-08
3.39132e-07
-3.39132e-07
-4.40178e-08
4.40178e-08
1.45125e-07
1.98222e-07
-4.45147e-07
6.65432e-07
2.2769e-07
1.14929e-07
1.74318e-07
-5.90579e-07
1.19869e-07
-4.92482e-07
1.46973e-07
1.8591e-07
-8.73422e-08
-3.70043e-07
4.57385e-07
3.1782e-07
-2.33634e-07
-2.65436e-07
3.76791e-07
-7.78149e-08
-3.68356e-07
-6.82318e-08
4.36588e-07
1.76755e-07
1.46834e-07
7.94182e-07
4.92914e-08
-4.69008e-07
1.40546e-07
-9.03348e-07
-2.87794e-07
3.95877e-07
1.91858e-07
-4.70443e-07
8.03271e-08
3.56893e-07
-5.64604e-07
-3.73722e-07
9.38326e-07
5.23844e-08
-4.81141e-07
3.50024e-07
3.89039e-07
-9.53642e-07
-8.75935e-07
-2.88401e-07
3.68728e-07
-3.95539e-07
3.27307e-07
6.60559e-08
3.65663e-07
-4.31719e-07
5.57953e-08
3.39688e-07
9.68993e-08
5.63338e-07
-2.2365e-07
-8.27377e-07
8.68062e-07
-4.06845e-08
-2.94874e-07
-6.2867e-08
8.78041e-07
-6.68077e-07
-4.65822e-07
8.54861e-07
-5.56541e-07
1.79708e-07
3.76833e-07
-7.88181e-07
6.72933e-07
9.58797e-09
1.06815e-07
-9.89966e-08
3.38064e-07
2.02927e-07
-1.93339e-07
-3.10916e-07
-2.45625e-07
5.49608e-07
-3.14026e-07
-2.35582e-07
-6.4952e-07
9.65124e-07
-1.15147e-07
4.35106e-07
-3.19959e-07
-4.71592e-07
3.56444e-07
3.08928e-07
5.98004e-08
3.74984e-07
3.69039e-07
1.80569e-07
4.40957e-07
-7.35831e-07
-8.67077e-07
4.01255e-07
7.08337e-07
-1.69613e-08
-6.91375e-07
-2.65817e-07
4.45524e-07
2.61011e-08
7.36366e-08
-9.97377e-08
9.40526e-07
-8.28069e-07
-1.12457e-07
2.91005e-07
1.06535e-07
-9.34603e-07
4.21954e-07
5.4317e-07
4.47209e-07
3.22137e-07
-7.69346e-07
1.24191e-07
-8.50681e-07
-3.95356e-07
1.24604e-06
-7.30564e-07
-3.48086e-07
1.07865e-06
-1.82414e-07
6.29623e-07
3.82559e-07
7.48257e-08
-5.74345e-07
1.55591e-07
4.18754e-07
1.63751e-07
-1.63751e-07
2.05266e-09
-2.46713e-07
-4.32357e-08
-5.60711e-08
5.60711e-08
-3.77361e-07
3.77361e-07
-2.42581e-07
9.61467e-07
-2.61277e-07
-7.0019e-07
-1.17254e-07
1.17254e-07
-9.98517e-08
9.98517e-08
-1.70588e-07
3.59365e-08
-3.59365e-08
-2.44801e-07
2.44801e-07
1.21287e-07
1.55736e-07
-1.55736e-07
4.78645e-08
3.11581e-07
-9.1873e-08
5.3283e-07
3.88745e-07
5.12116e-07
-9.00861e-07
7.36432e-08
-7.36432e-08
9.29167e-07
-2.2083e-07
-4.56416e-07
8.07133e-07
3.18545e-07
-3.18545e-07
-3.76038e-07
6.20124e-08
7.37371e-07
-3.41705e-07
-3.95667e-07
3.14304e-07
-1.00728e-06
6.92976e-07
-1.2646e-06
4.13919e-07
-5.90971e-07
9.05274e-07
-2.54459e-07
-1.2158e-07
-9.30815e-07
2.00251e-07
-1.30203e-08
1.76503e-07
-1.63483e-07
1.30808e-08
-3.76044e-07
1.61773e-07
-3.44187e-07
-1.48875e-07
-3.67268e-07
5.16144e-07
-1.9827e-07
2.41378e-07
-2.53452e-07
1.20738e-08
-5.80859e-07
1.00281e-06
1.35649e-07
-5.38459e-07
9.87294e-07
-4.48835e-07
5.0505e-07
-1.05929e-07
9.57119e-07
-6.66113e-07
8.59118e-07
-7.52584e-07
6.6789e-07
7.32787e-07
-8.97686e-07
1.64899e-07
9.1679e-08
8.48245e-08
-7.3002e-07
1.39049e-07
-5.89085e-07
9.11222e-07
5.16541e-07
-9.45746e-08
-7.00758e-07
7.95332e-07
5.90643e-07
-7.39518e-07
6.90443e-07
-1.0858e-06
5.05481e-07
5.45123e-07
-1.0506e-06
2.09928e-07
2.72093e-07
-4.82021e-07
2.21634e-07
8.79841e-07
-1.22793e-06
-5.00291e-07
2.72865e-07
2.27425e-07
8.17987e-07
-1.15112e-06
3.33132e-07
8.4341e-07
-6.87819e-07
-4.76943e-07
1.09674e-07
7.04908e-07
7.28377e-07
7.87561e-08
-5.35049e-07
5.47123e-07
3.7626e-07
4.64353e-07
5.95163e-07
-3.7353e-07
1.93005e-07
-1.97963e-08
-3.84759e-07
8.266e-07
-6.16672e-07
3.98209e-07
-2.07243e-07
7.37115e-07
-1.6261e-07
-2.39771e-07
4.02381e-07
5.58775e-08
9.03139e-07
-9.59017e-07
1.11806e-06
-3.00077e-07
1.035e-06
-5.29947e-07
-2.28197e-07
-6.45638e-07
-8.74051e-08
-6.36997e-07
5.15417e-07
-1.40455e-07
2.10464e-07
5.30107e-07
8.13604e-07
-5.40738e-07
-5.83369e-07
1.12849e-06
-7.69631e-07
-3.16167e-07
-9.758e-07
-2.52126e-07
3.31067e-07
2.64096e-07
8.47609e-07
-8.47713e-07
-1.46351e-07
9.94065e-07
-7.46221e-07
5.10639e-07
-7.68957e-07
-7.56788e-07
-2.93816e-07
-9.40803e-07
2.52983e-07
7.92992e-07
-5.08567e-07
-4.98713e-07
-1.06321e-06
-1.15439e-06
-8.98744e-08
4.66411e-07
7.3289e-07
-2.35454e-07
-4.97437e-07
2.47509e-08
-1.87361e-07
5.9573e-08
-2.8777e-07
5.25647e-07
4.75224e-07
-2.47799e-07
1.01631e-08
6.80775e-07
-6.90938e-07
-5.18716e-07
7.11721e-07
-2.6604e-07
-4.10696e-07
1.20632e-06
-4.58398e-07
9.22751e-07
9.70025e-08
3.05378e-07
6.2054e-07
6.06757e-09
7.89265e-07
-7.67419e-07
-7.37701e-08
8.41189e-07
1.03851e-06
-3.70624e-07
8.61647e-07
-6.51183e-07
-6.07005e-07
7.01049e-07
-9.40437e-08
4.76574e-07
-7.61352e-07
-2.30804e-07
6.9939e-07
5.78275e-08
-1.87255e-07
4.76985e-07
-6.22649e-07
6.02853e-07
-4.57462e-07
8.33722e-07
1.78283e-07
1.00296e-07
-6.92291e-07
4.33983e-07
2.58308e-07
-3.53187e-07
8.41372e-08
-5.84096e-07
9.40692e-07
-3.56596e-07
2.54259e-07
-3.75324e-07
-2.61079e-07
6.36403e-07
-8.68529e-07
-2.85861e-07
8.45847e-07
-3.35208e-07
-4.78332e-07
1.0814e-06
-8.28415e-07
-2.81072e-07
-4.58446e-07
-1.12066e-06
-3.23252e-07
4.79459e-07
5.22596e-07
-5.34046e-07
9.32255e-07
-9.19304e-07
1.8193e-08
6.33187e-07
-8.6399e-07
3.88705e-07
4.0501e-07
5.35682e-07
-5.01888e-07
9.12837e-07
-4.10948e-07
1.646e-07
6.76589e-07
-8.58485e-07
-4.41526e-07
-2.86117e-07
2.94964e-07
8.519e-07
-3.74915e-07
1.92536e-07
5.08513e-07
9.27606e-07
-4.81933e-07
-4.57659e-07
9.39592e-07
-2.6344e-07
-2.13503e-07
-8.80412e-07
5.0669e-07
7.21886e-07
-3.33181e-07
-2.53616e-07
3.11443e-07
2.41449e-07
-5.8761e-07
3.46161e-07
-1.36732e-07
-5.05238e-08
1.22451e-06
4.15732e-07
5.11874e-07
-4.28993e-07
-4.71868e-07
8.49715e-07
3.81039e-07
5.31798e-07
-9.45007e-07
5.16013e-07
-9.53801e-07
-5.14695e-07
3.83558e-07
-1.42109e-07
-1.03856e-07
-2.60436e-07
-4.41926e-07
-3.97168e-07
3.13031e-07
-7.65222e-09
-8.69125e-07
5.83008e-07
-3.82346e-07
-4.98066e-07
3.03222e-07
-2.75476e-07
-6.68311e-07
3.92056e-07
-2.92598e-07
7.99287e-07
4.97335e-08
6.06182e-09
-4.74794e-07
-4.70212e-07
-7.35389e-07
8.21685e-08
3.2067e-07
9.16721e-07
-3.29302e-07
5.50248e-08
2.48549e-07
1.35009e-07
-2.67407e-07
7.38216e-07
4.57974e-07
-3.11822e-07
-1.46152e-07
1.90567e-07
3.5587e-07
-2.02986e-07
8.51572e-07
-6.48585e-07
6.04419e-07
8.61871e-07
-6.76892e-08
-6.95468e-07
7.7723e-07
-2.68717e-07
7.99004e-07
5.01753e-07
6.05101e-07
-3.55513e-07
5.04901e-07
2.94386e-07
-7.20087e-07
-1.8326e-07
5.47198e-08
-4.8658e-08
1.9481e-07
-5.98017e-08
2.33003e-07
-9.16334e-07
1.96246e-07
1.97471e-07
2.14691e-07
4.70852e-07
-2.94097e-07
7.35766e-07
-2.50901e-07
-8.99487e-07
8.39415e-07
-6.43169e-07
-1.04026e-07
-3.39567e-07
3.64703e-07
-2.51359e-08
-6.88446e-07
-8.07027e-08
2.0844e-07
2.2836e-07
-4.77551e-07
-3.32426e-07
-2.3699e-08
-3.6509e-07
3.95694e-07
-3.29132e-07
2.65628e-07
2.09572e-07
-1.162e-08
-4.89908e-09
5.16147e-08
1.17717e-07
1.71597e-07
1.88403e-07
1.73065e-07
1.59654e-07
-4.04922e-07
3.71161e-07
3.37611e-08
-7.37639e-07
-2.59877e-07
4.3473e-07
-2.42872e-07
1.30542e-07
1.14258e-07
1.6062e-07
7.25578e-08
-7.2192e-07
-3.39025e-07
1.36743e-07
1.08057e-07
-1.2584e-07
6.60384e-08
1.52822e-07
1.07162e-07
-3.7671e-07
5.01435e-08
2.13947e-08
-8.18341e-07
4.67157e-08
2.90782e-07
-2.9011e-07
-1.14811e-07
1.05737e-07
-1.20832e-06
2.34971e-07
-9.8085e-08
4.32193e-07
3.02139e-07
3.20274e-07
-1.62615e-07
-9.81797e-07
-1.36851e-07
-8.36654e-07
1.07099e-07
-8.68936e-09
-1.34152e-07
2.20815e-08
-1.54076e-07
-2.30055e-07
-6.73166e-08
9.98438e-08
5.25514e-08
-2.15167e-07
-4.22772e-07
-3.39254e-07
-5.6285e-08
1.7802e-07
-2.14538e-07
1.40549e-07
-3.10757e-07
-3.90015e-07
1.50668e-07
2.83192e-07
-2.79457e-08
-1.19535e-07
1.47481e-07
-1.72168e-08
-5.65142e-07
4.82856e-09
-2.0618e-07
-5.97244e-07
-4.9629e-07
-1.72168e-08
-2.37194e-07
1.01742e-07
-5.15983e-08
2.64111e-07
-1.87705e-07
3.22907e-07
3.46002e-07
9.69053e-08
-4.00128e-07
1.86625e-07
8.38503e-07
-7.33453e-08
-4.03546e-07
2.13885e-07
1.89661e-07
-1.72295e-07
-2.21657e-07
-2.15143e-07
-4.56747e-07
-1.59659e-07
-5.32874e-07
4.75136e-07
9.75161e-07
7.46308e-07
-7.6327e-07
4.44083e-07
-4.14881e-08
-2.02808e-07
-3.94248e-07
6.09478e-08
1.32399e-08
3.94248e-07
-6.09478e-08
2.36276e-07
4.44083e-07
2.08871e-07
-4.1927e-07
6.19521e-07
7.78157e-07
-5.50467e-07
1.34292e-07
-8.52645e-08
-3.19892e-08
7.38222e-08
-1.79083e-10
-4.25334e-08
3.02667e-08
-1.9086e-07
-5.58528e-08
-8.52645e-08
5.80415e-08
-1.97045e-09
-4.37224e-07
5.98623e-08
1.31539e-07
-7.08256e-08
-2.90261e-08
4.25334e-08
-6.59687e-09
-3.02667e-08
-5.66983e-09
1.9086e-07
-3.51246e-08
-1.31539e-07
-2.41964e-08
7.08256e-08
-5.80415e-08
7.38222e-08
-4.37224e-07
-6.49766e-07
-6.34785e-07
2.06734e-08
-3.96177e-07
6.9114e-07
1.79283e-07
-2.52628e-07
1.32012e-07
3.75851e-07
1.34989e-07
7.97818e-07
-5.78171e-07
4.54312e-08
-4.51382e-07
3.75851e-07
1.27339e-07
-3.07907e-07
2.25259e-07
-1.71769e-07
8.41491e-07
3.02696e-07
7.46652e-08
-3.02696e-07
-1.90827e-07
2.53679e-07
-6.28527e-08
-7.94399e-07
-5.04049e-08
1.88799e-07
-3.73751e-07
3.93646e-07
8.89172e-07
-4.40337e-07
-4.75651e-07
3.81607e-07
4.42913e-07
-1.53672e-07
3.24934e-07
-4.54007e-08
-2.33742e-07
3.63817e-07
1.98102e-07
-4.73842e-07
4.73842e-07
-3.51968e-07
-3.11217e-07
-2.82707e-07
3.24934e-07
2.51616e-07
-7.34925e-07
2.81107e-07
-1.5647e-07
-2.7862e-07
2.37593e-07
1.02067e-08
5.96271e-07
-7.6117e-07
-2.01203e-07
2.01203e-07
-4.03671e-08
-2.28025e-07
-5.13821e-08
5.13821e-08
-4.39289e-08
4.39289e-08
-2.47175e-07
3.98179e-08
6.15943e-08
-4.03581e-07
6.14989e-07
-2.11407e-07
4.25227e-07
-4.25227e-07
1.88846e-07
1.38894e-07
2.8191e-07
6.1081e-08
-6.38001e-07
2.19114e-07
-9.22689e-10
2.13444e-07
-3.98608e-07
-6.34802e-07
2.28e-08
2.12178e-08
-1.54981e-07
-4.39133e-08
-1.16329e-07
1.20788e-07
5.06422e-10
-1.16836e-07
-7.84072e-07
-3.42694e-08
-4.3005e-07
-2.3491e-07
-5.40149e-07
1.43973e-07
-6.73166e-08
7.64172e-08
2.29783e-07
8.06794e-08
-1.46175e-07
-1.2999e-07
1.2999e-07
1.54523e-07
2.91001e-07
-5.07235e-07
-1.19789e-07
-1.21794e-07
1.21794e-07
-7.15329e-07
3.93318e-08
2.25846e-08
2.41311e-08
-5.15713e-10
-6.99042e-07
5.00859e-07
1.98183e-07
-3.23532e-07
1.01136e-07
2.22396e-07
-5.30821e-08
-5.57083e-07
1.87911e-07
-1.65327e-07
-2.04954e-07
-4.68057e-08
4.68057e-08
1.71672e-07
6.6095e-08
-1.51066e-07
-3.3093e-07
-4.32339e-07
-2.56713e-08
9.83645e-08
4.43943e-08
-1.5186e-07
-2.84251e-07
-4.14791e-07
-2.13888e-07
2.25095e-07
8.09859e-09
-5.58317e-09
-1.54076e-07
-8.89968e-08
1.38922e-07
-3.21673e-07
9.16176e-08
-2.28e-08
7.25805e-07
-1.29699e-07
2.54524e-07
2.13441e-07
5.12363e-07
4.69918e-09
2.49825e-07
5.47675e-07
3.28768e-07
1.71928e-07
1.51582e-07
9.00063e-08
2.46607e-08
-2.77183e-07
2.72483e-07
3.64609e-07
-1.12007e-07
1.3703e-07
-7.40563e-08
-4.1165e-08
2.49879e-07
-1.94855e-07
7.61116e-07
1.99372e-08
-6.60062e-07
-2.82967e-08
1.87027e-07
1.36094e-07
-2.10499e-07
2.91037e-07
1.40673e-07
-2.4571e-07
6.61686e-09
4.01686e-07
-2.57714e-07
3.66562e-07
2.0473e-07
1.52451e-07
-1.82649e-07
-2.8542e-08
-7.37633e-07
1.79818e-08
-2.70825e-07
1.15478e-07
4.86154e-08
1.63053e-07
5.87029e-07
-1.72279e-07
1.15524e-07
-1.83147e-07
2.74764e-07
6.27637e-09
-8.33038e-09
)
;

boundaryField
{
    back
    {
        type            empty;
        value           nonuniform List<scalar> 0();
    }
    front
    {
        type            empty;
        value           nonuniform List<scalar> 0();
    }
    top
    {
        type            calculated;
        value           nonuniform List<scalar> 10(-4.368e-07 -4.752e-07 -3.6e-07 -2.448e-07 -2.448e-07 -3.6e-07 -4.368e-07 -9.12e-08 -9.12e-08 -4.752e-07);
    }
    outer_arc
    {
        type            calculated;
        value           uniform 0;
    }
    bottom
    {
        type            calculated;
        value           nonuniform List<scalar> 10(7.69149e-07 3.88789e-07 1.65191e-08 -1.69332e-07 -3.32719e-07 9.97516e-07 -2.33178e-07 1.06094e-06 -1.05523e-07 8.23835e-07);
    }
    inner_arc
    {
        type            calculated;
        value           uniform 0;
    }
}


// ************************************************************************* //
