/*--------------------------------*- C++ -*----------------------------------*\
  =========                 |
  \\      /  F ield         | OpenFOAM: The Open Source CFD Toolbox
   \\    /   O peration     | Website:  https://openfoam.org
    \\  /    A nd           | Version:  9
     \\/     M anipulation  |
\*---------------------------------------------------------------------------*/
FoamFile
{
    format      ascii;
    class       volScalarField;
    location    "0.7";
    object      p;
}
// * * * * * * * * * * * * * * * * * * * * * * * * * * * * * * * * * * * * * //

dimensions      [0 2 -2 0 0 0 0];

internalField   nonuniform List<scalar> 
90
(
-2.76704e-21
1.54919e-21
1.45825e-21
2.00201e-21
1.91414e-21
1.90183e-21
-2.79269e-21
5.58524e-23
1.50635e-21
7.01571e-22
-8.81126e-22
1.45965e-21
-8.93196e-22
1.58551e-21
2.60426e-21
2.90233e-22
3.69991e-21
1.36629e-21
1.029e-21
2.5699e-21
1.92218e-21
8.33727e-22
6.81267e-22
2.93683e-21
1.04461e-21
8.0364e-22
2.07638e-21
9.84367e-22
1.61292e-21
-1.27608e-22
5.52463e-22
-7.47738e-22
8.21746e-22
5.65723e-22
1.08451e-21
4.36684e-23
1.51262e-21
3.6799e-21
2.07532e-22
2.00672e-21
1.24719e-21
1.36859e-21
5.09576e-22
-2.11493e-21
2.20883e-22
1.80359e-21
1.99751e-21
8.40865e-22
2.18776e-21
3.19732e-21
3.11775e-21
3.92558e-21
1.04368e-21
5.04663e-23
4.10996e-21
1.26427e-21
-8.56649e-22
4.97661e-22
1.82033e-21
-1.61243e-23
1.55969e-21
1.33877e-21
2.56444e-22
1.31007e-21
1.8489e-21
1.6993e-21
2.33578e-21
2.31613e-21
3.25508e-21
2.19082e-21
6.54668e-22
1.22731e-21
1.58535e-21
1.45944e-21
5.20554e-22
3.85554e-21
3.93264e-21
3.8521e-22
1.10955e-21
1.12517e-21
4.15007e-21
-8.30362e-22
5.93131e-22
3.69906e-22
1.85915e-21
3.17847e-21
-2.18048e-22
-2.99164e-22
8.95085e-22
3.07112e-21
)
;

boundaryField
{
    back
    {
        type            empty;
    }
    front
    {
        type            empty;
    }
    bottom
    {
        type            zeroGradient;
    }
    outer_arc
    {
        type            zeroGradient;
    }
    right
    {
        type            uniformFixedValue;
        uniformValue    
        {
            type            scale;
            scale           
            {
                type            squarePulse;
                start           0.3;
                duration        0.3;
            }
            xScale          
            {
                type            constant;
                value           1;
            }
            value           
            {
                type            constant;
                value           15.1;
            }
        }
        value           uniform 0;
    }
    inner_arc
    {
        type            zeroGradient;
    }
}


// ************************************************************************* //
