/*--------------------------------*- C++ -*----------------------------------*\
  =========                 |
  \\      /  F ield         | OpenFOAM: The Open Source CFD Toolbox
   \\    /   O peration     | Website:  https://openfoam.org
    \\  /    A nd           | Version:  9
     \\/     M anipulation  |
\*---------------------------------------------------------------------------*/
FoamFile
{
    format      ascii;
    class       surfaceScalarField;
    location    "0.7";
    object      phi;
}
// * * * * * * * * * * * * * * * * * * * * * * * * * * * * * * * * * * * * * //

dimensions      [0 3 -1 0 0 0 0];

internalField   nonuniform List<scalar> 
122
(
-2.15103e-28
-2.04227e-28
3.22164e-28
-8.62974e-29
4.60849e-29
2.73976e-29
-7.20842e-28
9.73342e-28
-2.29952e-28
-2.13153e-28
-4.57764e-28
3.24898e-30
-4.55319e-29
1.01526e-27
-2.33733e-28
-8.60887e-28
-2.32978e-28
5.75533e-28
-3.21654e-28
8.90267e-28
1.66384e-28
1.65581e-28
3.5091e-28
-5.09824e-28
-1.14534e-28
2.24266e-28
-1.55462e-28
3.38774e-28
-2.4025e-28
-4.88385e-29
2.89527e-28
3.15351e-28
6.56625e-28
-8.29582e-29
-1.58285e-28
-1.10388e-28
3.52219e-28
3.85458e-30
-2.01941e-29
5.50884e-29
-4.84042e-29
-8.47632e-28
1.25245e-27
-3.83925e-28
4.72639e-29
-1.76572e-28
4.07311e-28
-6.12112e-28
2.16947e-28
-9.60704e-28
5.19996e-28
9.04198e-29
3.34479e-29
-5.17461e-28
7.79163e-28
-4.0372e-28
7.41863e-28
-6.14614e-28
-2.95817e-28
1.49728e-28
-1.13903e-28
-5.64211e-28
-2.95063e-28
5.0563e-28
-4.28014e-28
5.18641e-28
4.67331e-29
1.72621e-28
-1.57118e-28
1.21833e-28
2.96508e-28
-1.99541e-28
-1.605e-28
-2.34333e-28
3.09727e-28
-1.64355e-28
-3.38277e-28
-9.17157e-28
1.45398e-28
-1.34968e-29
-2.00019e-28
1.47935e-28
-2.20483e-28
8.14258e-28
2.49984e-28
-1.10594e-28
-1.44345e-28
-2.29165e-29
-2.54171e-28
-5.96913e-28
8.25589e-28
1.98657e-29
1.00773e-28
6.00581e-28
-7.90745e-28
2.33248e-28
-6.7744e-30
-1.07182e-27
8.48095e-28
-4.09358e-28
4.16307e-28
1.72627e-28
-4.22153e-28
2.8562e-28
-3.58124e-28
4.28809e-28
-1.80402e-28
6.1461e-29
-1.06978e-28
1.55969e-28
7.06142e-29
-3.88933e-28
5.12945e-28
2.36526e-28
-2.16698e-28
3.83395e-29
6.71194e-28
5.31118e-28
-3.91205e-28
-7.61095e-28
7.73505e-28
-6.24849e-28
)
;

boundaryField
{
    back
    {
        type            empty;
        value           nonuniform List<scalar> 0();
    }
    front
    {
        type            empty;
        value           nonuniform List<scalar> 0();
    }
    bottom
    {
        type            calculated;
        value           uniform 0;
    }
    outer_arc
    {
        type            calculated;
        value           uniform 0;
    }
    right
    {
        type            calculated;
        value           nonuniform List<scalar> 4(-5.47379e-28 1.28394e-27 5.24322e-30 1.46136e-27);
    }
    inner_arc
    {
        type            calculated;
        value           uniform 0;
    }
}


// ************************************************************************* //
