/*--------------------------------*- C++ -*----------------------------------*\
  =========                 |
  \\      /  F ield         | OpenFOAM: The Open Source CFD Toolbox
   \\    /   O peration     | Website:  https://openfoam.org
    \\  /    A nd           | Version:  9
     \\/     M anipulation  |
\*---------------------------------------------------------------------------*/
FoamFile
{
    format      ascii;
    class       volVectorField;
    location    "0.7";
    object      U;
}
// * * * * * * * * * * * * * * * * * * * * * * * * * * * * * * * * * * * * * //

dimensions      [0 1 -1 0 0 0 0];

internalField   nonuniform List<vector> 
90
(
(4.35019e-23 -4.741e-21 2.70552e-37)
(1.3394e-21 4.76078e-22 1.73052e-37)
(7.25769e-21 1.79253e-20 9.11771e-38)
(8.79404e-21 1.10656e-20 -9.02982e-38)
(-3.11759e-21 -4.69254e-22 -1.60783e-37)
(8.45828e-22 5.79513e-22 -1.37485e-37)
(-1.10759e-20 -3.02557e-21 -3.26304e-37)
(2.77048e-20 -9.84037e-21 4.36314e-38)
(5.03196e-21 1.30455e-20 0)
(2.94215e-20 -1.23345e-20 0)
(1.22966e-20 -1.0758e-21 -2.20635e-38)
(-3.39425e-21 7.60528e-21 -7.20574e-38)
(5.0164e-21 -2.19423e-21 -1.11576e-38)
(-3.30244e-22 2.55784e-21 5.3416e-38)
(1.33961e-21 1.28668e-20 0)
(-4.0943e-21 6.06052e-21 0)
(3.4466e-21 4.6046e-21 2.72598e-37)
(1.43478e-20 2.13928e-20 -2.94009e-38)
(3.82829e-21 1.18689e-20 0)
(-1.47044e-21 9.33966e-21 1.74119e-37)
(2.66401e-21 -4.05419e-21 1.06649e-37)
(-4.27569e-22 1.07029e-21 4.83796e-38)
(3.10583e-20 4.10111e-22 3.3272e-38)
(-1.77967e-21 7.65525e-21 -1.7082e-37)
(2.02753e-20 -5.46073e-21 -4.6242e-38)
(2.9638e-20 6.61912e-21 -2.50725e-38)
(1.21568e-20 -5.53086e-21 -1.09089e-37)
(6.49532e-22 2.2886e-21 4.12036e-38)
(1.93799e-20 1.86295e-20 0)
(2.11228e-20 -4.71155e-21 -1.28467e-38)
(2.95311e-20 -5.57601e-21 1.31758e-38)
(1.01394e-20 2.04019e-21 -1.39009e-38)
(1.29085e-21 -6.13126e-21 -4.40955e-39)
(1.96954e-20 -3.75219e-21 -7.14398e-38)
(9.65948e-21 -2.80389e-21 1.96951e-38)
(-1.82209e-21 4.37482e-21 -1.0357e-39)
(9.50771e-21 5.33779e-21 0)
(5.30906e-21 5.39781e-21 0)
(-1.1268e-21 -2.70743e-21 -1.23302e-38)
(6.17884e-22 4.37499e-21 1.89444e-38)
(-8.94666e-22 4.77848e-21 -5.28959e-38)
(-1.21592e-21 6.80922e-21 -1.24748e-37)
(9.97787e-21 1.77652e-21 5.78847e-39)
(3.35804e-21 -6.2069e-21 3.11215e-38)
(3.39046e-20 -1.1929e-20 1.54662e-38)
(1.79019e-21 -3.33999e-21 -7.47564e-38)
(-5.48258e-21 1.05386e-22 5.32226e-38)
(1.20047e-20 2.067e-20 3.45201e-38)
(4.74048e-22 1.06695e-20 -1.17639e-37)
(-1.25651e-21 7.99989e-21 -2.0734e-38)
(9.41428e-23 7.03071e-21 0)
(-2.06317e-22 2.35488e-21 -1.40974e-37)
(2.52022e-20 8.4301e-21 -1.02412e-39)
(2.93668e-22 2.84081e-22 0)
(-1.14787e-21 1.204e-21 2.82505e-37)
(2.68412e-20 1.12669e-20 -2.54818e-40)
(2.36208e-22 -1.12604e-20 -3.92833e-38)
(1.16106e-21 -2.03698e-21 0)
(3.92578e-20 -9.25352e-21 0)
(1.90729e-20 6.31727e-21 2.03408e-38)
(-1.03867e-21 1.06044e-20 7.6468e-38)
(1.71774e-20 9.41529e-21 0)
(8.95499e-21 4.33561e-21 -1.19843e-38)
(6.45831e-21 1.41462e-20 -2.65377e-38)
(2.24627e-21 9.63323e-21 1.09179e-37)
(8.79361e-21 5.85858e-21 7.41426e-38)
(1.31143e-21 7.60994e-21 0)
(2.87183e-21 7.98248e-22 0)
(1.37733e-20 9.62046e-21 -1.47477e-38)
(1.69667e-20 8.66057e-21 4.60772e-38)
(1.6075e-20 1.92006e-20 0)
(3.13686e-20 -8.12872e-21 7.00966e-38)
(1.77816e-20 1.05132e-20 0)
(1.56246e-20 8.92332e-21 7.68395e-38)
(2.22609e-20 1.67766e-20 -4.65215e-38)
(-5.41756e-21 2.3368e-21 -1.33087e-37)
(1.27661e-20 8.68641e-22 -5.44709e-38)
(5.82422e-21 4.73747e-21 0)
(2.69255e-20 1.32187e-21 5.78166e-38)
(4.04541e-20 -2.45615e-21 1.27621e-37)
(7.58823e-21 3.72418e-21 -1.733e-37)
(2.15788e-20 -1.46352e-20 1.71651e-38)
(-1.89992e-21 -1.2647e-21 -8.20266e-38)
(2.10356e-20 1.889e-20 1.97094e-38)
(2.75358e-20 1.01628e-20 -2.32106e-38)
(2.20964e-21 8.61472e-22 8.75705e-38)
(2.602e-20 -1.41652e-20 -8.42461e-39)
(1.87226e-20 -8.78157e-21 -2.85854e-38)
(2.2663e-20 1.36542e-20 -9.39574e-38)
(1.77096e-20 -2.40771e-21 -6.78836e-38)
)
;

boundaryField
{
    back
    {
        type            empty;
    }
    front
    {
        type            empty;
    }
    bottom
    {
        type            uniformFixedValue;
        uniformValue    
        {
            type            scale;
            scale           
            {
                type            squarePulse;
                start           0.3;
                duration        0.3;
            }
            xScale          
            {
                type            constant;
                value           1;
            }
            value           
            {
                type            constant;
                value           (0 0.7 0);
            }
        }
        value           uniform (0 0 0);
    }
    outer_arc
    {
        type            noSlip;
    }
    right
    {
        type            zeroGradient;
    }
    inner_arc
    {
        type            noSlip;
    }
}


// ************************************************************************* //
