/*--------------------------------*- C++ -*----------------------------------*\
  =========                 |
  \\      /  F ield         | OpenFOAM: The Open Source CFD Toolbox
   \\    /   O peration     | Website:  https://openfoam.org
    \\  /    A nd           | Version:  9
     \\/     M anipulation  |
\*---------------------------------------------------------------------------*/
FoamFile
{
    format      ascii;
    class       surfaceScalarField;
    location    "0.26";
    object      phi;
}
// * * * * * * * * * * * * * * * * * * * * * * * * * * * * * * * * * * * * * //

dimensions      [0 3 -1 0 0 0 0];

internalField   nonuniform List<scalar> 
816
(
-1.32e-10
-4.06e-09
4.19e-09
-6.01e-10
-7.74e-09
8.34e-09
6.75e-09
-6.88e-09
1.08e-08
-1.07e-08
-9.08e-11
4.48e-09
-4.48e-09
1.01e-08
1.8e-09
-1.19e-08
4.7e-09
-4.7e-09
-5.11e-09
5.11e-09
-9.02e-09
-1.66e-09
1.07e-08
-4.02e-09
3.42e-09
1.47e-08
-4.58e-09
1.23e-08
-8.75e-09
-3.56e-09
2.78e-09
7.18e-09
-9.96e-09
1.15e-08
-1.08e-08
-7.69e-10
1.16e-08
-1.03e-08
-1.35e-09
-7.39e-09
1.22e-08
-4.8e-09
2.8e-09
4.46e-09
-7.25e-09
-1.17e-08
7.84e-10
1.09e-08
1.41e-09
1.09e-08
5.09e-09
-1.41e-08
8e-09
2.83e-09
8.48e-10
-8.24e-09
7.71e-09
-1.49e-09
-6.22e-09
-7.4e-09
-3.22e-09
1.06e-08
-7.98e-09
5.75e-10
-1.03e-08
2.32e-09
8.01e-09
-9.62e-09
1.07e-08
-1.13e-09
1.23e-10
3.04e-09
-3.16e-09
3.12e-09
-1.09e-08
3.95e-09
8.24e-09
-6.5e-09
6.63e-09
-7.36e-09
9.17e-09
1.52e-08
-1.13e-08
-1.19e-08
5.89e-09
6.04e-09
8.51e-10
1.08e-08
-2.02e-09
1.03e-08
8.7e-10
1.07e-08
-1.84e-09
-8.49e-09
-1.29e-08
4.59e-09
8.31e-09
2.79e-09
1.68e-09
-3.61e-09
-3.69e-09
3.27e-09
-9.99e-09
-2.94e-10
-8.69e-09
-2.01e-09
1.07e-08
2.85e-09
1.85e-09
-3.85e-09
9.72e-09
-1.14e-08
-6.15e-09
-9.17e-09
-4.49e-10
-2.85e-10
3.37e-09
-3.08e-09
9.43e-09
-6.65e-09
7.73e-09
-1.25e-11
-4.17e-09
-7.76e-09
5.19e-09
4.78e-09
3.28e-09
-1.09e-08
7.62e-09
-1.49e-09
-8.69e-09
1.19e-08
-9.06e-09
3.28e-09
-5.3e-09
2.02e-10
-2.48e-09
6.94e-09
7.72e-09
-6.94e-09
-6.01e-10
-1.02e-08
-5.38e-09
-6.12e-09
1.15e-08
-1.1e-08
9.97e-10
1.02e-08
4.98e-09
6.7e-09
7.98e-09
-4.08e-09
1.33e-08
-9.2e-09
2.31e-09
8.39e-09
-1.07e-08
-2.09e-09
-7.65e-09
4.79e-09
-1.02e-08
8.29e-09
4.47e-09
-1.28e-08
4.5e-09
8.26e-09
-1.28e-08
4.21e-09
-4.21e-09
-4.86e-09
9.95e-09
-7.29e-09
2.43e-09
1.2e-08
1.57e-09
2.62e-09
-4.19e-09
-1.11e-08
1.73e-09
9.37e-09
-4.06e-09
4.43e-09
-4.43e-09
-4.45e-09
4.45e-09
5.12e-09
-1.15e-08
6.39e-09
-3.28e-09
-5.62e-10
3.37e-09
-8.59e-09
1.19e-08
1.96e-11
-7.88e-09
7.86e-09
-6.95e-09
-1.8e-10
7.13e-09
4.24e-09
-6.04e-09
1.12e-08
4.31e-11
-8.58e-09
8.54e-09
7.62e-09
4.42e-09
-1.2e-08
-8.87e-09
1.11e-09
7.34e-09
-8.45e-09
-4.98e-09
-5.19e-09
-4.02e-09
-5.57e-10
1.13e-08
-3.15e-10
-1.07e-08
-6.77e-09
9.08e-09
-1.03e-08
6.92e-09
3.43e-09
6.16e-09
5.52e-09
4.44e-09
-8.69e-10
1.15e-08
-7.41e-09
3.61e-09
-3.28e-09
9.28e-11
-4.3e-09
3.88e-09
6.38e-09
1.07e-08
7.76e-09
-1.14e-08
3.64e-09
-4.33e-09
-6.01e-09
-2.86e-09
-7.88e-09
-3.21e-10
-9.16e-09
9.49e-09
3.55e-10
-7.31e-09
1.05e-08
-4.93e-09
-4.75e-10
8.48e-09
-5.35e-09
8.97e-10
2.41e-09
8.85e-09
-8.52e-10
-9.16e-10
8.97e-09
-9.79e-09
8.16e-10
-6.23e-09
-4.86e-09
-9.48e-09
6.93e-09
2.55e-09
-9.23e-09
-1.07e-09
1.08e-08
-2.83e-10
-1.05e-08
1.04e-08
-1.48e-09
-3.15e-09
1.08e-08
-2.79e-09
2.79e-09
9.98e-09
8.34e-10
3.95e-10
-9.42e-09
9.02e-09
3.27e-11
-8.78e-09
-9.87e-09
-1.53e-09
7.58e-09
-7.87e-09
8.79e-11
-3.3e-09
3.21e-09
1.22e-09
7.67e-09
1.59e-10
7.68e-09
-7.84e-09
-3.27e-09
-8.17e-10
9.12e-09
5.75e-10
6.49e-09
-7.06e-09
-6.63e-09
4.72e-09
1.91e-09
-9.77e-09
8.7e-09
-1.16e-08
1.77e-10
1.15e-08
-4.6e-09
4.6e-09
3.28e-09
4.12e-10
2.38e-09
-9.74e-10
-1.1e-08
1.2e-08
-4.26e-10
-8.74e-09
1.08e-08
-7.69e-09
-2.36e-09
1.05e-08
-8.18e-09
2.62e-09
3.57e-10
-1.2e-08
-9.81e-09
-3.3e-09
-9.14e-09
9.32e-09
-3.37e-09
3.37e-09
-9.19e-09
-3.21e-09
8.29e-09
-9.26e-09
-7.17e-09
4.8e-09
-4.02e-09
1.51e-08
-1.11e-08
-5.2e-10
-8.62e-09
3.69e-09
-3.66e-09
-3.56e-09
3.96e-09
4.05e-10
-2.78e-09
2.38e-09
5.18e-11
8.24e-09
6.96e-09
4.54e-09
-4.58e-09
1.15e-08
-9.38e-09
-4.8e-09
4.28e-09
2.55e-11
-7.6e-09
7.57e-09
3.75e-09
-3.7e-09
6.44e-10
-8.36e-09
7.71e-09
7.13e-09
-7.69e-09
7.39e-09
-7.41e-10
-8.67e-09
-6.63e-09
-5.3e-09
-4.62e-09
-4.87e-09
-1.09e-08
-7.18e-10
1.16e-08
-3.29e-09
3.32e-09
-1.07e-08
-7.28e-10
1.14e-08
9.43e-09
-1.14e-10
-8.77e-09
-4.96e-10
-3.42e-09
-8.27e-09
1.3e-08
-4.71e-09
-4.8e-09
4.32e-09
4.87e-10
-4.72e-09
4.3e-09
-9.72e-09
9.48e-09
2.39e-10
9.21e-09
-8.7e-09
-5.06e-10
-7.17e-09
1.18e-08
-3.5e-09
-9.28e-10
-1.23e-08
7.48e-09
4.06e-09
4.26e-10
-7.02e-10
-1.06e-08
-1.8e-10
6.67e-09
-1.22e-08
-4.69e-10
1.04e-08
1.24e-08
-4.94e-09
7.2e-09
6.81e-09
2.05e-09
2.2e-09
-2.38e-09
1.06e-08
7.41e-09
8.23e-10
-6.75e-09
7.16e-09
4.16e-09
-4.28e-09
-4.19e-09
3.7e-09
-6.66e-09
-8.43e-09
1.37e-08
-5.22e-09
-3.29e-09
-3.5e-09
-2.78e-09
-1.37e-09
-6.84e-09
-4.8e-09
4.16e-09
-4.19e-09
-2.61e-09
-1.88e-10
6.62e-09
-6.43e-09
3.75e-09
4.54e-09
4.54e-10
4.3e-09
3.21e-09
-3.32e-09
-7.03e-10
-3.56e-09
-7.97e-09
-4.55e-09
1.25e-08
7.71e-09
-7.48e-10
-9.04e-09
1.37e-10
9.03e-09
6.25e-10
-2.19e-09
1.57e-09
-3.08e-09
8.89e-09
-1.03e-08
8.05e-11
1.29e-08
-1.19e-08
2.19e-09
-2.38e-09
4.32e-09
4.22e-09
-1.6e-11
1.73e-09
-5.38e-09
-1.58e-09
-1.07e-08
1.24e-09
5e-09
8.65e-09
6.86e-09
-8.84e-09
1.38e-08
-1.05e-08
2.5e-09
2.2e-09
-3.96e-09
-4.82e-09
-8.34e-09
1.32e-08
3.66e-09
-1.34e-08
-5.4e-09
1.41e-08
-5.53e-09
1.32e-08
9.03e-09
4.26e-10
-2.33e-09
2.33e-09
-4.42e-09
-8e-09
9.7e-09
8.85e-09
6.23e-09
-3.37e-09
3.37e-09
-4.22e-09
-1.74e-09
-4.08e-09
3.21e-09
8.65e-10
4.08e-09
-7.06e-10
-1.23e-09
-4.42e-09
-9.74e-09
-9.48e-09
1.89e-09
-1.43e-08
5.12e-09
9.2e-09
-5.29e-09
7.3e-10
-8.65e-09
1.46e-08
-5.9e-09
-1.4e-08
5.3e-09
5.44e-09
-8.53e-09
1.37e-08
7.27e-09
-1.27e-08
-9.71e-10
6.17e-10
4.62e-09
-7.63e-09
8.76e-09
-4.51e-09
-7.44e-09
1.19e-08
-8.22e-09
1.47e-08
-5.96e-09
1.1e-08
4.75e-09
9.97e-09
1.15e-08
-1.27e-08
-1.21e-08
6.18e-09
9.14e-09
-1.48e-08
9.24e-09
-4.87e-09
9.4e-09
-1.72e-09
-8.02e-09
-4.65e-09
4.89e-09
9.66e-09
1.44e-08
-3.14e-09
-6.16e-09
9.3e-09
-2.67e-09
2.67e-09
-2.4e-09
2.4e-09
2.9e-09
-2.9e-09
2.81e-09
-2.81e-09
2.79e-09
2.85e-09
9.01e-09
-1.22e-08
3.23e-09
-3.85e-09
9.03e-09
5.42e-09
4.15e-09
-4.15e-09
-4.3e-09
4.46e-09
-4.46e-09
-1.29e-08
4.9e-09
8.05e-09
-2.48e-09
-1.39e-08
8.64e-09
5.28e-09
-2.69e-09
2.69e-09
-1.23e-08
4.86e-09
7.39e-09
-4.31e-09
-8.14e-09
-7.9e-09
7.72e-09
-3.61e-09
8.08e-09
-2.92e-09
-1.13e-08
-1.23e-08
7.73e-09
3.24e-09
2.3e-10
4.13e-10
4.47e-10
-7.7e-09
-1.39e-08
7.89e-09
5.98e-09
-8.97e-09
-4.36e-09
-3.97e-09
-2.87e-10
4.73e-09
-1.12e-08
5.07e-09
-6.37e-09
-9.01e-09
1.52e-08
-4.37e-09
-8.5e-09
3.53e-09
4.98e-09
-9.6e-10
-9.9e-09
4.49e-10
9.45e-09
-3.43e-09
2.91e-09
-2.91e-09
-1.75e-10
-5.9e-09
-4.96e-09
-5.63e-09
1.01e-08
1.06e-08
-3.23e-09
-1.02e-08
-7.19e-09
-5.08e-10
1.27e-08
-6.3e-09
-4.99e-09
-9.18e-09
-6.87e-09
-9.89e-09
-1.75e-09
-6.13e-09
-2.66e-09
-5.91e-09
-4.61e-09
-8.15e-09
-1.15e-08
-2.41e-09
9.34e-09
-8.17e-09
-7.28e-09
-9.22e-09
8.51e-09
-9.7e-09
1.19e-09
-3.14e-09
-6.63e-10
-9.66e-10
8.58e-09
-3.14e-09
-1.74e-09
1.21e-08
2.13e-09
-1.42e-08
1.35e-08
4.52e-09
6.18e-09
-5.17e-09
9.89e-09
3.02e-09
-3.02e-09
9.02e-09
1.7e-09
4.26e-09
1.63e-09
-7.5e-09
8.26e-09
-1.15e-08
1.21e-08
7.4e-09
6.06e-09
-1.07e-08
4.64e-09
-6.27e-10
1.2e-08
-4e-09
6.92e-09
9.27e-09
-7.14e-09
5.92e-10
3.04e-09
-7.98e-09
4.28e-09
4.07e-09
4.8e-09
7.15e-09
-9.13e-09
1.38e-09
-6.61e-09
1.24e-09
8.06e-09
-7.34e-09
7.77e-09
1.71e-09
-7.16e-09
2.97e-09
-3.46e-10
3.81e-09
-1.15e-08
-4.52e-10
-1.29e-08
1.33e-09
-2.6e-10
2.37e-09
9.05e-10
-7.68e-09
1.08e-08
9.19e-10
-1.08e-08
-3.16e-09
2.97e-09
8.46e-09
-6.56e-09
-7.73e-09
-4.52e-09
7.09e-09
4.45e-09
-8.01e-09
2.37e-09
4.52e-09
-1.07e-08
-1.05e-08
1.04e-08
-2.79e-10
-6.31e-09
-5.68e-09
5.68e-09
4.06e-09
-1.13e-08
-5.76e-09
5.76e-09
-7.8e-09
-1.08e-08
-8.27e-09
-8.39e-09
4.29e-09
4.16e-09
9.9e-09
-2.81e-09
-6.76e-09
7.42e-09
7.98e-09
-1.17e-08
5.12e-09
-6.12e-09
6.35e-09
-7.61e-09
-6.1e-09
-4.6e-09
-5.74e-09
-1.9e-09
-7.54e-09
-3.25e-09
4.61e-09
-5.97e-09
5.69e-09
1.3e-09
9.47e-09
-2.23e-10
-1.12e-08
-9.85e-09
-5.92e-09
-9.57e-10
-7.48e-09
-9.51e-10
-1.41e-09
-1.87e-09
-4.67e-09
4.71e-09
9.42e-09
-1.07e-09
-6.52e-09
-1.39e-10
6.53e-09
7.87e-09
-8.55e-09
-8.56e-09
-8.95e-09
-9.31e-09
-3.63e-09
2.54e-09
1.32e-09
)
;

boundaryField
{
    front
    {
        type            empty;
        value           nonuniform List<scalar> 0();
    }
    back
    {
        type            empty;
        value           nonuniform List<scalar> 0();
    }
    bottom
    {
        type            calculated;
        value           nonuniform List<scalar> 
12
(
3.85e-09
1.03e-08
8.2e-09
8.35e-09
6e-09
1.57e-09
1.58e-09
9.24e-09
1.06e-08
9.93e-09
6.06e-09
3.8e-09
)
;
    }
    left
    {
        type            calculated;
        value           uniform 0;
    }
    top
    {
        type            calculated;
        value           nonuniform List<scalar> 8(-9.96e-09 -9.96e-09 -9.91e-09 -9.91e-09 -9.91e-09 -9.96e-09 -9.96e-09 -9.91e-09);
    }
    right
    {
        type            calculated;
        value           uniform 0;
    }
    inner_arc
    {
        type            calculated;
        value           uniform 0;
    }
}


// ************************************************************************* //
