/*--------------------------------*- C++ -*----------------------------------*\
  =========                 |
  \\      /  F ield         | OpenFOAM: The Open Source CFD Toolbox
   \\    /   O peration     | Website:  https://openfoam.org
    \\  /    A nd           | Version:  9
     \\/     M anipulation  |
\*---------------------------------------------------------------------------*/
FoamFile
{
    format      ascii;
    class       volVectorField;
    location    "0.26";
    object      U;
}
// * * * * * * * * * * * * * * * * * * * * * * * * * * * * * * * * * * * * * //

dimensions      [0 1 -1 0 0 0 0];

internalField   nonuniform List<vector> 
578
(
(-0.101 -0.126 0)
(-0.0558 -0.217 2.8e-16)
(-0.156 -0.193 -1.04e-16)
(0.0178 -0.262 -2.17e-17)
(0.0338 -0.0738 -5.09e-17)
(0.013 -0.309 -8.09e-17)
(-0.0357 -0.077 5.03e-17)
(0.0437 -0.0817 -4.07e-20)
(0.22 -0.297 -1.77e-16)
(-0.0351 -0.135 4.67e-16)
(0.0152 -0.33 -1.13e-16)
(0.131 -0.26 0)
(0.0139 -0.276 9.17e-17)
(0.142 -0.272 -6.82e-16)
(-0.145 -0.277 3.41e-16)
(0.207 -0.227 -8.31e-17)
(-0.155 -0.163 4.09e-16)
(-0.258 -0.226 0)
(0.12 -0.236 0)
(0.229 -0.281 1.19e-16)
(0.0181 -0.29 0)
(0.157 -0.206 0)
(0.114 -0.111 -4.81e-16)
(-0.00297 -0.255 0)
(-0.00542 -0.206 0)
(0.116 -0.236 3.55e-16)
(-0.017 -0.253 -4.39e-17)
(-0.00296 -0.128 3e-17)
(-0.0489 -0.261 -4.3e-16)
(0.22 -0.24 3.37e-16)
(-0.00774 -0.22 -4.52e-16)
(0.0124 -0.259 9.23e-17)
(0.258 -0.268 -3e-16)
(-0.0094 -0.278 1.68e-16)
(-0.122 -0.245 -3.38e-16)
(0.183 -0.195 -5.36e-16)
(0.119 -0.239 6.72e-16)
(0.11 -0.218 0)
(-0.208 -0.228 -3.3e-16)
(0.0543 -0.116 0)
(0.0576 -0.13 -4.07e-16)
(0.0745 -0.136 4.67e-16)
(0.0624 -0.126 0)
(-0.133 -0.244 0)
(0.217 -0.197 4.33e-17)
(-0.0569 -0.12 0)
(-0.0601 -0.136 4.03e-16)
(0.208 -0.284 -4.28e-17)
(-0.206 -0.229 4.93e-16)
(-0.0236 -0.294 -9.42e-17)
(0.00359 -0.123 1.62e-17)
(0.0234 -0.283 -3.87e-16)
(0.183 -0.141 -1.96e-16)
(-0.0101 -0.281 0)
(0.00177 -0.266 3.28e-16)
(-0.0113 -0.324 7.3e-16)
(0.0489 -0.0384 9.66e-16)
(0.164 -0.125 -3.85e-16)
(-0.188 -0.211 -6.38e-16)
(0.107 -0.12 2.24e-16)
(-0.226 -0.234 3.37e-16)
(-0.159 -0.117 0)
(-0.246 -0.181 5.13e-17)
(0.131 -0.241 3.16e-16)
(-0.00705 -0.278 8.61e-17)
(-0.17 -0.283 1.82e-16)
(0.257 -0.285 -3.66e-17)
(0.0278 -0.323 2.65e-16)
(0.26 -0.244 -1.56e-16)
(0.133 -0.286 3.69e-16)
(-0.00204 -0.223 0)
(0.00382 -0.215 -1.31e-17)
(5.9e-05 -0.273 -9.39e-17)
(0.134 -0.29 0)
(0.00288 -0.354 1.65e-16)
(0.0394 -0.0749 0)
(0.178 -0.236 2.33e-16)
(0.137 -0.183 -2.07e-16)
(0.00893 -0.279 0)
(-0.0955 -0.107 -1.21e-16)
(0.101 -0.244 -3.29e-16)
(-0.0492 -0.0761 -4.33e-16)
(0.0298 -0.0802 -1.96e-16)
(0.05 -0.0734 2e-16)
(-0.256 -0.295 -4.43e-17)
(-0.0463 -0.109 0)
(0.00181 -0.0713 0)
(-0.0104 -0.349 -2.63e-16)
(0.0871 -0.199 2.53e-20)
(-0.099 -0.224 3.34e-18)
(-0.0155 -0.272 0)
(-0.234 -0.277 8.96e-17)
(-0.09 -0.204 0)
(0.031 -0.307 1.66e-16)
(0.224 -0.243 5.19e-16)
(0.152 -0.222 -4.7e-16)
(0.000105 -0.268 9.29e-17)
(0.00674 -0.269 -6.65e-16)
(-0.0108 -0.0834 -8.5e-16)
(-0.138 -0.274 0)
(-0.163 -0.255 0)
(0.121 -0.27 -6.1e-16)
(-0.0289 -0.296 0)
(-0.159 -0.169 0)
(-0.00538 -0.267 0)
(0.134 -0.27 -5.09e-16)
(0.00414 -0.324 -1.75e-16)
(0.0638 -0.128 0)
(-0.026 -0.0642 0)
(0.0801 -0.145 -4.98e-16)
(0.189 -0.215 -1.41e-16)
(0.129 -0.274 0)
(0.235 -0.269 3.56e-16)
(0.177 -0.243 -3.07e-16)
(0.187 -0.241 3.39e-16)
(-0.0237 -0.284 3.75e-16)
(0.0246 -0.291 1.87e-16)
(-0.142 -0.256 -2.93e-16)
(-0.0839 -0.192 5.33e-17)
(-0.0067 -0.269 3.26e-16)
(0.0964 -0.192 -3.49e-16)
(0.0814 -0.127 2.69e-20)
(0.13 -0.266 -3.58e-16)
(0.0116 -0.242 -4.99e-17)
(0.0671 -0.124 0)
(-0.116 -0.269 3.81e-16)
(0.0666 -0.247 -3.55e-16)
(0.263 -0.262 -1.69e-16)
(-0.138 -0.294 1.92e-16)
(-0.111 -0.273 0)
(-0.138 -0.283 0)
(-0.12 -0.278 0)
(0.033 -0.312 0)
(0.0261 -0.0515 4.59e-16)
(-0.136 -0.29 -3.5e-16)
(-0.138 -0.216 0)
(0.116 -0.218 0)
(-0.0122 -0.275 -3.21e-16)
(0.14 -0.246 3.55e-16)
(-0.119 -0.236 0)
(-0.0592 -0.113 5.36e-16)
(-0.11 -0.269 0)
(-0.103 -0.2 0)
(0.000855 -0.218 0)
(0.0517 -0.101 0)
(-0.235 -0.258 -6.22e-22)
(-0.0949 -0.2 4.29e-16)
(-0.0233 -0.204 0)
(0.136 -0.287 3.72e-16)
(-0.113 -0.265 0)
(0.179 -0.298 0)
(-0.0803 -0.104 0)
(0.0482 -0.0492 0)
(0.047 -0.0924 5.36e-16)
(-0.153 -0.298 -3.41e-16)
(-0.0237 -0.263 -1.98e-16)
(-0.0551 -0.294 3.74e-16)
(0.0367 -0.284 -8.8e-17)
(-0.0404 -0.0408 -1.13e-16)
(0.191 -0.301 -2.94e-16)
(0.169 -0.28 4.23e-16)
(0.161 -0.249 4.37e-16)
(-0.0318 -0.0608 -6.89e-18)
(0.157 -0.259 0)
(-0.000235 -0.0667 6.51e-20)
(-0.114 -0.253 -2.36e-21)
(-0.000477 -0.123 -5.26e-16)
(-0.134 -0.258 0)
(0.0262 -0.208 -1.04e-16)
(-0.0224 -0.328 -1.47e-16)
(0.147 -0.222 0)
(0.0681 -0.124 0)
(-0.0795 -0.128 0)
(-0.0469 -0.0928 -5.4e-16)
(-0.116 -0.22 0)
(-0.00937 -0.288 -8.77e-17)
(-0.000486 -0.293 -8.88e-17)
(-0.136 -0.252 3.39e-16)
(0.0867 -0.137 5.76e-17)
(-0.00571 -0.219 2.14e-16)
(-0.0692 -0.126 0)
(-0.104 -0.204 0)
(-0.0788 -0.2 0)
(0.00951 -0.289 6.63e-16)
(-0.166 -0.243 2.45e-16)
(-0.0154 -0.15 -3.65e-16)
(0.068 -0.0869 -1.96e-16)
(-0.141 -0.293 8.93e-17)
(-0.165 -0.304 3.55e-16)
(-0.00387 -0.125 -5.31e-16)
(0.162 -0.3 -3.55e-16)
(0.133 -0.23 0)
(0.107 -0.144 4.78e-16)
(-0.124 -0.23 0)
(-0.0713 -0.129 0)
(-0.00496 -0.328 1.66e-16)
(0.0134 -0.168 9.45e-16)
(-0.013 -0.165 -7.49e-16)
(-0.132 -0.23 0)
(0.123 -0.228 0)
(0.0178 -0.156 -3.55e-16)
(0.0203 -0.302 -8.4e-16)
(0.0417 -0.14 -2.42e-16)
(-0.0134 -0.323 0)
(-0.00233 -0.304 -2.67e-16)
(0.135 -0.257 0)
(-0.154 -0.258 0)
(-0.189 -0.203 0)
(0.169 -0.304 3.62e-16)
(-0.0601 -0.0717 0)
(-0.0776 -0.161 4.38e-16)
(-0.172 -0.308 -3.46e-16)
(-0.13 -0.274 -1.16e-17)
(0.00691 -0.314 8.6e-17)
(-0.113 -0.228 -2.12e-16)
(0.0107 -0.264 0)
(-0.145 -0.266 -3.89e-16)
(0.144 -0.264 3.9e-16)
(-0.158 -0.307 3.58e-16)
(-0.041 -0.081 -5.63e-16)
(0.155 -0.302 1.83e-16)
(-0.127 -0.249 0)
(0.0861 -0.173 -4.27e-16)
(0.0773 -0.139 0)
(-0.0738 -0.139 0)
(-0.0864 -0.173 8.61e-16)
(0.00104 -0.343 -8.18e-17)
(0.0113 -0.107 1.39e-19)
(-0.00924 -0.105 2.03e-16)
(-0.00101 -0.0664 4.32e-16)
(-0.0266 -0.0737 -4.37e-16)
(0.0132 -0.0761 -2.19e-16)
(-0.026 -0.0519 -4.56e-16)
(0.0874 -0.22 0)
(-0.0894 -0.224 0)
(0.0492 -0.0744 1.5e-16)
(0.042 -0.0782 0)
(-0.0427 -0.0785 0)
(0.0346 -0.299 1.34e-16)
(0.0771 -0.16 0)
(-0.0366 -0.0673 0)
(0.0367 -0.0639 0)
(-0.00589 -0.337 -3.37e-16)
(-0.0622 -0.118 0)
(-0.00687 -0.0903 8.11e-16)
(0.0284 -0.0584 0)
(-0.0309 -0.0584 -4.36e-16)
(-0.0122 -0.139 9.71e-16)
(-0.0415 -0.0624 0)
(-0.0134 -0.33 -8.35e-17)
(0.00485 -0.324 8.48e-17)
(-0.124 -0.279 0)
(0.0186 -0.226 0)
(0.0304 -0.0743 -4.41e-18)
(0.00231 -0.0631 0)
(0.108 -0.263 3.75e-16)
(-0.00129 -0.125 5.24e-16)
(-0.192 -0.304 -5.42e-16)
(0.0443 -0.0747 0)
(0.0127 -0.137 5.26e-16)
(0.0408 -0.0805 5.58e-16)
(-0.0394 -0.0711 4.33e-16)
(0.00468 -0.0897 -8.25e-16)
(0.00696 -0.153 5.35e-16)
(-0.0946 -0.235 3.08e-16)
(0.104 -0.217 7.49e-16)
(0.0628 -0.154 0)
(0.019 -0.0397 -4.62e-16)
(-0.00279 -0.0689 -4.41e-16)
(0.0103 -0.0371 0)
(-0.0104 -0.0375 0)
(-0.123 -0.274 -3.61e-16)
(0.0818 -0.187 0)
(-0.000349 -0.351 -2.42e-16)
(0.0169 -0.314 -1.8e-16)
(-0.00679 -0.353 -4.82e-16)
(-0.0151 -0.307 1.91e-16)
(-0.0191 -0.04 0)
(-0.0771 -0.137 0)
(-0.00846 -0.346 -4.19e-16)
(0.0727 -0.138 0)
(-0.0118 -0.346 7.32e-16)
(0.00427 -0.354 0)
(0.0117 -0.332 -8.27e-17)
(-0.0064 -0.358 1.62e-16)
(-0.0524 -0.102 -5.19e-16)
(0.0229 -0.0441 -9.11e-16)
(-0.023 -0.0445 4.59e-16)
(-0.00179 -0.0538 0)
(-0.00128 -0.123 -5.01e-16)
(0.1 -0.242 0)
(-0.13 -0.282 1.15e-17)
(-0.0193 -0.333 1.47e-16)
(-0.0437 -0.072 0)
(0.00223 -0.068 0)
(0.00604 -0.138 6.23e-17)
(0.0388 -0.0708 -4.34e-16)
(0.109 -0.268 -8.51e-16)
(0.00121 -0.131 1.18e-16)
(0.00224 -0.136 -4.61e-16)
(-0.0106 -0.328 4.32e-16)
(-0.103 -0.247 0)
(0.000964 -0.0776 4.18e-16)
(0.000415 -0.064 0)
(0.00388 -0.0831 0)
(-0.0013 -0.0821 7.89e-16)
(0.11 -0.26 3.7e-16)
(-0.00445 -0.261 -9.12e-16)
(-0.00275 -0.368 -3.14e-16)
(-0.00248 -0.363 0)
(0.0939 -0.199 2.15e-16)
(-0.000575 -0.369 2.34e-16)
(-0.000726 -0.374 -4.93e-16)
(-0.0827 -0.189 0)
(-0.00578 -0.362 3.25e-16)
(0.0096 -0.348 3.41e-16)
(-0.123 -0.264 0)
(-0.0307 -0.0748 0)
(-0.0634 -0.155 0)
(-0.00787 -0.347 -4.08e-16)
(-0.104 -0.215 -4.26e-16)
(0.0026 -0.36 6.49e-16)
(-0.0133 -0.341 8.36e-17)
(-0.00293 -0.339 -2.65e-16)
(-0.0135 -0.312 3.45e-16)
(0.00565 -0.356 -1.53e-16)
(-0.181 -0.301 3.28e-16)
(-0.108 -0.209 0)
(0.15 -0.295 0)
(0.00418 -0.362 6.03e-16)
(-0.0209 -0.297 8.94e-17)
(-0.202 -0.294 -1.29e-16)
(3.79e-05 -0.369 1.6e-16)
(0.00832 -0.341 -3.38e-16)
(-0.0952 -0.189 6.35e-16)
(-0.00424 -0.362 1.64e-16)
(0.0208 -0.331 -1.51e-16)
(0.00957 -0.336 -3.47e-16)
(0.000904 -0.264 0)
(-0.0156 -0.311 0)
(0.012 -0.341 -1.69e-16)
(0.00902 -0.341 2.49e-16)
(-0.0013 -0.372 2.34e-16)
(-0.000873 -0.228 3.7e-16)
(-0.00266 -0.371 2.36e-16)
(0.145 -0.204 -1.07e-16)
(0.0757 -0.267 2.02e-16)
(-0.0226 -0.0537 -4.55e-16)
(0.0218 -0.0508 1.16e-16)
(-0.024 -0.0571 4.47e-16)
(0.0242 -0.0567 0)
(0.0249 -0.0519 4.57e-16)
(-0.0258 -0.053 2.28e-16)
(-0.00202 -0.34 -1.68e-16)
(0.0285 -0.0619 0)
(-0.0297 -0.0661 0)
(-0.00174 -0.371 -2.36e-16)
(-0.0394 -0.0746 -4.21e-16)
(0.0567 -0.0909 0)
(-0.0568 -0.0925 0)
(-0.00373 -0.367 -2.58e-16)
(-0.0507 -0.0454 0)
(-0.000798 -0.374 8.02e-17)
(0.0228 -0.0554 5.09e-16)
(-0.00168 -0.375 -8.2e-17)
(0.0011 -0.321 -3.53e-16)
(-0.00381 -0.371 8.38e-17)
(0.11 -0.26 3.75e-16)
(0.0248 -0.322 1.48e-16)
(-0.151 -0.126 0)
(0.116 -0.26 0)
(-0.142 -0.0906 -4.77e-17)
(-0.214 -0.201 3.51e-16)
(0.0836 -0.279 -1.82e-16)
(-0.265 -0.282 -1.78e-16)
(0.139 -0.0847 3.6e-16)
(-0.0223 -0.309 -8.86e-17)
(-0.0447 -0.106 -5.58e-16)
(0.0444 -0.102 4.02e-16)
(-0.0803 -0.189 -4.29e-16)
(-0.00154 -0.266 -3.36e-16)
(0.0435 -0.105 -2.8e-16)
(-0.0449 -0.107 0)
(0.00931 -0.35 -4.04e-16)
(0.00314 -0.361 2.39e-16)
(-0.00361 -0.341 5.08e-16)
(-0.00871 -0.0831 -5.35e-16)
(-0.0652 -0.133 4.95e-16)
(-0.0808 -0.146 0)
(0.0415 -0.1 -3.46e-16)
(0.00506 -0.266 1.67e-16)
(0.0424 -0.279 0)
(0.0258 -0.307 3.61e-16)
(0.112 -0.25 -1.8e-16)
(-0.269 -0.257 2.97e-16)
(0.0319 -0.201 1.99e-16)
(0.253 -0.178 3.21e-18)
(0.00454 -0.329 4.7e-16)
(0.0149 -0.253 4.1e-16)
(-0.0045 -0.111 5.54e-16)
(-0.266 -0.272 -5.89e-16)
(0.00403 -0.117 -5.07e-16)
(-0.0205 -0.143 2.53e-16)
(-0.0294 -0.262 2.8e-16)
(-0.019 -0.273 0)
(-0.023 -0.302 0)
(0.249 -0.216 0)
(-0.0675 -0.241 6.21e-16)
(0.0224 -0.333 -4.25e-16)
(0.0599 -0.296 -3.58e-16)
(-0.0228 -0.271 -7.4e-16)
(-0.104 -0.265 9.63e-17)
(-0.00637 -0.314 -6.32e-21)
(-0.0955 -0.229 -8.29e-16)
(-0.0953 -0.264 -9.42e-17)
(0.0389 -0.317 8.51e-17)
(0.101 -0.227 -4.29e-16)
(-0.105 -0.232 -2.1e-16)
(0.137 -0.292 0)
(-0.0287 -0.32 8.71e-17)
(-0.124 -0.277 4.87e-17)
(-0.000268 -0.0616 -4.35e-20)
(0.141 -0.294 0)
(-0.134 -0.273 5.35e-16)
(-0.12 -0.268 0)
(0.113 -0.262 -1.94e-16)
(0.0449 -0.108 6.43e-16)
(-0.0169 -0.298 -4.23e-16)
(0.0243 -0.0621 -4.17e-16)
(0.117 -0.272 0)
(-0.225 -0.278 0)
(0.00199 -0.365 -1.62e-16)
(0.195 -0.2 -9.29e-17)
(0.0161 -0.27 0)
(-0.0255 -0.0598 -2.19e-16)
(0.128 -0.279 -1.84e-16)
(0.0972 -0.219 0)
(-0.079 -0.288 -3.63e-16)
(0.0765 -0.195 0)
(-0.0423 -0.311 3.61e-16)
(-0.071 -0.291 -2.87e-16)
(0.0186 -0.321 0)
(0.0343 -0.298 1.93e-16)
(0.00647 -0.273 0)
(-0.219 -0.299 0)
(-0.0125 -0.356 3.48e-16)
(0.00113 -0.222 -3.31e-16)
(-0.176 -0.217 -3.75e-16)
(-0.145 -0.195 5.37e-16)
(0.00218 -0.0641 0)
(-0.143 -0.294 9.51e-17)
(-0.017 -0.269 0)
(-0.126 -0.266 -1.78e-20)
(0.0145 -0.267 1.63e-16)
(-0.15 -0.305 -3.41e-16)
(-0.00868 -0.234 0)
(-0.0175 -0.217 -6.98e-18)
(0.105 -0.233 1.9e-16)
(-0.00163 -0.356 5.17e-16)
(-0.167 -0.247 0)
(0.0498 -0.214 4.31e-16)
(-0.0702 -0.0757 2.6e-16)
(-0.0402 -0.321 -1.36e-16)
(0.0447 -0.113 -3.09e-16)
(-0.00517 -0.365 8.42e-17)
(0.176 -0.251 -4.56e-20)
(-0.0483 -0.118 0)
(0.0696 -0.0715 -2.63e-16)
(-0.0323 -0.327 1.8e-16)
(0.121 -0.261 -5.65e-16)
(0.00672 -0.309 -4.06e-16)
(-0.00577 -0.0713 0)
(-0.0339 -0.0419 0)
(-0.0334 -0.276 2.01e-16)
(0.00161 -0.336 -3.57e-16)
(0.122 -0.26 1.77e-16)
(0.12 -0.272 3.87e-16)
(0.0283 -0.0329 2.25e-16)
(0.0845 -0.104 1.01e-16)
(0.149 -0.167 1.75e-16)
(-0.00396 -0.315 0)
(0.00814 -0.358 1.67e-16)
(-0.233 -0.252 -2.77e-16)
(0.00239 -0.354 -8.46e-16)
(-0.0315 -0.295 1.56e-16)
(0.0915 -0.222 2.14e-16)
(0.00353 -0.313 2.93e-16)
(-0.00255 -0.15 0)
(-0.0291 -0.283 0)
(-0.206 -0.291 -1.76e-16)
(0.00292 -0.151 -1.86e-16)
(-0.239 -0.279 4.1e-17)
(0.12 -0.269 2.26e-17)
(0.0461 -0.308 4.68e-17)
(-0.0312 -0.32 -1.79e-16)
(-0.0443 -0.107 5.41e-16)
(-0.00973 -0.259 2.03e-16)
(-0.129 -0.283 1.9e-16)
(-0.0139 -0.269 1.62e-16)
(0.0133 -0.27 0)
(0.136 -0.286 -1.93e-16)
(-0.016 -0.346 -3.51e-16)
(0.0783 -0.188 0)
(0.0157 -0.329 5.22e-16)
(-0.208 -0.244 1.1e-16)
(-0.0441 -0.309 0)
(-0.0819 -0.189 2.34e-16)
(0.0311 -0.315 0)
(-0.0832 -0.195 4.33e-16)
(-0.0492 -0.3 0)
(0.00889 -0.271 3.64e-16)
(0.11 -0.212 0)
(0.00849 -0.227 -4.38e-16)
(-0.0878 -0.206 -2.45e-16)
(-0.103 -0.232 -5.29e-17)
(-6.31e-05 -0.135 -4.78e-16)
(0.131 -0.274 1.96e-16)
(0.0865 -0.2 0)
(0.00216 -0.243 0)
(0.0502 -0.298 3.73e-16)
(-0.00153 -0.335 -2.61e-16)
(0.0871 -0.193 -3.51e-16)
(-0.00243 -0.361 8.45e-17)
(0.0764 -0.178 0)
(0.112 -0.25 2.18e-16)
(0.0118 -0.308 -5.1e-16)
(0.00285 -0.254 2.74e-16)
(0.0238 -0.259 -2.15e-16)
(0.206 -0.258 9.02e-17)
(-0.0139 -0.249 2.2e-16)
(0.123 -0.169 0)
(0.147 -0.3 0)
(-0.0112 -0.141 -4.59e-16)
(0.00682 -0.317 0)
(0.0607 -0.287 4.33e-16)
(-0.0763 -0.107 -2.69e-16)
(0.00259 -0.202 0)
(-0.0974 -0.221 -2.78e-16)
(-0.147 -0.167 -2.72e-17)
(-0.0307 -0.244 4.55e-16)
(0.0326 -0.247 2.55e-19)
(0.0401 -0.294 -2.44e-17)
(0.0782 -0.11 0)
(0.0886 -0.204 2.44e-16)
(0.0349 -0.251 0)
(-0.00883 -0.319 -1.9e-16)
(-0.00109 -0.249 0)
(-0.145 -0.222 0)
(0.24 -0.267 -9.05e-17)
(0.0918 -0.213 2.25e-16)
(0.216 -0.213 2.56e-17)
(-0.143 -0.288 -1.09e-16)
(0.114 -0.258 -1.88e-16)
(-0.2 -0.265 9.14e-17)
(0.142 -0.227 -1.1e-16)
(-0.017 -0.348 -8.78e-17)
(0.202 -0.293 -2.31e-16)
(0.000561 -0.358 1.01e-16)
(0.0102 -0.314 1.02e-16)
(-0.0366 -0.314 5.44e-17)
(-0.0385 -0.311 0)
(-0.119 -0.172 0)
(0.0759 -0.175 -5.35e-16)
(-0.0544 -0.297 0)
(0.0543 -0.296 -2.03e-16)
(0.000997 -0.293 0)
(0.0275 -0.28 2.02e-16)
(-0.0275 -0.326 1.33e-16)
(-0.0512 -0.293 -2.19e-16)
(0.049 -0.291 -2.17e-16)
(-0.122 -0.27 2.01e-16)
(-0.167 -0.222 0)
(0.188 -0.186 -1.58e-16)
(-0.0293 -0.303 -4.31e-16)
(-0.21 -0.243 1.02e-16)
(-0.00036 -0.299 0)
(-0.215 -0.248 2.18e-16)
(-0.176 -0.195 0)
)
;

boundaryField
{
    front
    {
        type            empty;
    }
    back
    {
        type            empty;
    }
    bottom
    {
        type            zeroGradient;
    }
    left
    {
        type            noSlip;
    }
    top
    {
        type            uniformFixedValue;
        uniformValue    
        {
            type            table;
            format          csv;
            file            "inlet_v.csv";
            nHeaderLine     1;
            refColumn       0;
            componentColumns List<label> 3(1 2 3);
            separator       ",";
            mergeSeparators 0;
        }
        value           uniform (0 -0.265 0);
    }
    right
    {
        type            noSlip;
    }
    inner_arc
    {
        type            noSlip;
    }
}


// ************************************************************************* //
