/*--------------------------------*- C++ -*----------------------------------*\
  =========                 |
  \\      /  F ield         | OpenFOAM: The Open Source CFD Toolbox
   \\    /   O peration     | Website:  https://openfoam.org
    \\  /    A nd           | Version:  9
     \\/     M anipulation  |
\*---------------------------------------------------------------------------*/
FoamFile
{
    format      ascii;
    class       volScalarField;
    location    "2.37";
    object      p;
}
// * * * * * * * * * * * * * * * * * * * * * * * * * * * * * * * * * * * * * //

dimensions      [0 2 -2 0 0 0 0];

internalField   nonuniform List<scalar> 
942
(
13.6861
13.6949
13.6947
13.6947
13.6938
13.6889
13.6905
13.6889
13.6946
13.6949
13.7023
13.6904
13.695
13.703
13.6899
13.6954
13.6996
13.6873
13.694
13.6987
13.6992
13.6893
13.6783
13.7009
13.7021
13.7019
13.7012
13.6797
13.7034
13.6856
13.7016
13.7008
13.7029
13.6821
13.7031
13.6693
13.6723
13.6977
13.6722
13.7011
13.6773
13.6763
13.6984
13.6911
13.6884
13.6997
13.6902
13.682
13.6758
13.7028
13.6946
13.6771
13.6688
13.6947
13.6947
13.6736
13.692
13.6944
13.6923
13.6855
13.689
13.7023
13.6818
13.6828
13.6958
13.6943
13.7022
13.6871
13.6735
13.6916
13.6961
13.6926
13.6952
13.6901
13.6961
13.6988
13.6987
13.703
13.7015
13.695
13.6894
13.7031
13.7011
13.6948
13.6938
13.6971
13.6855
13.6913
13.7031
13.7009
13.6768
13.7043
13.6948
13.6746
13.673
13.6988
13.675
13.6918
13.6893
13.6943
13.6909
13.6948
13.6907
13.691
13.674
13.6835
13.6996
13.7003
13.6859
13.688
13.673
13.6735
13.6868
13.6934
13.7023
13.704
13.6879
13.6936
13.6947
13.6818
13.6852
13.6724
13.6931
13.6953
13.6954
13.7002
13.6717
13.6986
13.6984
13.6633
13.6918
13.6949
13.6886
13.68
13.6826
13.6974
13.669
13.6861
13.6708
13.674
13.677
13.6976
13.688
13.6976
13.6892
13.7027
13.6914
13.6918
13.6702
13.698
13.6887
13.6833
13.7041
13.6895
13.7037
13.6723
13.6939
13.6941
13.6868
13.6987
13.6931
13.6721
13.6958
13.6902
13.6834
13.7038
13.6904
13.6888
13.7004
13.6895
13.6844
13.675
13.6733
13.6812
13.6956
13.6907
13.699
13.6911
13.6748
13.6902
13.6894
13.7015
13.6706
13.6904
13.6893
13.7031
13.6909
13.6968
13.6975
13.6893
13.7018
13.6891
13.6814
13.7025
13.6976
13.6938
13.6996
13.6829
13.6795
13.6913
13.6969
13.6933
13.6974
13.7001
13.6896
13.6758
13.6731
13.6974
13.695
13.697
13.6988
13.6933
13.6931
13.7017
13.6985
13.6892
13.6966
13.7033
13.7005
13.7011
13.686
13.6884
13.6875
13.6917
13.6923
13.7008
13.702
13.6823
13.6886
13.7021
13.7042
13.6986
13.7029
13.6907
13.688
13.6935
13.7034
13.6849
13.7018
13.7016
13.7018
13.689
13.6839
13.6907
13.6908
13.6996
13.6794
13.6905
13.6819
13.7013
13.7015
13.6762
13.7024
13.7007
13.6898
13.6923
13.686
13.6874
13.7027
13.691
13.6848
13.7031
13.7027
13.6888
13.6775
13.6934
13.6908
13.6862
13.7023
13.6793
13.6767
13.6985
13.6785
13.7008
13.6992
13.7034
13.6962
13.6878
13.7014
13.6717
13.6897
13.6695
13.6731
13.6872
13.6981
13.6874
13.6873
13.6855
13.6889
13.6878
13.699
13.6791
13.7038
13.6744
13.6887
13.6976
13.6856
13.6869
13.6858
13.6888
13.6925
13.688
13.684
13.6811
13.6932
13.6839
13.6789
13.6909
13.6989
13.7044
13.6908
13.7014
13.6893
13.6956
13.6776
13.7038
13.6895
13.6933
13.6999
13.69
13.6981
13.7041
13.6895
13.6945
13.6816
13.7028
13.7024
13.6766
13.6789
13.6893
13.6976
13.6762
13.686
13.6828
13.6877
13.6964
13.6802
13.6956
13.696
13.6683
13.6928
13.6982
13.6785
13.6948
13.6899
13.6975
13.6916
13.6792
13.6848
13.6883
13.6961
13.6873
13.6782
13.6865
13.6941
13.688
13.6934
13.6777
13.6952
13.6977
13.6859
13.6877
13.6908
13.6776
13.6829
13.6912
13.6891
13.6911
13.6809
13.6982
13.6804
13.6941
13.6862
13.6807
13.6952
13.6898
13.6943
13.6914
13.6807
13.6886
13.697
13.6793
13.6773
13.664
13.6925
13.688
13.6841
13.6895
13.693
13.6872
13.6836
13.6667
13.6883
13.6921
13.6747
13.6867
13.6883
13.6806
13.6955
13.6656
13.6696
13.6817
13.6918
13.6886
13.6817
13.697
13.6715
13.6947
13.6809
13.6647
13.6953
13.69
13.6865
13.6872
13.6846
13.6817
13.6804
13.6848
13.6987
13.6831
13.6876
13.6831
13.688
13.6848
13.6836
13.6859
13.6961
13.6987
13.69
13.693
13.6913
13.689
13.6917
13.6987
13.6709
13.6866
13.6903
13.6855
13.6827
13.6912
13.6833
13.6882
13.6929
13.6918
13.6842
13.689
13.6963
13.6983
13.6849
13.6808
13.6958
13.6996
13.6989
13.6824
13.6973
13.6978
13.697
13.6952
13.6818
13.6989
13.6896
13.6915
13.7014
13.697
13.7003
13.6979
13.6873
13.6903
13.6909
13.7007
13.6917
13.6943
13.6929
13.687
13.6993
13.7032
13.6848
13.6967
13.6863
13.6995
13.6819
13.7001
13.6943
13.7
13.6854
13.6985
13.6886
13.6942
13.6869
13.7012
13.7015
13.6987
13.701
13.6956
13.6825
13.7027
13.6994
13.7035
13.6979
13.6842
13.6999
13.7007
13.6854
13.7018
13.6975
13.7024
13.6955
13.6954
13.7006
13.6944
13.6871
13.7012
13.7027
13.7007
13.7021
13.6852
13.7031
13.7023
13.6943
13.7004
13.6894
13.6966
13.6932
13.7018
13.6936
13.6929
13.7001
13.7019
13.6996
13.6925
13.6955
13.7007
13.6881
13.7017
13.7014
13.7021
13.7028
13.7024
13.6859
13.7028
13.6807
13.7018
13.6997
13.6882
13.7011
13.7021
13.7019
13.7009
13.7017
13.7022
13.7015
13.7023
13.7023
13.7012
13.7006
13.7018
13.7022
13.7005
13.7002
13.7011
13.7029
13.6864
13.6864
13.7024
13.7026
13.7019
13.7012
13.7031
13.7031
13.6926
13.7023
13.6991
13.702
13.7021
13.6907
13.7007
13.703
13.7027
13.7034
13.7037
13.6911
13.6913
13.6942
13.7026
13.6882
13.6888
13.7033
13.6909
13.6929
13.7002
13.6738
13.69
13.6946
13.6899
13.6894
13.6983
13.6896
13.6901
13.6917
13.6919
13.6913
13.6997
13.69
13.6917
13.6958
13.7014
13.692
13.6921
13.701
13.6919
13.6997
13.6922
13.6925
13.6923
13.6903
13.6939
13.6807
13.6944
13.6817
13.6987
13.6907
13.6986
13.6923
13.6934
13.6947
13.6966
13.69
13.6984
13.6908
13.6924
13.6979
13.7005
13.6801
13.678
13.6927
13.6967
13.7006
13.6911
13.6996
13.6923
13.6937
13.6918
13.6906
13.6839
13.6985
13.6893
13.6907
13.6897
13.6915
13.689
13.6912
13.7002
13.6892
13.6945
13.689
13.6964
13.6971
13.7004
13.6997
13.6966
13.695
13.6808
13.6952
13.6965
13.6947
13.6912
13.6819
13.6971
13.6741
13.7
13.6899
13.7014
13.6915
13.7025
13.6907
13.6943
13.6992
13.7021
13.6914
13.694
13.6787
13.7038
13.674
13.7036
13.7026
13.7012
13.699
13.7044
13.7032
13.7018
13.6889
13.7039
13.6896
13.7004
13.6994
13.7044
13.7041
13.6897
13.7023
13.7028
13.7009
13.6994
13.7044
13.7039
13.6893
13.6899
13.702
13.6823
13.7024
13.6913
13.695
13.7037
13.7004
13.6975
13.6889
13.7038
13.6992
13.7015
13.6927
13.7041
13.6892
13.6988
13.6994
13.6963
13.6887
13.6895
13.6897
13.6892
13.6959
13.6812
13.6952
13.6949
13.6951
13.6894
13.6912
13.6997
13.6732
13.6898
13.7039
13.6893
13.6932
13.6987
13.6966
13.6962
13.6751
13.6889
13.6912
13.7036
13.6907
13.6847
13.6919
13.7037
13.6921
13.6926
13.6897
13.6836
13.6845
13.6926
13.6945
13.7004
13.703
13.6943
13.701
13.6872
13.6944
13.6895
13.6891
13.7013
13.6979
13.6721
13.6929
13.6894
13.7038
13.6936
13.6996
13.6992
13.7026
13.6995
13.6897
13.7033
13.6904
13.6912
13.6964
13.6973
13.6941
13.6889
13.7039
13.6918
13.6754
13.6909
13.7012
13.6998
13.6951
13.6903
13.6898
13.6892
13.7043
13.6897
13.7033
13.6952
13.6978
13.695
13.6722
13.6936
13.6918
13.6776
13.6784
13.6946
13.6952
13.6732
13.694
13.6944
13.6997
13.6966
13.6932
13.6757
13.6734
13.7005
13.7034
13.6979
13.6939
13.6966
13.694
13.6785
13.7025
13.6962
13.6871
13.6995
13.6785
13.6905
13.6963
13.6942
13.6945
13.6796
13.6908
13.6891
13.6932
13.6974
13.6979
13.6896
13.7016
13.6761
13.6889
13.704
13.6764
13.6989
13.6928
13.6883
13.7016
13.6905
13.6782
13.68
13.6988
13.6965
13.6745
13.6757
13.6837
13.6741
13.6909
13.6821
13.696
13.6921
13.6994
13.6906
13.6776
13.6894
13.6975
13.696
13.7002
13.6906
13.6843
13.6909
13.6934
13.6889
13.6892
13.6893
13.7036
13.6735
13.6954
13.6891
13.6899
13.6898
13.6937
13.6755
13.6888
13.6914
13.6942
13.704
13.6892
13.6892
13.7025
13.7014
13.6907
13.6805
13.6888
13.673
13.6751
13.6958
13.6924
13.7042
13.7043
13.6778
13.6852
13.6895
13.6964
13.6953
13.7042
13.6726
13.6921
13.6973
13.6975
13.6929
13.6905
13.6767
13.6892
13.695
13.7004
13.6728
13.6946
13.6959
13.6973
13.6891
13.7004
13.6906
13.6971
13.6946
13.6898
13.7041
13.6931
13.675
13.6999
13.6953
13.6708
13.6891
13.694
13.6765
13.6764
13.6727
13.6958
13.6973
13.6916
13.6923
)
;

boundaryField
{
    back
    {
        type            empty;
    }
    front
    {
        type            empty;
    }
    top
    {
        type            zeroGradient;
    }
    outer_arc
    {
        type            zeroGradient;
    }
    bottom
    {
        type            uniformFixedValue;
        uniformValue    
        {
            type            table;
            format          csv;
            file            "outlet_p.csv";
            nHeaderLine     1;
            refColumn       0;
            componentColumns List<label> 1(1);
            separator       ",";
            mergeSeparators 0;
        }
        value           uniform 13.6905;
    }
    inner_arc
    {
        type            zeroGradient;
    }
}


// ************************************************************************* //
