/*--------------------------------*- C++ -*----------------------------------*\
  =========                 |
  \\      /  F ield         | OpenFOAM: The Open Source CFD Toolbox
   \\    /   O peration     | Website:  https://openfoam.org
    \\  /    A nd           | Version:  9
     \\/     M anipulation  |
\*---------------------------------------------------------------------------*/
FoamFile
{
    format      ascii;
    class       volScalarField;
    location    "0.03";
    object      p;
}
// * * * * * * * * * * * * * * * * * * * * * * * * * * * * * * * * * * * * * //

dimensions      [0 2 -2 0 0 0 0];

internalField   nonuniform List<scalar> 
1655
(
11.002
11.0427
10.9353
10.9715
10.8642
10.8964
10.9382
10.8244
10.8089
10.8668
10.9891
10.9917
10.8268
11.0903
10.8208
11.0172
10.9851
10.8134
10.9164
11.0914
11.0379
10.8076
10.8452
10.847
10.9999
10.9848
11.0195
10.8123
10.8136
11.0535
10.9437
10.9362
11.0948
10.9133
10.8159
10.9079
10.8944
11.0453
11.0973
11.0403
11.0366
10.8513
11.0977
10.9244
11.0577
10.9736
10.9692
11.0594
10.882
11.0958
10.8984
10.9385
10.8182
10.812
10.8161
10.8514
11.0279
10.9887
10.9757
10.8484
10.939
10.9084
11.0042
10.8243
10.9337
10.9477
10.9498
10.9845
10.8141
10.85
10.9864
10.9444
11.0492
10.824
10.9152
11.0693
10.8156
10.816
11.0305
11.0517
10.9361
11.0671
10.813
10.9264
11.0559
10.8449
10.9186
11.046
11.0272
10.8541
10.8537
10.9298
10.9183
10.8842
11.0821
10.9145
10.9483
10.9777
10.9315
11.081
10.9261
10.9419
10.8794
10.9403
10.8085
10.9065
10.8264
11.0548
11.0838
10.8563
11.0987
10.9938
10.8608
11.057
10.8338
10.8487
10.8291
10.9734
11.0243
10.8115
10.8624
10.9066
10.9286
10.9546
10.9453
10.8342
11.0965
11.0819
11.0113
11.0659
10.8892
11.0978
10.8259
10.8373
11.0511
11.037
10.8596
10.8194
11.0315
10.9524
10.8394
11.0154
11.0045
10.8927
10.9684
10.9036
10.8815
10.8593
10.8701
10.948
10.9363
10.9596
10.9134
10.9253
10.8416
11.0974
10.9325
10.889
10.8308
10.9376
10.8847
11.0192
10.8132
10.8947
10.8968
10.9801
10.8134
10.8349
10.9441
10.8138
10.9843
10.8208
10.875
10.8222
11.0526
10.8252
10.8868
10.8157
11.0601
11.0943
10.8494
10.8225
10.9004
10.9551
11.0485
11.0599
11.064
11.0622
10.8202
10.8258
11.0544
10.9104
10.8263
10.9438
11.0591
11.0539
10.8226
11.0618
11.0286
10.8276
10.9606
10.96
10.925
10.9353
10.8609
11.0337
11.0858
10.8282
11.0689
10.9149
10.9445
10.9457
11.0395
10.8332
11.0951
10.954
10.9039
11.0205
10.9514
10.8311
11.0624
11.0422
11.0924
10.8358
11.0893
11.0581
11.054
10.8563
10.9585
10.9624
11.0678
10.9728
10.9764
10.8201
11.0823
11.0705
11.0607
10.8321
11.0523
10.9868
10.8441
11.0506
10.9899
11.0483
10.8378
11.0446
10.9556
10.8162
11.0548
10.8325
10.9224
11.0496
10.864
10.9428
11.0792
10.9486
11.0733
10.8411
10.8131
11.0914
11.0248
11.056
11.0515
10.9502
10.8601
10.8385
11.0884
11.097
11.0893
11.0936
10.8109
10.8224
11.0534
11.0535
10.8221
10.8265
10.9599
10.8433
10.8175
11.0231
10.8225
10.8432
10.8286
10.8278
10.8316
10.8285
10.828
11.0882
11.0855
10.8202
10.8265
11.0404
11.0901
10.8224
10.8336
11.0712
10.8219
10.9555
11.0426
11.0687
11.0809
10.8843
10.8866
11.0645
11.0475
10.8208
11.0733
11.053
10.8395
11.0452
10.8346
10.9712
11.0555
11.0233
10.8356
10.8373
11.0382
10.8209
11.0412
11.0748
10.826
11.0894
11.085
11.0683
11.0776
10.9778
10.98
10.8403
11.0686
10.8714
11.0792
10.8316
11.0885
11.0487
10.838
11.0481
10.8684
11.0878
11.053
10.8342
11.0799
11.0581
10.8264
10.9656
10.8296
11.0618
11.0913
11.0704
11.0722
11.0493
10.8357
10.8623
10.9694
11.0782
10.8176
11.0391
11.0569
11.0505
10.8444
11.0354
10.838
11.0824
10.8161
11.0195
11.0755
10.8406
11.0666
10.8445
10.833
11.0609
11.0567
11.0821
11.066
11.0445
10.8534
10.8431
10.8814
10.8305
11.0647
11.0595
11.0681
11.0181
10.8394
11.0228
11.0662
10.8208
11.0408
10.8421
10.8328
11.0458
11.0257
10.8665
10.8783
10.8256
11.0555
11.0387
11.0352
10.8325
10.8177
10.8888
11.0467
11.0763
11.0148
10.8451
10.878
11.0756
10.8273
10.8699
11.0479
10.8814
10.8655
11.0095
11.0244
10.8781
11.0726
11.004
10.8306
10.9799
11.0279
11.035
10.8911
11.0128
10.903
11.0333
11.0347
10.9699
10.9832
11.0519
11.0463
10.9189
11.065
10.9054
11.0331
10.8721
11.0073
11.0043
11.0584
10.8639
10.8738
11.003
11.0069
11.0168
10.8739
11.0295
11.0225
11.0053
10.9091
10.8749
10.9129
10.8671
10.9204
10.9763
10.9259
11.0175
10.9242
11.0119
10.8921
11.0241
10.9152
10.9021
11.0185
11.0132
11.0199
10.9763
10.8907
10.8377
11.0189
11.0277
11.006
11.0154
11.0142
11.0622
11.0141
10.8744
10.9709
11.0113
11.0102
11.0004
10.9963
10.9111
11.0334
10.8847
11.0025
10.9237
11.0054
11.0084
10.9098
10.9185
10.8815
11.045
10.968
10.9075
11.0016
10.9358
10.9787
11.0063
10.9663
10.9157
11.0013
10.9344
10.9662
11.0073
10.9077
10.9684
10.9758
10.9712
10.9256
10.9686
10.9789
10.9171
10.8732
10.9762
10.9155
11.0025
10.9231
10.9388
10.9737
10.9872
10.9618
10.9538
10.9666
10.9796
11.0159
10.971
10.9565
10.9922
10.9713
10.9737
10.9868
10.9536
10.9664
10.9115
11.0171
10.9595
10.9028
11.0387
10.8822
10.9965
10.9394
10.9759
10.919
10.9466
10.9109
10.9678
11.0255
10.8946
11.0088
10.9511
10.9968
10.931
10.9886
10.9837
10.9721
10.9761
10.984
10.9714
10.8958
11.0016
10.94
10.9196
10.9736
10.9392
10.9956
10.9421
10.8961
10.9555
10.9792
11.0296
10.9298
10.9499
11.0119
10.9298
10.8833
10.9173
10.9435
10.9818
10.9811
10.8775
10.9636
11.0136
10.9737
10.9689
10.8892
10.9517
10.9381
10.9642
10.9318
10.9795
10.9499
10.9856
10.9989
10.9733
10.967
10.9607
10.9916
10.9601
11.0147
10.8623
10.9545
10.9318
10.9484
10.9386
10.9383
10.9128
10.9507
10.9632
10.9059
10.8496
11.019
10.9158
10.9891
10.986
10.9953
10.9283
10.8724
10.9425
10.9718
10.9784
10.9982
10.9532
10.968
10.9825
10.98
10.9361
10.9884
10.9375
10.9764
10.9703
10.9641
10.9529
10.9998
10.9491
10.958
10.9624
10.9809
10.952
10.9737
10.9805
10.9886
10.9847
10.9878
10.9169
11.0084
10.9783
10.9856
10.893
10.994
10.9645
10.9396
10.9895
10.9461
11.0063
10.988
10.9924
10.9975
10.9998
10.9905
10.9316
10.9764
10.9686
10.9918
10.9412
10.9429
10.9901
10.9974
10.9358
10.949
10.9831
10.9759
10.9982
10.9473
10.9587
10.9456
10.9104
10.942
10.9535
10.9209
10.9248
10.938
10.9444
10.9261
10.9353
10.9478
10.9942
10.9439
10.976
10.9828
10.8688
10.9369
10.9404
10.9408
10.9439
10.9025
10.9416
10.9934
10.9298
10.9463
10.9374
10.9955
10.9903
10.9936
10.9908
11.0081
10.9449
10.9044
10.9001
10.943
10.9823
10.9314
10.9141
10.9839
10.9568
10.98
10.985
10.9793
10.8849
10.9367
10.9199
10.999
10.9939
10.9472
10.9363
10.8387
10.996
10.8481
10.9915
10.9245
10.9248
10.9816
10.9385
10.9897
10.9083
10.9139
10.9449
10.9037
10.9203
10.908
10.9514
10.9312
10.9474
10.9837
10.8956
11.0025
10.9956
10.9349
10.946
10.9195
11.0035
10.942
10.9486
10.9161
10.9412
10.8929
10.9977
10.9846
10.9222
10.9206
10.9214
11.0094
10.9045
10.9883
10.9843
10.9035
10.9209
10.8804
10.9217
10.9467
10.988
10.9093
10.9181
10.9926
10.9219
10.9221
10.8849
10.9735
10.9561
11.0108
10.9263
10.9513
10.9544
10.9167
10.9115
10.906
10.9148
10.9529
10.9505
10.9101
10.9953
10.9247
10.9619
10.9262
10.9935
10.9296
10.9026
10.8956
11.0752
10.9705
10.8813
10.9056
10.9263
10.9048
10.8939
10.8973
10.9249
11.0105
10.9646
10.8994
10.8925
11.0006
10.901
10.9677
11.0323
11.0165
10.8989
10.8892
11.0038
10.898
10.905
10.8995
10.9981
10.9551
10.9033
10.8893
10.8942
10.9657
10.9962
10.8878
10.8852
10.9018
10.9347
10.8851
10.8925
10.9635
10.9072
10.9263
10.8844
10.9124
10.8975
10.9089
10.901
10.8223
10.9352
11.0016
10.9021
10.9063
10.8962
11.0062
10.9341
11.029
10.8904
10.9263
11.0468
10.8812
10.8912
10.9063
10.8976
11.0288
10.8936
10.9018
10.9616
10.9002
10.8925
10.8773
11.008
10.8875
10.9293
10.8967
10.9295
10.8941
10.8887
10.8884
10.8811
10.8491
10.9248
10.9612
11.0275
10.9104
11.0331
10.9624
11.0139
10.871
10.8471
11.0032
10.9045
10.9093
10.9632
10.9121
10.9309
10.8916
10.8838
10.8781
10.8386
11.0662
10.9336
10.8805
11.0437
10.8479
10.9653
10.8842
10.8365
10.9178
10.934
11.0359
10.8944
10.8825
10.8783
10.9331
10.8806
10.9182
11.0319
10.8812
11.0093
11.0122
10.844
10.8733
10.8659
10.8754
10.9982
10.9166
11.0316
10.8996
10.8711
10.9113
10.9599
10.89
10.9083
10.8466
11.0335
10.8724
10.8515
10.8642
11.0655
10.8586
10.8684
10.8757
11.0376
10.9307
10.9291
11.0382
10.8729
10.9132
11.0137
10.8866
10.897
10.9604
10.8869
10.8991
10.9074
11.0591
10.8661
10.8709
10.9161
10.9064
10.8534
11.0071
11.0852
10.8958
10.9585
10.8982
10.8648
10.8616
10.958
10.8695
10.8952
11.0189
11.0635
10.8459
10.9563
11.0074
11.0762
11.0394
10.9138
11.0566
10.9289
10.8522
10.8686
11.085
10.8585
10.9304
10.9128
10.8634
10.8564
11.069
11.0153
11.0483
10.8662
10.8937
10.8664
10.8976
10.8561
11.0471
10.8751
10.869
10.9004
11.0365
10.8637
11.0199
10.8605
10.8721
10.8476
10.8552
10.8612
11.0382
10.8503
10.8579
10.8563
11.0353
10.8489
11.0627
11.0627
11.0551
10.8571
10.8536
11.0736
10.8688
10.8421
10.8546
11.0462
11.0528
11.0432
10.8463
11.0183
10.8494
10.8502
11.0495
11.0668
10.8531
11.0606
10.8522
11.0412
10.9979
11.0624
11.0217
11.0541
11.0735
11.0822
10.8352
10.852
11.0603
10.8778
11.0522
11.0096
10.9169
10.8289
11.0473
11.0701
11.0678
10.8493
10.8403
11.0663
11.0459
11.073
11.055
11.0601
11.0264
10.8256
11.0514
10.8476
10.8479
10.8116
10.8069
11.0942
10.9143
11.0642
11.0074
10.894
11.0567
10.8389
10.8706
10.8454
10.8363
11.0536
11.0573
10.8653
10.8422
11.0868
10.853
11.0287
11.0237
10.8625
10.8328
11.0417
10.858
10.8402
10.8223
11.0333
10.837
10.8411
10.8075
11.1056
10.8573
11.0405
10.8515
10.8507
10.8555
10.8568
10.8207
10.8808
10.8074
11.0506
10.8454
10.8899
10.832
10.8506
10.8278
10.8351
10.8881
11.036
10.827
11.0501
10.8443
11.0189
10.8602
11.0484
10.8878
11.0816
11.0507
10.865
10.8413
10.8302
11.0277
11.0495
11.0247
10.807
10.8268
10.8373
10.8672
10.963
10.9564
10.8552
10.8545
11.0691
11.0402
11.0845
10.8254
10.8591
11.0441
10.8393
10.9575
10.8455
10.8783
10.965
11.0426
10.8518
10.8413
10.8782
10.8538
10.886
10.8074
10.9764
10.9697
10.8629
10.8467
11.0396
10.8582
10.8597
10.8698
11.0814
10.8442
11.0616
11.1041
10.9726
10.9799
10.8394
10.8598
10.9294
10.9894
10.983
10.9219
10.8681
10.8703
10.8727
10.8492
10.9871
10.8344
11.0429
11.0567
10.8783
10.9987
10.8621
10.8675
11.0763
10.8619
10.8093
10.8503
11.0421
11.0279
10.9878
10.8549
10.8729
11.0109
11.034
11.0296
10.8314
11.0356
11.0397
10.8067
10.8297
11.079
10.8858
10.8809
11.0202
10.9947
11.0286
11.0421
11.0275
10.8293
11.0207
11.04
11.0989
11.0293
11.0008
11.0334
11.0326
11.0121
11.0355
11.0333
11.0246
10.9601
10.8755
10.8757
10.8836
11.0792
10.9608
11.0628
10.8866
11.0232
10.9731
10.9935
11.0865
10.8756
11.0377
10.883
10.8849
10.9763
10.8853
10.8176
11.026
11.0289
11.039
11.0045
10.9249
10.986
10.8832
10.8781
11.0215
10.8733
11.0571
10.8538
11.0269
10.9711
11.016
10.991
11.0709
11.0205
10.8086
10.9999
11.0028
10.8247
11.0556
11.0292
11.0108
11.015
11.022
11.0231
11.0295
11.0371
11.0329
11.0712
11.0344
10.9923
11.0225
10.9714
10.9667
11.0294
11.0965
11.0278
11.0868
10.9623
11.0411
10.982
11.0208
11.0272
10.9575
10.8757
10.8711
11.0164
10.9941
11.0175
11.0056
11.0403
10.811
10.8086
11.045
10.8081
10.9657
10.8143
11.0561
10.8095
10.8096
11.0034
10.9266
11.0247
10.9013
10.8633
10.8606
11.0123
10.8635
10.8131
10.8425
10.8736
11.0592
10.8595
10.969
10.995
10.8199
10.9532
10.8102
10.9598
11.0071
10.8107
10.9568
10.807
11.0233
10.9505
10.9507
10.952
10.8178
10.8199
10.8175
11.1029
10.9301
10.8083
11.1022
10.9691
10.8076
10.9209
10.9288
10.9983
10.9046
10.9006
10.9373
10.9939
10.9167
10.9087
10.8966
10.9128
11.0064
10.9328
10.9898
10.923
10.9271
11.0005
10.9068
10.8989
10.935
11.0046
10.9918
10.915
10.8851
10.949
10.9492
11.0543
10.8468
10.8509
10.9472
11.0422
11.0612
11.0434
11.0948
11.0788
10.9754
10.8642
11.0149
11.0107
10.8163
11.0934
11.0634
10.9644
11.0326
10.8488
11.0229
11.0688
10.8178
11.0707
11.0741
10.999
10.8986
11.0487
10.8084
11.013
11.0151
11.0731
11.1043
10.9633
11.0909
10.9186
10.8144
10.8415
11.0956
10.8208
11.0533
10.8115
11.0585
11.0145
10.9248
11.0024
10.8122
10.8458
11.0908
11.0063
10.8219
11.0059
11.0505
11.0767
10.9055
10.8415
11.0739
10.8935
10.9784
10.986
11.0743
11.0847
11.0829
10.833
10.8715
11.059
11.0636
10.8614
11.1063
11.0044
11.0191
11.0234
11.0726
11.0679
10.9187
10.9594
10.9648
11.0361
10.8083
10.8069
10.985
11.0721
11.0788
11.079
10.95
10.8069
10.8175
11.0617
10.8681
10.9404
10.8758
10.9327
11.0551
11.101
10.8039
10.8639
10.9415
10.9107
10.8595
10.8335
10.8388
10.8926
11.0988
10.8927
10.8358
11.0554
10.8022
11.0839
10.9033
11.0975
10.8593
10.8336
11.081
10.9565
10.954
11.098
11.0545
10.982
10.8189
11.0503
10.8765
11.0671
10.8159
10.879
10.8211
11.0797
10.8074
11.0475
10.8898
10.8379
11.0931
10.9135
10.8381
10.8623
10.8423
10.8685
10.8886
10.8762
10.8679
10.8801
10.872
10.9574
10.9534
10.8147
11.0279
10.8538
11.0164
10.9615
10.9653
10.8135
10.8114
10.9839
10.8885
10.9808
11.0947
11.0867
10.9451
11.0168
10.9617
11.0659
10.8748
11.0779
11.0313
11.0215
11.0618
11.1006
10.8161
11.0089
10.8679
10.9227
11.0344
10.8114
11.0706
10.8578
10.817
10.8103
10.9684
11.0926
10.8097
10.8908
10.9205
11.0455
10.8625
10.8757
10.8911
10.9962
11.1018
11.0843
10.8749
10.9438
10.9214
10.8577
11.0557
11.0767
10.9553
10.8206
10.8908
11.0879
10.8317
11.076
10.9126
10.9965
10.813
10.8302
11.0763
10.8064
10.969
10.9981
10.8431
11.0945
11.011
10.8555
11.0085
10.903
10.8179
10.8548
10.8075
11.0526
10.8996
10.807
11.0438
10.9656
10.9574
11.0773
11.1019
10.8161
10.929
10.8573
11.0321
10.9116
10.9246
11.0872
10.9582
10.8048
10.9874
10.9564
11.0545
10.8215
10.8078
10.8197
10.9025
10.8087
10.8638
11.0938
11.0941
10.8299
10.9286
10.9045
11.0922
10.8276
11.0458
11.0115
10.8129
10.8401
11.0968
10.8294
11.0866
10.8704
10.9939
10.9377
11.0304
10.8814
11.0944
10.8725
10.8406
10.8735
11.0976
10.8617
10.9639
10.967
10.956
10.8789
10.9292
11.0125
10.9303
11.019
11.0969
11.0106
10.8156
11.0962
11.0193
10.8186
11.0867
10.855
11.0206
10.8705
11.0967
10.8818
10.8132
11.088
10.8773
11.0906
10.8575
10.812
)
;

boundaryField
{
    back
    {
        type            empty;
    }
    front
    {
        type            empty;
    }
    top
    {
        type            zeroGradient;
    }
    outer_arc
    {
        type            zeroGradient;
    }
    bottom
    {
        type            uniformFixedValue;
        uniformValue    
        {
            type            table;
            format          csv;
            file            "outlet_p.csv";
            nHeaderLine     1;
            refColumn       0;
            componentColumns List<label> 1(1);
            separator       ",";
            mergeSeparators 0;
        }
        value           uniform 10.8054;
    }
    inner_arc
    {
        type            zeroGradient;
    }
}


// ************************************************************************* //
