/*--------------------------------*- C++ -*----------------------------------*\
  =========                 |
  \\      /  F ield         | OpenFOAM: The Open Source CFD Toolbox
   \\    /   O peration     | Website:  https://openfoam.org
    \\  /    A nd           | Version:  9
     \\/     M anipulation  |
\*---------------------------------------------------------------------------*/
FoamFile
{
    format      ascii;
    class       surfaceScalarField;
    location    "0.03";
    object      phi;
}
// * * * * * * * * * * * * * * * * * * * * * * * * * * * * * * * * * * * * * //

dimensions      [0 3 -1 0 0 0 0];

internalField   nonuniform List<scalar> 
1363
(
-1.05577e-06
8.49862e-07
2.05906e-07
-6.88074e-07
7.58436e-07
-7.03618e-08
7.0554e-07
-6.42288e-07
-6.32522e-08
-5.5507e-07
1.1224e-06
-5.67334e-07
7.7636e-07
-7.08202e-08
7.13559e-07
-3.49932e-08
-6.78566e-07
-7.10998e-07
7.10998e-07
6.13194e-07
1.00365e-07
-8.74347e-07
7.1004e-07
1.64307e-07
-1.23889e-07
-7.50458e-07
-6.51943e-07
6.40306e-07
1.16365e-08
5.82921e-07
-7.27765e-07
1.44843e-07
6.98033e-07
-1.2531e-06
-6.49421e-07
6.72078e-07
-2.26569e-08
1.28947e-07
4.53974e-07
-6.43478e-07
-4.45961e-08
1.35199e-08
9.29575e-07
-9.43095e-07
-3.94809e-07
-6.6096e-07
-1.02398e-06
-8.82632e-08
1.11225e-06
6.16206e-07
-6.16206e-07
6.48785e-07
-6.35265e-07
-2.20831e-07
-5.06934e-07
-8.12358e-07
-7.19338e-08
8.84292e-07
-3.74495e-08
-9.5403e-07
9.91479e-07
-1.81537e-07
-4.70406e-07
-8.75511e-07
8.38062e-07
5.79078e-07
-6.07112e-07
2.80343e-08
-9.61567e-07
1.49209e-07
9.00098e-07
-1.14639e-06
2.46293e-07
1.81624e-07
-1.12712e-06
9.45493e-07
8.65213e-07
-5.63302e-08
-8.08883e-07
-1.97491e-08
5.98827e-07
-1.37018e-07
1.03712e-06
1.09325e-06
-2.30989e-07
-8.62264e-07
6.00941e-07
-5.92629e-07
-8.31274e-09
9.76223e-08
7.99448e-07
-8.9707e-07
-1.13128e-06
5.92977e-07
5.383e-07
8.34874e-07
-9.06434e-08
-7.4423e-07
-5.49978e-07
-5.81299e-07
-3.38162e-09
-9.50648e-07
-9.04133e-07
1.14341e-06
-2.39275e-07
9.63542e-07
-7.30336e-07
-2.33206e-07
9.58716e-07
-9.62097e-07
-1.04464e-07
-6.06534e-07
4.742e-07
2.36798e-07
-9.497e-07
-4.68013e-08
9.96501e-07
9.54188e-07
2.17892e-08
-9.75978e-07
5.87323e-08
1.03452e-06
1.45636e-07
-1.04977e-06
-1.37356e-07
-5.12065e-07
-1.00603e-06
-1.79555e-08
8.92627e-07
-9.64561e-07
1.04459e-06
-9.4697e-07
-1.19396e-06
6.00503e-07
5.93461e-07
8.78099e-07
-1.00199e-06
5.55061e-09
8.38967e-07
-8.44517e-07
5.9732e-07
-5.9732e-07
-6.29516e-08
9.41051e-07
5.029e-07
9.44198e-08
-4.63779e-08
8.08033e-07
-7.61655e-07
-7.35135e-07
9.16759e-07
6.24152e-07
-6.14235e-07
-9.91612e-09
6.18075e-07
-8.49064e-07
-1.88611e-08
8.68723e-07
9.19202e-07
-8.43281e-08
6.18925e-07
-4.52213e-07
-1.66711e-07
1.70395e-08
-1.02624e-06
1.01204e-06
1.42035e-08
-1.0038e-06
1.00936e-06
7.03413e-07
-5.596e-07
-1.43813e-07
4.59938e-07
2.98498e-07
-7.14372e-07
6.11223e-07
1.03149e-07
5.70669e-07
-5.70669e-07
-3.64692e-07
-7.62426e-07
-9.12547e-07
-2.81417e-07
6.85844e-08
5.47622e-07
-4.48147e-07
-1.6806e-07
-1.32941e-08
8.67777e-07
-2.56375e-09
-5.69555e-07
-7.39235e-08
2.34988e-09
4.50698e-07
-4.53048e-07
-9.31841e-07
-6.21981e-07
2.45764e-08
5.97404e-07
4.93699e-08
-5.79138e-07
1.26925e-07
-6.35815e-07
6.49379e-07
-1.35642e-08
8.03653e-07
-8.50031e-07
4.9179e-07
8.01233e-08
-5.71913e-07
1.86301e-07
4.85777e-07
-1.94422e-07
-4.27559e-07
4.96233e-07
4.67309e-07
5.24692e-07
-8.06729e-09
-5.16624e-07
-1.03082e-06
9.67866e-07
-1.19965e-07
9.58932e-07
1.9424e-08
-8.63941e-07
-6.35288e-07
5.45418e-07
8.98709e-08
1.21818e-07
-8.52155e-07
-9.10233e-08
5.82813e-07
-4.55641e-07
4.57991e-07
1.84067e-07
6.55341e-07
3.19262e-09
-6.58534e-07
1.14682e-07
-1.1455e-06
-5.18383e-08
5.98949e-07
-8.92373e-07
9.11797e-07
2.13183e-07
7.03577e-07
3.37893e-08
-9.83489e-07
-3.85446e-08
-1.06711e-06
1.10566e-06
-2.07223e-08
-1.00552e-06
2.46975e-08
9.87342e-07
-4.50391e-08
-9.58766e-07
2.69227e-08
9.82433e-07
8.17857e-07
-3.66532e-07
-3.4784e-07
1.50817e-07
4.89489e-07
5.24692e-07
3.89065e-08
-7.89346e-07
7.5044e-07
6.7265e-07
4.49754e-07
-5.67311e-07
7.51378e-07
2.66554e-07
-9.62718e-07
6.96164e-07
-7.51378e-07
9.64561e-07
9.35641e-07
-6.33416e-08
-8.72299e-07
9.58716e-07
5.26073e-07
-5.21299e-07
7.25542e-07
1.42235e-07
8.92627e-07
-1.09911e-06
9.62097e-07
1.09911e-06
-9.01564e-07
-1.97551e-07
1.04459e-06
8.99871e-07
-9.88134e-07
-8.99871e-07
9.8691e-07
-8.70388e-08
9.88134e-07
-9.66345e-07
9.6237e-07
-9.03637e-07
-9.6237e-07
9.41647e-07
-9.8691e-07
9.40108e-07
-9.81251e-07
9.36212e-07
9.66345e-07
-9.41647e-07
9.63134e-07
-9.36212e-07
-9.63134e-07
1.10877e-06
9.03637e-07
-1.10877e-06
2.05133e-07
-9.40108e-07
9.01564e-07
8.56764e-07
-1.10448e-07
8.3599e-07
5.99533e-07
1.36609e-08
8.64668e-08
8.16195e-08
-6.41219e-07
1.24014e-07
4.87209e-07
8.96892e-08
-9.06107e-07
8.16418e-07
-1.3785e-07
-4.97965e-07
1.0329e-07
4.96243e-07
2.46628e-07
-6.93021e-07
4.46393e-07
5.76003e-07
-5.8407e-07
-5.09488e-07
5.24311e-07
-1.48223e-08
-6.13143e-07
2.05146e-08
1.64539e-07
-7.14517e-07
-4.70613e-07
-1.08525e-07
-1.0744e-07
4.11431e-07
-3.03992e-07
1.86869e-08
-5.66704e-07
-4.99549e-07
2.89358e-08
9.53723e-07
-7.89184e-07
-1.2213e-06
6.53964e-07
5.43881e-07
3.93412e-08
-5.83222e-07
7.90153e-07
-5.43525e-07
-2.13097e-08
-5.77539e-07
5.98849e-07
2.09168e-07
4.46174e-07
7.36808e-07
-1.37859e-07
-7.06111e-08
1.1364e-08
2.90009e-08
-6.73362e-08
-2.31246e-08
-2.5799e-07
1.90871e-07
4.58508e-07
-7.1873e-07
5.4507e-07
1.73661e-07
-3.19121e-08
5.7733e-07
-2.57896e-07
-4.60834e-07
5.55315e-07
-6.75281e-07
-7.59333e-07
5.82489e-07
1.76843e-07
-5.4182e-07
3.23317e-08
-6.5269e-07
-4.937e-07
6.82666e-07
-2.14263e-07
-7.59501e-07
-8.45375e-07
-8.06206e-07
-4.83064e-08
8.54513e-07
-6.50356e-07
-1.05581e-07
7.55937e-07
4.94406e-07
-6.32256e-07
7.41348e-07
-1.58858e-07
6.54708e-07
-6.21107e-07
-3.36008e-08
6.07157e-07
1.34191e-07
-9.26632e-07
6.68642e-07
8.74073e-08
-8.9629e-07
9.31687e-08
-7.43524e-07
1.1189e-06
-4.20865e-07
6.92575e-07
-7.20198e-07
2.76236e-08
6.57131e-07
4.86277e-07
-1.03765e-06
1.03765e-06
-5.67311e-07
3.64713e-07
7.54186e-07
-6.8356e-07
7.76729e-07
8.58964e-07
8.68128e-07
8.91596e-07
-8.87066e-07
-7.06436e-07
6.00855e-07
-7.89327e-08
-5.09498e-08
-5.05386e-07
8.70099e-07
-3.43508e-07
8.95174e-07
-5.51665e-07
-6.45056e-07
6.35139e-07
-7.94008e-07
-2.76917e-07
8.42887e-07
-5.6597e-07
-8.46651e-08
5.79071e-07
6.62487e-07
-4.84836e-07
-1.77651e-07
-7.2806e-07
7.86221e-09
-6.90207e-07
-3.78537e-08
-6.51423e-07
8.15242e-07
-1.63818e-07
6.84766e-07
-9.61683e-07
-1.06788e-07
7.13945e-07
8.29838e-07
-5.26407e-07
-3.03431e-07
5.1458e-07
-5.1458e-07
5.29203e-07
-5.29203e-07
-6.26234e-09
-6.38793e-07
-6.8041e-07
7.93714e-07
-1.13305e-07
7.19394e-07
1.03256e-07
-8.2265e-07
1.48146e-07
-9.93521e-07
-6.38625e-07
-6.78104e-08
5.31912e-07
-5.31912e-07
-5.08927e-07
5.08927e-07
1.91464e-07
4.31e-07
-9.36386e-07
5.51393e-07
1.11094e-07
1.34832e-07
8.06802e-07
-7.5466e-07
6.44534e-08
-6.51404e-07
3.05022e-07
4.31786e-07
-8.401e-08
-6.62148e-07
7.46158e-07
6.57621e-07
-4.8396e-07
-5.32571e-07
7.09414e-07
-7.66384e-07
-7.09704e-07
-6.14468e-08
7.71151e-07
2.63867e-07
7.68948e-07
6.48446e-07
9.15243e-07
-2.36478e-08
4.74632e-08
-6.6857e-07
-5.65601e-07
6.99792e-07
3.43692e-07
-7.68936e-07
7.28653e-08
6.4108e-07
-5.0392e-07
-2.20457e-07
7.24376e-07
1.2505e-07
-8.90672e-07
7.26854e-07
2.22114e-07
-7.26034e-07
-6.47106e-07
-5.61932e-07
6.34798e-07
-7.9609e-07
7.34643e-07
3.01675e-08
6.65944e-07
-6.96111e-07
-7.48144e-07
7.29088e-07
4.20632e-08
8.63259e-07
-1.34171e-07
-5.87153e-07
7.03645e-07
-1.16492e-07
6.75968e-07
2.17694e-08
6.1337e-07
-6.89575e-07
-4.34527e-07
6.56641e-07
-5.55487e-07
-8.67681e-08
6.42255e-07
-7.00062e-07
6.66461e-07
-5.43431e-08
9.4697e-07
8.95803e-07
-9.63553e-08
8.49453e-07
-9.03796e-07
-6.21253e-07
6.57664e-08
8.84804e-07
-5.16582e-07
-3.68221e-07
-7.20361e-07
7.39048e-07
2.05125e-08
6.14644e-07
-6.35157e-07
-6.64943e-07
6.85455e-07
5.95836e-07
3.89616e-08
6.26004e-07
4.2673e-07
4.58074e-07
9.46453e-07
-2.70484e-07
-7.2745e-07
2.92923e-07
-1.34169e-07
7.86658e-07
-6.52489e-07
-5.62316e-07
4.75548e-07
-9.33278e-07
5.72719e-07
3.60559e-07
8.08674e-07
-6.76437e-07
-1.32236e-07
8.83127e-08
1.94516e-07
-8.70953e-07
-8.25021e-09
7.47298e-07
7.84601e-07
-9.82872e-08
-6.86314e-07
-6.60921e-09
-8.88247e-07
2.40547e-07
6.477e-07
-7.73949e-07
3.68005e-07
4.05943e-07
1.30699e-07
6.53903e-07
6.91126e-07
5.50316e-08
-8.22486e-07
4.73346e-07
3.4914e-07
5.04792e-07
-5.04792e-07
5.47622e-07
-5.16624e-07
-6.06534e-07
-5.06577e-07
5.06577e-07
-4.63816e-07
4.63816e-07
5.26073e-07
6.06541e-07
-7.90479e-07
1.83938e-07
-4.97136e-07
4.97136e-07
-4.97671e-07
4.97671e-07
5.029e-07
4.74899e-07
-4.74899e-07
-5.03157e-07
5.03157e-07
-4.48147e-07
4.72402e-07
-4.72402e-07
4.742e-07
-5.21299e-07
5.83665e-07
3.62787e-07
2.39692e-07
4.5791e-07
-6.97602e-07
5.30195e-07
-5.30195e-07
6.45734e-07
-7.79903e-07
-8.02339e-07
5.69133e-07
5.08342e-07
-5.08342e-07
-8.98568e-07
3.81986e-07
6.92013e-07
-9.19148e-07
2.27135e-07
-1.48211e-07
-5.63672e-07
7.11883e-07
-4.9662e-07
-3.91627e-07
-7.13139e-07
5.64928e-07
-5.89568e-07
-3.09e-07
-4.08202e-07
-3.65747e-07
6.10389e-07
-1.11742e-06
5.07029e-07
-3.22889e-07
9.81251e-07
9.30307e-07
-7.99609e-07
1.08432e-07
-6.57005e-07
5.48573e-07
-3.26253e-07
9.12457e-07
-6.72115e-07
-2.40342e-07
-7.13426e-07
7.05176e-07
9.54705e-07
-7.21587e-07
6.7251e-07
4.90766e-08
-1.95798e-07
1.00116e-09
7.60263e-07
-6.71951e-07
7.83475e-07
-5.88959e-07
-1.44745e-07
7.58341e-07
-5.32059e-07
-2.26282e-07
-2.58193e-07
-8.59225e-07
-5.1581e-07
-1.97329e-07
-7.47494e-07
6.49207e-07
-8.78907e-08
1.87208e-07
-7.8673e-07
5.99522e-07
6.91049e-07
-5.82618e-07
7.53916e-07
-5.13369e-07
3.92509e-07
2.7408e-07
-6.66589e-07
-1.90973e-07
7.2507e-07
-5.34097e-07
-5.58886e-08
8.09717e-07
-4.41711e-07
-4.22754e-07
-2.41333e-07
6.64087e-07
3.13214e-07
-7.04971e-07
3.91758e-07
8.20788e-07
-3.47441e-07
-5.14224e-07
-1.42781e-07
8.50219e-07
8.19968e-07
-2.50834e-07
-8.41111e-07
6.00768e-07
4.68369e-08
-1.64107e-08
6.78302e-07
-7.3419e-07
1.11524e-07
1.69382e-07
3.13097e-07
4.26711e-07
-6.17684e-07
-7.4984e-08
2.21857e-07
6.65293e-07
1.45726e-07
-6.65086e-07
5.19359e-07
-1.75656e-07
6.90217e-07
-5.14561e-07
7.1705e-07
-4.03837e-07
5.63863e-07
-7.59661e-07
3.02316e-07
-3.12462e-07
4.12586e-07
-8.46143e-07
5.37143e-07
4.76165e-08
-1.37523e-07
4.93715e-07
4.72309e-07
-7.13642e-07
-4.58977e-07
7.33056e-07
-7.71697e-07
2.58328e-07
-7.91961e-07
3.5025e-07
7.33896e-07
-5.55941e-08
6.46005e-07
-5.1035e-07
-2.40308e-07
7.50658e-07
-8.36432e-07
4.68211e-07
-7.61184e-07
-4.49909e-07
-2.1668e-07
-7.85396e-07
4.37955e-07
4.89637e-07
1.53478e-07
-7.1715e-07
-3.79376e-07
-4.58601e-07
-2.45374e-07
6.38444e-07
5.11301e-07
2.19336e-07
-7.30638e-07
6.89449e-07
-5.43723e-07
7.01578e-07
-3.99262e-07
7.33159e-07
4.45749e-07
2.18338e-07
-1.35502e-07
6.79621e-07
-5.44119e-07
-6.11796e-07
7.23321e-07
1.97321e-07
-2.91681e-07
4.9622e-07
-6.84898e-07
6.68488e-07
-1.69848e-07
6.89207e-07
6.29861e-07
-1.91759e-07
7.91281e-07
-5.46945e-07
-1.90837e-07
7.37782e-07
6.06182e-07
-7.50928e-07
5.91773e-07
-7.29296e-07
-4.88785e-07
6.46494e-07
-1.57709e-07
5.02942e-07
-7.38704e-07
-2.9929e-07
5.45906e-07
5.93639e-07
-6.64e-07
-1.04923e-07
-5.63311e-07
7.32693e-07
-6.53171e-07
7.00008e-07
-7.47228e-07
-1.4693e-07
-8.24504e-07
3.78978e-07
4.45526e-07
1.26445e-07
1.20897e-07
-4.33647e-07
7.52974e-07
-3.19327e-07
7.01498e-08
-1.51098e-08
-6.21231e-07
6.36341e-07
-7.45532e-07
2.86931e-07
8.06298e-07
-3.38087e-07
-4.87758e-07
7.67175e-07
-3.2922e-07
9.3967e-08
-6.76585e-07
-3.95282e-07
-3.97774e-07
7.33189e-07
4.08524e-07
-7.10313e-07
6.35329e-07
-7.71734e-07
3.87799e-07
4.86721e-07
-7.86011e-07
-4.18259e-08
3.73273e-07
3.79701e-07
-3.88362e-07
8.07602e-07
-4.1924e-07
2.40105e-07
4.97677e-07
-7.07689e-07
-2.68124e-07
-2.85013e-07
1.71805e-07
5.90705e-07
-6.95628e-07
2.24708e-07
4.21786e-07
7.81797e-07
-4.51922e-07
-3.17046e-07
7.68968e-07
6.62397e-08
-5.80464e-07
-7.79019e-07
5.58562e-07
6.10345e-07
-6.52171e-07
-4.38368e-08
6.37475e-07
6.50221e-07
-9.89383e-07
3.39161e-07
-8.94818e-08
-5.74519e-07
8.84019e-07
4.27645e-07
3.54152e-07
-3.99723e-07
-2.97879e-07
8.06622e-07
3.4841e-07
4.59192e-07
-8.05115e-07
4.05393e-07
-7.49802e-07
-6.65068e-07
8.70795e-07
-2.20574e-07
-4.88737e-07
-5.94918e-07
-3.9565e-07
-6.844e-07
5.63503e-07
1.25704e-07
-7.22385e-07
4.37372e-07
-2.78175e-07
-5.00844e-07
-1.58299e-08
-2.70317e-07
-6.35608e-07
4.89577e-07
-2.19479e-07
7.78041e-07
1.55275e-07
-9.03419e-07
-3.32462e-07
-4.72653e-07
-5.99643e-07
9.5282e-08
7.73441e-07
7.28111e-07
-5.43857e-07
-9.15293e-09
2.78385e-07
5.9241e-07
-6.67375e-07
8.28738e-07
8.3378e-07
-6.09469e-07
-2.24311e-07
1.66405e-07
5.50563e-07
-1.19442e-07
7.17513e-07
-5.98071e-07
8.28948e-07
6.33194e-07
1.52519e-08
-7.70846e-07
7.56076e-07
-3.3429e-07
6.54963e-07
4.85759e-07
5.46725e-07
-6.34104e-07
6.04441e-07
1.736e-07
-5.86666e-07
-8.19045e-08
-2.2931e-07
-6.74109e-07
8.98419e-07
-3.06009e-07
-9.76538e-07
-6.73647e-07
8.69811e-08
3.67359e-07
5.27814e-07
8.15761e-07
-5.51894e-07
6.74323e-07
-1.22254e-07
-7.20325e-07
6.36783e-07
-5.49802e-07
-3.71402e-08
-7.46124e-07
5.84402e-07
1.61722e-07
-5.21079e-07
-2.22312e-07
5.60537e-07
5.6088e-07
-7.92962e-07
-6.01498e-07
-2.55281e-07
-5.18282e-07
7.98359e-07
-7.70555e-07
7.16966e-07
5.03037e-07
-3.89907e-07
-4.51008e-07
-3.91784e-07
-4.90702e-07
5.34234e-07
3.90011e-07
-3.85011e-07
-5.50177e-07
-5.56554e-07
4.2707e-07
1.29484e-07
-4.08482e-07
-2.90154e-07
8.0979e-07
-4.66099e-07
2.04674e-07
4.23813e-07
-4.20873e-07
-5.75304e-07
-3.5572e-07
-3.02735e-07
2.67665e-07
3.60822e-07
6.62492e-07
-9.68501e-07
3.3226e-07
-3.14046e-07
-9.08189e-07
8.82441e-07
-2.33656e-07
-6.30794e-07
-8.42792e-07
-8.75713e-07
-4.28704e-07
-1.2785e-07
5.22738e-07
-4.34346e-07
-5.28372e-07
-6.48442e-07
8.22136e-07
7.38908e-07
-9.7105e-07
-7.09485e-07
-6.45874e-07
-4.55279e-07
-4.55003e-07
-4.14332e-08
-2.72091e-07
8.72594e-07
3.36933e-07
-4.27577e-07
-8.46754e-07
-4.13769e-07
-1.83551e-07
-3.2253e-07
-3.86955e-07
-5.28712e-07
-7.08832e-07
-8.72587e-08
-4.05129e-07
-9.07965e-08
5.50735e-07
9.80296e-07
-8.21609e-07
3.60775e-07
-8.50241e-07
-8.22277e-07
8.77181e-07
-5.4904e-08
-5.24915e-07
-8.2103e-07
-4.90589e-07
-4.53155e-08
-4.61619e-07
-4.7402e-07
-5.24915e-07
-4.89349e-07
7.96506e-07
8.59356e-08
6.98611e-08
-4.41452e-07
8.12194e-07
-6.17542e-08
5.46679e-07
-5.30849e-07
-4.96151e-08
6.41404e-07
2.55416e-07
-1.0071e-06
2.65101e-07
7.41995e-07
-4.82793e-07
-5.04332e-07
-6.17085e-07
-1.13842e-06
-5.16169e-07
-3.06694e-07
9.24769e-07
6.62212e-07
6.68216e-07
1.18442e-07
5.22721e-07
6.48134e-09
5.98746e-09
-5.48952e-07
5.05734e-07
8.84591e-09
5.48952e-07
-5.05734e-07
5.47001e-07
5.22721e-07
3.89385e-07
-7.44607e-07
3.7886e-07
6.1442e-07
-5.03327e-07
7.65435e-07
-4.84962e-07
-1.21734e-08
5.07619e-07
2.25759e-08
-4.82001e-07
5.1571e-07
-4.8042e-07
-3.62041e-08
-4.84962e-07
5.18558e-07
-1.19812e-08
-4.8701e-07
2.31941e-08
4.75826e-07
-5.06531e-07
8.86018e-09
4.82001e-07
-7.10231e-09
-5.1571e-07
4.08113e-08
4.8042e-07
-8.01785e-09
-4.75826e-07
3.42342e-09
5.06531e-07
-5.18558e-07
5.07619e-07
-4.8701e-07
3.14353e-09
-6.10009e-07
-8.74115e-07
-4.00306e-07
5.72111e-07
-5.5233e-07
8.07746e-07
-5.32243e-09
4.73349e-07
6.46186e-08
5.24912e-07
-6.00776e-07
-7.34743e-08
-5.19452e-07
4.73349e-07
3.19439e-07
-7.77513e-07
-7.80106e-07
6.93067e-07
5.92928e-07
4.63816e-07
-1.15372e-13
-4.63816e-07
-5.33171e-07
5.30293e-07
2.87794e-09
-8.25973e-07
3.3214e-07
4.72023e-07
-5.35275e-07
9.19065e-07
6.85544e-07
-7.34621e-07
-5.81802e-07
4.24093e-07
2.35036e-08
-3.77281e-07
5.45206e-07
1.19275e-07
-5.74916e-07
6.80712e-07
-9.09305e-07
-5.09157e-07
5.09157e-07
-7.1547e-07
-4.43041e-07
-4.99238e-07
5.45206e-07
5.69943e-07
-8.93892e-07
6.51828e-07
-1.03935e-07
-4.73604e-07
2.96449e-07
-5.14787e-07
6.50843e-07
-4.24561e-07
3.94375e-07
-3.94375e-07
5.75932e-07
-5.8462e-07
-2.30378e-07
2.30378e-07
7.65557e-07
-7.65557e-07
-6.35384e-07
3.76413e-09
-2.9729e-07
8.0108e-07
-8.10178e-08
-7.20062e-07
4.21256e-07
-4.21256e-07
4.50698e-07
2.05187e-07
3.93662e-07
4.11431e-07
-4.91483e-07
4.98469e-07
7.88608e-08
5.3928e-07
-2.43674e-07
-5.91693e-07
4.92537e-07
1.63905e-08
-4.96055e-07
-1.62479e-07
5.01325e-07
-2.02827e-07
1.24901e-07
3.76424e-07
-5.06726e-07
-1.24068e-07
-2.85095e-07
-3.9347e-07
-4.98109e-07
9.78034e-08
-4.13769e-07
1.15017e-07
4.82387e-07
1.07344e-07
-2.90972e-07
-3.75308e-07
3.75308e-07
-6.87643e-09
4.82425e-07
-5.55656e-07
-4.53048e-07
3.23246e-07
-3.23246e-07
-5.77546e-07
8.24584e-07
-3.40931e-07
-5.01861e-07
-3.95467e-07
-2.86748e-07
7.98856e-07
-5.12108e-07
9.32441e-07
-2.33562e-07
-6.98879e-07
-3.03992e-07
1.12947e-07
4.36166e-07
-7.77097e-07
9.44899e-07
-1.81951e-07
1.81951e-07
-3.77588e-07
8.63674e-07
-3.08358e-07
8.33037e-07
-7.14595e-07
3.92569e-07
-5.48746e-07
5.21914e-08
5.54853e-07
4.2003e-07
-7.06778e-07
8.39168e-07
6.68081e-07
5.60529e-10
3.23782e-08
-5.48547e-07
6.02428e-07
-3.2086e-07
-7.36673e-07
-1.10081e-07
-4.92537e-07
5.19437e-07
-5.7644e-08
8.1729e-07
9.76639e-08
4.21773e-07
8.60126e-09
8.08689e-07
3.76248e-07
7.74002e-07
2.36517e-07
7.03826e-07
-1.03738e-07
-1.91729e-08
-6.95344e-07
6.86743e-07
4.51114e-07
-1.14165e-07
5.56435e-07
2.20294e-07
-1.04619e-07
4.46773e-07
-4.55926e-07
4.73911e-07
-4.4623e-08
6.2482e-08
-2.20662e-07
4.49651e-07
4.62564e-07
-2.63784e-07
7.13538e-07
6.87849e-08
-4.70748e-07
-1.95045e-08
4.94889e-07
-3.97085e-07
4.86871e-07
-3.27918e-07
4.13013e-07
7.95613e-07
-4.3657e-07
-5.46409e-07
8.59829e-08
-5.35756e-07
1.61449e-07
8.79006e-08
-8.22722e-07
4.21773e-07
-4.34661e-07
-2.90422e-07
-6.55281e-07
5.452e-07
1.22041e-07
-2.143e-07
)
;

boundaryField
{
    back
    {
        type            empty;
        value           nonuniform List<scalar> 0();
    }
    front
    {
        type            empty;
        value           nonuniform List<scalar> 0();
    }
    top
    {
        type            calculated;
        value           nonuniform List<scalar> 10(-1.12142e-06 -1.22e-06 -9.24245e-07 -6.28487e-07 -6.28487e-07 -9.24245e-07 -1.12142e-06 -2.34142e-07 -2.34142e-07 -1.22e-06);
    }
    outer_arc
    {
        type            calculated;
        value           uniform 0;
    }
    bottom
    {
        type            calculated;
        value           nonuniform List<scalar> 10(7.43391e-07 7.73563e-07 8.40915e-07 8.82486e-07 9.35188e-07 6.98636e-07 9.96177e-07 6.58455e-07 1.06285e-06 6.6493e-07);
    }
    inner_arc
    {
        type            calculated;
        value           uniform 0;
    }
}


// ************************************************************************* //
