/*--------------------------------*- C++ -*----------------------------------*\
  =========                 |
  \\      /  F ield         | OpenFOAM: The Open Source CFD Toolbox
   \\    /   O peration     | Website:  https://openfoam.org
    \\  /    A nd           | Version:  9
     \\/     M anipulation  |
\*---------------------------------------------------------------------------*/
FoamFile
{
    format      ascii;
    class       volScalarField;
    location    "0.76";
    object      p;
}
// * * * * * * * * * * * * * * * * * * * * * * * * * * * * * * * * * * * * * //

dimensions      [0 2 -2 0 0 0 0];

internalField   nonuniform List<scalar> 
464
(
1.74863e-13
-3.43895e-13
-8.2261e-14
-7.36243e-14
-4.00925e-13
-8.24011e-14
7.59053e-14
-7.22141e-14
-6.15582e-14
-4.47171e-14
1.77902e-13
4.05999e-13
5.72552e-14
4.11555e-13
9.60081e-14
7.61501e-14
-4.51401e-14
-4.55694e-14
-6.03163e-14
-5.87048e-14
-6.28581e-14
-7.91758e-14
-7.32123e-14
-7.60099e-14
-7.5486e-14
-7.70172e-14
2.59318e-13
-6.05385e-14
2.32329e-13
-8.23751e-14
-8.18176e-14
-2.23085e-15
7.44021e-15
-2.44999e-14
-3.15302e-14
-4.90337e-14
-5.22541e-14
-5.67729e-14
-5.77066e-14
3.33227e-14
-5.74092e-14
-7.34296e-14
-7.3463e-14
3.48198e-13
2.96193e-13
4.26264e-14
-5.94548e-14
-5.04685e-14
-4.87594e-14
-6.22529e-14
-5.49649e-14
-5.4499e-14
-4.98718e-14
-5.32262e-14
-5.20461e-14
-5.32514e-14
-5.77252e-14
-4.25738e-14
-4.15524e-14
-5.15713e-14
-5.00652e-14
-2.35649e-13
-3.67804e-14
-4.98142e-14
-1.51073e-13
-5.75254e-14
-2.56672e-14
-4.52914e-14
2.40404e-13
-5.0209e-14
-3.82243e-14
-2.00849e-13
1.62334e-13
-5.13314e-14
-8.22627e-14
-5.64958e-14
-3.05496e-14
7.79633e-14
-4.53798e-14
1.56555e-13
-3.54569e-13
-8.44093e-14
-5.63121e-13
-9.07354e-14
-3.53322e-13
-3.71156e-14
-1.65618e-13
-8.55883e-14
-7.08704e-14
-6.91159e-14
-3.15207e-13
-2.56244e-13
-2.41879e-14
3.54092e-13
-2.14541e-14
-3.14804e-14
-4.68647e-14
-8.12218e-14
-2.22303e-13
-4.70138e-14
-7.16794e-14
-5.00842e-14
-7.5215e-14
-1.47868e-14
-2.60921e-14
-5.58722e-13
-8.81702e-14
-2.65084e-14
-3.11904e-13
-5.47565e-14
-2.79302e-14
-5.51844e-14
-2.15329e-14
-1.71126e-13
-6.62534e-14
-6.9457e-14
-4.67871e-13
-9.38704e-14
-2.72035e-13
-8.61224e-14
-5.37701e-14
5.0101e-14
-1.30252e-13
1.65995e-13
-3.6134e-14
-3.46312e-14
-4.74812e-14
-2.59962e-14
-3.64195e-14
-5.03694e-13
-9.15857e-14
4.56953e-13
-5.41196e-14
-7.20982e-14
-8.4185e-14
-3.89984e-13
-9.45112e-14
-6.41375e-14
-5.45834e-14
-8.39508e-14
-9.34627e-14
-2.68045e-14
-3.743e-14
-6.89322e-14
-9.62073e-14
-1.10024e-13
-6.70277e-14
-8.6757e-14
-5.09574e-14
-8.01328e-14
-7.08706e-14
-7.20507e-14
3.34097e-14
-4.32083e-14
-3.41524e-13
-8.6975e-14
-5.33532e-14
-6.40933e-14
-3.53662e-14
-2.64025e-13
-2.4396e-14
-6.65806e-14
-6.43721e-14
-7.35996e-14
-7.01672e-14
-9.3319e-14
3.37275e-15
-6.69301e-14
-1.18051e-15
-3.85601e-14
-1.82235e-14
-1.99903e-13
-1.26027e-13
-8.19582e-14
-5.83264e-14
-1.99158e-14
-6.1311e-14
-6.2253e-14
8.99735e-14
-3.80266e-14
-6.21382e-14
-1.86499e-14
-5.20174e-14
-5.50383e-14
-2.44516e-14
-4.94568e-14
-8.257e-15
-5.31713e-15
-9.06634e-14
-7.89926e-16
-4.9459e-14
2.50461e-16
-4.33451e-14
-4.90353e-14
-4.351e-14
-4.31992e-14
-6.37472e-14
-5.18939e-14
-3.41747e-14
-4.87462e-14
-4.89114e-14
-4.50294e-14
-4.60471e-14
-4.68327e-14
-1.86722e-15
-4.34506e-14
-4.71505e-14
-4.7275e-14
-4.68137e-14
-1.68407e-13
-8.88675e-14
-1.53829e-14
-4.43938e-14
-4.8487e-14
-6.41451e-14
-1.0979e-14
-5.18918e-15
-4.52291e-14
2.39541e-13
-4.43201e-14
-5.26601e-14
-4.76923e-14
-4.76852e-14
-5.31754e-14
-5.8237e-14
-6.02079e-14
-5.43836e-14
-5.10177e-14
-5.28434e-14
-5.069e-14
-5.0108e-14
-4.869e-14
-4.61718e-14
-4.10272e-14
-4.85063e-14
-4.64661e-14
-4.28005e-14
-4.21089e-14
-4.52494e-14
-4.47852e-14
-4.1906e-14
-3.79706e-14
-4.56475e-14
-4.17622e-14
-3.70317e-14
-4.49084e-14
-3.82971e-14
-5.92775e-14
-4.0065e-14
-6.00295e-14
-3.23915e-14
-4.13977e-14
-3.04037e-14
-4.97683e-14
-3.2281e-14
-3.39579e-14
-6.36125e-14
-5.99096e-14
-2.845e-14
-1.751e-14
-3.26773e-14
-2.81035e-14
-2.31917e-14
2.17607e-14
-2.51943e-14
1.51036e-14
-2.13112e-14
-6.4689e-14
7.24855e-14
4.38425e-15
-7.79017e-14
-2.00816e-14
-1.83589e-14
3.80021e-14
6.22738e-14
-1.82649e-14
-7.80099e-15
-4.02812e-14
-3.75852e-14
-1.33574e-13
-3.20866e-14
-6.34188e-14
-4.21175e-14
-5.10542e-14
7.2506e-14
-5.67266e-14
-3.31769e-14
-1.07748e-13
-6.15684e-14
-3.73249e-14
-8.08171e-14
-4.32942e-14
-6.09451e-14
-5.62058e-14
-2.6811e-14
-3.35981e-14
-2.09064e-14
-1.72924e-14
-1.72103e-14
-1.36607e-13
5.09688e-14
1.86281e-14
1.35545e-13
3.90011e-13
-4.63077e-14
-2.32289e-14
-2.39104e-14
-5.42917e-14
-2.4224e-13
-3.51584e-14
-4.97414e-14
-6.65056e-14
-3.28803e-14
3.3068e-14
-2.84211e-14
-3.93451e-14
-2.73291e-14
-1.52069e-13
-7.07142e-14
4.78064e-14
-8.23977e-14
-2.25537e-14
-1.96913e-13
-1.57825e-14
-3.1013e-14
-4.2005e-14
-4.18928e-14
1.16181e-13
-6.05851e-14
-1.03054e-13
-6.4846e-14
-1.1525e-13
-7.63722e-14
-2.8089e-14
-4.74042e-14
-6.06406e-14
-7.90198e-14
-7.39457e-14
-4.68734e-14
-6.90281e-14
-7.18312e-14
2.44002e-13
-7.27291e-14
-1.06306e-13
-2.92943e-14
-6.74645e-14
-4.30505e-14
-3.17216e-14
-7.39077e-14
-4.58851e-14
-5.82547e-14
-7.42988e-14
-2.56918e-14
-3.00455e-14
-5.63388e-14
-2.20884e-13
-8.45765e-14
-5.12069e-13
-8.53049e-14
-3.33755e-13
-7.96544e-14
2.65665e-14
-8.43979e-14
-3.58048e-13
2.21472e-13
-6.18164e-14
-6.85051e-14
-5.05682e-14
5.30042e-13
-8.60296e-14
-7.07587e-14
4.51668e-13
1.09372e-13
-4.0208e-14
3.17282e-13
-7.65451e-14
2.01207e-13
-7.55127e-14
1.92736e-13
-8.45307e-14
2.4754e-14
-1.66106e-14
-3.3695e-14
-1.34872e-14
-3.22248e-14
-3.70691e-15
-2.98211e-14
-8.11932e-14
-5.93981e-14
-4.48832e-14
-5.05103e-14
-4.49646e-14
-5.23163e-14
-4.81756e-14
-5.52044e-14
-6.81327e-14
-6.32276e-14
-7.59989e-14
-7.0621e-14
1.63245e-13
-1.89427e-13
-7.76224e-14
3.51637e-13
-6.79727e-14
2.88508e-14
1.54059e-13
4.38804e-13
-6.38243e-14
2.22662e-13
-6.49619e-14
-9.08169e-14
-6.66144e-14
-8.07776e-14
-7.69003e-14
-7.74985e-14
-1.68296e-13
6.23709e-13
-6.42603e-14
-7.93762e-14
-2.4339e-13
-6.91853e-14
-7.66172e-14
2.04179e-13
3.98947e-13
2.05201e-13
1.19677e-13
1.48929e-13
8.97575e-14
5.46421e-14
-5.72909e-13
-8.71461e-14
-1.33645e-14
-3.18552e-14
-8.48474e-14
-3.11138e-14
-5.23574e-14
-5.28345e-14
-7.76052e-14
-5.10464e-14
-8.91339e-14
-4.58829e-14
-4.81275e-14
-5.27119e-14
-5.74177e-14
-7.1855e-14
-6.14102e-14
-7.05664e-14
-7.54393e-14
-6.66082e-14
-5.82087e-14
8.31715e-15
5.28162e-14
3.27594e-14
-7.8944e-14
-5.04146e-14
-4.23204e-14
-3.97204e-14
-6.38851e-14
-6.81691e-14
-6.60656e-14
-6.64839e-14
5.91618e-13
3.79478e-13
-7.90629e-14
)
;

boundaryField
{
    back
    {
        type            empty;
    }
    front
    {
        type            empty;
    }
    left
    {
        type            zeroGradient;
    }
    top
    {
        type            zeroGradient;
    }
    right
    {
        type            zeroGradient;
    }
    bottom
    {
        type            uniformFixedValue;
        uniformValue    
        {
            type            scale;
            scale           
            {
                type            squarePulse;
                start           0.3;
                duration        0.3;
            }
            xScale          
            {
                type            constant;
                value           1;
            }
            value           
            {
                type            constant;
                value           15.1;
            }
        }
        value           uniform 0;
    }
}


// ************************************************************************* //
