/*--------------------------------*- C++ -*----------------------------------*\
  =========                 |
  \\      /  F ield         | OpenFOAM: The Open Source CFD Toolbox
   \\    /   O peration     | Website:  https://openfoam.org
    \\  /    A nd           | Version:  9
     \\/     M anipulation  |
\*---------------------------------------------------------------------------*/
FoamFile
{
    format      ascii;
    class       surfaceScalarField;
    location    "0.76";
    object      phi;
}
// * * * * * * * * * * * * * * * * * * * * * * * * * * * * * * * * * * * * * //

dimensions      [0 3 -1 0 0 0 0];

internalField   nonuniform List<scalar> 
663
(
-4.07961e-19
4.47245e-19
-3.92843e-20
1.24077e-19
4.90282e-19
-4.37218e-22
4.37218e-22
9.00431e-21
-4.38682e-21
-4.61749e-21
-2.15799e-19
3.39876e-19
5.89535e-23
-4.9617e-22
-4.79025e-19
7.1065e-20
2.92871e-21
6.0756e-21
-5.6438e-19
2.33917e-19
3.30463e-19
-3.87288e-20
-5.25651e-19
-1.38779e-19
5.86024e-19
2.8149e-19
-1.30115e-19
-1.51375e-19
-2.45108e-19
2.57021e-19
2.44691e-20
7.85691e-20
-7.94711e-20
9.01947e-22
8.31062e-20
-4.53705e-21
2.19457e-20
-2.76856e-20
5.73996e-21
2.43816e-20
-2.43593e-21
2.76656e-22
-2.76656e-22
3.1057e-20
-3.76217e-20
6.56471e-21
-6.99221e-21
3.80492e-20
-1.13841e-20
-1.4365e-20
2.57491e-20
-2.88908e-20
1.75067e-20
-1.1653e-20
9.66448e-21
1.9885e-21
9.10673e-22
-5.2975e-21
-6.53606e-21
-5.11693e-21
-2.81839e-20
1.51166e-21
2.66722e-20
9.90216e-21
-3.34778e-21
-6.55438e-21
5.68382e-20
-8.5022e-20
1.90921e-20
-1.58507e-20
-3.24135e-21
9.42508e-21
9.66701e-21
-8.43153e-20
7.97015e-20
4.61381e-21
6.63237e-21
-9.09476e-20
7.39954e-20
-7.08627e-20
-3.1327e-21
5.28025e-20
2.11929e-20
1.95262e-20
4.8554e-21
3.12085e-20
-1.16823e-20
-1.4824e-21
1.75906e-21
2.59566e-21
7.30651e-21
-8.02065e-20
4.82091e-21
7.53856e-20
-2.225e-20
-1.53717e-20
3.15774e-20
-3.56953e-20
4.11794e-21
2.68654e-21
-4.37181e-20
4.52297e-20
-1.73833e-19
2.89967e-21
-1.52632e-20
3.29354e-20
-1.76722e-20
-3.07814e-20
2.81924e-20
2.589e-21
-4.35472e-21
4.35472e-21
-4.83018e-21
1.20523e-20
-3.43023e-20
1.3698e-20
2.82716e-21
-1.65251e-20
-3.30617e-20
5.52055e-21
2.75412e-20
4.09013e-21
-2.49348e-20
2.08447e-20
4.04856e-20
-3.63954e-20
-9.33479e-21
2.30328e-20
-2.4598e-20
-5.08416e-21
-1.8573e-20
2.36571e-20
3.45263e-20
-3.96105e-20
-2.83401e-20
-4.72161e-21
-1.75906e-21
-3.79172e-20
2.3113e-19
-1.93212e-19
-2.04554e-20
2.49549e-20
-4.49944e-21
2.00254e-20
-2.3773e-20
3.74759e-21
-3.68491e-19
3.29763e-19
-9.44199e-21
-1.54928e-20
-4.30623e-20
3.51348e-20
7.92748e-21
7.18188e-21
-2.90154e-19
6.60484e-22
3.98251e-20
3.72449e-20
-2.71861e-21
-4.06409e-19
7.96575e-20
-2.28193e-20
-1.10148e-20
-1.97666e-20
-6.05761e-21
9.76395e-20
-9.15819e-20
-9.21862e-21
-8.12456e-21
-3.49377e-20
-4.52554e-19
4.1327e-19
-2.49047e-20
6.3317e-21
1.8644e-22
1.55016e-19
2.3596e-19
-3.90977e-19
-3.58817e-21
3.44403e-21
1.4414e-22
7.12409e-20
-1.09962e-19
3.87212e-20
1.37613e-21
2.9307e-22
-1.6692e-21
2.26257e-19
-5.87375e-22
-1.9868e-20
2.74554e-19
-4.34241e-20
-2.21204e-21
-1.51415e-20
1.16255e-20
3.51591e-21
-1.01653e-19
9.55953e-20
3.30448e-20
-1.70448e-19
7.16976e-20
-4.01753e-20
-3.15223e-20
-1.61378e-19
-2.14598e-19
3.75976e-19
4.93119e-20
2.23857e-20
1.68303e-20
-4.87931e-21
-8.6095e-22
4.30499e-21
1.07343e-20
3.64252e-20
-4.71595e-20
1.85624e-19
-4.30732e-19
-1.00945e-20
-5.04699e-21
-5.88102e-21
3.40734e-20
7.67512e-21
-1.77696e-20
2.59804e-20
5.37211e-20
-4.48823e-20
-1.09962e-19
2.93073e-22
5.57686e-20
-2.06338e-20
-4.82283e-20
8.12731e-20
-3.05962e-20
4.0781e-20
-1.01848e-20
6.36998e-20
2.56644e-20
-8.93641e-20
2.19205e-20
1.55933e-20
-7.41838e-20
8.49181e-20
-2.2252e-21
1.38508e-20
-1.15067e-20
1.91818e-20
-3.87212e-20
-9.50706e-21
1.93829e-21
1.6692e-21
-3.60748e-21
3.64252e-20
9.44268e-21
-7.50439e-21
-3.64772e-20
-1.55451e-19
3.41075e-19
1.73584e-19
1.0097e-19
-2.50175e-19
3.2124e-19
3.66576e-20
1.02207e-19
-3.85074e-20
2.73071e-19
-9.94868e-20
-6.01403e-20
8.58047e-20
1.52391e-20
3.75634e-20
3.83457e-20
-3.83457e-20
7.91547e-21
-1.94222e-20
-3.80907e-21
-1.47673e-20
1.85764e-20
-9.50707e-21
-3.60748e-21
3.20286e-21
-9.75724e-21
-1.17047e-20
1.17047e-20
6.33154e-21
-1.01406e-20
-4.00523e-20
-3.39779e-20
3.12593e-20
1.69566e-20
-6.33155e-21
2.72408e-21
4.86206e-22
9.71533e-20
-1.35873e-20
2.15028e-20
7.23065e-21
-2.26576e-20
-1.11534e-21
-1.32645e-20
1.55985e-21
6.4337e-21
-2.0021e-20
-2.3383e-20
3.96079e-21
1.53086e-20
8.50632e-20
-1.00372e-19
8.09005e-20
2.13067e-20
2.69182e-20
1.01406e-20
1.56406e-21
-1.94921e-20
-8.19356e-21
-1.37995e-20
2.02331e-20
1.1762e-19
1.25742e-19
-4.44685e-20
2.94766e-20
-6.14687e-20
3.1992e-20
4.33166e-21
-1.81311e-20
6.74338e-21
-9.83253e-20
-1.32645e-20
2.08904e-21
-1.53535e-20
2.40681e-20
5.40856e-21
-3.00502e-20
3.21392e-20
-6.45442e-21
8.84724e-20
-8.2018e-20
-3.99299e-20
3.99299e-20
-3.11438e-20
-8.78611e-21
8.23175e-20
-4.66733e-20
4.71595e-20
-2.91323e-20
4.66733e-20
8.32126e-21
-6.84616e-20
-1.16453e-20
1.59769e-20
-1.24033e-20
7.58016e-22
-9.25581e-20
1.07867e-19
-4.38859e-21
-4.70974e-20
5.1486e-20
2.08887e-20
-3.3292e-20
3.6404e-21
3.66625e-20
-4.03029e-20
2.09321e-20
-2.09321e-20
1.65435e-20
2.75721e-20
-3.40265e-20
-2.75721e-20
6.64e-21
1.66427e-20
-1.30023e-20
1.66427e-20
-2.28226e-20
3.11438e-20
-3.23953e-20
-4.38557e-21
3.67809e-20
2.28226e-20
-6.17987e-21
1.3037e-20
-1.3037e-20
1.67814e-21
-3.54809e-21
-3.60624e-20
-3.61607e-20
3.26126e-20
-3.70424e-20
-3.61111e-20
3.67716e-20
6.69757e-22
-3.49635e-20
-1.19717e-21
1.53849e-20
-1.47152e-20
-3.71955e-20
2.23198e-21
1.47152e-20
1.53849e-20
1.4961e-20
-1.4961e-20
1.37639e-20
-1.30023e-20
7.18188e-21
-1.07695e-20
1.07695e-20
-1.53535e-20
-3.40265e-20
-3.35562e-20
3.35562e-20
1.37639e-20
1.65435e-20
4.23882e-22
-1.81297e-21
-8.68398e-21
-3.91935e-21
-4.76463e-21
-5.73233e-21
-6.22959e-21
-2.73648e-20
3.35943e-20
-6.39901e-21
6.6668e-22
-2.65142e-21
-8.88102e-21
-3.0264e-20
2.89925e-21
-5.45772e-21
-2.48063e-20
3.78911e-21
-3.61247e-20
3.90239e-20
-2.54932e-21
2.73568e-20
-1.08587e-21
-2.62709e-20
2.76355e-20
-2.78744e-22
-8.00704e-21
-3.97076e-20
3.86217e-20
-4.21793e-21
1.04202e-20
-3.6691e-20
2.82922e-21
-4.49667e-21
-8.9961e-21
-3.39676e-20
1.42406e-21
2.55112e-21
-3.95935e-20
-2.34257e-20
-1.32654e-20
-1.28024e-20
2.51793e-20
-4.8605e-20
-4.7233e-20
-3.21547e-20
-1.35876e-20
4.57423e-20
-2.07524e-20
-1.59671e-20
1.73911e-20
9.21222e-21
-4.02421e-21
2.42574e-20
-1.28024e-20
-2.29425e-20
4.73081e-20
-7.49266e-20
2.76185e-20
1.48273e-20
-3.77698e-20
-4.8769e-20
-1.89495e-20
6.77186e-20
-2.99544e-20
4.47817e-20
-7.16549e-20
8.18917e-20
-1.02368e-20
1.73537e-20
-4.75868e-20
-3.14153e-20
1.70536e-20
9.82847e-20
-9.73828e-20
2.15195e-20
6.03722e-20
-2.75682e-20
1.23651e-20
-4.37804e-20
3.27797e-21
2.1306e-21
8.8048e-20
9.08992e-20
-2.47975e-20
3.71625e-20
-1.36528e-21
-1.23986e-20
1.23986e-20
2.29696e-20
4.77519e-20
-4.56213e-20
1.6763e-20
1.93631e-22
3.26615e-21
-3.74764e-20
-5.99064e-20
6.62601e-20
-1.85083e-20
6.0452e-22
1.17941e-20
6.88659e-20
-1.68353e-19
-7.835e-21
4.79145e-21
8.61805e-20
-8.13891e-20
1.55046e-19
-2.16964e-20
-2.56776e-20
-3.42214e-20
3.18638e-20
-1.17941e-20
-1.20823e-21
-4.60759e-20
5.22558e-20
-8.60352e-20
-6.83798e-20
-2.02628e-19
1.42747e-19
5.9881e-20
9.56432e-20
2.48525e-20
6.35599e-21
1.42201e-20
-5.90018e-20
-3.48759e-21
-1.75504e-20
7.70186e-20
3.87097e-20
2.04287e-19
-8.66666e-20
2.92112e-20
-6.63737e-20
-6.73677e-20
-1.86675e-20
-1.52471e-21
4.45342e-21
1.11728e-19
-5.296e-21
-1.05547e-20
-3.23754e-20
-1.0448e-20
1.0448e-20
-1.00057e-19
2.54465e-20
1.26027e-20
5.30058e-19
-3.2219e-19
1.43321e-21
-1.43321e-21
4.09417e-20
-9.70067e-21
2.04531e-20
-2.34388e-21
2.34388e-21
-1.02488e-20
-8.19166e-22
8.19166e-22
7.89586e-20
-6.15856e-19
7.7087e-20
-9.59151e-21
-1.65725e-22
1.71983e-21
1.45567e-20
-3.35836e-20
1.61063e-19
5.89544e-23
1.61063e-19
5.89544e-23
-1.71949e-20
5.07477e-19
7.41299e-22
-3.04078e-22
-1.22091e-19
-3.52027e-22
-5.11008e-20
3.71426e-19
7.86104e-23
-3.55265e-22
-1.85713e-20
3.38103e-20
6.28148e-20
-1.07457e-20
8.3903e-23
7.3526e-22
6.88405e-21
-8.27258e-20
-3.29147e-20
1.34226e-20
-6.88405e-21
-3.10866e-20
-2.34503e-20
3.37427e-20
8.02165e-21
-2.92056e-20
4.35901e-20
-5.02301e-20
-2.12056e-20
-1.10416e-20
6.4986e-20
4.88114e-20
-7.39701e-21
8.34999e-21
-5.91406e-21
-2.97687e-20
2.69395e-20
7.28187e-21
-7.28187e-21
1.82226e-20
2.35753e-20
-2.06894e-20
-2.92983e-21
2.18904e-20
-2.5141e-20
5.10813e-19
7.413e-22
4.50384e-19
8.38989e-23
4.07966e-19
-2.02586e-19
1.58458e-19
-1.58458e-19
7.86082e-23
-2.19197e-19
7.86082e-23
-3.37028e-19
-1.88623e-19
3.31597e-21
-3.48169e-21
3.30899e-21
-4.00091e-21
6.91914e-22
-1.33859e-20
-4.38372e-21
6.28148e-20
-1.51421e-21
9.71723e-22
-1.56779e-19
3.37427e-20
2.92056e-20
-1.66363e-22
8.34999e-21
5.91406e-21
1.88893e-20
2.5454e-20
-2.29508e-20
-5.44414e-21
-9.50064e-21
-1.92763e-22
-1.62504e-22
1.70698e-21
)
;

boundaryField
{
    back
    {
        type            empty;
        value           nonuniform List<scalar> 0();
    }
    front
    {
        type            empty;
        value           nonuniform List<scalar> 0();
    }
    left
    {
        type            calculated;
        value           uniform 0;
    }
    top
    {
        type            calculated;
        value           uniform 0;
    }
    right
    {
        type            calculated;
        value           uniform 0;
    }
    bottom
    {
        type            calculated;
        value           nonuniform List<scalar> 8(-6.14359e-19 -2.07867e-19 5.36897e-19 -3.76862e-19 -5.28008e-19 3.77656e-19 6.07163e-19 2.05381e-19);
    }
}


// ************************************************************************* //
