/*--------------------------------*- C++ -*----------------------------------*\
  =========                 |
  \\      /  F ield         | OpenFOAM: The Open Source CFD Toolbox
   \\    /   O peration     | Website:  https://openfoam.org
    \\  /    A nd           | Version:  9
     \\/     M anipulation  |
\*---------------------------------------------------------------------------*/
FoamFile
{
    format      ascii;
    class       volVectorField;
    location    "0.76";
    object      U;
}
// * * * * * * * * * * * * * * * * * * * * * * * * * * * * * * * * * * * * * //

dimensions      [0 1 -1 0 0 0 0];

internalField   nonuniform List<vector> 
464
(
(-1.14736e-11 -7.14883e-12 -7.50644e-31)
(-7.46837e-12 1.59126e-11 0)
(3.43786e-15 7.35162e-15 0)
(2.11755e-13 -9.20721e-15 4.48485e-30)
(-5.35244e-12 1.26037e-11 0)
(2.68337e-15 5.68378e-15 -1.25596e-30)
(-1.09576e-11 -4.15507e-12 7.4631e-30)
(2.00482e-13 -4.13681e-14 0)
(-1.34927e-11 5.67604e-13 -6.6175e-31)
(-1.27812e-11 4.62873e-12 -5.64114e-30)
(-9.1276e-12 -9.2441e-12 6.01942e-31)
(-3.85721e-12 -5.2182e-12 -6.07792e-31)
(-1.19316e-11 -1.27505e-12 3.06146e-31)
(-2.75921e-12 -5.60444e-12 0)
(-1.44221e-13 2.73331e-12 1.82843e-30)
(1.95492e-14 2.43497e-12 -4.98363e-30)
(7.28182e-14 9.09026e-13 0)
(1.79756e-14 7.19674e-13 -1.06794e-30)
(9.02129e-15 -3.79767e-15 -2.80583e-30)
(9.22517e-17 1.12614e-12 3.50689e-30)
(3.79773e-14 1.17453e-12 -5.22748e-30)
(2.82531e-13 7.62371e-13 1.12693e-30)
(3.23741e-13 8.08815e-13 -5.63553e-31)
(2.48069e-13 7.34732e-14 0)
(1.47127e-13 5.77074e-15 -4.60619e-30)
(2.50576e-13 1.21558e-13 2.24972e-30)
(-9.43473e-13 6.56735e-13 -7.79713e-30)
(1.32609e-13 -1.79833e-13 -3.56674e-30)
(-1.31399e-12 1.14711e-12 0)
(2.50573e-13 4.03976e-13 0)
(3.02703e-13 3.4061e-13 2.84223e-31)
(7.75755e-13 2.52861e-12 3.76801e-33)
(5.9215e-13 2.79034e-12 1.55011e-31)
(6.51663e-13 1.89401e-12 -1.56038e-30)
(7.58296e-13 1.68269e-12 1.57261e-30)
(4.27847e-16 7.32763e-13 3.11513e-30)
(-4.00015e-14 9.22747e-13 -2.87743e-30)
(2.21894e-14 -3.73229e-14 -4.29806e-31)
(1.06085e-13 -2.21007e-13 1.45508e-31)
(2.00145e-13 2.336e-12 0)
(-5.01783e-14 1.13589e-12 4.94228e-30)
(1.99806e-13 1.01295e-12 0)
(2.76463e-13 9.20666e-13 -1.4483e-30)
(-1.48029e-12 -8.65756e-13 -1.82876e-29)
(-2.93964e-12 -2.44951e-12 1.86593e-29)
(1.85168e-13 2.72116e-12 1.47458e-31)
(3.84847e-13 -6.44355e-13 3.33709e-30)
(1.1508e-13 -7.68334e-13 -3.70928e-32)
(2.43068e-14 -8.1243e-14 0)
(6.76638e-14 -9.55858e-14 4.16133e-31)
(-5.70536e-14 1.16983e-12 -3.34328e-30)
(1.30491e-13 -3.93561e-13 -1.84289e-31)
(-3.01972e-14 8.43496e-13 -2.13251e-30)
(1.2537e-13 -7.37142e-13 -3.05782e-30)
(9.88961e-14 -1.077e-12 -9.81979e-32)
(1.95994e-13 -5.496e-13 3.08166e-30)
(3.23813e-13 -5.81948e-13 0)
(-1.33402e-13 -7.21251e-13 0)
(-1.14211e-13 -1.03096e-12 -2.3792e-30)
(-5.88183e-14 9.34986e-13 0)
(3.85169e-14 -1.11033e-13 3.05667e-30)
(-6.10698e-12 4.20258e-12 2.53976e-29)
(1.03809e-13 -5.02651e-13 4.23719e-30)
(-9.37516e-14 -5.26957e-13 -2.98675e-30)
(-1.05206e-11 4.53854e-12 -2.60671e-31)
(2.2289e-13 -4.86129e-13 -3.3465e-30)
(2.46596e-13 -1.18488e-12 -1.55524e-30)
(4.73972e-14 -2.14579e-13 -2.48144e-30)
(-6.64387e-12 -6.89891e-12 -6.72086e-30)
(2.62339e-14 -1.17534e-12 2.9752e-30)
(-6.98206e-14 -1.07212e-12 2.37427e-30)
(-8.40483e-12 6.09961e-12 -1.35049e-29)
(-8.8888e-13 2.04995e-12 0)
(1.8697e-13 -7.62908e-13 3.05464e-30)
(1.63656e-13 -2.93179e-12 -4.36846e-30)
(1.80323e-13 -3.48092e-13 3.39709e-30)
(1.73873e-13 -1.05646e-12 -1.85847e-30)
(-1.30265e-11 -6.74596e-12 -7.37849e-30)
(-1.54981e-13 -5.08855e-13 -2.73921e-30)
(-3.40492e-13 2.20776e-12 3.59429e-30)
(-5.17918e-12 8.45053e-12 0)
(5.36639e-14 5.35982e-14 1.202e-30)
(-1.19743e-12 2.8163e-12 -3.27428e-29)
(1.94319e-14 3.56704e-14 5.55935e-30)
(-3.11594e-12 5.18256e-12 0)
(-1.32923e-14 -7.08801e-13 1.25981e-31)
(-6.02241e-12 2.29382e-12 -1.20424e-29)
(6.07943e-14 8.752e-14 0)
(3.52096e-13 -9.08429e-14 0)
(1.54696e-13 -2.87556e-12 -3.53928e-30)
(-3.76434e-12 3.78753e-12 1.87477e-29)
(-7.88795e-12 9.01414e-12 0)
(7.08523e-13 -1.51374e-12 1.38785e-30)
(-5.28158e-12 -1.10253e-11 -1.79196e-29)
(6.86746e-13 -1.81231e-12 -1.36157e-30)
(2.27464e-13 -7.46764e-13 -2.03229e-30)
(-1.29654e-13 -7.49649e-13 2.74557e-30)
(1.01217e-13 6.8768e-14 -1.10239e-30)
(-1.29586e-13 -1.56793e-12 -1.46802e-29)
(-1.0386e-11 1.07635e-13 -3.30614e-31)
(3.66205e-13 1.16246e-14 0)
(1.4464e-13 -9.43828e-13 1.5125e-31)
(4.23332e-13 8.5162e-14 0)
(8.38954e-13 2.25015e-12 -3.68707e-33)
(7.04504e-13 2.21126e-12 0)
(-7.97847e-13 2.34676e-12 -2.613e-29)
(7.04553e-15 3.99679e-15 0)
(4.36287e-13 -1.2208e-12 1.52062e-30)
(-2.03745e-12 1.58752e-12 -1.87678e-29)
(2.29561e-13 -9.83859e-13 0)
(7.75386e-13 -2.27481e-12 0)
(3.07329e-13 -7.92624e-13 -3.40668e-30)
(4.81193e-13 -1.43066e-12 0)
(-4.93166e-13 -2.18708e-12 9.04496e-30)
(3.93123e-13 -1.80999e-13 1.24707e-31)
(4.90485e-13 1.80445e-14 -6.63824e-32)
(-7.25135e-13 5.4017e-13 2.58019e-29)
(3.15363e-14 1.04125e-13 6.03564e-30)
(-1.49535e-13 -7.84862e-13 1.18084e-29)
(9.67247e-14 2.1521e-13 -3.29082e-31)
(2.39882e-13 -9.79015e-13 3.11301e-30)
(-8.56436e-12 -5.64665e-13 -1.04987e-31)
(-7.59632e-12 1.71525e-12 5.27638e-30)
(-8.58977e-12 -3.52914e-12 -6.54837e-30)
(-1.92029e-14 -1.00677e-12 0)
(8.70228e-13 -2.33139e-12 2.32066e-30)
(-6.57535e-12 5.16203e-13 -5.32236e-30)
(5.01925e-13 -2.2159e-12 0)
(5.66679e-13 1.45917e-12 0)
(-5.24892e-13 7.60211e-13 2.53657e-29)
(1.53196e-14 3.15343e-14 -4.31754e-30)
(-5.84033e-13 -7.70757e-13 -2.09718e-29)
(1.68756e-14 -3.05747e-14 -2.50136e-30)
(5.20469e-13 1.2815e-13 0)
(1.19628e-13 5.44773e-13 0)
(-3.12502e-13 -2.47108e-13 -2.04624e-29)
(2.02353e-14 7.35749e-14 -9.05245e-30)
(2.26113e-13 -2.02397e-13 -3.9976e-30)
(-9.8062e-12 2.18685e-12 6.07557e-30)
(1.56806e-14 2.44167e-13 3.92132e-30)
(4.5505e-14 3.18288e-13 0)
(8.91456e-13 -1.91285e-12 0)
(-5.06279e-14 -9.98286e-13 1.99863e-31)
(4.68454e-13 -1.60979e-13 4.0388e-30)
(4.13632e-14 1.98275e-13 5.56031e-30)
(-3.09638e-14 -2.67108e-12 -7.29793e-30)
(5.4335e-13 1.91598e-14 0)
(1.22151e-13 1.72988e-13 0)
(-2.8297e-14 -7.6648e-13 -9.85233e-32)
(2.53521e-14 4.97842e-13 -9.28012e-30)
(5.2817e-13 1.83107e-13 1.32681e-31)
(4.63322e-13 3.35702e-13 4.28321e-30)
(-2.32721e-12 1.1749e-12 2.6675e-30)
(6.36485e-13 -2.69431e-12 -2.33095e-30)
(-3.7936e-13 -8.67487e-13 -1.70412e-32)
(3.59474e-14 4.26657e-13 -5.62105e-30)
(8.4199e-14 8.90818e-13 0)
(5.12044e-13 3.41384e-14 0)
(-6.96803e-12 9.39517e-15 -6.27607e-32)
(-2.36329e-12 4.15628e-13 1.52964e-29)
(-1.54013e-12 -1.15265e-14 0)
(4.60768e-13 2.30695e-13 -3.93937e-30)
(2.34509e-13 -2.59085e-12 7.68194e-30)
(1.18719e-14 2.79676e-13 2.36755e-31)
(9.72978e-15 5.57882e-13 4.27954e-30)
(2.49069e-14 1.33398e-13 0)
(-6.36468e-13 5.76592e-13 -4.47542e-31)
(2.8978e-14 9.49281e-13 4.0036e-30)
(3.20907e-13 2.18595e-12 5.27806e-31)
(6.76979e-14 -8.17877e-13 3.67015e-30)
(1.4741e-13 -1.33169e-12 -8.23737e-31)
(-3.98934e-12 7.90296e-13 -1.01961e-29)
(3.3712e-14 -1.75609e-12 -2.31906e-30)
(1.8165e-13 7.37183e-13 -1.11963e-30)
(1.21188e-13 -1.62195e-12 1.5554e-30)
(3.2623e-13 -1.75103e-12 -1.11123e-30)
(4.05047e-13 2.65117e-14 3.90257e-30)
(3.22019e-13 2.5825e-13 -1.48167e-32)
(-3.15668e-12 8.93998e-13 4.08924e-30)
(2.55894e-13 1.3179e-12 3.14343e-31)
(2.84976e-13 7.11519e-13 3.77468e-30)
(1.45662e-13 -1.04604e-12 1.06934e-30)
(5.55391e-14 4.36066e-13 0)
(9.74267e-14 7.24504e-13 -3.469e-30)
(1.06657e-13 1.23929e-12 8.82011e-31)
(1.17809e-13 9.62562e-13 -7.29583e-32)
(5.41165e-14 -5.59809e-13 0)
(4.03876e-14 -3.30069e-13 -1.2102e-31)
(3.53559e-14 -9.64131e-13 -8.73378e-30)
(1.3358e-13 -1.01206e-12 1.20615e-33)
(8.07032e-14 -1.06763e-12 -2.95335e-33)
(9.71133e-14 -7.41636e-13 1.51385e-31)
(1.91205e-14 -2.57986e-13 -4.10621e-30)
(7.64794e-14 -9.00904e-13 -3.01523e-30)
(-1.05325e-13 -1.12173e-12 2.52145e-33)
(-7.18802e-14 -1.05778e-12 -2.52944e-33)
(1.7094e-14 1.11053e-12 -3.6812e-30)
(1.37709e-13 -1.1114e-12 2.92194e-33)
(6.0933e-14 5.9281e-13 -1.39057e-30)
(1.13352e-14 -1.1254e-12 2.87727e-30)
(3.05582e-14 -9.85041e-13 0)
(-4.44298e-14 -9.6389e-13 0)
(8.95143e-15 -5.71776e-13 0)
(-4.59281e-14 -1.11353e-12 2.75471e-33)
(6.09833e-14 -4.57983e-13 0)
(2.75111e-14 -5.2479e-13 -1.30903e-32)
(1.0701e-15 -3.0688e-13 0)
(-7.20499e-15 -2.97177e-13 -2.26739e-30)
(-2.0961e-14 -5.46038e-13 2.71995e-30)
(-3.66008e-14 -9.87017e-13 7.02928e-30)
(2.4522e-14 2.05564e-13 4.17606e-30)
(1.88408e-14 -2.55715e-13 0)
(2.62557e-14 -1.39299e-13 2.14483e-30)
(-4.63123e-15 2.42111e-13 -2.3424e-30)
(-4.27183e-17 3.10394e-13 0)
(7.32581e-14 -6.31593e-13 -6.97374e-31)
(3.51917e-14 7.61822e-13 7.03475e-31)
(1.06433e-14 -2.93693e-13 2.11782e-30)
(-1.56475e-13 7.86283e-13 3.05128e-30)
(-1.14194e-14 -2.72026e-13 -2.1763e-30)
(4.98939e-14 3.44494e-13 2.5603e-30)
(-8.50109e-15 -5.76567e-13 2.83578e-30)
(-1.41577e-14 -1.00124e-12 -2.88073e-30)
(4.74664e-14 -5.20925e-13 6.232e-30)
(2.33576e-13 2.64511e-14 3.59709e-30)
(1.34585e-13 2.92182e-13 -3.41077e-30)
(4.79903e-14 3.79288e-14 0)
(-1.30095e-13 7.92628e-13 1.52313e-30)
(-3.02931e-14 2.9022e-13 -9.46241e-32)
(-9.72464e-14 1.59646e-14 -3.07183e-30)
(-1.43608e-13 2.91384e-13 3.04469e-30)
(-1.33231e-13 9.37803e-13 -3.46877e-31)
(-1.3493e-13 7.44587e-13 0)
(-9.33122e-14 -4.94489e-13 -2.27852e-30)
(-1.11582e-13 1.10662e-12 2.99941e-30)
(-1.62144e-13 3.27231e-14 0)
(7.94892e-14 9.07867e-13 -1.22662e-31)
(-1.5724e-14 7.29678e-13 -8.64661e-32)
(-1.44567e-13 2.89173e-13 2.58575e-30)
(5.29878e-14 1.07921e-12 2.59121e-30)
(-9.58202e-14 2.64433e-14 -2.63219e-30)
(2.31043e-13 7.79445e-13 -2.35439e-30)
(-8.90638e-14 8.90413e-13 2.54928e-30)
(-9.81406e-15 2.81728e-13 0)
(1.12938e-13 2.49041e-14 0)
(1.23794e-13 1.10361e-12 -9.8934e-32)
(2.62092e-13 2.90943e-13 -7.10997e-32)
(-9.88451e-15 9.94375e-13 0)
(3.57061e-13 1.0122e-12 0)
(-1.74681e-14 5.5345e-13 0)
(5.66264e-13 8.91661e-13 -1.85038e-30)
(2.75412e-13 1.18902e-12 -4.6787e-30)
(7.72099e-13 -6.7085e-13 -1.6936e-30)
(5.04583e-13 -2.62171e-12 3.55022e-30)
(4.4171e-13 1.99096e-14 0)
(6.23018e-13 3.06549e-13 0)
(4.9004e-13 -3.40118e-13 0)
(-2.1501e-14 2.83233e-13 -2.53778e-30)
(8.13157e-13 -6.91585e-15 -1.87354e-30)
(1.11463e-12 1.31814e-12 0)
(9.73316e-13 3.51514e-13 1.79076e-30)
(1.1831e-12 -1.04137e-12 3.23586e-30)
(1.13247e-12 -1.65157e-15 1.46906e-30)
(1.69774e-13 2.272e-12 7.25491e-31)
(1.21863e-12 4.36136e-13 -1.46909e-30)
(-5.20076e-13 1.72554e-12 -3.99187e-30)
(1.23856e-12 -1.74961e-14 -2.92144e-33)
(3.15908e-13 -2.62308e-13 -1.21891e-31)
(-2.18937e-13 2.88199e-12 -2.21952e-30)
(5.85436e-13 1.80485e-12 -7.35323e-31)
(1.13495e-13 7.5656e-13 -4.14621e-30)
(1.13618e-12 5.13693e-13 0)
(6.07146e-14 -1.84803e-15 4.32579e-31)
(1.87881e-13 2.89859e-12 -3.96119e-31)
(-7.78789e-12 -1.64498e-12 1.53354e-30)
(9.41568e-13 -1.33997e-14 0)
(5.8164e-13 5.95301e-13 0)
(-4.76312e-14 -9.02374e-13 -2.31718e-30)
(-8.85887e-15 -2.44081e-13 0)
(-3.76596e-13 -2.70348e-12 -1.82445e-30)
(8.91252e-14 -1.26337e-12 1.1821e-32)
(4.70708e-13 -3.02387e-13 -7.49292e-32)
(-2.27401e-14 -4.98093e-13 0)
(1.29854e-13 -5.80233e-13 -3.14943e-30)
(-8.88257e-13 2.48381e-12 -3.18334e-30)
(-5.19106e-13 -1.72205e-12 -2.74548e-30)
(-1.06703e-14 -4.61246e-13 -1.82552e-30)
(-4.68912e-12 -1.18941e-13 0)
(3.78436e-13 -4.41918e-13 0)
(-1.43416e-12 -1.08498e-12 2.81483e-30)
(-2.27453e-12 -1.22895e-12 2.15144e-32)
(-3.68763e-12 -5.2985e-13 -1.73292e-32)
(4.82615e-13 -4.35548e-13 -3.82413e-30)
(2.88448e-13 -6.72052e-13 6.91619e-30)
(5.50625e-13 -8.61439e-13 1.72632e-30)
(-1.53954e-14 -8.60106e-13 4.04975e-30)
(1.56648e-14 -4.71552e-13 0)
(4.31892e-13 -1.72793e-12 1.23308e-31)
(2.9449e-13 -1.33755e-12 -1.07174e-30)
(-3.66063e-12 -3.415e-13 1.00968e-29)
(-1.17141e-12 1.92141e-12 1.86412e-30)
(-2.59642e-12 3.83651e-13 -4.80084e-31)
(-4.24873e-12 -8.5007e-13 -1.82897e-29)
(-3.17908e-12 -8.05962e-12 2.26628e-29)
(-7.22605e-14 9.43968e-13 1.50606e-30)
(8.77854e-13 -1.05915e-12 -1.56441e-30)
(1.09233e-12 -1.32939e-12 -3.11476e-30)
(-5.70388e-14 7.77308e-13 1.47602e-30)
(-1.16614e-12 -8.53198e-13 -2.82471e-29)
(3.376e-13 -2.21587e-12 -2.44651e-30)
(-2.76821e-14 -1.10554e-12 -2.97586e-30)
(5.19468e-13 -2.52771e-13 -7.27232e-32)
(4.14321e-13 -5.58858e-13 0)
(-5.33054e-12 1.56273e-15 8.51404e-32)
(1.04143e-12 -1.60285e-12 -3.41881e-30)
(5.5656e-13 -1.78102e-12 0)
(1.48354e-15 -2.31575e-13 1.44474e-30)
(-2.15823e-12 -1.41601e-12 0)
(1.2434e-13 -3.23257e-14 0)
(-4.81187e-12 6.99263e-14 -4.14874e-30)
(2.62279e-13 5.27688e-13 3.76037e-30)
(1.4541e-13 -1.09336e-12 -5.62028e-33)
(-1.22249e-12 -1.6851e-12 1.31408e-29)
(2.48247e-13 -1.33754e-12 9.86585e-31)
(-3.92649e-12 -2.34199e-14 3.46019e-31)
(4.13713e-14 -4.40962e-13 8.905e-33)
(4.9195e-14 -3.30454e-13 -2.50551e-30)
(-5.72727e-12 -8.27505e-13 5.58105e-30)
(2.96313e-13 -3.70913e-13 0)
(-1.72404e-12 -1.89784e-12 -6.30274e-30)
(1.21881e-13 1.11e-12 -2.00882e-30)
(-1.40019e-11 5.36854e-12 -2.63822e-30)
(2.91035e-14 2.97593e-15 -1.85127e-30)
(1.07928e-12 -8.40748e-13 3.06622e-30)
(-6.53995e-14 -1.16914e-12 -2.7411e-33)
(3.84873e-13 -4.27274e-13 -3.45765e-30)
(3.33568e-13 6.05763e-13 -3.53103e-30)
(4.0862e-14 -4.37198e-15 -3.52998e-30)
(4.36494e-13 -2.68056e-12 -8.71129e-31)
(1.31725e-13 1.10016e-12 4.20112e-30)
(1.64931e-14 -7.15925e-15 1.81228e-30)
(-1.1504e-11 -1.39281e-11 0)
(-3.34094e-13 -2.56917e-12 -6.04462e-32)
(-7.64278e-13 -2.55025e-12 6.25555e-30)
(9.13859e-13 -1.20855e-12 1.72084e-30)
(2.13134e-13 -1.32591e-13 1.94531e-30)
(2.54537e-14 -2.05213e-13 4.05599e-30)
(5.19663e-14 -1.07576e-12 1.85306e-30)
(7.55277e-14 3.66564e-16 4.32092e-30)
(-1.09181e-13 -1.07884e-12 0)
(4.15868e-13 -5.64894e-13 -1.07528e-31)
(6.16116e-14 -1.19952e-14 -2.06131e-30)
(5.14536e-14 -8.94237e-13 0)
(2.41755e-14 -9.91641e-13 -1.89847e-30)
(3.35012e-13 -8.27185e-13 -3.21553e-30)
(-2.48295e-12 1.01267e-11 3.02812e-29)
(-2.96123e-15 3.28917e-16 0)
(-7.21729e-13 4.20253e-12 -1.63513e-29)
(3.53607e-17 -2.81286e-15 -1.94226e-30)
(-9.58351e-12 1.39729e-11 0)
(2.67318e-14 1.66984e-14 -2.58733e-30)
(-1.40808e-11 -1.59018e-12 7.5831e-31)
(1.95333e-14 2.02243e-14 1.34285e-30)
(-4.14226e-12 9.5322e-12 0)
(-8.31346e-12 -1.1626e-11 5.49241e-31)
(3.20501e-15 -1.034e-16 3.84939e-30)
(2.64426e-13 -9.44306e-14 0)
(4.29894e-13 1.3916e-12 0)
(-1.05875e-12 -2.43155e-12 0)
(1.45664e-13 3.19521e-13 2.82749e-30)
(2.09321e-14 -1.1903e-14 0)
(-6.65627e-13 -4.46652e-13 4.07406e-29)
(-1.3367e-12 2.11748e-12 -7.10889e-31)
(1.96986e-13 1.14106e-12 0)
(-3.06184e-13 8.03213e-13 2.77109e-30)
(2.93662e-13 3.04125e-14 0)
(-4.49948e-12 -2.2208e-12 1.03499e-29)
(1.30788e-13 8.9617e-13 6.95424e-30)
(-1.18492e-13 1.43908e-12 2.21623e-29)
(1.58209e-13 4.98433e-13 1.41084e-30)
(6.48954e-14 1.38882e-12 0)
(4.73975e-13 2.16327e-12 -5.61997e-31)
(3.89386e-13 1.65104e-12 0)
(1.04881e-12 1.70584e-12 -4.13283e-31)
(6.76206e-13 1.13171e-12 4.11147e-32)
(8.21838e-13 2.03014e-12 0)
(9.58756e-13 1.39914e-12 -9.4483e-31)
(1.7184e-13 1.20513e-13 -2.59845e-30)
(5.72601e-14 5.03782e-13 0)
(-5.53859e-15 3.7841e-13 0)
(-9.47269e-14 1.08131e-12 -1.53607e-30)
(-3.12068e-14 1.06233e-12 0)
(-1.17701e-14 4.06585e-13 1.45687e-30)
(-2.91164e-14 4.4962e-13 5.43894e-30)
(-9.01173e-14 9.1807e-13 -1.72722e-30)
(3.18096e-13 7.75498e-13 -3.88337e-30)
(1.84203e-13 8.94507e-13 0)
(4.34864e-13 4.83011e-13 -9.17768e-30)
(6.94785e-14 1.00326e-12 0)
(-2.71607e-12 3.74213e-13 9.43793e-30)
(-1.17851e-11 1.38969e-11 0)
(1.45509e-14 4.08568e-15 0)
(-9.7608e-12 -1.43286e-11 0)
(5.68725e-16 -4.57983e-15 -1.58195e-30)
(-1.4409e-11 -7.93029e-14 3.61004e-30)
(-1.298e-11 -9.41841e-12 0)
(-8.90728e-13 -4.38712e-12 0)
(1.85908e-16 2.7159e-15 2.90482e-30)
(-2.67703e-12 -1.00398e-11 0)
(-2.59759e-15 5.33985e-16 -3.74995e-30)
(-1.25629e-11 7.5473e-12 2.64125e-30)
(1.3825e-13 -9.15877e-14 2.15646e-30)
(1.09847e-13 2.89944e-14 0)
(3.882e-13 1.89521e-13 2.34584e-30)
(1.64509e-13 4.19503e-14 0)
(-9.88811e-12 1.05721e-11 0)
(-4.56696e-13 -1.67718e-12 0)
(7.59124e-14 -7.30065e-14 1.24294e-31)
(8.50906e-14 3.87693e-14 2.32773e-30)
(-1.33408e-11 8.67502e-12 -2.62173e-30)
(1.04514e-13 -4.9755e-14 2.32607e-30)
(4.99419e-14 5.49064e-15 2.68591e-30)
(-6.84171e-12 -4.27005e-12 7.20254e-30)
(-2.0211e-13 1.83616e-13 -1.8415e-29)
(-7.4165e-12 -1.60948e-11 -1.45377e-29)
(-2.42933e-12 1.25436e-12 3.8079e-30)
(-2.1439e-14 8.20624e-13 -8.00069e-30)
(3.62548e-14 1.45665e-12 2.33239e-30)
(1.67747e-14 7.43439e-13 -1.68363e-30)
(-1.66625e-12 5.76687e-12 3.80531e-29)
(3.026e-15 1.68642e-15 2.89398e-30)
(1.06738e-12 1.42533e-12 4.44403e-31)
(2.78952e-13 1.61959e-12 8.22281e-32)
(1.8285e-13 1.96318e-13 4.86338e-30)
(9.0471e-13 9.5444e-13 3.1044e-30)
(2.06799e-14 2.06755e-13 0)
(3.62332e-15 3.4613e-13 8.45954e-31)
(3.97254e-13 3.20454e-13 -2.45568e-30)
(-2.7644e-15 1.58746e-13 0)
(9.86593e-14 3.45345e-13 -2.85349e-30)
(-8.29385e-14 1.04695e-12 0)
(-6.27225e-15 1.90627e-13 -1.12074e-30)
(-3.53601e-14 7.0886e-13 1.53147e-31)
(3.44541e-14 8.869e-13 -1.92907e-30)
(4.79088e-13 4.59094e-13 6.66153e-30)
(1.19762e-13 7.4066e-13 -1.1786e-31)
(4.21462e-13 6.18593e-13 -2.40846e-30)
(6.31203e-14 8.20743e-13 -2.48065e-30)
(4.15661e-13 5.50922e-13 2.513e-30)
(-3.33856e-14 1.08588e-12 1.70775e-30)
(4.14349e-13 2.59187e-12 0)
(-1.42451e-11 -5.43503e-12 -2.13382e-30)
(3.49413e-13 2.93344e-12 1.93776e-30)
(3.17255e-13 1.8171e-13 0)
(-8.22404e-14 1.13074e-12 -3.32217e-30)
(3.13342e-13 1.32281e-12 0)
(3.12906e-13 1.25461e-12 2.75766e-30)
(1.0469e-14 -1.38143e-14 -2.05461e-30)
(5.28059e-14 -2.98148e-14 -5.06103e-32)
(3.89297e-14 -3.74508e-14 -7.01249e-32)
(-1.76419e-15 -1.07438e-15 3.56343e-30)
(-1.26167e-12 -5.08564e-12 0)
(-5.13266e-12 -1.28903e-11 4.02551e-30)
(2.6579e-13 2.55489e-13 -6.1162e-30)
)
;

boundaryField
{
    back
    {
        type            empty;
    }
    front
    {
        type            empty;
    }
    left
    {
        type            noSlip;
    }
    top
    {
        type            uniformFixedValue;
        uniformValue    
        {
            type            scale;
            scale           
            {
                type            squarePulse;
                start           0.3;
                duration        0.3;
            }
            xScale          
            {
                type            constant;
                value           1;
            }
            value           
            {
                type            constant;
                value           (0 -0.7 0);
            }
        }
        value           uniform (0 -0 0);
    }
    right
    {
        type            noSlip;
    }
    bottom
    {
        type            zeroGradient;
    }
}


// ************************************************************************* //
