/*--------------------------------*- C++ -*----------------------------------*\
  =========                 |
  \\      /  F ield         | OpenFOAM: The Open Source CFD Toolbox
   \\    /   O peration     | Website:  https://openfoam.org
    \\  /    A nd           | Version:  9
     \\/     M anipulation  |
\*---------------------------------------------------------------------------*/
FoamFile
{
    format      ascii;
    class       volVectorField;
    location    "0.21";
    object      U;
}
// * * * * * * * * * * * * * * * * * * * * * * * * * * * * * * * * * * * * * //

dimensions      [0 1 -1 0 0 0 0];

internalField   nonuniform List<vector> 
578
(
(-0.167 -0.219 0)
(-0.0969 -0.397 2.19e-16)
(-0.256 -0.337 -8.5e-17)
(0.0325 -0.478 -1.64e-17)
(0.06 -0.125 -4.47e-17)
(0.0232 -0.539 -6.22e-17)
(-0.0634 -0.131 4.39e-17)
(0.0775 -0.143 -4.8e-20)
(0.385 -0.513 -1.37e-16)
(-0.0638 -0.255 3.94e-16)
(0.0255 -0.561 -8.46e-17)
(0.232 -0.447 0)
(0.0154 -0.471 7.19e-17)
(0.272 -0.486 -5.08e-16)
(-0.277 -0.495 2.54e-16)
(0.332 -0.392 -6.4e-17)
(-0.249 -0.286 3.4e-16)
(-0.426 -0.401 0)
(0.212 -0.407 0)
(0.381 -0.472 8.93e-17)
(0.033 -0.523 0)
(0.256 -0.359 0)
(0.188 -0.195 -3.97e-16)
(-0.00721 -0.463 0)
(-0.011 -0.386 0)
(0.206 -0.414 2.72e-16)
(-0.0316 -0.464 -3.3e-17)
(-0.00907 -0.253 2.58e-17)
(-0.0836 -0.469 -3.27e-16)
(0.353 -0.41 2.58e-16)
(-0.0184 -0.416 -3.58e-16)
(0.023 -0.47 7.1e-17)
(0.42 -0.464 -2.22e-16)
(-0.0191 -0.505 1.25e-16)
(-0.233 -0.44 -2.52e-16)
(0.292 -0.329 -4.26e-16)
(0.227 -0.429 5.02e-16)
(0.193 -0.381 0)
(-0.335 -0.388 -2.52e-16)
(0.0941 -0.19 0)
(0.105 -0.226 -3.51e-16)
(0.131 -0.235 3.92e-16)
(0.108 -0.218 0)
(-0.257 -0.444 0)
(0.399 -0.367 3.17e-17)
(-0.0992 -0.197 0)
(-0.108 -0.235 3.45e-16)
(0.383 -0.513 -3.16e-17)
(-0.332 -0.393 3.77e-16)
(-0.0391 -0.526 -7.18e-17)
(0.0089 -0.237 1.38e-17)
(0.0254 -0.476 -3.05e-16)
(0.315 -0.259 -1.57e-16)
(-0.0204 -0.505 0)
(0.00199 -0.46 2.63e-16)
(-0.0185 -0.56 5.56e-16)
(0.0857 -0.0619 9.34e-16)
(0.316 -0.243 -3e-16)
(-0.3 -0.365 -5.01e-16)
(0.166 -0.199 1.91e-16)
(-0.361 -0.404 2.61e-16)
(-0.279 -0.217 0)
(-0.448 -0.338 3.95e-17)
(0.254 -0.437 2.32e-16)
(-0.00803 -0.473 6.68e-17)
(-0.323 -0.511 1.33e-16)
(0.428 -0.494 -2.73e-17)
(0.0465 -0.552 1.99e-16)
(0.419 -0.423 -1.19e-16)
(0.24 -0.503 2.78e-16)
(-0.00648 -0.416 0)
(0.0073 -0.4 -1.02e-17)
(-1.57e-05 -0.468 -7.29e-17)
(0.244 -0.509 0)
(0.00411 -0.595 1.27e-16)
(0.0793 -0.141 0)
(0.293 -0.385 1.85e-16)
(0.22 -0.295 -1.73e-16)
(0.00993 -0.475 0)
(-0.146 -0.175 -1.06e-16)
(0.168 -0.438 -2.52e-16)
(-0.0845 -0.139 -3.77e-16)
(0.0528 -0.155 -1.68e-16)
(0.0853 -0.132 1.75e-16)
(-0.434 -0.514 -3.36e-17)
(-0.076 -0.17 0)
(0.00346 -0.138 0)
(-0.0164 -0.585 -2.03e-16)
(0.154 -0.345 4.52e-20)
(-0.171 -0.383 2.71e-18)
(-0.0304 -0.498 0)
(-0.424 -0.501 6.58e-17)
(-0.16 -0.354 0)
(0.0383 -0.51 1.3e-16)
(0.358 -0.425 4.04e-16)
(0.25 -0.398 -3.71e-16)
(0.000182 -0.462 7.23e-17)
(0.00769 -0.463 -5.17e-16)
(-0.0189 -0.162 -7.28e-16)
(-0.257 -0.484 0)
(-0.31 -0.466 0)
(0.215 -0.47 -4.72e-16)
(-0.034 -0.494 0)
(-0.254 -0.282 0)
(-0.00586 -0.46 0)
(0.252 -0.477 -3.81e-16)
(0.00568 -0.56 -1.32e-16)
(0.123 -0.23 0)
(-0.0424 -0.102 0)
(0.159 -0.273 -4.05e-16)
(0.304 -0.357 -1.11e-16)
(0.232 -0.481 0)
(0.386 -0.455 2.68e-16)
(0.281 -0.424 -2.38e-16)
(0.302 -0.424 2.68e-16)
(-0.0262 -0.479 2.94e-16)
(0.0409 -0.52 1.39e-16)
(-0.229 -0.447 -2.3e-16)
(-0.143 -0.326 4.29e-17)
(-0.00773 -0.463 2.52e-16)
(0.171 -0.338 -2.72e-16)
(0.139 -0.23 8.7e-20)
(0.232 -0.463 -2.72e-16)
(0.0241 -0.45 -3.78e-17)
(0.113 -0.229 0)
(-0.207 -0.463 2.93e-16)
(0.112 -0.442 -2.66e-16)
(0.437 -0.464 -1.26e-16)
(-0.251 -0.515 1.47e-16)
(-0.207 -0.472 0)
(-0.246 -0.492 0)
(-0.217 -0.482 0)
(0.0453 -0.527 0)
(0.0454 -0.0897 4.17e-16)
(-0.244 -0.508 -2.67e-16)
(-0.23 -0.347 0)
(0.202 -0.37 0)
(-0.0138 -0.47 -2.49e-16)
(0.222 -0.428 2.75e-16)
(-0.21 -0.409 0)
(-0.102 -0.193 4.72e-16)
(-0.202 -0.463 0)
(-0.18 -0.346 0)
(0.00305 -0.407 0)
(0.0895 -0.175 0)
(-0.381 -0.441 -3.66e-21)
(-0.173 -0.355 3.42e-16)
(-0.0368 -0.39 0)
(0.245 -0.503 2.8e-16)
(-0.211 -0.468 0)
(0.319 -0.506 0)
(-0.167 -0.21 0)
(0.0744 -0.0814 0)
(0.0821 -0.161 4.78e-16)
(-0.273 -0.511 -2.57e-16)
(-0.0403 -0.478 -1.52e-16)
(-0.091 -0.509 2.84e-16)
(0.0536 -0.502 -6.81e-17)
(-0.0607 -0.0648 -1.06e-16)
(0.342 -0.517 -2.24e-16)
(0.322 -0.505 3.16e-16)
(0.308 -0.457 3.21e-16)
(-0.0544 -0.104 -6.2e-18)
(0.269 -0.424 0)
(-0.000164 -0.13 1.46e-19)
(-0.211 -0.449 -1.25e-20)
(-0.000597 -0.235 -4.49e-16)
(-0.233 -0.433 0)
(0.0404 -0.398 -8.14e-17)
(-0.0336 -0.547 -1.12e-16)
(0.245 -0.358 0)
(0.117 -0.212 0)
(-0.129 -0.202 0)
(-0.0813 -0.161 -4.82e-16)
(-0.2 -0.373 0)
(-0.0108 -0.485 -6.78e-17)
(-0.000628 -0.491 -6.91e-17)
(-0.214 -0.433 2.7e-16)
(0.14 -0.215 5.09e-17)
(-0.00969 -0.406 1.66e-16)
(-0.118 -0.214 0)
(-0.177 -0.369 0)
(-0.139 -0.333 0)
(0.0105 -0.486 5.15e-16)
(-0.275 -0.394 1.95e-16)
(-0.0221 -0.285 -2.99e-16)
(0.112 -0.151 -1.71e-16)
(-0.259 -0.512 6.96e-17)
(-0.296 -0.518 2.69e-16)
(-0.00785 -0.239 -4.54e-16)
(0.292 -0.512 -2.69e-16)
(0.227 -0.376 0)
(0.178 -0.249 4.03e-16)
(-0.212 -0.382 0)
(-0.126 -0.236 0)
(-0.00647 -0.533 1.29e-16)
(0.0252 -0.332 7.66e-16)
(-0.0246 -0.326 -6.02e-16)
(-0.224 -0.376 0)
(0.212 -0.379 0)
(0.0253 -0.294 -2.89e-16)
(0.024 -0.503 -6.61e-16)
(0.0773 -0.267 -2e-16)
(-0.0174 -0.528 0)
(-0.00283 -0.504 -2.08e-16)
(0.236 -0.435 0)
(-0.263 -0.422 0)
(-0.366 -0.389 0)
(0.307 -0.523 2.73e-16)
(-0.0972 -0.123 0)
(-0.142 -0.288 3.5e-16)
(-0.311 -0.53 -2.6e-16)
(-0.233 -0.481 -8.79e-18)
(0.00831 -0.516 6.69e-17)
(-0.2 -0.399 -1.68e-16)
(0.0226 -0.485 0)
(-0.251 -0.441 -3.09e-16)
(0.251 -0.439 3.1e-16)
(-0.287 -0.529 2.7e-16)
(-0.0729 -0.141 -5.09e-16)
(0.283 -0.522 1.37e-16)
(-0.222 -0.426 0)
(0.155 -0.309 -3.38e-16)
(0.13 -0.225 0)
(-0.125 -0.231 0)
(-0.154 -0.305 6.85e-16)
(0.00178 -0.554 -6.35e-17)
(0.0201 -0.217 2.29e-19)
(-0.0168 -0.213 1.7e-16)
(-0.00178 -0.129 3.8e-16)
(-0.0461 -0.14 -3.84e-16)
(0.0232 -0.149 -1.9e-16)
(-0.0448 -0.0894 -4.15e-16)
(0.155 -0.365 0)
(-0.159 -0.372 0)
(0.0753 -0.113 1.35e-16)
(0.0705 -0.128 0)
(-0.0717 -0.129 0)
(0.042 -0.501 1.03e-16)
(0.142 -0.289 0)
(-0.0628 -0.115 0)
(0.0631 -0.108 0)
(-0.00818 -0.546 -2.62e-16)
(-0.106 -0.202 0)
(-0.0139 -0.186 6.86e-16)
(0.0496 -0.103 0)
(-0.0533 -0.101 -3.94e-16)
(-0.025 -0.265 8.16e-16)
(-0.0646 -0.0941 0)
(-0.0244 -0.562 -6.34e-17)
(0.00611 -0.528 6.62e-17)
(-0.222 -0.484 0)
(0.0337 -0.416 0)
(0.0584 -0.133 -4e-18)
(0.00446 -0.122 0)
(0.196 -0.453 2.86e-16)
(-0.00234 -0.238 4.47e-16)
(-0.341 -0.521 -4.02e-16)
(0.0723 -0.117 0)
(0.0247 -0.263 4.44e-16)
(0.0732 -0.141 5.05e-16)
(-0.0674 -0.12 3.88e-16)
(0.0103 -0.185 -6.95e-16)
(0.0157 -0.302 4.34e-16)
(-0.159 -0.423 2.37e-16)
(0.188 -0.384 5.82e-16)
(0.124 -0.284 0)
(0.0348 -0.0698 -4.26e-16)
(-0.00492 -0.133 -3.87e-16)
(0.0212 -0.0701 0)
(-0.0215 -0.0703 0)
(-0.224 -0.481 -2.73e-16)
(0.156 -0.336 0)
(-0.000191 -0.565 -1.88e-16)
(0.0208 -0.517 -1.4e-16)
(-0.011 -0.574 -3.72e-16)
(-0.0279 -0.539 1.45e-16)
(-0.0347 -0.0697 0)
(-0.129 -0.223 0)
(-0.0156 -0.58 -3.18e-16)
(0.123 -0.229 0)
(-0.0191 -0.57 5.64e-16)
(0.00757 -0.574 0)
(0.0162 -0.544 -6.4e-17)
(-0.0108 -0.583 1.25e-16)
(-0.0905 -0.175 -4.59e-16)
(0.0402 -0.0768 -8.38e-16)
(-0.0401 -0.0768 4.23e-16)
(-0.00324 -0.107 0)
(-0.00493 -0.238 -4.1e-16)
(0.193 -0.434 0)
(-0.234 -0.495 8.73e-18)
(-0.0303 -0.559 1.12e-16)
(-0.0711 -0.113 0)
(0.00572 -0.138 0)
(0.0143 -0.271 5.1e-17)
(0.0666 -0.12 -3.89e-16)
(0.202 -0.463 -6.24e-16)
(0.00437 -0.252 9.86e-17)
(0.00539 -0.266 -3.88e-16)
(-0.02 -0.564 3.25e-16)
(-0.197 -0.442 0)
(0.00265 -0.154 3.57e-16)
(0.00169 -0.126 0)
(0.00903 -0.171 0)
(-0.00315 -0.163 6.72e-16)
(0.207 -0.46 2.81e-16)
(-0.00714 -0.474 -6.97e-16)
(-0.00436 -0.595 -2.43e-16)
(-0.00389 -0.587 0)
(0.172 -0.355 1.7e-16)
(0.000559 -0.604 1.79e-16)
(-0.000375 -0.606 -3.78e-16)
(-0.156 -0.337 0)
(-0.0106 -0.596 2.49e-16)
(0.0162 -0.574 2.62e-16)
(-0.222 -0.465 0)
(-0.0585 -0.133 0)
(-0.124 -0.284 0)
(-0.0145 -0.584 -3.11e-16)
(-0.187 -0.377 -3.37e-16)
(0.00507 -0.583 4.99e-16)
(-0.0204 -0.56 6.4e-17)
(-0.00718 -0.579 -2e-16)
(-0.0165 -0.513 2.68e-16)
(0.0107 -0.586 -1.17e-16)
(-0.32 -0.51 2.44e-16)
(-0.188 -0.359 0)
(0.271 -0.508 0)
(0.00819 -0.595 4.62e-16)
(-0.0242 -0.495 6.96e-17)
(-0.348 -0.494 -9.64e-17)
(0.000801 -0.599 1.23e-16)
(0.0156 -0.577 -2.59e-16)
(-0.168 -0.331 5.03e-16)
(-0.00825 -0.6 1.25e-16)
(0.0305 -0.551 -1.15e-16)
(0.0177 -0.57 -2.65e-16)
(0.00253 -0.48 0)
(-0.0281 -0.542 0)
(0.0192 -0.564 -1.31e-16)
(0.013 -0.555 1.93e-16)
(-0.000987 -0.607 1.79e-16)
(-0.000634 -0.42 2.82e-16)
(-0.00481 -0.606 1.81e-16)
(0.242 -0.364 -8.42e-17)
(0.119 -0.45 1.59e-16)
(-0.0344 -0.0835 -4.23e-16)
(0.0334 -0.0785 1.09e-16)
(-0.0367 -0.0894 4.13e-16)
(0.037 -0.0889 0)
(0.0408 -0.0806 4.23e-16)
(-0.0427 -0.0826 2.1e-16)
(-0.00144 -0.582 -1.28e-16)
(0.053 -0.108 0)
(-0.0547 -0.115 0)
(-0.00319 -0.609 -1.8e-16)
(-0.0784 -0.14 -3.61e-16)
(0.119 -0.182 0)
(-0.118 -0.183 0)
(-0.00542 -0.599 -1.98e-16)
(-0.0908 -0.0782 0)
(-0.00106 -0.61 6.17e-17)
(0.035 -0.0868 4.72e-16)
(-0.00262 -0.611 -6.28e-17)
(0.00213 -0.527 -2.74e-16)
(-0.00569 -0.605 6.49e-17)
(0.179 -0.453 2.91e-16)
(0.0352 -0.536 1.13e-16)
(-0.298 -0.245 0)
(0.206 -0.453 0)
(-0.256 -0.166 -3.9e-17)
(-0.396 -0.375 2.57e-16)
(0.134 -0.478 -1.39e-16)
(-0.437 -0.488 -1.34e-16)
(0.25 -0.157 2.93e-16)
(-0.0275 -0.511 -6.91e-17)
(-0.0715 -0.171 -5.05e-16)
(0.071 -0.164 3.67e-16)
(-0.127 -0.323 -3.49e-16)
(-0.00177 -0.459 -2.68e-16)
(0.0687 -0.17 -2.54e-16)
(-0.0713 -0.173 0)
(0.0155 -0.576 -3.09e-16)
(0.00498 -0.592 1.84e-16)
(-0.00546 -0.558 3.97e-16)
(-0.0182 -0.148 -4.65e-16)
(-0.124 -0.238 4.13e-16)
(-0.158 -0.272 0)
(0.0654 -0.162 -3.16e-16)
(0.0057 -0.46 1.33e-16)
(0.0676 -0.465 0)
(0.0408 -0.509 2.82e-16)
(0.207 -0.444 -1.36e-16)
(-0.437 -0.446 2.19e-16)
(0.0497 -0.341 1.62e-16)
(0.453 -0.33 2.42e-18)
(0.0112 -0.568 3.62e-16)
(0.0231 -0.42 3.31e-16)
(-0.00795 -0.215 4.78e-16)
(-0.443 -0.479 -4.35e-16)
(0.00688 -0.226 -4.4e-16)
(-0.0338 -0.245 2.21e-16)
(-0.0504 -0.469 2.08e-16)
(-0.0203 -0.465 0)
(-0.0362 -0.498 0)
(0.406 -0.384 0)
(-0.106 -0.405 5.07e-16)
(0.0365 -0.557 -3.25e-16)
(0.0976 -0.507 -2.74e-16)
(-0.0355 -0.449 -5.85e-16)
(-0.171 -0.465 7.53e-17)
(-0.00941 -0.548 -2.93e-20)
(-0.167 -0.386 -6.71e-16)
(-0.151 -0.445 -7.43e-17)
(0.0628 -0.531 6.52e-17)
(0.184 -0.396 -3.37e-16)
(-0.192 -0.408 -1.62e-16)
(0.25 -0.511 0)
(-0.0433 -0.545 6.75e-17)
(-0.225 -0.485 3.74e-17)
(-0.00149 -0.12 -9.86e-20)
(0.256 -0.515 0)
(-0.247 -0.484 4.19e-16)
(-0.213 -0.465 0)
(0.2 -0.452 -1.49e-16)
(0.0735 -0.168 5.61e-16)
(-0.0281 -0.525 -3.27e-16)
(0.0394 -0.0981 -3.83e-16)
(0.211 -0.472 0)
(-0.374 -0.467 0)
(0.00266 -0.603 -1.24e-16)
(0.376 -0.385 -6.66e-17)
(0.0164 -0.462 0)
(-0.0395 -0.0945 -2.01e-16)
(0.23 -0.49 -1.38e-16)
(0.17 -0.377 0)
(-0.129 -0.497 -2.78e-16)
(0.134 -0.324 0)
(-0.0665 -0.517 2.8e-16)
(-0.113 -0.49 -2.26e-16)
(0.0308 -0.549 0)
(0.0518 -0.525 1.46e-16)
(0.0155 -0.498 0)
(-0.378 -0.512 0)
(-0.0197 -0.585 2.71e-16)
(0.00532 -0.415 -2.59e-16)
(-0.285 -0.356 -3e-16)
(-0.236 -0.313 4.31e-16)
(0.00313 -0.128 0)
(-0.256 -0.513 7.13e-17)
(-0.0181 -0.463 0)
(-0.237 -0.473 -6.02e-20)
(0.015 -0.46 1.31e-16)
(-0.271 -0.527 -2.57e-16)
(-0.0182 -0.438 0)
(-0.0328 -0.402 -5.52e-18)
(0.167 -0.398 1.52e-16)
(-0.00415 -0.597 3.92e-16)
(-0.269 -0.434 0)
(0.0882 -0.397 3.39e-16)
(-0.107 -0.117 2.4e-16)
(-0.0655 -0.545 -1.04e-16)
(0.073 -0.181 -2.79e-16)
(-0.00749 -0.602 6.47e-17)
(0.294 -0.412 -6.49e-20)
(-0.0791 -0.191 0)
(0.106 -0.11 -2.38e-16)
(-0.0515 -0.544 1.4e-16)
(0.22 -0.461 -4.26e-16)
(0.0141 -0.544 -3.09e-16)
(-0.0131 -0.148 0)
(-0.0496 -0.0598 0)
(-0.0512 -0.494 1.58e-16)
(0.00476 -0.575 -2.68e-16)
(0.231 -0.462 1.31e-16)
(0.214 -0.472 2.97e-16)
(0.0418 -0.0455 2.13e-16)
(0.175 -0.214 8.48e-17)
(0.238 -0.273 1.43e-16)
(-0.00943 -0.552 0)
(0.0132 -0.595 1.27e-16)
(-0.372 -0.437 -2.14e-16)
(0.00647 -0.591 -6.63e-16)
(-0.0482 -0.522 1.19e-16)
(0.159 -0.374 1.73e-16)
(0.008 -0.551 2.27e-16)
(-0.00062 -0.276 0)
(-0.0325 -0.479 0)
(-0.38 -0.523 -1.29e-16)
(0.00151 -0.279 -1.59e-16)
(-0.395 -0.474 3.05e-17)
(0.22 -0.474 1.7e-17)
(0.0622 -0.528 3.6e-17)
(-0.0436 -0.535 -1.38e-16)
(-0.0702 -0.174 4.88e-16)
(-0.0202 -0.477 1.52e-16)
(-0.23 -0.494 1.48e-16)
(-0.0185 -0.473 1.31e-16)
(0.0179 -0.475 0)
(0.253 -0.501 -1.47e-16)
(-0.0251 -0.567 -2.73e-16)
(0.133 -0.313 0)
(0.0266 -0.56 3.97e-16)
(-0.333 -0.426 8.69e-17)
(-0.0615 -0.531 0)
(-0.142 -0.325 1.89e-16)
(0.0451 -0.536 0)
(-0.143 -0.328 3.5e-16)
(-0.0658 -0.514 0)
(0.0189 -0.492 2.72e-16)
(0.185 -0.386 0)
(0.0185 -0.428 -3.45e-16)
(-0.16 -0.359 -1.97e-16)
(-0.182 -0.402 -4.07e-17)
(-0.00033 -0.263 -3.94e-16)
(0.24 -0.482 1.48e-16)
(0.159 -0.351 0)
(0.00427 -0.446 0)
(0.0663 -0.511 2.87e-16)
(-0.00402 -0.576 -1.98e-16)
(0.139 -0.335 -2.89e-16)
(-0.00281 -0.599 6.48e-17)
(0.128 -0.3 0)
(0.197 -0.432 1.69e-16)
(0.0223 -0.54 -3.91e-16)
(0.00686 -0.467 2.09e-16)
(0.0412 -0.475 -1.67e-16)
(0.379 -0.473 6.56e-17)
(-0.0237 -0.454 1.7e-16)
(0.242 -0.33 0)
(0.268 -0.519 0)
(-0.0234 -0.28 -3.71e-16)
(0.0147 -0.554 0)
(0.101 -0.501 3.29e-16)
(-0.12 -0.165 -2.42e-16)
(0.0036 -0.38 0)
(-0.17 -0.38 -2.22e-16)
(-0.235 -0.272 -2.23e-17)
(-0.0415 -0.444 3.55e-16)
(0.044 -0.449 3.9e-19)
(0.0666 -0.513 -1.87e-17)
(0.123 -0.173 0)
(0.152 -0.347 2e-16)
(0.0592 -0.455 0)
(-0.0177 -0.556 -1.44e-16)
(-0.00372 -0.456 0)
(-0.237 -0.393 0)
(0.43 -0.484 -6.62e-17)
(0.157 -0.362 1.83e-16)
(0.344 -0.373 1.96e-17)
(-0.255 -0.498 -8.56e-17)
(0.2 -0.446 -1.45e-16)
(-0.371 -0.483 6.63e-17)
(0.223 -0.393 -8.93e-17)
(-0.0268 -0.581 -6.76e-17)
(0.351 -0.496 -1.72e-16)
(0.00282 -0.596 7.77e-17)
(0.0197 -0.549 7.78e-17)
(-0.0517 -0.534 4.28e-17)
(-0.0507 -0.524 0)
(-0.234 -0.332 0)
(0.129 -0.297 -4.48e-16)
(-0.0765 -0.518 0)
(0.075 -0.515 -1.59e-16)
(0.00139 -0.519 0)
(0.0303 -0.474 1.56e-16)
(-0.045 -0.555 1.02e-16)
(-0.0679 -0.506 -1.7e-16)
(0.0646 -0.502 -1.67e-16)
(-0.218 -0.471 1.54e-16)
(-0.272 -0.392 0)
(0.303 -0.33 -1.28e-16)
(-0.0503 -0.531 -3.32e-16)
(-0.337 -0.423 7.7e-17)
(-0.00195 -0.528 0)
(-0.348 -0.417 1.7e-16)
(-0.282 -0.325 0)
)
;

boundaryField
{
    front
    {
        type            empty;
    }
    back
    {
        type            empty;
    }
    bottom
    {
        type            zeroGradient;
    }
    left
    {
        type            noSlip;
    }
    top
    {
        type            uniformFixedValue;
        uniformValue    
        {
            type            table;
            format          csv;
            file            "inlet_v.csv";
            nHeaderLine     1;
            refColumn       0;
            componentColumns List<label> 3(1 2 3);
            separator       ",";
            mergeSeparators 0;
        }
        value           uniform (0 -0.459 0);
    }
    right
    {
        type            noSlip;
    }
    inner_arc
    {
        type            noSlip;
    }
}


// ************************************************************************* //
