/*--------------------------------*- C++ -*----------------------------------*\
  =========                 |
  \\      /  F ield         | OpenFOAM: The Open Source CFD Toolbox
   \\    /   O peration     | Website:  https://openfoam.org
    \\  /    A nd           | Version:  9
     \\/     M anipulation  |
\*---------------------------------------------------------------------------*/
FoamFile
{
    format      ascii;
    class       surfaceScalarField;
    location    "0.43";
    object      phi;
}
// * * * * * * * * * * * * * * * * * * * * * * * * * * * * * * * * * * * * * //

dimensions      [0 3 -1 0 0 0 0];

internalField   nonuniform List<scalar> 
816
(
-1.07e-10
-1.45e-09
1.56e-09
-1.17e-10
-2.5e-09
2.62e-09
2.29e-09
-2.4e-09
2.99e-09
-3.01e-09
2.57e-11
1.61e-09
-1.61e-09
3.05e-09
5.93e-10
-3.64e-09
1.66e-09
-1.66e-09
-1.57e-09
1.57e-09
-2.89e-09
-2.22e-10
3.11e-09
-1.27e-09
1.15e-09
4.48e-09
-1.43e-09
3.62e-09
-2.56e-09
-1.06e-09
6.64e-10
2.45e-09
-3.11e-09
3.56e-09
-3.19e-09
-3.69e-10
3.55e-09
-3e-09
-5.49e-10
-2.5e-09
4.08e-09
-1.59e-09
9.67e-10
1.03e-09
-2e-09
-3.35e-09
2.3e-10
3.12e-09
4.4e-10
3.18e-09
1.45e-09
-4.34e-09
2.27e-09
7.18e-10
3.48e-10
-2.84e-09
1.94e-09
-3.73e-10
-1.57e-09
-2.17e-09
-1.02e-09
3.18e-09
-2.35e-09
1.88e-10
-3.03e-09
6.85e-10
2.34e-09
-2.7e-09
2.96e-09
-2.62e-10
-1.41e-11
8.77e-10
-8.63e-10
8.59e-10
-3.36e-09
1.32e-09
2.76e-09
-1.84e-09
1.83e-09
-2.24e-09
2.83e-09
4.61e-09
-3.29e-09
-3.51e-09
1.77e-09
1.74e-09
3.12e-10
3.24e-09
-6.91e-10
3.45e-09
3.19e-10
3.24e-09
-5.3e-10
-2.5e-09
-4.33e-09
1.57e-09
2.75e-09
1.04e-09
5.69e-10
-1.29e-09
-1.13e-09
1.04e-09
-3.01e-09
3.59e-12
-2.11e-09
-6.59e-10
2.77e-09
1.05e-09
6.1e-10
-1.35e-09
2.89e-09
-3.12e-09
-2.03e-09
-2.52e-09
-1.83e-10
-8.7e-11
1.04e-09
-9.56e-10
2.94e-09
-2.27e-09
1.84e-09
9.59e-11
-1.31e-09
-2.2e-09
1.64e-09
1.41e-09
9.57e-10
-3.3e-09
2.34e-09
-3.73e-10
-2.11e-09
3.55e-09
-2.58e-09
1.25e-09
-1.94e-09
1.97e-10
-5.72e-10
1.6e-09
1.83e-09
-1.6e-09
-9.45e-11
-3.09e-09
-1.7e-09
-2.09e-09
3.78e-09
-3.1e-09
9.02e-11
3e-09
1.61e-09
1.96e-09
2.52e-09
-1.25e-09
3.95e-09
-2.7e-09
6.83e-10
2.46e-09
-3.14e-09
-5.86e-10
-2.33e-09
1.5e-09
-3.2e-09
2.46e-09
1.32e-09
-3.78e-09
1.41e-09
2.5e-09
-3.9e-09
1.39e-09
-1.39e-09
-1.71e-09
3.16e-09
-2.47e-09
7.62e-10
3.95e-09
5.47e-10
1.01e-09
-1.56e-09
-3.5e-09
3.34e-10
3.16e-09
-1.45e-09
1.49e-09
-1.49e-09
-1.6e-09
1.6e-09
1.62e-09
-3.4e-09
1.78e-09
-1.19e-09
-3.65e-10
1.04e-09
-2.65e-09
3.6e-09
-3.26e-11
-2.51e-09
2.54e-09
-2.22e-09
-8.11e-11
2.3e-09
1.12e-09
-1.53e-09
3.15e-09
-1.34e-11
-2.71e-09
2.72e-09
2.32e-09
1.54e-09
-3.86e-09
-2.84e-09
2.18e-10
2.55e-09
-2.77e-09
-1.56e-09
-1.71e-09
-1.27e-09
-2.26e-10
3.47e-09
3.58e-11
-3.13e-09
-2.09e-09
2.77e-09
-3.32e-09
2.35e-09
9.65e-10
2.12e-09
1.82e-09
1.23e-09
-3.15e-10
3.55e-09
-2.23e-09
1.29e-09
-1.19e-09
-1.29e-10
-1.26e-09
1.34e-09
2.11e-09
3.14e-09
2.62e-09
-3.63e-09
1.01e-09
-1.2e-09
-2.12e-09
-8.63e-10
-2.15e-09
-3.44e-10
-2.76e-09
3.11e-09
1.08e-10
-2.33e-09
3.28e-09
-1.47e-09
-1.52e-10
2.49e-09
-1.89e-09
2.93e-10
6.79e-10
2.46e-09
-1.89e-10
-3.96e-10
2.58e-09
-2.97e-09
3.96e-10
-1.89e-09
-1.61e-09
-2.81e-09
2.05e-09
7.61e-10
-2.54e-09
-5.75e-10
3.13e-09
-6.76e-11
-3.07e-09
3.18e-09
-6.03e-10
-9.26e-10
3.25e-09
-8.92e-10
8.92e-10
2.9e-09
2.37e-10
4.62e-11
-2.91e-09
2.87e-09
2.2e-11
-2.58e-09
-2.98e-09
-6.49e-10
2.24e-09
-2.31e-09
2e-11
-1.04e-09
1.02e-09
6.43e-10
2.26e-09
5.75e-11
2.27e-09
-2.33e-09
-1.04e-09
-1.56e-10
2.91e-09
2.99e-10
1.76e-09
-2.06e-09
-1.73e-09
1.2e-09
5.25e-10
-2.8e-09
2.22e-09
-3.33e-09
-1.17e-10
3.45e-09
-1.25e-09
1.25e-09
1.25e-09
1.54e-10
7.38e-10
-3.04e-10
-3.21e-09
3.51e-09
-8e-11
-2.44e-09
3.27e-09
-2.41e-09
-6.67e-10
2.99e-09
-2.32e-09
1.01e-09
3.29e-10
-3.66e-09
-2.77e-09
-1.04e-09
-2.89e-09
2.77e-09
-1.04e-09
1.04e-09
-2.5e-09
-9.82e-10
2.44e-09
-2.75e-09
-1.88e-09
1.22e-09
-1.36e-09
4.7e-09
-3.34e-09
-2.84e-10
-2.6e-09
1.13e-09
-1.11e-09
-1.21e-09
1.26e-09
1.49e-10
-8.86e-10
7.37e-10
3.23e-11
2.41e-09
2.37e-09
1.42e-09
-1.57e-09
3.94e-09
-2.93e-09
-1.66e-09
1.38e-09
1.43e-11
-2.31e-09
2.3e-09
1.16e-09
-1.13e-09
2.99e-10
-2.81e-09
2.51e-09
2.19e-09
-2.56e-09
2.38e-09
-5.14e-11
-2.86e-09
-1.73e-09
-1.94e-09
-1.37e-09
-1.44e-09
-3.13e-09
-3.01e-10
3.43e-09
-1.02e-09
1.04e-09
-3.08e-09
-3.08e-10
3.39e-09
2.87e-09
-9.94e-11
-2.59e-09
-1.56e-10
-1.15e-09
-2.77e-09
4.38e-09
-1.61e-09
-1.22e-09
1.13e-09
8.83e-11
-1.2e-09
1.12e-09
-2.92e-09
2.89e-09
2.61e-11
2.73e-09
-2.56e-09
-1.65e-10
-1.88e-09
3.92e-09
-1.12e-09
-3.75e-10
-4.13e-09
2.56e-09
1.38e-09
1.44e-10
-5.12e-11
-2.78e-09
-1.13e-10
1.87e-09
-3.68e-09
-1.46e-10
3.04e-09
4.23e-09
-1.67e-09
2.11e-09
1.94e-09
5.12e-10
6.24e-10
-7.37e-10
3.08e-09
2.18e-09
2.28e-10
-1.93e-09
2.08e-09
1.28e-09
-1.38e-09
-1.29e-09
1.13e-09
-1.91e-09
-2.83e-09
4.53e-09
-1.71e-09
-1.02e-09
-1.12e-09
-8.86e-10
-6.76e-10
-2.12e-09
-1.66e-09
1.28e-09
-1.29e-09
-9.21e-10
-1.16e-10
1.86e-09
-1.74e-09
1.16e-09
1.55e-09
1.23e-10
1.12e-09
1.02e-09
-1.04e-09
-2.35e-10
-1.21e-09
-2.3e-09
-1.51e-09
3.8e-09
2.62e-09
-2.8e-10
-2.69e-09
7.52e-11
2.76e-09
2.37e-10
-6.22e-10
3.84e-10
-9.56e-10
2.47e-09
-3.14e-09
1.75e-11
3.73e-09
-3.64e-09
6.22e-10
-7.38e-10
1.13e-09
1.15e-09
-1.89e-10
5.67e-10
-1.33e-09
-3.88e-10
-3.1e-09
5.29e-10
1.67e-09
2.86e-09
2.25e-09
-2.78e-09
4.45e-09
-3.09e-09
7.9e-10
6.24e-10
-1.26e-09
-1.58e-09
-2.49e-09
4.07e-09
1.11e-09
-4.29e-09
-1.67e-09
4.53e-09
-1.73e-09
4.35e-09
2.87e-09
1.34e-10
-7.1e-10
7.1e-10
-1.3e-09
-2.04e-09
2.76e-09
2.74e-09
1.97e-09
-9.65e-10
9.65e-10
-1.15e-09
-7.63e-10
-1.2e-09
9.82e-10
2.2e-10
1.2e-09
-2.37e-10
-5.27e-10
-1.3e-09
-2.8e-09
-2.85e-09
5.34e-10
-4.57e-09
1.65e-09
2.92e-09
-1.7e-09
3.4e-10
-2.72e-09
4.51e-09
-1.8e-09
-4.39e-09
1.67e-09
1.34e-09
-2.59e-09
4.25e-09
2.33e-09
-4e-09
-3.41e-10
2.36e-10
1.48e-09
-2.25e-09
2.83e-09
-1.44e-09
-2.2e-09
3.63e-09
-2.75e-09
4.61e-09
-1.78e-09
3.22e-09
1.47e-09
3.14e-09
3.77e-09
-3.69e-09
-3.71e-09
1.93e-09
2.81e-09
-4.64e-09
2.9e-09
-1.38e-09
2.83e-09
-5.57e-10
-2.65e-09
-1.35e-09
1.51e-09
3e-09
4.48e-09
-7.63e-10
-1.91e-09
2.67e-09
-9.42e-10
9.42e-10
-8.51e-10
8.51e-10
1.04e-09
-1.04e-09
1.01e-09
-1.01e-09
1.04e-09
1.05e-09
2.77e-09
-3.72e-09
9.52e-10
-1.35e-09
2.78e-09
1.7e-09
1.35e-09
-1.35e-09
-1.26e-09
1.31e-09
-1.31e-09
-3.96e-09
1.5e-09
2.46e-09
-5.72e-10
-4.29e-09
2.65e-09
1.64e-09
-9.42e-10
9.42e-10
-3.64e-09
1.47e-09
2.17e-09
-1.3e-09
-2.64e-09
-2.39e-09
1.83e-09
-1.17e-09
2.49e-09
-9.48e-10
-3.41e-09
-3.55e-09
1.84e-09
1.02e-09
9.9e-11
1.6e-10
3.69e-11
-2.03e-09
-4.2e-09
2.35e-09
1.85e-09
-2.7e-09
-1.29e-09
-9.45e-10
-9.07e-11
1.32e-09
-3.27e-09
1.36e-09
-1.81e-09
-2.46e-09
4.5e-09
-1.38e-09
-2.31e-09
9.08e-10
1.4e-09
-2.63e-10
-2.93e-09
7.05e-11
2.86e-09
-9.43e-10
8.98e-10
-8.98e-10
-5.77e-11
-1.8e-09
-1.56e-09
-1.95e-09
3.18e-09
3.04e-09
-8.66e-10
-2.96e-09
-2.1e-09
6.39e-11
3.81e-09
-2e-09
-1.4e-09
-2.95e-09
-2.16e-09
-2.86e-09
-5.33e-10
-1.97e-09
-8.24e-10
-1.88e-09
-1.32e-09
-2.46e-09
-3.52e-09
-7.71e-10
2.82e-09
-2.38e-09
-2.19e-09
-2.77e-09
2.46e-09
-2.97e-09
5.07e-10
-1.15e-09
-3.9e-10
-2.64e-10
2.61e-09
-1.15e-09
-6.8e-10
3.75e-09
5.44e-10
-4.29e-09
4.14e-09
1.19e-09
1.57e-09
-1.77e-09
3.09e-09
1.05e-09
-1.05e-09
2.58e-09
5.66e-10
1.37e-09
3.15e-10
-2.51e-09
2.55e-09
-3.41e-09
3.62e-09
2.06e-09
1.79e-09
-3.11e-09
1.32e-09
5.22e-11
3.63e-09
-1.17e-09
2.02e-09
2.98e-09
-2.43e-09
1.13e-10
8.77e-10
-2.3e-09
1.08e-09
1.27e-09
1.27e-09
2.08e-09
-2.61e-09
4.19e-10
-2.04e-09
1.67e-10
2.5e-09
-2.2e-09
2.42e-09
6.9e-10
-2.26e-09
1.1e-09
-8.79e-11
1.07e-09
-3.48e-09
-2.03e-10
-3.95e-09
5.56e-10
-1.41e-10
8.97e-10
3.56e-10
-2.34e-09
3.14e-09
3.17e-10
-3.25e-09
-8.63e-10
1.1e-09
2.37e-09
-1.84e-09
-2.31e-09
-1.41e-09
2.15e-09
1.4e-09
-2.41e-09
8.97e-10
1.19e-09
-3.22e-09
-3.41e-09
3.21e-09
-6.96e-11
-2e-09
-1.6e-09
1.6e-09
1.06e-09
-3.08e-09
-1.63e-09
1.63e-09
-2.51e-09
-3.24e-09
-2.51e-09
-2.54e-09
1.44e-09
1.4e-09
2.99e-09
-8.41e-10
-2.21e-09
2.27e-09
2.62e-09
-3.45e-09
1.61e-09
-1.95e-09
2.05e-09
-2.39e-09
-1.71e-09
-1.41e-09
-1.73e-09
-5.98e-10
-2.42e-09
-8.2e-10
1.43e-09
-1.93e-09
1.84e-09
3.98e-10
2.78e-09
6.49e-11
-3.18e-09
-3.02e-09
-1.79e-09
-2.8e-10
-2.52e-09
-1.27e-10
-2.5e-10
-4.97e-10
-1.53e-09
1.4e-09
3.2e-09
-3.67e-10
-1.95e-09
6.77e-11
1.86e-09
2.43e-09
-2.58e-09
-2.52e-09
-2.67e-09
-2.83e-09
-1.05e-09
7.97e-10
3.98e-10
)
;

boundaryField
{
    front
    {
        type            empty;
        value           nonuniform List<scalar> 0();
    }
    back
    {
        type            empty;
        value           nonuniform List<scalar> 0();
    }
    bottom
    {
        type            calculated;
        value           nonuniform List<scalar> 
12
(
1.56e-09
3.11e-09
2.8e-09
2.83e-09
1.57e-09
3.84e-10
3.88e-10
2.57e-09
3.23e-09
2.75e-09
1.58e-09
1.54e-09
)
;
    }
    left
    {
        type            calculated;
        value           uniform 0;
    }
    top
    {
        type            calculated;
        value           nonuniform List<scalar> 8(-3.05e-09 -3.05e-09 -3.03e-09 -3.03e-09 -3.03e-09 -3.05e-09 -3.05e-09 -3.03e-09);
    }
    right
    {
        type            calculated;
        value           uniform 0;
    }
    inner_arc
    {
        type            calculated;
        value           uniform 0;
    }
}


// ************************************************************************* //
