/*--------------------------------*- C++ -*----------------------------------*\
  =========                 |
  \\      /  F ield         | OpenFOAM: The Open Source CFD Toolbox
   \\    /   O peration     | Website:  https://openfoam.org
    \\  /    A nd           | Version:  9
     \\/     M anipulation  |
\*---------------------------------------------------------------------------*/
FoamFile
{
    format      ascii;
    class       volVectorField;
    location    "0.43";
    object      U;
}
// * * * * * * * * * * * * * * * * * * * * * * * * * * * * * * * * * * * * * //

dimensions      [0 1 -1 0 0 0 0];

internalField   nonuniform List<vector> 
578
(
(-0.0372 -0.045 0)
(-0.0201 -0.0682 3.41e-16)
(-0.0552 -0.066 -1.21e-16)
(0.00321 -0.0727 -2.89e-17)
(0.0124 -0.0275 -5.42e-17)
(0.00482 -0.0942 -1.07e-16)
(-0.0128 -0.0281 5.4e-17)
(0.0137 -0.0253 -2.24e-20)
(0.0597 -0.0904 -2.37e-16)
(-0.0121 -0.0438 5.04e-16)
(0.00601 -0.101 -1.6e-16)
(0.0388 -0.0754 0)
(0.00927 -0.0883 1.18e-16)
(0.0399 -0.083 -9.17e-16)
(-0.0404 -0.0838 4.62e-16)
(0.0702 -0.0768 -1.11e-16)
(-0.0446 -0.041 4.96e-16)
(-0.0722 -0.0625 0)
(0.0357 -0.0692 0)
(0.0652 -0.0884 1.71e-16)
(0.00289 -0.0815 0)
(0.0566 -0.071 0)
(0.0301 -0.0269 -5.89e-16)
(0.000226 -0.0762 0)
(-0.000978 -0.0615 0)
(0.0338 -0.0688 4.67e-16)
(-0.00295 -0.0696 -5.88e-17)
(-0.000195 -0.0359 3.15e-17)
(-0.0174 -0.0806 -5.62e-16)
(0.0725 -0.0794 4.52e-16)
(-0.000872 -0.0605 -5.41e-16)
(0.00455 -0.0791 1.16e-16)
(0.0769 -0.084 -4.37e-16)
(-0.00102 -0.0815 2.29e-16)
(-0.0357 -0.0758 -4.56e-16)
(0.0624 -0.0665 -6.86e-16)
(0.0351 -0.0745 8.97e-16)
(0.0328 -0.0638 0)
(-0.07 -0.077 -4.5e-16)
(0.0197 -0.0418 0)
(0.0201 -0.0453 -4.43e-16)
(0.0227 -0.0409 5.32e-16)
(0.02 -0.0387 0)
(-0.0361 -0.0743 0)
(0.0544 -0.0536 5.83e-17)
(-0.0201 -0.0427 0)
(-0.0205 -0.0463 4.43e-16)
(0.0544 -0.0836 -5.87e-17)
(-0.0696 -0.0771 6.71e-16)
(-0.00521 -0.082 -1.23e-16)
(0.000796 -0.0379 1.72e-17)
(0.0137 -0.0911 -4.98e-16)
(0.0449 -0.0327 -2.43e-16)
(-0.00123 -0.0824 0)
(0.00154 -0.082 4.06e-16)
(-0.00445 -0.0984 9.85e-16)
(0.0117 -0.0104 9.39e-16)
(0.0365 -0.0306 -4.77e-16)
(-0.0589 -0.0592 -8.64e-16)
(0.0408 -0.0439 2.5e-16)
(-0.0696 -0.0676 4.56e-16)
(-0.0373 -0.0263 0)
(-0.0571 -0.0444 6.51e-17)
(0.0359 -0.0745 4.27e-16)
(-0.00459 -0.0903 1.13e-16)
(-0.0445 -0.0845 2.52e-16)
(0.0732 -0.0864 -5.25e-17)
(0.0105 -0.0982 3.76e-16)
(0.0779 -0.0745 -2.16e-16)
(0.0393 -0.0841 5.03e-16)
(0.000453 -0.0649 0)
(0.00144 -0.066 -1.62e-17)
(0.000181 -0.0874 -1.23e-16)
(0.0404 -0.0858 0)
(0.00168 -0.108 2.29e-16)
(0.0122 -0.0259 0)
(0.0529 -0.0769 3.03e-16)
(0.0439 -0.0629 -2.48e-16)
(0.00564 -0.0911 0)
(-0.0367 -0.0396 -1.31e-16)
(0.0369 -0.0764 -4.24e-16)
(-0.0186 -0.0273 -4.57e-16)
(0.0114 -0.0272 -2.08e-16)
(0.0186 -0.0269 2.11e-16)
(-0.07 -0.0871 -6.1e-17)
(-0.0144 -0.0437 0)
(0.000736 -0.0225 0)
(-0.00424 -0.106 -3.63e-16)
(0.0293 -0.0646 1.05e-20)
(-0.0308 -0.0713 4.05e-18)
(-0.00208 -0.0758 0)
(-0.061 -0.0793 1.23e-16)
(-0.0296 -0.0659 0)
(0.0125 -0.0979 2.21e-16)
(0.0732 -0.0771 6.7e-16)
(0.0533 -0.0721 -5.72e-16)
(0.000175 -0.0831 1.21e-16)
(0.00525 -0.0835 -8.69e-16)
(-0.00416 -0.0266 -9.02e-16)
(-0.0402 -0.0839 0)
(-0.0422 -0.0759 0)
(0.037 -0.0819 -7.92e-16)
(-0.0134 -0.0955 0)
(-0.0555 -0.0588 0)
(-0.00456 -0.0824 0)
(0.0396 -0.0832 -6.83e-16)
(0.00234 -0.0986 -2.4e-16)
(0.0204 -0.0441 0)
(-0.00872 -0.0244 0)
(0.0228 -0.046 -5.52e-16)
(0.0621 -0.072 -1.84e-16)
(0.0375 -0.0802 0)
(0.0698 -0.0853 5.09e-16)
(0.0602 -0.0731 -4.1e-16)
(0.0631 -0.0759 4.25e-16)
(-0.0137 -0.0915 4.93e-16)
(0.00553 -0.0815 2.56e-16)
(-0.0499 -0.0781 -3.76e-16)
(-0.0273 -0.062 6.51e-17)
(-0.00523 -0.0836 4.3e-16)
(0.028 -0.0568 -4.44e-16)
(0.0288 -0.0448 -9.37e-22)
(0.0384 -0.077 -4.85e-16)
(0.00146 -0.0673 -6.48e-17)
(0.0244 -0.0432 0)
(-0.0319 -0.0826 5.01e-16)
(0.0251 -0.0776 -4.74e-16)
(0.0748 -0.0775 -2.44e-16)
(-0.0409 -0.0864 2.51e-16)
(-0.0252 -0.0821 0)
(-0.0404 -0.082 0)
(-0.0308 -0.0836 0)
(0.0106 -0.0946 0)
(0.00838 -0.0169 4.69e-16)
(-0.0396 -0.0843 -4.69e-16)
(-0.0409 -0.0701 0)
(0.0343 -0.0641 0)
(-0.00836 -0.0877 -4.21e-16)
(0.0493 -0.0739 4.77e-16)
(-0.0354 -0.0691 0)
(-0.0187 -0.0352 5.73e-16)
(-0.0264 -0.083 0)
(-0.0306 -0.0592 0)
(-0.000329 -0.0651 0)
(0.0163 -0.032 0)
(-0.0733 -0.0838 9.96e-21)
(-0.0242 -0.0575 5.26e-16)
(-0.00645 -0.0528 0)
(0.0406 -0.084 5.08e-16)
(-0.0251 -0.076 0)
(0.0487 -0.0906 0)
(-0.0189 -0.027 0)
(0.0187 -0.0185 0)
(0.0143 -0.029 5.61e-16)
(-0.0439 -0.0878 -4.72e-16)
(-0.00541 -0.0719 -2.6e-16)
(-0.02 -0.0895 5.07e-16)
(0.0112 -0.0803 -1.16e-16)
(-0.0159 -0.0158 -1.13e-16)
(0.0513 -0.0915 -4.01e-16)
(0.0444 -0.0841 5.63e-16)
(0.0418 -0.0748 5.85e-16)
(-0.0103 -0.0195 -7.17e-18)
(0.0447 -0.0804 0)
(-0.000118 -0.0208 2.53e-20)
(-0.0278 -0.0725 6.67e-21)
(-0.000181 -0.0374 -5.63e-16)
(-0.0395 -0.0759 0)
(0.00749 -0.0542 -1.27e-16)
(-0.00506 -0.103 -2.08e-16)
(0.0431 -0.0715 0)
(0.0209 -0.0375 0)
(-0.0248 -0.0424 0)
(-0.0143 -0.0291 -5.65e-16)
(-0.0346 -0.065 0)
(-0.00509 -0.096 -1.17e-16)
(-0.000283 -0.0993 -1.18e-16)
(-0.0476 -0.0728 4.36e-16)
(0.0272 -0.046 6.35e-17)
(-0.00223 -0.0666 2.66e-16)
(-0.0215 -0.0383 0)
(-0.0377 -0.067 0)
(-0.0211 -0.0682 0)
(0.00508 -0.0967 8.73e-16)
(-0.0488 -0.0787 3.18e-16)
(-0.00477 -0.0389 -4.21e-16)
(0.0259 -0.0313 -2.13e-16)
(-0.042 -0.0867 1.14e-16)
(-0.0459 -0.0903 4.93e-16)
(-0.00103 -0.0388 -5.67e-16)
(0.045 -0.0892 -4.88e-16)
(0.0382 -0.0713 0)
(0.0393 -0.051 5.39e-16)
(-0.0365 -0.0688 0)
(-0.0252 -0.0443 0)
(-0.0013 -0.111 2.26e-16)
(0.00274 -0.0437 1.08e-15)
(-0.00274 -0.0431 -8.6e-16)
(-0.0384 -0.0715 0)
(0.0359 -0.0681 0)
(0.00575 -0.0406 -4.15e-16)
(0.00862 -0.0999 -1.11e-15)
(0.0146 -0.0452 -2.66e-16)
(-0.00376 -0.108 0)
(-0.000906 -0.104 -3.56e-16)
(0.0393 -0.0755 0)
(-0.0444 -0.0806 0)
(-0.0456 -0.0546 0)
(0.0462 -0.091 5.02e-16)
(-0.0231 -0.0266 0)
(-0.0193 -0.0459 5.34e-16)
(-0.047 -0.0923 -4.84e-16)
(-0.0374 -0.0797 -1.57e-17)
(0.00229 -0.107 1.16e-16)
(-0.033 -0.0669 -2.67e-16)
(0.00114 -0.0747 0)
(-0.0419 -0.0802 -5.09e-16)
(0.0412 -0.0794 5.1e-16)
(-0.0447 -0.0906 4.99e-16)
(-0.0112 -0.0244 -5.8e-16)
(0.0439 -0.0896 2.55e-16)
(-0.0376 -0.0726 0)
(0.0238 -0.0509 -5.25e-16)
(0.0233 -0.0436 0)
(-0.0227 -0.0421 0)
(-0.024 -0.0509 1.06e-15)
(6.28e-06 -0.115 -1.14e-16)
(0.00255 -0.0265 4.95e-20)
(-0.00192 -0.0261 2.22e-16)
(-0.000337 -0.0209 4.48e-16)
(-0.00994 -0.025 -4.54e-16)
(0.00502 -0.0245 -2.29e-16)
(-0.00838 -0.0169 -4.67e-16)
(0.0222 -0.0746 0)
(-0.0226 -0.0756 0)
(0.0169 -0.0271 1.62e-16)
(0.0128 -0.0244 0)
(-0.0131 -0.0245 0)
(0.0154 -0.0947 1.85e-16)
(0.0191 -0.0456 0)
(-0.0116 -0.0211 0)
(0.0116 -0.0202 0)
(-0.00123 -0.113 -4.62e-16)
(-0.0196 -0.0365 0)
(-0.00129 -0.0232 8.72e-16)
(0.00939 -0.0187 0)
(-0.01 -0.0188 -4.52e-16)
(-0.00384 -0.0431 1.05e-15)
(-0.0139 -0.0224 0)
(-0.00157 -0.1 -1.15e-16)
(0.0013 -0.11 1.14e-16)
(-0.0356 -0.0838 0)
(0.00717 -0.0698 0)
(0.00683 -0.0204 -4.53e-18)
(0.000634 -0.0199 0)
(0.0259 -0.0819 5e-16)
(-0.000374 -0.0383 5.6e-16)
(-0.0516 -0.0925 -7.73e-16)
(0.0136 -0.0248 0)
(0.0043 -0.0427 5.64e-16)
(0.0111 -0.0242 5.75e-16)
(-0.0122 -0.0218 4.58e-16)
(0.000659 -0.0232 -8.92e-16)
(0.000953 -0.0411 6e-16)
(-0.0337 -0.0743 3.84e-16)
(0.0292 -0.0634 9.54e-16)
(0.0133 -0.0402 0)
(0.00494 -0.0119 -4.64e-16)
(-0.000969 -0.0219 -4.57e-16)
(0.0021 -0.00914 0)
(-0.00211 -0.00924 0)
(-0.0314 -0.0795 -4.87e-16)
(0.0181 -0.052 0)
(-0.000225 -0.116 -3.35e-16)
(0.00594 -0.104 -2.45e-16)
(-0.00087 -0.114 -6.76e-16)
(-0.00199 -0.0903 2.6e-16)
(-0.00495 -0.012 0)
(-0.0233 -0.0428 0)
(-0.000731 -0.107 -5.91e-16)
(0.0222 -0.0417 0)
(-0.00154 -0.11 1.02e-15)
(0.000191 -0.115 0)
(0.00251 -0.11 -1.14e-16)
(-0.000644 -0.114 2.29e-16)
(-0.0165 -0.0321 -5.51e-16)
(0.00693 -0.0142 -9.19e-16)
(-0.00697 -0.0142 4.63e-16)
(-0.000512 -0.0164 0)
(0.000166 -0.037 -5.61e-16)
(0.0214 -0.0672 0)
(-0.0364 -0.0823 1.55e-17)
(-0.00338 -0.103 2.08e-16)
(-0.0136 -0.0236 0)
(0.000396 -0.0197 0)
(0.000848 -0.0386 6.94e-17)
(0.0119 -0.0216 -4.58e-16)
(0.0248 -0.081 -1.23e-15)
(-0.000143 -0.039 1.28e-16)
(0.000212 -0.0393 -5e-16)
(-0.000986 -0.0987 6.05e-16)
(-0.0218 -0.0684 0)
(-5.41e-05 -0.0231 4.45e-16)
(-6.59e-05 -0.0197 0)
(0.000583 -0.0226 0)
(8.96e-05 -0.0241 8.43e-16)
(0.0246 -0.075 4.92e-16)
(-0.00186 -0.0788 -1.16e-15)
(-0.000379 -0.117 -4.45e-16)
(-0.00038 -0.117 0)
(0.0239 -0.0572 2.66e-16)
(-0.000798 -0.115 3.35e-16)
(-0.000345 -0.117 -7.08e-16)
(-0.0184 -0.0524 0)
(-0.000449 -0.113 4.6e-16)
(0.000889 -0.11 4.73e-16)
(-0.0336 -0.0767 0)
(-0.00691 -0.0206 0)
(-0.0135 -0.0405 0)
(-0.0007 -0.106 -5.67e-16)
(-0.0293 -0.0628 -5.32e-16)
(-4.01e-05 -0.116 9.23e-16)
(-0.00224 -0.11 1.18e-16)
(0.000627 -0.103 -3.66e-16)
(-0.0047 -0.105 4.67e-16)
(0.000264 -0.112 -2.17e-16)
(-0.0493 -0.0917 4.63e-16)
(-0.0324 -0.0616 0)
(0.0433 -0.0868 0)
(-2.24e-05 -0.114 8.51e-16)
(-0.00957 -0.0983 1.2e-16)
(-0.0556 -0.0909 -1.85e-16)
(-0.000276 -0.117 2.26e-16)
(0.000467 -0.104 -4.61e-16)
(-0.0279 -0.0561 7.92e-16)
(6.21e-05 -0.112 2.33e-16)
(0.00465 -0.104 -2.14e-16)
(0.000645 -0.103 -4.8e-16)
(-0.000532 -0.0786 0)
(-0.002 -0.0914 0)
(0.0016 -0.108 -2.34e-16)
(0.00151 -0.112 3.46e-16)
(-0.000851 -0.115 3.35e-16)
(-0.000838 -0.0686 4.74e-16)
(-7.84e-05 -0.116 3.39e-16)
(0.0505 -0.0689 -1.35e-16)
(0.0273 -0.0767 2.68e-16)
(-0.00845 -0.0194 -4.61e-16)
(0.00803 -0.0184 1.17e-16)
(-0.00935 -0.021 4.55e-16)
(0.00943 -0.0209 0)
(0.00971 -0.0201 4.64e-16)
(-0.00981 -0.0203 2.32e-16)
(-0.00173 -0.103 -2.29e-16)
(0.0104 -0.0235 0)
(-0.0106 -0.0245 0)
(0.000142 -0.115 -3.38e-16)
(-0.0121 -0.0254 -4.49e-16)
(0.0146 -0.0272 0)
(-0.0146 -0.0277 0)
(-0.00135 -0.112 -3.66e-16)
(-0.0116 -0.0109 0)
(-1.94e-05 -0.115 1.14e-16)
(0.0082 -0.0202 5.16e-16)
(-0.000292 -0.116 -1.18e-16)
(0.000563 -0.0943 -4.97e-16)
(-0.00133 -0.114 1.18e-16)
(0.0398 -0.0791 4.9e-16)
(0.00675 -0.102 2.06e-16)
(-0.0326 -0.0302 0)
(0.0364 -0.0793 0)
(-0.0327 -0.0217 -5.71e-17)
(-0.0525 -0.0547 4.75e-16)
(0.0303 -0.0829 -2.48e-16)
(-0.076 -0.0858 -2.55e-16)
(0.0325 -0.0202 4.37e-16)
(-0.00827 -0.102 -1.18e-16)
(-0.0161 -0.0368 -5.84e-16)
(0.016 -0.0357 4.17e-16)
(-0.0253 -0.0489 -5.44e-16)
(-0.00131 -0.0819 -4.19e-16)
(0.0167 -0.0375 -2.91e-16)
(-0.0169 -0.0379 0)
(0.00352 -0.105 -5.77e-16)
(0.00158 -0.11 3.4e-16)
(-0.000888 -0.102 7.01e-16)
(-0.00164 -0.0188 -5.99e-16)
(-0.0206 -0.0448 5.43e-16)
(-0.023 -0.0457 0)
(0.0146 -0.0346 -3.59e-16)
(0.00429 -0.0821 2.08e-16)
(0.015 -0.0799 0)
(0.00985 -0.0902 4.94e-16)
(0.0273 -0.0719 -2.39e-16)
(-0.079 -0.0783 4.32e-16)
(0.01 -0.0522 2.53e-16)
(0.0611 -0.045 4.27e-18)
(-0.000252 -0.0994 6.18e-16)
(0.00543 -0.0701 5.28e-16)
(-0.000972 -0.0339 5.83e-16)
(-0.0744 -0.0801 -8.52e-16)
(0.00106 -0.0361 -5.31e-16)
(-0.006 -0.036 2.8e-16)
(-0.011 -0.0809 3.8e-16)
(-0.0128 -0.0855 0)
(-0.00803 -0.088 0)
(0.0721 -0.0608 0)
(-0.0232 -0.0667 7.73e-16)
(0.00902 -0.101 -5.95e-16)
(0.0223 -0.0891 -4.85e-16)
(-0.00827 -0.0762 -9.96e-16)
(-0.0376 -0.0813 1.22e-16)
(-0.00293 -0.0952 6.61e-21)
(-0.0272 -0.0744 -1.01e-15)
(-0.0335 -0.0758 -1.23e-16)
(0.0144 -0.0944 1.19e-16)
(0.0328 -0.0716 -5.39e-16)
(-0.0331 -0.0728 -2.71e-16)
(0.0413 -0.0865 0)
(-0.00721 -0.0963 1.17e-16)
(-0.038 -0.0831 6.36e-17)
(0.00023 -0.0194 -2.23e-20)
(0.0415 -0.0843 0)
(-0.0403 -0.0826 6.59e-16)
(-0.0357 -0.0816 0)
(0.0309 -0.0813 -2.55e-16)
(0.0139 -0.0431 7.14e-16)
(-0.00636 -0.0907 -5.47e-16)
(0.00823 -0.0238 -4.28e-16)
(0.0299 -0.0825 0)
(-0.0649 -0.0879 0)
(0.00138 -0.112 -2.29e-16)
(0.0475 -0.0535 -1.3e-16)
(0.0115 -0.0847 0)
(-0.00914 -0.0215 -2.25e-16)
(0.0359 -0.0819 -2.49e-16)
(0.0322 -0.0699 0)
(-0.0284 -0.0868 -4.85e-16)
(0.0207 -0.067 0)
(-0.0155 -0.0917 4.97e-16)
(-0.0257 -0.0859 -3.81e-16)
(0.00307 -0.0966 0)
(0.00948 -0.0841 2.65e-16)
(0.000135 -0.0796 0)
(-0.0601 -0.0916 0)
(-0.0045 -0.108 4.81e-16)
(-0.000566 -0.0646 -4.05e-16)
(-0.0545 -0.0725 -4.86e-16)
(-0.0448 -0.0663 6.88e-16)
(0.00091 -0.0188 0)
(-0.0421 -0.0853 1.3e-16)
(-0.011 -0.0828 0)
(-0.0373 -0.0814 1.25e-21)
(0.00978 -0.0823 2.01e-16)
(-0.0433 -0.0888 -4.72e-16)
(-0.00131 -0.0667 0)
(-0.0059 -0.067 -8.38e-18)
(0.0357 -0.0643 2.45e-16)
(0.000603 -0.109 7.31e-16)
(-0.0584 -0.077 0)
(0.0181 -0.0673 5.23e-16)
(-0.0256 -0.0288 2.69e-16)
(-0.0143 -0.0968 -1.86e-16)
(0.0147 -0.0399 -3.26e-16)
(-0.00226 -0.112 1.18e-16)
(0.051 -0.0802 -1.22e-20)
(-0.0158 -0.0415 0)
(0.0256 -0.0277 -2.75e-16)
(-0.0117 -0.0983 2.48e-16)
(0.033 -0.0764 -7.65e-16)
(0.000375 -0.0925 -5.42e-16)
(-0.00119 -0.0193 0)
(-0.0129 -0.0171 0)
(-0.00959 -0.0768 2.56e-16)
(-0.000654 -0.102 -5.03e-16)
(0.0367 -0.0803 2.43e-16)
(0.0345 -0.0826 5.11e-16)
(0.0108 -0.0141 2.24e-16)
(0.0198 -0.0266 1.11e-16)
(0.0491 -0.0575 2.17e-16)
(0.000657 -0.0944 0)
(0.00322 -0.109 2.39e-16)
(-0.0755 -0.0804 -3.65e-16)
(-0.0009 -0.109 -1.13e-15)
(-0.00866 -0.0826 2.05e-16)
(0.0261 -0.0729 2.62e-16)
(-9.45e-05 -0.0941 3.82e-16)
(-0.00208 -0.0413 0)
(-0.0164 -0.0896 0)
(-0.0533 -0.0849 -2.42e-16)
(0.0022 -0.0417 -2.07e-16)
(-0.0698 -0.0876 6.02e-17)
(0.0307 -0.0788 3.05e-17)
(0.017 -0.0916 6.34e-17)
(-0.00944 -0.0989 -2.44e-16)
(-0.0156 -0.0365 5.69e-16)
(-0.00133 -0.0735 2.68e-16)
(-0.0388 -0.0842 2.44e-16)
(-0.00678 -0.0791 1.99e-16)
(0.00643 -0.0798 0)
(0.0409 -0.0858 -2.57e-16)
(-0.00565 -0.104 -4.87e-16)
(0.0242 -0.0626 0)
(0.0021 -0.0998 7.22e-16)
(-0.0687 -0.075 1.39e-16)
(-0.0153 -0.0907 0)
(-0.0272 -0.061 2.82e-16)
(0.00854 -0.0945 0)
(-0.0256 -0.0645 5.28e-16)
(-0.0197 -0.0905 0)
(0.000894 -0.079 4.89e-16)
(0.0401 -0.0676 0)
(0.00122 -0.0641 -5.32e-16)
(-0.0285 -0.0658 -2.92e-16)
(-0.0333 -0.0729 -6.82e-17)
(0.000352 -0.0387 -5.29e-16)
(0.04 -0.083 2.63e-16)
(0.0284 -0.0648 0)
(0.000953 -0.0736 0)
(0.021 -0.0905 5.04e-16)
(0.000673 -0.102 -3.58e-16)
(0.0265 -0.0484 -4.27e-16)
(-0.00145 -0.111 1.19e-16)
(0.0253 -0.0585 0)
(0.0353 -0.0772 2.79e-16)
(0.000952 -0.0909 -6.82e-16)
(-0.000104 -0.0747 3.48e-16)
(0.00527 -0.0703 -2.74e-16)
(0.0535 -0.0755 1.26e-16)
(-0.00483 -0.0762 2.76e-16)
(0.0319 -0.0485 0)
(0.043 -0.0876 0)
(-0.00214 -0.038 -5.21e-16)
(8.41e-05 -0.095 0)
(0.0218 -0.0876 5.84e-16)
(-0.0252 -0.0381 -2.89e-16)
(0.00093 -0.0609 0)
(-0.0314 -0.0697 -3.44e-16)
(-0.0495 -0.0585 -3.32e-17)
(-0.0118 -0.0671 5.59e-16)
(0.0128 -0.0682 9.13e-20)
(0.0151 -0.0898 -3.23e-17)
(0.0262 -0.0392 0)
(0.029 -0.0653 2.92e-16)
(0.013 -0.0777 0)
(-0.000679 -0.0962 -2.58e-16)
(0.000443 -0.0748 0)
(-0.052 -0.0737 0)
(0.0633 -0.0772 -1.25e-16)
(0.0287 -0.0686 2.71e-16)
(0.0664 -0.0615 3.54e-17)
(-0.0416 -0.083 -1.41e-16)
(0.0342 -0.0796 -2.44e-16)
(-0.0518 -0.0764 1.29e-16)
(0.0473 -0.0632 -1.4e-16)
(-0.00632 -0.106 -1.21e-16)
(0.0551 -0.0903 -3.3e-16)
(-0.000931 -0.11 1.39e-16)
(0.000737 -0.093 1.35e-16)
(-0.0115 -0.0938 7.1e-17)
(-0.0143 -0.095 0)
(-0.031 -0.0494 0)
(0.0255 -0.0572 -6.12e-16)
(-0.0208 -0.0868 0)
(0.0216 -0.0874 -2.64e-16)
(0.000975 -0.089 0)
(0.016 -0.0884 2.69e-16)
(-0.0101 -0.099 1.81e-16)
(-0.0231 -0.0879 -2.88e-16)
(0.0226 -0.0879 -2.89e-16)
(-0.0376 -0.0817 2.67e-16)
(-0.0589 -0.0742 0)
(0.0561 -0.0504 -1.97e-16)
(-0.01 -0.0923 -5.63e-16)
(-0.0706 -0.0783 1.41e-16)
(0.000802 -0.0907 0)
(-0.0679 -0.0811 2.91e-16)
(-0.0585 -0.0666 0)
)
;

boundaryField
{
    front
    {
        type            empty;
    }
    back
    {
        type            empty;
    }
    bottom
    {
        type            zeroGradient;
    }
    left
    {
        type            noSlip;
    }
    top
    {
        type            uniformFixedValue;
        uniformValue    
        {
            type            table;
            format          csv;
            file            "inlet_v.csv";
            nHeaderLine     1;
            refColumn       0;
            componentColumns List<label> 3(1 2 3);
            separator       ",";
            mergeSeparators 0;
        }
        value           uniform (0 -0.081 0);
    }
    right
    {
        type            noSlip;
    }
    inner_arc
    {
        type            noSlip;
    }
}


// ************************************************************************* //
