/*--------------------------------*- C++ -*----------------------------------*\
  =========                 |
  \\      /  F ield         | OpenFOAM: The Open Source CFD Toolbox
   \\    /   O peration     | Website:  https://openfoam.org
    \\  /    A nd           | Version:  9
     \\/     M anipulation  |
\*---------------------------------------------------------------------------*/
FoamFile
{
    format      ascii;
    class       volVectorField;
    location    "0.54";
    object      U;
}
// * * * * * * * * * * * * * * * * * * * * * * * * * * * * * * * * * * * * * //

dimensions      [0 1 -1 0 0 0 0];

internalField   nonuniform List<vector> 
578
(
(-0.0362 -0.0431 0)
(-0.0193 -0.0651 3.17e-16)
(-0.0542 -0.0638 -1.13e-16)
(0.00361 -0.0708 -2.68e-17)
(0.0118 -0.0263 -5.05e-17)
(0.00455 -0.0928 -9.95e-17)
(-0.0123 -0.0269 5.03e-17)
(0.0133 -0.0245 -2.2e-20)
(0.0596 -0.0898 -2.19e-16)
(-0.0114 -0.0408 4.7e-16)
(0.00578 -0.101 -1.48e-16)
(0.0384 -0.075 0)
(0.00933 -0.0872 1.09e-16)
(0.0395 -0.0821 -8.5e-16)
(-0.0401 -0.0831 4.27e-16)
(0.07 -0.075 -1.03e-16)
(-0.0456 -0.0415 4.58e-16)
(-0.0731 -0.0623 0)
(0.0352 -0.0685 0)
(0.0652 -0.0878 1.58e-16)
(0.00327 -0.0799 0)
(0.0557 -0.0688 0)
(0.0308 -0.0274 -5.44e-16)
(0.000219 -0.0737 0)
(-0.00104 -0.0585 0)
(0.0336 -0.0682 4.32e-16)
(-0.00333 -0.0677 -5.46e-17)
(-0.000243 -0.0336 2.94e-17)
(-0.0169 -0.0781 -5.23e-16)
(0.0722 -0.078 4.19e-16)
(-0.00102 -0.0581 -5.03e-16)
(0.0043 -0.0764 1.08e-16)
(0.077 -0.0829 -4.04e-16)
(-0.0012 -0.0795 2.13e-16)
(-0.0352 -0.0747 -4.23e-16)
(0.0617 -0.0652 -6.36e-16)
(0.0346 -0.0733 8.31e-16)
(0.0324 -0.0631 0)
(-0.0695 -0.0755 -4.17e-16)
(0.019 -0.0403 0)
(0.0194 -0.0438 -4.12e-16)
(0.0221 -0.04 4.95e-16)
(0.0195 -0.0377 0)
(-0.0357 -0.0731 0)
(0.0543 -0.0527 5.41e-17)
(-0.0195 -0.0414 0)
(-0.0198 -0.045 4.13e-16)
(0.054 -0.0825 -5.43e-17)
(-0.0692 -0.0754 6.21e-16)
(-0.00569 -0.0806 -1.14e-16)
(0.000769 -0.0352 1.61e-17)
(0.0138 -0.0901 -4.61e-16)
(0.046 -0.033 -2.25e-16)
(-0.00141 -0.0805 0)
(0.0015 -0.0811 3.77e-16)
(-0.00429 -0.0975 9.12e-16)
(0.012 -0.0105 8.72e-16)
(0.0364 -0.0302 -4.43e-16)
(-0.0598 -0.0594 -7.97e-16)
(0.0398 -0.0426 2.33e-16)
(-0.0706 -0.0674 4.2e-16)
(-0.0382 -0.0267 0)
(-0.0578 -0.0443 6.04e-17)
(0.0354 -0.0731 3.95e-16)
(-0.00462 -0.0892 1.05e-16)
(-0.0444 -0.0836 2.33e-16)
(0.0733 -0.0856 -4.86e-17)
(0.0102 -0.0979 3.48e-16)
(0.0786 -0.0736 -1.99e-16)
(0.0393 -0.0839 4.65e-16)
(0.000451 -0.0622 0)
(0.00133 -0.0629 -1.51e-17)
(0.00014 -0.0862 -1.14e-16)
(0.0402 -0.0856 0)
(0.00161 -0.108 2.11e-16)
(0.0117 -0.0248 0)
(0.0526 -0.0762 2.8e-16)
(0.0433 -0.0619 -2.3e-16)
(0.00571 -0.0901 0)
(-0.0358 -0.0386 -1.22e-16)
(0.0362 -0.074 -3.94e-16)
(-0.0179 -0.0257 -4.26e-16)
(0.0108 -0.0252 -1.94e-16)
(0.0178 -0.0252 1.97e-16)
(-0.0701 -0.0864 -5.64e-17)
(-0.0142 -0.0412 0)
(0.000643 -0.0205 0)
(-0.0041 -0.107 -3.35e-16)
(0.0286 -0.0634 9.88e-21)
(-0.0305 -0.0702 3.76e-18)
(-0.00242 -0.0739 0)
(-0.0607 -0.0784 1.14e-16)
(-0.0289 -0.0648 0)
(0.013 -0.0971 2.04e-16)
(0.0735 -0.0757 6.21e-16)
(0.0528 -0.0698 -5.32e-16)
(0.000113 -0.0822 1.12e-16)
(0.00524 -0.0826 -8.05e-16)
(-0.0039 -0.0245 -8.41e-16)
(-0.0399 -0.0834 0)
(-0.0418 -0.0747 0)
(0.0369 -0.0814 -7.33e-16)
(-0.0138 -0.0946 0)
(-0.0546 -0.0575 0)
(-0.00447 -0.0815 0)
(0.0392 -0.0824 -6.32e-16)
(0.00225 -0.0978 -2.22e-16)
(0.0198 -0.0426 0)
(-0.0084 -0.0231 0)
(0.0222 -0.0445 -5.14e-16)
(0.0615 -0.0711 -1.71e-16)
(0.0376 -0.08 0)
(0.0697 -0.0846 4.71e-16)
(0.0607 -0.0722 -3.79e-16)
(0.0633 -0.0744 3.95e-16)
(-0.0138 -0.0905 4.56e-16)
(0.00604 -0.0801 2.38e-16)
(-0.0499 -0.0771 -3.48e-16)
(-0.0269 -0.0608 6.04e-17)
(-0.00518 -0.0827 3.98e-16)
(0.0278 -0.0559 -4.12e-16)
(0.0279 -0.0421 -4.88e-22)
(0.0382 -0.0767 -4.49e-16)
(0.00168 -0.0651 -6.02e-17)
(0.0234 -0.0405 0)
(-0.0324 -0.0819 4.64e-16)
(0.0244 -0.0751 -4.41e-16)
(0.0752 -0.0765 -2.25e-16)
(-0.0407 -0.0863 2.32e-16)
(-0.0266 -0.0819 0)
(-0.0402 -0.0819 0)
(-0.0317 -0.0833 0)
(0.0111 -0.0937 0)
(0.00808 -0.0163 4.36e-16)
(-0.0397 -0.0843 -4.33e-16)
(-0.0405 -0.0695 0)
(0.0338 -0.0634 0)
(-0.00837 -0.0866 -3.9e-16)
(0.0496 -0.0733 4.41e-16)
(-0.035 -0.0685 0)
(-0.0182 -0.0343 5.33e-16)
(-0.0276 -0.0823 0)
(-0.0302 -0.0584 0)
(-0.000249 -0.0623 0)
(0.0159 -0.031 0)
(-0.0732 -0.0827 1.17e-20)
(-0.0247 -0.0572 4.88e-16)
(-0.00657 -0.0514 0)
(0.0405 -0.0839 4.69e-16)
(-0.0264 -0.0762 0)
(0.0486 -0.0902 0)
(-0.0186 -0.0263 0)
(0.0181 -0.0178 0)
(0.014 -0.0282 5.22e-16)
(-0.0438 -0.0878 -4.36e-16)
(-0.00579 -0.0704 -2.42e-16)
(-0.0197 -0.0884 4.7e-16)
(0.0116 -0.0792 -1.08e-16)
(-0.0156 -0.0153 -1.05e-16)
(0.0512 -0.091 -3.71e-16)
(0.044 -0.083 5.22e-16)
(0.0413 -0.0734 5.43e-16)
(-0.00993 -0.0188 -6.67e-18)
(0.0445 -0.0799 0)
(-0.000112 -0.019 2.22e-20)
(-0.0287 -0.0725 5.98e-21)
(-0.000205 -0.0348 -5.25e-16)
(-0.0391 -0.0755 0)
(0.00766 -0.0527 -1.18e-16)
(-0.0056 -0.103 -1.93e-16)
(0.0428 -0.0708 0)
(0.0203 -0.0367 0)
(-0.0244 -0.0416 0)
(-0.014 -0.0284 -5.25e-16)
(-0.0341 -0.0644 0)
(-0.00521 -0.095 -1.08e-16)
(-0.000285 -0.0985 -1.09e-16)
(-0.048 -0.0729 4.02e-16)
(0.0267 -0.0452 5.91e-17)
(-0.00217 -0.0637 2.47e-16)
(-0.021 -0.0375 0)
(-0.0367 -0.0641 0)
(-0.0215 -0.0661 0)
(0.00528 -0.0958 8.09e-16)
(-0.0486 -0.0782 2.95e-16)
(-0.00497 -0.0379 -3.91e-16)
(0.025 -0.0301 -1.98e-16)
(-0.0417 -0.0866 1.05e-16)
(-0.0459 -0.0903 4.55e-16)
(-0.00107 -0.0361 -5.29e-16)
(0.0448 -0.0889 -4.51e-16)
(0.0379 -0.0706 0)
(0.0382 -0.0491 5.02e-16)
(-0.0361 -0.0682 0)
(-0.0242 -0.0417 0)
(-0.00145 -0.111 2.08e-16)
(0.00287 -0.0419 1e-15)
(-0.00282 -0.0413 -8e-16)
(-0.0381 -0.0709 0)
(0.0354 -0.0674 0)
(0.00588 -0.0396 -3.85e-16)
(0.00902 -0.0993 -1.02e-15)
(0.0137 -0.0421 -2.48e-16)
(-0.00411 -0.108 0)
(-0.000982 -0.104 -3.29e-16)
(0.039 -0.075 0)
(-0.0442 -0.0803 0)
(-0.0451 -0.0537 0)
(0.046 -0.0906 4.64e-16)
(-0.0225 -0.0256 0)
(-0.0196 -0.0456 4.94e-16)
(-0.0469 -0.0921 -4.47e-16)
(-0.0375 -0.0795 -1.45e-17)
(0.00245 -0.107 1.08e-16)
(-0.0328 -0.0663 -2.47e-16)
(0.00136 -0.0726 0)
(-0.0416 -0.0799 -4.71e-16)
(0.0409 -0.0789 4.72e-16)
(-0.0447 -0.0905 4.61e-16)
(-0.0111 -0.0239 -5.39e-16)
(0.0437 -0.0893 2.35e-16)
(-0.0372 -0.0722 0)
(0.0237 -0.0501 -4.87e-16)
(0.0228 -0.0428 0)
(-0.0222 -0.0413 0)
(-0.024 -0.0503 9.79e-16)
(3.18e-05 -0.115 -1.05e-16)
(0.00264 -0.0253 3.89e-20)
(-0.00209 -0.0249 2.07e-16)
(-0.000309 -0.0191 4.17e-16)
(-0.00942 -0.0231 -4.23e-16)
(0.00461 -0.0224 -2.13e-16)
(-0.00806 -0.0163 -4.34e-16)
(0.023 -0.0726 0)
(-0.0234 -0.0738 0)
(0.0165 -0.0264 1.5e-16)
(0.0124 -0.0238 0)
(-0.0127 -0.0239 0)
(0.0158 -0.0938 1.71e-16)
(0.0194 -0.0452 0)
(-0.0113 -0.0205 0)
(0.0112 -0.0195 0)
(-0.00142 -0.113 -4.27e-16)
(-0.0191 -0.0357 0)
(-0.00137 -0.0217 8.12e-16)
(0.00897 -0.0179 0)
(-0.00963 -0.0181 -4.2e-16)
(-0.0036 -0.0402 9.82e-16)
(-0.0135 -0.0219 0)
(-0.00187 -0.0998 -1.06e-16)
(0.00141 -0.11 1.05e-16)
(-0.0359 -0.0835 0)
(0.00676 -0.0666 0)
(0.00702 -0.0203 -4.21e-18)
(0.000576 -0.0181 0)
(0.027 -0.081 4.62e-16)
(-0.000411 -0.0356 5.23e-16)
(-0.0516 -0.0922 -7.14e-16)
(0.0132 -0.0241 0)
(0.00407 -0.0395 5.27e-16)
(0.0111 -0.0237 5.35e-16)
(-0.0118 -0.0211 4.26e-16)
(0.000769 -0.0217 -8.3e-16)
(0.0011 -0.039 5.59e-16)
(-0.0329 -0.0718 3.57e-16)
(0.0292 -0.0628 8.84e-16)
(0.0138 -0.0404 0)
(0.00491 -0.0116 -4.31e-16)
(-0.000903 -0.0201 -4.26e-16)
(0.00214 -0.00918 0)
(-0.00214 -0.00926 0)
(-0.0323 -0.0795 -4.5e-16)
(0.0188 -0.052 0)
(-0.000245 -0.117 -3.09e-16)
(0.00635 -0.104 -2.27e-16)
(-0.00106 -0.115 -6.23e-16)
(-0.00241 -0.089 2.41e-16)
(-0.00492 -0.0117 0)
(-0.0229 -0.042 0)
(-0.000946 -0.107 -5.46e-16)
(0.0217 -0.0408 0)
(-0.00192 -0.11 9.4e-16)
(0.000315 -0.116 0)
(0.00287 -0.11 -1.06e-16)
(-0.000827 -0.115 2.12e-16)
(-0.0161 -0.0312 -5.12e-16)
(0.00676 -0.0137 -8.54e-16)
(-0.00677 -0.0137 4.3e-16)
(-0.000492 -0.0148 0)
(0.000202 -0.0344 -5.23e-16)
(0.0226 -0.0676 0)
(-0.0367 -0.0822 1.43e-17)
(-0.00396 -0.102 1.93e-16)
(-0.0132 -0.0231 0)
(0.000396 -0.018 0)
(0.00096 -0.0363 6.46e-17)
(0.0115 -0.021 -4.26e-16)
(0.0262 -0.0807 -1.14e-15)
(-0.000165 -0.0363 1.19e-16)
(0.000319 -0.0367 -4.66e-16)
(-0.00127 -0.0979 5.6e-16)
(-0.023 -0.0689 0)
(2.28e-06 -0.0211 4.14e-16)
(-3.76e-05 -0.018 0)
(0.000637 -0.0209 0)
(-3.71e-06 -0.0221 7.86e-16)
(0.0259 -0.0751 4.55e-16)
(-0.00187 -0.0763 -1.08e-15)
(-0.000442 -0.118 -4.1e-16)
(-0.000434 -0.118 0)
(0.0243 -0.0568 2.46e-16)
(-0.000843 -0.116 3.09e-16)
(-0.000394 -0.119 -6.52e-16)
(-0.0191 -0.0525 0)
(-0.000579 -0.114 4.24e-16)
(0.00119 -0.11 4.37e-16)
(-0.034 -0.0766 0)
(-0.00711 -0.0205 0)
(-0.014 -0.0408 0)
(-0.000887 -0.106 -5.24e-16)
(-0.0294 -0.0623 -4.93e-16)
(4.7e-05 -0.117 8.51e-16)
(-0.00266 -0.11 1.09e-16)
(0.000559 -0.103 -3.39e-16)
(-0.00503 -0.105 4.32e-16)
(0.0004 -0.113 -2e-16)
(-0.0493 -0.0915 4.28e-16)
(-0.032 -0.0609 0)
(0.043 -0.0865 0)
(0.000103 -0.114 7.85e-16)
(-0.0099 -0.0975 1.11e-16)
(-0.0557 -0.0906 -1.7e-16)
(-0.000251 -0.118 2.08e-16)
(0.000751 -0.104 -4.26e-16)
(-0.0277 -0.0553 7.34e-16)
(-6.47e-05 -0.113 2.15e-16)
(0.00516 -0.104 -1.98e-16)
(0.000891 -0.103 -4.44e-16)
(-0.000441 -0.0763 0)
(-0.00236 -0.0903 0)
(0.00196 -0.108 -2.16e-16)
(0.00181 -0.113 3.2e-16)
(-0.000834 -0.116 3.08e-16)
(-0.000774 -0.0658 4.41e-16)
(-0.000156 -0.117 3.13e-16)
(0.0497 -0.0662 -1.25e-16)
(0.0275 -0.0774 2.48e-16)
(-0.0081 -0.0186 -4.29e-16)
(0.0077 -0.0177 1.09e-16)
(-0.00895 -0.0202 4.24e-16)
(0.00902 -0.02 0)
(0.0092 -0.0191 4.32e-16)
(-0.00934 -0.0194 2.16e-16)
(-0.00167 -0.103 -2.12e-16)
(0.00992 -0.0224 0)
(-0.0102 -0.0234 0)
(5.28e-05 -0.116 -3.12e-16)
(-0.0117 -0.0243 -4.18e-16)
(0.0142 -0.0262 0)
(-0.0143 -0.0267 0)
(-0.00135 -0.113 -3.37e-16)
(-0.0119 -0.0111 0)
(-7.87e-05 -0.117 1.05e-16)
(0.00788 -0.0193 4.8e-16)
(-0.000334 -0.117 -1.09e-16)
(0.000555 -0.0962 -4.57e-16)
(-0.00133 -0.115 1.08e-16)
(0.0396 -0.0782 4.54e-16)
(0.00727 -0.101 1.91e-16)
(-0.0327 -0.0299 0)
(0.036 -0.0786 0)
(-0.0333 -0.0218 -5.28e-17)
(-0.0525 -0.0539 4.4e-16)
(0.0303 -0.0828 -2.29e-16)
(-0.0764 -0.085 -2.35e-16)
(0.033 -0.0202 4.04e-16)
(-0.00874 -0.101 -1.09e-16)
(-0.0156 -0.0357 -5.44e-16)
(0.0154 -0.0345 3.88e-16)
(-0.0257 -0.05 -5.02e-16)
(-0.00128 -0.081 -3.88e-16)
(0.0161 -0.0362 -2.71e-16)
(-0.0163 -0.0367 0)
(0.00344 -0.107 -5.31e-16)
(0.00147 -0.111 3.13e-16)
(-0.00096 -0.104 6.45e-16)
(-0.00162 -0.0194 -5.55e-16)
(-0.02 -0.0434 5.05e-16)
(-0.0225 -0.0444 0)
(0.0142 -0.0334 -3.34e-16)
(0.00421 -0.0812 1.92e-16)
(0.0151 -0.0813 0)
(0.0098 -0.0917 4.55e-16)
(0.0282 -0.0718 -2.21e-16)
(-0.0797 -0.0774 3.99e-16)
(0.0103 -0.0535 2.34e-16)
(0.0619 -0.0446 3.96e-18)
(-0.000288 -0.0987 5.72e-16)
(0.00545 -0.0716 4.87e-16)
(-0.00103 -0.0313 5.44e-16)
(-0.0748 -0.0793 -7.88e-16)
(0.00112 -0.0334 -4.95e-16)
(-0.0062 -0.0369 2.6e-16)
(-0.0105 -0.0784 3.54e-16)
(-0.0126 -0.0847 0)
(-0.00812 -0.0896 0)
(0.0729 -0.0603 0)
(-0.0236 -0.0679 7.14e-16)
(0.00873 -0.101 -5.49e-16)
(0.0221 -0.089 -4.49e-16)
(-0.0083 -0.0779 -9.18e-16)
(-0.0373 -0.0798 1.13e-16)
(-0.00282 -0.094 5.98e-21)
(-0.0274 -0.073 -9.41e-16)
(-0.0338 -0.0765 -1.14e-16)
(0.0143 -0.0953 1.1e-16)
(0.0322 -0.0704 -5e-16)
(-0.0325 -0.0718 -2.51e-16)
(0.0409 -0.0863 0)
(-0.00777 -0.0955 1.09e-16)
(-0.0378 -0.0828 5.88e-17)
(0.000121 -0.0176 -1.86e-20)
(0.0412 -0.0842 0)
(-0.0399 -0.082 6.11e-16)
(-0.0358 -0.0811 0)
(0.0313 -0.0804 -2.36e-16)
(0.0138 -0.0406 6.67e-16)
(-0.0062 -0.089 -5.07e-16)
(0.00789 -0.0225 -3.98e-16)
(0.0308 -0.082 0)
(-0.065 -0.0874 0)
(0.00129 -0.113 -2.11e-16)
(0.047 -0.0525 -1.2e-16)
(0.0114 -0.0837 0)
(-0.00878 -0.0206 -2.09e-16)
(0.0362 -0.0816 -2.31e-16)
(0.0316 -0.0688 0)
(-0.0281 -0.0862 -4.49e-16)
(0.021 -0.0648 0)
(-0.0154 -0.093 4.59e-16)
(-0.0258 -0.0864 -3.52e-16)
(0.00358 -0.0958 0)
(0.00993 -0.0829 2.46e-16)
(0.000273 -0.0774 0)
(-0.0601 -0.0912 0)
(-0.00444 -0.109 4.43e-16)
(-0.000519 -0.0619 -3.77e-16)
(-0.0541 -0.0718 -4.5e-16)
(-0.0444 -0.0655 6.37e-16)
(0.000717 -0.0172 0)
(-0.0419 -0.0852 1.21e-16)
(-0.0109 -0.082 0)
(-0.0369 -0.0807 2.35e-21)
(0.00967 -0.0814 1.87e-16)
(-0.0431 -0.0889 -4.36e-16)
(-0.00145 -0.0642 0)
(-0.00554 -0.0639 -7.81e-18)
(0.0362 -0.0649 2.26e-16)
(0.000526 -0.109 6.75e-16)
(-0.0584 -0.0755 0)
(0.0172 -0.064 4.87e-16)
(-0.0251 -0.0282 2.5e-16)
(-0.0141 -0.0968 -1.72e-16)
(0.0143 -0.0383 -3.04e-16)
(-0.00222 -0.113 1.09e-16)
(0.0508 -0.0796 -1.31e-20)
(-0.0154 -0.04 0)
(0.025 -0.027 -2.56e-16)
(-0.0117 -0.0992 2.29e-16)
(0.0335 -0.0761 -7.07e-16)
(0.000526 -0.0912 -5.03e-16)
(-0.00114 -0.0178 0)
(-0.0125 -0.0167 0)
(-0.00991 -0.0756 2.38e-16)
(-0.000577 -0.102 -4.65e-16)
(0.0361 -0.0794 2.25e-16)
(0.0348 -0.082 4.73e-16)
(0.0105 -0.0136 2.09e-16)
(0.0194 -0.0258 1.03e-16)
(0.0485 -0.0565 2.01e-16)
(0.000484 -0.0931 0)
(0.00309 -0.11 2.2e-16)
(-0.0756 -0.079 -3.38e-16)
(-0.000788 -0.11 -1.04e-15)
(-0.00914 -0.0815 1.9e-16)
(0.0262 -0.0713 2.44e-16)
(-1.93e-05 -0.0929 3.54e-16)
(-0.00213 -0.0407 0)
(-0.0164 -0.0885 0)
(-0.0532 -0.0841 -2.24e-16)
(0.00222 -0.041 -1.92e-16)
(-0.0698 -0.087 5.56e-17)
(0.0315 -0.0786 2.82e-17)
(0.0174 -0.0906 5.88e-17)
(-0.00996 -0.0982 -2.26e-16)
(-0.0151 -0.0353 5.29e-16)
(-0.00153 -0.0713 2.5e-16)
(-0.0387 -0.084 2.26e-16)
(-0.00671 -0.0782 1.85e-16)
(0.00638 -0.0788 0)
(0.0405 -0.0853 -2.38e-16)
(-0.00566 -0.105 -4.49e-16)
(0.0239 -0.0609 0)
(0.00258 -0.0992 6.68e-16)
(-0.0691 -0.0739 1.28e-16)
(-0.0157 -0.0897 0)
(-0.0266 -0.0598 2.61e-16)
(0.00916 -0.0937 0)
(-0.0253 -0.063 4.9e-16)
(-0.02 -0.0895 0)
(0.00106 -0.0769 4.55e-16)
(0.0392 -0.0647 0)
(0.00136 -0.0616 -4.95e-16)
(-0.0278 -0.0645 -2.71e-16)
(-0.0328 -0.072 -6.32e-17)
(0.000258 -0.0361 -4.94e-16)
(0.0395 -0.0824 2.43e-16)
(0.0277 -0.0635 0)
(0.000872 -0.0709 0)
(0.0212 -0.0895 4.67e-16)
(0.000565 -0.101 -3.32e-16)
(0.0271 -0.0494 -3.95e-16)
(-0.00142 -0.112 1.1e-16)
(0.0247 -0.0571 0)
(0.0349 -0.0764 2.59e-16)
(0.00132 -0.0896 -6.32e-16)
(-5.86e-07 -0.0723 3.24e-16)
(0.00561 -0.0687 -2.55e-16)
(0.053 -0.0742 1.17e-16)
(-0.0047 -0.0734 2.57e-16)
(0.0313 -0.0472 0)
(0.0426 -0.0874 0)
(-0.00216 -0.0359 -4.85e-16)
(0.000307 -0.0939 0)
(0.0214 -0.0863 5.42e-16)
(-0.0248 -0.0374 -2.69e-16)
(0.000933 -0.0578 0)
(-0.0309 -0.0688 -3.19e-16)
(-0.0489 -0.0576 -3.08e-17)
(-0.0119 -0.066 5.19e-16)
(0.013 -0.0672 8.71e-20)
(0.0147 -0.0883 -2.99e-17)
(0.0257 -0.0383 0)
(0.0284 -0.064 2.71e-16)
(0.0125 -0.0749 0)
(-0.000881 -0.0952 -2.39e-16)
(0.000417 -0.0721 0)
(-0.0514 -0.0712 0)
(0.0629 -0.076 -1.16e-16)
(0.0284 -0.0672 2.52e-16)
(0.0673 -0.0611 3.27e-17)
(-0.0414 -0.0829 -1.31e-16)
(0.0342 -0.0788 -2.26e-16)
(-0.0514 -0.0753 1.19e-16)
(0.048 -0.0633 -1.29e-16)
(-0.00624 -0.106 -1.12e-16)
(0.055 -0.0898 -3.05e-16)
(-0.000816 -0.111 1.28e-16)
(0.00106 -0.0918 1.26e-16)
(-0.0121 -0.0929 6.58e-17)
(-0.0148 -0.0942 0)
(-0.0305 -0.0483 0)
(0.0249 -0.0558 -5.68e-16)
(-0.0209 -0.0857 0)
(0.0217 -0.0863 -2.44e-16)
(0.000852 -0.0872 0)
(0.016 -0.0873 2.49e-16)
(-0.00992 -0.0987 1.67e-16)
(-0.023 -0.0871 -2.67e-16)
(0.0225 -0.087 -2.68e-16)
(-0.0374 -0.0813 2.47e-16)
(-0.0583 -0.0717 0)
(0.0571 -0.0503 -1.82e-16)
(-0.00978 -0.0908 -5.22e-16)
(-0.0706 -0.0766 1.3e-16)
(0.000706 -0.0891 0)
(-0.0676 -0.0801 2.69e-16)
(-0.0579 -0.0655 0)
)
;

boundaryField
{
    front
    {
        type            empty;
    }
    back
    {
        type            empty;
    }
    bottom
    {
        type            zeroGradient;
    }
    left
    {
        type            noSlip;
    }
    top
    {
        type            uniformFixedValue;
        uniformValue    
        {
            type            table;
            format          csv;
            file            "inlet_v.csv";
            nHeaderLine     1;
            refColumn       0;
            componentColumns List<label> 3(1 2 3);
            separator       ",";
            mergeSeparators 0;
        }
        value           uniform (0 -0.08 0);
    }
    right
    {
        type            noSlip;
    }
    inner_arc
    {
        type            noSlip;
    }
}


// ************************************************************************* //
