/*--------------------------------*- C++ -*----------------------------------*\
  =========                 |
  \\      /  F ield         | OpenFOAM: The Open Source CFD Toolbox
   \\    /   O peration     | Website:  https://openfoam.org
    \\  /    A nd           | Version:  9
     \\/     M anipulation  |
\*---------------------------------------------------------------------------*/
FoamFile
{
    format      ascii;
    class       volScalarField;
    location    "0.4";
    object      p;
}
// * * * * * * * * * * * * * * * * * * * * * * * * * * * * * * * * * * * * * //

dimensions      [0 2 -2 0 0 0 0];

internalField   nonuniform List<scalar> 
578
(
15.1846
15.2637
15.197
15.4009
15.0963
15.3191
15.0984
15.1255
15.1362
15.2396
15.3369
15.1267
15.4613
15.1077
15.1082
15.2112
15.5684
15.335
15.1279
15.1527
15.3944
15.2022
15.6171
15.3184
15.326
15.1127
15.3952
15.3777
15.298
15.1954
15.3823
15.2958
15.1837
15.3563
15.105
15.1782
15.1044
15.1071
15.1838
15.0812
15.0919
15.1276
15.1101
15.0925
15.1289
15.0797
15.0922
15.114
15.1981
15.4147
15.2977
15.4624
15.5587
15.3509
15.4654
15.3222
15.6886
15.1688
15.4644
15.1724
15.3619
15.588
15.3326
15.0895
15.4559
15.1136
15.1746
15.347
15.2886
15.1097
15.3431
15.3021
15.4586
15.106
15.3331
15.0781
15.1581
15.1765
15.4543
15.1688
15.3112
15.1929
15.2192
15.2137
15.1693
15.0876
15.2859
15.3337
15.1051
15.0979
15.3894
15.1375
15.1034
15.4453
15.2871
15.28
15.4621
15.466
15.2524
15.1012
15.0921
15.0989
15.4534
15.1703
15.4769
15.1004
15.3202
15.0766
15.0909
15.0748
15.1781
15.1069
15.1621
15.3718
15.3106
15.4626
15.4198
15.3655
15.1012
15.4666
15.1111
15.2451
15.1089
15.3785
15.2165
15.099
15.2991
15.2137
15.1119
15.0927
15.1129
15.0973
15.4359
15.1054
15.1034
15.1718
15.1257
15.4625
15.4062
15.1156
15.1115
15.096
15.1118
15.3325
15.1086
15.1731
15.1029
15.4516
15.1037
15.0962
15.146
15.0339
15.1705
15.1025
15.1222
15.4258
15.3447
15.4408
15.1713
15.1333
15.1149
15.0927
15.1145
15.1607
15.321
15.0998
15.3295
15.1297
15.4518
15.4089
15.177
15.1276
15.1773
15.103
15.1281
15.4476
15.441
15.443
15.1777
15.2979
15.1294
15.2432
15.0953
15.4461
15.1689
15.4659
15.1749
15.1049
15.133
15.2923
15.13
15.1541
15.186
15.1409
15.213
15.4085
15.4283
15.4293
15.1552
15.1395
15.4662
15.442
15.2396
15.4145
15.4303
15.1299
15.1562
15.1171
15.1242
15.174
15.1028
15.126
15.1047
15.4237
15.1073
15.3763
15.1427
15.1406
15.1199
15.1018
15.119
15.1224
15.1043
15.159
15.1436
15.1046
15.3911
15.4388
15.4389
15.3012
15.2147
15.2405
15.1047
15.0889
15.0892
15.1871
15.151
15.1522
15.4584
15.1032
15.1244
15.12
15.3967
15.1184
15.4157
15.1119
15.1091
15.2693
15.1844
15.375
15.4115
15.1017
15.2791
15.1059
15.3079
15.0955
15.3106
15.1342
15.1695
15.2634
15.1017
15.1365
15.4099
15.4009
15.2781
15.106
15.1084
15.1029
15.2805
15.1101
15.1102
15.1013
15.1009
15.3794
15.4279
15.3774
15.3826
15.103
15.1601
15.3621
15.1427
15.383
15.3741
15.4054
15.3663
15.1058
15.1026
15.1029
15.334
15.3393
15.1003
15.1054
15.396
15.17
15.3666
15.3769
15.1354
15.0927
15.3409
15.3645
15.3658
15.1007
15.355
15.334
15.3907
15.3635
15.0965
15.3075
15.3535
15.3629
15.1039
15.3396
15.343
15.101
15.3503
15.3761
15.1033
15.1062
15.1087
15.3566
15.1055
15.3644
15.3937
15.3373
15.4268
15.3575
15.144
15.1186
15.1238
15.3496
15.4447
15.1543
15.3501
15.3606
15.1071
15.3424
15.404
15.367
15.3248
15.3878
15.3868
15.3944
15.3371
15.3136
15.3422
15.2444
15.4757
15.0948
15.0925
15.092
15.0933
15.0885
15.0867
15.3284
15.0786
15.078
15.3384
15.0756
15.0506
15.0495
15.3548
15.6842
15.34
15.0935
15.3395
15.4386
15.3454
15.3803
15.4186
15.1735
15.0934
15.4498
15.1077
15.4141
15.1719
15.4775
15.4336
15.0918
15.0894
15.5905
15.4656
15.0938
15.0925
15.3808
15.3629
15.4052
15.7041
15.0776
15.0731
15.094
15.4759
15.4898
15.4492
15.1004
15.2389
15.5994
15.3339
15.337
15.5451
15.3288
15.1798
15.3166
15.6534
15.2908
15.4827
15.4684
15.3575
15.5391
15.3781
15.3855
15.5153
15.3374
15.3168
15.0969
15.4694
15.4027
15.1069
15.1097
15.1041
15.4161
15.0991
15.3198
15.1257
15.106
15.1
15.0988
15.0883
15.3146
15.0917
15.0967
15.1566
15.3408
15.138
15.4821
15.096
15.1056
15.0908
15.3666
15.0955
15.428
15.4288
15.3927
15.4429
15.3598
15.1353
15.3641
15.3418
15.1783
15.1839
15.3576
15.1172
15.5021
15.1132
15.4991
15.1176
15.3685
15.2832
15.5141
15.3346
15.3187
15.2704
15.1868
15.361
15.0944
15.337
15.1744
15.0937
15.1791
15.3961
15.1023
15.3397
15.392
15.1903
15.441
15.3303
15.113
15.0983
15.1843
15.0374
15.1852
15.3376
15.3469
15.243
15.3426
15.44
15.0963
15.3317
15.5748
15.4746
15.1154
15.5739
15.1662
15.1019
15.4646
15.4308
15.0962
15.3798
15.0982
15.6327
15.6351
15.11
15.3853
15.0964
15.3893
15.3307
15.4609
15.0962
15.4257
15.0967
15.475
15.3583
15.2631
15.369
15.0775
15.0936
15.3655
15.1095
15.0818
15.3141
15.4805
15.3375
15.5911
15.3349
15.0972
15.0986
15.3778
15.3414
15.4289
15.0867
15.2943
15.0561
15.1182
15.4005
15.352
15.3451
15.188
15.3218
15.1015
15.1847
15.4866
15.4888
15.3255
15.1913
15.1023
15.2874
15.3488
15.3326
15.2582
15.141
15.0972
15.4095
15.1195
15.099
15.0895
15.4756
15.3443
15.1465
15.3393
15.3721
15.4411
15.4546
15.0549
15.0926
15.4814
15.4851
15.3185
15.4769
15.3408
15.5199
15.5185
15.0983
15.2445
15.5077
15.3207
15.2683
15.3279
15.1725
15.1883
)
;

boundaryField
{
    front
    {
        type            empty;
    }
    back
    {
        type            empty;
    }
    bottom
    {
        type            uniformFixedValue;
        uniformValue    
        {
            type            scale;
            scale           
            {
                type            squarePulse;
                start           0.3;
                duration        0.3;
            }
            xScale          
            {
                type            constant;
                value           1;
            }
            value           
            {
                type            constant;
                value           15.1;
            }
        }
        value           uniform 15.1;
    }
    left
    {
        type            zeroGradient;
    }
    top
    {
        type            zeroGradient;
    }
    right
    {
        type            zeroGradient;
    }
    inner_arc
    {
        type            zeroGradient;
    }
}


// ************************************************************************* //
