/*--------------------------------*- C++ -*----------------------------------*\
  =========                 |
  \\      /  F ield         | OpenFOAM: The Open Source CFD Toolbox
   \\    /   O peration     | Website:  https://openfoam.org
    \\  /    A nd           | Version:  9
     \\/     M anipulation  |
\*---------------------------------------------------------------------------*/
FoamFile
{
    format      ascii;
    class       volScalarField;
    location    "1.98";
    object      p;
}
// * * * * * * * * * * * * * * * * * * * * * * * * * * * * * * * * * * * * * //

dimensions      [0 2 -2 0 0 0 0];

internalField   nonuniform List<scalar> 
1655
(
10.1822
10.1861
10.1704
10.1866
10.1724
10.181
10.1707
10.1383
10.1211
10.1742
10.1853
10.1848
10.1405
10.1879
10.1545
10.1844
10.1826
10.1172
10.182
10.1879
10.1847
10.1201
10.1564
10.1579
10.1823
10.1842
10.1845
10.1256
10.1273
10.1849
10.1646
10.1651
10.1873
10.19
10.1096
10.1904
10.1813
10.1862
10.1874
10.186
10.1847
10.1618
10.1877
10.1852
10.1863
10.1864
10.1864
10.1864
10.1818
10.1877
10.1805
10.164
10.1479
10.1245
10.1268
10.2036
10.1846
10.186
10.1855
10.1942
10.1706
10.1804
10.1817
10.1378
10.1893
10.1608
10.1892
10.1858
10.1115
10.161
10.1859
10.161
10.1849
10.1332
10.1932
10.1872
10.1294
10.1019
10.1846
10.1849
10.1905
10.1871
10.1241
10.1859
10.185
10.1912
10.191
10.1848
10.1851
10.196
10.1899
10.1763
10.1825
10.1821
10.1879
10.1814
10.1897
10.1859
10.172
10.1861
10.1823
10.1905
10.1813
10.1903
10.1197
10.1801
10.1389
10.1849
10.1861
10.201
10.1867
10.185
10.2008
10.185
10.1454
10.1897
10.1415
10.1858
10.1839
10.1222
10.1984
10.1948
10.183
10.185
10.19
10.1471
10.1877
10.1879
10.1844
10.1853
10.1818
10.1866
10.1391
10.1494
10.1849
10.186
10.1688
10.1549
10.1847
10.1886
10.1939
10.1845
10.1844
10.1949
10.1777
10.1959
10.1944
10.1971
10.1955
10.1652
10.172
10.1687
10.1945
10.1858
10.1869
10.1878
10.1889
10.1932
10.1427
10.1904
10.1944
10.1826
10.1257
10.1934
10.1945
10.1858
10.1264
10.147
10.1905
10.1086
10.1819
10.1314
10.1957
10.1344
10.1849
10.1372
10.182
10.1058
10.1853
10.1879
10.2069
10.1326
10.1804
10.1861
10.1862
10.1854
10.1867
10.1854
10.1267
10.1359
10.1862
10.1805
10.1359
10.1565
10.1856
10.1849
10.131
10.1856
10.1848
10.1376
10.1868
10.1874
10.1849
10.1745
10.1887
10.1847
10.1873
10.1383
10.1854
10.1906
10.1532
10.1526
10.1862
10.1458
10.188
10.1879
10.193
10.1828
10.1469
10.1411
10.1866
10.1848
10.1874
10.1456
10.1873
10.1857
10.1856
10.1896
10.1444
10.1451
10.1871
10.1524
10.1567
10.1012
10.1871
10.1872
10.1857
10.1435
10.1854
10.17
10.2018
10.1862
10.1738
10.1848
10.1478
10.1848
10.1632
10.1285
10.1854
10.1425
10.1843
10.1849
10.177
10.155
10.1872
10.1494
10.1859
10.1507
10.1054
10.1876
10.1848
10.1851
10.1856
10.148
10.1769
10.1494
10.1876
10.1879
10.1871
10.1879
10.152
10.1171
10.1862
10.1851
10.103
10.1287
10.1638
10.1531
10.1274
10.1843
10.132
10.1533
10.1304
10.1298
10.1501
10.1354
10.1378
10.1867
10.1875
10.1173
10.1326
10.1848
10.1878
10.1331
10.1449
10.1865
10.1363
10.1452
10.1848
10.1855
10.1865
10.1821
10.1821
10.1863
10.1854
10.1305
10.1863
10.1853
10.153
10.1853
10.1485
10.1765
10.1852
10.1844
10.1468
10.1492
10.1848
10.1308
10.1852
10.1861
10.1358
10.1879
10.1867
10.1865
10.1865
10.1864
10.1864
10.1508
10.1857
10.1769
10.1873
10.142
10.1879
10.1851
10.1525
10.1852
10.1745
10.1877
10.1857
10.1468
10.1863
10.1861
10.1216
10.1464
10.154
10.1863
10.1879
10.1863
10.1861
10.185
10.1486
10.1837
10.1492
10.1867
10.129
10.1851
10.1859
10.1857
10.1559
10.1849
10.1765
10.1875
10.1278
10.1837
10.1876
10.1966
10.1855
10.1562
10.1434
10.1865
10.1864
10.1869
10.1869
10.1855
10.1634
10.1563
10.1771
10.1431
10.1868
10.1859
10.1872
10.1835
10.1507
10.1842
10.1861
10.1319
10.1853
10.1528
10.1412
10.1852
10.1845
10.1833
10.1756
10.1361
10.186
10.1853
10.1849
10.1437
10.1296
10.1781
10.1855
10.1877
10.1829
10.1547
10.1813
10.187
10.1376
10.1859
10.1862
10.1784
10.1732
10.182
10.1843
10.1789
10.187
10.1807
10.1407
10.1608
10.1847
10.1851
10.1783
10.1826
10.1885
10.1849
10.1852
10.1678
10.1658
10.1858
10.1851
10.1779
10.1859
10.1847
10.185
10.1782
10.1815
10.1809
10.1864
10.1907
10.1787
10.1805
10.1844
10.1834
10.1852
10.1846
10.1841
10.1811
10.1791
10.1771
10.1788
10.1799
10.178
10.174
10.1754
10.1834
10.1766
10.1826
10.1764
10.1842
10.1783
10.1867
10.1835
10.1829
10.1838
10.1767
10.1794
10.1495
10.1837
10.1845
10.1815
10.1829
10.1823
10.1866
10.1829
10.1819
10.1714
10.1819
10.1813
10.1806
10.1786
10.1858
10.1848
10.1796
10.1807
10.1768
10.181
10.1819
10.1843
10.1815
10.1827
10.1858
10.168
10.1815
10.1801
10.1812
10.1802
10.1813
10.1603
10.1845
10.1805
10.1792
10.1796
10.1812
10.1884
10.1758
10.1662
10.1799
10.1759
10.1786
10.1783
10.1809
10.1754
10.1806
10.1782
10.181
10.1787
10.1813
10.1769
10.1781
10.1567
10.1559
10.1497
10.1636
10.1825
10.175
10.1583
10.1763
10.1818
10.1794
10.1795
10.1491
10.1817
10.181
10.1823
10.1885
10.1806
10.186
10.1817
10.1845
10.1903
10.1865
10.1832
10.1555
10.1811
10.187
10.1843
10.1816
10.1815
10.1897
10.181
10.1883
10.1861
10.1811
10.1805
10.1822
10.1796
10.1608
10.1954
10.181
10.1833
10.179
10.1711
10.1876
10.1779
10.1567
10.1775
10.1512
10.1744
10.1848
10.1715
10.1504
10.1813
10.1723
10.1944
10.1793
10.1572
10.1763
10.1814
10.1866
10.152
10.1826
10.1827
10.1824
10.1773
10.1505
10.1859
10.1827
10.1694
10.1661
10.1778
10.1725
10.1815
10.1587
10.1534
10.1511
10.1764
10.1491
10.1817
10.1966
10.1525
10.1696
10.1572
10.1666
10.1609
10.1822
10.165
10.172
10.1953
10.1982
10.1845
10.19
10.1807
10.1822
10.1843
10.1787
10.195
10.1638
10.1571
10.1833
10.1791
10.1472
10.1526
10.1706
10.1646
10.1633
10.1751
10.1884
10.1643
10.158
10.1541
10.1783
10.1798
10.1742
10.1535
10.1851
10.1829
10.1565
10.184
10.1852
10.1818
10.1766
10.1842
10.1861
10.1817
10.1844
10.1834
10.1795
10.1813
10.1842
10.1751
10.1822
10.1619
10.1808
10.176
10.1796
10.1805
10.182
10.1775
10.172
10.1678
10.1503
10.1805
10.1616
10.1835
10.1784
10.1788
10.165
10.1889
10.1838
10.1847
10.1819
10.1544
10.1586
10.1887
10.1777
10.1879
10.1811
10.1781
10.1846
10.1615
10.1901
10.1764
10.169
10.1808
10.1779
10.1777
10.1594
10.1847
10.1898
10.1704
10.1682
10.1779
10.1852
10.1756
10.1713
10.1821
10.1748
10.189
10.1651
10.1825
10.1837
10.1782
10.1827
10.1806
10.1807
10.178
10.1769
10.1888
10.1728
10.1756
10.1797
10.1677
10.1674
10.1679
10.1751
10.1717
10.1812
10.1896
10.1789
10.1798
10.184
10.1658
10.176
10.1562
10.1793
10.1572
10.176
10.1776
10.1824
10.1782
10.1896
10.1805
10.1782
10.1776
10.1704
10.177
10.1802
10.1779
10.1834
10.1795
10.1867
10.1662
10.1785
10.1811
10.1797
10.1741
10.1742
10.178
10.1811
10.1904
10.1832
10.178
10.1899
10.1854
10.1842
10.1765
10.1836
10.1815
10.1789
10.1817
10.1764
10.1754
10.1734
10.177
10.1825
10.1922
10.1802
10.1854
10.173
10.1768
10.1788
10.1798
10.1814
10.1826
10.1919
10.1672
10.1622
10.1807
10.1784
10.1702
10.1711
10.1784
10.1771
10.1766
10.1775
10.1612
10.1656
10.1793
10.1798
10.1791
10.1613
10.1847
10.1818
10.178
10.1803
10.1756
10.1868
10.1625
10.185
10.178
10.1837
10.1786
10.1772
10.1756
10.1836
10.182
10.1591
10.176
10.1805
10.1831
10.1773
10.1632
10.1858
10.1842
10.1766
10.1876
10.1838
10.1755
10.1758
10.1759
10.1839
10.1752
10.1754
10.1891
10.1806
10.1736
10.1812
10.1786
10.1875
10.1756
10.1876
10.1857
10.1762
10.1784
10.176
10.1822
10.177
10.1774
10.1778
10.1796
10.1751
10.1247
10.1853
10.1841
10.1788
10.1794
10.1761
10.1843
10.1888
10.1856
10.1769
10.1804
10.185
10.19
10.1789
10.1757
10.1788
10.1853
10.1768
10.179
10.1822
10.1782
10.1836
10.1895
10.1836
10.1776
10.1832
10.1799
10.1808
10.1778
10.1835
10.1818
10.176
10.1585
10.1809
10.1801
10.185
10.1766
10.1859
10.1665
10.1845
10.1797
10.1571
10.1847
10.1831
10.1779
10.1753
10.1786
10.1826
10.1804
10.1771
10.1796
10.1497
10.1857
10.1859
10.1813
10.1856
10.1583
10.1695
10.1765
10.1469
10.1805
10.1832
10.1862
10.1764
10.1817
10.1748
10.1877
10.1807
10.1815
10.1861
10.1757
10.1844
10.1847
10.1546
10.1767
10.1703
10.1733
10.1843
10.1806
10.1859
10.1818
10.1764
10.1773
10.1693
10.1765
10.1765
10.1555
10.1862
10.1721
10.1609
10.1668
10.1868
10.1634
10.1731
10.1787
10.1863
10.1846
10.1849
10.1854
10.1906
10.1784
10.1844
10.177
10.1852
10.1736
10.1767
10.1907
10.1767
10.1864
10.1727
10.1755
10.1794
10.1801
10.173
10.1821
10.1869
10.1819
10.1793
10.179
10.1741
10.1652
10.1762
10.1703
10.1804
10.1845
10.1861
10.1798
10.1815
10.1847
10.1873
10.185
10.1797
10.1862
10.186
10.1621
10.1749
10.1878
10.1658
10.1862
10.1798
10.1694
10.1657
10.1867
10.1844
10.1861
10.1719
10.1889
10.169
10.1869
10.1617
10.1862
10.1751
10.1757
10.1833
10.1864
10.1671
10.1845
10.1657
10.1733
10.1582
10.1645
10.1683
10.1863
10.1606
10.1637
10.1645
10.1859
10.1579
10.1865
10.1866
10.1862
10.1657
10.1622
10.1876
10.1724
10.1531
10.1621
10.1861
10.1861
10.1862
10.155
10.1837
10.183
10.1585
10.186
10.1868
10.1609
10.1864
10.1599
10.1863
10.1798
10.1853
10.1845
10.1861
10.1875
10.1877
10.1531
10.1762
10.1862
10.1807
10.186
10.1831
10.1816
10.1418
10.186
10.1871
10.1859
10.1573
10.1576
10.1867
10.1856
10.1871
10.186
10.1864
10.1846
10.132
10.1859
10.1559
10.1737
10.1237
10.1191
10.1861
10.1809
10.1868
10.1844
10.1909
10.1861
10.1507
10.1727
10.154
10.1466
10.1861
10.1861
10.1691
10.1515
10.1879
10.1598
10.1845
10.1843
10.1693
10.1551
10.1851
10.1645
10.1496
10.1337
10.1847
10.1469
10.1624
10.1157
10.1872
10.1734
10.1848
10.1588
10.158
10.1675
10.1623
10.1325
10.179
10.1127
10.1861
10.1673
10.1812
10.1423
10.1682
10.1357
10.1452
10.1803
10.1847
10.1379
10.1861
10.1534
10.1831
10.1656
10.1859
10.1812
10.1878
10.1859
10.1678
10.1755
10.1408
10.1853
10.1858
10.1847
10.1193
10.1384
10.1838
10.1685
10.1467
10.1465
10.1622
10.1609
10.1852
10.1855
10.1879
10.1366
10.18
10.186
10.1493
10.1452
10.1604
10.1751
10.1469
10.1849
10.1663
10.1509
10.1785
10.1629
10.1789
10.0787
10.1581
10.1509
10.168
10.1667
10.1857
10.1707
10.1644
10.17
10.1879
10.1612
10.185
10.1878
10.1529
10.1612
10.1636
10.1668
10.173
10.174
10.1668
10.1823
10.1717
10.1714
10.1719
10.1625
10.1702
10.1452
10.1858
10.1849
10.1759
10.1813
10.1657
10.169
10.1875
10.1715
10.1185
10.1613
10.185
10.1849
10.1836
10.1801
10.1725
10.1836
10.1859
10.185
10.1425
10.1848
10.185
10.1458
10.1412
10.1878
10.1799
10.1779
10.1838
10.1832
10.1845
10.186
10.1845
10.143
10.1844
10.1849
10.1879
10.1856
10.1812
10.1848
10.1855
10.1831
10.1848
10.1847
10.1845
10.1473
10.1732
10.1764
10.178
10.1877
10.1464
10.1851
10.1822
10.1837
10.1555
10.1766
10.1857
10.175
10.1857
10.181
10.182
10.1574
10.1814
10.1284
10.1845
10.1846
10.186
10.1816
10.1782
10.1714
10.1802
10.1806
10.1842
10.1781
10.1849
10.1849
10.1846
10.1852
10.1836
10.1747
10.1874
10.1834
10.1163
10.1798
10.1821
10.1378
10.1849
10.1846
10.1827
10.1839
10.1841
10.1843
10.1853
10.186
10.1852
10.1875
10.1855
10.1842
10.1844
10.1845
10.1845
10.1846
10.188
10.1851
10.1859
10.186
10.1862
10.1861
10.1845
10.1845
10.1861
10.1794
10.1774
10.1818
10.1775
10.1839
10.1829
10.1863
10.1243
10.1207
10.1863
10.1211
10.1866
10.1191
10.185
10.1164
10.1052
10.1843
10.1856
10.1843
10.1794
10.1715
10.1694
10.1809
10.172
10.1249
10.1546
10.1961
10.1851
10.1691
10.1838
10.184
10.1342
10.1874
10.1235
10.185
10.1807
10.1251
10.1834
10.1191
10.1842
10.1652
10.1877
10.185
10.1321
10.097
10.1277
10.1874
10.1872
10.1204
10.1876
10.1717
10.111
10.1839
10.1874
10.184
10.1805
10.1808
10.1901
10.1852
10.1823
10.1807
10.1813
10.1813
10.1819
10.1889
10.1857
10.1848
10.1867
10.1834
10.1807
10.181
10.1895
10.1822
10.1855
10.1819
10.1928
10.1892
10.1628
10.1851
10.1581
10.1615
10.19
10.1863
10.1852
10.1848
10.1879
10.1855
10.1697
10.1952
10.1819
10.1814
10.1292
10.1876
10.1866
10.1872
10.1855
10.1599
10.1836
10.1872
10.1305
10.1853
10.1857
10.1826
10.1801
10.1862
10.1205
10.1818
10.1813
10.1855
10.1869
10.1675
10.1879
10.1822
10.1486
10.1537
10.1879
10.1333
10.1861
10.1233
10.1862
10.1814
10.1856
10.1826
10.1042
10.157
10.1868
10.1811
10.135
10.1844
10.185
10.1857
10.1797
10.1532
10.1876
10.1812
10.1785
10.1863
10.1877
10.1879
10.1863
10.1461
10.1772
10.1864
10.1867
10.1701
10.1875
10.1812
10.1827
10.1839
10.1874
10.1871
10.1889
10.1836
10.1859
10.1857
10.1202
10.119
10.1851
10.1875
10.1878
10.1879
10.1866
10.118
10.1314
10.1851
10.1958
10.1906
10.1933
10.1885
10.1849
10.1878
10.0986
10.1715
10.1904
10.1803
10.1678
10.1786
10.151
10.1818
10.1879
10.1819
10.1615
10.1849
10.0909
10.1879
10.1935
10.1879
10.1686
10.1466
10.1859
10.1888
10.1892
10.1879
10.1863
10.1865
10.1441
10.1863
10.1799
10.1854
10.1262
10.1812
10.1225
10.1878
10.1202
10.185
10.193
10.1819
10.1879
10.1808
10.1508
10.1707
10.1543
10.1754
10.1822
10.1798
10.175
10.1813
10.1776
10.1887
10.1897
10.0934
10.1848
10.1638
10.1818
10.1881
10.1873
10.1279
10.1229
10.1863
10.1822
10.1743
10.1869
10.1879
10.1899
10.1816
10.1876
10.1869
10.1793
10.1854
10.1854
10.1833
10.1866
10.1865
10.1273
10.1804
10.1969
10.1851
10.1856
10.1226
10.1873
10.1984
10.1233
10.141
10.186
10.1878
10.1231
10.1819
10.1835
10.1862
10.1945
10.1795
10.1816
10.184
10.1871
10.1879
10.1945
10.1903
10.1834
10.1671
10.186
10.1878
10.1607
10.1341
10.182
10.1879
10.145
10.1859
10.1811
10.1833
10.1244
10.1435
10.1878
10.1191
10.1855
10.1837
10.1544
10.1879
10.1844
10.1652
10.181
10.1797
10.1314
10.1649
10.1212
10.1862
10.1917
10.1194
10.1863
10.1631
10.1885
10.1877
10.1879
10.1251
10.187
10.1671
10.1854
10.193
10.1817
10.1865
10.1868
10.1159
10.185
10.1875
10.1849
10.1353
10.0848
10.1339
10.1801
10.1181
10.172
10.1863
10.1872
10.1705
10.1872
10.1802
10.1871
10.1297
10.1862
10.181
10.1236
10.1747
10.1879
10.1557
10.1879
10.1764
10.1842
10.19
10.1851
10.194
10.1878
10.1927
10.1526
10.1787
10.1879
10.1693
10.1878
10.1853
10.189
10.1805
10.1763
10.181
10.188
10.1824
10.1879
10.1811
10.1298
10.1879
10.1827
10.1204
10.1879
10.165
10.1828
10.1958
10.1871
10.1945
10.1223
10.1862
10.1946
10.1864
10.167
10.1194
)
;

boundaryField
{
    back
    {
        type            empty;
    }
    front
    {
        type            empty;
    }
    top
    {
        type            zeroGradient;
    }
    outer_arc
    {
        type            zeroGradient;
    }
    bottom
    {
        type            uniformFixedValue;
        uniformValue    
        {
            type            table;
            format          csv;
            file            "outlet_p.csv";
            nHeaderLine     1;
            refColumn       0;
            componentColumns List<label> 1(1);
            separator       ",";
            mergeSeparators 0;
        }
        value           uniform 10.1178;
    }
    inner_arc
    {
        type            zeroGradient;
    }
}


// ************************************************************************* //
