/*--------------------------------*- C++ -*----------------------------------*\
  =========                 |
  \\      /  F ield         | OpenFOAM: The Open Source CFD Toolbox
   \\    /   O peration     | Website:  https://openfoam.org
    \\  /    A nd           | Version:  9
     \\/     M anipulation  |
\*---------------------------------------------------------------------------*/
FoamFile
{
    format      ascii;
    class       surfaceScalarField;
    location    "1.98";
    object      phi;
}
// * * * * * * * * * * * * * * * * * * * * * * * * * * * * * * * * * * * * * //

dimensions      [0 3 -1 0 0 0 0];

internalField   nonuniform List<scalar> 
1363
(
-5.03669e-07
3.22938e-07
1.80731e-07
-3.1631e-07
1.72625e-07
1.43685e-07
7.43713e-07
-5.76849e-07
-1.66864e-07
-1.55094e-07
4.63398e-07
-3.08304e-07
6.78152e-07
6.55615e-08
3.42838e-07
-5.87212e-09
-3.36966e-07
-1.28871e-07
1.28871e-07
3.16446e-07
2.63914e-08
-2.94556e-07
3.03413e-07
-8.8565e-09
1.45606e-08
-3.09117e-07
-3.98472e-07
2.74094e-07
1.24379e-07
5.04271e-07
-6.45395e-07
1.41124e-07
3.40696e-07
-4.9579e-07
-6.51586e-07
6.29389e-07
2.21969e-08
9.17574e-08
4.12513e-07
-2.82959e-07
-3.33505e-08
2.47399e-07
1.39134e-07
-3.86533e-07
-2.54596e-07
-2.49074e-07
-6.16001e-07
-3.27718e-08
6.48772e-07
-2.29066e-07
2.29066e-07
2.7061e-07
-2.32107e-08
-2.53131e-07
-3.92264e-07
-1.47596e-07
-2.05924e-08
1.68188e-07
7.90475e-08
2.55706e-08
-1.04618e-07
-3.56217e-07
-4.2255e-08
1.82671e-07
-1.03624e-07
5.99459e-07
-5.65199e-07
-3.426e-08
-2.20938e-07
7.33419e-08
-7.48878e-08
-2.15458e-08
9.64336e-08
-2.16097e-08
-3.54341e-07
3.75951e-07
-1.30003e-07
-6.13456e-08
1.91348e-07
1.43566e-08
5.85102e-07
-7.90604e-08
4.1726e-09
-4.39945e-07
-2.87482e-09
4.4282e-07
5.66054e-07
-5.78799e-07
1.27449e-08
2.04797e-08
1.17458e-07
-1.37938e-07
-4.82858e-07
1.96388e-07
2.8647e-07
2.98466e-07
-1.27867e-07
-1.70599e-07
-2.54981e-07
-2.27877e-07
-5.2873e-08
7.84436e-08
9.78817e-08
-4.98093e-07
4.00211e-07
4.50083e-07
-4.43e-07
-7.08242e-09
5.70724e-08
-1.09945e-07
-3.09437e-08
-9.79275e-08
6.08251e-08
6.8046e-08
-3.05732e-07
-4.75359e-08
3.53268e-07
2.44871e-07
2.54621e-07
-4.99492e-07
9.12717e-08
-5.31217e-07
-3.45579e-07
4.43461e-07
-3.07465e-07
-3.44121e-07
-5.31499e-07
-8.45019e-08
4.9366e-08
-6.99584e-08
7.15419e-08
-5.10622e-08
1.55124e-07
-1.01864e-07
-5.326e-08
4.10956e-07
-3.96395e-07
-3.3831e-07
3.26844e-07
1.14659e-08
1.98837e-07
-1.98837e-07
-7.25629e-10
4.11682e-07
1.31937e-07
6.68997e-08
7.30986e-07
-4.5545e-08
-6.85441e-07
-2.08603e-07
1.86993e-07
6.06856e-07
-5.72858e-07
-3.39982e-08
-2.53941e-07
2.51066e-07
-8.73233e-08
4.10262e-07
1.95996e-07
1.0247e-07
3.72024e-07
-3.07753e-07
-6.4271e-08
4.16573e-08
3.30457e-07
3.55206e-07
-6.85663e-07
-1.58521e-07
-1.79789e-07
2.79481e-07
-2.04773e-07
-7.47082e-08
2.43961e-07
-7.13353e-08
-2.2639e-07
2.10969e-07
1.54209e-08
1.37533e-07
-1.37533e-07
-2.41866e-08
-3.30154e-07
5.37586e-08
1.01365e-07
7.61756e-08
-3.05242e-07
4.40229e-08
1.85043e-07
-6.80386e-09
-1.58289e-07
2.82861e-08
-3.4301e-07
6.00505e-08
-1.22196e-08
8.65905e-08
-7.43708e-08
1.21326e-07
-3.58898e-08
1.29906e-07
-9.40163e-08
2.90138e-08
-3.54513e-07
4.67597e-08
-7.29462e-07
6.95518e-07
3.39445e-08
5.06899e-07
2.24087e-07
3.33786e-07
4.6317e-08
-3.80103e-07
9.32414e-08
5.36148e-07
-2.13135e-07
1.77245e-07
4.49709e-07
3.73596e-10
2.44525e-07
2.54783e-08
-2.70004e-07
-4.17159e-07
4.16433e-07
4.84827e-07
-1.57982e-07
2.00622e-07
-1.89156e-07
1.96602e-07
-2.49416e-07
5.28139e-08
-7.91536e-08
-3.63847e-07
-3.43178e-08
3.68104e-07
-1.85447e-07
1.73227e-07
-1.26068e-08
2.15257e-07
-1.2619e-09
-2.13995e-07
3.90539e-08
-4.56213e-07
-2.86628e-07
2.48537e-07
-2.00165e-07
4.00787e-07
3.93184e-09
1.83061e-07
1.14145e-07
-4.19878e-07
-6.16018e-08
-2.16949e-07
2.78551e-07
2.59457e-07
7.10001e-08
3.43691e-07
1.15148e-08
-7.92524e-08
-7.92684e-08
-2.2148e-07
4.16905e-08
-1.78764e-07
-9.60339e-08
-1.30356e-07
-1.41764e-07
4.15857e-07
2.44525e-07
7.86422e-07
-7.81364e-07
-5.05835e-09
3.86558e-07
7.68402e-08
-7.86334e-08
6.60266e-08
4.10315e-08
-4.01679e-07
3.60648e-07
-6.60266e-08
6.99584e-08
1.30722e-07
1.8428e-09
-1.32565e-07
5.70724e-08
1.04182e-07
-1.08519e-07
-7.75853e-08
-8.07034e-08
4.9366e-08
-1.89006e-07
1.09945e-07
1.89006e-07
-2.23963e-07
3.49574e-08
7.15419e-08
3.71104e-07
-4.03876e-07
-3.71104e-07
3.33101e-07
3.80031e-08
4.03876e-07
-1.49255e-07
-4.53893e-07
5.45165e-07
4.53893e-07
-1.94436e-07
-3.33101e-07
2.85565e-07
-7.33847e-08
-5.86777e-09
1.49255e-07
1.94436e-07
-2.27348e-07
5.86777e-09
2.27348e-07
-5.72927e-07
-5.45165e-07
5.72927e-07
-2.77619e-08
-2.85565e-07
2.23963e-07
6.07658e-07
4.20715e-08
-1.19657e-07
3.07185e-07
9.26161e-09
8.26162e-08
2.30671e-08
-2.2784e-07
6.05308e-08
1.50438e-07
6.74245e-08
-2.61546e-07
1.94121e-07
-2.43557e-07
-4.85905e-07
4.52013e-08
2.61983e-07
4.02303e-07
-4.36852e-07
3.45493e-08
5.99173e-07
-5.73694e-07
-1.80838e-07
2.00677e-07
-1.98383e-08
-5.78015e-07
-7.83347e-10
1.3853e-08
-2.68834e-07
-2.84335e-07
-7.01774e-08
-7.50233e-09
6.00596e-08
-5.25573e-08
-8.26909e-07
2.72778e-07
-3.56249e-07
7.19138e-08
2.53405e-07
-2.39552e-07
-4.87087e-07
1.78784e-07
3.15395e-07
2.12748e-08
-3.3667e-07
3.77247e-07
2.50552e-08
-5.15519e-08
-6.80679e-07
7.32231e-07
7.86542e-08
1.36603e-07
3.2959e-07
-8.10531e-08
1.36319e-07
-4.87977e-07
-4.60217e-07
4.85152e-07
5.1454e-08
-3.78767e-08
1.09849e-07
5.85669e-07
-3.73408e-07
2.75637e-07
9.77702e-08
8.43826e-09
-2.57855e-07
-1.52813e-07
-2.20594e-07
5.22006e-07
-3.71787e-08
-4.24019e-07
3.10591e-07
1.13428e-07
-1.87687e-07
6.84868e-09
-1.18049e-07
9.65034e-08
2.63813e-07
-1.48381e-07
-2.78782e-07
2.03942e-07
-2.24125e-07
-5.10606e-07
7.3473e-07
-4.05011e-07
1.40566e-08
3.90955e-07
5.29571e-07
-7.73128e-07
4.39823e-07
-1.29232e-07
8.0778e-07
-8.20342e-07
1.25617e-08
3.41111e-07
9.87127e-08
-2.88627e-07
2.50751e-07
6.29168e-08
1.28431e-07
-1.85747e-08
-3.86436e-07
5.18275e-07
-1.7758e-07
3.93026e-07
-3.72862e-07
-2.01641e-08
-4.15058e-07
-8.30349e-08
-6.21293e-09
6.21293e-09
-7.86334e-08
2.06953e-07
3.11323e-07
-9.74297e-08
7.8855e-08
2.75453e-07
1.19681e-07
3.27169e-07
-1.37702e-07
-6.62365e-07
6.76422e-07
5.08595e-08
6.5892e-09
-2.39353e-07
4.46306e-07
-2.07379e-07
4.13539e-07
-2.0616e-07
-7.97606e-07
7.63608e-07
-5.53582e-08
-2.13036e-07
4.89001e-07
-2.75965e-07
-2.52883e-07
7.82455e-07
7.9031e-07
-6.21603e-07
-1.68708e-07
-3.73902e-07
1.04037e-09
-3.42968e-07
-3.09342e-08
-3.30059e-07
4.8252e-07
-1.52461e-07
3.01598e-07
-5.14634e-07
-1.05633e-07
4.46744e-07
4.62987e-07
-2.45577e-07
-2.1741e-07
7.54805e-08
-7.54805e-08
2.92952e-07
-2.92952e-07
8.2248e-09
-8.05831e-07
-3.51087e-07
4.74619e-07
-1.23531e-07
1.52536e-08
7.68967e-08
-9.21503e-08
8.89633e-08
1.14979e-07
-6.6388e-07
1.5149e-09
2.36938e-07
-2.36938e-07
-6.96675e-08
6.96675e-08
1.58942e-07
2.05022e-07
-4.44375e-07
7.45706e-07
4.46043e-08
1.31432e-07
7.81704e-08
-3.6036e-07
1.73928e-08
-2.83464e-07
1.19641e-07
2.09949e-07
-1.0457e-07
-3.73904e-07
4.78474e-07
3.07769e-07
-2.09999e-07
-2.47647e-07
3.61075e-07
-7.55224e-08
-3.70049e-07
-9.30619e-08
4.63111e-07
1.87022e-07
4.72362e-08
8.16005e-07
-2.25269e-07
5.52438e-07
-1.27382e-08
-8.07603e-07
-2.86366e-07
3.85079e-07
2.00729e-07
-4.79537e-07
7.14575e-08
3.75286e-07
-3.13123e-07
-2.9733e-07
6.10453e-07
6.01216e-08
-4.82329e-07
3.29868e-07
2.88765e-07
-6.01888e-07
-7.93086e-07
-3.04026e-07
3.75483e-07
-4.17646e-07
3.24584e-07
5.32751e-08
4.01445e-07
-4.54721e-07
2.17395e-07
3.79778e-07
8.33332e-08
5.11558e-07
-1.3178e-07
-7.8972e-07
8.25693e-07
-3.59727e-08
1.74942e-07
-2.4176e-08
7.87784e-07
-6.57291e-07
-4.84252e-07
7.73017e-07
-3.81438e-07
-1.25003e-08
3.93938e-07
-6.40065e-07
6.52627e-07
-1.69616e-09
5.10622e-08
1.33765e-07
-1.63068e-08
1.46079e-07
-1.47775e-07
-3.72956e-07
-8.48169e-09
3.38781e-07
-6.4968e-07
3.10899e-07
-9.29947e-07
1.03039e-07
-3.02408e-08
4.03951e-07
-3.7371e-07
-4.52927e-07
4.22686e-07
3.41267e-07
3.42168e-08
3.94542e-07
5.31516e-07
-1.92736e-07
-9.18795e-08
2.66822e-07
-8.3619e-07
3.51938e-07
4.59997e-09
3.35473e-07
-3.40073e-07
-2.84687e-07
2.72186e-07
-4.78801e-07
6.13756e-07
-1.34956e-07
2.78414e-07
-9.34439e-07
6.56026e-07
-6.51534e-07
-3.28741e-07
-6.05699e-07
-7.59449e-07
8.62488e-07
7.09697e-07
-4.36297e-07
-2.73399e-07
3.09947e-08
-9.29251e-07
2.87743e-07
6.41508e-07
-6.49313e-07
6.7443e-07
-2.5117e-08
2.78989e-07
4.30708e-07
3.9904e-07
7.94342e-08
-4.93448e-07
5.75673e-07
-8.22251e-08
1.47932e-07
-1.47932e-07
-3.05242e-07
-2.70004e-07
-9.79275e-08
8.34825e-09
-8.34825e-09
-1.12421e-07
1.12421e-07
1.04182e-07
4.21378e-07
-4.28552e-07
7.17368e-09
-3.95338e-07
3.95338e-07
-7.70202e-08
7.70202e-08
1.31937e-07
-2.25412e-07
2.25412e-07
-1.37237e-07
1.37237e-07
4.40229e-08
3.06032e-07
-3.06032e-07
6.08252e-08
-1.08519e-07
7.61519e-08
-1.68031e-07
3.70276e-07
1.86409e-07
-5.56686e-07
2.73214e-07
-2.73214e-07
4.20894e-07
-4.16294e-07
-4.5247e-07
4.45387e-07
1.20011e-07
-1.20011e-07
-4.4656e-07
-2.0312e-07
4.32745e-07
-4.81742e-07
4.89971e-08
-4.33055e-08
-4.32565e-07
4.75871e-07
-3.59733e-07
-5.69518e-07
-4.42373e-07
3.99068e-07
-6.70319e-07
2.2376e-07
-2.26053e-08
-6.26708e-07
5.69116e-07
-7.09562e-07
1.40446e-07
9.03151e-08
7.33847e-08
7.19476e-07
-4.40488e-07
1.96176e-07
-1.02471e-07
-9.3705e-08
-4.37385e-08
5.80004e-07
-5.5439e-07
-2.56145e-08
-9.91133e-07
2.31683e-07
4.10636e-07
-8.69456e-07
2.17075e-07
6.52381e-07
-3.10917e-08
-5.14816e-08
3.66603e-07
-1.01814e-06
5.65217e-07
-8.93958e-07
-7.65726e-09
7.4435e-07
-7.50195e-07
5.84526e-09
-1.65086e-07
-5.44475e-07
-3.67346e-07
-7.50273e-08
-7.41569e-07
3.05272e-07
1.64507e-08
1.77762e-07
-6.0378e-07
4.26018e-07
2.52265e-07
-5.60887e-08
9.04221e-07
-6.16478e-07
3.50136e-07
1.57936e-07
-5.08071e-07
-2.3772e-07
6.96551e-07
-4.5883e-07
2.98153e-08
9.14805e-07
-2.40375e-07
-4.03016e-07
-3.16597e-07
7.19612e-07
2.24049e-07
-5.50591e-07
3.26542e-07
6.50686e-07
-7.50129e-08
1.04661e-07
-2.07131e-07
1.17183e-07
5.09187e-07
-6.37996e-08
-6.0847e-07
5.82855e-07
-6.2453e-07
-6.37772e-07
4.60707e-07
-4.30891e-07
-4.5292e-07
-1.49609e-07
5.55072e-07
4.33379e-07
-6.71099e-07
-5.24494e-07
1.54026e-07
4.25459e-07
8.08703e-08
-7.48597e-07
6.67727e-07
-7.73396e-08
4.90221e-07
-4.12882e-07
6.421e-07
-4.18051e-07
4.4664e-07
-4.77732e-07
2.93535e-07
-2.00456e-07
6.2808e-07
-4.68617e-07
6.92377e-07
-8.14107e-09
-2.98508e-07
4.65448e-07
5.57121e-07
-8.73718e-07
-4.41681e-07
5.99617e-07
-9.95983e-07
3.79505e-07
-8.16335e-07
5.7596e-07
4.37163e-07
2.35432e-08
4.53614e-07
-4.45829e-07
-1.07768e-07
5.53597e-07
-3.50508e-07
6.61407e-07
-5.09629e-07
-3.82454e-07
-1.25617e-07
-5.77364e-07
5.02351e-07
3.4812e-07
2.97671e-08
-4.62332e-07
-1.88254e-07
-4.40911e-07
1.14238e-07
-4.08911e-08
7.11437e-07
2.25189e-07
-9.36626e-07
6.36056e-07
-5.55186e-07
5.76416e-07
-2.82881e-07
8.65463e-07
5.23408e-07
1.96205e-07
9.52527e-09
1.09928e-07
-1.19454e-07
-9.31285e-07
4.78366e-07
6.29887e-08
-1.11916e-07
3.88969e-07
-8.15098e-07
1.77325e-07
-1.84171e-08
6.86144e-07
4.4623e-07
-2.10412e-08
4.47059e-07
-3.52739e-07
1.20285e-07
2.32454e-07
4.47965e-07
-4.55622e-07
2.40969e-07
-5.39477e-07
-2.30213e-07
3.63667e-08
1.93847e-07
-3.13658e-08
-3.7378e-07
3.41869e-07
5.61298e-07
4.8765e-07
-3.43965e-07
-2.00789e-09
-8.47046e-07
6.97437e-07
-9.10192e-07
2.85663e-07
2.11412e-07
-1.32811e-07
-2.39534e-07
5.1665e-07
-2.77115e-07
2.65922e-08
-2.33848e-07
-6.23905e-07
2.61452e-07
3.62453e-07
-4.31827e-07
5.29435e-07
-6.58659e-07
1.29224e-07
-8.8125e-07
4.40339e-07
2.85233e-07
3.76173e-07
-4.65913e-07
6.83917e-07
-1.81566e-07
3.6516e-07
-4.21249e-07
-3.0529e-07
2.91982e-07
4.82373e-07
5.77215e-07
-6.98812e-07
1.74317e-07
-2.47732e-07
4.95662e-07
6.55992e-07
-3.14123e-07
-5.21487e-07
-2.95183e-07
5.56635e-07
-5.38637e-07
3.47224e-07
1.91413e-07
-2.47175e-07
4.79628e-07
-1.76184e-07
-4.15479e-07
4.08261e-07
1.51414e-07
4.3574e-07
-4.37748e-07
-3.2532e-07
3.61686e-07
2.82032e-07
1.0967e-07
-4.9558e-07
3.8591e-07
3.72326e-07
-2.67665e-07
-3.79413e-07
8.20831e-08
4.89228e-08
-5.70409e-07
3.5032e-07
1.3733e-07
-2.76751e-07
-1.78948e-07
4.55698e-07
2.16994e-07
-5.60959e-07
8.84632e-07
-2.55747e-07
5.3778e-07
-7.2475e-08
-4.84211e-07
2.60902e-07
-2.09785e-07
5.57009e-07
-6.17869e-07
5.45394e-07
-3.74541e-07
-3.08339e-07
1.0604e-07
-3.82791e-07
-5.79342e-07
-7.40166e-07
1.63239e-07
-5.23171e-07
7.5702e-07
-7.08758e-08
-1.54309e-07
5.62569e-07
-4.08981e-07
2.95687e-08
-4.41185e-07
3.86386e-07
-6.22673e-07
-2.34678e-07
-2.85521e-07
3.67604e-07
1.36283e-07
8.1112e-08
-5.10089e-07
-1.0778e-07
-8.05824e-07
1.1295e-07
2.97312e-07
3.4685e-07
-4.56063e-07
2.08314e-08
3.57047e-07
-2.51006e-07
4.41322e-08
2.21021e-07
1.18944e-07
1.16435e-07
-2.35379e-07
1.63076e-07
-1.87961e-07
-7.36015e-08
6.28557e-07
-5.54956e-07
1.69086e-07
8.12381e-07
3.62367e-09
-3.57065e-07
7.18733e-08
2.89813e-07
7.88205e-07
4.58259e-07
4.41746e-07
-3.48105e-07
1.93989e-07
1.73615e-07
-8.01719e-07
-5.88467e-09
-1.52844e-07
2.33956e-07
1.42375e-09
-2.5243e-07
5.85685e-08
-8.06111e-07
4.39229e-09
1.91033e-07
2.22506e-07
4.66777e-07
-2.79755e-07
6.53667e-07
-6.0405e-08
-6.15361e-07
7.84667e-07
-7.80275e-07
2.11572e-08
-3.3504e-07
3.69203e-07
-3.41634e-08
-6.39275e-07
-8.02633e-08
2.08784e-07
2.28016e-07
-4.77337e-07
-3.18395e-07
-3.88772e-08
-3.28108e-07
3.96055e-07
-2.79319e-07
2.65467e-07
2.09733e-07
-2.53657e-08
-5.73534e-08
4.96336e-08
4.65451e-08
1.71976e-07
1.88024e-07
9.96783e-08
6.29433e-08
-2.9725e-07
2.38979e-07
5.82715e-08
-6.8036e-07
-2.2994e-07
4.32568e-07
-2.31839e-07
1.295e-07
1.153e-07
1.0496e-07
4.11131e-08
-6.39684e-07
-2.85142e-07
1.36728e-07
1.08072e-07
-2.32306e-07
-2.01238e-08
1.64216e-07
-1.73738e-07
-3.53474e-07
9.23656e-09
2.61373e-07
-7.60623e-07
-7.7198e-09
1.46223e-07
-2.49674e-07
-4.75766e-08
5.71785e-07
-4.56252e-09
-3.97117e-07
-5.00909e-07
4.42818e-07
3.01476e-07
1.67903e-07
6.56466e-08
-8.69624e-07
-1.37859e-07
-7.59775e-07
9.95726e-08
-1.87813e-08
-8.30827e-08
2.62456e-08
-1.54112e-07
-2.27685e-07
-1.13614e-07
-8.52226e-08
-9.36366e-08
1.59283e-07
7.66783e-08
-3.19287e-07
-9.83592e-08
-2.89349e-07
2.64822e-07
-2.08614e-08
-1.84327e-07
-3.88247e-07
1.67652e-07
-8.30917e-08
-3.34735e-07
6.28977e-07
-2.94242e-07
-7.48604e-08
-2.3613e-07
9.14069e-08
-3.10188e-08
-3.61245e-07
-2.80692e-07
-7.48604e-08
-2.24031e-07
2.20927e-07
-2.1169e-07
3.47029e-08
-1.87611e-07
7.25806e-07
-7.30865e-07
4.02152e-07
3.90336e-08
-3.06699e-07
7.53524e-07
1.95459e-07
-4.03203e-07
2.13942e-07
1.8926e-07
-1.72389e-07
-2.21621e-07
-2.15179e-07
-4.56736e-07
-1.67718e-07
-1.42239e-07
-1.11702e-07
9.25265e-07
3.56673e-07
-2.11999e-08
3.36572e-07
-4.36199e-08
5.01682e-07
-2.78595e-07
7.09294e-08
4.55109e-09
2.78595e-07
-7.09294e-08
2.38854e-07
3.36572e-07
2.05521e-07
-4.59395e-07
-1.67313e-07
7.72903e-07
-7.28299e-07
3.35467e-07
-3.67147e-07
-2.81909e-08
3.4495e-07
-7.17365e-08
1.38254e-07
-2.96804e-07
-2.77748e-07
7.74397e-09
-3.67147e-07
1.48835e-07
-1.57183e-07
-1.23401e-07
1.09797e-08
3.43786e-07
-6.76738e-08
-9.34641e-09
-1.38254e-07
-8.71579e-08
2.96804e-07
-7.13915e-08
2.77748e-07
2.8284e-08
-3.43786e-07
3.77544e-08
6.76738e-08
-1.48835e-07
3.4495e-07
-1.23401e-07
-7.62041e-08
-4.15245e-07
-6.21362e-07
-5.8192e-07
7.33334e-07
1.18225e-07
7.72344e-08
1.30877e-07
1.14139e-07
-7.37191e-09
7.17551e-07
-1.64804e-07
5.15181e-08
-5.81066e-07
1.14139e-07
3.87426e-07
-1.9469e-07
-3.5171e-07
3.89713e-07
3.93321e-07
1.15962e-07
-3.54101e-09
-1.15962e-07
-1.9133e-07
2.11116e-07
-1.97858e-08
-5.74081e-07
2.97063e-07
1.84131e-07
-3.50995e-07
3.92726e-07
1.31624e-07
-7.84005e-07
1.05762e-07
8.80848e-08
1.19943e-09
-1.45431e-07
2.43742e-07
2.83187e-08
-2.13766e-07
3.62841e-07
-2.72388e-07
-3.70516e-07
3.70516e-07
-3.59657e-07
-2.56368e-07
-2.83237e-07
2.43742e-07
2.46306e-07
-2.94149e-08
2.83037e-07
-1.72722e-07
-5.07957e-07
2.87067e-07
-4.83272e-07
5.65304e-07
-5.71149e-07
6.17595e-08
-6.17595e-08
-1.61865e-07
-2.28197e-07
-5.23878e-08
5.23878e-08
-1.25684e-08
1.25684e-08
-2.47003e-07
3.88122e-08
4.19695e-08
1.72469e-07
5.34577e-09
-1.77815e-07
3.36896e-07
-3.36896e-07
8.65905e-08
3.00302e-07
4.31929e-07
6.00596e-08
-5.29525e-07
-1.83459e-07
-7.4396e-08
-2.5485e-07
-3.34148e-07
-6.38635e-07
6.69574e-08
2.71009e-09
-1.5499e-07
-5.90059e-08
8.62596e-09
-7.99612e-08
-6.82442e-08
7.68702e-08
-7.37944e-07
-2.26795e-08
-1.75055e-07
-1.6191e-07
-6.52239e-07
7.03197e-08
-1.13614e-07
-2.93455e-07
1.99438e-07
5.55768e-08
-1.46715e-07
-8.96603e-08
8.96603e-08
2.21039e-08
2.50082e-07
-5.73322e-07
-7.43708e-08
2.42213e-08
-2.42213e-08
-6.72382e-07
1.73668e-07
1.97631e-10
-7.91743e-09
-5.4162e-07
2.81068e-07
1.30295e-07
-4.11363e-07
-1.7258e-07
8.96187e-08
8.29617e-08
-5.25573e-08
-4.60588e-09
1.69342e-07
-1.69145e-07
6.37632e-08
-4.6753e-08
4.6753e-08
1.14643e-07
3.44368e-07
1.77638e-07
2.43353e-07
-2.64553e-07
1.81988e-07
-4.07343e-07
4.4447e-08
-5.79372e-08
5.99198e-07
-3.1813e-07
4.37509e-07
1.97828e-07
5.29223e-08
7.90299e-09
-1.75621e-07
-3.00381e-08
8.82862e-08
-3.20138e-07
9.2453e-08
-6.69574e-08
2.72963e-07
-3.34208e-08
2.7117e-07
5.11947e-08
2.21768e-07
5.20323e-08
2.19138e-07
2.67704e-07
3.50234e-07
3.63609e-07
3.63982e-07
3.47833e-07
3.5073e-08
-3.03907e-07
2.51875e-07
1.95331e-07
1.68277e-07
1.29186e-07
-5.03307e-08
1.64763e-07
2.45159e-07
-2.24328e-07
3.18898e-07
-2.64941e-09
-3.59659e-08
-3.99591e-08
2.25373e-07
1.39313e-07
-2.11636e-07
2.88477e-07
5.03534e-09
-2.44166e-07
2.04136e-08
5.40003e-07
-4.69683e-07
5.68287e-07
-4.85443e-07
1.52519e-07
2.59207e-07
-1.47416e-07
-6.1929e-07
3.63079e-08
1.41075e-07
1.18443e-07
3.36205e-08
8.03688e-08
2.18227e-07
9.00871e-08
-3.01653e-08
-1.8109e-07
2.73543e-07
5.80431e-09
-5.23955e-09
)
;

boundaryField
{
    back
    {
        type            empty;
        value           nonuniform List<scalar> 0();
    }
    front
    {
        type            empty;
        value           nonuniform List<scalar> 0();
    }
    top
    {
        type            calculated;
        value           nonuniform List<scalar> 10(-4.368e-07 -4.752e-07 -3.6e-07 -2.448e-07 -2.448e-07 -3.6e-07 -4.368e-07 -9.12e-08 -9.12e-08 -4.752e-07);
    }
    outer_arc
    {
        type            calculated;
        value           uniform 0;
    }
    bottom
    {
        type            calculated;
        value           nonuniform List<scalar> 10(7.19538e-07 3.66985e-07 8.27191e-08 -9.61787e-08 -1.62622e-07 9.103e-07 -1.46073e-07 9.24825e-07 -5.45379e-08 6.71044e-07);
    }
    inner_arc
    {
        type            calculated;
        value           uniform 0;
    }
}


// ************************************************************************* //
