/*--------------------------------*- C++ -*----------------------------------*\
  =========                 |
  \\      /  F ield         | OpenFOAM: The Open Source CFD Toolbox
   \\    /   O peration     | Website:  https://openfoam.org
    \\  /    A nd           | Version:  9
     \\/     M anipulation  |
\*---------------------------------------------------------------------------*/
FoamFile
{
    format      ascii;
    class       surfaceScalarField;
    location    "1.54";
    object      phi;
}
// * * * * * * * * * * * * * * * * * * * * * * * * * * * * * * * * * * * * * //

dimensions      [0 3 -1 0 0 0 0];

internalField   nonuniform List<scalar> 
1363
(
-2.26888e-07
-3.46816e-07
5.73705e-07
-1.67517e-07
2.61157e-07
-9.36398e-08
1.0143e-06
-6.8886e-07
-3.25438e-07
-1.09118e-07
3.45233e-07
-2.36115e-07
8.77731e-07
1.36567e-07
5.01881e-07
-6.36634e-08
-4.38217e-07
-3.25459e-07
3.25459e-07
2.37317e-07
2.64564e-07
-2.45077e-07
2.73645e-07
-2.85682e-08
1.05149e-08
-2.55592e-07
-3.29679e-07
2.9844e-07
3.12388e-08
4.47935e-07
-5.36734e-07
8.87986e-08
2.92173e-07
-4.0129e-07
-4.06965e-07
3.7892e-07
2.80456e-08
1.48803e-07
2.99132e-07
-2.08718e-07
4.12012e-08
8.50712e-08
-3.91412e-07
3.06341e-07
-2.15679e-07
-1.12093e-08
5.23214e-07
1.39871e-07
-6.63085e-07
-1.03619e-07
1.03619e-07
1.21631e-07
-3.65599e-08
-1.7871e-07
-3.58024e-07
8.02369e-07
-3.96951e-07
-4.05418e-07
-6.94723e-08
6.00103e-07
-5.3063e-07
-1.86916e-07
-1.42762e-07
3.94539e-07
-4.64012e-07
8.05567e-07
-7.2385e-07
-8.17163e-08
3.08174e-07
4.94195e-07
-5.72272e-07
6.72398e-07
-1.00127e-07
-1.56528e-07
-1.12502e-07
2.6903e-07
-1.65662e-07
6.44303e-08
1.01232e-07
2.27723e-08
7.82794e-07
6.78112e-08
-6.40083e-07
-7.24535e-07
1.11171e-07
6.13364e-07
7.12269e-07
-6.0456e-07
-1.0771e-07
-3.00629e-07
-7.15111e-07
1.01574e-06
1.75371e-07
-2.84984e-07
1.09613e-07
2.33717e-07
-3.39234e-08
-1.99793e-07
-1.40798e-07
3.16169e-07
5.54698e-08
5.44633e-07
6.3367e-07
-6.3814e-07
4.46982e-09
9.73438e-07
-2.97753e-07
-6.75685e-07
-4.82978e-07
5.38448e-07
-1.61249e-07
-1.6421e-07
1.80092e-07
1.45367e-07
5.54953e-07
-2.27951e-09
-5.52674e-07
-6.40605e-07
7.37141e-08
5.66891e-07
-1.39832e-08
-7.10552e-07
-4.44724e-08
6.78142e-07
-1.79508e-07
-2.27457e-07
5.74341e-07
-5.11267e-08
-3.95274e-07
-1.67743e-09
-1.06058e-06
7.59952e-07
6.79686e-07
-2.69977e-07
-4.09709e-07
3.34775e-07
-3.2426e-07
1.80501e-07
-2.98033e-07
1.17532e-07
-2.4454e-07
2.4454e-07
-4.13417e-09
3.38909e-07
-1.96091e-07
-4.84489e-08
4.33246e-08
2.85317e-07
-3.28641e-07
-1.86948e-07
3.04199e-08
8.01118e-07
-6.80229e-07
-1.20889e-07
-1.14873e-07
2.26045e-07
-6.18444e-07
2.71628e-07
2.08877e-07
2.48395e-08
1.41957e-07
-2.46033e-08
-1.17353e-07
7.72677e-08
6.97323e-07
-6.14908e-07
-8.24144e-08
9.11776e-07
-7.31275e-07
6.27008e-07
-3.03514e-07
-3.23494e-07
1.65743e-07
9.54136e-08
-1.74739e-07
1.95713e-07
-2.09746e-08
-1.90818e-07
1.90818e-07
8.67282e-08
-1.9923e-07
5.55344e-07
1.24342e-07
2.75486e-08
-1.31168e-07
6.6761e-08
3.68584e-08
3.20398e-08
-2.33594e-07
6.79324e-08
-1.2773e-07
-8.09883e-08
3.94372e-08
7.87383e-08
-1.18175e-07
4.5897e-07
-2.08392e-07
2.54964e-08
1.82895e-07
1.4227e-08
1.67062e-08
-4.13095e-08
-9.77251e-07
9.38825e-07
3.84261e-08
-8.79356e-08
1.3126e-07
1.66146e-08
4.8967e-08
-6.55816e-08
8.96065e-08
2.89313e-07
-1.42758e-07
-6.56337e-08
2.76098e-07
6.9734e-07
2.84634e-07
-4.85825e-08
-2.36052e-07
-3.37709e-07
3.33575e-07
-2.15665e-07
-8.23677e-08
-2.53347e-07
3.7088e-07
-1.97107e-07
1.37075e-07
6.0032e-08
4.40525e-07
-7.38278e-07
4.19218e-08
-2.53072e-08
-3.10013e-07
3.4945e-07
2.19291e-08
2.07047e-07
-1.23615e-09
-2.05811e-07
3.36868e-08
-3.71396e-07
-6.62643e-08
4.65759e-07
-3.73046e-07
1.19699e-07
-1.91413e-07
2.21833e-07
-3.52446e-09
5.58478e-07
-4.59854e-08
6.73212e-07
-6.27227e-07
6.5821e-08
6.31502e-07
4.56641e-08
-6.60573e-07
1.12091e-07
7.99685e-07
6.03609e-08
-7.91636e-07
-1.7035e-07
-5.1433e-08
-1.23306e-07
5.3909e-08
2.44531e-07
2.84634e-07
8.98428e-08
-3.21869e-07
2.32027e-07
3.26109e-07
1.91238e-08
-1.71161e-07
1.93091e-07
1.45059e-07
-6.9519e-07
5.50131e-07
-1.93091e-07
1.67743e-09
-8.98193e-07
6.23472e-08
8.35846e-07
-4.82978e-07
-1.49617e-07
2.05045e-07
-1.89231e-07
-4.43638e-08
-3.95274e-07
6.06259e-07
-5.38448e-07
-6.06259e-07
4.0737e-07
1.98889e-07
-1.06058e-06
-3.68456e-07
5.08327e-07
3.68456e-07
-3.59105e-07
-9.35117e-09
-5.08327e-07
5.82041e-07
-6.93526e-07
6.79543e-07
6.93526e-07
-6.27705e-07
3.59105e-07
-3.61385e-07
9.98234e-07
-8.86143e-07
-5.82041e-07
6.27705e-07
-8.25782e-07
8.86143e-07
8.25782e-07
-8.70254e-07
-6.79543e-07
8.70254e-07
-1.90711e-07
3.61385e-07
-4.0737e-07
-8.05072e-08
1.19618e-07
-3.08849e-07
2.69328e-07
-3.2011e-08
-9.54497e-08
1.38416e-07
-4.4193e-07
9.65696e-08
9.91438e-08
1.2117e-07
4.83659e-07
-6.04829e-07
-3.13159e-07
-6.64092e-07
1.91937e-07
7.73906e-08
1.71321e-07
-5.63678e-07
3.92357e-07
5.3132e-07
-5.79903e-07
-4.82193e-07
5.22676e-07
-4.04827e-08
-6.66808e-07
6.22488e-08
-6.22395e-07
4.81597e-07
-1.5649e-08
3.23552e-08
2.726e-08
8.52434e-09
-3.57844e-08
-3.65527e-08
-1.69559e-07
-4.53469e-08
2.96979e-08
-8.93713e-07
2.71318e-07
-3.92834e-07
1.5672e-07
6.51062e-08
-3.38693e-08
-3.12369e-08
4.01528e-07
-2.30207e-07
2.17912e-08
-4.08068e-07
3.86277e-07
5.96024e-08
1.47445e-07
8.17042e-07
-3.51283e-07
1.20539e-07
-9.36818e-08
-7.90504e-08
-1.13494e-07
-9.85083e-08
5.30007e-07
1.48998e-07
7.89827e-07
-5.2623e-07
2.19872e-07
3.06357e-07
-2.52162e-09
1.39597e-07
-3.35877e-07
-1.90352e-07
6.801e-08
-2.83675e-07
-7.06462e-07
2.6519e-07
4.41271e-07
-4.90463e-07
8.26991e-09
3.65175e-07
3.07223e-07
-1.63814e-07
-4.86589e-07
-1.28951e-07
3.6352e-07
-2.32548e-07
-6.43115e-08
2.9686e-07
-6.27148e-07
1.5422e-07
4.72928e-07
6.37204e-07
-9.50363e-07
8.98681e-07
-6.33491e-07
9.35394e-07
-7.30456e-07
-2.04938e-07
4.03986e-07
4.94695e-07
3.49415e-07
1.80592e-07
1.0026e-07
9.71555e-10
-1.73331e-07
-4.53817e-07
4.12249e-07
-1.20076e-07
6.26464e-07
-4.54693e-07
-1.71771e-07
-4.22653e-07
-2.15487e-07
4.58264e-07
-4.58264e-07
-1.71161e-07
2.40463e-07
1.71786e-07
-1.94629e-07
2.12985e-08
-2.70874e-07
-1.74189e-07
-1.95861e-07
2.72371e-07
-7.37736e-07
8.91956e-07
-2.47134e-08
1.72647e-07
-1.48178e-07
3.88641e-07
-2.22212e-07
4.01362e-07
-1.7915e-07
-9.3195e-07
8.11061e-07
-7.50113e-08
-5.34732e-07
5.16913e-07
1.78189e-08
-3.28385e-07
9.65589e-07
8.68258e-07
-5.21256e-07
-3.47002e-07
-6.48624e-07
1.93931e-07
-4.8122e-07
-1.67404e-07
1.37448e-07
6.47173e-07
-7.84621e-07
-1.69567e-07
-3.65164e-07
-6.64772e-07
1.06876e-06
4.2681e-07
-8.03476e-08
-3.46462e-07
-1.24503e-08
1.24503e-08
4.78963e-07
-4.78963e-07
-1.52676e-07
-7.79274e-07
1.67279e-07
7.52175e-07
-9.19455e-07
2.45994e-07
1.94284e-07
-4.40278e-07
-4.22177e-09
3.67742e-07
-8.6569e-07
1.27955e-07
3.78923e-07
-3.78923e-07
5.31891e-08
-5.31891e-08
6.54361e-07
2.2508e-07
-3.73258e-07
6.24414e-07
2.43844e-07
8.14452e-07
3.46254e-07
-7.03659e-07
2.22439e-07
-5.09375e-07
3.45096e-07
4.71946e-07
-7.8425e-07
-2.5446e-07
1.03871e-06
5.5041e-07
-2.44052e-07
-3.04532e-07
7.45804e-07
-2.46783e-07
3.20741e-08
-7.78263e-07
7.46189e-07
4.44629e-07
1.7885e-07
7.82718e-07
-4.21868e-08
-1.53674e-07
1.96603e-07
-9.27059e-07
-4.2231e-07
9.17005e-07
3.08293e-07
-9.19232e-07
4.15059e-07
6.53699e-07
-5.44446e-07
-3.92897e-07
9.37342e-07
2.45877e-07
-4.04137e-07
-3.80484e-07
3.90038e-07
-9.34484e-07
-8.86983e-07
-5.65722e-07
9.80781e-07
-3.91808e-07
-3.86455e-07
2.31865e-07
9.38572e-07
-1.17044e-06
-3.25021e-09
2.07466e-07
5.38723e-07
7.0971e-07
-5.02244e-07
-9.46594e-07
9.24871e-07
2.1723e-08
-3.77169e-08
-1.36356e-07
9.47417e-07
-6.93043e-07
-4.28056e-07
8.18094e-07
-8.1831e-07
-3.03453e-07
1.12176e-06
-8.76328e-07
6.71389e-07
3.64678e-07
-7.59952e-07
-8.80866e-07
1.65755e-07
-6.05686e-07
9.70364e-07
-1.10839e-06
2.90081e-07
6.75623e-07
-4.31763e-07
-2.4386e-07
-6.16568e-07
5.80015e-07
3.80064e-08
1.00145e-06
-1.03946e-06
-1.14972e-06
1.18772e-06
8.13616e-07
1.67165e-07
1.04548e-06
4.69893e-07
2.0573e-07
1.40158e-07
-1.77875e-07
-8.17567e-07
3.8951e-07
-3.20711e-07
4.45561e-07
-1.2485e-07
-7.80561e-07
4.77108e-07
-6.077e-08
1.4463e-07
-8.386e-08
6.94343e-07
-6.18552e-07
-7.57908e-08
7.77752e-08
2.24871e-07
-8.43423e-07
-2.83409e-08
6.08356e-07
6.17411e-07
-9.29419e-08
-5.24469e-07
-1.06937e-07
-1.04521e-06
3.02217e-07
7.42995e-07
-9.1414e-07
3.98026e-07
5.16114e-07
8.82003e-08
5.29211e-07
5.21972e-07
5.16737e-07
-1.01151e-06
4.16931e-07
5.94578e-07
-2.13785e-07
2.13785e-07
-1.31168e-07
-2.36052e-07
-1.6421e-07
7.45048e-08
-7.45048e-08
1.10449e-07
-1.10449e-07
-1.49617e-07
4.81352e-07
-1.04607e-06
5.6472e-07
-7.18436e-08
7.18436e-08
-1.73713e-07
1.73713e-07
-1.96091e-07
-1.20408e-07
1.20408e-07
1.83519e-07
-1.83519e-07
6.6761e-08
1.25356e-07
-1.25356e-07
1.80092e-07
2.05045e-07
1.50715e-07
-1.05575e-08
3.86725e-07
4.79228e-07
-8.65952e-07
-1.5394e-08
1.5394e-08
4.88569e-07
-8.0928e-07
-1.18572e-06
5.10039e-07
3.34793e-08
-3.34793e-08
-5.28715e-07
9.69513e-08
5.48181e-07
-5.99474e-07
5.12931e-08
-4.95577e-07
-7.38122e-07
1.2337e-06
-6.38631e-07
-4.06582e-07
-1.07987e-06
5.84296e-07
-3.51085e-07
-1.7763e-07
-6.35397e-07
-2.78744e-07
-9.93284e-09
1.14931e-07
-1.04998e-07
-7.07028e-08
-9.98234e-07
3.39118e-07
-2.50918e-07
1.02569e-07
-5.58578e-07
4.56009e-07
-7.35411e-07
4.21787e-07
-2.92517e-07
-1.29271e-07
-8.02187e-07
7.73846e-07
2.41581e-07
-7.92059e-07
7.27007e-07
6.50522e-08
-7.04372e-07
-2.11145e-07
8.5934e-07
-7.81565e-07
9.31104e-07
-7.06233e-07
-5.57502e-07
9.49603e-07
-6.71221e-07
-2.78382e-07
-4.6601e-08
1.61532e-07
-6.46274e-07
-4.33599e-07
-8.11456e-07
7.18514e-07
-2.61099e-07
1.60516e-07
-8.64556e-07
7.0404e-07
8.05705e-07
-7.03136e-07
9.79375e-07
-6.77157e-07
3.2157e-07
5.02123e-07
-8.23693e-07
-1.89915e-07
5.38014e-07
-3.48099e-07
1.10236e-07
1.04271e-06
-6.44686e-07
-3.52828e-07
-2.89903e-07
6.42731e-07
4.06952e-07
-6.46387e-07
2.39435e-07
1.09625e-06
-6.79322e-07
-4.59219e-07
-9.93583e-08
2.95774e-07
1.23811e-06
-7.2807e-07
-6.89727e-07
5.60456e-07
5.71537e-08
-1.8213e-08
9.59787e-07
-8.49551e-07
1.49539e-07
2.4337e-07
4.04081e-07
5.19373e-07
-7.09287e-07
-8.44494e-08
3.08154e-07
8.4886e-07
1.6642e-07
-7.44894e-07
5.78474e-07
-4.59172e-07
1.03848e-06
-5.79307e-07
8.2379e-07
-4.16838e-07
6.51985e-07
-1.35636e-06
1.85186e-07
-3.24817e-07
4.60857e-07
-7.64694e-07
5.87064e-07
-4.10054e-07
-1.46042e-07
5.02698e-07
5.96971e-07
-8.86874e-07
-5.06751e-07
1.00887e-06
-1.02952e-06
3.5236e-07
-1.08991e-06
4.45225e-07
1.11263e-06
-1.52841e-07
8.51528e-07
-5.78307e-07
-6.05203e-07
1.18351e-06
-8.37613e-07
5.93753e-07
-1.30638e-06
-4.33276e-07
-3.90417e-07
-1.17946e-06
5.00135e-07
3.89688e-07
6.12549e-07
-1.35067e-06
-6.29054e-07
-6.25435e-07
-2.04238e-07
5.16041e-07
6.67279e-07
2.82052e-07
-9.49331e-07
5.14766e-07
-3.48347e-07
2.32556e-07
-4.73698e-08
9.75433e-07
4.62842e-07
1.79889e-07
-1.12183e-07
7.63492e-07
-6.51309e-07
-7.93019e-07
9.42558e-07
6.54392e-07
-6.76759e-07
6.4508e-07
-8.59588e-07
8.41375e-07
-2.42876e-07
8.2135e-07
1.03488e-06
-1.90874e-07
8.94914e-07
-7.25459e-07
-1.83798e-07
9.09256e-07
7.43808e-07
-1.30131e-06
7.61937e-07
-9.07979e-07
-5.79694e-07
6.85609e-07
-1.05915e-07
4.03858e-07
-9.16333e-07
-2.50549e-07
6.90676e-07
5.08305e-07
-6.01945e-07
-4.49782e-07
-7.32557e-07
9.75927e-07
-8.33455e-07
8.90609e-07
2.67615e-07
-1.54396e-07
-7.77178e-07
5.07649e-07
2.69529e-07
4.7549e-07
1.82908e-07
-6.29712e-07
9.20063e-07
-2.90351e-07
1.09103e-07
-3.10201e-08
-7.51447e-07
7.82467e-07
-9.92937e-07
3.67502e-07
8.98853e-07
-3.05099e-07
-4.30842e-07
1.09217e-06
-5.92036e-07
1.06401e-07
-8.09537e-07
-5.47712e-07
-3.07285e-07
1.0607e-06
5.91568e-07
-8.86028e-07
8.01578e-07
-9.34811e-07
4.63116e-07
6.70142e-07
-9.20691e-07
-4.46523e-08
3.53456e-07
5.66607e-07
-5.19928e-07
8.30635e-07
-3.10708e-07
2.30015e-07
6.79242e-07
-8.10278e-07
-4.55256e-07
-2.64669e-07
2.96838e-07
8.75181e-07
-1.32496e-06
1.89117e-07
4.96493e-07
9.45023e-07
-4.55404e-07
-4.97514e-07
9.52918e-07
6.65075e-08
-5.25727e-07
-9.17148e-07
5.24252e-07
7.43029e-07
-7.87682e-07
-7.6394e-08
5.84699e-07
2.97858e-07
-7.13932e-07
4.16075e-07
-1.27071e-07
-4.74873e-07
1.1082e-06
3.93202e-07
5.51821e-07
-3.8183e-07
-4.84122e-07
9.00851e-07
3.06566e-07
5.24069e-07
-8.83938e-07
5.02108e-07
-9.39526e-07
-8.27841e-07
4.97045e-07
-1.99187e-07
-5.60484e-07
-7.18738e-07
-3.87705e-07
-8.45809e-07
6.62901e-07
1.58449e-07
-8.68358e-07
6.03689e-07
-4.19487e-07
-4.97662e-07
-5.21408e-09
-2.06589e-07
-6.53889e-07
4.03337e-07
-3.32659e-07
8.56911e-07
1.28696e-07
-1.31946e-07
-4.85468e-07
-3.9847e-07
-6.9038e-07
8.27937e-07
-5.56309e-07
8.73173e-07
-4.44403e-07
6.02095e-09
3.03634e-07
1.93411e-07
-3.11583e-07
8.19412e-07
5.61958e-07
-3.709e-07
-1.91058e-07
2.50376e-07
3.99925e-07
-2.67215e-07
9.0132e-07
-6.34105e-07
7.03559e-07
9.54995e-07
-1.72278e-07
-7.7659e-07
6.91952e-07
-1.9546e-07
8.18639e-07
4.85363e-07
5.9034e-07
-1.0478e-07
5.26214e-07
3.30696e-07
-6.79627e-07
-2.47431e-07
-4.37847e-08
-8.81612e-08
2.79219e-07
-8.58085e-08
2.2383e-07
-9.11346e-07
2.31718e-07
1.72073e-07
2.29289e-07
5.70499e-07
-1.2587e-07
8.65321e-07
-2.86931e-07
-9.21036e-07
8.25868e-07
-5.9415e-07
-1.35488e-07
-1.85457e-07
3.99189e-07
-2.13732e-07
-8.97211e-07
-7.11768e-08
1.71201e-07
1.85927e-07
-7.38271e-07
-8.39096e-08
1.94802e-08
-5.42795e-07
3.97153e-07
6.74786e-08
2.23974e-07
1.64549e-07
3.72536e-08
-3.30036e-08
1.39771e-07
2.31179e-07
1.65098e-07
1.29238e-07
3.96677e-07
4.72609e-07
7.75861e-08
-2.3217e-08
-5.43691e-08
-8.78647e-07
-2.81669e-07
4.61748e-07
-1.53454e-07
6.96287e-08
1.3052e-07
2.32112e-07
2.82042e-07
-8.19243e-07
-3.8257e-07
1.14315e-07
8.58331e-08
-1.41688e-07
5.58796e-08
2.43699e-07
8.2142e-08
-5.05542e-07
8.7979e-08
3.36521e-08
-9.49824e-07
1.06768e-07
6.27856e-07
5.34829e-08
2.41031e-08
3.97413e-07
-4.07819e-07
-2.87371e-07
-5.55862e-07
4.47453e-07
2.34726e-07
7.0472e-07
-2.68917e-07
-1.10091e-06
-9.60456e-08
-9.51914e-07
2.03096e-07
1.3901e-07
-4.08987e-07
1.09602e-07
-1.43525e-07
-1.7439e-07
1.71863e-07
7.2677e-08
-9.12851e-08
-1.77632e-07
-3.38218e-07
4.72001e-07
-8.6381e-07
-9.37959e-08
-8.62393e-08
2.51982e-07
-5.08375e-07
-5.02393e-07
3.12041e-07
5.64064e-07
1.56347e-07
-1.10406e-07
-4.59419e-08
-2.57945e-08
5.22098e-08
-5.44267e-08
-6.63641e-08
-2.9166e-07
-1.28812e-08
-2.57945e-08
-2.58695e-07
1.76703e-07
-8.87241e-08
5.2225e-08
-1.5306e-07
3.16654e-07
-8.46274e-08
4.9846e-07
-4.93246e-07
-3.24813e-08
8.65701e-07
-6.31628e-08
-3.17506e-07
1.31761e-07
1.85745e-07
-1.41276e-07
-1.6886e-07
-1.88268e-07
-3.67604e-07
-1.96052e-07
-6.55679e-08
-4.93054e-08
1.12797e-06
1.73558e-07
2.72003e-07
5.34726e-07
-5.57637e-08
8.41059e-08
-4.5619e-07
-5.19529e-08
3.95027e-08
4.5619e-07
5.19529e-08
2.13499e-07
5.34726e-07
1.59759e-07
-7.48866e-07
4.70122e-07
7.48932e-07
-5.05088e-07
1.60906e-07
-2.97257e-08
-4.21179e-08
1.68003e-09
-1.7074e-08
1.00001e-07
-1.3369e-07
-1.69413e-07
-6.66384e-08
-2.97257e-08
-4.66328e-08
-2.7872e-08
6.21952e-08
4.82541e-08
9.36348e-08
-1.88362e-07
1.46488e-08
-1.00001e-07
-2.04068e-08
1.3369e-07
-1.32815e-08
1.69413e-07
-4.40573e-08
-9.36348e-08
-3.17211e-08
1.88362e-07
4.66328e-08
1.68003e-09
6.21952e-08
-1.35469e-08
-5.77978e-07
9.00831e-08
-3.6027e-07
6.57108e-07
3.26202e-07
-3.89365e-07
3.4933e-08
-3.01841e-08
1.54782e-07
8.87424e-07
-4.97624e-07
1.40652e-07
-4.25121e-07
-3.01841e-08
2.05021e-07
-4.10751e-07
4.27721e-07
-4.37073e-07
5.81625e-07
-1.4965e-07
3.92004e-08
1.4965e-07
-5.37324e-07
4.84723e-07
5.26011e-08
-8.14401e-07
-2.35363e-07
2.04227e-07
-5.29664e-07
2.8848e-07
5.23728e-07
-5.88781e-07
-4.30728e-07
3.24813e-07
-4.50198e-08
3.40244e-08
3.46883e-07
2.30249e-07
-5.40261e-07
3.12438e-07
3.02817e-07
-5.73152e-07
5.73152e-07
-1.86075e-07
-5.50313e-07
-2.24941e-07
3.46883e-07
3.71644e-07
-4.04432e-07
3.25859e-07
-1.60873e-07
-2.47195e-07
1.3876e-07
-3.18649e-07
7.29449e-07
-4.51066e-07
-1.63736e-07
1.63736e-07
-2.24841e-08
-1.85469e-07
-6.15599e-08
6.15599e-08
-3.19255e-07
3.19255e-07
-2.03054e-07
1.30052e-08
1.26945e-07
-4.15118e-07
-2.39562e-08
4.39075e-07
5.164e-07
-5.164e-07
7.87383e-08
1.181e-07
2.68176e-07
8.52434e-09
-7.19855e-07
1.12726e-07
2.68703e-08
9.94449e-08
-4.64009e-07
-5.91715e-07
-4.08935e-08
-1.22956e-08
-1.38646e-07
-6.71644e-08
1.23662e-08
8.30474e-08
-1.91161e-10
1.25573e-08
-9.36148e-07
-1.36755e-08
-1.6117e-07
-2.77047e-07
-5.07611e-07
1.47341e-07
1.71863e-07
1.2261e-08
1.70634e-07
6.29391e-08
-1.24614e-07
1.59416e-07
-1.59416e-07
-1.17662e-07
5.94769e-07
-4.91759e-07
-1.18175e-07
-6.65698e-08
6.65698e-08
-7.99582e-07
-4.60138e-07
1.07248e-07
-4.80384e-10
-1.54289e-07
-2.81078e-07
4.65246e-07
-1.84168e-07
-5.95784e-07
2.11751e-07
3.84033e-07
-3.57844e-08
3.60562e-08
3.01315e-07
-1.94067e-07
-3.59598e-07
-3.89292e-08
3.89292e-08
2.95011e-07
4.47085e-07
-3.79075e-07
1.20288e-07
1.51714e-07
-3.33955e-08
2.18957e-07
3.5636e-08
-3.00772e-07
2.98287e-07
-5.79365e-07
-3.40362e-07
-5.72586e-07
7.53178e-07
6.6688e-08
-2.6274e-07
-9.7098e-08
3.27084e-07
-2.20678e-07
4.62881e-08
4.08935e-08
1.25645e-07
4.5259e-08
-7.83911e-08
1.26895e-07
-1.25062e-09
7.57873e-07
-8.36264e-07
1.91209e-07
1.9687e-07
-1.63976e-07
5.33363e-07
-2.90443e-09
5.7253e-07
-9.09326e-08
-6.6694e-07
2.31788e-07
-4.18694e-08
2.50804e-07
-2.29506e-07
-1.34044e-08
6.04649e-07
-5.98628e-07
3.18104e-07
-5.55378e-08
1.87767e-07
5.67367e-08
6.5725e-07
1.35149e-07
-1.61054e-07
1.80178e-07
1.5202e-07
-6.39111e-07
5.64946e-07
3.83796e-07
-2.36455e-07
3.39739e-07
-1.09242e-07
1.21469e-07
-1.27758e-07
-2.10113e-07
-8.46579e-07
1.27591e-07
-3.37843e-07
-6.71283e-09
5.6752e-08
3.26604e-07
3.79497e-08
-8.60405e-08
1.21405e-07
-1.27426e-07
1.73714e-07
-3.14477e-09
4.47632e-08
)
;

boundaryField
{
    back
    {
        type            empty;
        value           nonuniform List<scalar> 0();
    }
    front
    {
        type            empty;
        value           nonuniform List<scalar> 0();
    }
    top
    {
        type            calculated;
        value           nonuniform List<scalar> 10(-3.57128e-07 -3.88524e-07 -2.94336e-07 -2.00148e-07 -2.00148e-07 -2.94336e-07 -3.57128e-07 -7.45651e-08 -7.45651e-08 -3.88524e-07);
    }
    outer_arc
    {
        type            calculated;
        value           uniform 0;
    }
    bottom
    {
        type            calculated;
        value           nonuniform List<scalar> 10(9.68388e-07 5.23315e-07 -4.25e-09 -3.7095e-07 -8.69286e-07 1.16032e-06 -5.14154e-07 1.20181e-06 -4.462e-07 9.80409e-07);
    }
    inner_arc
    {
        type            calculated;
        value           uniform 0;
    }
}


// ************************************************************************* //
