/*--------------------------------*- C++ -*----------------------------------*\
  =========                 |
  \\      /  F ield         | OpenFOAM: The Open Source CFD Toolbox
   \\    /   O peration     | Website:  https://openfoam.org
    \\  /    A nd           | Version:  9
     \\/     M anipulation  |
\*---------------------------------------------------------------------------*/
FoamFile
{
    format      ascii;
    class       volVectorField;
    location    "1.54";
    object      U;
}
// * * * * * * * * * * * * * * * * * * * * * * * * * * * * * * * * * * * * * //

dimensions      [0 1 -1 0 0 0 0];

internalField   nonuniform List<vector> 
1655
(
(0.034246 -0.0130353 -4.60228e-18)
(0.0132957 -0.0259943 3.03751e-17)
(-0.085269 0.0153757 2.46436e-17)
(-0.017702 0.00929386 -1.4728e-17)
(0.0628791 0.0638031 0)
(0.027185 0.0120409 9.25547e-18)
(-0.120464 0.0234285 0)
(0.0488956 0.183786 -1.6333e-17)
(0.0894811 0.269068 0)
(0.0606564 0.0575372 -8.01665e-18)
(0.0375117 -0.0100035 3.68309e-17)
(0.0492266 -0.0145678 -3.62838e-17)
(0.0338226 0.112538 -2.5399e-21)
(0.0255723 0.000191209 -1.91434e-17)
(-0.0150247 -0.162839 1.86913e-17)
(-0.211225 0.056275 0)
(-0.215496 0.118406 3.24034e-17)
(0.0287213 -0.155976 9.76746e-18)
(0.0137657 0.00383458 -3.69673e-17)
(0.0192167 0.0138131 -1.06283e-17)
(-0.0576511 -0.0478952 4.31145e-18)
(0.0837965 0.284239 0)
(0.0719485 0.119405 -1.97367e-17)
(0.0614093 0.107297 9.17062e-18)
(0.039474 -0.0144822 -5.78818e-18)
(-0.222692 0.12267 -3.82744e-17)
(-0.12537 0.0188824 -1.70079e-17)
(0.0675641 0.254523 -1.95564e-17)
(0.0581197 0.244711 2.63724e-17)
(0.0429987 -0.0368721 -1.90829e-17)
(-0.178038 0.0420258 4.73917e-17)
(-0.00115668 0.0188426 -5.12019e-18)
(0.0129464 -0.0586207 -7.03013e-18)
(-0.089617 -0.0140638 0)
(0.0180808 -0.161604 0)
(-0.0932055 -0.0197753 0)
(0.0351362 0.0169728 -2.49069e-17)
(0.011167 -0.0296683 0)
(0.0111297 -0.0576711 -9.62123e-18)
(0.0207609 -0.0325353 -3.27917e-17)
(-0.0211493 -0.0540985 1.84712e-17)
(0.0708497 0.100588 1.59669e-17)
(0.0105746 -0.0514818 -1.00612e-17)
(0.00814989 -0.000122359 2.9285e-17)
(-0.00124445 -0.0571268 0)
(-0.0182249 0.010142 0)
(-0.027213 0.00788166 4.58118e-17)
(-0.00474478 -0.0191399 0)
(0.0503126 0.0332792 1.78728e-17)
(0.0117265 -0.0478842 2.44955e-18)
(0.0377668 0.0166111 2.75178e-17)
(-0.0385091 0.0237082 -1.84371e-17)
(0.0107648 -0.00618217 -2.02872e-17)
(0.0885003 0.262296 1.74702e-17)
(0.0853829 0.125097 -2.27579e-17)
(-0.0484678 -0.0499261 0)
(0.0169352 -0.0486247 -8.95383e-18)
(0.0140665 -0.00626519 0)
(0.0263756 -0.0054303 0)
(0.00701133 0.0316426 1.94211e-17)
(-0.195585 0.0287038 -4.73625e-17)
(0.0142818 0.00585127 0)
(0.0499622 -0.0189576 0)
(0.0614589 0.197089 -4.51241e-18)
(0.0265137 0.00662406 0)
(-0.119093 0.0437331 0)
(0.0172568 -0.000450688 4.27636e-17)
(0.021859 -0.00446841 -2.11857e-17)
(-0.0028745 -0.185894 0)
(0.0643597 0.0970375 -1.82509e-17)
(0.00172614 -0.00139378 2.35327e-17)
(-0.0968571 0.0290357 -1.11828e-18)
(0.026091 -0.040067 -1.1885e-18)
(-0.0173077 -0.187883 1.7021e-17)
(-0.174541 -0.0268092 -2.1892e-17)
(-0.00936872 -0.0232568 1.04246e-17)
(0.0523285 0.226443 -5.99034e-18)
(-0.0127684 -0.172528 0)
(-0.0346632 -0.038611 0)
(0.0535487 -0.0375222 0)
(0.0247782 0.00904092 2.35452e-17)
(-0.0103878 -0.00271263 -1.06063e-17)
(0.0791134 0.116532 2.32571e-17)
(0.0207928 0.00205544 1.18152e-17)
(0.057114 -0.0354759 0)
(-0.0344907 -0.182741 0)
(-0.163806 -0.0204331 -1.32143e-17)
(0.0157488 -0.0492247 0)
(0.0667487 -0.0574082 -9.17412e-18)
(-0.0633309 -0.120296 0)
(-0.0608872 -0.159907 0)
(-0.0941095 0.00954918 1.15564e-17)
(0.0259143 0.00887299 2.26279e-17)
(0.034782 0.0208955 0)
(-0.00574331 0.0529749 0)
(0.0230622 0.00670725 3.76796e-17)
(0.00591779 -0.00267904 -3.62325e-17)
(0.00672925 -0.00290547 0)
(-0.0230813 0.0166472 -1.09712e-17)
(0.0263598 -0.0575431 2.32496e-17)
(-0.120458 0.00424742 -7.29123e-17)
(-0.0108165 -0.00450117 -2.3939e-17)
(0.0449564 0.0333558 -2.33279e-17)
(0.0137481 -0.00238212 2.51061e-17)
(0.0359775 -0.0127731 0)
(0.0235786 0.00919402 -1.4471e-18)
(0.0945766 0.212515 -1.98955e-17)
(0.0254009 -0.0254475 0)
(0.0234197 -0.0603179 0)
(-0.0674161 -0.0537789 -2.04277e-17)
(0.00954612 -0.0633471 1.61879e-17)
(0.0173902 0.000392801 1.87454e-17)
(-0.0740376 -0.0351651 1.23679e-17)
(0.0535015 -0.0357839 2.12623e-17)
(0.106633 0.190811 1.89174e-17)
(-0.0343735 -0.181767 -1.18931e-17)
(0.095589 0.20112 -2.02262e-17)
(0.0131754 0.00354851 0)
(0.0712886 -0.0530774 1.81797e-17)
(0.0345287 -0.00628472 -4.08436e-17)
(-0.0744784 -0.0200093 -3.49754e-17)
(-0.162692 -0.0371042 3.55528e-17)
(-0.182559 0.000328662 -2.81582e-17)
(0.105258 -0.000963838 2.64361e-17)
(0.00775482 0.0034239 9.30636e-18)
(0.0691087 0.159196 0)
(0.0138915 -0.0440071 -2.31326e-17)
(-0.00512615 0.0311002 2.08326e-17)
(-0.218112 0.0772902 -2.83156e-18)
(0.0354924 -0.0489844 -2.77222e-18)
(0.0698905 0.0408522 5.27511e-18)
(0.00949044 -0.0641829 2.85637e-17)
(0.0707073 0.196527 1.74791e-17)
(0.0690395 0.147955 1.84141e-17)
(0.0174142 -0.0222946 0)
(0.0566933 -0.0747997 0)
(0.0705255 0.0774141 -1.07716e-17)
(0.0282745 -0.0128296 1.83859e-17)
(0.00887684 -0.0470028 9.77915e-18)
(0.0140144 0.000697416 -9.70377e-18)
(0.0252812 0.0508442 1.26629e-17)
(-0.0517399 0.000169713 1.74726e-17)
(-0.127855 0.0548922 0)
(-0.141958 -0.0447675 0)
(-0.24217 0.116168 -1.07263e-17)
(-0.159457 -0.0434061 0)
(-0.10624 -0.0310726 -3.75928e-17)
(-0.0368336 0.0141497 3.03016e-17)
(-0.06083 -0.00394081 1.9574e-17)
(-0.228577 0.0596304 0)
(-0.20854 0.0269025 1.84705e-17)
(-0.243077 0.0902803 -9.93863e-18)
(-0.177439 -0.0275351 1.93259e-17)
(-0.194797 -0.00526618 1.6863e-17)
(-0.0266417 -0.202777 0)
(0.0104186 -0.0404052 3.73194e-17)
(0.0119357 -0.0012215 2.38333e-18)
(-0.143533 -0.0304356 9.93245e-18)
(0.106188 0.20263 0)
(-0.0135021 0.00709115 -2.54488e-17)
(-0.128386 -0.0308784 2.8418e-17)
(0.139694 -0.0967983 0)
(0.0981272 0.256592 -1.57884e-21)
(-0.146267 -0.0338482 0)
(-0.157088 -0.041959 0)
(0.0238543 -0.00574525 -9.81187e-18)
(0.0777655 0.253409 0)
(0.0947149 0.177376 -3.81892e-17)
(-0.001763 -0.00224456 5.89353e-18)
(-0.0223332 -0.172045 0)
(-0.213294 0.131848 0)
(0.10573 0.168674 0)
(-0.0979172 -0.0135748 1.16906e-17)
(0.102531 0.23182 2.00765e-17)
(0.0586314 -0.0371043 1.2392e-18)
(0.103884 0.221675 2.00063e-17)
(0.0634113 0.0384001 5.294e-18)
(-0.0285937 -0.183381 0)
(0.0418435 -0.036181 -2.21194e-17)
(0.014398 -0.00711489 1.73986e-17)
(-0.0424306 -0.0927552 2.49573e-17)
(0.100577 0.136122 1.57076e-17)
(0.0178058 0.00506136 -3.37048e-17)
(0.0796259 -0.000128014 -5.78525e-18)
(0.023037 -0.0647352 -1.11002e-17)
(0.00347467 -0.0329322 0)
(-0.000827851 -0.026343 0)
(0.0312863 -0.0313091 0)
(0.0464362 -0.0784799 0)
(0.108058 0.14236 -1.52709e-17)
(0.0094441 -0.0502573 -2.00027e-17)
(0.0260188 0.0114246 0)
(0.0398916 -0.028793 -2.06066e-17)
(-0.0198704 0.0237231 2.59099e-17)
(-0.0529001 -0.0423356 0)
(0.0214611 -0.0234554 -1.25339e-17)
(0.0529425 -0.0474345 0)
(-0.000556531 -0.0301582 0)
(0.0395385 -0.0305845 2.38765e-17)
(0.101285 0.109174 0)
(0.028456 -7.78084e-05 1.32774e-17)
(0.00423908 -0.00171397 -5.95571e-18)
(-0.162042 -0.00890607 2.14928e-17)
(-0.168824 0.0137922 4.80084e-17)
(-0.0618847 -0.118546 -1.82087e-17)
(-0.129407 -0.0218055 1.44627e-17)
(0.0086321 -0.0609074 0)
(0.0225444 -0.0632933 0)
(0.0404266 -0.0501788 6.56919e-17)
(-0.119401 -0.0223303 0)
(0.084394 0.0191197 3.47746e-17)
(0.0280344 0.0223559 -9.61658e-18)
(0.044584 -0.0719255 0)
(0.0830154 0.173685 1.99705e-17)
(0.0242709 -0.0108889 -2.06616e-18)
(0.0369795 0.00152161 4.51361e-17)
(-0.126374 -0.0243525 -1.12164e-17)
(0.112869 -0.0795611 0)
(0.0827237 0.0168485 1.97738e-17)
(0.111882 0.120316 0)
(-0.00416026 -0.0146579 0)
(-0.0352833 -0.0461107 -4.21203e-17)
(0.0125947 -0.0585142 2.97603e-17)
(0.135804 0.152833 2.03507e-17)
(0.0119744 -0.0589013 -2.14818e-17)
(-0.101113 -0.0664177 2.05584e-17)
(-0.15386 -0.0847366 -2.03716e-17)
(-0.0532936 -0.143854 0)
(0.0850161 0.0144349 2.50662e-17)
(0.102198 0.0109569 2.00906e-17)
(-0.00458444 -0.0942122 0)
(0.101995 0.0122113 -2.51037e-17)
(0.120965 0.00799441 2.51126e-17)
(-0.0157817 -0.161697 -3.91412e-17)
(0.00535306 -0.0602954 -2.12133e-17)
(-0.00527005 -0.0878676 2.06501e-17)
(-0.0506476 -0.0424871 0)
(0.0218072 -0.0485949 0)
(-0.157751 -0.0752217 2.53756e-17)
(0.131535 0.0148416 2.00683e-17)
(-0.0351657 -0.118206 -1.91154e-17)
(0.0111038 -0.0340834 3.66511e-17)
(0.152584 0.00871105 -2.51083e-17)
(0.0319369 -0.0584129 1.749e-17)
(0.135524 0.130042 5.09053e-18)
(0.028728 -0.0605537 -2.59536e-17)
(-0.195335 0.071516 1.52328e-17)
(0.0987263 0.248099 0)
(-0.0939937 -0.053515 -5.12007e-18)
(0.127292 0.150948 0)
(0.0227214 0.00225824 -1.67521e-17)
(0.0477952 -0.0560184 4.15366e-18)
(0.0147449 -0.0390684 -2.02874e-17)
(0.0504633 0.0216726 -1.45776e-17)
(0.00026773 -0.0632688 2.08534e-17)
(0.0979124 0.0175838 -2.48202e-17)
(0.0242753 -0.0475198 -2.14554e-17)
(0.145061 0.131537 -5.06999e-18)
(-0.0270961 -0.208681 2.691e-17)
(0.014416 -0.0567008 1.96254e-17)
(0.157464 -0.142657 1.50651e-17)
(0.0363297 -0.0337038 2.11612e-17)
(-0.170607 -0.116747 2.02473e-17)
(0.0467331 0.0219715 2.00276e-17)
(0.0188204 -0.0639436 2.03132e-17)
(0.117451 0.178606 2.01999e-17)
(0.014619 -0.0615303 0)
(0.0129548 -0.030311 -2.88925e-17)
(0.0120725 -0.0595298 1.12263e-17)
(0.0299803 -0.0394759 0)
(0.016461 0.0138881 -2.17855e-17)
(-0.00319192 -0.144748 1.54472e-17)
(0.00270294 -0.0417103 1.07367e-17)
(-0.0162725 -0.038057 0)
(-0.0249678 -0.167878 1.4433e-22)
(-0.00755067 -0.130126 -1.55546e-17)
(-0.196838 0.0785874 0)
(0.14391 0.108178 2.53443e-17)
(0.0541817 -0.00309348 -2.59008e-17)
(0.197 -0.176956 4.92762e-18)
(0.0723275 0.0453941 2.0923e-17)
(0.125742 0.164857 5.07199e-18)
(-0.0210602 -0.142483 2.06186e-17)
(0.0301061 0.0392489 1.82966e-17)
(-0.0117726 -0.126645 -3.41999e-17)
(-0.00289092 -0.108056 -2.075e-17)
(0.0617362 0.0171793 2.06634e-17)
(0.0169935 -0.0597128 1.86594e-17)
(0.0113449 -0.0630069 0)
(0.0171487 -0.144249 0)
(0.0174894 -0.0951327 2.03048e-17)
(0.0149103 -0.0677065 1.99151e-17)
(0.0285866 -0.0608218 4.32274e-17)
(0.115176 0.195656 0)
(0.057978 0.00188694 -2.06504e-17)
(-0.0157663 -0.0562964 5.22408e-18)
(0.0296551 0.119652 0)
(0.0982486 0.0139444 -3.50029e-17)
(0.0207296 -0.0476421 -2.02705e-17)
(0.0387367 -0.0463666 -5.16551e-17)
(0.0134258 -0.0537938 -2.17365e-17)
(0.0152055 0.00846654 0)
(0.000367181 -0.00398246 3.1471e-17)
(-0.0510239 -0.0694162 -5.17882e-18)
(-0.202511 -0.12631 -4.03176e-17)
(0.0623152 0.00231808 -2.20648e-17)
(0.000875138 -0.0470105 -5.2682e-18)
(-0.0900925 -0.0492349 5.11019e-18)
(0.0702495 -0.0069637 -5.14022e-18)
(-0.177074 -0.149416 -2.01148e-17)
(-0.014447 -0.114976 0)
(-0.226235 0.119843 1.08088e-17)
(-0.0179048 -0.0389781 -5.1723e-18)
(0.177723 -0.154035 -5.01953e-18)
(0.117548 0.190386 0)
(0.0807446 0.0252451 0)
(0.0216985 -0.0723211 -2.02552e-17)
(0.0833276 0.0913365 -2.06191e-17)
(-0.170021 -0.138756 7.66146e-21)
(0.0169721 -0.0468602 2.2761e-17)
(0.0765022 0.0616707 0)
(0.0361327 -0.0538872 -2.17517e-17)
(0.013978 -0.0582012 2.87211e-18)
(-0.0286543 -0.0671864 -5.20964e-18)
(0.00508647 -0.0538343 -2.11531e-17)
(-0.0204001 0.0027537 2.92727e-17)
(-0.0215028 0.00300636 1.00259e-17)
(0.126562 0.176229 -2.55439e-17)
(0.0223306 -0.0403128 0)
(0.05603 0.014082 -2.02316e-17)
(0.00222476 -0.0675862 0)
(0.0726844 0.0404337 2.06368e-17)
(0.0031749 0.0238008 9.26454e-18)
(-0.137002 -0.0571657 -2.05182e-17)
(0.0304384 -0.0556938 2.06028e-17)
(-0.209038 -0.0853806 -1.51958e-17)
(0.0677574 0.0123217 1.52053e-17)
(0.0234102 -0.0662733 -2.16168e-17)
(-0.15235 -0.125673 0)
(0.0104166 -0.0659892 0)
(0.0182645 -0.0539486 2.24218e-17)
(-0.0915225 -0.106516 2.04895e-17)
(-0.0256193 -0.161903 0)
(0.0917156 0.0127091 -2.50003e-17)
(0.0135221 0.0459529 0)
(-0.06162 -0.0926216 -3.613e-17)
(0.0336914 -0.030703 0)
(-0.0143921 -0.0520897 5.24564e-18)
(0.00588165 -0.0471105 0)
(-0.0459031 -0.0463174 0)
(0.0338858 0.0839714 0)
(-0.0422787 -0.0860515 2.00729e-17)
(0.109928 0.00876934 0)
(0.00216502 -0.0555458 2.10838e-17)
(0.109823 0.217827 0)
(-0.12676 -0.152514 0)
(-0.108965 -0.102596 0)
(-0.137566 -0.159641 -7.80275e-21)
(0.1263 0.0496965 -2.03229e-17)
(-0.168976 -0.0946189 2.51985e-17)
(0.0147534 0.0430544 -1.75111e-17)
(0.00774813 -0.0686338 0)
(0.106658 0.234657 -5.42376e-18)
(0.202217 -0.154081 1.98264e-17)
(-0.0147923 0.0345171 2.11605e-17)
(-0.0198623 -0.0934447 -1.76693e-17)
(0.0321749 -0.0447012 5.42688e-18)
(0.0317243 0.0645888 -2.01072e-17)
(0.10493 0.0879889 0)
(-0.0298895 -0.114259 0)
(-0.00928084 -0.000748509 0)
(0.0060274 -0.0585973 2.11009e-17)
(-0.0116067 0.0205843 0)
(-0.115203 -0.193359 0)
(0.028659 0.045411 0)
(0.102303 0.00979824 5.11202e-18)
(0.107404 0.059396 1.50778e-17)
(0.0838898 0.185887 -1.42694e-21)
(-0.00976344 -0.0977457 5.11167e-18)
(-0.0921933 -0.0703265 -2.05872e-17)
(-0.00151349 -0.0958732 -5.24672e-18)
(0.220688 -0.147413 0)
(0.105494 0.168706 -2.09961e-17)
(0.174932 -0.172821 -2.47514e-17)
(-0.029334 -0.0467229 -5.20587e-18)
(0.113203 0.214501 0)
(-0.101664 -0.180701 0)
(0.132822 0.0801482 -9.29037e-22)
(-0.0190317 -0.137328 0)
(-0.216136 -0.105815 -5.03524e-18)
(-0.103342 0.00017684 1.916e-17)
(-0.0435151 -0.06038 -2.01262e-17)
(0.112315 0.0610567 -2.01199e-17)
(0.120162 0.19379 0)
(-0.0838654 -0.136081 0)
(-0.0531592 -0.198461 -2.00114e-17)
(-0.105634 -0.131285 2.00989e-17)
(-0.00560167 -0.0981546 0)
(0.10584 0.241952 0)
(0.125398 0.0723671 0)
(-0.1527 -0.167748 -2.01352e-17)
(0.00561902 -0.0812615 4.29162e-17)
(0.233341 -0.130512 4.94074e-18)
(0.133751 0.160854 -2.53123e-17)
(0.0402214 0.0228441 -5.0586e-18)
(-0.00581936 -0.0627544 -2.09062e-17)
(0.120791 0.172655 2.04762e-17)
(-0.0667988 -0.0396499 -2.52611e-17)
(0.00635613 -0.0150816 0)
(0.0888268 0.0486089 0)
(0.0213713 0.0235214 0)
(0.237623 -0.0918111 4.94718e-18)
(0.13048 -0.170023 4.9908e-18)
(0.069602 0.036242 0)
(-0.0119042 -0.0685445 0)
(0.229516 -0.0557368 -1.98346e-17)
(0.127227 0.173091 0)
(0.115549 0.0132349 0)
(0.0986333 -0.187978 -1.50042e-17)
(-0.0325097 -0.178653 2.00132e-17)
(0.11907 0.0668337 2.00652e-17)
(0.231344 -0.107051 -4.94563e-18)
(-0.0597093 -0.00702292 5.08757e-18)
(-0.0578188 -0.144308 0)
(0.0487535 -0.222176 1.99824e-17)
(-0.16299 0.0908888 -1.2729e-17)
(0.135288 0.00873196 0)
(-0.111197 -0.163028 1.52046e-17)
(-0.202825 -0.0675205 2.03125e-17)
(0.133313 0.0456083 2.50363e-17)
(-0.0261291 -0.0425468 0)
(0.0108669 0.0120525 -6.13608e-22)
(0.020459 -0.193809 0)
(0.0471834 0.0419957 -6.6069e-18)
(0.229422 -0.0662637 1.48815e-17)
(0.219644 -0.0793577 -1.48948e-17)
(-0.0207165 -0.124723 2.04215e-17)
(-0.10046 -0.0978856 8.63473e-18)
(0.0128982 0.0125618 0)
(0.230308 -0.06264 0)
(-0.074543 0.0201991 1.76468e-17)
(0.100893 -0.0845875 0)
(-0.0426955 -0.0217785 2.53248e-17)
(-0.0425181 -0.124699 0)
(0.0997653 -0.138156 0)
(0.231252 -0.0803228 -2.47718e-17)
(0.110081 0.0480897 2.00648e-17)
(0.0760153 0.0336449 0)
(0.112707 0.0452996 -5.21513e-22)
(-0.00194545 -0.0211296 2.02564e-17)
(0.121134 0.0405448 -5.01232e-18)
(0.186221 -0.0294971 -1.99574e-17)
(0.110442 0.0326815 -5.01511e-18)
(0.184764 -0.125047 4.95644e-18)
(0.125453 0.0377714 -4.00862e-17)
(0.187151 -0.073828 2.48508e-17)
(0.133927 0.0738659 0)
(0.0365839 -0.122049 0)
(0.130283 0.0488078 0)
(-0.0128896 0.00930353 0)
(0.207951 -0.144136 -4.95008e-18)
(0.13039 -0.0618601 -4.99667e-18)
(0.214761 -0.161443 4.94302e-18)
(0.180761 -0.0301711 -1.99727e-17)
(0.108458 0.0617394 -2.00965e-17)
(0.0952666 0.165328 4.03701e-17)
(0.131299 -0.116524 -4.98357e-18)
(0.012659 -0.142145 0)
(0.18153 -0.0297183 5.02611e-18)
(0.21404 -0.130572 0)
(0.200555 -0.11642 -1.98712e-17)
(-0.00521682 -0.103413 1.52975e-17)
(0.20714 -0.105264 4.95847e-18)
(0.0191697 0.00497924 5.06812e-18)
(0.184187 -0.0219361 1.99702e-17)
(0.201195 -0.106221 -4.96354e-18)
(0.183704 -0.0942307 -3.48315e-17)
(0.200882 -0.070047 -1.49235e-17)
(0.171876 0.00164337 1.50655e-17)
(-0.02344 0.00307041 -9.71955e-18)
(-0.126429 -0.102379 -2.52437e-17)
(0.0858521 0.0500265 0)
(0.190147 -0.0195282 -4.98235e-18)
(0.0855871 0.0292981 5.03025e-18)
(0.195854 -0.0833279 -4.9722e-18)
(0.202705 -0.0568171 -1.49052e-17)
(0.0260172 0.0169513 -2.01107e-17)
(0.0248585 0.0137231 0)
(0.0395996 0.0258202 0)
(-0.0171997 -0.220997 -5.02542e-18)
(0.183497 -0.0172414 -4.49389e-17)
(0.0678843 0.0344445 -2.01369e-17)
(0.216776 -0.0342492 4.97158e-18)
(0.165173 0.0283502 -4.99594e-18)
(0.158725 -0.0312719 -2.00057e-17)
(0.211802 -0.0900364 4.96133e-18)
(-0.100883 0.0669642 -2.84176e-19)
(-0.00424172 0.00811474 0)
(0.213716 -0.0719637 1.48915e-17)
(0.16753 0.031379 2.4969e-17)
(0.149426 -0.0144141 0)
(0.181514 -0.0866341 1.98996e-17)
(-0.049194 -0.00581545 1.01747e-17)
(0.174417 -0.0191167 2.49828e-17)
(-0.0836966 0.0693964 0)
(0.15014 -0.0208843 1.50146e-17)
(0.0633921 0.0240199 -2.01842e-17)
(0.159535 -0.0178957 -5.00848e-18)
(0.175706 -0.0338124 4.35235e-22)
(0.0550668 0.0228835 -1.5137e-17)
(0.121657 0.0880061 1.51149e-17)
(0.149311 -0.0271054 -2.50081e-17)
(0.148566 0.0526108 -5.0003e-18)
(0.191332 -0.0760677 -4.97302e-18)
(0.0377739 0.0165507 0)
(0.164423 0.0234652 1.9981e-17)
(0.175299 -0.0265902 0)
(0.191925 -0.0446984 1.49439e-17)
(-0.0871406 0.0558268 1.80685e-17)
(-0.0865743 0.0449886 0)
(0.142022 -0.0015574 -2.00561e-17)
(0.16048 -0.00841122 0)
(0.182372 -0.116085 3.99097e-17)
(0.179889 -0.0226864 0)
(-0.111728 0.0571416 -1.9327e-17)
(0.193459 -0.0163053 2.4934e-17)
(0.126917 -0.0174775 -1.51383e-17)
(0.159709 -0.0246244 -3.21525e-22)
(0.1819 -0.0445311 4.98818e-18)
(0.135484 0.00975994 -2.50326e-17)
(0.126437 -0.0121253 2.01968e-17)
(0.0713971 0.033242 2.01388e-17)
(0.00786374 -0.00563945 -1.12537e-17)
(-0.0252207 -0.00012921 1.90726e-17)
(-0.0122684 -0.0109942 1.26482e-18)
(0.0153773 -0.0181131 2.40252e-18)
(0.00607025 0.00864629 -1.63166e-22)
(-0.0131165 0.00793518 -4.10721e-17)
(-0.0272546 -0.00464247 0)
(-0.0203613 0.0048383 -1.77852e-17)
(-0.0216397 -0.00984622 -2.97339e-17)
(-0.0414633 0.0311344 -5.26721e-17)
(-0.016931 -0.0102119 -2.0191e-17)
(-0.0272781 0.00564252 0)
(0.0184181 -0.0154018 2.95682e-17)
(-0.00713857 -0.00633874 2.03406e-17)
(-0.00195709 0.00112199 2.20597e-17)
(-0.033334 -0.00347094 0)
(0.177946 -0.0599856 1.49596e-17)
(-0.0348118 -0.00995806 -3.12919e-17)
(-0.025364 0.0115237 0)
(0.156613 -0.0372038 -5.00051e-18)
(-0.182785 0.0871615 0)
(0.124861 -0.0228178 -1.50521e-17)
(0.175543 -0.0407997 4.98858e-18)
(-0.0694951 0.0633085 0)
(-0.0944022 -0.0335908 0)
(0.170079 -0.067826 4.98648e-18)
(0.154407 0.0199114 -2.00045e-17)
(0.0795995 0.030819 -5.03106e-18)
(0.185537 -0.0249498 1.49787e-17)
(0.121356 0.0150966 -3.51127e-17)
(0.197621 -0.0151599 5.01096e-18)
(0.101443 0.0210146 -1.49367e-17)
(0.113705 0.0588595 0)
(-0.0372793 0.0382329 -1.30237e-21)
(0.188416 -0.0322327 2.49449e-17)
(0.0441046 -0.17617 -4.99445e-18)
(0.0720617 0.0231976 8.44351e-23)
(0.124673 0.0134419 -1.49369e-17)
(0.164092 -0.0926427 -5.03562e-18)
(0.116497 0.0308478 4.01252e-17)
(-0.0761333 -0.0274498 1.83441e-17)
(0.142501 0.0472864 4.50312e-17)
(0.126743 0.0190768 -2.49285e-17)
(0.18885 -0.0369119 -1.49574e-17)
(0.147263 -0.0330666 2.50029e-17)
(-0.0340399 0.0015102 -4.04869e-17)
(-0.0308899 0.0443407 2.02239e-17)
(0.228042 -0.120772 -2.47491e-17)
(0.11191 -0.0187043 2.01291e-17)
(0.113528 -0.0140609 -3.2523e-22)
(0.132588 0.0758246 0)
(-0.0183664 0.0303609 3.42455e-17)
(0.141066 0.0196162 1.50154e-17)
(0.112463 -0.00924329 2.04358e-17)
(0.0464058 0.0196579 3.98021e-17)
(0.173381 -0.0177664 2.00102e-17)
(0.169047 0.00792772 4.99665e-18)
(0.185555 -0.0222056 -1.4994e-17)
(0.163834 -0.0618199 -1.9948e-17)
(0.164736 -0.013317 5.00524e-18)
(0.159035 -0.00778187 0)
(0.155655 -0.00122902 -5.00679e-18)
(0.200933 -0.0291101 -4.9868e-18)
(-0.0132369 0.0374093 -2.02267e-17)
(0.163961 -0.100004 3.98946e-17)
(0.0166117 0.0156187 -1.87565e-17)
(0.15417 0.00591338 -1.50121e-17)
(0.0995116 0.0265733 -2.00834e-17)
(0.154219 0.01321 -1.49981e-17)
(-0.145843 0.018707 4.99344e-18)
(0.0342546 0.0215763 1.4656e-17)
(0.0492693 0.0257485 2.01874e-17)
(-0.161043 0.0422532 9.80445e-18)
(-0.16888 0.0633745 0)
(-0.109145 -0.0313533 -1.06772e-17)
(0.0252848 0.0533281 -3.43385e-17)
(-0.0203069 -0.0306163 4.09138e-17)
(-0.123442 -0.0196315 4.64634e-18)
(0.17429 -0.0477993 -1.99484e-17)
(0.143583 -0.0381757 5.00088e-18)
(-0.107686 0.0615112 0)
(-0.133477 -0.00341782 -4.12374e-17)
(-0.0296837 -0.00896253 0)
(0.155514 0.0205241 -2.4992e-17)
(-0.0213214 0.0496742 2.02092e-17)
(0.109035 -0.0235606 2.00668e-17)
(0.213031 -0.0300182 -1.98896e-17)
(0.0272088 0.0246012 2.51462e-17)
(-0.00580072 0.0427872 -2.02323e-17)
(0.183202 -0.023277 0)
(-0.00929649 0.050133 -4.04154e-17)
(0.0592154 0.0223245 -2.422e-17)
(0.195519 -0.0293197 2.49696e-17)
(0.104766 0.0136843 2.00863e-17)
(0.17407 -0.0182708 -1.5015e-17)
(0.167917 -0.0126948 0)
(0.163987 -0.00613361 5.00747e-18)
(0.165495 0.0030997 -9.99272e-18)
(0.223452 -0.056197 -4.96391e-18)
(0.175118 0.0100569 1.49759e-17)
(0.161785 0.00116614 0)
(0.0690435 -0.00388897 2.21846e-17)
(0.121851 -0.0276297 -2.50825e-17)
(0.16088 0.00877769 4.49929e-17)
(0.0792539 -0.0118331 0)
(0.0560421 -0.0139415 1.00411e-17)
(0.152827 -0.0425288 0)
(0.192278 -0.0395438 4.9853e-18)
(0.097594 -0.029081 -2.50924e-17)
(-0.0505603 0.000132015 -1.73869e-17)
(0.235152 -0.0909193 1.48644e-17)
(0.0757334 -0.0163986 0)
(0.117788 -0.0310885 -2.64427e-17)
(0.0993985 0.0546714 2.01087e-17)
(0.171082 -0.0549481 -4.98637e-18)
(0.0829023 -0.00587069 -2.20162e-17)
(0.170965 0.024667 -1.99683e-17)
(-0.180166 0.113795 -5.01654e-18)
(0.161033 0.0163493 0)
(0.157393 -0.0737656 0)
(0.197166 -0.0370777 -4.98549e-18)
(0.194577 -0.0537062 0)
(0.195193 -0.0643828 2.48742e-17)
(0.111764 -0.0455263 0)
(0.201388 -0.0442757 4.98025e-18)
(0.136909 0.031806 0)
(0.181924 -0.0238983 1.49823e-17)
(0.044817 0.0296071 0)
(0.181149 -0.0520238 1.99484e-17)
(0.138357 0.0221186 4.99996e-18)
(0.151302 0.0151834 3.50045e-17)
(0.196683 -0.0477565 -2.49082e-17)
(0.217227 -0.0417215 0)
(0.107762 0.0251039 0)
(0.0510693 -0.00108827 1.97583e-17)
(0.105372 -0.0270513 3.09909e-17)
(0.0613507 -0.0119238 0)
(0.137262 -0.0502631 0)
(0.135864 0.0158418 3.49481e-17)
(0.173165 -0.00194597 1.99793e-17)
(0.0866758 0.00480657 -5.11051e-18)
(0.137654 0.0567078 0)
(0.117057 0.0111825 2.00618e-17)
(0.149788 0.00186229 1.00114e-17)
(0.14746 0.0467549 -4.99991e-18)
(0.0627752 0.012134 0)
(0.0905038 0.0220983 5.00445e-18)
(0.0401222 0.000459958 -9.05017e-18)
(0.142659 0.0392737 0)
(0.142416 0.0286179 0)
(0.159416 0.00959605 -9.99514e-18)
(0.210003 -0.0393185 4.97558e-18)
(0.170607 0.0172046 -9.98568e-18)
(0.00686194 0.0450476 5.05412e-18)
(0.0718658 -0.0181745 1.00161e-17)
(-0.0996794 -0.0626151 9.37954e-18)
(0.157469 0.0279439 0)
(0.161765 0.0237765 9.99302e-18)
(0.171111 0.0221946 -4.97664e-22)
(0.133065 0.0117824 5.01128e-18)
(0.129923 0.0607214 0)
(0.170722 0.0220422 4.99278e-17)
(0.146527 -0.047613 2.50075e-17)
(0.146712 0.0357249 -5.00271e-18)
(0.0580191 0.0018349 -1.50002e-17)
(0.131079 0.0250018 0)
(0.128841 -0.0457711 -2.59832e-17)
(0.107957 -0.0331637 3.53857e-17)
(0.207161 -0.0467102 -4.97803e-18)
(0.137129 -0.0425094 5.00175e-18)
(0.135538 -0.0689451 2.12812e-17)
(0.162772 0.0144373 -2.99888e-17)
(0.121631 0.0571177 0)
(0.130698 0.064977 -2.50487e-17)
(0.092553 0.00767375 0)
(0.188429 -0.0301116 -1.99628e-17)
(0.15926 0.0353234 4.49649e-17)
(0.0956665 0.0385057 -4.93268e-22)
(0.0175402 0.0449552 2.02242e-17)
(0.180266 -0.000834056 2.49635e-17)
(-0.0580724 0.063248 0)
(0.193525 -0.0357411 -4.98643e-18)
(0.187117 -0.0288418 1.49708e-17)
(0.0624041 0.0398528 0)
(0.066216 0.00869183 5.30562e-18)
(0.156102 0.049439 1.99885e-17)
(0.215865 -0.0608023 -1.49121e-17)
(-0.196017 0.113964 0)
(0.171515 0.0142498 0)
(0.169272 0.0294045 0)
(0.00033901 -0.111803 0)
(0.209113 -0.0561189 1.98846e-17)
(0.131294 0.149957 2.52638e-17)
(0.0258582 0.0479064 -2.02952e-17)
(0.1504 0.0430506 -4.99959e-18)
(0.132276 0.0335911 -2.00347e-17)
(0.181531 -0.0373775 1.49736e-17)
(0.0811534 0.0095832 0)
(-0.133628 0.0871814 4.99638e-18)
(0.0986493 0.0396764 4.52153e-17)
(0.13978 0.0534164 0)
(0.173151 0.0172548 -2.4963e-17)
(0.108821 0.0489185 -5.01847e-18)
(0.143424 0.0435261 -1.50101e-17)
(0.123436 0.0544431 0)
(0.136557 0.00323729 -3.87593e-22)
(0.166444 0.0360724 -3.99519e-17)
(0.103706 0.00486182 -5.11339e-18)
(0.0699144 0.0313731 0)
(0.101996 0.0534806 0)
(0.118404 -0.0511305 -1.65494e-17)
(0.00622742 0.0490478 4.88497e-21)
(0.162455 0.0311201 -1.9983e-17)
(0.175279 0.0150824 -1.49774e-17)
(0.152525 0.049964 -1.9992e-17)
(0.151787 -0.067383 0)
(0.0492022 0.0028315 2.35905e-17)
(0.142751 0.00736392 1.01108e-17)
(0.150383 0.0538403 -6.2607e-22)
(0.0766694 0.00697318 -5.12384e-18)
(0.00302988 0.0113677 0)
(-0.16809 0.0936867 -3.47225e-17)
(-0.12117 0.0874329 -4.03278e-17)
(0.0631651 0.0151054 0)
(0.117145 0.0335034 2.00637e-17)
(0.158779 0.0486768 1.99838e-17)
(0.215101 -0.099596 0)
(0.121685 0.0539981 -2.00485e-17)
(-0.043448 0.0618742 -2.01138e-17)
(-0.0708523 0.0672592 2.07059e-17)
(0.131764 0.0623601 1.50257e-17)
(0.083977 0.0226714 0)
(-0.119316 -0.0227765 -1.97578e-17)
(0.153641 0.0455086 -1.99952e-17)
(0.127923 0.00765187 5.10613e-18)
(-0.000598994 0.0483367 0)
(0.143615 0.0603329 0)
(0.0999267 0.0371992 -1.50663e-17)
(-0.0604669 0.0619881 2.01101e-17)
(0.13215 0.0372525 -5.00898e-18)
(0.0999702 0.0260079 0)
(-0.118321 -0.0207105 0)
(0.182511 -0.0221505 -3.49663e-17)
(0.175999 0.00121997 -4.99395e-18)
(0.138822 -0.07482 5.35855e-18)
(0.160009 0.0423859 2.49798e-17)
(0.178197 0.00733101 1.49767e-17)
(0.17836 0.00229383 -3.49468e-17)
(0.154722 0.0535248 -2.49879e-17)
(0.150422 0.0596995 -1.99966e-17)
(0.142063 0.0636486 2.50164e-17)
(0.152101 0.0559471 4.4988e-17)
(0.172184 0.00619232 1.4982e-17)
(0.174687 0.0093774 -1.49788e-17)
(0.0850442 0.0327995 -5.12137e-18)
(0.200279 -0.0578281 0)
(0.160467 0.0443858 -3.99651e-17)
(0.17747 -0.00697983 -1.99828e-17)
(0.0804773 0.0163481 -2.01314e-17)
(-0.102549 0.0784652 2.00127e-17)
(0.162322 0.0381047 -1.99804e-17)
(0.0878734 0.0442851 0)
(0.137757 0.0727517 0)
(-0.0059008 -0.0591764 0)
(0.177554 -0.0172654 1.99824e-17)
(-0.00121994 0.00957464 0)
(0.0969184 0.0413481 -1.50707e-17)
(0.115807 0.0269627 0)
(0.0838429 0.0375334 0)
(0.121599 0.0654102 0)
(0.13296 0.068113 -5.00748e-18)
(0.0998214 0.0232813 0)
(0.228916 -0.10754 1.97925e-17)
(0.174808 -0.00988585 -4.99572e-18)
(0.136733 0.0687178 0)
(0.0866685 0.0493037 -2.54429e-17)
(-0.0609528 0.0551898 -2.02112e-17)
(0.106639 0.0503735 0)
(0.179487 -0.0148603 4.99577e-18)
(0.124472 -0.173689 0)
(-0.103112 -0.000711909 1.52368e-17)
(0.116374 0.0574794 0)
(-0.0337935 0.00427222 0)
(-0.0351372 0.0479732 -2.02726e-17)
(0.139263 0.070841 0)
(0.144148 0.0656172 -2.0009e-17)
(0.127607 0.0626059 5.00928e-18)
(-0.117981 0.0715378 0)
(0.173602 0.000695693 1.49897e-17)
(0.139221 0.0645336 5.00403e-18)
(-0.0798823 -0.00701551 0)
(0.0736819 0.0399088 -1.3687e-17)
(0.178652 -0.0148857 -2.49888e-17)
(-0.034238 0.0603915 -4.1671e-21)
(0.102991 0.0585771 -2.01096e-17)
(-0.0494771 -0.0052028 2.02385e-17)
(0.142837 0.0685903 -2.00115e-17)
(0.108055 0.0169951 0)
(0.00929027 0.0196913 -1.51966e-17)
(0.137046 0.0750394 0)
(0.158081 -0.0109576 -2.00437e-17)
(0.146896 0.0634834 0)
(0.145949 0.0361926 5.00389e-18)
(0.119221 0.0675983 5.02097e-18)
(0.14714 0.0562585 0)
(0.117503 0.0618233 5.01688e-18)
(0.0693095 0.028295 1.76032e-17)
(0.140738 0.0683517 1.50104e-17)
(0.028232 -0.112182 0)
(0.143763 0.0240604 -1.5018e-17)
(-0.096357 0.0627216 0)
(0.0827927 0.0388853 0)
(0.0684851 0.0298976 -1.81354e-17)
(0.136074 0.0712402 0)
(-0.116024 0.050673 0)
(0.0707462 0.0108799 -5.25677e-18)
(0.127616 -0.133625 2.51187e-17)
(0.127826 0.0709904 -2.00576e-17)
(0.161486 0.0416202 -1.99829e-17)
(-0.121324 -0.0474696 2.0935e-17)
(-0.0891101 -0.0157509 2.0437e-17)
(0.101992 0.0578744 0)
(0.141028 0.0618228 -5.00431e-18)
(0.0919379 0.0463254 0)
(0.0891912 -0.0858636 -1.04022e-17)
(0.127333 0.0690703 5.56547e-22)
(0.105033 0.0526553 0)
(0.124062 -0.00684091 -2.5523e-17)
(0.0941401 0.0453753 0)
(0.0408638 0.0276731 -5.05705e-18)
(-0.0889443 -0.0174639 1.59736e-17)
(-0.0673361 0.0330813 2.02545e-17)
(0.117015 0.0663165 2.00748e-17)
(0.145432 0.0319471 1.50115e-17)
(0.0767179 0.0389485 -8.42706e-18)
(0.162193 0.0370573 3.99643e-17)
(0.117215 0.063447 2.00739e-17)
(0.0375619 0.0307624 -5.05739e-18)
(0.0621081 0.0417673 0)
(0.133966 0.0801111 0)
(0.118655 0.142888 2.02195e-17)
(0.154302 0.0412259 1.49957e-17)
(0.147212 -0.00807862 2.5486e-17)
(0.11628 -0.110728 -4.98317e-18)
(0.148452 0.0601239 0)
(0.0947769 -0.112484 0)
(0.181896 -0.00912223 0)
(-0.215743 0.054504 -1.99433e-17)
(0.0156535 -0.00854536 0)
(0.110201 0.143159 -2.05558e-17)
(-0.181354 0.0844101 3.51521e-17)
(0.0436384 0.0240739 4.03628e-17)
(0.112523 0.0445416 -2.0072e-17)
(0.172724 -0.0114803 0)
(0.114294 0.0422836 -2.00731e-17)
(0.156961 0.0331591 0)
(0.0846047 0.048848 0)
(0.13363 0.080242 0)
(0.105567 0.0744391 1.51931e-17)
(0.114355 0.0697445 0)
(0.00970754 -0.0404793 0)
(0.128777 0.022469 0)
(0.0815856 0.0577491 0)
(-0.0445571 -0.225504 -5.02613e-18)
(0.139179 0.0576912 0)
(0.182497 -0.0139933 2.49676e-17)
(0.128594 0.0738552 -5.01554e-18)
(0.120232 0.100552 0)
(0.11634 0.0365629 -2.00676e-17)
(0.156155 0.0285094 -4.99906e-18)
(0.0792599 -0.110134 5.19374e-18)
(0.130929 0.0699402 0)
(0.0706054 0.0475119 -1.96056e-17)
(0.125309 0.0705412 -2.01167e-17)
(0.0923954 0.0154366 5.1249e-18)
(0.0962015 0.0667025 -1.51572e-17)
(0.0845249 0.0247275 2.56452e-17)
(0.111777 -0.134486 -2.00258e-17)
(0.130967 0.0766062 0)
(-0.0982866 0.0350217 0)
(-0.173876 0.0479108 0)
(0.113716 0.156283 0)
(0.110975 0.0835123 -1.51536e-17)
(0.110548 0.0415544 -5.06034e-18)
(0.12997 0.074637 2.01319e-17)
(-0.223226 0.124815 1.18341e-17)
(0.101019 0.0319132 -5.06896e-18)
(0.0791116 -0.0881404 2.09624e-17)
(0.0651777 0.0372708 0)
(0.093979 0.077099 -1.60712e-17)
(0.137649 0.05348 5.00696e-18)
(0.180696 -0.00582176 0)
(0.133247 0.0746627 -2.00512e-17)
(0.135888 0.0563839 5.00646e-18)
(0.150831 0.109329 -2.53074e-17)
(0.112373 -0.15314 0)