/*--------------------------------*- C++ -*----------------------------------*\
  =========                 |
  \\      /  F ield         | OpenFOAM: The Open Source CFD Toolbox
   \\    /   O peration     | Website:  https://openfoam.org
    \\  /    A nd           | Version:  9
     \\/     M anipulation  |
\*---------------------------------------------------------------------------*/
FoamFile
{
    format      ascii;
    class       surfaceScalarField;
    location    "2.53";
    object      phi;
}
// * * * * * * * * * * * * * * * * * * * * * * * * * * * * * * * * * * * * * //

dimensions      [0 3 -1 0 0 0 0];

internalField   nonuniform List<scalar> 
1363
(
-2.09204e-07
-4.236e-07
6.32804e-07
-1.71218e-07
2.62066e-07
-9.0848e-08
1.02642e-06
-6.98143e-07
-3.28276e-07
-8.77443e-08
3.29409e-07
-2.41665e-07
8.89844e-07
1.36575e-07
4.69049e-07
-5.53412e-08
-4.13707e-07
-3.00347e-07
3.00347e-07
2.24478e-07
2.44571e-07
-2.41173e-07
2.74563e-07
-3.33906e-08
1.01091e-08
-2.51282e-07
-3.24265e-07
2.9468e-07
2.95855e-08
4.64732e-07
-5.56736e-07
9.20044e-08
3.01436e-07
-3.8918e-07
-4.00575e-07
3.71881e-07
2.86945e-08
1.54149e-07
3.10583e-07
-2.1046e-07
3.92429e-08
8.08737e-08
-3.93593e-07
3.1272e-07
-2.41908e-07
3.27036e-08
5.46522e-07
1.3988e-07
-6.86402e-07
-1.15174e-07
1.15174e-07
1.24884e-07
-4.401e-08
-1.88938e-07
-3.67799e-07
8.72936e-07
-4.01891e-07
-4.71045e-07
-5.96571e-08
6.29305e-07
-5.69648e-07
-1.83757e-07
-1.40508e-07
4.12714e-07
-4.72372e-07
8.04639e-07
-7.22441e-07
-8.21983e-08
3.8548e-07
4.87456e-07
-6.1388e-07
6.93629e-07
-7.97485e-08
-2.04238e-07
-3.8865e-08
2.43103e-07
-1.41676e-07
4.1156e-08
1.0052e-07
2.28714e-08
7.81768e-07
4.81488e-08
-6.62029e-07
-7.45093e-07
1.13576e-07
6.31517e-07
7.10516e-07
-6.01552e-07
-1.08964e-07
-2.82392e-07
-7.50717e-07
1.03311e-06
1.44651e-07
-2.35872e-07
9.12203e-08
2.16989e-07
-2.98912e-08
-1.87098e-07
-1.13339e-07
2.57991e-07
3.76009e-08
5.91704e-07
6.50895e-07
-6.61002e-07
1.01068e-08
9.71879e-07
-3.3735e-07
-6.34529e-07
-5.43753e-07
5.81354e-07
-1.48651e-07
-1.51696e-07
1.53841e-07
1.46506e-07
5.66549e-07
1.02665e-08
-5.76816e-07
-6.53472e-07
7.096e-08
5.82512e-07
-1.38186e-08
-7.31275e-07
-5.29276e-08
7.03823e-07
-1.7734e-07
-2.23235e-07
5.91527e-07
-4.50056e-08
-4.56558e-07
5.46674e-08
-1.09452e-06
8.12123e-07
7.10504e-07
-2.86316e-07
-4.24188e-07
3.27869e-07
-3.1776e-07
1.72206e-07
-2.99152e-07
1.26946e-07
-2.46305e-07
2.46305e-07
-8.25495e-09
3.36124e-07
-2.00009e-07
-4.62955e-08
5.06725e-08
2.75615e-07
-3.26287e-07
-1.67003e-07
-3.72353e-08
7.99816e-07
-6.78075e-07
-1.21742e-07
-1.29593e-07
2.43169e-07
-6.79694e-07
2.56094e-07
1.74905e-07
4.20847e-08
1.44269e-07
-2.73486e-08
-1.1692e-07
7.73751e-08
7.16624e-07
-6.29072e-07
-8.75521e-08
9.25078e-07
-7.52872e-07
6.17994e-07
-3.03721e-07
-3.14273e-07
1.67931e-07
9.41347e-08
-1.68895e-07
1.9288e-07
-2.39847e-08
-1.95856e-07
1.95856e-07
1.45008e-07
-1.83873e-07
5.86043e-07
1.24461e-07
2.74034e-08
-1.42578e-07
7.35678e-08
4.16064e-08
3.24413e-08
-2.28163e-07
8.64869e-08
-1.32112e-07
-7.83485e-08
3.79978e-08
5.20486e-08
-9.00463e-08
4.5387e-07
-2.05451e-07
2.52158e-08
1.80236e-07
1.21568e-08
1.3853e-08
-4.12016e-08
-9.75825e-07
9.37301e-07
3.85245e-08
-9.24088e-08
1.43081e-07
2.49976e-08
5.1854e-08
-7.68516e-08
8.72603e-08
2.8462e-07
-1.42199e-07
-6.32524e-08
3.06507e-07
6.65372e-07
2.80987e-07
-4.92993e-08
-2.31688e-07
-3.34085e-07
3.2583e-07
-1.9584e-07
-1.03311e-07
-2.34561e-07
3.61507e-07
-1.94596e-07
1.35349e-07
5.9247e-08
4.14509e-07
-7.51858e-07
4.17006e-08
-1.67031e-08
-2.80109e-07
3.18107e-07
7.90203e-09
2.04057e-07
-2.98811e-10
-2.03758e-07
2.85057e-08
-3.62591e-07
-6.19449e-08
4.69343e-07
-3.781e-07
1.43539e-07
-2.36425e-07
1.9919e-07
-1.47751e-08
5.81324e-07
-4.15876e-08
6.91071e-07
-6.49484e-07
6.95056e-08
6.47118e-07
4.72843e-08
-6.76356e-07
1.12624e-07
8.12454e-07
5.62379e-08
-8.0911e-07
-1.79961e-07
-4.73561e-08
-1.21539e-07
5.40416e-08
2.40638e-07
2.80987e-07
9.34567e-08
-3.19579e-07
2.26122e-07
3.42151e-07
-1.27415e-08
-1.73856e-07
1.81758e-07
1.45679e-07
-6.80699e-07
5.3502e-07
-1.81758e-07
-5.46674e-08
-9.11352e-07
7.26968e-08
8.38656e-07
-5.43753e-07
-1.56613e-07
2.08013e-07
-1.86693e-07
-4.14704e-08
-4.56558e-07
6.29502e-07
-5.81354e-07
-6.29502e-07
4.15088e-07
2.14414e-07
-1.09452e-06
-3.97431e-07
5.37311e-07
3.97431e-07
-3.83767e-07
-1.36638e-08
-5.37311e-07
6.08271e-07
-7.25061e-07
7.11242e-07
7.25061e-07
-6.55556e-07
3.83767e-07
-3.735e-07
1.02182e-06
-9.09195e-07
-6.08271e-07
6.55556e-07
-8.52957e-07
9.09195e-07
8.52957e-07
-9.05885e-07
-7.11242e-07
9.05885e-07
-1.94642e-07
3.735e-07
-4.15088e-07
-8.65042e-08
1.15539e-07
-3.02231e-07
2.52787e-07
-2.83092e-08
-7.0325e-08
1.35552e-07
-4.39273e-07
9.87112e-08
9.4169e-08
7.27601e-08
5.09803e-07
-5.82563e-07
-3.12638e-07
-6.63187e-07
1.78652e-07
7.41349e-08
1.77077e-07
-5.5778e-07
3.80702e-07
5.27389e-07
-5.76689e-07
-4.67084e-07
4.928e-07
-2.57167e-08
-6.64244e-07
6.26916e-08
-5.73887e-07
4.60548e-07
-1.93453e-08
3.31984e-08
3.10775e-08
-1.82814e-10
-3.08947e-08
-4.39637e-08
-1.67192e-07
-5.09812e-08
3.16359e-08
-8.83296e-07
3.09409e-07
-3.82652e-07
1.40987e-07
6.95225e-08
-2.91094e-08
-4.04131e-08
3.94474e-07
-2.17397e-07
2.25468e-08
-4.02494e-07
3.79947e-07
6.03191e-08
1.43738e-07
8.00867e-07
-3.31524e-07
1.14256e-07
-9.38438e-08
-8.41566e-08
-1.05287e-07
-9.88984e-08
5.8467e-07
1.48349e-07
7.88951e-07
-5.50404e-07
2.37366e-07
3.13038e-07
-1.06149e-09
1.3641e-07
-3.5256e-07
-1.97844e-07
7.85487e-08
-2.74389e-07
-7.41668e-07
3.01039e-07
4.40629e-07
-4.67502e-07
4.1808e-10
3.6975e-07
3.23879e-07
-1.63112e-07
-5.04302e-07
-9.68997e-08
3.83545e-07
-2.29426e-07
-6.59851e-08
2.95411e-07
-6.42388e-07
1.53648e-07
4.8874e-07
6.36249e-07
-9.48887e-07
9.38055e-07
-6.37016e-07
9.3719e-07
-7.26782e-07
-2.10408e-07
4.58437e-07
4.79617e-07
4.36591e-07
1.48079e-07
1.23652e-07
-2.31316e-08
-1.72562e-07
-4.69826e-07
4.08996e-07
-1.07561e-07
6.46364e-07
-4.65766e-07
-1.80599e-07
-4.36875e-07
-2.24127e-07
5.27358e-07
-5.27358e-07
-1.73856e-07
2.58257e-07
1.50739e-07
-2.07998e-07
3.5436e-08
-2.79338e-07
-1.80348e-07
-2.08598e-07
2.62608e-07
-7.47736e-07
9.01384e-07
-1.63947e-08
1.76538e-07
-1.37777e-07
3.96034e-07
-2.27207e-07
4.08459e-07
-1.81252e-07
-9.30186e-07
8.08444e-07
-9.24591e-08
-5.89647e-07
5.58519e-07
3.11284e-08
-3.28332e-07
9.6458e-07
8.62422e-07
-5.13934e-07
-3.48488e-07
-6.68479e-07
2.02713e-07
-4.85365e-07
-1.83114e-07
1.2824e-07
6.85956e-07
-8.14195e-07
-2.09899e-07
-3.79748e-07
-6.4044e-07
1.09888e-06
4.49427e-07
-6.69206e-08
-3.82506e-07
-2.41675e-08
2.41675e-08
4.76366e-07
-4.76366e-07
-1.55187e-07
-7.74999e-07
1.25216e-07
7.73991e-07
-8.99207e-07
2.46032e-07
2.09514e-07
-4.55546e-07
2.85607e-08
3.54985e-07
-8.76953e-07
1.29217e-07
3.7612e-07
-3.7612e-07
6.42485e-08
-6.42485e-08
6.86758e-07
2.35365e-07
-3.73141e-07
6.17164e-07
2.45257e-07
8.11171e-07
3.69684e-07
-7.17404e-07
2.32038e-07
-5.0789e-07
3.20996e-07
4.79872e-07
-7.42704e-07
-3.2553e-07
1.06823e-06
5.66221e-07
-2.53183e-07
-3.20065e-07
7.60694e-07
-2.73058e-07
-3.12868e-08
-7.24249e-07
7.55536e-07
4.80555e-07
1.86571e-07
7.82003e-07
-6.12179e-08
-1.47381e-07
1.99432e-07
-9.26214e-07
-4.46421e-07
9.26038e-07
3.29114e-07
-9.65969e-07
3.83635e-07
7.15242e-07
-5.38903e-07
-3.94181e-07
9.33084e-07
2.46156e-07
-4.22905e-07
-3.91291e-07
3.89434e-07
-9.28337e-07
-8.83963e-07
-5.94514e-07
9.78149e-07
-3.88248e-07
-3.36001e-07
1.94759e-07
9.88762e-07
-1.18352e-06
5.42908e-09
2.76998e-07
4.78538e-07
7.25965e-07
-4.48966e-07
-9.49355e-07
9.27282e-07
2.20725e-08
-5.11111e-08
-1.37834e-07
9.46278e-07
-7.00415e-07
-4.21364e-07
8.10798e-07
-7.98953e-07
-2.90828e-07
1.08978e-06
-8.84078e-07
6.7367e-07
3.55565e-07
-8.12123e-07
-8.92662e-07
1.41945e-07
-6.59617e-07
1.01518e-06
-1.08922e-06
2.90264e-07
6.78247e-07
-4.30155e-07
-2.48092e-07
-6.17003e-07
5.73039e-07
6.39704e-08
9.78873e-07
-1.04284e-06
-1.14814e-06
1.21211e-06
8.36029e-07
1.4212e-07
1.03079e-06
4.67225e-07
2.11021e-07
1.18958e-07
-1.70069e-07
-8.08564e-07
3.872e-07
-3.48299e-07
4.86855e-07
-1.38556e-07
-7.50779e-07
4.59951e-07
-6.96116e-08
1.43925e-07
-7.43134e-08
6.8591e-07
-6.22109e-07
-6.38002e-08
6.89069e-08
2.14322e-07
-8.36431e-07
-3.47573e-08
6.07796e-07
6.18712e-07
-9.57987e-08
-5.22913e-07
-1.10344e-07
-1.03917e-06
2.92754e-07
7.46415e-07
-9.04253e-07
3.97603e-07
5.0665e-07
8.97445e-08
5.28968e-07
5.99955e-07
4.68279e-07
-9.99392e-07
4.35472e-07
5.6392e-07
-2.13622e-07
2.13622e-07
-1.42578e-07
-2.31688e-07
-1.51696e-07
8.16558e-08
-8.16558e-08
1.23323e-07
-1.23323e-07
-1.56613e-07
5.06104e-07
-1.05678e-06
5.5068e-07
-6.38803e-08
6.38803e-08
-1.39886e-07
1.39886e-07
-2.00009e-07
-1.28187e-07
1.28187e-07
1.86366e-07
-1.86366e-07
7.35678e-08
1.19232e-07
-1.19232e-07
1.53841e-07
2.08013e-07
1.38e-07
-1.9042e-08
3.84398e-07
4.7411e-07
-8.58508e-07
-2.46936e-08
2.46936e-08
5.04884e-07
-8.53182e-07
-1.17193e-06
5.37403e-07
4.61729e-09
-4.61729e-09
-5.34025e-07
1.0387e-07
5.55434e-07
-6.75812e-07
1.20378e-07
-4.64134e-07
-7.39594e-07
1.20373e-06
-6.40923e-07
-3.98246e-07
-1.04906e-06
5.84922e-07
-3.50774e-07
-1.83251e-07
-6.17006e-07
-2.87247e-07
-5.85446e-09
1.10744e-07
-1.04889e-07
-7.54661e-08
-1.02182e-06
3.42149e-07
-2.52404e-07
1.03764e-07
-5.59333e-07
4.5557e-07
-6.92886e-07
4.2624e-07
-2.93669e-07
-1.3257e-07
-8.0502e-07
7.70263e-07
2.47795e-07
-7.94006e-07
7.24532e-07
6.94743e-08
-6.65828e-07
-1.59379e-07
8.55098e-07
-7.86191e-07
9.27389e-07
-7.13067e-07
-5.51901e-07
9.47805e-07
-6.79878e-07
-2.67926e-07
-4.84793e-08
1.59223e-07
-6.37274e-07
-4.11782e-07
-8.1306e-07
7.17262e-07
-2.97748e-07
1.63598e-07
-8.66352e-07
7.02754e-07
8.05454e-07
-7.01691e-07
9.80018e-07
-6.87264e-07
3.42188e-07
4.82762e-07
-8.2495e-07
-1.90057e-07
5.52494e-07
-3.62437e-07
5.01522e-08
1.03994e-06
-6.42338e-07
-3.66246e-07
-2.87503e-07
6.53749e-07
4.03396e-07
-6.59263e-07
2.55867e-07
1.08624e-06
-6.50765e-07
-4.58396e-07
-1.00938e-07
2.83679e-07
1.21902e-06
-6.81616e-07
-6.92566e-07
5.59995e-07
5.00772e-08
-2.3743e-08
9.69266e-07
-9.19114e-07
1.41199e-07
2.34737e-07
3.99018e-07
5.32471e-07
-7.22529e-07
-8.85285e-08
3.0014e-07
8.29493e-07
1.63725e-07
-7.52854e-07
5.89129e-07
-4.3098e-07
1.02294e-06
-5.9196e-07
8.37933e-07
-4.34537e-07
6.69078e-07
-1.33491e-06
1.86249e-07
-3.17075e-07
4.69231e-07
-7.67725e-07
5.84474e-07
-3.73493e-07
-1.4909e-07
5.26133e-07
6.10659e-07
-8.98162e-07
-5.27794e-07
1.01056e-06
-1.03368e-06
3.46421e-07
-1.08893e-06
4.46597e-07
1.15616e-06
-1.86898e-07
8.58416e-07
-5.9923e-07
-5.70025e-07
1.16926e-06
-8.38295e-07
5.90204e-07
-1.28085e-06
-4.52915e-07
-3.72035e-07
-1.16759e-06
5.16829e-07
3.98513e-07
5.80475e-07
-1.32007e-06
-6.19703e-07
-6.34667e-07
-2.0773e-07
5.14817e-07
6.79516e-07
2.77563e-07
-9.57079e-07
5.20471e-07
-3.56746e-07
2.43929e-07
-5.76802e-08
9.79656e-07
4.75291e-07
1.78458e-07
-1.1163e-07
7.61118e-07
-6.49488e-07
-8.00611e-07
9.4181e-07
6.11769e-07
-6.41461e-07
6.48996e-07
-8.6329e-07
8.39547e-07
-2.37147e-07
8.26275e-07
1.02521e-06
-1.93232e-07
8.95985e-07
-7.22935e-07
-1.84181e-07
9.07115e-07
7.54431e-07
-1.30633e-06
7.602e-07
-9.09291e-07
-5.76937e-07
6.81319e-07
-1.04382e-07
4.03187e-07
-9.16167e-07
-2.53821e-07
6.88255e-07
5.1218e-07
-6.03028e-07
-4.47916e-07
-7.42509e-07
9.77246e-07
-8.38834e-07
8.88911e-07
2.75236e-07
-1.55966e-07
-7.76732e-07
5.05552e-07
2.7118e-07
4.52507e-07
1.76635e-07
-6.24739e-07
9.14735e-07
-2.89995e-07
1.02976e-07
-2.56211e-08
-7.55914e-07
7.81535e-07
-1.00036e-06
3.6569e-07
8.9727e-07
-3.07067e-07
-4.24167e-07
1.09285e-06
-5.76019e-07
1.09336e-07
-8.11027e-07
-5.53761e-07
-3.09507e-07
1.07849e-06
5.87763e-07
-8.88483e-07
7.99955e-07
-9.31806e-07
4.73145e-07
6.66292e-07
-9.20113e-07
-4.89363e-08
3.53502e-07
5.61232e-07
-5.14114e-07
8.22658e-07
-3.08544e-07
2.31858e-07
6.75258e-07
-8.04109e-07
-4.54227e-07
-2.65513e-07
2.96865e-07
8.67562e-07
-1.31548e-06
1.88643e-07
4.92676e-07
9.41265e-07
-4.52893e-07
-4.96068e-07
9.48961e-07
6.93813e-08
-5.27777e-07
-9.15252e-07
5.21071e-07
7.41645e-07
-7.90582e-07
-7.21474e-08
5.84327e-07
3.00092e-07
-7.1805e-07
4.17958e-07
-1.22915e-07
-4.80113e-07
1.12214e-06
3.93199e-07
5.48066e-07
-3.77701e-07
-4.80807e-07
8.98751e-07
3.05044e-07
5.17614e-07
-8.74958e-07
4.97257e-07
-9.337e-07
-8.28061e-07
5.03138e-07
-2.03046e-07
-5.6838e-07
-7.25085e-07
-3.85634e-07
-8.48e-07
6.71365e-07
1.54911e-07
-8.63901e-07
5.98388e-07
-4.20517e-07
-4.94735e-07
-9.04679e-09
-2.05722e-07
-6.52039e-07
4.02683e-07
-3.37317e-07
8.58387e-07
1.46094e-07
-1.40665e-07
-4.80642e-07
-3.94316e-07
-6.8453e-07
8.43996e-07
-5.87902e-07
8.66277e-07
-4.4687e-07
-1.2056e-08
3.06811e-07
1.96327e-07
-3.09452e-07
8.20641e-07
5.69513e-07
-3.69618e-07
-1.99895e-07
2.60061e-07
4.00124e-07
-2.75309e-07
9.04684e-07
-6.29376e-07
7.06934e-07
9.57971e-07
-1.75968e-07
-7.83199e-07
6.85672e-07
-1.92996e-07
8.20138e-07
4.79951e-07
5.84596e-07
-1.54798e-07
5.23138e-07
3.35249e-07
-6.7357e-07
-2.52645e-07
-5.59933e-08
-8.46712e-08
2.84566e-07
-8.82394e-08
2.19243e-07
-9.07634e-07
2.34065e-07
1.727e-07
2.35759e-07
6.09357e-07
-1.28802e-07
8.76383e-07
-2.9047e-07
-9.19845e-07
8.21384e-07
-5.8732e-07
-1.36854e-07
-1.69635e-07
4.38999e-07
-2.69364e-07
-9.09035e-07
-7.13433e-08
1.68102e-07
1.80639e-07
-7.91813e-07
-1.05055e-07
1.91909e-08
-5.62002e-07
4.08065e-07
3.64089e-08
2.16173e-07
1.63227e-07
3.73254e-08
-4.61111e-08
1.45649e-07
2.32153e-07
1.61762e-07
1.25662e-07
3.98427e-07
4.89961e-07
6.93629e-08
-1.51528e-08
-5.421e-08
-8.81105e-07
-2.80466e-07
4.81362e-07
-1.52248e-07
6.45156e-08
1.30933e-07
2.24498e-07
3.04915e-07
-8.18781e-07
-3.80968e-07
1.13515e-07
8.19331e-08
-1.38572e-07
5.0333e-08
2.55816e-07
8.06705e-08
-5.24676e-07
9.28204e-08
3.20633e-08
-9.52448e-07
9.95377e-08
6.3058e-07
4.24091e-08
2.69538e-08
4.0355e-07
-4.0393e-07
-2.76768e-07
-5.58461e-07
4.52705e-07
2.26278e-07
7.14459e-07
-2.6813e-07
-1.09925e-06
-9.04618e-08
-9.50898e-07
2.0324e-07
1.58744e-07
-4.4506e-07
1.1168e-07
-1.41571e-07
-1.41789e-07
1.71922e-07
7.43832e-08
-9.21129e-08
-1.76017e-07
-3.35195e-07
4.46502e-07
-8.3475e-07
-9.72768e-08
-8.29236e-08
2.50855e-07
-5.13842e-07
-5.2048e-07
3.22636e-07
5.84164e-07
1.57225e-07
-1.14218e-07
-4.30069e-08
-1.6144e-08
5.89247e-08
-5.05065e-08
-6.34314e-08
-3.04367e-07
-2.10223e-08
-1.6144e-08
-2.64663e-07
1.85597e-07
-9.2777e-08
4.85002e-08
-1.49657e-07
3.14494e-07
-8.83723e-08
5.01403e-07
-4.92357e-07
-3.54206e-08
8.6408e-07
-6.53195e-08
-3.07923e-07
1.36716e-07
1.71207e-07
-1.37767e-07
-1.66479e-07
-1.82262e-07
-3.60674e-07
-1.93117e-07
-6.62817e-08
-6.33114e-08
1.13052e-06
2.01178e-07
2.85677e-07
5.32213e-07
-5.5846e-08
8.50683e-08
-4.53495e-07
-6.39497e-08
3.97822e-08
4.53495e-07
6.39497e-08
2.1827e-07
5.32213e-07
1.54872e-07
-7.39332e-07
4.52085e-07
7.43292e-07
-4.98035e-07
2.11598e-07
-2.14034e-08
-4.24769e-08
-7.29115e-09
-1.74025e-08
1.06872e-07
-1.43639e-07
-1.64339e-07
-6.73491e-08
-2.14034e-08
-5.42791e-08
-2.73767e-08
7.90331e-08
4.429e-08
8.6427e-08
-1.54259e-07
1.43736e-08
-1.06872e-07
-2.13157e-08
1.43639e-07
-1.54518e-08
1.64339e-07
-4.51068e-08
-8.6427e-08
-3.28049e-08
1.54259e-07
5.42791e-08
-7.29115e-09
7.90331e-08
-2.27601e-08
-5.71656e-07
9.52797e-08
-3.54241e-07
6.51106e-07
3.3923e-07
-4.04549e-07
3.91799e-08
-5.07239e-08
1.55972e-07
8.86152e-07
-4.92302e-07
1.72516e-07
-4.20716e-07
-5.07239e-08
2.03785e-07
-4.14806e-07
4.46948e-07
-4.60611e-07
5.77165e-07
-1.57257e-07
3.39336e-08
1.57257e-07
-5.07174e-07
4.50321e-07
5.68528e-08
-8.02176e-07
-2.39455e-07
2.12623e-07
-5.40899e-07
2.77703e-07
5.19424e-07
-5.88898e-07
-4.28074e-07
3.23692e-07
-5.40068e-08
5.92515e-08
3.43679e-07
2.20051e-07
-5.0016e-07
3.23255e-07
2.97945e-07
-5.70737e-07
5.70737e-07
-1.90976e-07
-5.30728e-07
-2.36661e-07
3.43679e-07
3.82955e-07
-3.90088e-07
3.3447e-07
-1.60351e-07
-2.42144e-07
1.46652e-07
-3.2511e-07
7.23655e-07
-4.55729e-07
-1.66811e-07
1.66811e-07
-1.74483e-08
-1.81952e-07
-6.21754e-08
6.21754e-08
-3.68614e-07
3.68614e-07
-1.97447e-07
1.06386e-08
1.40145e-07
-3.96171e-07
-4.44475e-08
4.40618e-07
5.1464e-07
-5.1464e-07
5.20486e-08
1.14689e-07
2.65259e-07
-1.82813e-10
-7.19033e-07
1.11523e-07
2.48866e-08
9.60717e-08
-4.6408e-07
-5.84517e-07
-5.16972e-08
-1.25513e-08
-1.33951e-07
-6.98072e-08
9.29824e-09
8.48364e-08
-1.79123e-09
1.10895e-08
-9.38766e-07
-1.3682e-08
-1.584e-07
-2.55308e-07
-5.01889e-07
1.47648e-07
1.71922e-07
1.23512e-08
1.67884e-07
6.2735e-08
-1.23852e-07
1.59412e-07
-1.59412e-07
-1.10231e-07
5.70182e-07
-4.88065e-07
-9.00463e-08
-7.17766e-08
7.17766e-08
-8.02191e-07
-4.50177e-07
1.06093e-07
-6.55522e-09
-1.75412e-07
-2.70532e-07
4.46837e-07
-1.76305e-07
-5.93012e-07
2.03631e-07
3.89381e-07
-3.08947e-08
7.30426e-08
3.12053e-07
-2.0596e-07
-3.72115e-07
-3.70248e-08
3.70248e-08
2.90271e-07
4.37659e-07
-3.5911e-07
1.5116e-07
1.34516e-07
-3.28847e-08
2.23631e-07
3.57893e-08
-3.02741e-07
2.95526e-07
-5.66058e-07
-3.44344e-07
-6.12461e-07
7.6054e-07
6.78412e-08
-2.60958e-07
-9.86003e-08
3.27839e-07
-2.10387e-07
6.85988e-08
5.16972e-08
1.18425e-07
4.74313e-08
-1.25005e-07
1.16965e-07
1.4597e-09
7.28541e-07
-8.53546e-07
2.05129e-07
1.72638e-07
-1.3085e-07
5.34522e-07
4.38678e-09
5.26977e-07
-6.64291e-08
-6.62112e-07
2.07877e-07
-3.94171e-08
2.5812e-07
-2.22684e-07
-1.15035e-08
5.84219e-07
-5.96275e-07
3.22095e-07
-4.98393e-08
1.87569e-07
5.21593e-08
6.41072e-07
1.31187e-07
-1.74416e-07
1.61675e-07
1.53071e-07
-6.21992e-07
5.44137e-07
3.80102e-07
-2.32454e-07
3.34995e-07
-1.13973e-07
1.17722e-07
-9.0069e-08
-2.11438e-07
-8.45048e-07
1.29772e-07
-3.23686e-07
5.01983e-09
5.60969e-08
3.21284e-07
3.53933e-08
-8.45682e-08
1.20713e-07
-1.03287e-07
1.71886e-07
-6.13011e-09
7.49859e-08
)
;

boundaryField
{
    back
    {
        type            empty;
        value           nonuniform List<scalar> 0();
    }
    front
    {
        type            empty;
        value           nonuniform List<scalar> 0();
    }
    top
    {
        type            calculated;
        value           nonuniform List<scalar> 10(-3.48741e-07 -3.794e-07 -2.87424e-07 -1.95448e-07 -1.95448e-07 -2.87424e-07 -3.48741e-07 -7.28141e-08 -7.28141e-08 -3.794e-07);
    }
    outer_arc
    {
        type            calculated;
        value           uniform 0;
    }
    bottom
    {
        type            calculated;
        value           nonuniform List<scalar> 10(9.80379e-07 5.42811e-07 8.78572e-09 -3.77802e-07 -8.88388e-07 1.16157e-06 -5.29412e-07 1.19975e-06 -5.08759e-07 9.78721e-07);
    }
    inner_arc
    {
        type            calculated;
        value           uniform 0;
    }
}


// ************************************************************************* //
