/*--------------------------------*- C++ -*----------------------------------*\
  =========                 |
  \\      /  F ield         | OpenFOAM: The Open Source CFD Toolbox
   \\    /   O peration     | Website:  https://openfoam.org
    \\  /    A nd           | Version:  9
     \\/     M anipulation  |
\*---------------------------------------------------------------------------*/
FoamFile
{
    format      ascii;
    class       surfaceScalarField;
    location    "1.21";
    object      phi;
}
// * * * * * * * * * * * * * * * * * * * * * * * * * * * * * * * * * * * * * //

dimensions      [0 3 -1 0 0 0 0];

internalField   nonuniform List<scalar> 
2420
(
1.52673e-06
-1.51354e-06
-1.31934e-08
-8.84091e-07
8.84091e-07
-1.56548e-06
-8.17139e-07
2.38262e-06
-1.04889e-06
1.04889e-06
-2.27125e-06
1.01357e-06
1.25768e-06
1.73124e-06
-1.66919e-06
-6.20542e-08
-1.92389e-06
3.58407e-07
-1.59531e-06
2.94534e-07
1.30078e-06
1.74438e-06
-2.58817e-06
8.43782e-07
-1.49821e-06
-7.73042e-07
-1.68277e-06
7.17924e-07
9.64844e-07
-1.17502e-06
-5.07753e-07
-1.59531e-06
-5.86599e-07
-4.43403e-07
1.03e-06
-2.00726e-07
-7.5066e-07
9.51386e-07
-7.62277e-07
1.15037e-06
-3.88091e-07
-7.69299e-07
2.58043e-07
5.11255e-07
-2.08931e-06
1.71219e-06
3.77121e-07
-1.49673e-06
1.55072e-06
-5.39951e-08
-7.41635e-07
1.55035e-07
-5.22577e-08
1.19106e-06
-1.13881e-06
-3.51205e-07
-1.57501e-06
1.7894e-06
-2.144e-07
-1.88796e-06
3.12952e-07
4.58876e-07
1.06786e-06
-3.01975e-07
-4.67323e-07
1.1692e-07
-8.79197e-07
-9.71621e-07
-1.23192e-06
2.20354e-06
-1.97171e-06
1.00009e-06
1.15487e-06
-5.14699e-07
-6.4017e-07
1.63322e-06
-1.64691e-08
-1.61675e-06
-1.59865e-06
2.2463e-06
-6.47654e-07
-2.51998e-06
2.53925e-06
-1.92679e-08
2.52807e-06
-1.33517e-06
-1.1929e-06
-4.33206e-07
-1.6561e-06
1.5125e-06
1.01558e-06
5.58477e-07
1.17277e-06
-5.162e-07
-3.67891e-07
-1.80672e-07
-2.33931e-06
2.10536e-07
6.73555e-07
7.02173e-07
-7.54431e-07
1.6129e-06
4.5483e-07
-2.06773e-06
1.96945e-06
-2.15012e-06
-1.36237e-06
1.31426e-06
4.8113e-08
-6.61816e-07
1.00224e-06
-3.40424e-07
-1.44474e-07
-9.0442e-07
4.73202e-07
5.75693e-07
-8.34973e-07
1.73157e-07
-1.51744e-06
1.88611e-06
-3.68667e-07
-2.49599e-07
2.21905e-06
-1.36568e-06
-3.03513e-07
-2.41579e-06
-1.76146e-07
-2.45797e-08
-1.24373e-06
-1.34443e-06
2.87659e-06
-1.30083e-06
-1.57576e-06
-3.32059e-07
-1.28001e-06
1.61207e-06
1.84229e-08
-2.51009e-07
2.32586e-07
1.19426e-06
-4.76332e-07
-1.22191e-06
1.32866e-06
-1.06753e-07
8.34021e-07
-1.16608e-06
9.34983e-08
1.53972e-06
1.57104e-06
-1.52207e-06
-4.89694e-08
-1.11192e-06
-4.01618e-07
-1.60755e-06
1.90208e-06
-1.32881e-06
1.02898e-06
2.99834e-07
1.76853e-06
-1.785e-06
9.70709e-07
-1.18026e-06
2.09552e-07
-1.04775e-06
1.22989e-06
-1.82138e-07
-1.80619e-06
1.37298e-06
-2.75056e-07
1.46507e-07
-1.55359e-07
1.17126e-06
-1.41593e-06
2.44666e-07
1.62559e-07
-9.13219e-07
-1.31272e-06
-1.15387e-07
1.42811e-06
8.39994e-07
-6.21856e-08
-7.77808e-07
-1.82125e-06
-1.50457e-07
-1.43984e-07
-1.6622e-06
7.20596e-07
3.54449e-07
8.00421e-07
-6.43611e-07
-6.85203e-07
8.18403e-07
2.15906e-08
1.5964e-06
1.28018e-06
-5.03273e-07
-8.59097e-07
5.41401e-07
1.06148e-06
-1.60288e-06
-1.08322e-06
2.16722e-06
-1.08399e-06
-1.63651e-06
3.23785e-07
1.26671e-06
-9.54456e-08
1.38576e-06
-5.1764e-07
-8.68118e-07
1.6283e-06
5.16464e-07
-2.14476e-06
1.88558e-06
-2.57282e-07
1.34072e-06
1.0419e-06
-4.65285e-07
-1.03144e-06
1.37727e-07
-1.65517e-06
-1.703e-08
-2.3127e-07
2.483e-07
3.72e-07
1.17872e-06
9.9004e-07
-1.9331e-08
-1.30153e-06
7.96188e-08
1.44632e-06
7.99984e-07
-2.69909e-06
1.0389e-06
1.66019e-06
-9.79782e-09
1.35052e-06
7.5191e-07
-9.13327e-07
1.61417e-07
1.15963e-06
7.26478e-07
9.31438e-07
-1.79528e-07
-2.64739e-06
1.19731e-06
1.45007e-06
4.33499e-07
1.13754e-06
-2.28942e-06
9.59627e-07
1.3298e-06
1.05057e-07
-6.19756e-07
-1.1266e-06
-1.5725e-06
-2.15113e-06
8.71119e-07
-8.55868e-08
-1.90928e-06
1.99487e-06
2.25475e-07
-1.40049e-06
-1.76186e-06
-3.89266e-07
1.79317e-06
-1.25176e-06
2.31623e-06
-8.07267e-07
-1.50897e-06
8.0236e-07
-1.52843e-06
-7.60998e-07
1.18419e-06
4.08454e-07
9.77304e-07
-1.14908e-06
-1.49831e-06
-1.02783e-07
-1.65908e-06
4.74612e-08
1.85633e-06
-1.90379e-06
2.51823e-07
1.64631e-06
-1.89813e-06
-2.23555e-07
-1.3534e-06
1.57695e-06
7.86896e-07
2.03145e-07
-2.17023e-06
7.73249e-07
1.39698e-06
-1.88014e-06
1.63054e-06
6.6966e-07
-6.8669e-07
6.1401e-07
5.36358e-07
9.92345e-07
-2.15567e-06
1.16333e-06
1.70286e-06
-4.20022e-07
-1.28283e-06
-1.9824e-06
1.89681e-06
-2.36622e-06
7.58671e-07
-1.17028e-06
-9.99948e-07
-3.00465e-07
3.00465e-07
-1.16322e-06
2.6762e-07
8.95601e-07
-1.056e-06
-8.47486e-07
1.90348e-06
-1.76146e-07
-2.51009e-07
-7.93741e-07
-3.8652e-07
8.34021e-07
3.49506e-07
-2.32586e-07
-3.49506e-07
2.84818e-07
6.46881e-08
-3.01239e-07
-1.09221e-06
1.39345e-06
2.78881e-08
-5.11255e-07
4.83367e-07
1.09221e-06
-1.04475e-06
2.99724e-07
-1.39345e-06
1.09373e-06
-1.26886e-06
1.16608e-06
-1.75138e-07
1.26886e-06
-1.09373e-06
8.14815e-07
-7.1028e-07
-1.04535e-07
-8.14815e-07
9.08313e-07
7.1028e-07
-4.83367e-07
-2.26913e-07
1.04475e-06
-1.16014e-06
1.16014e-06
-9.08313e-07
9.11728e-07
1.25549e-06
-1.54298e-07
-1.72585e-06
-1.44476e-07
1.17346e-06
1.49726e-06
-2.2204e-06
7.23145e-07
7.87808e-07
2.87827e-07
1.79698e-06
-5.46014e-07
-1.06605e-06
1.61206e-06
-2.37212e-06
1.12839e-06
-1.22813e-06
-9.92277e-07
-1.52937e-06
-1.5307e-07
-1.14846e-06
-2.57635e-06
1.33731e-06
-2.14458e-06
-1.26431e-07
-1.33257e-06
1.18858e-06
-8.77157e-07
1.1352e-06
-1.70053e-06
-1.18717e-06
2.88771e-06
1.31939e-06
-1.49453e-06
-2.37753e-06
9.8908e-07
1.38845e-06
-1.4179e-06
2.82416e-07
1.42044e-06
-8.36895e-08
-1.24888e-06
5.1402e-07
1.5917e-06
-2.10572e-06
-6.27929e-07
-1.13706e-07
2.12853e-06
-2.79842e-06
1.09789e-06
6.45614e-08
-1.43024e-06
-1.27915e-06
1.05559e-06
-6.67156e-07
-2.20022e-07
8.87178e-07
-2.40765e-06
4.05631e-07
2.00201e-06
7.53579e-07
6.48244e-08
-1.89363e-06
-4.05251e-07
-1.87008e-06
2.27533e-06
-1.8083e-06
-9.90119e-07
7.09576e-07
2.92664e-07
-4.2908e-07
-1.09299e-06
2.0687e-06
-1.80718e-06
-2.61522e-07
-4.13947e-07
-2.00184e-06
-2.50024e-06
2.72399e-07
2.22784e-06
-1.95408e-07
1.66345e-06
-2.09461e-06
3.63501e-07
-8.81141e-07
-2.4941e-06
6.85791e-07
1.81325e-07
-1.04854e-06
8.67216e-07
-6.57357e-07
8.38682e-07
1.94672e-06
3.25535e-07
-2.27226e-06
-1.00863e-07
1.29193e-06
-2.4889e-06
1.9056e-06
5.83301e-07
-1.77117e-06
-3.60088e-08
-1.29128e-06
2.28363e-06
-1.81085e-06
4.75677e-07
5.50124e-07
-2.44326e-06
1.89313e-06
1.90102e-06
-2.31497e-06
-9.52686e-07
2.11056e-06
6.95691e-08
-6.97498e-07
3.42847e-07
-1.13659e-06
-3.26962e-07
1.83946e-06
-1.45187e-06
9.05856e-07
2.0153e-06
3.66934e-07
-2.38223e-06
-6.39093e-07
-1.855e-06
-8.13942e-08
1.27904e-07
1.82368e-06
7.15568e-07
-1.89354e-06
2.48627e-06
-5.92733e-07
-6.65217e-07
2.38546e-06
-2.5461e-06
1.60631e-07
-6.64944e-08
2.45196e-06
1.68944e-06
-2.29965e-06
2.10473e-06
1.94922e-07
-2.20706e-06
-9.25897e-08
-2.00128e-06
1.85922e-06
1.42066e-07
-2.10232e-06
2.29776e-06
-1.95445e-07
-2.39651e-06
2.94193e-07
3.68725e-08
-1.69907e-06
2.50638e-06
-6.0078e-07
-1.76706e-06
-2.34224e-07
-2.2737e-06
6.27926e-08
-1.83397e-06
-2.40081e-06
2.33432e-06
-1.86083e-06
2.48284e-06
-6.22012e-07
1.04454e-06
-8.46729e-07
1.79573e-07
7.07948e-07
-2.56878e-06
7.49472e-08
2.25518e-07
-2.15891e-06
2.65367e-07
-8.75368e-07
7.79922e-07
-1.53084e-06
7.66493e-07
7.64349e-07
-1.28346e-06
-1.08866e-06
-1.72969e-07
1.84718e-06
1.11263e-06
2.01622e-07
1.70736e-06
-1.98645e-06
2.79087e-07
2.45114e-06
4.58613e-07
2.04777e-06
-4.27958e-07
7.84168e-07
1.98806e-06
-2.77223e-06
-1.88161e-06
-2.77299e-07
8.08958e-07
-8.92648e-07
2.23893e-06
-1.52336e-06
7.21226e-07
-1.97436e-06
1.25314e-06
2.03225e-06
-4.40542e-07
2.48654e-06
-3.45853e-08
-1.94803e-06
1.96583e-06
-2.58473e-07
2.23385e-06
-1.65774e-06
-5.76111e-07
1.69438e-06
5.44544e-07
1.04784e-06
-1.20214e-06
1.89103e-06
-2.55624e-06
1.48808e-06
-4.63807e-07
-1.02428e-06
-2.45797e-08
-1.71814e-06
1.75501e-06
-1.37153e-07
2.76997e-07
1.75525e-06
-1.67718e-06
-2.18933e-08
-1.78007e-06
6.19277e-08
-7.06093e-07
-8.24749e-07
-2.73799e-08
-1.85423e-06
-2.36724e-06
1.5663e-06
8.00931e-07
2.46637e-06
-8.50957e-07
-1.61541e-06
7.03783e-07
1.78558e-06
-2.48936e-06
2.22818e-06
-1.78889e-06
-4.39291e-07
3.0776e-08
-1.81084e-06
1.41507e-07
-3.17653e-07
-1.01669e-06
1.1582e-06
1.80718e-06
-1.74525e-06
1.80357e-06
-2.06509e-06
2.68002e-06
-1.76433e-06
-9.1569e-07
2.27768e-06
9.89116e-08
1.77117e-06
2.54912e-08
4.56521e-07
1.40591e-06
-1.86243e-06
1.52034e-06
-2.70751e-06
-1.7557e-06
1.81849e-06
2.58543e-06
-4.02902e-07
-2.18252e-06
1.30078e-06
-2.77504e-07
2.25518e-07
2.46486e-06
-1.54056e-06
-9.24297e-07
-1.90814e-06
2.7031e-06
-7.94968e-07
-8.76323e-07
1.01405e-06
-8.76323e-07
-2.28949e-06
2.52757e-06
-2.38077e-07
2.33573e-06
1.50811e-07
-2.1449e-06
2.66273e-06
-5.17831e-07
-2.27901e-06
2.10604e-06
1.8136e-06
-1.60637e-07
-1.65296e-06
2.57864e-06
-2.4291e-07
-5.87976e-08
1.8664e-06
-1.8076e-06
9.69354e-07
-9.41466e-07
-1.44702e-06
2.16825e-06
7.2488e-07
5.78951e-08
2.88347e-06
2.21856e-06
3.60083e-07
-1.89389e-06
2.67806e-06
-1.04468e-06
1.5012e-06
7.71883e-07
2.95936e-07
5.58204e-07
-8.24802e-07
9.0442e-07
-8.24802e-07
5.70449e-07
-5.71236e-07
2.5593e-06
1.99211e-06
-1.59368e-06
-3.98428e-07
-1.83038e-06
2.28899e-06
-2.46599e-07
-3.24231e-07
3.24231e-07
2.14723e-06
-4.1187e-08
1.71282e-06
-1.87346e-06
2.27835e-06
5.59689e-08
1.67346e-06
3.18641e-07
1.95045e-06
-2.47284e-06
2.43825e-06
-1.21145e-07
-2.68886e-06
-2.39017e-06
-6.0765e-08
2.45094e-06
-1.64641e-06
-2.21612e-06
9.05579e-09
-3.17653e-07
1.37397e-07
2.25983e-06
2.16023e-06
1.91494e-06
-1.59687e-07
1.21499e-06
-1.21499e-06
-1.65815e-06
1.98369e-06
8.16447e-08
-2.06213e-06
2.62033e-06
1.36794e-06
-2.59831e-06
1.23037e-06
-4.39174e-07
2.65773e-06
-2.5336e-06
2.56421e-06
-1.25955e-07
-1.84227e-07
1.80572e-06
-1.62149e-06
2.03932e-06
-2.52258e-06
4.83265e-07
5.16368e-07
4.47304e-07
-1.13192e-06
2.49985e-06
1.564e-06
-2.65149e-06
1.08749e-06
3.1926e-07
-3.1926e-07
1.56091e-06
-1.17407e-06
1.17407e-06
-2.1016e-06
2.18058e-06
-5.5117e-08
-2.12546e-06
-4.7378e-07
4.7378e-07
-2.66291e-06
3.82018e-07
-3.82018e-07
2.63571e-06
-2.3213e-06
-3.14416e-07
1.13617e-06
-1.13617e-06
-1.83719e-06
2.00535e-06
-5.53041e-07
-1.4523e-06
1.34956e-06
1.97619e-06
-1.16972e-07
-2.37297e-06
1.62873e-06
-1.48666e-06
2.57938e-06
-1.01538e-06
1.4388e-06
-2.01491e-06
-1.73146e-06
-9.20025e-07
-3.51219e-07
2.61105e-06
-1.07797e-06
2.19654e-06
1.77834e-06
-1.86964e-06
2.42916e-06
-1.58601e-07
-2.01899e-06
3.6084e-07
4.54789e-07
1.55056e-06
-1.70777e-06
-9.99744e-07
2.47641e-06
-2.54757e-08
2.68e-06
-4.83461e-07
2.08806e-06
5.69671e-07
-2.41538e-06
-1.31527e-06
-5.73512e-07
1.88879e-06
1.38121e-06
-1.60829e-06
2.27071e-07
1.18705e-06
1.39232e-06
-2.20921e-06
4.20316e-07
5.29116e-07
1.53001e-06
-2.05913e-06
2.48557e-06
-4.37808e-07
-2.69789e-06
-1.57035e-06
-4.48643e-07
-5.162e-07
1.49205e-06
-2.04509e-06
-1.08621e-06
1.08621e-06
-2.64352e-06
1.36209e-06
1.28144e-06
-2.68701e-06
9.55553e-07
2.02117e-06
2.15116e-06
3.34412e-07
-2.66567e-06
1.13469e-06
1.53098e-06
-8.50705e-07
-1.99297e-06
-4.03541e-07
-1.90199e-06
-7.85022e-07
6.25692e-07
2.05431e-06
5.81341e-07
-1.89661e-06
-1.45647e-06
9.88612e-07
-2.28009e-06
1.29148e-06
2.71376e-06
6.46786e-07
-2.60303e-06
1.95625e-06
-3.63484e-08
-1.15303e-06
1.18937e-06
4.89872e-07
2.35046e-06
2.2032e-06
-1.34999e-06
2.23963e-06
-8.89636e-07
-2.62492e-06
1.3079e-06
-2.37502e-06
1.06711e-06
2.70109e-06
9.5298e-07
3.89095e-07
-1.34208e-06
-1.30358e-06
-1.10586e-06
-1.26421e-06
2.37007e-06
-2.52902e-09
2.18311e-06
-1.78532e-06
-4.86938e-07
-9.06273e-07
9.06273e-07
-1.42151e-06
2.5562e-06
2.73742e-06
-1.12097e-06
-1.61645e-06
4.94023e-07
-2.06437e-06
1.94233e-06
7.7143e-07
-1.79299e-06
2.74854e-06
-2.52737e-06
-2.24629e-06
1.10888e-06
1.13741e-06
4.27491e-07
-1.01677e-06
-1.22952e-06
-1.62561e-06
-2.33347e-06
9.83475e-07
1.9939e-07
1.94818e-06
-2.14757e-06
1.4868e-06
9.21664e-07
-2.40847e-06
-1.62757e-06
2.71506e-06
-8.46664e-07
-1.47083e-06
-1.25859e-06
2.72942e-06
1.93096e-06
-6.76962e-07
-1.254e-06
-2.74143e-06
9.48439e-07
1.22286e-06
2.29652e-06
-1.45098e-06
2.34604e-06
-8.95052e-07
1.26659e-06
-1.758e-06
1.95739e-06
-1.28344e-06
1.86479e-06
-7.05776e-07
-7.99104e-07
2.69678e-06
-1.42584e-06
-1.27094e-06
1.27833e-06
1.06771e-06
2.19315e-06
-9.14818e-07
1.91395e-06
6.22354e-08
2.02403e-06
2.04427e-06
5.67769e-08
-2.10104e-06
1.10479e-06
1.08836e-06
2.01209e-06
-9.073e-07
-9.33907e-07
-1.23969e-06
2.17359e-06
9.11182e-07
1.72735e-06
-2.63853e-06
1.19314e-06
-2.45765e-06
1.26451e-06
2.60899e-06
-6.54307e-07
-1.39079e-06
1.12268e-06
1.5741e-06
-1.49539e-06
2.41706e-06
-1.03824e-06
-1.07286e-06
2.1111e-06
-1.18188e-06
1.06854e-06
1.34807e-06
-2.41661e-06
-1.4423e-06
-6.16825e-07
3.51906e-07
-2.42979e-06
2.07788e-06
-1.73291e-09
2.046e-06
-2.33721e-06
1.23709e-06
1.10012e-06
2.65366e-06
5.14811e-07
-2.05424e-06
1.53942e-06
-2.22749e-07
1.78014e-06
-1.55739e-06
-2.30246e-06
1.85568e-06
-1.49105e-06
-3.64625e-07
-1.38911e-06
1.43616e-06
-1.61171e-06
2.12653e-06
-1.71823e-06
-8.81102e-08
1.80634e-06
9.39231e-07
-2.83238e-08
-1.92481e-06
1.95314e-06
1.6883e-06
-1.45347e-06
-2.3483e-07
1.74656e-06
6.34875e-09
-1.75291e-06
9.49086e-07
-2.44448e-06
-1.98075e-06
-1.05645e-06
2.40452e-06
2.71809e-07
1.60904e-06
-1.88085e-06
1.66355e-06
1.16589e-07
-8.032e-07
-1.17932e-06
1.98252e-06
8.71416e-07
-1.46752e-06
-4.07002e-07
-1.64723e-06
1.86804e-06
8.93571e-08
5.02731e-07
1.70164e-06
-2.20437e-06
1.85181e-06
3.86999e-09
-1.66136e-06
-1.23639e-07
-5.06518e-09
2.30089e-06
-2.29582e-06
3.706e-07
2.09656e-06
-2.46716e-06
1.12129e-06
-2.03611e-06
1.90445e-07
-2.60487e-06
7.65295e-07
1.83957e-06
-1.50879e-06
1.51514e-06
1.99246e-06
-1.48973e-06
2.42021e-06
-3.17755e-07
-2.10246e-06
-1.57375e-06
1.48564e-06
-1.22264e-06
-1.11457e-06
6.85893e-07
-6.85893e-07
4.11849e-07
-4.11849e-07
-9.08435e-07
9.08435e-07
6.73555e-07
1.01405e-06
-8.4772e-07
8.4772e-07
5.24377e-07
-5.24377e-07
-8.50151e-07
8.50151e-07
-2.1572e-06
8.81887e-07
-8.81887e-07
4.73202e-07
7.43606e-07
-7.43606e-07
-9.10942e-07
9.10942e-07
7.46867e-07
-7.46867e-07
5.08722e-07
-5.08722e-07
-1.19135e-06
1.9629e-06
-7.71554e-07
6.67728e-07
-6.67728e-07
-5.96863e-07
5.96863e-07
-3.62337e-07
1.79641e-06
-1.43407e-06
1.55734e-06
-1.44075e-06
1.63013e-06
1.97252e-07
1.90935e-06
-1.03794e-06
1.53939e-06
-1.9464e-06
1.36061e-06
-1.52861e-07
3.54705e-07
1.40017e-06
-1.75488e-06
-1.69369e-06
-5.78093e-07
2.47123e-06
6.67374e-07
1.22128e-06
-1.88865e-06
1.86987e-06
-1.99351e-06
-1.83308e-06
-3.14493e-07
-1.62111e-06
-8.2337e-07
1.99225e-06
-1.86492e-06
9.57623e-07
-1.62597e-06
-7.82503e-07
-1.9454e-06
1.1422e-06
1.86438e-06
-2.44247e-06
-2.18371e-06
3.50628e-07
2.39018e-07
-1.5001e-06
-5.64277e-07
1.8953e-06
-1.89143e-06
2.46003e-06
4.85485e-08
-5.86112e-08
1.35745e-06
-2.87326e-07
1.8941e-06
-1.34407e-07
1.62004e-06
-2.51899e-06
8.97877e-07
-2.02746e-06
2.39806e-06
-2.02553e-06
3.16167e-07
1.70937e-06
2.46471e-06
-1.89448e-06
-5.70233e-07
7.18002e-07
-2.14318e-06
2.31976e-06
-1.76578e-07
-2.23796e-06
2.23289e-06
-2.30943e-06
2.13776e-06
1.71663e-07
2.51634e-06
-1.75105e-06
-9.82107e-08
-7.4363e-07
-2.35395e-06
2.0362e-06
-2.44934e-06
-2.37325e-06
1.92303e-06
4.50219e-07
1.80349e-06
4.98231e-07
-1.98796e-06
-1.79756e-06
3.63488e-07
2.84818e-07
-2.35978e-06
5.58442e-07
1.80133e-06
1.98711e-06
-1.78985e-06
-1.5935e-06
1.5275e-07
9.59976e-07
-2.23536e-06
9.5673e-08
4.37244e-07
2.09197e-06
-1.69331e-06
-3.98662e-07
-7.15498e-07
6.21865e-07
-3.12633e-07
1.71281e-06
2.54885e-07
8.17997e-08
-7.65352e-08
-2.47873e-07
-1.77766e-06
1.59134e-06
9.64859e-07
2.15346e-06
-1.83729e-06
-2.16186e-07
-1.20289e-06
-9.02973e-08
1.29318e-06
-1.35448e-06
-3.37055e-07
-1.32232e-06
1.37087e-06
1.27632e-06
-1.42939e-06
-1.29933e-06
-4.82065e-07
1.1862e-06
-1.63768e-06
4.51477e-07
-2.58201e-06
-1.24593e-06
1.42907e-06
1.54969e-06
-1.85874e-06
5.75295e-07
1.34206e-06
6.20849e-07
-1.33729e-06
-4.64118e-07
-1.72841e-06
2.19252e-06
-1.38316e-06
5.05998e-07
-4.36746e-07
-8.91438e-07
1.83067e-06
-1.75305e-06
2.37492e-06
6.45907e-07
1.55697e-06
-2.20287e-06
1.40204e-06
9.89038e-07
-1.96963e-06
9.80593e-07
6.47407e-07
-2.40046e-06
-2.37413e-06
1.59162e-06
-2.0156e-06
2.27049e-06
2.12959e-06
-2.03392e-06
2.42282e-06
-3.16576e-07
-1.62982e-06
2.55131e-06
-1.75573e-06
-6.93607e-07
1.34826e-06
-1.13871e-06
1.9521e-07
1.70704e-06
2.03576e-06
-2.25195e-06
-2.17252e-07
1.57374e-06
-1.35649e-06
-2.15051e-06
1.04529e-06
1.10521e-06
-1.48035e-06
-2.74527e-07
1.60124e-06
-1.84911e-06
-2.21586e-06
1.32622e-06
1.81294e-06
-1.10697e-06
-7.05965e-07
-1.13101e-06
1.33416e-06
-2.30198e-06
1.45532e-06
-6.44912e-07
-1.72921e-06
1.99387e-06
-2.84501e-07
8.00267e-07
2.11135e-06
-3.64047e-07
-1.7473e-06
3.02121e-07
-1.23418e-06
-2.23396e-06
-2.31827e-06
1.67336e-06
-5.16934e-07
-1.79693e-06
-1.04364e-06
1.91938e-06
-8.75744e-07
-2.24534e-06
-1.16187e-06
1.78271e-06
-7.10357e-07
5.45174e-07
-4.83388e-07
-1.15429e-06
-1.60019e-06
-1.62647e-06
7.35029e-07
-2.15418e-06
9.97227e-07
1.15695e-06
-2.08143e-06
8.9184e-07
1.18959e-06
1.29922e-06
-1.89285e-06
2.3301e-06
-2.25417e-06
1.54381e-06
-2.34409e-06
5.20234e-07
-2.21355e-06
2.43041e-07
1.91618e-06
-2.15922e-06
-1.85214e-06
-2.09661e-06
-1.15692e-06
1.45601e-06
-2.99083e-07
-1.29615e-06
-7.41593e-07
2.03774e-06
2.40102e-06
-1.0102e-06
-3.72956e-07
1.83918e-06
-2.27593e-06
5.8081e-07
1.20706e-07
-1.9283e-06
8.00833e-07
-3.28517e-07
-1.88069e-06
-2.33454e-06
1.59602e-06
7.38522e-07
-7.6054e-07
1.88899e-06
-5.76418e-07
-1.31257e-06
-1.46956e-06
1.62686e-06
-1.12086e-06
-9.10361e-07
1.8386e-06
-9.28239e-07
-9.27647e-07
-4.06157e-07
-8.56516e-07
-1.01523e-06
1.87175e-06
-1.25612e-06
-6.89286e-07
1.82003e-06
-2.18789e-07
6.34055e-07
1.49247e-06
2.61402e-07
-1.61789e-06
2.33078e-06
-1.81055e-06
-1.19136e-06
-7.92733e-07
-1.1769e-06
-8.47155e-07
-1.48739e-06
2.1329e-06
-8.0668e-07
1.70343e-07
1.16381e-06
1.53553e-06
1.20525e-06
1.4234e-06
8.23899e-07
-2.2473e-06
7.31508e-07
-1.74171e-06
4.32734e-07
1.19412e-06
5.84817e-07
1.22812e-06
-1.19971e-06
-6.50307e-07
1.85001e-06
-2.10283e-06
-1.2141e-06
-1.90015e-06
1.4194e-06
6.17526e-07
-2.03693e-06
-1.0842e-06
-1.11716e-06
1.70198e-06
-2.16023e-06
5.37882e-07
1.62235e-06
-1.99771e-06
-9.73232e-07
2.07845e-06
-6.89404e-07
-1.34752e-06
-1.76747e-06
-1.44631e-06
-7.13929e-07
2.11763e-06
2.2788e-06
-6.68844e-07
1.41732e-06
-2.17786e-06
-2.17148e-06
3.34182e-07
-2.55293e-07
8.5842e-07
-2.06367e-06
1.09044e-06
9.94243e-07
1.94175e-06
8.4555e-07
-1.75591e-06
-6.85505e-07
-2.12116e-06
-1.30789e-07
5.41224e-07
-1.64819e-06
-1.81026e-06
9.89884e-07
1.24765e-06
-2.23753e-06
-1.18853e-06
1.97486e-06
-7.86329e-07
2.19942e-06
-2.11692e-06
8.23367e-07
1.22624e-06
-1.80266e-06
1.74746e-06
-9.24097e-07
-6.75339e-07
-7.80607e-07
-1.14873e-06
1.92934e-06
-2.19769e-06
-1.1306e-06
2.02244e-06
-1.21235e-06
1.78764e-06
-1.2518e-06
2.19468e-06
-9.4288e-07
1.118e-06
7.53753e-07
-5.04822e-07
-1.57949e-06
2.08431e-06
9.2984e-07
-2.37331e-06
1.44347e-06
-7.70654e-07
-7.66183e-07
2.18959e-06
-2.34705e-06
1.09526e-06
-1.96914e-06
2.01852e-06
-1.02427e-06
-1.07875e-06
-2.03295e-06
1.08122e-06
-1.95696e-06
-2.21249e-06
-2.10207e-06
8.89725e-07
1.88347e-06
6.96692e-08
-2.06305e-06
6.72267e-07
6.89947e-07
1.49964e-06
8.87918e-07
4.04623e-07
1.30818e-06
-1.42697e-06
1.2979e-06
1.68058e-06
1.25764e-07
9.81457e-07
-2.00573e-06
-1.93682e-06
6.24244e-07
-2.01637e-06
5.64062e-07
9.15291e-07
1.06723e-06
2.07559e-06
-8.86e-07
1.95454e-06
-1.10899e-06
1.44019e-06
4.53905e-07
-2.02163e-06
1.10234e-06
6.45127e-07
1.03044e-06
1.23611e-06
-1.01655e-06
-1.00508e-06
3.44614e-07
1.11139e-06
1.17716e-06
-1.73642e-06
5.59255e-07
-2.02079e-06
1.3441e-06
6.76686e-07
-2.05897e-06
1.37347e-06
1.87375e-06
2.03752e-06
-1.29091e-06
-7.7214e-07
-9.75506e-07
-1.85609e-06
6.64726e-07
4.42085e-07
-1.3102e-06
-7.84676e-07
2.14683e-06
1.44041e-07
1.476e-06
2.16821e-06
-1.34431e-06
1.47325e-06
-1.19956e-06
-1.1475e-06
-1.42683e-06
-5.09991e-07
-1.43735e-06
-5.66502e-07
7.41239e-07
-1.35537e-06
-1.44326e-06
-4.74416e-07
1.91768e-06
1.70654e-06
-2.03506e-06
1.82462e-06
1.61925e-06
-1.41155e-06
4.09254e-07
1.00229e-06
-2.11567e-06
1.98488e-06
1.04488e-06
-1.61878e-06
5.73901e-07
2.00534e-06
-2.98802e-07
-8.10187e-07
-9.3152e-07
2.3042e-06
-1.86788e-06
9.39637e-07
2.00923e-06
-1.03367e-06
-8.34206e-07
-1.99333e-06
-2.12751e-06
-1.92597e-06
4.82708e-07
-1.49822e-06
1.83115e-06
-3.32935e-07
1.83624e-06
4.64689e-07
1.84482e-06
-1.49024e-06
-3.3326e-07
1.8235e-06
-2.2268e-06
2.57871e-06
1.79237e-07
-1.80073e-06
1.97012e-06
-1.40606e-06
1.08976e-06
7.60258e-07
-1.14393e-06
-1.8589e-06
-1.49571e-06
1.9505e-06
1.6528e-06
-1.83148e-06
7.1291e-07
9.89068e-07
-1.32716e-06
-2.21611e-06
1.81527e-06
-7.70384e-07
1.56605e-06
-1.57634e-06
1.84815e-06
2.93527e-07
-1.93508e-06
1.64156e-06
1.55267e-06
3.97829e-07
-8.57437e-07
8.4028e-07
1.71569e-08
1.80266e-06
-3.0791e-07
2.21099e-06
-9.63347e-07
-1.89605e-07
1.69425e-06
-1.50465e-06
1.93602e-06
-8.68792e-07
-1.74344e-07
1.97458e-06
9.60517e-07
-1.83913e-06
-1.50924e-08
-1.83198e-06
1.91427e-06
-3.61606e-07
-2.46245e-07
-1.78881e-06
1.87318e-06
-2.97657e-07
-1.57552e-06
1.53621e-06
9.25177e-08
-1.63359e-06
1.87976e-06
-2.46177e-07
-1.65854e-06
1.86435e-06
-2.05811e-07
2.54814e-07
3.74477e-07
-1.5184e-06
1.33483e-06
-4.67834e-07
-2.09525e-06
-5.07785e-07
-7.60715e-07
-1.90246e-06
-1.28627e-06
-5.68522e-07
-9.06451e-07
-1.34085e-06
1.83489e-06
2.13866e-06
-8.47181e-07
1.91143e-06
-1.81062e-06
-1.96519e-07
2.00714e-06
-1.80071e-07
-1.76676e-06
1.94683e-06
1.42125e-06
-2.6922e-06
8.66679e-07
1.98065e-07
1.62656e-06
1.26083e-06
1.95255e-06
2.39596e-07
1.57441e-06
3.39863e-07
-5.39944e-07
-1.07884e-06
-2.23894e-06
1.72458e-07
2.06649e-06
-2.22555e-07
1.94639e-06
3.42601e-07
-2.1625e-06
9.68459e-07
2.30805e-06
-2.33352e-06
-1.18497e-06
-4.6323e-07
-1.881e-06
1.63476e-06
-1.16361e-07
1.55018e-06
4.00276e-07
-1.78919e-06
1.73049e-06
5.87066e-08
-7.87452e-07
-1.66783e-06
1.75203e-06
-8.41929e-08
-2.05487e-07
1.8258e-06
-1.62031e-06
2.4471e-06
-2.05666e-06
1.72683e-06
2.35966e-07
-1.9628e-06
-1.39006e-06
-8.22425e-07
1.86794e-06
1.75395e-06
1.25811e-07
2.08094e-07
-1.52177e-06
1.31367e-06
1.97805e-06
-1.61457e-06
-1.45751e-06
1.57028e-06
-1.3557e-06
-7.00954e-07
1.82771e-06
-2.57435e-07
1.61644e-06
-2.08959e-06
1.79078e-06
-1.68501e-06
-1.95991e-07
-3.71661e-08
-1.89188e-06
4.34372e-07
1.58154e-06
-2.42526e-07
1.97301e-06
1.03144e-06
-1.35839e-07
-1.6599e-06
-2.25124e-06
2.38864e-06
1.59844e-06
2.09866e-06
8.44425e-08
-1.92754e-06
1.84199e-07
-2.39869e-07
1.62108e-06
-4.48862e-07
1.81356e-06
-2.32024e-07
1.93493e-06
2.2189e-06
-1.20234e-07
1.59373e-06
3.41199e-07
-2.20136e-06
2.70783e-07
1.93057e-06
1.1004e-06
-2.71685e-06
-1.43658e-06
-2.11589e-06
2.35196e-07
1.99084e-06
2.28062e-07
-2.04658e-06
-1.95856e-07
2.24243e-06
-1.93169e-06
-3.91975e-08
-1.29899e-06
1.33819e-06
1.53664e-07
-2.98151e-07
-9.73402e-07
-1.56207e-06
2.53547e-06
-7.46391e-07
-1.35933e-06
-1.89564e-06
2.39249e-06
-2.00693e-06
1.99748e-06
-7.00318e-08
-1.79961e-06
1.798e-06
-1.97807e-06
1.55925e-06
-4.46843e-07
1.60647e-06
-1.56549e-06
1.44321e-07
1.42116e-06
-1.33446e-06
-1.23631e-06
2.57078e-06
1.95352e-06
-9.64455e-07
-1.01665e-06
2.2268e-06
-2.2808e-06
-1.96616e-06
-1.75275e-06
-2.54122e-06
-1.53196e-06
-3.35263e-08
-1.42473e-06
-4.70914e-07
-1.5805e-07
1.57145e-06
-1.4134e-06
-1.81848e-06
1.93784e-06
-1.95293e-06
1.97046e-06
2.51816e-06
-1.38978e-06
-1.25887e-06
-1.62301e-06
1.29477e-06
1.43973e-06
1.16607e-06
6.78698e-07
1.31623e-06
1.93871e-06
-2.72868e-08
-1.87606e-06
1.90122e-06
-2.92181e-07
2.20862e-06
7.1047e-07
-2.40801e-06
1.69754e-06
-2.13526e-07
1.90893e-06
-1.69541e-06
1.93132e-06
1.13568e-06
3.65525e-07
1.90762e-06
-1.75834e-06
3.33605e-07
-2.67599e-06
9.07579e-07
1.76841e-06
1.87774e-06
-2.36188e-07
1.80446e-06
-1.87449e-06
2.66658e-07
-1.92444e-06
1.98315e-06
2.44465e-06
-5.1333e-07
1.4263e-06
-2.50427e-06
-1.49698e-06
-2.61351e-07
1.85192e-06
-1.83034e-06
-9.79635e-08
-1.49546e-06
-5.89003e-07
1.06628e-06
1.51975e-06
1.99073e-07
1.59785e-06
-3.2341e-08
-1.56551e-06
4.53174e-08
-2.01148e-06
1.70995e-06
-1.91544e-06
1.96002e-06
-1.8342e-06
1.86152e-06
-4.09229e-07
-1.45229e-06
-2.16726e-07
-1.39621e-06
1.00602e-07
1.1563e-06
-1.2569e-06
1.40116e-07
1.36762e-06
-2.56239e-06
1.71168e-06
1.65675e-07
1.78116e-06
4.93972e-07
1.37081e-06
-2.55413e-06
1.55439e-06
2.35089e-06
-1.27319e-06
-7.62919e-07
-1.82474e-06
-9.97022e-08
-2.20172e-06
1.86159e-06
-1.53595e-06
2.60819e-07
1.27513e-06
1.90764e-07
1.69431e-06
-1.90784e-06
1.89757e-06
1.68912e-07
-8.4245e-07
-1.41511e-06
-2.29798e-06
-1.47042e-06
9.49877e-07
-2.36778e-06
5.44218e-07
-1.88096e-06
3.05434e-07
2.2083e-06
-2.37996e-06
5.14614e-08
9.85314e-07
1.00679e-06
1.72522e-06
3.63942e-07
1.86286e-06
-1.83756e-06
-2.04043e-06
-1.68521e-07
-1.66866e-06
4.15417e-07
1.50226e-06
2.13865e-06
1.84141e-06
1.87562e-06
1.52859e-06
1.59377e-06
4.89829e-07
1.39896e-06
-8.61992e-07
3.04684e-08
2.39075e-06
-2.21418e-06
1.92127e-06
-2.44182e-06
1.93404e-06
-1.71636e-06
-1.93391e-06
-1.54109e-06
1.06262e-06
-8.01797e-07
7.97767e-07
7.489e-07
1.08459e-06
9.07517e-07
-2.22936e-06
1.92724e-06
2.3442e-06
2.54752e-06
-1.97729e-06
-8.76671e-07
-1.70534e-06
1.6024e-06
-1.89458e-06
3.58994e-07
-1.90009e-06
2.06959e-07
-2.43256e-06
2.42242e-06
5.45902e-07
4.56338e-07
-1.47244e-06
1.88785e-06
-2.46079e-06
-1.66433e-06
2.0366e-06
1.66596e-07
-1.79149e-06
2.53543e-06
-7.43939e-07
-3.01975e-07
-2.52855e-07
-1.53559e-06
-2.48196e-06
5.75508e-07
-2.15499e-06
-2.57652e-06
1.57997e-06
-2.008e-06
1.74665e-06
2.30326e-06
5.30335e-08
-5.03799e-07
-3.33152e-07
1.86064e-06
-1.88166e-06
1.66204e-06
-1.11687e-06
1.13333e-06
2.20406e-06
-1.90456e-06
-9.2787e-07
-6.67445e-07
-8.28322e-07
-1.54499e-06
4.73799e-07
5.28441e-07
6.69201e-07
-2.6265e-06
1.06443e-06
-1.92659e-06
2.40986e-06
2.37271e-06
-1.79721e-06
-2.66192e-06
1.42561e-06
3.76665e-07
2.12332e-06
-3.52263e-07
1.78308e-06
-1.37275e-06
-1.04342e-06
-8.41431e-07
1.36066e-06
1.22537e-06
-4.83437e-07
2.41747e-06
-1.42313e-06
-4.0835e-07
-4.38465e-07
1.58688e-06
1.46693e-06
1.6524e-06
1.72062e-06
-1.20524e-06
1.37665e-06
-1.69242e-06
2.6e-06
-1.63147e-06
1.26819e-07
1.2948e-06
-5.93541e-07
2.24595e-06
-9.43954e-08
1.27858e-06
-1.56152e-06
-1.69404e-06
1.34423e-07
-1.82897e-06
-1.36553e-06
2.08847e-06
6.54632e-07
1.81632e-06
-1.03849e-06
-2.52075e-06
1.62877e-06
-6.20269e-07
1.20384e-06
-1.06941e-06
1.27647e-06
-1.21786e-06
-1.19432e-07
7.04428e-07
9.54707e-07
9.31314e-08
2.65543e-06
-1.13884e-06
2.92891e-07
-1.24558e-06
8.14317e-08
-1.19323e-06
-8.59149e-08
1.29322e-06
-3.40242e-07
8.68432e-07
-1.22551e-06
2.04315e-06
-1.04306e-06
1.04775e-06
1.52366e-06
-2.0999e-07
-1.2699e-06
9.18698e-07
5.96004e-07
3.77008e-07
-9.73012e-07
-1.09805e-06
1.47517e-06
-9.4825e-07
-2.32264e-08
1.21905e-06
-1.78739e-07
-1.20924e-06
5.7583e-07
1.74086e-06
-1.09573e-06
1.66342e-06
-6.49855e-07
6.07421e-07
-1.61186e-06
9.4302e-07
1.50181e-06
-2.44124e-07
1.11008e-06
1.04087e-06
7.48535e-07
1.7309e-06
-4.11508e-07
8.34831e-07
-6.54322e-07
1.49641e-06
-8.42087e-07
1.19352e-06
1.07264e-07
1.39844e-06
9.33636e-07
9.99512e-08
1.57852e-06
-8.43487e-07
9.19818e-07
1.12333e-06
-1.57595e-06
-1.50672e-06
6.61958e-07
2.59729e-07
1.35816e-06
1.19352e-06
-1.27077e-06
1.30771e-06
-1.27303e-06
-1.41123e-06
9.47997e-07
1.66034e-06
-2.91921e-06
-1.06553e-06
9.33006e-07
-7.6896e-07
-8.11904e-08
7.20847e-07
-5.31192e-08
-8.57753e-07
1.00337e-08
-8.32917e-07
-7.55174e-08
9.72996e-07
8.12204e-07
1.07319e-06
7.96156e-07
8.32917e-07
-9.72996e-07
-7.96156e-07
-8.57311e-08
8.70947e-07
-1.2408e-07
-8.12204e-07
-1.07319e-06
-7.6896e-07
7.20847e-07
-8.57753e-07
8.70947e-07
-2.03938e-06
1.32545e-06
4.89391e-07
-9.54794e-07
1.35262e-06
-8.61115e-07
8.61115e-07
4.89391e-07
-1.99816e-06
-1.4376e-06
1.16674e-06
2.41505e-06
-1.18968e-06
-1.38786e-06
-2.14985e-06
1.76058e-06
7.05465e-07
-1.95721e-08
-7.05465e-07
-4.14019e-08
-1.21187e-06
-1.36448e-06
6.95691e-07
-1.23417e-06
-1.79162e-07
7.75166e-07
7.2353e-07
-1.37125e-07
1.11443e-06
1.14165e-06
-2.30053e-06
-1.14888e-06
-2.6526e-06
1.11204e-06
1.43947e-06
9.36279e-07
-2.60452e-06
1.09781e-06
-7.43432e-07
1.12377e-06
8.25222e-07
-1.69195e-07
-1.42974e-06
5.63911e-07
-4.54999e-07
-1.08911e-07
1.50748e-06
-4.6661e-07
2.82901e-07
-2.82901e-07
-9.1208e-07
-9.6424e-07
-1.49445e-06
9.97766e-07
-1.19744e-06
1.17787e-06
9.55848e-08
4.68326e-07
1.57638e-06
-2.616e-06
8.51668e-07
-1.236e-06
1.17639e-06
-1.11026e-06
1.59729e-06
-1.52884e-06
1.46394e-06
-1.12752e-06
9.6089e-08
-1.1655e-06
1.4482e-06
1.93734e-07
7.4337e-07
8.18975e-07
-7.22886e-07
-2.3127e-07
-1.64996e-06
-2.8712e-07
1.6841e-06
-1.22547e-06
-3.00624e-07
3.00624e-07
-6.06482e-07
-7.94113e-08
6.06482e-07
-4.1167e-08
3.60427e-07
-3.60427e-07
-1.48706e-06
-7.6183e-07
5.37716e-07
-3.00512e-06
1.38211e-06
-1.41632e-06
1.24186e-07
9.3843e-07
7.93846e-07
-1.36607e-06
-4.11405e-07
-1.40985e-06
-7.87302e-07
-1.36255e-06
9.84286e-07
7.43355e-08
1.54802e-06
-1.95408e-07
-8.18329e-07
-1.33491e-07
1.33491e-07
1.35728e-06
-3.6296e-07
-1.53807e-06
-1.32011e-06
4.50087e-07
-1.45595e-06
1.00586e-06
5.07532e-07
-5.27208e-08
1.22549e-06
-7.28338e-07
8.58221e-07
-1.4244e-06
1.63418e-07
3.54737e-08
9.99516e-08
-9.01749e-07
-1.94502e-07
1.94502e-07
7.97353e-07
6.99056e-07
9.2787e-07
6.71158e-07
-1.87764e-07
-4.83394e-07
2.84637e-07
1.64324e-07
3.36627e-07
-7.4337e-07
4.96387e-07
-3.36627e-07
-1.22466e-06
3.90405e-07
8.34256e-07
2.87401e-06
-4.98183e-07
3.00676e-07
2.483e-07
-1.85345e-06
1.16964e-06
6.8381e-07
-1.69195e-07
-7.07458e-07
-8.42087e-07
7.07458e-07
5.20181e-07
1.81022e-08
-1.39086e-06
-5.15867e-07
-5.6603e-07
5.15867e-07
5.6603e-07
2.24085e-07
-2.24085e-07
-7.97063e-07
-3.80106e-07
-1.22909e-06
-8.38646e-07
-3.96751e-07
-8.0069e-07
-1.17809e-07
-2.9404e-07
2.9404e-07
-1.04306e-06
-1.3228e-06
-8.58221e-07
-6.21125e-07
9.29608e-08
3.6296e-07
-1.14018e-06
-5.0782e-07
-1.5761e-07
8.01601e-07
2.81725e-06
3.85883e-07
-1.22937e-06
7.18183e-08
-1.36542e-07
5.37716e-07
-1.72493e-06
-1.27365e-06