/*--------------------------------*- C++ -*----------------------------------*\
  =========                 |
  \\      /  F ield         | OpenFOAM: The Open Source CFD Toolbox
   \\    /   O peration     | Website:  https://openfoam.org
    \\  /    A nd           | Version:  9
     \\/     M anipulation  |
\*---------------------------------------------------------------------------*/
FoamFile
{
    format      ascii;
    class       volScalarField;
    location    "0.71";
    object      p;
}
// * * * * * * * * * * * * * * * * * * * * * * * * * * * * * * * * * * * * * //

dimensions      [0 2 -2 0 0 0 0];

internalField   nonuniform List<scalar> 
90
(
5.01985e-23
-5.44384e-22
-1.12904e-21
-1.51843e-21
-1.5814e-21
-4.02051e-22
3.89676e-23
-7.90491e-22
2.50285e-22
-3.46362e-22
2.54575e-22
-2.07592e-22
-1.8866e-22
-4.25973e-22
-3.11997e-22
2.07913e-21
-4.05908e-21
-2.48482e-22
1.36296e-21
8.3353e-23
-1.30767e-21
-1.67597e-22
-9.44038e-23
-9.13603e-23
-1.05773e-21
1.57563e-22
-1.4638e-21
-3.4877e-22
-1.37845e-21
6.16278e-23
1.21721e-22
6.70888e-22
-1.45117e-22
-7.29373e-22
-6.23268e-22
2.31314e-21
1.19731e-21
-6.38984e-21
2.59531e-22
-2.13662e-22
4.68335e-22
5.41381e-22
-6.37796e-22
6.77961e-23
-9.09134e-23
1.01257e-22
7.0005e-22
7.1886e-22
-1.15867e-22
-1.32858e-21
-6.79448e-22
-1.617e-21
1.86765e-23
-7.78282e-24
-1.46787e-21
8.03652e-22
4.03996e-23
1.62003e-21
-4.85778e-22
8.13112e-22
1.25309e-21
2.55434e-22
8.62473e-22
-4.07916e-22
-4.19693e-22
5.88572e-22
-1.98609e-22
-5.68419e-22
-5.20645e-21
-4.53672e-22
1.50367e-21
-1.11454e-21
-4.17073e-22
1.66522e-21
2.17987e-21
-7.87696e-22
-1.23368e-21
-1.45986e-22
-3.74038e-22
-6.42902e-23
-5.17746e-21
8.02696e-23
1.29041e-21
2.61507e-21
-2.26047e-22
-1.4137e-21
1.5544e-22
6.60257e-23
2.05572e-21
-1.3337e-21
)
;

boundaryField
{
    back
    {
        type            empty;
    }
    front
    {
        type            empty;
    }
    bottom
    {
        type            zeroGradient;
    }
    outer_arc
    {
        type            zeroGradient;
    }
    right
    {
        type            uniformFixedValue;
        uniformValue    
        {
            type            scale;
            scale           
            {
                type            squarePulse;
                start           0.3;
                duration        0.3;
            }
            xScale          
            {
                type            constant;
                value           1;
            }
            value           
            {
                type            constant;
                value           15.1;
            }
        }
        value           uniform 0;
    }
    inner_arc
    {
        type            zeroGradient;
    }
}


// ************************************************************************* //
