/*--------------------------------*- C++ -*----------------------------------*\
  =========                 |
  \\      /  F ield         | OpenFOAM: The Open Source CFD Toolbox
   \\    /   O peration     | Website:  https://openfoam.org
    \\  /    A nd           | Version:  9
     \\/     M anipulation  |
\*---------------------------------------------------------------------------*/
FoamFile
{
    format      ascii;
    class       surfaceScalarField;
    location    "0.71";
    object      phi;
}
// * * * * * * * * * * * * * * * * * * * * * * * * * * * * * * * * * * * * * //

dimensions      [0 3 -1 0 0 0 0];

internalField   nonuniform List<scalar> 
122
(
1.47077e-28
-1.07584e-28
-6.29366e-29
-5.72129e-29
-1.44733e-29
6.99313e-30
-2.86751e-28
2.1936e-28
-5.89431e-29
1.96054e-28
-4.58195e-28
-5.72882e-28
5.6588e-28
5.05423e-28
-3.63548e-28
-1.7849e-28
-5.60938e-29
6.89039e-29
-3.06752e-29
2.22691e-28
3.47602e-28
2.08228e-28
1.63698e-29
-2.25152e-28
-3.02693e-29
-1.36187e-28
1.68566e-28
-1.68252e-28
-5.0527e-29
-1.2245e-28
3.85695e-28
1.89775e-28
2.20037e-28
8.62779e-29
-7.32071e-29
8.02295e-29
-3.49268e-30
2.78719e-28
-2.88239e-28
1.11558e-28
-1.18355e-28
-1.45063e-28
4.62875e-28
-3.12907e-28
-4.40738e-29
1.28902e-29
3.96157e-29
-3.84617e-28
9.12249e-29
-2.51823e-28
3.32777e-28
1.41048e-28
-3.75739e-29
2.42368e-28
4.80866e-30
-3.93508e-28
3.69397e-28
-2.06493e-28
5.88897e-29
-1.85392e-28
-3.41775e-28
-2.26083e-29
-2.76312e-28
1.88335e-28
-1.87536e-28
1.08712e-29
-8.74253e-29
-1.76383e-29
8.0756e-30
-4.0423e-29
2.25002e-28
-2.59975e-28
8.08034e-29
-3.82405e-28
2.34103e-28
-3.20111e-28
-2.74307e-28
-2.59266e-28
-1.01068e-28
1.68415e-28
1.68316e-28
-9.125e-29
6.55489e-29
2.93366e-28
2.75904e-28
1.74002e-29
4.64571e-29
-2.69602e-29
1.08606e-29
-3.29726e-28
3.51998e-28
8.2632e-29
-7.36572e-29
3.91258e-28
-3.11954e-28
-2.02064e-28
5.51346e-29
-3.97464e-28
1.06078e-28
-9.49782e-29
8.00225e-29
2.43268e-29
-2.39944e-28
2.07514e-28
-4.73084e-29
8.37802e-30
-8.07966e-29
-1.20187e-28
-3.77338e-29
6.97198e-29
-2.73476e-28
1.95749e-28
4.03191e-28
4.57553e-30
-2.06812e-28
-1.24445e-28
1.47242e-28
7.9244e-29
-1.09577e-28
-4.56582e-28
3.69234e-28
-4.44132e-29
)
;

boundaryField
{
    back
    {
        type            empty;
        value           nonuniform List<scalar> 0();
    }
    front
    {
        type            empty;
        value           nonuniform List<scalar> 0();
    }
    bottom
    {
        type            calculated;
        value           uniform 0;
    }
    outer_arc
    {
        type            calculated;
        value           uniform 0;
    }
    right
    {
        type            calculated;
        value           nonuniform List<scalar> 4(8.28136e-29 5.59401e-28 4.42647e-28 3.07568e-28);
    }
    inner_arc
    {
        type            calculated;
        value           uniform 0;
    }
}


// ************************************************************************* //
