/*--------------------------------*- C++ -*----------------------------------*\
  =========                 |
  \\      /  F ield         | OpenFOAM: The Open Source CFD Toolbox
   \\    /   O peration     | Website:  https://openfoam.org
    \\  /    A nd           | Version:  9
     \\/     M anipulation  |
\*---------------------------------------------------------------------------*/
FoamFile
{
    format      ascii;
    class       volVectorField;
    location    "0.71";
    object      U;
}
// * * * * * * * * * * * * * * * * * * * * * * * * * * * * * * * * * * * * * //

dimensions      [0 1 -1 0 0 0 0];

internalField   nonuniform List<vector> 
90
(
(4.37887e-21 1.27694e-21 -4.27835e-39)
(3.8335e-22 4.73714e-22 -4.65808e-38)
(2.35673e-21 5.31587e-21 -6.97938e-38)
(-2.68304e-22 1.13094e-20 6.9121e-38)
(6.92088e-21 1.07969e-20 1.74413e-37)
(5.80296e-22 5.72782e-23 3.70072e-38)
(2.17129e-21 4.42744e-22 5.12414e-39)
(1.27017e-20 3.30886e-21 -6.54052e-38)
(9.34332e-22 1.06667e-21 0)
(1.37576e-20 2.46973e-21 0)
(6.9973e-21 2.27218e-21 1.26956e-38)
(3.54697e-21 -3.26689e-21 1.20384e-38)
(2.67838e-21 1.26719e-21 -2.3567e-39)
(7.00757e-22 -4.5636e-22 -9.58469e-39)
(3.47902e-21 -8.09786e-22 0)
(7.04465e-21 5.81136e-21 0)
(3.87785e-21 1.27545e-20 -2.71009e-37)
(2.6482e-21 6.15133e-21 -8.68763e-39)
(1.94441e-21 6.25439e-21 0)
(2.53647e-21 -5.17419e-22 4.16338e-39)
(5.54173e-21 2.30202e-21 -7.1274e-38)
(1.7554e-21 1.83691e-21 8.02497e-39)
(1.02202e-20 5.40174e-21 2.21596e-39)
(1.32295e-21 3.45018e-23 7.09437e-40)
(1.12955e-20 4.26494e-21 6.98821e-38)
(7.71721e-21 4.14685e-21 -3.4184e-39)
(8.54419e-21 2.93785e-21 7.56968e-38)
(2.225e-21 2.96905e-21 -1.09314e-38)
(-4.57271e-21 3.09431e-21 0)
(1.02532e-20 3.59164e-21 -5.46146e-39)
(1.19708e-20 4.18466e-21 1.59615e-38)
(3.8249e-21 1.40155e-21 3.95918e-38)
(6.43553e-21 5.04932e-21 1.20956e-38)
(1.06264e-20 6.3992e-21 4.75743e-38)
(7.14388e-21 7.13826e-21 -1.65343e-38)
(1.98674e-21 -1.69371e-21 -5.48617e-38)
(3.3887e-21 2.68834e-21 0)
(-1.01206e-22 4.26881e-21 0)
(1.75012e-21 2.09969e-21 -1.2172e-39)
(1.63439e-22 -7.07906e-22 1.65025e-39)
(2.57475e-21 1.32119e-21 2.66405e-39)
(4.0511e-21 5.12339e-21 -6.78378e-38)
(7.44704e-21 7.97024e-21 -4.52509e-39)
(9.08658e-21 2.28745e-21 -1.89785e-39)
(1.49595e-20 2.5289e-21 -9.01428e-41)
(3.67922e-22 4.12638e-21 2.20623e-38)
(3.50514e-21 9.06384e-22 4.86336e-38)
(7.11036e-21 4.94248e-21 1.02003e-38)
(3.43038e-21 7.01406e-21 1.75115e-38)
(4.00308e-21 -2.93499e-22 7.14192e-39)
(1.17388e-21 -1.48389e-21 0)
(5.56981e-22 -7.61709e-22 5.29897e-38)
(1.05173e-20 6.76347e-21 1.75593e-40)
(2.11086e-21 3.07803e-21 0)
(1.41547e-21 -1.50536e-22 -9.84357e-38)
(1.07655e-20 8.50836e-21 -3.40829e-40)
(1.1779e-20 2.60414e-21 2.89653e-39)
(-9.61305e-23 1.93163e-21 0)
(1.20344e-20 2.90029e-21 0)
(4.90305e-21 1.88919e-21 -4.60347e-38)
(3.94398e-21 2.50468e-21 5.24074e-38)
(5.38104e-21 2.40082e-21 0)
(1.70601e-21 6.54193e-22 -4.03056e-38)
(6.80019e-21 5.86964e-21 7.0199e-39)
(4.69095e-21 5.69832e-21 -1.31214e-38)
(-8.18085e-22 9.62697e-22 2.40598e-38)
(1.82743e-21 1.12996e-21 0)
(6.37599e-22 3.52474e-21 0)
(-5.34888e-21 3.00964e-21 2.04051e-38)
(-7.57184e-21 3.88926e-21 2.84772e-38)
(1.14423e-20 5.86299e-21 0)
(1.22579e-20 2.18012e-21 -4.03502e-38)
(1.09664e-20 7.53721e-21 0)
(1.99068e-21 5.38143e-21 1.18304e-37)
(-1.11999e-21 5.25033e-21 -2.87518e-38)
(4.06188e-21 4.82125e-22 3.66125e-38)
(2.46977e-21 1.09219e-22 1.37377e-38)
(5.1625e-21 7.18182e-21 0)
(1.08728e-20 6.53766e-21 -3.65626e-38)
(6.48582e-21 9.67372e-22 -3.21864e-38)
(-3.89773e-21 7.46599e-22 2.1479e-37)
(1.48386e-20 3.16502e-21 -2.09408e-39)
(2.69411e-21 2.71639e-21 -7.4954e-38)
(7.86784e-21 7.09127e-21 7.33816e-38)
(7.81219e-21 6.9487e-21 8.32674e-40)
(2.75368e-21 3.25912e-21 -2.5844e-38)
(1.37453e-20 3.07091e-21 3.67799e-39)
(1.12603e-20 3.52125e-21 -1.55108e-39)
(8.27418e-21 8.91536e-21 -1.93829e-37)
(7.72349e-21 2.11337e-21 3.90763e-38)
)
;

boundaryField
{
    back
    {
        type            empty;
    }
    front
    {
        type            empty;
    }
    bottom
    {
        type            uniformFixedValue;
        uniformValue    
        {
            type            scale;
            scale           
            {
                type            squarePulse;
                start           0.3;
                duration        0.3;
            }
            xScale          
            {
                type            constant;
                value           1;
            }
            value           
            {
                type            constant;
                value           (0 0.7 0);
            }
        }
        value           uniform (0 0 0);
    }
    outer_arc
    {
        type            noSlip;
    }
    right
    {
        type            zeroGradient;
    }
    inner_arc
    {
        type            noSlip;
    }
}


// ************************************************************************* //
