/*--------------------------------*- C++ -*----------------------------------*\
  =========                 |
  \\      /  F ield         | OpenFOAM: The Open Source CFD Toolbox
   \\    /   O peration     | Website:  https://openfoam.org
    \\  /    A nd           | Version:  9
     \\/     M anipulation  |
\*---------------------------------------------------------------------------*/
FoamFile
{
    format      ascii;
    class       volScalarField;
    location    "0.67";
    object      p;
}
// * * * * * * * * * * * * * * * * * * * * * * * * * * * * * * * * * * * * * //

dimensions      [0 2 -2 0 0 0 0];

internalField   nonuniform List<scalar> 
464
(
4.03676e-08
-5.75769e-08
-2.66024e-08
-1.60387e-08
-7.49748e-08
-2.67829e-08
1.55669e-08
-1.45007e-08
-1.90091e-08
-8.61917e-09
3.71656e-08
9.71572e-08
1.08975e-08
9.36409e-08
4.38263e-08
4.4388e-08
1.8211e-08
1.70928e-08
1.30701e-09
-1.53262e-08
-1.84841e-08
-3.31969e-08
-2.66562e-08
-1.95058e-08
-1.80028e-08
-2.14065e-08
7.36741e-08
-5.49102e-10
7.14254e-08
-3.31761e-08
-3.17021e-08
1.74994e-08
2.25594e-08
1.53675e-08
9.35609e-09
1.11076e-08
5.39117e-09
6.36852e-09
2.22296e-09
3.36558e-08
-1.38094e-08
-2.87521e-08
-2.89246e-08
7.64778e-08
6.01206e-08
3.52249e-08
-7.48533e-09
-7.14935e-10
1.37097e-08
-2.19181e-09
-9.40823e-09
3.37019e-09
1.89172e-09
-1.45709e-08
-1.4341e-08
3.19724e-09
-2.92377e-09
-2.26616e-08
-2.46999e-08
-7.84846e-10
1.3746e-08
-5.75065e-08
-1.76949e-08
-1.74534e-08
-3.56134e-08
-1.64018e-08
-3.27611e-08
1.68556e-08
4.89723e-08
-1.65345e-08
-2.91436e-08
-4.91064e-08
4.34766e-08
8.86788e-10
-5.03745e-08
2.46824e-09
-2.7921e-08
1.97471e-08
-1.74927e-08
5.15612e-08
-8.27329e-08
-3.09168e-08
-1.2477e-07
-4.14786e-08
-8.25855e-08
-2.388e-08
-4.39812e-08
-3.31088e-08
-1.4622e-08
-4.01388e-08
-7.60362e-08
-5.82812e-08
-2.89733e-08
6.95381e-08
-3.42671e-08
-2.46382e-08
-2.02418e-08
-2.59578e-08
-8.31803e-08
-1.39851e-08
-1.52542e-08
-3.08871e-09
-2.17456e-08
1.23574e-08
1.7521e-08
-1.21697e-07
-3.67187e-08
-2.86997e-08
-7.81464e-08
-1.15632e-08
-3.53848e-08
-3.90834e-09
-3.34393e-08
-6.20174e-08
-9.40452e-09
-1.51256e-08
-1.13732e-07
-4.7848e-08
-8.73136e-08
-3.59535e-08
-7.5092e-09
8.0942e-09
-3.32972e-08
3.62294e-08
-2.665e-08
-3.07073e-08
-1.48657e-08
-4.35698e-08
9.36007e-09
-1.16802e-07
-4.33441e-08
1.02364e-07
8.97359e-09
-2.04987e-08
-3.86791e-08
-1.02132e-07
-4.96477e-08
-5.54303e-09
-1.55201e-08
-4.15738e-08
-5.19475e-08
-2.96551e-08
-3.43327e-08
-1.48538e-08
-5.34666e-08
-5.49563e-08
-1.52491e-08
-3.60834e-08
-1.83603e-08
-3.70989e-08
-2.25544e-08
-2.00472e-08
7.55873e-09
-3.71564e-08
-9.78198e-08
-4.47718e-08
1.89528e-08
-1.51419e-08
-1.13994e-08
-7.10289e-08
-1.16922e-08
-2.02853e-08
-4.96606e-08
-2.8866e-08
-2.47404e-08
-5.04126e-08
1.21372e-09
-2.16056e-08
2.34708e-08
-5.95327e-08
-5.89422e-08
-5.46083e-08
-7.18123e-08
-3.6981e-08
-6.3892e-08
-4.34941e-08
-1.58711e-08
-1.86458e-08
2.49933e-08
1.59546e-08
-1.74582e-08
-4.12167e-08
3.06497e-08
3.04148e-08
3.8653e-08
3.5304e-08
-5.41118e-08
-5.29098e-08
-6.56175e-08
-5.62477e-08
-9.1878e-09
-5.50837e-08
5.54171e-09
-5.13798e-09
-2.57138e-08
-2.95531e-08
-1.80745e-08
-1.13212e-08
3.5005e-08
-1.64036e-08
-1.26249e-08
-2.69634e-08
-9.99041e-09
-2.33731e-08
-5.38316e-08
1.79426e-09
-1.61593e-08
-2.73431e-08
-3.34642e-08
-7.5029e-08
-4.63917e-08
-5.16701e-08
1.56479e-08
1.20549e-08
-1.66254e-08
-5.57255e-08
4.11497e-08
-4.52782e-09
7.20401e-08
-3.69457e-08
2.74133e-08
-2.22301e-08
-1.99779e-08
-1.60207e-08
-1.62394e-08
-2.00421e-08
-1.62648e-08
-1.39694e-08
-1.39884e-08
-1.68472e-08
-1.45119e-08
-7.91639e-09
-1.07433e-08
-1.76879e-08
-4.60978e-09
-1.69341e-08
-2.81817e-09
-8.62068e-09
-1.16423e-08
3.90104e-10
-1.71916e-08
-7.05063e-09
-4.83615e-09
-1.03148e-08
-1.68474e-08
6.99492e-09
-8.80563e-09
-1.20813e-08
5.96343e-10
-1.07259e-08
-6.78881e-09
4.37006e-09
-1.73005e-08
-3.24152e-08
-1.64061e-08
-7.78973e-09
-1.49494e-08
-1.04325e-08
-1.55156e-08
-4.82382e-09
-5.84718e-09
-1.67348e-08
-1.45439e-08
1.4485e-08
-5.98567e-09
5.58772e-09
-1.37538e-08
-7.52697e-09
3.35027e-08
1.62291e-09
-3.23455e-08
-2.88758e-09
-1.2393e-08
2.26137e-08
1.23003e-08
-1.28121e-08
-1.18602e-09
-3.27071e-08
-4.43102e-08
-5.62129e-08
-1.62099e-08
-8.60412e-09
-4.25305e-08
3.89261e-09
2.59948e-08
-2.79112e-08
-4.88714e-08
-3.30256e-08
-6.31607e-09
-1.59329e-08
-3.01377e-08
-1.63031e-08
-9.19284e-09
-1.26731e-08
-2.5017e-08
-3.71247e-08
-5.23857e-08
-4.173e-08
-4.06872e-08
-4.13478e-08
1.78314e-08
3.05023e-09
3.2204e-08
7.91507e-08
6.42657e-09
-2.49145e-08
-2.48965e-08
-1.3292e-09
-7.03557e-08
-4.59813e-08
-1.86488e-08
-1.49977e-08
-1.74785e-08
6.89778e-09
-2.54974e-08
-2.63603e-08
-4.91199e-08
-4.94108e-08
-1.19694e-08
1.15503e-08
-3.45036e-08
-3.95887e-08
-6.3471e-08
-4.23644e-08
-1.27114e-08
1.06892e-08
1.6716e-08
2.69421e-08
-3.21563e-09
-3.79576e-08
-2.05644e-08
-2.40046e-08
-1.85604e-08
-1.69559e-08
-2.12767e-08
-1.55937e-08
-3.14124e-08
-1.58849e-08
-4.60812e-08
-2.46956e-08
-1.37902e-08
4.09458e-08
-3.49368e-08
-4.43623e-08
-1.62909e-08
-9.25956e-09
1.21882e-08
-3.13535e-08
-1.53016e-08
-2.1604e-08
-1.01929e-08
-1.72866e-08
-3.96608e-08
-3.76813e-08
-8.01586e-09
-3.21341e-08
-3.03099e-08
-9.83533e-08
-3.15865e-08
-6.76706e-08
-2.25867e-08
-2.19942e-09
-3.03053e-08
-8.50237e-08
4.50415e-08
-2.16246e-10
-1.02246e-08
1.12881e-08
1.08702e-07
-3.72239e-08
-1.29929e-08
1.09351e-07
3.51801e-08
1.89812e-08
8.05586e-08
-2.11526e-08
4.86846e-08
-3.05786e-08
6.9815e-08
-3.79162e-08
4.52947e-08
2.19076e-08
1.78699e-08
3.73434e-09
5.38959e-10
7.45948e-09
1.27016e-09
-2.69162e-08
2.72454e-08
2.2075e-08
-5.07647e-09
2.94082e-09
5.92266e-09
7.43183e-09
-1.53133e-08
-2.32004e-08
-1.94197e-08
-2.70762e-08
-2.59797e-08
3.91907e-08
-3.51203e-08
-1.9264e-08
7.3658e-08
-8.8585e-09
1.12408e-08
2.68472e-08
7.85654e-08
-3.02231e-09
3.09428e-08
-4.66573e-09
-1.19349e-08
-7.42388e-09
-2.53705e-08
-2.41014e-08
-2.08606e-08
-3.93478e-08
1.34683e-07
-4.36815e-09
-2.26897e-08
-5.84876e-08
-1.03569e-08
-1.82854e-08
4.38683e-08
9.76075e-08
3.36763e-08
3.4e-08
5.98612e-08
5.71564e-08
5.14537e-08
-1.19738e-07
-3.485e-08
-1.91029e-10
2.44794e-08
-3.33281e-08
-3.89604e-09
2.74376e-08
2.37507e-08
-2.64113e-08
2.24881e-08
-4.29937e-08
-9.79233e-10
9.85614e-09
-1.25654e-08
-1.53291e-08
-2.34341e-08
-2.03228e-08
-2.30101e-08
-3.11964e-08
-1.98994e-08
-1.09366e-08
2.69419e-08
8.20421e-09
2.35006e-08
-2.55108e-08
-4.6688e-09
1.23816e-08
5.20303e-09
-3.05999e-09
-9.029e-09
-6.64499e-09
-7.04663e-09
1.29164e-07
7.3372e-08
-2.57676e-08
)
;

boundaryField
{
    back
    {
        type            empty;
    }
    front
    {
        type            empty;
    }
    left
    {
        type            zeroGradient;
    }
    top
    {
        type            zeroGradient;
    }
    right
    {
        type            zeroGradient;
    }
    bottom
    {
        type            uniformFixedValue;
        uniformValue    
        {
            type            scale;
            scale           
            {
                type            squarePulse;
                start           0.3;
                duration        0.3;
            }
            xScale          
            {
                type            constant;
                value           1;
            }
            value           
            {
                type            constant;
                value           15.1;
            }
        }
        value           uniform 0;
    }
}


// ************************************************************************* //
