/*--------------------------------*- C++ -*----------------------------------*\
  =========                 |
  \\      /  F ield         | OpenFOAM: The Open Source CFD Toolbox
   \\    /   O peration     | Website:  https://openfoam.org
    \\  /    A nd           | Version:  9
     \\/     M anipulation  |
\*---------------------------------------------------------------------------*/
FoamFile
{
    format      ascii;
    class       surfaceScalarField;
    location    "0.67";
    object      phi;
}
// * * * * * * * * * * * * * * * * * * * * * * * * * * * * * * * * * * * * * //

dimensions      [0 3 -1 0 0 0 0];

internalField   nonuniform List<scalar> 
663
(
-1.35024e-13
8.78945e-14
4.71295e-14
7.40696e-14
1.261e-13
-8.53085e-16
8.53085e-16
1.47905e-14
-7.3079e-15
-7.48259e-15
-5.6315e-14
1.30385e-13
7.26539e-17
-9.25737e-16
-9.95396e-14
-3.54844e-14
4.90257e-15
9.88792e-15
-1.13968e-13
4.24323e-14
7.15357e-14
3.94554e-14
-1.53423e-13
-1.08416e-13
1.96311e-13
1.04352e-13
-9.49007e-14
-9.45134e-15
-5.71073e-14
1.10926e-13
-6.57417e-15
-1.66273e-14
3.29189e-14
-1.62916e-14
-1.99602e-14
3.33285e-15
2.35727e-14
-1.51107e-14
-8.46196e-15
2.32412e-14
3.31504e-16
6.10263e-16
-6.10263e-16
4.51773e-14
-5.25614e-14
7.38412e-15
-8.91788e-15
5.40952e-14
-1.81894e-14
-2.04366e-14
3.8626e-14
-4.27348e-14
2.45454e-14
-1.87608e-14
1.55026e-14
3.25815e-15
1.56132e-15
-8.86922e-15
-1.04814e-14
-8.27936e-15
-5.47444e-14
5.63867e-14
-1.64232e-15
1.59242e-14
-5.62011e-15
-1.03041e-14
-5.13847e-14
-3.35967e-15
2.92868e-14
-2.46978e-14
-4.58903e-15
1.39108e-14
1.5376e-14
2.48617e-14
-1.10609e-14
-1.38008e-14
5.03507e-15
1.98267e-14
-1.36078e-14
2.30793e-15
1.12999e-14
6.40928e-15
-2.00171e-14
1.55787e-14
7.66247e-15
3.72493e-14
-2.16706e-14
-2.45984e-15
3.07011e-15
4.03928e-15
1.1885e-14
1.34501e-14
7.67183e-16
-1.42173e-14
-2.8439e-14
-2.41224e-14
4.50457e-14
-5.2016e-14
6.97032e-15
2.31092e-15
3.68698e-14
1.9517e-14
-5.80309e-14
-6.51011e-15
-2.38865e-14
4.87877e-14
-2.49012e-14
-4.56994e-14
4.2144e-14
3.55543e-15
-7.10939e-15
7.10939e-15
-8.07995e-15
1.80845e-14
-4.65235e-14
2.15531e-14
4.17445e-15
-2.57275e-14
-4.64984e-14
8.15045e-15
3.83479e-14
3.89649e-15
-3.44825e-14
3.0586e-14
5.67927e-14
-5.28962e-14
-1.33681e-14
3.49212e-14
-3.72546e-14
-1.84982e-14
-1.69826e-14
3.54808e-14
3.5466e-14
-5.39642e-14
-3.82603e-14
-8.2381e-15
-3.07011e-15
-7.91442e-14
1.19254e-13
-4.01101e-14
-3.18162e-14
3.61264e-15
2.82036e-14
2.39598e-14
-3.45813e-14
1.06215e-14
-7.24162e-14
1.11872e-13
-1.11287e-14
-2.33538e-14
-1.5424e-14
2.84268e-14
-1.30027e-14
1.12838e-14
-1.17868e-13
-8.4815e-17
5.68775e-14
4.75381e-14
-1.20722e-14
-1.5156e-13
-2.48555e-14
-2.65292e-14
-1.54372e-14
-3.02623e-14
1.37415e-14
-3.08206e-14
1.70792e-14
-1.38426e-14
2.3052e-14
-3.84761e-14
-9.02046e-14
1.37334e-13
-3.64346e-14
1.9452e-14
8.0634e-15
9.94456e-14
3.62357e-14
-1.35681e-13
-6.07512e-15
5.8028e-15
2.72326e-16
1.37698e-14
-4.92367e-14
3.54669e-14
2.26852e-15
5.80757e-16
-2.84927e-15
1.13215e-13
-2.17914e-14
-1.00248e-14
5.97525e-14
5.95017e-14
-3.8066e-15
-2.36528e-14
1.81782e-14
5.4746e-15
3.41536e-14
-2.04121e-14
7.31054e-14
-1.15325e-13
-3.6951e-15
-1.80816e-14
2.17767e-14
-8.50506e-14
-4.20197e-14
1.2707e-13
8.28881e-15
-1.19839e-14
2.66647e-14
-1.24748e-14
-1.50362e-15
7.30641e-15
5.25091e-15
-1.78539e-14
1.2603e-14
3.37281e-14
-9.08355e-14
-1.56328e-14
-8.02003e-15
-7.62191e-15
4.97659e-14
1.15062e-14
-2.7139e-14
9.901e-15
-2.09619e-14
1.22089e-14
-4.92367e-14
5.80755e-16
5.53841e-15
2.28884e-14
-1.02287e-14
8.3334e-14
-4.53734e-14
5.83204e-14
-1.2947e-14
-1.21223e-15
-1.17223e-14
1.29345e-14
3.33505e-14
-1.25432e-14
4.36989e-14
-3.8448e-14
-2.99104e-15
2.11693e-14
-1.71339e-14
2.86401e-14
-3.54669e-14
2.52382e-14
3.00615e-15
2.84927e-15
-5.85542e-15
-1.78539e-14
1.52222e-14
-1.22161e-14
-5.29953e-14
-4.33766e-14
7.71048e-14
8.07886e-14
-2.10361e-14
-1.04609e-13
6.91251e-14
2.57467e-14
-2.2837e-14
2.16247e-14
6.63311e-14
1.44575e-14
-1.08018e-16
-1.16143e-14
2.18444e-14
-1.54351e-14
3.4338e-14
-3.4338e-14
1.12944e-14
-2.84283e-14
-5.52113e-15
-2.29107e-14
2.84318e-14
2.52382e-14
-5.85542e-15
5.38053e-15
-1.56846e-14
-1.74471e-14
1.74471e-14
9.88332e-15
-1.54045e-14
2.12233e-14
-4.43692e-14
3.2297e-14
2.5649e-14
-9.88333e-15
4.02791e-15
-4.05707e-15
-2.67636e-14
-1.95537e-14
3.0848e-14
1.14156e-14
-3.00882e-14
-4.49307e-15
-1.94953e-14
2.0482e-15
8.57763e-15
-2.81313e-14
-3.51292e-14
6.70094e-15
5.59627e-14
-1.2617e-14
-4.33456e-14
-1.07166e-14
-1.21204e-14
7.38432e-15
1.54045e-14
2.04264e-15
-1.60995e-14
9.88781e-16
-1.93203e-14
2.78979e-14
2.29545e-14
3.00134e-14
5.33207e-14
1.35897e-14
-3.90626e-14
2.54729e-14
5.23262e-15
-2.45529e-14
-3.45367e-15
2.05328e-14
-1.94953e-14
2.88172e-15
-2.2377e-14
3.35886e-14
-1.99989e-14
-4.36541e-14
4.65359e-14
2.54322e-15
-1.17254e-14
9.18219e-15
5.09224e-15
-5.09224e-15
1.89043e-15
3.20181e-15
8.95151e-14
8.54591e-15
-1.2603e-14
-4.33474e-14
-8.54591e-15
-3.25116e-15
3.14314e-15
-1.57666e-14
2.09992e-14
-1.57231e-14
-4.3558e-17
2.12844e-14
3.46783e-14
3.66255e-15
-8.67249e-15
5.00994e-15
3.13742e-14
-4.70972e-14
-3.68349e-15
1.79069e-14
-1.42234e-14
1.35419e-15
-1.35419e-15
5.01674e-15
-1.75677e-15
4.29998e-15
1.75677e-15
-3.11095e-15
4.83777e-15
-8.52125e-15
4.83777e-15
-1.36073e-15
-1.89043e-15
-4.75493e-14
-5.42415e-15
5.29735e-14
1.36072e-15
3.47705e-15
1.94982e-14
-1.94982e-14
2.21656e-15
-9.05312e-15
-4.49111e-14
-5.0091e-14
4.10379e-14
-5.2572e-14
-5.21625e-14
5.20777e-14
8.11007e-16
-4.78678e-14
-2.22324e-15
2.25258e-14
-2.17148e-14
-5.28692e-14
5.0014e-15
2.17148e-14
2.25258e-14
2.17343e-14
-2.17343e-14
1.9511e-14
-8.52125e-15
1.12838e-14
-1.39995e-14
1.39995e-14
-2.2377e-14
4.29998e-15
1.64634e-14
-1.64634e-14
1.9511e-14
5.01674e-15
7.9151e-16
4.97785e-16
-1.11722e-14
-6.85349e-15
-4.31876e-15
-6.3557e-15
-1.57665e-14
-3.14322e-14
4.71987e-14
-1.09825e-14
4.62678e-15
-3.60992e-16
-1.61275e-14
-4.29145e-14
1.14823e-14
-2.15265e-14
-2.1388e-14
2.54561e-14
-4.32793e-14
5.47616e-14
3.32446e-15
1.32463e-14
2.1322e-14
-3.45684e-14
3.89426e-14
-2.56963e-14
-1.8202e-14
-2.34509e-14
4.47729e-14
7.25404e-15
-2.72434e-14
-7.32496e-15
1.75546e-14
-1.84422e-14
9.76135e-15
-3.19128e-14
-1.7482e-14
3.86037e-15
-5.64324e-14
-2.8483e-14
2.11581e-14
-1.85166e-14
-2.69186e-14
-1.5644e-15
-1.07548e-14
2.79082e-14
-2.07589e-14
-7.1493e-15
2.3437e-14
1.13121e-14
-2.87941e-14
-1.56065e-14
-7.04844e-15
3.49463e-14
-1.85166e-14
1.23017e-14
-2.60227e-14
1.51605e-14
1.08621e-14
-1.38528e-14
2.61545e-14
2.68576e-14
-8.81645e-15
-1.80412e-14
1.31815e-14
-2.70342e-14
1.05981e-14
-3.46991e-14
2.4101e-14
-1.28412e-14
4.41867e-14
1.40164e-14
2.65498e-14
-3.74176e-14
2.1126e-14
-2.8226e-14
-6.47313e-15
-4.13047e-14
-1.20589e-14
2.60753e-14
1.20736e-14
-3.20725e-14
-1.33165e-14
-2.75047e-14
1.61524e-14
-2.82113e-14
-3.33125e-15
-1.61798e-14
1.61798e-14
1.69354e-14
-3.32632e-14
1.19073e-15
2.45474e-14
1.1016e-15
4.65895e-15
-3.15696e-14
5.26956e-14
-5.70438e-15
-2.75589e-14
3.85298e-15
1.23268e-14
6.04207e-14
-4.59631e-14
-1.27072e-14
-4.4767e-14
-9.99367e-15
-3.47733e-14
5.0427e-14
-3.19496e-14
-3.63008e-14
2.12945e-15
3.615e-14
-1.23268e-14
3.80554e-15
-8.84078e-15
5.36373e-15
4.3552e-14
-1.78727e-14
-4.92884e-14
1.06773e-13
-5.7485e-14
2.58756e-14
3.4627e-14
2.62234e-15
1.46274e-14
1.24069e-14
-3.6333e-15
6.0705e-14
-8.41246e-15
5.23844e-14
5.55088e-14
-3.25543e-14
3.58357e-15
2.46277e-14
-2.2257e-14
6.58089e-14
-2.60045e-15
7.50302e-15
7.67931e-14
-9.04311e-15
-1.56546e-14
-2.72262e-14
-1.59428e-14
1.59428e-14
3.10356e-14
3.77664e-14
1.63288e-14
1.09918e-13
-3.79986e-14
2.54844e-15
-2.54844e-15
5.73858e-14
-1.53016e-14
2.95829e-14
-4.10976e-15
4.10976e-15
-1.42497e-14
-1.50931e-15
1.50931e-15
-2.79218e-14
-1.55546e-13
-4.7971e-14
-1.53625e-14
-3.2212e-16
-1.27293e-14
1.96447e-14
-2.34206e-14
5.45334e-14
7.26543e-17
5.45334e-14
7.26543e-17
-5.1121e-14
1.77221e-13
1.34195e-15
-4.88864e-16
-1.86689e-14
-6.5341e-16
-5.29665e-15
1.54291e-13
9.89903e-17
-7.09251e-16
6.52682e-15
1.53175e-14
2.77639e-14
-1.68051e-14
2.41859e-16
1.26745e-15
-1.48211e-14
2.61664e-14
-1.15368e-14
-4.56275e-15
1.48211e-14
4.87425e-14
-3.43344e-14
-8.40001e-15
1.27772e-14
5.06716e-15
4.83531e-16
2.62742e-15
-5.80138e-15
-1.69995e-14
-2.0274e-14
-9.15498e-15
-1.1985e-14
6.00552e-15
-6.33702e-15
-4.06569e-14
2.31023e-14
1.03662e-14
-1.03662e-14
2.30763e-14
3.36851e-14
-3.07685e-14
-5.54633e-15
3.22862e-14
-6.08447e-14
1.29525e-13
1.34195e-15
1.26369e-13
2.41858e-16
9.12489e-14
-1.82119e-14
5.36395e-14
-5.36395e-14
9.89915e-17
-5.6581e-14
9.89915e-17
-6.18966e-14
-9.15268e-14
5.47986e-15
-5.80198e-15
5.61107e-15
-6.81755e-15
1.20648e-15
-2.06117e-14
-6.52725e-15
2.77639e-14
-2.60009e-15
1.70104e-15
-7.04893e-14
-8.40001e-15
-5.06716e-15
-5.694e-16
6.00552e-15
6.33702e-15
2.77031e-14
3.50872e-14
-3.36776e-14
-9.13219e-15
-1.48066e-14
-3.68401e-16
-3.4085e-16
2.96849e-15
)
;

boundaryField
{
    back
    {
        type            empty;
        value           nonuniform List<scalar> 0();
    }
    front
    {
        type            empty;
        value           nonuniform List<scalar> 0();
    }
    left
    {
        type            calculated;
        value           uniform 0;
    }
    top
    {
        type            calculated;
        value           uniform 0;
    }
    right
    {
        type            calculated;
        value           uniform 0;
    }
    bottom
    {
        type            calculated;
        value           nonuniform List<scalar> 8(-2.0017e-13 -7.19192e-14 1.83468e-13 -1.10848e-13 -1.80646e-13 1.1022e-13 1.96859e-13 7.30371e-14);
    }
}


// ************************************************************************* //
