/*--------------------------------*- C++ -*----------------------------------*\
  =========                 |
  \\      /  F ield         | OpenFOAM: The Open Source CFD Toolbox
   \\    /   O peration     | Website:  https://openfoam.org
    \\  /    A nd           | Version:  9
     \\/     M anipulation  |
\*---------------------------------------------------------------------------*/
FoamFile
{
    format      ascii;
    class       volVectorField;
    location    "0.67";
    object      U;
}
// * * * * * * * * * * * * * * * * * * * * * * * * * * * * * * * * * * * * * //

dimensions      [0 1 -1 0 0 0 0];

internalField   nonuniform List<vector> 
464
(
(-2.31435e-06 -3.18467e-06 -5.43166e-26)
(-1.55517e-06 5.27475e-06 0)
(8.38505e-09 1.33367e-08 0)
(3.48332e-07 -1.48442e-08 1.02475e-24)
(-1.103e-06 4.31564e-06 0)
(6.996e-09 1.18116e-08 -4.30014e-25)
(-2.24616e-06 -2.20303e-06 1.66044e-24)
(3.30265e-07 -6.82946e-08 0)
(-2.74189e-06 2.50027e-07 -3.35603e-25)
(-2.61135e-06 2.09899e-06 -1.27745e-24)
(-1.85318e-06 -4.06912e-06 1.32403e-25)
(-7.8565e-07 -3.07046e-06 -1.36073e-25)
(-2.45141e-06 -6.76491e-07 -3.02825e-25)
(-5.90927e-07 -2.80799e-06 0)
(-2.07548e-07 -8.85023e-07 1.41149e-24)
(-1.1655e-07 -6.11365e-07 -2.58e-24)
(-1.70625e-07 6.53963e-07 0)
(-1.09423e-07 6.27656e-07 4.0744e-25)
(1.56529e-08 -9.7127e-09 1.86105e-26)
(-4.57136e-08 1.58547e-06 9.74774e-25)
(2.47036e-08 1.67366e-06 -1.49787e-24)
(3.95463e-07 1.14839e-06 4.90222e-25)
(4.44786e-07 1.20487e-06 -2.12991e-25)
(4.00499e-07 1.20721e-07 0)
(2.48137e-07 9.2897e-09 -1.05248e-24)
(4.00005e-07 1.9865e-07 6.89141e-25)
(-2.70949e-07 -1.45367e-06 -2.08265e-24)
(2.10111e-07 -2.94355e-07 4.83741e-26)
(-3.70088e-07 -1.61257e-06 0)
(3.74151e-07 6.36087e-07 0)
(4.56699e-07 5.38406e-07 1.00058e-25)
(-4.26874e-07 -4.21044e-07 -6.79878e-27)
(-3.42775e-07 -5.10918e-07 1.73683e-25)
(-3.38627e-07 3.83759e-08 6.82776e-25)
(-4.28931e-07 1.1846e-07 -6.88126e-25)
(-1.01851e-07 7.82584e-07 -5.56072e-25)
(-1.9677e-07 1.03446e-06 4.68524e-25)
(3.81224e-08 -6.67083e-08 1.47631e-26)
(1.63563e-07 -3.575e-07 8.68397e-26)
(-1.12669e-07 -4.22725e-07 0)
(-1.29801e-07 1.57463e-06 1.10495e-24)
(2.64918e-07 1.48783e-06 0)
(3.71125e-07 1.35745e-06 -5.25714e-25)
(-3.04741e-07 -1.82997e-06 -3.88674e-24)
(-6.36718e-07 -2.4868e-06 3.96348e-24)
(-1.73079e-07 -5.96909e-07 1.14759e-25)
(5.42811e-07 -9.74232e-07 3.30023e-25)
(1.57114e-07 -1.14587e-06 1.1817e-25)
(3.67536e-08 -1.3403e-07 0)
(1.10374e-07 -1.61019e-07 -1.42935e-26)
(-1.32739e-07 1.61618e-06 -6.81589e-25)
(1.92379e-07 -6.16163e-07 3.74515e-26)
(-5.92709e-08 1.18145e-06 -7.00948e-26)
(1.22899e-07 -1.04758e-06 -8.80501e-25)
(1.01807e-07 -1.53722e-06 -2.69692e-26)
(2.83269e-07 -8.46399e-07 -2.09851e-25)
(4.66047e-07 -8.90909e-07 0)
(-5.03261e-07 -8.72739e-07 0)
(-3.97651e-07 -1.26508e-06 -1.60575e-24)
(-1.19498e-07 1.27747e-06 0)
(6.04989e-08 -1.84637e-07 -6.68119e-25)
(-1.28977e-06 3.02961e-06 6.30726e-24)
(-6.72191e-07 -4.31412e-07 2.50059e-24)
(-2.55886e-07 -7.16773e-07 -1.06145e-24)
(-2.16598e-06 2.45165e-06 -1.95719e-25)
(2.63849e-07 -6.97511e-07 -8.54623e-25)
(-4.12599e-07 -6.61402e-07 -1.83134e-24)
(7.03223e-08 -3.41389e-07 9.28694e-25)
(-1.33978e-06 -3.61937e-06 -1.40637e-24)
(1.13902e-09 -1.66417e-06 1.04726e-24)
(-3.66505e-07 -1.2297e-06 1.60242e-24)
(-1.72125e-06 3.32405e-06 -3.29851e-24)
(-3.32724e-07 -1.33154e-06 0)
(2.60198e-07 -1.1473e-06 -6.00334e-27)
(-2.49068e-07 7.33429e-07 -2.98013e-24)
(2.72029e-07 -5.5136e-07 -1.39625e-25)
(-4.98558e-07 -7.58394e-07 -1.76886e-24)
(-2.59138e-06 -2.75114e-06 -1.76348e-24)
(-4.63908e-07 -6.49653e-07 -1.12073e-24)
(-1.61224e-07 -9.70579e-07 1.35573e-24)
(-1.03885e-06 3.76661e-06 0)
(9.19756e-08 9.26714e-08 4.14363e-25)
(-2.47343e-07 1.61561e-06 -7.41019e-24)
(3.28094e-08 6.26173e-08 2.58521e-24)
(-6.41116e-07 2.88616e-06 0)
(-5.99202e-07 -7.10095e-07 8.90832e-28)
(-1.33842e-06 2.49017e-06 -3.04411e-24)
(9.89743e-08 1.47914e-07 0)
(5.50629e-07 -1.46185e-07 0)
(-4.4275e-07 8.10472e-07 -2.16037e-24)
(-7.90864e-07 2.83371e-06 4.60903e-24)
(-1.58163e-06 4.04819e-06 0)
(-4.72529e-07 -2.05329e-07 1.91674e-24)
(-1.08264e-06 -4.14781e-06 -3.60673e-24)
(-3.811e-07 -7.981e-08 -1.88586e-24)
(-6.34745e-07 -5.24598e-07 -1.26045e-24)
(-3.41542e-07 -9.93834e-07 1.12333e-24)
(1.69768e-07 1.15514e-07 -3.80025e-25)
(-7.21891e-08 5.8063e-07 -5.06107e-24)
(-2.20781e-06 8.34575e-08 8.33893e-26)
(5.72557e-07 1.81208e-08 0)
(1.93872e-07 -1.392e-06 1.51081e-25)
(6.46666e-07 1.32933e-07 0)
(-4.25278e-07 -2.4254e-07 6.65274e-27)
(-3.35697e-07 -1.56948e-07 0)
(-1.67151e-07 1.03066e-06 -5.55694e-24)
(1.20841e-08 8.46087e-09 0)
(-4.92737e-07 -4.78824e-07 1.79657e-24)
(-4.50106e-07 2.13426e-06 -4.61399e-24)
(2.94732e-07 -1.42987e-06 0)
(-3.74433e-07 2.02817e-07 0)
(4.25744e-07 -1.18637e-06 -3.36905e-25)
(-3.99617e-07 -3.65114e-07 0)
(-2.32581e-07 1.11138e-06 3.51081e-24)
(6.00076e-07 -2.86137e-07 1.61505e-26)
(7.32041e-07 2.79037e-08 -1.43814e-26)
(-1.56567e-07 1.15119e-06 6.49085e-24)
(4.95902e-08 1.71799e-07 3.10658e-24)
(-5.18791e-08 3.46073e-07 4.07188e-24)
(1.49207e-07 3.49091e-07 -1.53388e-25)
(3.1838e-07 -1.43693e-06 4.46502e-25)
(-1.91995e-06 -5.74752e-07 -1.90712e-26)
(-1.69819e-06 1.78673e-06 1.43118e-24)
(-1.82006e-06 -2.43108e-06 -1.39155e-24)
(-4.71744e-07 -1.02766e-06 0)
(-4.62295e-07 3.31099e-07 2.02315e-24)
(-1.5964e-06 1.10016e-06 -1.44365e-24)
(-2.13733e-07 1.75699e-07 0)
(-4.36414e-07 3.00197e-07 0)
(-1.10365e-07 7.10165e-07 5.74064e-24)
(2.44359e-08 5.40432e-08 -2.00775e-24)
(-1.19472e-07 -7.32007e-07 -4.89939e-24)
(2.6894e-08 -5.46766e-08 5.45317e-25)
(7.61803e-07 1.95603e-07 0)
(1.69935e-07 8.33789e-07 0)
(-7.46055e-08 4.93875e-07 -5.14763e-24)
(3.08115e-08 1.1947e-07 -4.7907e-24)
(3.54346e-07 -3.26608e-07 -4.52863e-25)
(-2.08617e-06 1.51391e-06 1.50754e-24)
(2.0994e-08 3.64593e-07 1.88003e-24)
(6.47414e-08 4.89271e-07 0)
(-4.56217e-07 6.13582e-08 0)
(-2.1928e-07 -1.18168e-06 -1.32145e-25)
(7.00137e-07 -2.52523e-07 7.19944e-25)
(6.14101e-08 3.14597e-07 3.00635e-24)
(-1.80221e-07 7.76721e-07 -3.33092e-24)
(7.79253e-07 2.86262e-08 0)
(1.9345e-07 2.85094e-07 0)
(-1.22845e-07 -1.0622e-06 4.30089e-26)
(3.42867e-08 7.36208e-07 -4.22283e-24)
(7.43333e-07 2.7478e-07 4.27785e-26)
(6.78355e-07 5.18007e-07 1.35601e-24)
(-9.84094e-07 -9.2994e-07 7.87988e-25)
(-3.91643e-07 4.92843e-07 -2.03212e-24)
(-1.04333e-07 8.17995e-07 -4.90943e-27)
(4.92031e-08 6.41088e-07 -2.89851e-24)
(-1.29423e-07 4.35048e-07 0)
(7.05963e-07 5.04942e-08 0)
(-1.69484e-06 2.20382e-08 -1.33849e-25)
(-5.67792e-07 2.08545e-06 4.27025e-24)
(-9.90481e-07 3.43143e-09 0)
(6.22246e-07 3.39418e-07 -1.11743e-24)
(-1.52265e-07 5.04364e-07 5.83291e-24)
(1.56624e-08 4.11908e-07 2.93643e-25)
(1.33591e-08 8.15413e-07 1.59695e-24)
(3.63474e-08 2.07999e-07 0)
(-8.74839e-07 -2.41038e-07 -3.34074e-25)
(3.30824e-08 1.37537e-06 1.22207e-24)
(-1.37549e-07 -2.59551e-07 -1.27499e-24)
(-2.73722e-08 9.75266e-08 5.77843e-24)
(-4.38668e-08 1.34902e-07 -1.13698e-25)
(-9.62903e-07 2.25975e-06 -2.90593e-24)
(-5.46966e-08 4.03814e-07 -2.80748e-25)
(2.53217e-07 1.11227e-06 -4.87044e-25)
(-4.62441e-08 2.61466e-07 1.81686e-25)
(-1.4262e-07 3.48206e-08 -2.54828e-24)
(5.32417e-07 3.77749e-08 1.10252e-24)
(4.08195e-07 3.73382e-07 -4.30619e-27)
(-1.02337e-06 -1.35717e-06 1.08512e-24)
(-1.4412e-07 2.04319e-07 -1.56806e-25)
(3.62158e-07 1.03064e-06 1.18788e-24)
(-1.58831e-07 -4.40302e-07 2.44238e-24)
(-2.64858e-08 2.94938e-08 0)
(-4.19591e-08 1.15205e-07 1.84919e-24)
(-3.29835e-08 -1.27922e-07 2.20498e-25)
(-4.2836e-08 -1.20873e-08 5.38374e-26)
(-5.3873e-08 -2.52443e-07 0)
(-3.03376e-08 -9.74313e-08 -2.57861e-24)
(-3.08453e-08 1.64082e-07 -6.37429e-24)
(-4.54764e-08 1.19717e-08 5.81465e-27)
(1.01518e-07 -1.54945e-06 -5.97144e-28)
(-4.9734e-08 -1.15435e-07 3.2256e-24)
(2.564e-08 -3.87828e-07 5.62106e-25)
(9.99366e-08 -1.3209e-06 -2.4844e-25)
(-2.82437e-07 -1.4585e-06 1.60747e-27)
(-1.70429e-07 -1.40552e-06 -1.61256e-27)
(8.58862e-09 1.59074e-06 -1.12366e-24)
(1.67658e-07 -1.60336e-06 5.90791e-28)
(-2.41283e-08 -3.56308e-08 1.75338e-24)
(4.1808e-10 -1.60764e-06 1.08578e-24)
(3.41979e-08 -1.42346e-06 0)
(-9.12572e-08 -1.33097e-06 0)
(1.21955e-08 -8.37242e-07 0)
(-9.43675e-08 -1.5544e-06 1.3055e-27)
(-2.84789e-08 -2.84633e-08 0)
(3.7322e-08 -7.77068e-07 -2.98605e-25)
(-3.20935e-11 -4.52874e-07 0)
(-1.29512e-08 -4.36667e-07 -1.18351e-24)
(-3.38622e-08 -7.79882e-07 2.10141e-24)
(-3.80132e-08 2.42911e-07 3.50624e-24)
(3.42959e-08 3.1248e-07 2.16484e-24)
(-3.18735e-08 -1.71536e-07 0)
(3.80522e-08 -2.20312e-07 -7.77211e-25)
(-2.57351e-08 3.20791e-07 4.08882e-25)
(-1.65341e-09 4.54155e-07 0)
(-2.70679e-08 3.51321e-08 -2.73837e-24)
(-1.94814e-08 -9.09402e-08 -1.87807e-24)
(1.34497e-08 -4.35951e-07 6.53107e-26)
(-5.60548e-08 -3.46093e-07 2.66407e-25)
(-2.34209e-08 -3.92032e-07 -1.68139e-24)
(-2.90466e-08 9.80168e-08 -1.37428e-24)
(-1.2251e-08 -8.37095e-07 1.48019e-24)
(-3.2886e-08 -1.42403e-06 -1.08709e-24)
(-3.88191e-09 -7.31699e-07 1.92352e-24)
(2.74106e-07 3.77961e-08 1.10175e-24)
(1.28067e-07 4.1419e-07 -1.04179e-24)
(-9.07033e-09 5.31525e-08 0)
(-3.37818e-07 1.05202e-06 4.20176e-25)
(-1.38959e-07 4.00083e-07 -2.35903e-26)
(-2.7029e-07 2.08746e-08 -9.56441e-25)
(-3.86397e-07 3.82613e-07 9.47992e-25)
(-3.77496e-07 1.20751e-06 -4.46898e-26)
(-5.01525e-07 9.00367e-07 0)
(-6.02823e-07 -5.52565e-07 -1.2171e-24)
(-2.85021e-07 1.44656e-06 2.92051e-25)
(-4.91522e-07 4.014e-08 0)
(-5.65369e-07 7.77419e-07 -5.19117e-26)
(-6.00992e-07 7.22527e-07 -6.0428e-26)
(-5.62871e-07 3.44265e-07 8.54836e-25)
(-4.08946e-07 9.51449e-07 -2.14303e-25)
(-6.35794e-07 2.60453e-08 -8.73657e-25)
(-6.35605e-07 5.41167e-07 -2.79492e-25)
(-5.06501e-07 9.97393e-07 3.92268e-25)
(-6.70299e-07 2.73605e-07 0)
(-7.09959e-07 1.76618e-08 0)
(-3.116e-07 8.05405e-07 -1.15399e-25)
(-7.1186e-07 1.99234e-07 -1.47827e-26)
(-2.78666e-08 1.41697e-06 0)
(-5.65001e-07 5.34823e-07 0)
(-2.55529e-08 8.01196e-07 0)
(-6.2688e-07 3.36824e-07 -1.58693e-25)
(-4.07876e-07 6.37633e-07 5.93041e-25)
(-6.64405e-07 -1.61888e-07 -1.25228e-24)
(-5.02435e-07 6.15767e-07 2.16705e-24)
(-7.24686e-07 1.06443e-08 0)
(-7.06386e-07 1.20067e-07 0)
(6.76006e-07 -5.07659e-07 0)
(-3.27139e-08 4.12486e-07 -5.30071e-26)
(-7.00932e-07 3.92644e-09 -6.57599e-25)
(-5.98769e-07 -4.75732e-08 0)
(-6.78302e-07 4.60747e-08 6.25765e-25)
(-6.37151e-07 1.04268e-07 2.4994e-24)
(-6.80673e-07 -1.51608e-09 6.23399e-25)
(-6.1489e-07 -6.77301e-07 4.45399e-25)
(-6.72211e-07 -1.66822e-08 -6.23414e-25)
(-7.72423e-07 -6.78913e-07 -1.41502e-24)
(-6.76747e-07 6.58153e-09 -1.80389e-27)
(4.84306e-07 -4.17266e-07 -1.57858e-26)
(-3.8954e-07 -1.00733e-06 -1.09633e-24)
(-6.51332e-07 -4.42151e-07 -4.51435e-25)
(1.55076e-07 1.1304e-06 -1.6811e-24)
(-6.76439e-07 -7.85851e-08 0)
(-8.10208e-07 -2.42596e-10 3.25014e-25)
(-4.3722e-07 -7.98425e-07 -5.04023e-25)
(-1.74005e-06 -1.69709e-06 2.81196e-25)
(-7.09484e-07 4.04808e-09 0)
(-7.4174e-07 -1.55491e-07 0)
(-1.33473e-07 -1.16027e-06 -1.99904e-24)
(-2.98384e-08 -3.25904e-07 0)
(-3.08295e-07 1.0768e-06 -2.10722e-25)
(-7.60679e-07 3.96017e-07 6.70025e-27)
(6.88735e-07 -4.66789e-07 1.2833e-27)
(-4.87686e-08 -6.75768e-07 0)
(1.84047e-07 -8.84459e-07 2.16128e-25)
(-5.7206e-07 -1.2068e-06 -1.07324e-24)
(-7.69922e-07 6.81424e-07 -1.27844e-24)
(-5.60755e-08 -5.41013e-07 -2.95145e-24)
(-1.28262e-06 1.32853e-06 0)
(5.55658e-07 -6.84422e-07 0)
(-9.30488e-07 5.80694e-07 1.31194e-24)
(-9.7363e-07 9.66406e-07 7.96766e-27)
(-1.20573e-06 8.10795e-07 -6.76895e-27)
(6.78956e-07 -6.56711e-07 -7.25791e-25)
(3.66263e-07 -9.73751e-07 1.71904e-24)
(-6.27989e-07 -3.29612e-07 1.28063e-24)
(-1.55771e-07 -9.35427e-07 4.40173e-24)
(-5.67485e-08 -3.95833e-07 0)
(-2.20078e-07 -8.61183e-08 3.36943e-26)
(-2.32615e-07 -3.5567e-07 -2.44786e-24)
(-1.00143e-06 1.84261e-06 2.87919e-24)
(-7.75012e-07 -9.86343e-07 7.97619e-25)
(-1.10364e-06 -3.27536e-07 -3.11694e-25)
(-1.02179e-06 -2.2634e-06 -4.38423e-24)
(-6.42921e-07 -3.27013e-06 4.52582e-24)
(-1.94131e-07 1.18573e-06 -2.31498e-26)
(-6.05162e-07 -1.38144e-07 -1.28528e-24)
(-5.88661e-07 5.01574e-08 -2.5003e-24)
(-1.16963e-07 1.03473e-06 -6.96103e-26)
(-3.19464e-07 1.54923e-06 -8.22213e-24)
(-1.41662e-07 2.64991e-07 -2.74464e-24)
(-9.74865e-08 -1.54205e-06 -1.04752e-24)
(7.45243e-07 -3.86419e-07 1.85667e-26)
(-6.85135e-07 -2.99077e-07 0)
(-1.45546e-06 -4.39657e-07 -5.0089e-26)
(-5.98125e-07 2.42471e-07 -2.51392e-24)
(-6.52627e-07 4.45732e-07 0)
(-3.21917e-08 -2.48696e-07 2.33991e-24)
(-7.13092e-07 1.65537e-06 0)
(2.10154e-07 -5.35443e-08 0)
(-1.3125e-06 -1.28263e-06 -1.10233e-24)
(3.82089e-07 8.16656e-07 1.50667e-24)
(-2.43053e-07 -6.35209e-07 -8.43205e-27)
(-4.10323e-07 1.51215e-06 4.00453e-24)
(-1.49931e-07 -1.97381e-07 2.50847e-24)
(-1.27958e-06 2.27712e-08 4.79999e-25)
(5.70064e-08 -6.63979e-07 1.98746e-25)
(7.00061e-08 -5.09403e-07 8.53666e-25)
(-1.38615e-06 -1.83716e-06 1.22982e-24)
(4.4444e-07 -5.82609e-07 0)
(-7.52574e-07 1.33924e-06 -2.47705e-24)
(1.42865e-07 1.59847e-06 -7.45207e-25)
(-2.75021e-06 1.8854e-06 -3.364e-25)
(5.27677e-08 5.3146e-09 -4.45372e-25)
(-6.42341e-07 -3.13961e-08 2.4869e-24)
(-1.5642e-07 -1.60923e-06 -1.29905e-27)
(5.06654e-07 -6.25253e-07 -8.36448e-25)
(4.7781e-07 9.25804e-07 -1.48033e-24)
(7.31674e-08 -7.31842e-09 -7.44048e-25)
(-2.2075e-07 4.42488e-07 -1.09676e-25)
(1.66687e-07 1.59811e-06 1.42831e-24)
(3.13186e-08 -1.21904e-08 3.81176e-25)
(-2.28272e-06 -4.84263e-06 0)
(-5.92389e-07 9.4276e-07 -2.93454e-26)
(-5.43969e-07 1.18668e-06 2.45899e-24)
(-6.68457e-07 2.41557e-07 1.24563e-24)
(3.42492e-07 -2.165e-07 2.01564e-25)
(3.55859e-08 -3.14756e-07 -1.23516e-24)
(-4.06263e-07 -9.55276e-07 1.76371e-24)
(1.31688e-07 4.34158e-10 9.10762e-25)
(-2.69339e-07 -1.44454e-06 0)
(5.61696e-07 -8.34243e-07 -1.70816e-26)
(1.08692e-07 -2.02578e-08 -4.33554e-25)
(-1.62831e-07 -6.90023e-07 0)
(-2.40698e-07 -9.15497e-07 -2.23087e-24)
(4.54299e-07 -1.22436e-06 -4.51473e-25)
(-5.11464e-07 3.00849e-06 5.37781e-24)
(-4.30821e-09 7.74839e-10 0)
(-1.49364e-07 1.31092e-06 -2.9039e-24)
(2.61468e-10 -3.96176e-09 -7.50706e-25)
(-1.97546e-06 5.02196e-06 0)
(4.91157e-08 2.86958e-08 -7.36405e-25)
(-2.80883e-06 -6.57804e-07 5.93544e-25)
(3.47849e-08 3.61359e-08 4.59763e-25)
(-8.55127e-07 3.71498e-06 0)
(-1.68932e-06 -4.57363e-06 1.0915e-25)
(8.13663e-09 -3.52625e-09 -2.55322e-26)
(4.23194e-07 -1.52953e-07 0)
(-3.5711e-07 3.85898e-07 0)
(-2.26922e-07 -1.39804e-06 0)
(2.20883e-07 5.09065e-07 1.29779e-24)
(3.96695e-08 -2.10065e-08 0)
(-1.24671e-07 -1.00832e-06 9.64448e-24)
(-5.72081e-07 -1.42837e-06 -1.13542e-25)
(-1.90763e-07 4.20881e-07 0)
(-1.05104e-07 -7.01371e-07 4.30564e-25)
(4.70218e-07 4.83859e-08 0)
(-1.01699e-06 -2.61504e-06 2.48727e-24)
(1.76325e-07 1.32572e-06 2.84905e-24)
(-5.93038e-08 -5.15549e-07 7.78596e-24)
(2.29184e-07 7.73148e-07 6.13269e-25)
(-2.60126e-08 -2.18016e-07 0)
(-1.97818e-07 -1.76279e-07 1.35878e-24)
(-2.01904e-07 9.27008e-08 0)
(-5.45564e-07 -1.55237e-07 5.07674e-26)
(-5.61965e-07 2.83109e-07 5.8239e-26)
(-5.64908e-07 -4.00183e-07 0)
(-5.50166e-07 4.28887e-08 -4.57293e-26)
(2.78786e-07 1.99179e-07 -7.95968e-25)
(-4.66178e-08 2.32475e-07 0)
(-4.04655e-08 4.50155e-07 0)
(-2.90279e-07 1.35204e-06 1.33779e-26)
(-3.45413e-07 1.08901e-06 0)
(-3.08652e-08 5.56857e-07 -4.61171e-25)
(-4.12679e-08 6.45339e-07 -2.68381e-25)
(-2.24341e-07 1.24974e-06 -4.80042e-25)
(4.19911e-07 1.13388e-06 -1.11652e-24)
(2.19715e-07 1.28568e-06 0)
(6.24418e-07 7.36149e-07 -3.0657e-24)
(8.83596e-08 1.46242e-06 0)
(-7.09488e-07 -1.98419e-06 2.2562e-24)
(-2.4107e-06 4.80101e-06 0)
(2.71451e-08 7.22753e-09 0)
(-1.96333e-06 -5.10077e-06 0)
(3.6277e-09 -8.15624e-09 -1.84169e-25)
(-2.86534e-06 -5.28627e-08 5.97296e-25)
(-2.59528e-06 -3.48318e-06 0)
(-1.9863e-07 -1.36364e-06 0)
(5.77484e-10 3.56373e-09 1.74922e-25)
(-5.89829e-07 -2.96781e-06 0)
(-3.57714e-09 5.56889e-10 -2.48956e-25)
(-2.52898e-06 3.10226e-06 5.58493e-25)
(2.26863e-07 -1.51689e-07 2.68759e-25)
(1.87656e-07 4.82981e-08 0)
(5.93519e-07 3.00995e-07 7.66626e-25)
(2.74204e-07 6.86331e-08 0)
(-1.98328e-06 4.28422e-06 0)
(-9.22347e-08 -7.29794e-07 0)
(1.27755e-07 -1.23836e-07 1.14196e-26)
(1.46274e-07 6.60138e-08 6.62516e-25)
(-2.6758e-06 3.19876e-06 -5.54366e-25)
(1.77134e-07 -8.3167e-08 3.27601e-25)
(8.87679e-08 9.80608e-09 6.46166e-25)
(-1.44579e-06 -2.98084e-06 1.50716e-24)
(-4.95545e-08 -3.62802e-07 -4.52488e-24)
(-1.52858e-06 -5.26274e-06 -2.66942e-24)
(-7.87371e-07 -1.63405e-06 1.14867e-24)
(-3.31359e-08 -2.03621e-07 -3.05105e-24)
(-3.70706e-08 -3.13197e-07 1.75241e-24)
(-1.82596e-08 -1.24911e-07 -1.26497e-24)
(-3.60184e-07 2.16237e-06 8.09255e-24)
(7.08403e-09 5.02586e-09 1.11855e-24)
(-6.12186e-07 -2.13909e-07 -5.45901e-26)
(-1.20977e-07 -3.20089e-08 -6.06777e-26)
(2.88865e-07 3.19569e-07 1.73126e-24)
(-6.15666e-07 1.24447e-07 1.69699e-25)
(-2.10294e-08 1.3972e-07 0)
(-3.73799e-08 3.07386e-07 -3.54766e-25)
(5.93531e-07 4.99248e-07 -8.02524e-25)
(-1.98245e-08 1.72886e-07 0)
(1.46309e-07 5.43853e-07 -1.30972e-24)
(-3.98796e-07 1.19658e-06 0)
(-1.28826e-08 2.7264e-07 2.03536e-25)
(-1.32689e-07 9.83037e-07 3.35297e-26)
(-1.06753e-08 1.24935e-06 -4.89329e-25)
(6.74012e-07 6.9161e-07 2.23596e-24)
(1.14814e-07 1.05183e-06 -3.9111e-26)
(5.81967e-07 9.23821e-07 -7.85401e-25)
(8.3647e-08 1.20829e-06 -1.01606e-24)
(5.62397e-07 8.14279e-07 7.94123e-25)
(-7.15952e-08 1.52502e-06 1.56736e-25)
(-2.06439e-07 -4.07506e-07 0)
(-2.85362e-06 -1.95166e-06 -4.91818e-25)
(-3.31911e-07 -6.69636e-07 1.19346e-24)
(4.93886e-07 2.91669e-07 0)
(-1.87281e-07 1.52514e-06 -3.10695e-25)
(-2.19878e-07 3.23759e-07 0)
(-3.27269e-07 5.30701e-07 -3.34947e-25)
(2.06228e-08 -2.52677e-08 -1.53921e-25)
(9.26865e-08 -5.08753e-08 -6.02419e-26)
(6.78615e-08 -6.53829e-08 -9.72108e-26)
(-7.94384e-11 -3.48792e-09 3.84542e-25)
(-2.57616e-07 -1.88674e-06 0)
(-1.08088e-06 -4.26672e-06 6.66038e-25)
(4.09411e-07 4.09434e-07 -2.17584e-24)
)
;

boundaryField
{
    back
    {
        type            empty;
    }
    front
    {
        type            empty;
    }
    left
    {
        type            noSlip;
    }
    top
    {
        type            uniformFixedValue;
        uniformValue    
        {
            type            scale;
            scale           
            {
                type            squarePulse;
                start           0.3;
                duration        0.3;
            }
            xScale          
            {
                type            constant;
                value           1;
            }
            value           
            {
                type            constant;
                value           (0 -0.7 0);
            }
        }
        value           uniform (0 -0 0);
    }
    right
    {
        type            noSlip;
    }
    bottom
    {
        type            zeroGradient;
    }
}


// ************************************************************************* //
