/*--------------------------------*- C++ -*----------------------------------*\
  =========                 |
  \\      /  F ield         | OpenFOAM: The Open Source CFD Toolbox
   \\    /   O peration     | Website:  https://openfoam.org
    \\  /    A nd           | Version:  9
     \\/     M anipulation  |
\*---------------------------------------------------------------------------*/
FoamFile
{
    format      ascii;
    class       surfaceScalarField;
    location    "0.06";
    object      phi;
}
// * * * * * * * * * * * * * * * * * * * * * * * * * * * * * * * * * * * * * //

dimensions      [0 3 -1 0 0 0 0];

internalField   nonuniform List<scalar> 
816
(
-3.27e-11
-5.04e-09
5.07e-09
-7.38e-10
-9.16e-09
9.9e-09
7.94e-09
-7.98e-09
1.26e-08
-1.26e-08
-8.47e-11
5.38e-09
-5.38e-09
1.16e-08
2.17e-09
-1.37e-08
5.65e-09
-5.65e-09
-6.08e-09
6.08e-09
-1.03e-08
-1.85e-09
1.22e-08
-5.03e-09
4.29e-09
1.68e-08
-5.23e-09
1.42e-08
-1.01e-08
-4.1e-09
3.27e-09
8.25e-09
-1.15e-08
1.34e-08
-1.25e-08
-8.59e-10
1.34e-08
-1.19e-08
-1.53e-09
-8.73e-09
1.41e-08
-5.34e-09
3.04e-09
5.13e-09
-8.17e-09
-1.33e-08
1.03e-09
1.23e-08
1.67e-09
1.25e-08
5.78e-09
-1.61e-08
9.4e-09
3.24e-09
9.55e-10
-9.68e-09
8.73e-09
-1.68e-09
-7.05e-09
-8.76e-09
-3.77e-09
1.25e-08
-9.49e-09
7.34e-10
-1.19e-08
2.69e-09
9.21e-09
-1.13e-08
1.26e-08
-1.33e-09
1.35e-10
3.75e-09
-3.88e-09
3.6e-09
-1.28e-08
4.66e-09
9.41e-09
-7.69e-09
7.82e-09
-8.74e-09
1.09e-08
1.74e-08
-1.27e-08
-1.39e-08
6.97e-09
6.98e-09
1e-09
1.24e-08
-2.47e-09
1.19e-08
1.02e-09
1.23e-08
-2.16e-09
-9.74e-09
-1.49e-08
5.26e-09
9.61e-09
3.39e-09
1.99e-09
-4.36e-09
-4.41e-09
3.92e-09
-1.15e-08
-3.58e-10
-1.01e-08
-2.41e-09
1.25e-08
3.48e-09
2.17e-09
-4.65e-09
1.13e-08
-1.31e-08
-6.92e-09
-1.07e-08
-5.78e-10
-3.67e-10
4.22e-09
-3.85e-09
1.09e-08
-7.61e-09
8.88e-09
-1.42e-10
-4.85e-09
-9.09e-09
6.01e-09
5.54e-09
3.72e-09
-1.25e-08
8.82e-09
-1.68e-09
-1.01e-08
1.34e-08
-1.03e-08
3.95e-09
-6.42e-09
6.66e-11
-2.83e-09
7.96e-09
8.99e-09
-7.96e-09
-7.25e-10
-1.18e-08
-6.23e-09
-7.04e-09
1.33e-08
-1.27e-08
1.15e-09
1.16e-08
5.8e-09
7.58e-09
9.22e-09
-4.86e-09
1.51e-08
-1.03e-08
2.67e-09
9.54e-09
-1.22e-08
-2.52e-09
-9.11e-09
5.54e-09
-1.18e-08
9.45e-09
5.14e-09
-1.46e-08
5.18e-09
9.37e-09
-1.45e-08
5.09e-09
-5.09e-09
-5.63e-09
1.14e-08
-8.46e-09
2.83e-09
1.38e-08
1.92e-09
3.15e-09
-5.07e-09
-1.31e-08
2.04e-09
1.1e-08
-5.04e-09
5.56e-09
-5.56e-09
-5.46e-09
5.46e-09
5.93e-09
-1.31e-08
7.21e-09
-4.02e-09
-7.33e-10
4.22e-09
-9.77e-09
1.35e-08
3.1e-11
-9.17e-09
9.14e-09
-8.08e-09
-2.4e-10
8.32e-09
4.9e-09
-6.97e-09
1.29e-08
5.05e-11
-9.94e-09
9.89e-09
8.81e-09
4.99e-09
-1.38e-08
-1.02e-08
1.44e-09
8.55e-09
-9.99e-09
-5.76e-09
-5.99e-09
-5.03e-09
-6.14e-10
1.3e-08
-3.67e-10
-1.23e-08
-7.76e-09
1.04e-08
-1.19e-08
7.89e-09
4.03e-09
7.18e-09
6.37e-09
5.17e-09
-9.68e-10
1.33e-08
-8.55e-09
4.36e-09
-4.02e-09
9.88e-11
-5.19e-09
4.51e-09
7.37e-09
1.22e-08
8.76e-09
-1.3e-08
4.24e-09
-5.06e-09
-6.86e-09
-3.37e-09
-9.19e-09
-2.83e-10
-1.06e-08
1.09e-08
4.34e-10
-8.51e-09
1.21e-08
-5.72e-09
-5.71e-10
9.78e-09
-6.59e-09
1.13e-09
2.77e-09
1.04e-08
-1e-09
-1.03e-09
1.02e-08
-1.12e-08
1.01e-09
-7.39e-09
-5.67e-09
-1.08e-08
7.91e-09
2.9e-09
-1.04e-08
-1.32e-09
1.23e-08
-3.32e-10
-1.2e-08
1.2e-08
-1.76e-09
-3.57e-09
1.24e-08
-3.35e-09
3.35e-09
1.14e-08
9.72e-10
4.62e-10
-1.08e-08
1.04e-08
5.02e-11
-1.01e-08
-1.13e-08
-1.66e-09
8.74e-09
-9.08e-09
1.06e-10
-3.96e-09
3.86e-09
1.51e-09
8.85e-09
2.03e-10
9.07e-09
-9.27e-09
-3.92e-09
-8.14e-10
1.04e-08
7.18e-10
7.43e-09
-8.14e-09
-7.85e-09
5.68e-09
2.16e-09
-1.11e-08
9.79e-09
-1.33e-08
2.13e-10
1.31e-08
-5.5e-09
5.5e-09
3.95e-09
5.01e-10
2.85e-09
-1.09e-09
-1.26e-08
1.37e-08
-4.71e-10
-1.02e-08
1.24e-08
-8.83e-09
-2.69e-09
1.22e-08
-9.53e-09
3.15e-09
4.05e-10
-1.37e-08
-1.14e-08
-3.96e-09
-1.05e-08
1.07e-08
-4.18e-09
4.18e-09
-1.04e-08
-3.98e-09
9.56e-09
-1.06e-08
-8.46e-09
5.77e-09
-4.64e-09
1.73e-08
-1.27e-08
-6.24e-10
-9.87e-09
4.41e-09
-4.36e-09
-4.22e-09
4.68e-09
4.96e-10
-3.34e-09
2.85e-09
8.26e-11
9.48e-09
7.99e-09
5.27e-09
-5.26e-09
1.33e-08
-1.06e-08
-5.69e-09
5.06e-09
4.46e-11
-9.02e-09
8.97e-09
4.49e-09
-4.41e-09
7.45e-10
-9.89e-09
9.14e-09
8.26e-09
-9e-09
8.53e-09
-8.34e-10
-9.98e-09
-7.85e-09
-6.42e-09
-5.29e-09
-5.53e-09
-1.24e-08
-7.99e-10
1.32e-08
-4.1e-09
4.14e-09
-1.22e-08
-8.11e-10
1.31e-08
1.08e-08
-1.26e-10
-1.01e-08
-5.66e-10
-4.29e-09
-9.43e-09
1.48e-08
-5.38e-09
-5.77e-09
5.23e-09
5.42e-10
-5.68e-09
5.21e-09
-1.12e-08
1.09e-08
2.94e-10
1.06e-08
-1e-08
-5.79e-10
-8.46e-09
1.35e-08
-4.42e-09
-1.14e-09
-1.41e-08
8.57e-09
4.68e-09
4.63e-10
-8.18e-10
-1.25e-08
-2.38e-10
7.66e-09
-1.4e-08
-5.61e-10
1.19e-08
1.42e-08
-5.63e-09
8.29e-09
8.03e-09
2.37e-09
2.61e-09
-2.85e-09
1.21e-08
8.55e-09
9.3e-10
-7.75e-09
8.25e-09
4.94e-09
-5.06e-09
-4.98e-09
4.41e-09
-7.65e-09
-9.61e-09
1.55e-08
-5.94e-09
-4.1e-09
-4.42e-09
-3.34e-09
-1.69e-09
-7.95e-09
-5.69e-09
4.94e-09
-4.98e-09
-2.92e-09
-2.43e-10
7.61e-09
-7.36e-09
4.49e-09
5.2e-09
5.31e-10
5.21e-09
3.86e-09
-4.14e-09
-8.9e-10
-4.22e-09
-9.16e-09
-5.24e-09
1.44e-08
8.82e-09
-9.06e-10
-1.03e-08
2.03e-10
1.07e-08
7.65e-10
-2.6e-09
1.84e-09
-3.85e-09
1.01e-08
-1.18e-08
8.54e-11
1.48e-08
-1.36e-08
2.6e-09
-2.85e-09
5.23e-09
5.15e-09
1.26e-11
2.03e-09
-6.11e-09
-1.85e-09
-1.22e-08
1.5e-09
5.7e-09
9.84e-09
7.9e-09
-1.01e-08
1.58e-08
-1.21e-08
2.95e-09
2.61e-09
-4.68e-09
-5.51e-09
-9.54e-09
1.51e-08
4.36e-09
-1.53e-08
-6.14e-09
1.6e-08
-6.28e-09
1.51e-08
1.03e-08
5.12e-10
-2.91e-09
2.91e-09
-5.43e-09
-8.99e-09
1.1e-08
1.01e-08
7.2e-09
-4.14e-09
4.14e-09
-5.15e-09
-2.1e-09
-5.01e-09
3.98e-09
1.03e-09
5.01e-09
-8.68e-10
-1.48e-09
-5.43e-09
-1.11e-08
-1.12e-08
2.17e-09
-1.63e-08
5.83e-09
1.04e-08
-6.01e-09
8.9e-10
-9.81e-09
1.65e-08
-6.7e-09
-1.58e-08
6.02e-09
6.18e-09
-9.71e-09
1.55e-08
8.32e-09
-1.45e-08
-1.15e-09
7.56e-10
5.34e-09
-8.8e-09
9.97e-09
-5.17e-09
-8.54e-09
1.37e-08
-9.39e-09
1.68e-08
-6.79e-09
1.26e-08
5.39e-09
1.14e-08
1.32e-08
-1.45e-08
-1.39e-08
7.12e-09
1.04e-08
-1.69e-08
1.06e-08
-5.58e-09
1.11e-08
-2.03e-09
-9.16e-09
-5.3e-09
5.54e-09
1.1e-08
1.64e-08
-3.59e-09
-6.95e-09
1.05e-08
-3.25e-09
3.25e-09
-2.94e-09
2.94e-09
3.53e-09
-3.53e-09
3.42e-09
-3.42e-09
3.39e-09
3.48e-09
1.04e-08
-1.4e-08
3.66e-09
-4.65e-09
1.02e-08
6.18e-09
5.01e-09
-5.01e-09
-5.19e-09
5.38e-09
-5.38e-09
-1.46e-08
5.54e-09
9.09e-09
-2.83e-09
-1.58e-08
9.76e-09
5.99e-09
-3.3e-09
3.3e-09
-1.38e-08
5.48e-09
8.31e-09
-4.86e-09
-9.3e-09
-9.02e-09
8.99e-09
-4.16e-09
9.3e-09
-3.47e-09
-1.29e-08
-1.4e-08
8.88e-09
3.78e-09
2.76e-10
4.8e-10
5.25e-10
-8.7e-09
-1.57e-08
8.88e-09
6.78e-09
-1.01e-08
-4.91e-09
-4.51e-09
-3.67e-10
5.49e-09
-1.27e-08
5.72e-09
-7.18e-09
-1.02e-08
1.74e-08
-5.17e-09
-9.58e-09
3.99e-09
5.59e-09
-1.23e-09
-1.14e-08
5.04e-10
1.09e-08
-3.86e-09
3.64e-09
-3.64e-09
-2.12e-10
-6.97e-09
-5.79e-09
-6.46e-09
1.16e-08
1.19e-08
-3.64e-09
-1.15e-08
-8.09e-09
-6.07e-10
1.44e-08
-7.18e-09
-5.72e-09
-1.06e-08
-7.99e-09
-1.12e-08
-2.03e-09
-7.13e-09
-3.07e-09
-6.87e-09
-5.24e-09
-9.34e-09
-1.32e-08
-2.76e-09
1.07e-08
-9.34e-09
-8.35e-09
-1.05e-08
9.7e-09
-1.11e-08
1.45e-09
-3.87e-09
-8.55e-10
-1.11e-09
9.93e-09
-3.87e-09
-2.07e-09
1.38e-08
2.4e-09
-1.62e-08
1.54e-08
5.39e-09
7.13e-09
-5.94e-09
1.14e-08
3.69e-09
-3.69e-09
1.02e-08
2e-09
4.98e-09
1.86e-09
-8.8e-09
9.35e-09
-1.3e-08
1.39e-08
8.64e-09
7.14e-09
-1.25e-08
5.38e-09
-6.89e-10
1.36e-08
-4.51e-09
8.17e-09
1.07e-08
-8.26e-09
6.79e-10
3.75e-09
-9.09e-09
5.02e-09
4.7e-09
5.61e-09
8.16e-09
-1.08e-08
1.68e-09
-7.86e-09
1.47e-09
9.08e-09
-8.37e-09
8.98e-09
1.88e-09
-8.53e-09
3.54e-09
-3.88e-10
4.3e-09
-1.31e-08
-5.66e-10
-1.46e-08
1.54e-09
-3.3e-10
2.85e-09
1.1e-09
-8.68e-09
1.23e-08
1.1e-09
-1.25e-08
-3.88e-09
3.54e-09
9.82e-09
-7.66e-09
-8.87e-09
-5.17e-09
8.17e-09
5.14e-09
-9.14e-09
2.85e-09
5.39e-09
-1.23e-08
-1.21e-08
1.19e-08
-3.9e-10
-7.36e-09
-6.65e-09
6.65e-09
4.77e-09
-1.3e-08
-6.73e-09
6.73e-09
-8.95e-09
-1.24e-08
-9.46e-09
-9.56e-09
4.89e-09
4.75e-09
1.14e-08
-3.21e-09
-7.92e-09
8.57e-09
9.04e-09
-1.35e-08
5.83e-09
-7.12e-09
7.4e-09
-8.71e-09
-7.16e-09
-5.36e-09
-6.84e-09
-2.27e-09
-8.63e-09
-3.82e-09
5.34e-09
-7e-09
6.63e-09
1.54e-09
1.09e-08
-2.04e-10
-1.29e-08
-1.14e-08
-7.05e-09
-1.11e-09
-8.65e-09
-1.2e-09
-1.72e-09
-2.18e-09
-5.46e-09
5.48e-09
1.1e-08
-1.29e-09
-7.28e-09
-1.24e-10
7.42e-09
8.98e-09
-9.85e-09
-9.91e-09
-1.04e-08
-1.08e-08
-4.14e-09
3.05e-09
1.47e-09
)
;

boundaryField
{
    front
    {
        type            empty;
        value           nonuniform List<scalar> 0();
    }
    back
    {
        type            empty;
        value           nonuniform List<scalar> 0();
    }
    bottom
    {
        type            calculated;
        value           nonuniform List<scalar> 
12
(
4.75e-09
1.18e-08
9.63e-09
9.78e-09
6.87e-09
1.84e-09
1.85e-09
1.05e-08
1.22e-08
1.13e-08
6.94e-09
4.73e-09
)
;
    }
    left
    {
        type            calculated;
        value           uniform 0;
    }
    top
    {
        type            calculated;
        value           nonuniform List<scalar> 8(-1.15e-08 -1.15e-08 -1.15e-08 -1.15e-08 -1.15e-08 -1.15e-08 -1.15e-08 -1.15e-08);
    }
    right
    {
        type            calculated;
        value           uniform 0;
    }
    inner_arc
    {
        type            calculated;
        value           uniform 0;
    }
}


// ************************************************************************* //
