/*--------------------------------*- C++ -*----------------------------------*\
  =========                 |
  \\      /  F ield         | OpenFOAM: The Open Source CFD Toolbox
   \\    /   O peration     | Website:  https://openfoam.org
    \\  /    A nd           | Version:  9
     \\/     M anipulation  |
\*---------------------------------------------------------------------------*/
FoamFile
{
    format      ascii;
    class       volScalarField;
    location    "2.67";
    object      p;
}
// * * * * * * * * * * * * * * * * * * * * * * * * * * * * * * * * * * * * * //

dimensions      [0 2 -2 0 0 0 0];

internalField   nonuniform List<scalar> 
1655
(
11.8795
11.884
11.8731
11.8705
11.8813
11.8795
11.8728
11.876
11.864
11.8812
11.8751
11.8759
11.8771
11.8778
11.8671
11.8759
11.8713
11.8645
11.8778
11.8777
11.8739
11.8639
11.8805
11.8808
11.8781
11.8739
11.8756
11.8678
11.8695
11.8724
11.87
11.873
11.8764
11.8714
11.8651
11.8711
11.8795
11.8829
11.8766
11.885
11.874
11.8813
11.8772
11.8765
11.8779
11.8707
11.8701
11.8777
11.8803
11.8773
11.8793
11.8735
11.8663
11.8661
11.8641
11.8701
11.8748
11.875
11.8708
11.8707
11.8702
11.8786
11.8798
11.8754
11.8746
11.8711
11.8712
11.8733
11.8648
11.8815
11.8741
11.8723
11.8727
11.8661
11.8714
11.8762
11.8708
11.8654
11.8747
11.8725
11.8742
11.8764
11.8633
11.8763
11.8724
11.8691
11.8719
11.8729
11.8868
11.8699
11.8707
11.873
11.8775
11.8803
11.8773
11.8779
11.8716
11.8715
11.873
11.8741
11.8727
11.8729
11.8806
11.8733
11.8628
11.8787
11.874
11.8725
11.8741
11.8709
11.8754
11.8769
11.8724
11.8725
11.8761
11.8699
11.8751
11.8705
11.8861
11.8634
11.8738
11.8714
11.8712
11.8699
11.8721
11.8787
11.8774
11.8772
11.8762
11.8728
11.8797
11.8751
11.8755
11.8791
11.8727
11.8861
11.8815
11.8657
11.8743
11.8708
11.8687
11.8756
11.8759
11.8722
11.8676
11.871
11.8749
11.874
11.8762
11.8668
11.8687
11.8658
11.8705
11.87
11.8686
11.8775
11.875
11.8722
11.8749
11.8739
11.875
11.8798
11.8663
11.8718
11.8722
11.872
11.8678
11.8776
11.8726
11.8647
11.8689
11.8658
11.8757
11.8708
11.8724
11.8722
11.88
11.8652
11.8727
11.8778
11.8691
11.8662
11.8791
11.87
11.8809
11.8729
11.8768
11.8729
11.8664
11.8679
11.8793
11.8784
11.8687
11.8733
11.873
11.8726
11.867
11.8731
11.8876
11.8688
11.8698
11.87
11.8715
11.872
11.8741
11.8744
11.8762
11.8698
11.8729
11.8715
11.8729
11.8731
11.8847
11.8777
11.8779
11.8704
11.8714
11.8828
11.8721
11.8704
11.8773
11.8733
11.8766
11.8725
11.8763
11.873
11.8725
11.8731
11.8694
11.8668
11.8759
11.8571
11.8531
11.8665
11.8758
11.8758
11.8733
11.8715
11.8725
11.8442
11.8683
11.8807
11.8425
11.8729
11.8732
11.8731
11.8663
11.8676
11.8728
11.8711
11.8768
11.8727
11.8776
11.8731
11.8758
11.8722
11.8737
11.8744
11.865
11.8769
11.8792
11.8726
11.8719
11.8724
11.877
11.8771
11.8769
11.8777
11.8759
11.8778
11.8655
11.8673
11.8797
11.8727
11.8668
11.8686
11.8657
11.8749
11.8647
11.8702
11.8663
11.8778
11.8687
11.8672
11.8676
11.8697
11.8693
11.8752
11.8765
11.8667
11.869
11.8736
11.8774
11.8669
11.8721
11.8748
11.8754
11.8706
11.8734
11.8731
11.8748
11.8804
11.8801
11.8743
11.8712
11.8657
11.8745
11.8728
11.874
11.8704
11.8711
11.8663
11.8728
11.8753
11.876
11.8735
11.8738
11.8655
11.8693
11.8741
11.8681
11.8776
11.8752
11.8747
11.8748
11.8716
11.8722
11.877
11.8734
11.8773
11.876
11.8711
11.8777
11.8727
11.8733
11.8723
11.8781
11.8771
11.8721
11.872
11.8745
11.8735
11.868
11.8642
11.8676
11.8741
11.8777
11.8744
11.8741
11.8728
11.8797
11.876
11.8607
11.8752
11.8656
11.8685
11.8729
11.8713
11.8752
11.8702
11.8683
11.8764
11.8656
11.8628
11.8768
11.8681
11.8731
11.8811
11.8716
11.8752
11.879
11.8755
11.877
11.8691
11.8816
11.8748
11.8767
11.8767
11.8759
11.8733
11.8758
11.8629
11.8782
11.866
11.874
11.8668
11.8679
11.8748
11.87
11.8717
11.8751
11.8766
11.8773
11.8683
11.8731
11.8678
11.868
11.8711
11.8674
11.8784
11.8699
11.8761
11.8596
11.8778
11.8762
11.8754
11.8688
11.8759
11.8819
11.8763
11.8815
11.8539
11.8662
11.8765
11.8754
11.8488
11.8703
11.8496
11.868
11.8674
11.8786
11.8564
11.8707
11.8673
11.8699
11.8642
11.8463
11.8719
11.8726
11.8724
11.8737
11.8707
11.8681
11.8812
11.8509
11.8562
11.8755
11.8739
11.8811
11.8502
11.8757
11.8584
11.8759
11.8669
11.8635
11.8535
11.8722
11.8773
11.872
11.8772
11.872
11.8634
11.8719
11.8597
11.8721
11.8538
11.8775
11.8648
11.8726
11.8706
11.8677
11.8551
11.8667
11.8652
11.879
11.8783
11.8608
11.8661
11.8487
11.8647
11.8668
11.8762
11.8563
11.8764
11.8652
11.8651
11.8685
11.8606
11.8427
11.8709
11.8692
11.8755
11.8461
11.8715
11.8639
11.8508
11.8706
11.8712
11.8752
11.8715
11.8658
11.8713
11.8459
11.8734
11.8675
11.8599
11.8639
11.8708
11.8561
11.8732
11.868
11.868
11.8707
11.867
11.8604
11.8678
11.8719
11.8674
11.866
11.871
11.8797
11.868
11.8758
11.8642
11.8715
11.8729
11.8663
11.8605
11.8662
11.8699
11.864
11.8506
11.8714
11.8661
11.868
11.8431
11.8684
11.8672
11.8646
11.8708
11.8684
11.8711
11.8845
11.8703
11.879
11.8859
11.8805
11.8777
11.8738
11.8712
11.8774
11.8725
11.8783
11.8702
11.8871
11.8796
11.8816
11.8712
11.8668
11.8754
11.8748
11.8683
11.8693
11.8689
11.866
11.8618
11.8716
11.8691
11.8729
11.8714
11.8636
11.8734
11.8427
11.8726
11.8786
11.8698
11.8613
11.8675
11.8721
11.872
11.8729
11.8721
11.8735
11.8762
11.8724
11.8616
11.8688
11.875
11.8655
11.8608
11.869
11.8686
11.878
11.8716
11.8734
11.8687
11.8726
11.8526
11.8707
11.8476
11.8698
11.8589
11.8644
11.8683
11.8455
11.8679
11.874
11.8754
11.8705
11.8723
11.8716
11.867
11.8731
11.871
11.8656
11.8657
11.8701
11.8722
11.8751
11.8696
11.8666
11.87
11.8757
11.8683
11.8769
11.8721
11.8601
11.87
11.8446
11.8714
11.8626
11.8512
11.8552
11.8727
11.8477
11.8738
11.8566
11.8621
11.8663
11.87
11.8495
11.8708
11.8691
11.8693
11.87
11.8707
11.8696
11.8716
11.8696
11.8593
11.8731
11.8717
11.855
11.8706
11.8714
11.8792
11.8678
11.8691
11.8724
11.8686
11.8716
11.872
11.8517
11.8603
11.8616
11.8761
11.8531
11.8724
11.859
11.8617
11.8653
11.8722
11.8723
11.8583
11.8467
11.8724
11.8713
11.8712
11.8704
11.8733
11.8718
11.8688
11.872
11.8734
11.8727
11.87
11.873
11.8764
11.8727
11.8723
11.8725
11.8723
11.8712
11.8472
11.8719
11.8567
11.872
11.875
11.8724
11.8721
11.8724
11.8722
11.8775
11.8721
11.8713
11.8725
11.8718
11.8724
11.8732
11.8735
11.8511
11.8718
11.875
11.8718
11.8733
11.8746
11.8726
11.8547
11.8728
11.8715
11.8519
11.8691
11.8581
11.8548
11.8581
11.8751
11.874
11.8748
11.8528
11.8714
11.8713
11.8728
11.8724
11.8536
11.8786
11.8496
11.8729
11.8758
11.8647
11.8736
11.8634
11.8782
11.8732
11.8716
11.8782
11.8759
11.8729
11.8705
11.8735
11.8715
11.8491
11.8789
11.8759
11.8514
11.8726
11.8714
11.8736
11.8723
11.8729
11.8711
11.8738
11.873
11.8723
11.8706
11.8618
11.8768
11.8766
11.8742
11.8608
11.8778
11.856
11.8581
11.8741
11.877
11.8734
11.8753
11.8716
11.8521
11.8742
11.8715
11.8574
11.8762
11.8767
11.8728
11.8619
11.8694
11.8759
11.8734
11.8703
11.8696
11.8751
11.8748
11.8746
11.8745
11.8703
11.8706
11.8781
11.8588
11.874
11.8677
11.8761
11.862
11.8732
11.8722
11.8765
11.8751
11.8632
11.8749
11.8784
11.8759
11.8787
11.8783
11.8775
11.8763
11.8585
11.8666
11.8753
11.8794
11.8584
11.8785
11.8652
11.8813
11.8682
11.8783
11.8725
11.8573
11.8769
11.8753
11.8778
11.8645
11.8695
11.8769
11.8721
11.8795
11.8671
11.8555
11.8755
11.8734
11.8758
11.8744
11.8738
11.877
11.868
11.8759
11.8753
11.8767
11.8761
11.8742
11.8783
11.8765
11.8672
11.874
11.8633
11.8788
11.8787
11.8758
11.8664
11.8746
11.8842
11.8761
11.8744
11.8729
11.8737
11.8747
11.8766
11.879
11.8868
11.8755
11.8729
11.8688
11.8788
11.8728
11.8744
11.8607
11.876
11.8749
11.8792
11.8741
11.8749
11.8736
11.8742
11.878
11.8794
11.875
11.8686
11.8849
11.8755
11.8863
11.8676
11.8752
11.8774
11.8795
11.8734
11.8711
11.8778
11.8679
11.8775
11.8743
11.8741
11.8782
11.8799
11.8739
11.8734
11.8745
11.8802
11.8699
11.8761
11.8669
11.8771
11.8728
11.877
11.8739
11.8854
11.8779
11.8802
11.8776
11.8748
11.88
11.8773
11.8847
11.8776
11.8661
11.8741
11.8789
11.88
11.8783
11.8781
11.8754
11.8774
11.8867
11.872
11.8806
11.8767
11.8684
11.8767
11.877
11.876
11.8836
11.878
11.88
11.8784
11.8762
11.8781
11.8801
11.8801
11.8844
11.875
11.8754
11.8702
11.8744
11.8771
11.8688
11.8777
11.8715
11.8683
11.8772
11.871
11.8775
11.8761
11.8807
11.8803
11.8768
11.8718
11.876
11.8501
11.8756
11.8727
11.8689
11.8735
11.8779
11.8785
11.8689
11.8784
11.8733
11.8757
11.8739
11.8718
11.8694
11.8718
11.8759
11.8707
11.8777
11.8739
11.8756
11.8806
11.8808
11.877
11.88
11.8753
11.878
11.8801
11.8776
11.8751
11.8726
11.8771
11.8804
11.8714
11.8782
11.8712
11.878
11.8795
11.8774
11.8811
11.8715
11.8831
11.8784
11.8741
11.8781
11.878
11.8802
11.8809
11.8803
11.8816
11.8806
11.878
11.8801
11.8866
11.8763
11.8746
11.8762
11.8748
11.8807
11.8798
11.8758
11.878
11.879
11.8775
11.8786
11.8754
11.879
11.8769
11.861
11.8717
11.8785
11.8745
11.8754
11.8791
11.8768
11.8772
11.8807
11.8465
11.8727
11.8747
11.8738
11.8759
11.8766
11.8699
11.8746
11.8769
11.8806
11.8779
11.856
11.8775
11.8766
11.8756
11.8756
11.8737
11.8777
11.8734
11.875
11.8696
11.8756
11.8778
11.8746
11.8747
11.8669
11.8773
11.8764
11.8735
11.8644
11.8623
11.8742
11.8779
11.8755
11.8764
11.8712
11.8766
11.8792
11.8795
11.8761
11.8745
11.8763
11.8769
11.8795
11.875
11.8774
11.8774
11.8747
11.866
11.878
11.8687
11.8713
11.8795
11.8747
11.8686
11.8743
11.8733
11.8723
11.8625
11.8763
11.8769
11.8735
11.8778
11.8772
11.8772
11.8784
11.8687
11.8793
11.863
11.8795
11.8735
11.8795
11.8716
11.8756
11.8679
11.873
11.8793
11.874
11.87
11.879
11.8768
11.8738
11.8793
11.8729
11.8795
11.8768
11.8725
11.8791
11.8706
11.8714
11.8813
11.8714
11.8743
11.8625
11.8719
11.868
11.8787
11.8667
11.8703
11.879
11.8784
11.8727
11.8688
11.8772
11.8699
11.8761
11.8752
11.8757
11.8696
11.8752
11.8784
11.8646
11.8732
11.8764
11.8757
11.8796
11.8773
11.8788
11.8627
11.8535
11.8608
11.8797
11.8746
11.8725
11.8776
11.8789
11.8785
11.8771
11.8744
11.8726
11.8774
11.8578
11.8508
11.871
11.8781
11.8724
11.8428
11.8467
11.8721
11.8797
11.8792
11.8786
11.876
11.846
11.8745
11.873
11.8726
11.8787
11.85
11.8788
11.8789
11.876
11.8782
11.863
11.8764
11.8726
11.872
11.8739
11.8749
11.8789
11.8604
11.8796
11.8709
11.8732
11.8736
11.8725
11.8626
11.8733
11.8764
11.8791
11.8789
11.8721
11.8751
11.8749
11.8771
11.8672
11.8781
11.8702
11.8733
11.8778
11.8803
11.8463
11.8718
11.8767
11.8565
11.8723
11.8736
11.8696
11.8684
11.8783
11.8794
11.8785
11.8764
11.8676
11.8725
11.8801
11.8843
11.8576
11.8424
11.8735
11.8791
11.8748
11.8797
11.88
11.8549
11.8798
11.8646
11.8752
11.8736
11.8774
11.8494
11.8721
11.8451
11.8794
11.8805
11.866
11.8806
11.8725
11.8732
11.8731
11.87
11.8598
11.8459
11.8758
11.8782
11.8636
11.8443
11.853
11.8741
11.8725
11.8716
11.8535
11.8636
11.8634
11.8691
11.8755
11.8795
11.8717
11.8758
11.8746
11.8752
11.8725
11.8696
11.8692
11.8689
11.8778
11.8768
11.8738
11.8697
11.8838
11.8727
11.8756
11.8702
11.8697
11.8804
11.8812
11.878
11.8445
11.8639
11.8524
11.8831
11.867
11.8631
11.8809
11.8649
11.8698
11.8646
11.8724
11.8631
11.8633
11.8759
11.8761
11.8836
11.879
11.8811
11.8813
11.8792
11.8816
11.8645
11.8807
11.8751
11.8725
11.8816
11.8691
11.8737
11.8743
11.8703
11.8666
11.8694
11.8778
11.8693
11.8695
11.8621
11.8804
11.8676
11.8709
11.8705
11.8734
11.8663
11.8644
11.8766
11.8754
11.8626
11.8772
11.8657
11.8625
11.8772
11.8758
11.8782
11.8789
11.8792
11.8741
11.8768
11.8777
11.8785
11.8795
11.8782
11.8808
11.8749
11.8753
11.8768
11.8761
11.8792
11.8787
11.8793
11.8744
11.8804
11.8762
11.8779
11.8727
11.8716
11.8682
11.8725
11.8812
11.8815
11.8721
11.8819
11.8725
11.8732
11.8776
11.8732
11.8628
11.8727
11.8835
11.8822
11.8693
11.8771
11.8767
11.87
11.8874
11.8814
11.8861
11.876
11.8695
11.8728
11.8734
11.8772
11.8792
11.8806
11.8627
11.8831
11.8799
11.8732
11.8756
11.8656
11.8778
11.8773
11.8658
11.8807
11.8778
11.871
11.879
11.8635
11.8776
11.8828
11.8765
11.8793
11.8654
11.8804
11.8754
11.8808
11.8728
11.8751
11.8726
11.8735
11.8789
11.8797
11.8759
11.8796
11.8666
11.8741
11.8763
11.8775
11.8745
11.8788
11.8809
11.8783
11.8773
11.8815
11.8769
11.8778
11.8854
11.8866
11.8766
11.8767
11.8722
11.8693
11.8696
11.8869
11.8627
11.8621
11.8731
11.8762
11.8765
11.8769
11.8709
11.8625
11.8721
11.8726
11.8735
11.8734
11.874
11.8749
11.8726
11.8776
11.8628
11.8809
11.8734
11.8782
11.8807
11.8681
11.88
11.8797
11.8777
11.8797
11.8685
11.8726
11.8618
11.8773
11.8712
11.8778
11.882
11.8792
11.8738
11.8704
11.8706
11.8778
11.8796
11.8727
11.8667
11.8812
11.8809
11.8729
11.8642
11.8807
11.8663
11.8771
11.8641
11.8729
11.8723
11.8682
11.8778
11.8782
11.8802
11.8817
11.8808
11.8813
11.8799
11.881
11.8815
11.8805
11.8812
11.8704
11.871
11.8655
11.8876
11.8812
11.8836
11.8701
11.8701
11.8706
11.8632
11.8735
11.88
11.863
11.8756
11.8776
11.8725
11.8821
11.8699
11.8761
11.8809
11.873
11.8876
11.8861
11.8778
11.8749
11.8644
11.8793
11.8733
11.8725
11.8872
11.863
11.8767
11.8716
11.8653
11.8653
11.8701
11.8774
11.8665
11.8798
11.8771
11.8826
11.8723
11.8807
11.8796
11.8779
11.876
11.8775
11.8736
11.8729
11.8771
11.8814
11.878
11.8766
11.8685
11.8729
11.8799
11.8777
11.8788
11.8737
11.8781
11.8763
11.8635
11.8779
11.8762
11.8632
11.87
11.8784
11.8799
11.8778
11.8761
11.8813
11.8813
11.8788
11.8714
11.8817
11.8659
11.8805
11.8712
11.8624
11.8826
11.865
11.8701
11.8769
11.8777
11.8644
11.8757
11.8818
11.8878
11.8716
11.8724
11.8749
11.8698
11.8596
11.8737
11.8701
11.8726
11.8741
11.8639
11.8737
11.879
11.8629
11.8815
11.8745
11.8762
11.8673
11.8757
11.8788
11.8759
11.8673
11.8814
11.8808
11.8635
11.8698
11.8778
11.8676
11.8776
11.8813
11.8754
11.8738
11.8876
11.8737
11.8776
11.8737
11.8805
11.8808
11.8778
11.8807
11.8701
11.8694
11.8708
11.8808
11.8728
11.8814
11.8754
11.8849
11.8778
11.8819
11.8717
11.8777
11.8837
11.8665
11.8777
11.8815
11.8849
11.8736
11.8761
11.8741
11.8637
11.8744
11.8736
11.8748
11.8816
11.8637
)
;

boundaryField
{
    back
    {
        type            empty;
    }
    front
    {
        type            empty;
    }
    top
    {
        type            zeroGradient;
    }
    outer_arc
    {
        type            zeroGradient;
    }
    bottom
    {
        type            uniformFixedValue;
        uniformValue    
        {
            type            table;
            format          csv;
            file            "outlet_p.csv";
            nHeaderLine     1;
            refColumn       0;
            componentColumns List<label> 1(1);
            separator       ",";
            mergeSeparators 0;
        }
        value           uniform 11.8623;
    }
    inner_arc
    {
        type            zeroGradient;
    }
}


// ************************************************************************* //
