/*--------------------------------*- C++ -*----------------------------------*\
  =========                 |
  \\      /  F ield         | OpenFOAM: The Open Source CFD Toolbox
   \\    /   O peration     | Website:  https://openfoam.org
    \\  /    A nd           | Version:  9
     \\/     M anipulation  |
\*---------------------------------------------------------------------------*/
FoamFile
{
    format      ascii;
    class       surfaceScalarField;
    location    "0.19";
    object      phi;
}
// * * * * * * * * * * * * * * * * * * * * * * * * * * * * * * * * * * * * * //

dimensions      [0 3 -1 0 0 0 0];

internalField   nonuniform List<scalar> 
816
(
4.99e-10
-8.29e-09
7.79e-09
-1.55e-09
-1.58e-08
1.73e-08
1.34e-08
-1.29e-08
2.22e-08
-2.2e-08
-2.67e-10
8.63e-09
-8.63e-09
1.95e-08
3.7e-09
-2.32e-08
9.09e-09
-9.09e-09
-1e-08
1e-08
-1.72e-08
-3.49e-09
2.06e-08
-8.94e-09
7.39e-09
2.81e-08
-8.55e-09
2.41e-08
-1.67e-08
-7.46e-09
5.89e-09
1.34e-08
-1.93e-08
2.35e-08
-2.28e-08
-7.61e-10
2.37e-08
-2.18e-08
-1.95e-09
-1.49e-08
2.3e-08
-8.17e-09
4.23e-09
9.26e-09
-1.35e-08
-2.26e-08
2.51e-09
2.01e-08
2.9e-09
2.12e-08
9.31e-09
-2.65e-08
1.67e-08
5.56e-09
1.17e-09
-1.6e-08
1.48e-08
-2.79e-09
-1.2e-08
-1.57e-08
-6.4e-09
2.21e-08
-1.7e-08
1.29e-09
-2.04e-08
4.41e-09
1.6e-08
-1.98e-08
2.24e-08
-2.54e-09
5.14e-10
7e-09
-7.51e-09
6.39e-09
-2.22e-08
8.36e-09
1.47e-08
-1.37e-08
1.42e-08
-1.54e-08
1.91e-08
2.91e-08
-2.08e-08
-2.45e-08
1.23e-08
1.22e-08
1.29e-09
2.24e-08
-4.31e-09
1.9e-08
1.29e-09
2.22e-08
-3.59e-09
-1.68e-08
-2.41e-08
8.09e-09
1.6e-08
4.98e-09
3.65e-09
-7.34e-09
-7.1e-09
6.41e-09
-2.06e-08
-1.18e-09
-1.85e-08
-4.77e-09
2.33e-08
5.1e-09
3.99e-09
-7.8e-09
2.02e-08
-2.37e-08
-1.07e-08
-1.87e-08
-1.15e-09
-6.84e-10
7.55e-09
-6.87e-09
1.8e-08
-1.21e-08
1.57e-08
-8.8e-10
-8.16e-09
-1.63e-08
1e-08
9.39e-09
6.32e-09
-2.13e-08
1.5e-08
-2.79e-09
-1.85e-08
2.18e-08
-1.75e-08
5.69e-09
-1e-08
-8.19e-10
-4.95e-09
1.42e-08
1.67e-08
-1.42e-08
-1.85e-09
-2.09e-08
-1.04e-08
-1.15e-08
2.19e-08
-2.31e-08
2.57e-09
1.89e-08
1.03e-08
1.26e-08
1.54e-08
-9.04e-09
2.55e-08
-1.65e-08
4.32e-09
1.69e-08
-2.12e-08
-4.71e-09
-1.61e-08
9.3e-09
-1.97e-08
1.68e-08
8.58e-09
-2.53e-08
8.55e-09
1.54e-08
-2.39e-08
9.19e-09
-9.19e-09
-8.83e-09
1.81e-08
-1.31e-08
4.28e-09
2.27e-08
3.34e-09
4.45e-09
-7.79e-09
-2.25e-08
4.02e-09
1.85e-08
-8.29e-09
9.7e-09
-9.7e-09
-8.82e-09
8.82e-09
1.04e-08
-2.22e-08
1.18e-08
-5.8e-09
-7.57e-10
7.55e-09
-1.59e-08
2.22e-08
-3.54e-12
-1.55e-08
1.55e-08
-1.34e-08
-1.67e-10
1.36e-08
8.62e-09
-1.27e-08
2.31e-08
3.99e-11
-1.7e-08
1.69e-08
1.47e-08
7.54e-09
-2.23e-08
-1.72e-08
3.36e-09
1.38e-08
-1.72e-08
-9.65e-09
-9.92e-09
-8.94e-09
-4.78e-10
2.29e-08
-1.1e-09
-2.2e-08
-1.34e-08
1.78e-08
-1.95e-08
1.24e-08
7.1e-09
1.14e-08
1.06e-08
8.88e-09
-1.06e-09
2.33e-08
-1.47e-08
7.34e-09
-5.8e-09
6.81e-10
-9.87e-09
7.61e-09
1.14e-08
2.13e-08
1.39e-08
-2.15e-08
7.65e-09
-8.75e-09
-1.07e-08
-5.88e-09
-1.61e-08
2.41e-10
-1.82e-08
1.79e-08
7.1e-10
-1.41e-08
2.02e-08
-9.68e-09
-9.4e-10
1.69e-08
-1.1e-08
2.22e-09
4.45e-09
1.87e-08
-2.02e-09
-1.34e-09
1.79e-08
-1.91e-08
1.26e-09
-1.3e-08
-9.49e-09
-1.9e-08
1.35e-08
5.43e-09
-1.86e-08
-1.49e-09
2.13e-08
-3.16e-10
-2.09e-08
2.04e-08
-2.51e-09
-5.64e-09
2.03e-08
-5.47e-09
5.47e-09
1.99e-08
1.32e-09
9.3e-10
-1.72e-08
1.62e-08
1.94e-10
-1.69e-08
-1.93e-08
-2.16e-09
1.49e-08
-1.52e-08
1.34e-10
-6.33e-09
6.2e-09
1.82e-09
1.5e-08
2.98e-10
1.62e-08
-1.65e-08
-6.41e-09
-7.88e-10
1.68e-08
8.63e-10
1.32e-08
-1.41e-08
-1.43e-08
1.09e-08
3.47e-09
-1.96e-08
1.81e-08
-2.29e-08
8.69e-10
2.2e-08
-1.05e-08
1.05e-08
5.69e-09
7.94e-10
4.68e-09
-1.44e-09
-2.18e-08
2.33e-08
-8.12e-10
-1.78e-08
2.11e-08
-1.47e-08
-4.3e-09
2.08e-08
-1.65e-08
4.45e-09
7.34e-11
-2.3e-08
-2.08e-08
-6.33e-09
-1.65e-08
1.74e-08
-7.52e-09
7.52e-09
-1.87e-08
-7.23e-09
1.58e-08
-1.72e-08
-1.53e-08
1.1e-08
-7.61e-09
2.82e-08
-2.06e-08
-6.98e-10
-1.58e-08
7.1e-09
-6.91e-09
-6.07e-09
7e-09
7.57e-10
-5.4e-09
4.64e-09
1.92e-10
1.56e-08
1.3e-08
8.9e-09
-8.51e-09
2.15e-08
-1.73e-08
-8.23e-09
7.53e-09
3.81e-11
-1.59e-08
1.59e-08
7.16e-09
-6.97e-09
8.99e-10
-1.68e-08
1.59e-08
1.37e-08
-1.44e-08
1.42e-08
-1.59e-09
-1.56e-08
-1.43e-08
-1e-08
-9.9e-09
-9.06e-09
-2.15e-08
-8.29e-10
2.23e-08
-7.32e-09
7.35e-09
-2.13e-08
-7.95e-10
2.21e-08
1.73e-08
1.05e-10
-1.65e-08
-7.44e-10
-7.39e-09
-1.49e-08
2.34e-08
-8.53e-09
-1.1e-08
1.01e-08
9.14e-10
-1.09e-08
1.01e-08
-1.81e-08
1.73e-08
7.16e-10
1.72e-08
-1.65e-08
-7.25e-10
-1.53e-08
2.18e-08
-7.86e-09
-1.84e-09
-2.25e-08
1.38e-08
7.67e-09
3.43e-10
-1.83e-09
-2.32e-08
-2.6e-10
1.35e-08
-2.35e-08
-7.31e-10
2.07e-08
2.26e-08
-8.81e-09
1.43e-08
1.44e-08
4.26e-09
4.38e-09
-4.64e-09
2.1e-08
1.43e-08
1.28e-09
-1.36e-08
1.44e-08
7.63e-09
-7.53e-09
-7.72e-09
6.97e-09
-1.33e-08
-1.51e-08
2.45e-08
-9.35e-09
-7.32e-09
-7.86e-09
-5.4e-09
-2.16e-09
-1.31e-08
-8.23e-09
7.63e-09
-7.72e-09
-4.24e-09
-2.81e-10
1.35e-08
-1.32e-08
7.16e-09
8.29e-09
8.31e-10
1.01e-08
6.2e-09
-7.35e-09
-1.59e-09
-6.07e-09
-1.56e-08
-8.48e-09
2.4e-08
1.41e-08
-1.18e-09
-1.8e-08
3.14e-10
1.88e-08
1.04e-09
-4.4e-09
3.36e-09
-6.87e-09
1.78e-08
-2e-08
2.06e-10
2.53e-08
-2.27e-08
4.4e-09
-4.68e-09
1.01e-08
9.86e-09
5.61e-10
3.27e-09
-1.15e-08
-3.37e-09
-2.12e-08
2.04e-09
8.98e-09
1.55e-08
1.29e-08
-1.61e-08
2.5e-08
-2.06e-08
5.04e-09
4.38e-09
-7e-09
-8.8e-09
-1.59e-08
2.47e-08
6.91e-09
-2.45e-08
-9.83e-09
2.53e-08
-9.91e-09
2.4e-08
1.62e-08
7.99e-10
-5.28e-09
5.28e-09
-9.99e-09
-1.67e-08
1.95e-08
1.62e-08
1.2e-08
-7.83e-09
7.83e-09
-9.86e-09
-2.88e-09
-9.29e-09
7.23e-09
2.06e-09
9.29e-09
-1.45e-09
-1.98e-09
-9.99e-09
-1.96e-08
-1.98e-08
3.89e-09
-2.57e-08
9.24e-09
1.65e-08
-9.49e-09
1.2e-09
-1.56e-08
2.65e-08
-1.09e-08
-2.51e-08
9.55e-09
1.15e-08
-1.59e-08
2.51e-08
1.35e-08
-2.33e-08
-1.72e-09
1.01e-09
8.8e-09
-1.51e-08
1.58e-08
-8.39e-09
-1.46e-08
2.3e-08
-1.48e-08
2.7e-08
-1.12e-08
2.13e-08
8.63e-09
1.83e-08
2.13e-08
-2.43e-08
-2.3e-08
1.19e-08
1.67e-08
-2.74e-08
1.75e-08
-9.48e-09
1.96e-08
-3.41e-09
-1.47e-08
-8.67e-09
8.86e-09
1.76e-08
2.63e-08
-6.31e-09
-1.13e-08
1.76e-08
-4.69e-09
4.69e-09
-4.18e-09
4.18e-09
5.14e-09
-5.14e-09
4.98e-09
-4.98e-09
4.98e-09
5.1e-09
1.74e-08
-2.36e-08
6.14e-09
-7.8e-09
1.63e-08
9.95e-09
8.98e-09
-8.98e-09
-9.87e-09
1.01e-08
-1.01e-08
-2.35e-08
8.89e-09
1.46e-08
-4.95e-09
-2.52e-08
1.56e-08
9.6e-09
-4.76e-09
4.76e-09
-2.23e-08
8.86e-09
1.34e-08
-7.87e-09
-1.53e-08
-1.45e-08
1.67e-08
-7.28e-09
1.59e-08
-6.45e-09
-2.16e-08
-2.3e-08
1.57e-08
6.47e-09
4.51e-10
7.96e-10
1.05e-09
-1.45e-08
-2.53e-08
1.43e-08
1.1e-08
-1.64e-08
-7.96e-09
-7.75e-09
-5.74e-10
9.41e-09
-2.07e-08
9.48e-09
-1.19e-08
-1.84e-08
2.94e-08
-9.39e-09
-1.58e-08
6.7e-09
9.12e-09
-2.82e-09
-1.95e-08
1.02e-09
1.85e-08
-6.34e-09
6.56e-09
-6.56e-09
-3.05e-10
-1.23e-08
-9.89e-09
-1.04e-08
1.92e-08
1.95e-08
-6.05e-09
-1.93e-08
-1.31e-08
-1.39e-09
2.36e-08
-1.18e-08
-9.87e-09
-1.76e-08
-1.32e-08
-1.87e-08
-3.19e-09
-1.23e-08
-5.12e-09
-1.19e-08
-8.86e-09
-1.65e-08
-2.18e-08
-5e-09
1.85e-08
-1.63e-08
-1.5e-08
-1.81e-08
1.69e-08
-1.89e-08
2.03e-09
-5.53e-09
-9.76e-10
-2.04e-09
1.7e-08
-5.53e-09
-3.08e-09
2.28e-08
3.73e-09
-2.66e-08
2.5e-08
1.04e-08
1.29e-08
-9.58e-09
1.9e-08
5.4e-09
-5.4e-09
1.82e-08
3.1e-09
8.2e-09
3.46e-09
-1.4e-08
1.52e-08
-2.13e-08
2.3e-08
1.52e-08
1.26e-08
-2.21e-08
9.49e-09
-1.46e-09
2.2e-08
-7.42e-09
1.47e-08
1.67e-08
-1.3e-08
1.14e-09
7e-09
-1.55e-08
8.98e-09
7.88e-09
9.86e-09
1.42e-08
-1.93e-08
2.99e-09
-1.39e-08
2.88e-09
1.47e-08
-1.4e-08
1.54e-08
2.56e-09
-1.49e-08
4.93e-09
-4.79e-10
7.24e-09
-2.19e-08
-7.68e-10
-2.38e-08
2.32e-09
-3.99e-10
3.94e-09
1.74e-09
-1.4e-08
2.15e-08
1.81e-09
-2.13e-08
-7.51e-09
4.93e-09
1.69e-08
-1.34e-08
-1.51e-08
-8.45e-09
1.47e-08
8.64e-09
-1.58e-08
3.94e-09
1.04e-08
-2.1e-08
-2.01e-08
1.94e-08
-9.82e-10
-1.2e-08
-1.16e-08
1.16e-08
8.5e-09
-2.35e-08
-1.17e-08
1.17e-08
-1.48e-08
-2.07e-08
-1.53e-08
-1.68e-08
7.82e-09
7.61e-09
1.97e-08
-5.02e-09
-1.28e-08
1.44e-08
1.46e-08
-2.26e-08
9.19e-09
-1.19e-08
1.24e-08
-1.41e-08
-1.3e-08
-9.16e-09
-1.22e-08
-3.92e-09
-1.39e-08
-6.87e-09
8.98e-09
-1.14e-08
1.08e-08
2.42e-09
1.86e-08
-4.91e-10
-2.32e-08
-1.94e-08
-1.25e-08
-1.73e-09
-1.35e-08
-2.72e-09
-3.61e-09
-3.93e-09
-9e-09
9.62e-09
1.84e-08
-1.93e-09
-1.17e-08
-3.92e-10
1.25e-08
1.48e-08
-1.63e-08
-1.68e-08
-1.75e-08
-1.86e-08
-7.13e-09
5.54e-09
2.03e-09
)
;

boundaryField
{
    front
    {
        type            empty;
        value           nonuniform List<scalar> 0();
    }
    back
    {
        type            empty;
        value           nonuniform List<scalar> 0();
    }
    bottom
    {
        type            calculated;
        value           nonuniform List<scalar> 
12
(
6.56e-09
2.01e-08
1.52e-08
1.55e-08
1.25e-08
3.36e-09
3.37e-09
1.87e-08
2.07e-08
2e-08
1.25e-08
6.5e-09
)
;
    }
    left
    {
        type            calculated;
        value           uniform 0;
    }
    top
    {
        type            calculated;
        value           nonuniform List<scalar> 8(-1.94e-08 -1.94e-08 -1.93e-08 -1.93e-08 -1.93e-08 -1.94e-08 -1.94e-08 -1.93e-08);
    }
    right
    {
        type            calculated;
        value           uniform 0;
    }
    inner_arc
    {
        type            calculated;
        value           uniform 0;
    }
}


// ************************************************************************* //
