/*--------------------------------*- C++ -*----------------------------------*\
  =========                 |
  \\      /  F ield         | OpenFOAM: The Open Source CFD Toolbox
   \\    /   O peration     | Website:  https://openfoam.org
    \\  /    A nd           | Version:  9
     \\/     M anipulation  |
\*---------------------------------------------------------------------------*/
FoamFile
{
    format      ascii;
    class       volVectorField;
    location    "0.19";
    object      U;
}
// * * * * * * * * * * * * * * * * * * * * * * * * * * * * * * * * * * * * * //

dimensions      [0 1 -1 0 0 0 0];

internalField   nonuniform List<vector> 
578
(
(-0.187 -0.249 0)
(-0.11 -0.454 2.05e-16)
(-0.287 -0.382 -8.03e-17)
(0.0364 -0.543 -1.53e-17)
(0.0691 -0.142 -4.29e-17)
(0.0267 -0.607 -5.81e-17)
(-0.0728 -0.149 4.21e-17)
(0.0875 -0.161 -4.74e-20)
(0.432 -0.576 -1.28e-16)
(-0.0731 -0.294 3.74e-16)
(0.0288 -0.629 -7.88e-17)
(0.262 -0.501 0)
(0.0159 -0.529 6.75e-17)
(0.313 -0.552 -4.7e-16)
(-0.318 -0.562 2.35e-16)
(0.368 -0.442 -5.98e-17)
(-0.275 -0.322 3.25e-16)
(-0.472 -0.453 0)
(0.239 -0.456 0)
(0.423 -0.527 8.32e-17)
(0.0369 -0.592 0)
(0.286 -0.407 0)
(0.208 -0.218 -3.78e-16)
(-0.00853 -0.526 0)
(-0.0127 -0.443 0)
(0.233 -0.466 2.55e-16)
(-0.0355 -0.527 -3.07e-17)
(-0.0114 -0.295 2.47e-17)
(-0.0943 -0.533 -3.04e-16)
(0.392 -0.462 2.41e-16)
(-0.0218 -0.478 -3.37e-16)
(0.0265 -0.535 6.62e-17)
(0.465 -0.522 -2.06e-16)
(-0.022 -0.574 1.16e-16)
(-0.269 -0.501 -2.33e-16)
(0.324 -0.369 -4e-16)
(0.263 -0.488 4.65e-16)
(0.217 -0.428 0)
(-0.372 -0.438 -2.35e-16)
(0.107 -0.213 0)
(0.12 -0.257 -3.35e-16)
(0.147 -0.263 3.73e-16)
(0.121 -0.245 0)
(-0.296 -0.506 0)
(0.452 -0.419 2.93e-17)
(-0.113 -0.22 0)
(-0.125 -0.267 3.3e-16)
(0.435 -0.583 -2.92e-17)
(-0.369 -0.444 3.52e-16)
(-0.043 -0.594 -6.7e-17)
(0.0107 -0.274 1.31e-17)
(0.0257 -0.533 -2.87e-16)
(0.351 -0.294 -1.49e-16)
(-0.0236 -0.573 0)
(0.00205 -0.518 2.48e-16)
(-0.0209 -0.63 5.19e-16)
(0.0961 -0.0682 9.25e-16)
(0.361 -0.279 -2.81e-16)
(-0.331 -0.409 -4.72e-16)
(0.184 -0.224 1.83e-16)
(-0.399 -0.454 2.44e-16)
(-0.313 -0.246 0)
(-0.506 -0.385 3.69e-17)
(0.294 -0.498 2.14e-16)
(-0.00826 -0.532 6.26e-17)
(-0.369 -0.58 1.22e-16)
(0.475 -0.556 -2.53e-17)
(0.0523 -0.619 1.85e-16)
(0.463 -0.477 -1.11e-16)
(0.273 -0.568 2.59e-16)
(-0.00805 -0.476 0)
(0.00846 -0.458 -9.5e-18)
(4.26e-05 -0.526 -6.83e-17)
(0.278 -0.575 0)
(0.00467 -0.665 1.19e-16)
(0.0932 -0.164 0)
(0.325 -0.429 1.75e-16)
(0.244 -0.328 -1.64e-16)
(0.0102 -0.534 0)
(-0.161 -0.196 -1.02e-16)
(0.188 -0.497 -2.35e-16)
(-0.096 -0.16 -3.61e-16)
(0.0605 -0.181 -1.6e-16)
(0.0967 -0.151 1.68e-16)
(-0.483 -0.578 -3.13e-17)
(-0.0845 -0.187 0)
(0.00409 -0.161 0)
(-0.0183 -0.653 -1.9e-16)
(0.176 -0.39 5.08e-20)
(-0.193 -0.431 2.56e-18)
(-0.0344 -0.566 0)
(-0.478 -0.568 6.08e-17)
(-0.182 -0.401 0)
(0.0396 -0.57 1.23e-16)
(0.397 -0.48 3.78e-16)
(0.279 -0.453 -3.47e-16)
(0.000261 -0.52 6.78e-17)
(0.00802 -0.521 -4.85e-16)
(-0.0216 -0.188 -6.94e-16)
(-0.295 -0.549 0)
(-0.354 -0.53 0)
(0.244 -0.531 -4.41e-16)
(-0.0348 -0.553 0)
(-0.282 -0.317 0)
(-0.00603 -0.518 0)
(0.29 -0.54 -3.53e-16)
(0.00627 -0.629 -1.23e-16)
(0.143 -0.264 0)
(-0.0471 -0.112 0)
(0.184 -0.315 -3.81e-16)
(0.337 -0.4 -1.04e-16)
(0.263 -0.543 0)
(0.427 -0.51 2.49e-16)
(0.311 -0.478 -2.23e-16)
(0.336 -0.479 2.52e-16)
(-0.0266 -0.537 2.76e-16)
(0.0448 -0.587 1.29e-16)
(-0.254 -0.504 -2.16e-16)
(-0.161 -0.367 4.04e-17)
(-0.00798 -0.521 2.36e-16)
(0.193 -0.381 -2.55e-16)
(0.157 -0.264 1.09e-19)
(0.262 -0.52 -2.54e-16)
(0.0277 -0.514 -3.52e-17)
(0.127 -0.264 0)
(-0.236 -0.522 2.73e-16)
(0.126 -0.502 -2.47e-16)
(0.484 -0.524 -1.17e-16)
(-0.287 -0.582 1.37e-16)
(-0.236 -0.532 0)
(-0.279 -0.554 0)
(-0.247 -0.543 0)
(0.0479 -0.59 0)
(0.0511 -0.101 4.05e-16)
(-0.277 -0.573 -2.5e-16)
(-0.255 -0.384 0)
(0.226 -0.412 0)
(-0.0142 -0.528 -2.33e-16)
(0.246 -0.482 2.57e-16)
(-0.236 -0.459 0)
(-0.114 -0.217 4.56e-16)
(-0.23 -0.521 0)
(-0.202 -0.389 0)
(0.00393 -0.467 0)
(0.101 -0.197 0)
(-0.423 -0.496 -3.65e-21)
(-0.196 -0.401 3.22e-16)
(-0.0399 -0.449 0)
(0.279 -0.567 2.6e-16)
(-0.241 -0.528 0)
(0.359 -0.567 0)
(-0.195 -0.246 0)
(0.0824 -0.0918 0)
(0.0922 -0.181 4.62e-16)
(-0.309 -0.573 -2.4e-16)
(-0.0443 -0.543 -1.42e-16)
(-0.102 -0.573 2.65e-16)
(0.0573 -0.567 -6.39e-17)
(-0.0665 -0.0723 -1.04e-16)
(0.386 -0.58 -2.09e-16)
(0.368 -0.575 2.93e-16)
(0.353 -0.521 2.96e-16)
(-0.0611 -0.117 -6.01e-18)
(0.3 -0.472 0)
(-5.2e-05 -0.151 1.77e-19)
(-0.24 -0.508 -1.36e-20)
(-0.000397 -0.273 -4.28e-16)
(-0.261 -0.483 0)
(0.0437 -0.458 -7.63e-17)
(-0.036 -0.611 -1.05e-16)
(0.272 -0.396 0)
(0.132 -0.237 0)
(-0.143 -0.222 0)
(-0.0914 -0.181 -4.67e-16)
(-0.224 -0.416 0)
(-0.0111 -0.543 -6.35e-17)
(-0.000681 -0.55 -6.48e-17)
(-0.236 -0.485 2.54e-16)
(0.154 -0.237 4.93e-17)
(-0.011 -0.465 1.55e-16)
(-0.132 -0.238 0)
(-0.199 -0.421 0)
(-0.157 -0.373 0)
(0.0107 -0.545 4.83e-16)
(-0.306 -0.438 1.84e-16)
(-0.0235 -0.327 -2.83e-16)
(0.126 -0.171 -1.64e-16)
(-0.295 -0.578 6.51e-17)
(-0.334 -0.58 2.51e-16)
(-0.00917 -0.277 -4.33e-16)
(0.33 -0.573 -2.51e-16)
(0.254 -0.417 0)
(0.199 -0.283 3.84e-16)
(-0.238 -0.424 0)
(-0.144 -0.272 0)
(-0.00674 -0.593 1.21e-16)
(0.0283 -0.385 7.22e-16)
(-0.0278 -0.378 -5.67e-16)
(-0.25 -0.417 0)
(0.238 -0.421 0)
(0.027 -0.337 -2.73e-16)
(0.0246 -0.562 -6.23e-16)
(0.089 -0.309 -1.9e-16)
(-0.0182 -0.588 0)
(-0.00296 -0.563 -1.95e-16)
(0.265 -0.485 0)
(-0.294 -0.469 0)
(-0.421 -0.448 0)
(0.348 -0.588 2.55e-16)
(-0.109 -0.14 0)
(-0.162 -0.326 3.3e-16)
(-0.353 -0.596 -2.42e-16)
(-0.264 -0.542 -8.19e-18)
(0.00848 -0.575 6.28e-17)
(-0.226 -0.448 -1.58e-16)
(0.0261 -0.553 0)
(-0.281 -0.491 -2.92e-16)
(0.282 -0.489 2.92e-16)
(-0.325 -0.594 2.52e-16)
(-0.0823 -0.159 -4.94e-16)
(0.321 -0.586 1.28e-16)
(-0.25 -0.477 0)
(0.175 -0.349 -3.18e-16)
(0.144 -0.249 0)
(-0.139 -0.257 0)
(-0.175 -0.344 6.46e-16)
(0.00191 -0.615 -5.96e-17)
(0.0223 -0.253 2.49e-19)
(-0.0186 -0.248 1.61e-16)
(-0.00196 -0.15 3.65e-16)
(-0.0523 -0.163 -3.69e-16)
(0.0265 -0.174 -1.82e-16)
(-0.0504 -0.101 -4.04e-16)
(0.175 -0.408 0)
(-0.18 -0.416 0)
(0.0826 -0.124 1.31e-16)
(0.0786 -0.141 0)
(-0.08 -0.143 0)
(0.0434 -0.56 9.7e-17)
(0.162 -0.327 0)
(-0.0705 -0.129 0)
(0.0707 -0.121 0)
(-0.00865 -0.606 -2.46e-16)
(-0.119 -0.226 0)
(-0.0158 -0.218 6.53e-16)
(0.0558 -0.116 0)
(-0.06 -0.113 -3.82e-16)
(-0.0294 -0.306 7.74e-16)
(-0.0709 -0.103 0)
(-0.0272 -0.63 -5.93e-17)
(0.00626 -0.588 6.21e-17)
(-0.252 -0.547 0)
(0.0389 -0.476 0)
(0.0667 -0.15 -3.88e-18)
(0.00514 -0.142 0)
(0.224 -0.511 2.67e-16)
(-0.00255 -0.275 4.26e-16)
(-0.384 -0.585 -3.73e-16)
(0.0801 -0.129 0)
(0.0287 -0.305 4.22e-16)
(0.0826 -0.159 4.89e-16)
(-0.0755 -0.134 3.76e-16)
(0.0119 -0.217 -6.61e-16)
(0.0184 -0.351 4.09e-16)
(-0.179 -0.482 2.21e-16)
(0.213 -0.433 5.46e-16)
(0.143 -0.323 0)
(0.0394 -0.0785 -4.15e-16)
(-0.00552 -0.154 -3.72e-16)
(0.0248 -0.08 0)
(-0.025 -0.0803 0)
(-0.255 -0.543 -2.54e-16)
(0.178 -0.381 0)
(-0.000196 -0.627 -1.77e-16)
(0.0214 -0.576 -1.31e-16)
(-0.012 -0.637 -3.49e-16)
(-0.0313 -0.608 1.36e-16)
(-0.0393 -0.0785 0)
(-0.144 -0.247 0)
(-0.0174 -0.648 -2.97e-16)
(0.138 -0.254 0)
(-0.0207 -0.634 5.29e-16)
(0.00831 -0.637 0)
(0.017 -0.605 -6.01e-17)
(-0.0118 -0.647 1.17e-16)
(-0.102 -0.197 -4.44e-16)
(0.0452 -0.0865 -8.17e-16)
(-0.0452 -0.0864 4.13e-16)
(-0.00378 -0.125 0)
(-0.00625 -0.275 -3.86e-16)
(0.222 -0.492 0)
(-0.266 -0.558 8.13e-18)
(-0.0328 -0.624 1.05e-16)
(-0.0786 -0.124 0)
(0.00707 -0.162 0)
(0.017 -0.315 4.8e-17)
(0.0746 -0.134 -3.77e-16)
(0.231 -0.522 -5.77e-16)
(0.0056 -0.292 9.34e-17)
(0.00664 -0.309 -3.68e-16)
(-0.0225 -0.633 3.03e-16)
(-0.226 -0.5 0)
(0.00326 -0.18 3.4e-16)
(0.00226 -0.147 0)
(0.0107 -0.201 0)
(-0.00371 -0.19 6.41e-16)
(0.237 -0.521 2.61e-16)
(-0.00801 -0.54 -6.49e-16)
(-0.0047 -0.66 -2.28e-16)
(-0.0042 -0.651 0)
(0.196 -0.401 1.6e-16)
(0.000832 -0.671 1.68e-16)
(-0.000227 -0.671 -3.55e-16)
(-0.179 -0.381 0)
(-0.0117 -0.663 2.33e-16)
(0.0176 -0.639 2.46e-16)
(-0.253 -0.524 0)
(-0.067 -0.15 0)
(-0.143 -0.323 0)
(-0.0162 -0.653 -2.91e-16)
(-0.211 -0.425 -3.17e-16)
(0.00562 -0.647 4.68e-16)
(-0.0219 -0.623 6e-17)
(-0.00837 -0.649 -1.87e-16)
(-0.017 -0.572 2.52e-16)
(0.0119 -0.652 -1.09e-16)
(-0.36 -0.571 2.27e-16)
(-0.211 -0.401 0)
(0.307 -0.57 0)
(0.00913 -0.661 4.33e-16)
(-0.0248 -0.553 6.53e-17)
(-0.389 -0.552 -8.98e-17)
(0.00101 -0.664 1.16e-16)
(0.0173 -0.646 -2.43e-16)
(-0.19 -0.372 4.73e-16)
(-0.00919 -0.668 1.17e-16)
(0.0325 -0.614 -1.08e-16)
(0.0198 -0.637 -2.48e-16)
(0.00303 -0.546 0)
(-0.0314 -0.61 0)
(0.0208 -0.629 -1.22e-16)
(0.0137 -0.617 1.81e-16)
(-0.000954 -0.674 1.67e-16)
(-0.000511 -0.48 2.62e-16)
(-0.0053 -0.673 1.69e-16)
(0.271 -0.415 -7.88e-17)
(0.132 -0.503 1.5e-16)
(-0.0376 -0.0918 -4.14e-16)
(0.0367 -0.0861 1.07e-16)
(-0.0405 -0.0988 4.03e-16)
(0.041 -0.0984 0)
(0.0463 -0.0894 4.12e-16)
(-0.0484 -0.0916 2.05e-16)
(-0.00139 -0.652 -1.19e-16)
(0.062 -0.124 0)
(-0.0637 -0.132 0)
(-0.00343 -0.676 -1.69e-16)
(-0.0919 -0.162 -3.43e-16)
(0.14 -0.213 0)
(-0.138 -0.214 0)
(-0.00589 -0.664 -1.86e-16)
(-0.102 -0.0873 0)
(-0.00104 -0.677 5.79e-17)
(0.0384 -0.0955 4.62e-16)
(-0.00283 -0.677 -5.88e-17)
(0.00247 -0.584 -2.58e-16)
(-0.00621 -0.672 6.1e-17)
(0.199 -0.511 2.72e-16)
(0.0373 -0.598 1.06e-16)
(-0.342 -0.282 0)
(0.235 -0.513 0)
(-0.289 -0.188 -3.7e-17)
(-0.449 -0.428 2.37e-16)
(0.149 -0.536 -1.3e-16)
(-0.484 -0.55 -1.26e-16)
(0.282 -0.179 2.78e-16)
(-0.0284 -0.57 -6.49e-17)
(-0.0794 -0.19 -4.91e-16)
(0.0789 -0.182 3.57e-16)
(-0.14 -0.361 -3.31e-16)
(-0.00183 -0.517 -2.53e-16)
(0.0767 -0.189 -2.47e-16)
(-0.0796 -0.193 0)
(0.0174 -0.64 -2.9e-16)
(0.00563 -0.658 1.72e-16)
(-0.00591 -0.619 3.74e-16)
(-0.0212 -0.167 -4.49e-16)
(-0.144 -0.273 3.91e-16)
(-0.184 -0.314 0)
(0.0722 -0.18 -3.08e-16)
(0.00592 -0.518 1.26e-16)
(0.0747 -0.518 0)
(0.0452 -0.566 2.66e-16)
(0.236 -0.502 -1.27e-16)
(-0.483 -0.502 2.04e-16)
(0.0544 -0.38 1.54e-16)
(0.509 -0.376 2.25e-18)
(0.0131 -0.638 3.39e-16)
(0.0254 -0.467 3.14e-16)
(-0.00894 -0.25 4.56e-16)
(-0.491 -0.54 -4.04e-16)
(0.00755 -0.261 -4.21e-16)
(-0.0376 -0.273 2.14e-16)
(-0.057 -0.533 1.93e-16)
(-0.0204 -0.523 0)
(-0.0399 -0.553 0)
(0.45 -0.434 0)
(-0.117 -0.45 4.82e-16)
(0.0409 -0.621 -3.04e-16)
(0.109 -0.568 -2.57e-16)
(-0.039 -0.499 -5.53e-16)
(-0.19 -0.525 7.06e-17)
(-0.0104 -0.618 -3.75e-20)
(-0.188 -0.433 -6.34e-16)
(-0.167 -0.497 -7e-17)
(0.0698 -0.593 6.1e-17)
(0.211 -0.45 -3.15e-16)
(-0.219 -0.463 -1.51e-16)
(0.286 -0.577 0)
(-0.0465 -0.61 6.33e-17)
(-0.256 -0.549 3.49e-17)
(-0.0019 -0.14 -1.22e-19)
(0.29 -0.579 0)
(-0.284 -0.55 3.92e-16)
(-0.242 -0.525 0)
(0.227 -0.509 -1.39e-16)
(0.0816 -0.185 5.41e-16)
(-0.0316 -0.593 -3.06e-16)
(0.0438 -0.108 -3.74e-16)
(0.24 -0.532 0)
(-0.415 -0.523 0)
(0.00303 -0.671 -1.16e-16)
(0.43 -0.443 -6.13e-17)
(0.0164 -0.519 0)
(-0.0433 -0.104 -1.97e-16)
(0.262 -0.553 -1.28e-16)
(0.194 -0.427 0)
(-0.143 -0.558 -2.6e-16)
(0.151 -0.363 0)
(-0.0734 -0.575 2.64e-16)
(-0.125 -0.548 -2.12e-16)
(0.0337 -0.616 0)
(0.0556 -0.591 1.36e-16)
(0.0183 -0.566 0)
(-0.423 -0.574 0)
(-0.0218 -0.649 2.55e-16)
(0.00691 -0.475 -2.42e-16)
(-0.316 -0.397 -2.83e-16)
(-0.261 -0.347 4.08e-16)
(0.00323 -0.15 0)
(-0.291 -0.577 6.62e-17)
(-0.0182 -0.52 0)
(-0.272 -0.538 -7.57e-20)
(0.015 -0.518 1.24e-16)
(-0.307 -0.592 -2.4e-16)
(-0.0213 -0.502 0)
(-0.0378 -0.46 -5.18e-18)
(0.184 -0.445 1.44e-16)
(-0.00476 -0.667 3.67e-16)
(-0.299 -0.49 0)
(0.1 -0.454 3.17e-16)
(-0.118 -0.129 2.35e-16)
(-0.073 -0.61 -9.69e-17)
(0.081 -0.201 -2.71e-16)
(-0.00827 -0.67 6.06e-17)
(0.327 -0.459 -6.82e-20)
(-0.088 -0.212 0)
(0.117 -0.122 -2.31e-16)
(-0.0571 -0.606 1.31e-16)
(0.25 -0.521 -3.96e-16)
(0.0162 -0.614 -2.89e-16)
(-0.0156 -0.175 0)
(-0.0539 -0.0647 0)
(-0.0552 -0.559 1.49e-16)
(0.00556 -0.645 -2.49e-16)
(0.267 -0.525 1.21e-16)
(0.243 -0.533 2.77e-16)
(0.0456 -0.049 2.1e-16)
(0.204 -0.249 8.04e-17)
(0.263 -0.305 1.35e-16)
(-0.011 -0.623 0)
(0.0148 -0.662 1.19e-16)
(-0.412 -0.493 -2e-16)
(0.00747 -0.659 -6.24e-16)
(-0.052 -0.588 1.12e-16)
(0.179 -0.419 1.64e-16)
(0.00924 -0.621 2.13e-16)
(8.53e-05 -0.315 0)
(-0.033 -0.537 0)
(-0.431 -0.594 -1.19e-16)
(0.001 -0.318 -1.52e-16)
(-0.439 -0.532 2.84e-17)
(0.251 -0.535 1.58e-17)
(0.0656 -0.593 3.37e-17)
(-0.0462 -0.598 -1.29e-16)
(-0.0776 -0.194 4.74e-16)
(-0.0236 -0.543 1.41e-16)
(-0.261 -0.558 1.38e-16)
(-0.0197 -0.535 1.23e-16)
(0.0191 -0.536 0)
(0.29 -0.567 -1.36e-16)
(-0.0277 -0.63 -2.57e-16)
(0.149 -0.351 0)
(0.0291 -0.627 3.71e-16)
(-0.368 -0.481 8.15e-17)
(-0.0652 -0.596 0)
(-0.161 -0.367 1.79e-16)
(0.048 -0.599 0)
(-0.161 -0.368 3.3e-16)
(-0.0694 -0.577 0)
(0.022 -0.559 2.52e-16)
(0.207 -0.441 0)
(0.0218 -0.491 -3.24e-16)
(-0.183 -0.406 -1.85e-16)
(-0.208 -0.455 -3.8e-17)
(-0.000689 -0.305 -3.73e-16)
(0.276 -0.546 1.38e-16)
(0.182 -0.398 0)
(0.00498 -0.51 0)
(0.0699 -0.574 2.69e-16)
(-0.0046 -0.647 -1.85e-16)
(0.153 -0.376 -2.75e-16)
(-0.00304 -0.667 6.07e-17)
(0.144 -0.337 0)
(0.224 -0.488 1.58e-16)
(0.0251 -0.607 -3.65e-16)
(0.00819 -0.532 1.95e-16)
(0.0455 -0.54 -1.57e-16)
(0.429 -0.539 6.06e-17)
(-0.0267 -0.518 1.58e-16)
(0.279 -0.383 0)
(0.304 -0.583 0)
(-0.027 -0.326 -3.48e-16)
(0.017 -0.624 0)
(0.114 -0.565 3.07e-16)
(-0.132 -0.181 -2.35e-16)
(0.00374 -0.436 0)
(-0.192 -0.429 -2.08e-16)
(-0.26 -0.303 -2.12e-17)
(-0.0438 -0.505 3.33e-16)
(0.0466 -0.51 4.25e-19)
(0.0748 -0.578 -1.75e-17)
(0.135 -0.191 0)
(0.173 -0.392 1.89e-16)
(0.0669 -0.518 0)
(-0.0202 -0.626 -1.34e-16)
(-0.00457 -0.52 0)
(-0.265 -0.446 0)
(0.485 -0.55 -6.12e-17)
(0.178 -0.407 1.73e-16)
(0.379 -0.42 1.84e-17)
(-0.288 -0.559 -8.03e-17)
(0.228 -0.503 -1.36e-16)
(-0.421 -0.55 6.12e-17)
(0.245 -0.441 -8.47e-17)
(-0.0298 -0.649 -6.34e-17)
(0.393 -0.555 -1.6e-16)
(0.00328 -0.664 7.28e-17)
(0.0221 -0.617 7.28e-17)
(-0.0549 -0.598 4.02e-17)
(-0.0532 -0.586 0)
(-0.271 -0.384 0)
(0.147 -0.335 -4.26e-16)
(-0.0818 -0.584 0)
(0.08 -0.58 -1.5e-16)
(0.00171 -0.587 0)
(0.0307 -0.532 1.46e-16)
(-0.0504 -0.622 9.52e-17)
(-0.072 -0.569 -1.6e-16)
(0.0684 -0.564 -1.57e-16)
(-0.248 -0.533 1.43e-16)
(-0.303 -0.445 0)
(0.335 -0.371 -1.21e-16)
(-0.0569 -0.6 -3.1e-16)
(-0.373 -0.478 7.16e-17)
(-0.00236 -0.596 0)
(-0.386 -0.468 1.6e-16)
(-0.312 -0.365 0)
)
;

boundaryField
{
    front
    {
        type            empty;
    }
    back
    {
        type            empty;
    }
    bottom
    {
        type            zeroGradient;
    }
    left
    {
        type            noSlip;
    }
    top
    {
        type            uniformFixedValue;
        uniformValue    
        {
            type            table;
            format          csv;
            file            "inlet_v.csv";
            nHeaderLine     1;
            refColumn       0;
            componentColumns List<label> 3(1 2 3);
            separator       ",";
            mergeSeparators 0;
        }
        value           uniform (0 -0.517 0);
    }
    right
    {
        type            noSlip;
    }
    inner_arc
    {
        type            noSlip;
    }
}


// ************************************************************************* //
