/*--------------------------------*- C++ -*----------------------------------*\
  =========                 |
  \\      /  F ield         | OpenFOAM: The Open Source CFD Toolbox
   \\    /   O peration     | Website:  https://openfoam.org
    \\  /    A nd           | Version:  9
     \\/     M anipulation  |
\*---------------------------------------------------------------------------*/
FoamFile
{
    format      ascii;
    class       volScalarField;
    location    "0.87";
    object      p;
}
// * * * * * * * * * * * * * * * * * * * * * * * * * * * * * * * * * * * * * //

dimensions      [0 2 -2 0 0 0 0];

internalField   nonuniform List<scalar> 
90
(
7.99461e-23
2.8857e-23
-6.61786e-22
-1.83387e-21
-8.93135e-22
1.25801e-21
-8.79056e-24
1.92869e-22
2.05385e-22
1.93548e-22
-1.38245e-22
3.4831e-22
1.56585e-22
-5.278e-22
4.61301e-22
3.10815e-21
-3.93182e-21
5.98452e-22
6.94384e-22
1.2692e-22
-2.2606e-23
1.16636e-22
-8.26466e-23
-1.74726e-22
-1.46988e-24
-4.40442e-22
3.12382e-22
-1.29273e-22
-8.0756e-22
2.2454e-22
1.28807e-22
-7.45192e-22
-5.07694e-22
-3.07526e-22
-4.39697e-22
3.25291e-21
1.64232e-22
-6.00455e-21
-5.55123e-22
2.84705e-22
3.77729e-22
4.9267e-22
-6.3385e-22
6.13655e-23
1.99356e-23
-7.62333e-22
2.36453e-22
1.49759e-21
7.61285e-22
-8.42734e-22
1.36866e-22
2.64938e-22
3.59485e-22
-5.95733e-22
3.68158e-22
9.69125e-22
6.11184e-24
-7.41757e-23
8.10112e-23
-8.83392e-22
3.13891e-22
-8.01735e-22
-1.23962e-21
1.51841e-22
6.23511e-22
2.14973e-22
-7.02163e-22
-8.70131e-22
-5.00006e-21
-4.25195e-22
1.82726e-21
1.86497e-22
-3.99025e-22
1.52312e-21
2.93493e-21
2.95797e-22
1.77344e-22
-4.67052e-22
-1.40031e-22
-8.87665e-24
-5.6669e-21
5.02631e-23
-6.01996e-23
3.03069e-21
-1.12936e-22
-1.14836e-21
1.27829e-22
1.69119e-22
2.10704e-21
3.02374e-22
)
;

boundaryField
{
    back
    {
        type            empty;
    }
    front
    {
        type            empty;
    }
    bottom
    {
        type            zeroGradient;
    }
    outer_arc
    {
        type            zeroGradient;
    }
    right
    {
        type            uniformFixedValue;
        uniformValue    
        {
            type            scale;
            scale           
            {
                type            squarePulse;
                start           0.3;
                duration        0.3;
            }
            xScale          
            {
                type            constant;
                value           1;
            }
            value           
            {
                type            constant;
                value           15.1;
            }
        }
        value           uniform 0;
    }
    inner_arc
    {
        type            zeroGradient;
    }
}


// ************************************************************************* //
