/*--------------------------------*- C++ -*----------------------------------*\
  =========                 |
  \\      /  F ield         | OpenFOAM: The Open Source CFD Toolbox
   \\    /   O peration     | Website:  https://openfoam.org
    \\  /    A nd           | Version:  9
     \\/     M anipulation  |
\*---------------------------------------------------------------------------*/
FoamFile
{
    format      ascii;
    class       surfaceScalarField;
    location    "0.87";
    object      phi;
}
// * * * * * * * * * * * * * * * * * * * * * * * * * * * * * * * * * * * * * //

dimensions      [0 3 -1 0 0 0 0];

internalField   nonuniform List<scalar> 
122
(
6.01583e-30
-5.40866e-30
3.90045e-30
-7.66289e-29
2.94562e-29
4.18671e-29
4.84601e-29
-8.74557e-29
-1.6276e-29
1.13636e-29
-5.97725e-29
-2.19494e-28
2.0341e-28
2.15273e-30
6.1632e-30
-3.59766e-30
3.56491e-29
-4.39744e-29
3.60385e-29
8.53183e-31
-2.45381e-31
-1.496e-29
-8.43683e-30
2.4883e-29
6.67144e-29
-1.0502e-28
1.65102e-29
-9.82809e-29
5.65337e-29
6.49535e-29
3.48358e-29
-2.75481e-29
3.41476e-29
5.36853e-29
4.59478e-30
9.75161e-30
-6.81497e-30
-2.15753e-29
2.15431e-29
1.54698e-29
-7.33368e-30
1.14484e-29
-6.5151e-30
1.55208e-29
1.004e-29
-9.94284e-30
-9.59528e-30
5.66569e-30
9.25233e-31
7.65129e-30
5.64258e-30
1.00691e-29
-2.21375e-29
7.3177e-29
-7.92136e-29
9.31825e-30
1.12577e-29
1.62953e-29
4.54839e-30
3.34435e-30
-3.38076e-30
-9.09664e-31
3.17056e-29
3.45913e-29
-4.88672e-29
-1.37206e-29
1.55301e-29
-4.32203e-30
2.60671e-30
-1.38002e-29
-3.24363e-29
-1.08134e-29
3.48574e-29
-7.51556e-30
-2.6885e-31
-3.30662e-30
3.36416e-30
2.55019e-30
-3.29399e-29
1.86194e-29
2.82219e-30
4.20942e-30
5.90344e-29
1.49247e-29
2.3756e-29
-6.52303e-30
-3.81417e-30
-9.88308e-30
-2.22226e-29
6.16527e-29
1.93726e-30
1.3952e-29
-7.41611e-30
1.37115e-29
-8.28001e-30
2.37771e-30
-8.63087e-30
2.1394e-30
1.80221e-30
7.39484e-30
-2.35171e-30
-1.79597e-29
-3.97398e-29
3.35394e-31
-6.67453e-30
-4.31503e-29
-1.57514e-31
-2.03249e-29
1.42966e-29
1.40883e-29
-1.17956e-28
1.16049e-28
6.87661e-29
-7.74206e-29
-5.87081e-30
-1.83422e-29
6.86696e-29
4.23821e-30
-4.55065e-30
3.23009e-30
4.59321e-29
-4.92237e-30
)
;

boundaryField
{
    back
    {
        type            empty;
        value           nonuniform List<scalar> 0();
    }
    front
    {
        type            empty;
        value           nonuniform List<scalar> 0();
    }
    bottom
    {
        type            calculated;
        value           uniform 0;
    }
    outer_arc
    {
        type            calculated;
        value           uniform 0;
    }
    right
    {
        type            calculated;
        value           nonuniform List<scalar> 4(-2.46008e-30 -1.1264e-29 -9.64559e-30 -1.50637e-29);
    }
    inner_arc
    {
        type            calculated;
        value           uniform 0;
    }
}


// ************************************************************************* //
