/*--------------------------------*- C++ -*----------------------------------*\
  =========                 |
  \\      /  F ield         | OpenFOAM: The Open Source CFD Toolbox
   \\    /   O peration     | Website:  https://openfoam.org
    \\  /    A nd           | Version:  9
     \\/     M anipulation  |
\*---------------------------------------------------------------------------*/
FoamFile
{
    format      ascii;
    class       volVectorField;
    location    "0.87";
    object      U;
}
// * * * * * * * * * * * * * * * * * * * * * * * * * * * * * * * * * * * * * //

dimensions      [0 1 -1 0 0 0 0];

internalField   nonuniform List<vector> 
90
(
(1.46917e-22 -3.73621e-23 -2.99812e-39)
(9.58713e-22 1.18761e-21 6.85632e-38)
(-3.62966e-22 -1.48038e-21 -6.47792e-38)
(-1.41565e-21 -2.86143e-22 6.41548e-38)
(3.09958e-21 3.88441e-21 1.66509e-37)
(7.92456e-22 6.50647e-22 -5.44717e-38)
(3.77347e-23 6.09913e-23 3.34176e-39)
(1.6723e-23 -1.20106e-22 9.93063e-39)
(2.92617e-22 -1.10618e-21 0)
(1.83853e-23 -3.05557e-23 0)
(-4.8442e-22 5.62541e-24 -1.21871e-38)
(-6.56116e-22 -2.23183e-21 7.38932e-40)
(-6.12477e-23 -2.18347e-22 1.95602e-39)
(-9.14769e-22 -1.14862e-22 3.76167e-39)
(-3.11405e-22 -2.34362e-21 0)
(1.14757e-21 4.34433e-22 0)
(1.84623e-21 1.75042e-21 -2.27964e-37)
(1.14803e-21 -8.11515e-22 -3.1058e-38)
(4.55579e-22 8.45825e-22 0)
(1.77104e-22 -1.53167e-22 -5.31494e-40)
(-4.14022e-22 -2.92772e-22 3.88208e-39)
(3.48641e-23 2.77549e-22 1.17856e-38)
(-3.01632e-22 -1.92855e-22 -1.5876e-38)
(-3.13473e-23 -9.36089e-24 2.27296e-39)
(-1.82896e-22 1.36794e-22 -4.58643e-39)
(-3.50271e-22 1.21686e-22 1.31079e-38)
(-1.43227e-22 -3.28979e-23 -8.46719e-39)
(2.59524e-22 2.1117e-22 8.08623e-39)
(-6.34379e-22 -7.7808e-22 0)
(1.38078e-22 1.17009e-23 -1.04503e-38)
(-1.04517e-22 -3.28132e-22 5.97697e-39)
(-5.01117e-22 -1.60822e-22 -4.50919e-38)
(-3.18273e-22 -1.38062e-22 -1.19431e-38)
(-6.63172e-23 6.12108e-23 2.39347e-38)
(-6.26493e-22 1.04436e-22 -7.60558e-39)
(-3.47805e-22 -2.63054e-21 -7.71504e-38)
(9.14865e-22 4.63837e-22 0)
(4.53642e-22 -1.79142e-22 0)
(-1.98201e-22 -1.0339e-22 1.25109e-38)
(-2.05789e-23 -3.5469e-23 3.91268e-39)
(2.21453e-22 -7.65407e-23 -8.19463e-39)
(4.90781e-22 -4.13087e-22 -3.62638e-38)
(-9.58162e-22 4.27856e-22 -3.83126e-39)
(2.47761e-23 -6.06277e-23 -3.46221e-39)
(-2.45887e-22 -7.03085e-23 -1.60889e-39)
(2.82174e-22 4.23613e-22 2.83799e-38)
(2.15328e-24 -1.08326e-23 2.6884e-39)
(1.59585e-21 -4.00204e-22 3.64658e-38)
(1.22232e-22 -2.64846e-22 -4.02491e-38)
(1.23927e-23 -1.2955e-21 2.75711e-39)
(8.96628e-23 -2.1876e-24 0)
(1.35588e-22 1.56507e-22 -1.15629e-38)
(-1.40324e-22 -1.19048e-21 -9.56597e-41)
(-1.39029e-22 9.70123e-23 0)
(1.81393e-22 8.28713e-23 2.25611e-38)
(7.4604e-23 -2.70768e-22 -3.66261e-40)
(-1.68835e-22 -5.43118e-23 1.4062e-39)
(-5.877e-22 7.46015e-23 0)
(-1.33584e-22 -4.3074e-23 0)
(-1.82822e-22 -2.07367e-22 5.04453e-38)
(1.01967e-21 -3.61801e-22 2.34658e-38)
(4.04702e-22 2.20779e-22 0)
(-1.20337e-22 -1.19296e-22 5.79309e-38)
(9.04528e-22 1.56241e-22 -6.33687e-39)
(8.28089e-22 6.03965e-22 4.17504e-38)
(-6.77135e-22 -5.24219e-22 7.50945e-39)
(-9.93349e-23 -4.68476e-22 0)
(-1.44563e-22 3.2781e-22 0)
(-1.96594e-21 -5.94281e-22 2.11105e-38)
(-3.50787e-21 1.16015e-21 4.15121e-38)
(2.32192e-21 -8.41362e-22 0)
(4.17694e-23 6.09255e-23 8.02029e-39)
(6.82337e-23 -5.02076e-22 0)
(-3.97914e-22 8.56654e-22 1.14868e-37)
(-1.06847e-21 3.43119e-22 -4.19124e-38)
(1.9087e-22 2.6706e-22 -1.10031e-38)
(1.25608e-22 4.19157e-23 -1.76457e-39)
(-6.293e-22 5.47005e-22 0)
(-2.18914e-22 -3.87267e-22 -1.46151e-38)
(-5.81306e-23 -1.49663e-23 4.13426e-39)
(-1.99031e-21 1.03671e-22 2.35956e-37)
(-1.83727e-22 -4.84709e-23 2.17916e-40)
(-2.86942e-22 4.12226e-22 -4.14336e-39)
(3.0033e-21 -1.88767e-22 8.07926e-38)
(-2.51697e-22 5.9105e-22 4.46196e-39)
(-3.88352e-22 9.24715e-22 -3.32446e-38)
(1.61367e-25 -7.09823e-23 4.83986e-39)
(2.73962e-22 -9.88587e-23 -8.82941e-40)
(3.77869e-22 1.02618e-21 -1.98793e-37)
(2.25692e-22 1.02571e-22 -7.76708e-39)
)
;

boundaryField
{
    back
    {
        type            empty;
    }
    front
    {
        type            empty;
    }
    bottom
    {
        type            uniformFixedValue;
        uniformValue    
        {
            type            scale;
            scale           
            {
                type            squarePulse;
                start           0.3;
                duration        0.3;
            }
            xScale          
            {
                type            constant;
                value           1;
            }
            value           
            {
                type            constant;
                value           (0 0.7 0);
            }
        }
        value           uniform (0 0 0);
    }
    outer_arc
    {
        type            noSlip;
    }
    right
    {
        type            zeroGradient;
    }
    inner_arc
    {
        type            noSlip;
    }
}


// ************************************************************************* //
