/*--------------------------------*- C++ -*----------------------------------*\
  =========                 |
  \\      /  F ield         | OpenFOAM: The Open Source CFD Toolbox
   \\    /   O peration     | Website:  https://openfoam.org
    \\  /    A nd           | Version:  9
     \\/     M anipulation  |
\*---------------------------------------------------------------------------*/
FoamFile
{
    format      ascii;
    class       volVectorField;
    location    "0.92";
    object      U;
}
// * * * * * * * * * * * * * * * * * * * * * * * * * * * * * * * * * * * * * //

dimensions      [0 1 -1 0 0 0 0];

internalField   nonuniform List<vector> 
942
(
(0.02137 -0.0696708 0)
(0.00749357 0.03691 2.48798e-17)
(0.0394435 0.103388 0)
(0.00941296 -0.0788124 -1.31551e-17)
(0.040558 0.113822 7.89696e-18)
(0.0391312 -0.0324434 1.39099e-17)
(0.00779775 -0.0113221 3.65827e-17)
(0.0476312 -0.0367016 0)
(0.00407134 -0.048463 -2.88121e-17)
(0.00491658 -0.0531045 2.93685e-17)
(0.0830224 0.036971 0)
(0.099078 -0.0533002 0)
(0.00894446 -0.0801899 1.22685e-17)
(0.0820336 0.0750236 0)
(0.113243 -0.0556694 0)
(0.0202659 0.0245375 -2.7047e-17)
(0.0330733 -0.0285427 -1.06599e-17)
(0.0185209 -0.0695866 0)
(0.0601488 0.0190576 -3.18823e-18)
(-0.0415587 -0.0101337 4.87558e-18)
(0.0398661 -0.0360933 1.81241e-17)
(0.0987206 -0.0579565 1.45706e-17)
(0.0134398 -0.0252351 0)
(-0.00771014 -0.0217327 -2.89288e-17)
(0.0869083 0.0240446 0)
(-0.013266 -0.0338749 2.17283e-17)
(0.0437721 0.112638 0)
(0.015351 -0.0342938 1.84444e-17)
(-0.0135329 -0.0289977 0)
(0.0143851 -0.0509358 1.16479e-17)
(-0.0212465 -0.0307971 1.46372e-17)
(0.0370056 0.104965 0)
(-0.0108528 -0.0207054 1.37911e-17)
(-0.0725047 0.0512352 1.6138e-17)
(0.0472237 0.0980831 -1.58619e-17)
(0.0177664 -0.0155846 3.04363e-17)
(0.0349581 -0.052812 1.02747e-18)
(0.00541126 -0.041143 0)
(0.0344754 -0.0548562 -5.24732e-19)
(-0.00659683 -0.0150947 2.06455e-17)
(-0.0902933 0.00028292 -2.88335e-17)
(0.0415194 -0.0834334 0)
(0.00208554 0.00411771 -1.42641e-17)
(0.0107587 -0.0189201 -1.21962e-17)
(0.0107386 -0.0160712 -3.08527e-17)
(0.0375836 0.00729672 6.97373e-18)
(0.0727809 0.0351393 -1.40907e-17)
(-0.0645461 0.0625746 -1.32952e-17)
(-0.107848 -0.00256405 1.48318e-17)
(0.091848 0.0738463 1.73031e-17)
(0.0798035 0.00883006 0)
(0.00610411 -0.0114171 0)
(0.0127436 -0.00892046 -2.05217e-17)
(0.00386237 -0.0232347 1.63838e-17)
(0.00503482 -0.0656426 0)
(-0.044337 -0.0674199 -1.08497e-17)
(0.0353294 0.000243069 -2.74084e-17)
(0.00632245 -0.0687605 -1.96766e-18)
(0.0442635 5.01191e-05 3.51114e-17)
(0.0678336 0.132287 1.51479e-17)
(0.0109613 -0.0377617 -1.44795e-17)
(0.045786 0.103495 -3.73218e-17)
(-0.0385474 0.062718 1.73517e-17)
(0.0216303 -0.0635026 -1.41911e-17)
(0.00739235 -0.0417982 1.34572e-17)
(0.0624015 0.00936112 1.03448e-17)
(0.0390909 0.0953202 2.91816e-17)
(0.035023 0.0821037 -1.33153e-17)
(-0.055449 -0.0357181 1.37502e-17)
(0.0219947 -0.0422767 3.78245e-18)
(-0.00608807 0.0336027 0)
(0.00588314 -0.0334938 0)
(0.0169679 0.00865035 -1.79562e-18)
(0.0138817 -0.0572104 3.49256e-18)
(0.000957499 -0.0250244 -1.55239e-17)
(-0.0622012 -0.0126561 5.45904e-22)
(-0.0549499 -0.00506359 1.79677e-18)
(0.0402307 0.0871397 1.61212e-17)
(-0.0139946 -0.0184303 -1.75169e-17)
(0.0372022 0.0271592 -3.5411e-18)
(0.0170848 -0.017829 2.099e-17)
(-0.019621 -0.0339896 -7.55945e-18)
(0.0439542 -0.010381 -1.90874e-18)
(0.043605 0.0125819 7.79216e-18)
(0.0600471 3.09875e-05 0)
(0.032157 0.12549 0)
(0.0459598 0.120498 -1.58377e-17)
(0.0898037 -0.0305482 4.37881e-18)
(0.0849507 0.0889023 0)
(0.0422589 -0.0265753 2.18158e-17)
(0.0372063 -0.103658 -1.10946e-17)
(0.0236843 0.0461609 5.03166e-19)
(0.00630726 -0.074906 2.21421e-18)
(-0.0445677 -0.0773898 0)
(-0.0189257 -0.0634641 -4.28632e-18)
(-0.028944 -0.0185494 7.91467e-18)
(0.0288472 -0.0723132 1.36242e-17)
(0.0835412 -0.0242139 -1.2716e-17)
(0.0270615 -0.0297254 -1.89279e-17)
(0.00697242 -0.0328057 -2.70304e-17)
(0.00961561 -0.03314 -8.12407e-18)
(0.00542713 -0.0769665 9.16761e-18)
(0.0840773 0.0222382 0)
(0.020862 -0.0368446 1.04063e-17)
(-0.00258247 -0.0846013 -1.64212e-17)
(0.00966301 -0.0306403 -2.65323e-17)
(0.0364939 0.00540571 -9.3708e-18)
(0.0161838 -0.00817569 0)
(-0.014427 0.0541772 1.44307e-17)
(0.0438427 0.0597748 0)
(-0.0181526 -0.0321086 0)
(-0.0720951 -0.0257469 -1.45226e-17)
(0.0510641 0.102347 2.89145e-17)
(0.00559674 -0.0377235 0)
(0.0933455 0.0522427 0)
(0.0129257 0.0240635 1.96256e-18)
(0.0852411 0.110757 -1.55614e-17)
(0.0123283 -0.0775581 1.66242e-17)
(0.00386461 -0.0161293 4.77441e-23)
(0.0514685 0.0298914 -1.90789e-18)
(0.00506024 -0.0147816 6.33133e-18)
(0.0116681 -0.0204 -1.63619e-17)
(0.00084332 0.00968746 0)
(0.00886381 0.00858388 1.4409e-17)
(0.0243922 0.00364396 1.16667e-17)
(-0.0112859 -0.0305664 -3.10909e-17)
(0.0027069 -0.00465039 1.6418e-17)
(0.00376005 0.000962878 -1.56971e-17)
(0.0136282 0.00455507 2.86891e-17)
(0.00762989 -0.00815708 1.49867e-17)
(0.0638369 0.0271131 -7.69925e-18)
(0.0561496 0.0333483 -1.78259e-17)
(0.0703803 0.0250378 0)
(-0.0996639 0.034171 0)
(-0.0285289 0.0361034 -1.60214e-17)
(0.0481006 0.0286398 -1.11403e-17)
(-0.014957 -0.00599371 9.74951e-19)
(0.0333979 0.0369455 0)
(-0.0699618 0.00220425 1.98789e-17)
(-0.130821 0.0165254 -6.77331e-18)
(-0.141503 0.0257602 1.59364e-17)
(0.0297812 0.0164127 0)
(0.0756307 0.0977544 -1.59082e-17)
(-0.00283449 -0.0205991 1.72648e-17)
(0.0414952 -0.0288142 -4.02563e-18)
(-0.0148421 -0.0234733 -7.30714e-18)
(0.0164367 -0.0331227 0)
(0.007383 -0.0388985 -9.66037e-18)
(0.0264519 -0.0336326 2.43881e-17)
(0.0375579 0.129517 0)
(0.0503354 -0.0332063 4.35191e-18)
(0.0818254 0.0923445 4.7849e-18)
(0.041045 0.0778375 0)
(0.024747 -0.037372 9.04819e-18)
(0.0407792 0.0815196 -1.57737e-17)
(0.0300721 -0.0495827 0)
(0.0660031 0.000199063 1.77442e-17)
(0.00182926 -0.0159782 0)
(0.0817411 0.131624 0)
(-0.0426476 -0.0126264 6.57135e-18)
(0.0919511 0.00616929 -2.29128e-17)
(0.0251101 -0.0407687 0)
(0.0064309 -0.0768151 0)
(0.0537573 -0.0320108 8.10504e-18)
(0.0570332 0.0971495 0)
(0.0623605 0.0855264 -2.4003e-17)
(0.0118343 -0.0373616 0)
(0.0262754 -0.0454418 0)
(0.025325 -0.0139834 1.42368e-17)
(0.0715744 0.0523518 1.68836e-17)
(-0.0193978 0.0791495 -1.40599e-17)
(-0.0925262 -0.0252931 -1.86347e-18)
(-0.00758176 -0.0306164 2.35347e-22)
(0.0140138 -0.0360923 9.09786e-18)
(0.0347428 0.140238 0)
(0.0219113 -0.061291 -1.76592e-17)
(-0.0343125 -0.028883 -1.67422e-17)
(0.0200905 -0.0626952 0)
(-0.0272272 -0.0944378 5.78496e-19)
(0.0270187 -0.0641687 0)
(0.0195245 -0.0307773 -1.06231e-17)
(-0.0081017 -0.0280831 0)
(0.031529 -0.0421795 -2.08511e-17)
(0.024982 -0.0659796 2.3341e-22)
(0.0159522 -0.065543 -1.05175e-17)
(-0.0219527 -0.037207 0)
(0.109234 0.0518874 -8.28271e-18)
(0.0316883 0.073114 1.66348e-17)
(0.0460763 0.141886 2.36148e-17)
(0.0304649 -0.0680965 7.95288e-18)
(0.0632797 0.132744 3.18681e-17)
(0.0324242 -0.0664202 -7.97051e-18)
(0.0178975 -0.0483674 -1.01007e-17)
(-0.014897 -0.0168732 -1.53051e-17)
(0.0271452 0.059308 8.42386e-18)
(0.0110582 -0.0786809 -7.5706e-18)
(0.0295314 0.0612719 0)
(0.0175932 -0.0537743 2.70598e-17)
(-0.0894 0.0228398 -1.94602e-17)
(0.00224461 0.00197841 1.47544e-17)
(0.000776268 -0.00999963 0)
(0.0138932 -0.0784792 7.68547e-18)
(0.0101332 0.0215416 0)
(0.023557 -0.0316051 -1.78776e-17)
(0.0817674 0.0738241 1.68466e-17)
(-0.0647198 -0.0607837 0)
(-0.00342862 -0.0459428 1.68603e-17)
(0.0449061 0.106423 -3.665e-17)
(0.00443757 0.00510183 -1.42487e-17)
(0.000295906 -0.0151991 1.41043e-17)
(0.0349539 0.0766639 -8.169e-18)
(0.01501 -0.0754479 3.46805e-22)
(0.00785714 -0.0587563 1.30468e-17)
(0.0564422 0.124246 7.76207e-18)
(0.00155783 0.000847451 0)
(0.0246811 -0.0766907 -8.28029e-23)
(0.0474197 0.146787 -1.93921e-17)
(0.0722108 0.135417 1.6285e-17)
(0.0375977 0.0815248 1.61888e-17)
(0.0319067 0.0669973 -2.08567e-22)
(0.0293461 -0.0751312 0)
(0.0231793 -0.0766747 -1.56331e-17)
(0.0355991 -0.0692476 0)
(0.0199039 -0.0768279 0)
(0.00172671 -0.00959744 -1.63223e-17)
(0.0129294 0.0439664 1.62263e-17)
(0.0605166 0.127918 -1.14345e-17)
(0.0336679 -0.0726642 -1.60614e-17)
(0.00215795 -0.00785221 2.39254e-17)
(0.0194434 0.0351471 0)
(-0.0199152 -0.0340914 -1.49315e-17)
(0.0512609 0.118937 -2.86609e-17)
(0.013145 0.0313016 1.57205e-17)
(0.00297434 -0.00906352 -8.60085e-18)
(0.027721 -0.0762493 -8.07868e-18)
(0.0129113 -0.0722952 2.78013e-22)
(0.0701057 0.135783 -1.68959e-17)
(0.0324489 -0.0747854 1.61357e-17)
(0.00725177 0.0199869 -1.55202e-17)
(0.0402031 0.086213 1.60186e-17)
(0.0351647 0.0716968 0)
(0.0266305 -0.0427424 -3.93596e-18)
(0.0380163 -0.0728217 7.95735e-18)
(0.0203298 -0.0533451 -8.99436e-18)
(0.0253171 -0.0563511 -1.59159e-17)
(0.00676286 0.0178115 -1.61338e-17)
(0.0373852 -0.0697706 8.00759e-18)
(0.0228788 -0.0765719 -8.67782e-18)
(0.0367505 -0.0725473 -1.60675e-17)
(0.00993756 0.0255658 3.97056e-18)
(0.0631469 0.134589 -4.02598e-18)
(-0.0433375 -0.0513673 -1.48037e-17)
(0.0652602 0.134963 0)
(-0.0014968 0.0113917 1.19888e-17)
(0.0307321 -0.0594639 1.58123e-17)
(0.0178273 -0.0750246 1.75741e-17)
(0.0360266 -0.0728738 0)
(0.0374637 -0.0674318 0)
(0.0704314 0.113003 -7.97205e-18)
(0.0212189 -0.0499286 8.95965e-18)
(0.0274024 -0.0736636 -7.90539e-18)
(0.07969 0.119765 7.83672e-18)
(0.0583578 0.120132 -1.96664e-17)
(0.035592 -0.061675 -4.17946e-18)
(0.0346526 -0.066089 8.31868e-18)
(0.00673513 -0.0496863 0)
(0.0263914 -0.0538102 0)
(0.0420119 -0.0675384 0)
(-0.0155267 -0.0248759 1.51741e-17)
(0.0407744 -0.0700285 8.09807e-18)
(0.0404333 -0.0665726 1.53259e-17)
(0.0555526 0.140139 -1.46705e-17)
(-0.0532707 -0.0181489 1.72981e-17)
(0.0577086 0.132096 -7.73537e-18)
(0.0483915 0.10713 1.62724e-17)
(0.0788228 0.130031 -1.62048e-17)
(0.00791406 0.00779646 0)
(0.0474446 -0.0564624 0)
(0.0571652 0.121914 -8.02109e-18)
(0.0081606 -0.00896873 -1.66751e-17)
(0.0312824 -0.0571088 0)
(0.0194428 -0.0163164 -1.37139e-18)
(0.0148379 -0.0206317 1.69265e-17)
(0.0482239 -0.060941 0)
(0.0755315 -0.0360197 3.15917e-17)
(0.0959358 0.134687 -1.55836e-17)
(0.0439155 -0.0621529 2.37731e-17)
(0.0462055 -0.0667271 1.58047e-17)
(0.0359051 -0.058774 4.09434e-18)
(0.0400962 -0.0626331 4.06984e-18)
(0.0666978 -0.0411449 -1.60279e-17)
(-0.0222337 -0.00947143 1.88839e-17)
(0.0817213 0.123914 -7.24624e-18)
(0.0413714 -0.0558298 1.78181e-17)
(0.0411569 -0.0481495 4.50673e-18)
(0.0570914 -0.00537152 -1.44811e-17)
(0.0967487 0.138684 0)
(0.0970775 0.144461 8.07871e-18)
(0.105424 0.130191 7.51407e-18)
(0.0963453 0.120581 0)
(0.110983 0.0339857 0)
(0.0435999 -0.0585242 -8.13343e-18)
(0.130278 0.0165361 -3.65365e-18)
(0.101032 -0.0892073 -2.5396e-17)
(0.11826 0.0112698 -2.52438e-17)
(0.0405927 -0.0720161 7.93554e-18)
(0.0663501 -0.12208 -2.51621e-17)
(0.0321139 -0.00961544 0)
(-0.0423912 -0.0187458 -7.30849e-18)
(0.0138096 0.0235323 1.53449e-17)
(0.00383486 -0.00904735 1.24361e-17)
(0.0157143 0.00142557 -3.98479e-22)
(0.0105552 -0.00775943 -2.2019e-18)
(0.000995245 0.00636406 -1.53591e-17)
(0.0486273 -0.0651277 2.26008e-22)
(0.0283201 0.0335521 2.46392e-17)
(0.00655431 -0.00909634 -1.68036e-17)
(0.0227942 0.00251951 -1.95967e-22)
(-0.019864 -0.0206703 -4.34402e-18)
(0.0196856 -0.0110832 0)
(-0.0289252 -0.00150832 -4.49136e-18)
(0.0175421 0.0261406 0)
(0.00351607 -0.00543031 1.76302e-17)
(0.0203572 0.00306755 -3.15113e-17)
(-0.0182838 0.0276288 -1.98718e-17)
(0.0927285 0.108995 -1.6124e-17)
(0.0357277 0.0251471 0)
(0.046093 -0.0630194 -8.20339e-18)
(0.0538726 -0.0760047 0)
(0.0124827 -0.0110568 0)
(0.0739188 -0.0296777 -3.16661e-17)
(0.0435329 -0.0641342 -1.39861e-17)
(0.0615605 -0.0611077 7.96668e-18)
(0.122432 -0.0199703 -1.43344e-17)
(0.0583669 -0.0544556 0)
(0.0938514 -0.0284158 1.58166e-17)
(0.0872129 -0.115708 9.06323e-18)
(0.0874286 0.00271459 -4.66767e-19)
(0.080425 -0.00344233 0)
(0.00948749 -0.0115386 -1.57543e-17)
(0.121329 0.00900342 2.32089e-17)
(0.00743296 -0.00232428 -1.59781e-17)
(0.0580506 -0.111849 -4.13214e-18)
(0.120498 -0.0222518 -3.94085e-17)
(0.0970577 0.116825 -1.60277e-17)
(0.0555913 -0.0217922 0)
(0.0953407 0.0793141 1.63438e-17)
(0.054278 -0.0668287 1.58912e-17)
(0.0447092 -0.0686843 1.58015e-17)
(0.10887 0.1379 -7.87237e-18)
(0.100656 -0.0207824 1.58212e-17)
(0.125912 0.129086 1.6959e-21)
(0.050774 -0.0646022 -4.03903e-17)
(0.14134 0.0837259 -8.29478e-18)
(0.107335 -0.00404423 -1.41078e-17)
(0.052096 -0.0522016 0)
(0.101306 0.0340928 1.61138e-17)
(0.0475929 -0.0653596 0)
(0.110784 -0.0123391 7.89833e-18)
(0.0329059 0.00296916 1.59873e-17)
(0.154335 0.0222475 2.02548e-17)
(0.0839789 -0.0625154 0)
(0.124754 -0.0397012 -2.22897e-18)
(0.0437224 -0.06708 1.34926e-17)
(0.128387 -0.0831833 -1.59945e-17)
(0.142509 -0.0160282 8.3562e-18)
(0.0866889 -0.0577131 -8.08066e-18)
(0.0429644 0.0220345 3.65756e-17)
(0.0870607 -0.123302 2.38693e-17)
(-0.00676837 0.0088098 -4.16386e-18)
(0.0193658 0.0400861 0)
(0.1181 -0.00629406 1.56112e-17)
(0.05072 0.0158705 -7.94539e-18)
(0.0637843 -0.0788513 -1.53865e-17)
(0.121711 -0.0279551 7.97037e-18)
(0.0952656 0.125634 7.89338e-18)
(0.121559 -0.0118676 7.9946e-18)
(0.0878648 0.0963732 1.63873e-17)
(0.0462098 -0.0693806 7.79679e-18)
(0.112712 0.134153 7.85597e-18)
(0.00347087 0.0121732 1.79452e-17)
(0.00258562 -0.00751332 0)
(-0.0497462 0.0206302 1.60001e-17)
(-0.00104173 -0.0137802 0)
(0.0416393 0.0250214 3.97421e-18)
(0.134407 0.107313 2.48187e-17)
(0.142773 -0.0527609 3.15175e-17)
(0.142372 -0.0555558 2.43835e-18)
(0.0906183 0.0552557 -3.27455e-17)
(0.152234 0.0525267 -3.33079e-17)
(0.0355985 0.0184968 -8.13304e-18)
(-0.0721872 0.00587416 -4.05363e-18)
(0.0572794 -0.0483685 0)
(0.134347 0.0383987 1.63071e-17)
(-0.0907303 0.0256617 4.2522e-18)
(0.0689293 -0.0596445 0)
(0.0977067 -0.0733587 1.56499e-17)
(-0.00980798 0.0130206 4.18539e-18)
(0.0300779 0.0182429 8.23364e-18)
(-0.0290515 -0.00848584 -1.04064e-18)
(-0.101687 0.0224798 -7.11463e-18)
(0.0599916 -0.0687963 -2.36408e-17)
(0.126047 -0.0284326 0)
(0.079635 -0.0557349 7.50601e-18)
(0.103773 -0.118565 0)
(0.10631 -0.0429517 0)
(0.024567 -0.0328543 0)
(0.0998216 0.0103144 0)
(0.0684193 -0.0942209 7.88875e-18)
(0.00399459 -0.00455339 2.40587e-17)
(0.0180295 0.0129939 -1.71869e-17)
(0.157785 -0.0282229 7.9048e-18)
(0.0877204 -0.0752174 0)
(0.162639 -0.0127275 2.3711e-17)
(0.139352 -0.0971458 0)
(0.049019 -0.0687298 -7.95695e-18)
(0.0500795 -0.0677736 7.96748e-18)
(0.0755565 -0.0708109 7.8784e-18)
(0.0883556 -0.0435392 1.58592e-17)
(0.0700994 -0.073077 7.88546e-18)
(0.0755535 -0.0582053 1.65415e-17)
(0.0941783 -0.10491 -3.17051e-17)
(0.0647439 -0.0513099 0)
(0.0592116 -0.0646272 -7.85924e-18)
(0.120524 -0.112224 1.57763e-17)
(0.157406 -0.0419263 -1.57834e-17)
(0.121593 -0.0420933 0)
(-0.00450974 -0.0189901 1.668e-17)
(0.159508 0.0204935 1.59126e-17)
(0.112102 0.0296096 -2.94694e-17)
(0.111762 -0.0161681 0)
(0.156382 0.0527647 1.59011e-17)
(0.140824 -0.000432861 0)
(0.0445619 -0.0307121 0)
(0.0188015 -0.0221527 0)
(0.0760673 -0.0634658 0)
(0.111285 0.118904 2.36223e-17)
(0.0669319 -0.063781 0)
(0.0804795 -0.0947215 7.95167e-18)
(0.14806 0.0246645 -1.66782e-17)
(0.0653858 -0.0678079 7.86718e-18)
(0.110081 -0.0714642 -1.44886e-17)
(0.0756264 0.0870585 -1.58851e-17)
(0.132349 0.0647631 0)
(0.048922 -0.0674695 -1.58237e-17)
(0.162764 -0.00278733 -2.37214e-17)
(0.111234 -0.032732 0)
(0.0906551 -0.0481263 0)
(0.084097 -0.0789385 0)
(0.0542128 -0.067179 1.58247e-17)
(0.0809429 0.00784157 5.84801e-22)
(0.0621444 -0.0519262 -2.77985e-21)
(0.0198781 -0.0308075 -1.6445e-17)
(0.0585537 -0.0665742 0)
(0.0927855 -0.0345174 0)
(0.103945 -0.0460349 0)
(0.11587 -0.0484342 0)
(0.0299443 0.0585809 0)
(0.0533207 -0.0672593 -7.92894e-18)
(0.0674288 -0.0476205 -1.61447e-17)
(0.137885 0.0999813 2.37035e-17)
(0.0874203 0.111285 -7.90505e-18)
(-0.0185517 -0.0394064 1.59774e-17)
(0.0762571 -0.0131724 -7.91791e-18)
(0.0650169 -0.028533 8.06326e-18)
(0.0520941 -0.0152558 -7.95267e-18)
(0.0526324 -0.0585601 0)
(0.143501 0.072365 -1.58599e-17)
(0.116196 0.105381 -3.147e-17)
(0.103614 -0.0235832 0)
(0.0878047 0.110842 -1.57808e-17)
(0.0523441 0.0823561 -1.60796e-17)
(0.0696023 0.0968037 0)
(0.159944 -0.0627129 0)
(0.0906614 -0.0380844 -6.51764e-22)
(0.0877261 0.118191 7.1898e-18)
(0.103372 -0.0996744 0)
(0.0435229 0.0224771 -2.38579e-17)
(0.146216 -0.0830379 0)
(0.0721211 -0.035378 0)
(0.0422783 -0.0712668 -1.57289e-17)
(0.082538 -0.034107 -1.58656e-17)
(0.0744428 0.0501674 0)
(0.0996951 -0.0407036 -1.58283e-17)
(0.121153 -0.100166 -7.90411e-18)
(0.108008 -0.0549156 1.57991e-17)
(0.154824 -0.0492446 -1.61719e-17)
(0.0630616 0.0667988 1.59094e-17)
(0.100011 -0.0805921 0)
(0.100853 -0.00843725 -7.91805e-18)
(0.106354 0.00445223 -2.79912e-17)
(0.102078 -0.0593394 0)
(0.106207 -0.0188271 0)
(0.066235 0.0281901 2.37898e-17)
(0.0447805 -0.0705212 -1.54592e-17)
(0.0829955 0.103465 0)
(0.107948 -0.0489265 1.58085e-17)
(0.0752892 0.133069 3.32136e-17)
(0.115531 -0.0560726 -1.57828e-17)
(0.0535011 -0.0660605 0)
(0.0815823 -0.0547331 3.36543e-17)
(0.0905597 -0.0153462 7.91474e-18)
(0.0555061 -0.0631808 0)
(0.0783031 0.0470467 1.58317e-17)
(0.00735362 0.0284484 -8.72598e-18)
(0.0604564 0.0814533 0)
(0.0434598 0.0571384 0)
(0.0286212 0.0666905 0)
(0.0461157 -0.0219597 1.40012e-17)
(0.051752 0.0588752 -7.66184e-18)
(0.122203 -0.0877994 -1.92462e-17)
(0.0851742 0.0016028 0)
(0.0957576 0.0890505 8.1079e-18)
(0.0737944 -0.00681453 -1.58669e-17)
(0.108799 0.028665 2.67102e-17)
(0.0505787 -0.0651324 0)
(0.103457 0.0930554 -6.84724e-18)
(0.0907292 0.0580476 0)
(0.0490632 0.0832933 0)
(0.0357048 -0.0293646 0)
(0.130834 -0.0663925 0)
(0.029908 0.0375109 7.99159e-18)
(0.0709417 0.0902287 0)
(0.0944636 0.0326738 0)
(0.0743513 0.0810223 -7.9951e-18)
(0.10794 0.0676803 -7.84601e-18)
(0.104252 -0.0507368 0)
(0.0625156 0.0593154 0)
(0.101014 -0.0572704 0)
(0.100843 0.0854036 3.15215e-17)
(0.0352383 0.0672916 2.40911e-17)
(0.104051 -0.0356686 0)
(0.135736 -0.0785284 1.36156e-17)
(0.0537483 0.113693 -1.59636e-17)
(0.0678263 0.0130562 1.5891e-17)
(0.0501217 0.068514 -1.58776e-17)
(-0.00352336 -0.0153967 -3.71543e-22)
(0.106771 0.0720546 0)
(0.040406 -0.0693242 0)
(0.0622031 0.125927 1.53123e-17)
(0.0251308 -0.0645488 0)
(0.106139 0.0191887 0)
(0.0540742 -0.0336993 -1.41418e-17)
(0.0398737 -0.059352 -2.00668e-17)
(0.0313139 -0.0130439 0)
(0.0181457 0.0214088 -1.58984e-17)
(0.105482 0.0439128 0)
(0.0565891 0.00339201 -1.59065e-17)
(0.0273799 0.0190915 -7.96633e-18)
(0.0273275 0.0384069 3.18713e-17)
(0.0515588 0.0242907 0)
(0.0744104 0.0716087 -1.58191e-17)
(0.0566907 0.116625 7.95271e-18)
(0.040548 0.0132057 0)
(0.0609508 0.132001 1.9912e-17)
(0.0377541 0.0341049 -7.96943e-18)
(0.0441235 0.0881878 -1.59337e-17)
(0.0765184 -0.0447849 -1.48418e-17)
(0.0600211 0.135941 -8.01423e-18)
(0.0886657 -0.0308348 0)
(0.0695612 0.125737 -1.59556e-17)
(0.0333853 -0.0738203 0)
(0.0241115 -0.0736194 2.35765e-17)
(0.0507321 0.0870674 2.38437e-17)
(0.0652225 0.134675 1.58935e-17)
(0.000662237 -0.0194163 3.21205e-17)
(0.018559 -0.0216327 -8.49571e-18)
(-0.0110166 -0.0354912 -1.61572e-17)
(0.0672665 0.135967 0)
(0.0104005 -0.0582173 0)
(0.0596253 0.124975 -1.59373e-17)
(0.0575844 0.133278 3.31534e-17)
(0.012531 -0.0120302 0)
(0.0410118 0.072795 -2.38582e-17)
(0.0231431 -0.0729127 -3.21514e-22)
(0.0513772 0.109853 8.04274e-18)
(0.0677326 0.136233 0)
(0.0630994 0.126784 8.06654e-18)
(0.0630747 0.124825 -2.39241e-17)
(0.0476548 0.0935661 0)
(0.0183594 -0.0763554 1.82427e-17)
(0.0387105 0.116191 -3.43813e-17)
(0.00158774 -0.0729368 0)
(0.0617252 0.116948 0)
(0.0310128 -0.0729139 -1.59209e-17)
(0.0283426 -0.0739477 0)
(0.0592613 0.117523 1.59308e-17)
(0.0221239 0.0564379 4.64505e-19)
(0.0132779 -0.0659956 -1.74386e-17)
(0.0547366 0.119545 -1.61595e-17)
(0.0168214 -0.068351 -1.30737e-17)
(0.0257619 -0.0718991 1.59887e-17)
(0.00190886 -0.0794168 0)
(0.00580162 0.00791171 0)
(-0.00168115 -0.0189997 5.51849e-17)
(0.00144362 -0.0600568 -3.55027e-17)
(0.00329043 -0.0293534 -3.50011e-17)
(0.0670933 -0.0293347 0)
(0.044694 0.152825 1.70424e-17)
(0.0177469 -0.0703108 -2.49544e-17)
(0.0202947 -0.0693276 2.51027e-17)
(0.000908957 -0.0406024 0)
(0.00731066 -0.0249133 -1.75596e-17)
(0.038905 0.161467 -5.26953e-17)
(0.00110911 -0.0408244 -1.66344e-17)
(0.00594539 -0.0395449 -5.67101e-22)
(0.0351907 0.1029 1.48639e-17)
(0.0153343 -0.0657027 -1.71275e-17)
(-0.00517524 -0.0404398 8.26036e-18)
(0.0190322 0.0406474 0)
(0.0357483 -0.0420531 -1.88796e-17)
(0.0451093 0.143222 3.85168e-17)
(0.00442945 -0.0065616 -1.86222e-17)
(0.00234128 -0.02803 2.68177e-22)
(0.0594091 -0.0323446 2.59461e-17)
(0.0912846 0.0265646 -3.21362e-22)
(0.0520445 -0.00734581 3.13742e-17)
(0.0582706 0.0435912 1.13893e-17)
(0.0281192 -0.0697891 0)
(0.00252208 -0.0511286 1.78314e-17)
(0.00397728 -0.0297974 0)
(-0.033734 0.00374108 -1.0517e-17)
(0.0431162 0.156923 -5.5144e-19)
(0.00248363 -0.0285677 0)
(0.042332 0.150829 5.0738e-19)
(0.0470732 0.120487 1.77834e-17)
(0.0059671 -0.0141121 -2.07596e-17)
(0.0025632 -0.0302934 -5.02986e-18)
(0.0101351 -0.0533516 4.24532e-18)
(0.0544153 -0.00312723 2.46323e-17)
(-0.0333807 0.00891385 1.85678e-17)
(0.052965 -0.0373667 -1.96535e-17)
(-0.104448 0.03498 1.52425e-17)
(0.031469 -0.0656726 0)
(0.0885373 -0.00282947 9.22615e-18)
(-0.00972265 0.0417651 0)
(-0.00993957 -0.0340801 1.48046e-17)
(0.016631 -0.0560458 0)
(-0.000770792 -0.0153199 -3.52727e-17)
(0.112067 0.0225862 -1.89727e-17)
(0.0829364 0.0448955 -1.54947e-17)
(0.00851945 -0.0172126 -1.33476e-17)
(0.108838 -0.0406306 0)
(0.00303186 0.0943431 8.69753e-19)
(-0.0454104 0.00734984 0)
(0.0853205 -0.0488877 -2.75687e-17)
(0.0656078 -0.0341656 -1.30296e-17)
(0.0813462 -0.039449 -4.57134e-18)
(0.00301277 -0.00802543 3.39389e-17)
(0.0203141 -0.0336861 0)
(0.0146202 -0.0577717 1.46275e-17)
(0.0295712 -0.0424853 0)
(0.0604394 -0.0401185 -2.49356e-17)
(0.00209969 -0.0678274 -1.89174e-17)
(0.0965796 0.0950324 1.75215e-17)
(0.0111496 0.0579758 0)
(0.000431191 0.0370363 -4.59934e-18)
(0.0533048 0.129945 0)
(0.0106116 -0.021693 1.74808e-17)
(0.00594392 -0.0675563 5.59271e-19)
(0.00133756 -0.050746 3.73741e-17)
(0.0313939 -0.0699743 0)
(0.0034065 -0.0770147 1.62319e-17)
(0.00300881 -0.0674334 1.73412e-17)
(0.0055344 -0.0797025 9.15511e-18)
(0.017584 -0.0386505 -7.42271e-23)
(-0.00966685 0.0820851 -2.41039e-17)
(0.051814 0.136362 0)
(0.0350414 -0.0535909 0)
(0.0211843 0.0836398 -8.81289e-18)
(0.101577 0.0719096 1.79935e-17)
(0.0230429 0.0739006 0)
(0.00455979 -0.0178415 8.69802e-18)
(0.0242692 0.0650454 -1.46912e-17)
(0.00514646 -0.0172749 0)
(0.00952027 -0.0765839 0)
(0.0123956 0.0521031 -1.72339e-22)
(0.0145988 0.0389021 1.52706e-17)
(0.00256854 -0.00946031 8.49744e-18)
(0.00848237 -0.0669572 -8.91409e-18)
(0.0574592 -0.114827 0)
(0.0642849 0.123272 1.72908e-17)
(0.0399384 -0.0572801 -8.92363e-18)
(0.0464362 0.0543069 -8.68261e-18)
(0.0576171 0.0478926 0)
(0.0255604 -0.000686878 0)
(-0.0534162 -0.024068 7.77673e-18)
(0.0245597 0.044418 -1.67129e-17)
(0.0309366 0.0329364 0)
(0.0445895 0.0166174 1.4575e-17)
(0.0242263 -0.0147071 0)
(0.0388473 0.0526141 8.58701e-18)
(0.0116795 -0.0166977 -1.6675e-17)
(0.000304363 -0.0204679 2.22639e-18)
(-0.0329478 -0.0268397 1.33493e-17)
(0.0267083 0.0446189 -1.7683e-17)
(0.0310469 0.0477743 -1.78538e-17)
(0.0104121 -0.0138437 0)
(0.0558241 0.0360862 1.62804e-17)
(0.0361051 0.0312173 0)
(-0.00272311 -0.012936 -2.10643e-18)
(-0.0331616 -0.0216259 0)
(0.0146758 0.0233078 0)
(0.0215227 0.0295638 -8.63316e-18)
(0.0120569 -0.00858625 9.16885e-23)
(0.0049754 -0.00745766 0)
(0.0299178 0.0126399 -1.37413e-17)
(0.0838342 0.0577608 -9.28331e-18)
(0.106044 0.0728715 -1.70017e-17)
(0.0987731 0.0382852 0)
(0.000633494 -0.0601192 -1.73393e-22)
(0.0674003 0.120952 -2.77139e-17)
(0.00664553 -0.0378135 -2.02203e-17)
(0.00524165 -0.0520806 0)
(0.0235626 -0.0166458 -3.38964e-17)
(0.0598644 0.115364 -8.44377e-18)
(0.0531372 0.138111 0)
(0.0967399 0.0113315 1.7252e-17)
(0.0149965 -0.0781899 -9.70355e-18)
(0.0480083 0.0912615 1.92659e-17)
(0.0122754 -0.00878987 1.71772e-17)
(0.0501798 -0.0337724 9.26408e-18)
(0.0489319 -0.0438231 2.70112e-17)
(0.0425102 0.0254513 9.66136e-18)
(0.0620405 -0.0453826 0)
(0.0266985 -0.0158148 -3.37826e-17)
(0.033466 -0.0192179 -4.12743e-18)
(0.0271956 -0.0374869 2.58835e-17)
(0.00153784 -0.0729551 -1.80279e-17)
(0.0849691 -0.0278544 -2.92041e-17)
(0.0521279 0.0184924 1.43811e-17)
(0.0296964 0.0722622 -2.3663e-17)
(0.00802732 -0.0721262 4.58004e-18)
(0.0997949 0.102179 1.74886e-17)
(0.108071 0.0577534 -2.6336e-17)
(0.0387436 -0.0478047 3.67309e-17)
(0.0140112 -0.0195856 0)
(0.0201956 -0.0767471 -1.88715e-17)
(0.0240435 0.0500234 2.95075e-17)
(0.0298323 -0.0360858 -1.72103e-17)
(0.0159239 -0.0787782 1.02176e-17)
(0.0377318 -0.00889716 -4.57641e-18)
(0.0105498 0.0615079 0)
(0.0150505 0.0554119 -8.87769e-18)
(0.0371614 -0.0622526 -1.8827e-17)
(0.0364023 -0.0461573 1.74555e-17)
(0.0183843 -0.0740174 1.13431e-17)
(0.0136415 0.0277701 -1.90606e-17)
(0.0152336 -0.0489196 1.01215e-17)
(0.0716087 0.137076 -1.4089e-17)
(0.00954948 -0.0512671 0)
(0.0722532 0.0952189 3.24734e-17)
(0.113178 -0.0073629 -1.78112e-17)
(0.115254 0.0114034 2.26374e-17)
(0.0122903 -0.00907755 2.15617e-17)
(0.118687 0.0486227 4.51119e-18)
(0.103518 0.108283 -9.67156e-18)
(0.0296941 -0.00372161 -2.00788e-17)
(0.0298618 -0.000512001 1.9117e-17)
(0.0267578 -0.0429952 0)
(0.052583 0.0546835 0)
(0.00243464 -0.0765744 -1.98483e-17)
(0.000988788 -0.00692678 -9.69286e-18)
(0.00220096 -0.00109491 -1.93959e-17)
(0.00310826 -0.0799423 1.09451e-22)
(0.0213034 -0.0309745 8.85778e-18)
(0.0232702 -0.0153464 -1.78675e-17)
(0.000760205 -0.015895 0)
(0.00261676 -0.00885532 0)
(0.023602 -0.0284831 3.25915e-17)
(0.00348935 0.070311 -3.20642e-17)
(0.00912853 -0.0100738 -9.05206e-18)
(0.0626491 0.0935433 1.04407e-17)
(0.000316649 -0.00832836 1.8304e-17)
(0.0323854 0.11182 2.08924e-17)
(-0.0118226 -0.0341265 0)
(0.105484 0.0474433 0)
(-0.0166311 -0.0324127 -9.38709e-18)
(0.0177912 0.120486 1.09466e-17)
(0.0879328 0.110007 -8.48537e-18)
(0.0064704 -0.0163415 -1.40159e-17)
(0.0100402 -0.0382045 9.34029e-18)
(-0.0219975 0.0163392 -2.31635e-18)
(-0.031398 0.0146582 -3.19956e-17)
(0.0475007 0.145127 -2.23958e-17)
(0.0414574 -0.0380025 5.42562e-18)
(0.064492 0.108753 2.29465e-17)
(0.0240019 -0.00747465 -1.52344e-22)
(0.0422645 -0.0587191 1.61637e-17)
(0.0513407 -0.0139735 1.88508e-17)
(0.0681129 -0.00534446 -9.07091e-18)
(0.0399035 0.118935 -3.04716e-17)
(0.0021499 -0.0358025 1.98002e-17)
(0.0489469 -0.0167059 -9.29176e-18)
(0.0382912 -0.0199082 -1.86026e-17)
(0.040165 -0.0437791 1.61596e-17)
(0.0414227 0.0756482 -2.20613e-18)
(0.0080595 -0.0088482 4.56053e-18)
(0.0237965 0.0557306 4.06772e-18)
(-0.00917804 0.0117506 0)
(-0.0337009 0.00235756 6.20174e-18)
(0.0482555 0.13698 9.98056e-18)
(0.0174884 -0.0256316 2.1971e-17)
(0.00410168 -0.00136529 0)
(0.0904243 -0.0149453 -3.85944e-18)
(0.0493806 -0.127188 2.20224e-17)
(0.0105742 -0.0564689 1.23509e-17)
(-0.00192348 -0.034087 0)
(0.000609028 -0.00770216 -1.91814e-17)
(0.0369966 -0.0529717 1.01114e-17)
(0.0121533 -0.00101783 -2.56934e-18)
(0.00848666 0.0180232 -1.34065e-18)
(0.0198423 -0.0412732 4.89297e-18)
(-4.21273e-05 -0.00666393 2.10353e-17)
(0.00245519 -0.0326052 0)
(-0.00256608 -0.10782 0)
(0.0298575 -0.0435107 0)
(0.0115515 -0.0404396 -1.08359e-17)
(0.0951103 0.100263 0)
(0.0385527 -0.00255675 1.7933e-17)
(0.0104746 -0.0722155 -1.04633e-17)
(0.00012929 -0.0153669 -1.0738e-17)
(0.00226914 -0.0337176 0)
(0.0391084 -0.0740207 -5.44207e-18)
(0.0813839 0.0576245 0)
(0.0535706 0.0144861 6.11496e-19)
(0.00426791 -0.000675566 1.03443e-17)
(0.00157407 -0.0169018 1.51482e-17)
(0.0216102 -0.0514933 0)
(0.0130432 -0.0300343 1.95793e-17)
(-0.00100606 -0.0268957 0)
(0.00227434 -0.0311343 0)
(0.00999931 -0.0616184 1.30927e-18)
(0.0143262 -0.0188823 -1.91879e-17)
(0.00732701 -0.0158689 -1.11789e-18)
(0.0430153 -0.0270509 0)
(0.102888 0.00899616 3.72946e-17)
(-0.00261174 -0.0339938 1.06784e-18)
(0.0197499 0.0953149 -9.47264e-18)
(0.0203987 -0.0186894 0)
(0.0847478 -0.0149555 -8.35811e-18)
(0.0199937 -0.0445508 -2.28087e-17)
(0.0504306 -0.0321923 2.09394e-17)
(0.0709716 0.111804 9.97402e-18)
(0.0230521 -0.0460558 9.23377e-18)
(0.0574008 -0.0388781 -9.98731e-18)
(0.002558 -0.0173961 -2.01658e-17)
(0.0688535 -0.0479119 -1.90232e-17)
(0.0653165 0.0137425 0)
(0.081531 -0.0545193 1.33958e-17)
(0.0249004 -0.0592935 4.63061e-18)
(0.0746813 -0.0695888 1.79785e-17)
(0.0489531 0.135511 4.83248e-18)
(0.0511471 0.142744 0)
(-0.00100743 -0.0985038 1.76579e-17)
(0.0246964 -0.11282 2.85098e-17)
(0.0512632 0.114967 0)
(0.0305387 -0.0556724 2.94553e-18)
(0.00319761 -0.00827535 -1.32092e-17)
(0.0164378 0.073551 0)
(0.00697488 -0.0601718 -1.24846e-18)
(0.1134 0.030346 -1.79094e-17)
(0.00884076 -0.0370401 -2.65872e-21)
(0.101079 0.080038 1.84652e-22)
(0.0280436 -0.0602405 -4.77089e-18)
(0.0338212 -0.0352148 -2.15195e-17)
(-0.0371405 0.016919 2.38392e-17)
(0.00734301 0.00189711 4.26698e-17)
(0.0301215 -0.0434536 -2.1856e-17)
(0.0190915 -0.0104079 3.16254e-17)
(0.00663994 0.100189 4.50139e-18)
(0.00642528 -0.0306563 1.05766e-17)
(0.0195227 0.0468864 2.10991e-17)
(0.0345834 -0.0507905 0)
(0.0638063 -0.0432951 -2.94591e-17)
(0.0242619 -0.0318435 -1.84572e-17)
(0.06961 0.0788334 5.09458e-18)
(0.0157114 -0.0479417 0)
(0.0124245 0.0319796 -2.26206e-17)
(0.0333227 -0.0468038 -2.16276e-17)
(0.0986668 0.0593429 0)
(0.0100871 -0.028809 1.17858e-17)
(0.0130883 -0.0742993 1.32467e-17)
(0.0344475 -0.0621178 -1.09003e-17)
(0.0382761 -0.0507517 1.32041e-18)
(0.0121578 -0.0507156 0)
(0.000944316 -0.0793687 2.18306e-22)
(0.061388 0.113246 0)
(0.0143314 -0.0170661 1.89827e-17)
(0.0307708 -0.0468997 -2.6935e-18)
(-0.00242482 -0.0375277 1.10418e-17)
(0.00190207 -0.0323676 0)
(0.00465544 -0.0193401 2.34804e-17)
(-0.0537963 0.0293743 2.18018e-17)
(0.0461876 -0.0439834 -5.44725e-18)
(0.00783846 -0.040545 -1.78566e-17)
(0.016698 -0.0273726 -3.72007e-17)
(0.0258584 0.0636955 0)
(0.12808 0.00788848 0)
(0.0521127 0.0883555 -2.26988e-17)
(0.0445083 0.0754075 2.94272e-17)
(0.0368317 -0.0961395 9.36511e-18)
(0.123863 0.0847802 1.06235e-17)
(0.0322286 -0.0496524 7.7153e-18)
(0.000856224 -0.0316301 -1.16928e-17)
(0.0465758 0.149537 0)
(0.0491537 0.0896534 0)
(0.0326926 -0.0435013 0)