/*--------------------------------*- C++ -*----------------------------------*\
  =========                 |
  \\      /  F ield         | OpenFOAM: The Open Source CFD Toolbox
   \\    /   O peration     | Website:  https://openfoam.org
    \\  /    A nd           | Version:  9
     \\/     M anipulation  |
\*---------------------------------------------------------------------------*/
FoamFile
{
    format      ascii;
    class       surfaceScalarField;
    location    "0.42";
    object      phi;
}
// * * * * * * * * * * * * * * * * * * * * * * * * * * * * * * * * * * * * * //

dimensions      [0 3 -1 0 0 0 0];

internalField   nonuniform List<scalar> 
816
(
-7.73e-11
-1.16e-09
1.24e-09
-8.39e-11
-1.94e-09
2.03e-09
1.78e-09
-1.86e-09
2.27e-09
-2.29e-09
2.77e-11
1.27e-09
-1.27e-09
2.32e-09
4.65e-10
-2.79e-09
1.31e-09
-1.31e-09
-1.23e-09
1.23e-09
-2.21e-09
-1.41e-10
2.35e-09
-1e-09
9.2e-10
3.42e-09
-1.1e-09
2.77e-09
-1.95e-09
-8.13e-10
4.89e-10
1.91e-09
-2.39e-09
2.72e-09
-2.44e-09
-2.82e-10
2.71e-09
-2.3e-09
-4.18e-10
-1.94e-09
3.15e-09
-1.2e-09
7.24e-10
7.61e-10
-1.48e-09
-2.54e-09
1.94e-10
2.35e-09
3.42e-10
2.42e-09
1.09e-09
-3.3e-09
1.74e-09
5.28e-10
2.7e-10
-2.21e-09
1.43e-09
-2.76e-10
-1.15e-09
-1.66e-09
-7.89e-10
2.45e-09
-1.81e-09
1.52e-10
-2.32e-09
5.29e-10
1.79e-09
-2.06e-09
2.25e-09
-1.91e-10
-1.61e-11
6.81e-10
-6.65e-10
6.42e-10
-2.58e-09
1.03e-09
2.11e-09
-1.41e-09
1.39e-09
-1.72e-09
2.19e-09
3.51e-09
-2.48e-09
-2.69e-09
1.36e-09
1.33e-09
2.39e-10
2.48e-09
-5.44e-10
2.66e-09
2.46e-10
2.48e-09
-4.08e-10
-1.91e-09
-3.32e-09
1.21e-09
2.11e-09
8.28e-10
4.41e-10
-1.02e-09
-8.9e-10
8.24e-10
-2.3e-09
6.2e-12
-1.57e-09
-5.2e-10
2.09e-09
8.33e-10
4.72e-10
-1.07e-09
2.22e-09
-2.36e-09
-1.54e-09
-1.9e-09
-1.59e-10
-6.81e-11
8.16e-10
-7.48e-10
2.25e-09
-1.76e-09
1.36e-09
7.02e-11
-1.01e-09
-1.68e-09
1.26e-09
1.07e-09
7.27e-10
-2.52e-09
1.8e-09
-2.76e-10
-1.57e-09
2.68e-09
-1.95e-09
9.92e-10
-1.54e-09
1.39e-10
-4.14e-10
1.17e-09
1.37e-09
-1.17e-09
-6.94e-11
-2.37e-09
-1.31e-09
-1.63e-09
2.93e-09
-2.36e-09
5.52e-11
2.26e-09
1.25e-09
1.48e-09
1.94e-09
-9.78e-10
3e-09
-2.02e-09
5.22e-10
1.86e-09
-2.38e-09
-4.52e-10
-1.79e-09
1.16e-09
-2.47e-09
1.87e-09
9.9e-10
-2.86e-09
1.08e-09
1.9e-09
-2.97e-09
1.09e-09
-1.09e-09
-1.32e-09
2.41e-09
-1.9e-09
5.81e-10
3.06e-09
4.3e-10
8.1e-10
-1.24e-09
-2.7e-09
2.36e-10
2.46e-09
-1.16e-09
1.19e-09
-1.19e-09
-1.27e-09
1.27e-09
1.24e-09
-2.58e-09
1.33e-09
-9.42e-10
-3.13e-10
8.16e-10
-2.02e-09
2.74e-09
-3.14e-11
-1.91e-09
1.94e-09
-1.69e-09
-7.19e-11
1.77e-09
8.41e-10
-1.15e-09
2.4e-09
-1.59e-11
-2.06e-09
2.08e-09
1.78e-09
1.18e-09
-2.96e-09
-2.18e-09
1.79e-10
1.97e-09
-2.15e-09
-1.2e-09
-1.33e-09
-1e-09
-1.62e-10
2.64e-09
3.67e-11
-2.39e-09
-1.58e-09
2.11e-09
-2.55e-09
1.81e-09
7.41e-10
1.64e-09
1.41e-09
9.19e-10
-2.32e-10
2.71e-09
-1.71e-09
1.02e-09
-9.42e-10
-1.11e-10
-9.81e-10
1.04e-09
1.62e-09
2.39e-09
2e-09
-2.77e-09
7.7e-10
-9.03e-10
-1.65e-09
-6.72e-10
-1.62e-09
-2.73e-10
-2.11e-09
2.39e-09
8.38e-11
-1.78e-09
2.53e-09
-1.12e-09
-1.22e-10
1.91e-09
-1.5e-09
2.38e-10
5.14e-10
1.87e-09
-1.38e-10
-3.11e-10
1.93e-09
-2.27e-09
3.32e-10
-1.44e-09
-1.25e-09
-2.13e-09
1.55e-09
5.82e-10
-1.89e-09
-4.75e-10
2.38e-09
-5.19e-11
-2.33e-09
2.43e-09
-4.9e-10
-6.92e-10
2.48e-09
-7.02e-10
7.02e-10
2.19e-09
1.84e-10
2.92e-11
-2.21e-09
2.19e-09
2.25e-11
-1.98e-09
-2.27e-09
-5.02e-10
1.71e-09
-1.76e-09
1.68e-11
-8.16e-10
7.99e-10
5.33e-10
1.73e-09
4.54e-11
1.75e-09
-1.8e-09
-8.24e-10
-9.88e-11
2.21e-09
2.52e-10
1.31e-09
-1.57e-09
-1.3e-09
9.09e-10
3.89e-10
-2.12e-09
1.64e-09
-2.52e-09
-9.62e-11
2.62e-09
-9.6e-10
9.6e-10
9.92e-10
1.27e-10
5.75e-10
-2.22e-10
-2.44e-09
2.66e-09
-5.31e-11
-1.85e-09
2.49e-09
-1.85e-09
-4.97e-10
2.26e-09
-1.76e-09
8.1e-10
2.63e-10
-2.79e-09
-2.11e-09
-8.16e-10
-2.2e-09
2.1e-09
-8.14e-10
8.14e-10
-1.87e-09
-7.68e-10
1.87e-09
-2.09e-09
-1.41e-09
9.17e-10
-1.06e-09
3.6e-09
-2.54e-09
-2.25e-10
-1.98e-09
8.9e-10
-8.67e-10
-9.46e-10
9.75e-10
1.22e-10
-6.92e-10
5.71e-10
3e-11
1.84e-09
1.84e-09
1.1e-09
-1.22e-09
3.05e-09
-2.23e-09
-1.29e-09
1.06e-09
1.35e-11
-1.78e-09
1.77e-09
9.1e-10
-8.8e-10
2.43e-10
-2.19e-09
1.95e-09
1.66e-09
-1.98e-09
1.85e-09
-2.27e-11
-2.19e-09
-1.3e-09
-1.54e-09
-1.05e-09
-1.08e-09
-2.37e-09
-2.24e-10
2.6e-09
-8.02e-10
8.15e-10
-2.34e-09
-2.3e-10
2.57e-09
2.18e-09
-7.61e-11
-1.97e-09
-1.15e-10
-9.2e-10
-2.13e-09
3.36e-09
-1.24e-09
-9.17e-10
8.58e-10
5.85e-11
-9.09e-10
8.56e-10
-2.22e-09
2.2e-09
1.99e-11
2.07e-09
-1.95e-09
-1.21e-10
-1.41e-09
3.02e-09
-8.86e-10
-3.07e-10
-3.19e-09
1.98e-09
1.07e-09
9.6e-11
-3.09e-11
-2.11e-09
-9.59e-11
1.41e-09
-2.79e-09
-1.17e-10
2.31e-09
3.26e-09
-1.28e-09
1.61e-09
1.49e-09
3.81e-10
4.75e-10
-5.71e-10
2.34e-09
1.67e-09
1.65e-10
-1.46e-09
1.59e-09
9.88e-10
-1.06e-09
-9.95e-10
8.8e-10
-1.44e-09
-2.16e-09
3.46e-09
-1.3e-09
-8.02e-10
-8.86e-10
-6.92e-10
-5.57e-10
-1.61e-09
-1.29e-09
9.88e-10
-9.95e-10
-7.06e-10
-9.88e-11
1.41e-09
-1.31e-09
9.1e-10
1.2e-09
9.37e-11
8.56e-10
7.99e-10
-8.15e-10
-1.89e-10
-9.46e-10
-1.75e-09
-1.16e-09
2.91e-09
2.03e-09
-2.3e-10
-2.04e-09
6.9e-11
2.12e-09
1.88e-10
-4.77e-10
2.88e-10
-7.48e-10
1.84e-09
-2.4e-09
1.19e-11
2.82e-09
-2.77e-09
4.77e-10
-5.75e-10
8.58e-10
8.86e-10
-1.61e-10
4.49e-10
-9.8e-10
-2.89e-10
-2.36e-09
4.25e-10
1.28e-09
2.19e-09
1.74e-09
-2.12e-09
3.39e-09
-2.36e-09
6.12e-10
4.75e-10
-9.75e-10
-1.21e-09
-1.9e-09
3.11e-09
8.67e-10
-3.28e-09
-1.27e-09
3.46e-09
-1.31e-09
3.34e-09
2.18e-09
1.07e-10
-5.54e-10
5.54e-10
-1.01e-09
-1.51e-09
2.08e-09
2.08e-09
1.52e-09
-7.48e-10
7.48e-10
-8.86e-10
-6.16e-10
-9.35e-10
7.68e-10
1.67e-10
9.35e-10
-1.87e-10
-4.21e-10
-1.01e-09
-2.12e-09
-2.19e-09
4.08e-10
-3.48e-09
1.26e-09
2.22e-09
-1.29e-09
2.83e-10
-2.07e-09
3.43e-09
-1.36e-09
-3.34e-09
1.27e-09
9.88e-10
-1.97e-09
3.23e-09
1.79e-09
-3.05e-09
-2.75e-10
1.85e-10
1.13e-09
-1.72e-09
2.16e-09
-1.1e-09
-1.68e-09
2.77e-09
-2.12e-09
3.51e-09
-1.35e-09
2.43e-09
1.12e-09
2.39e-09
2.91e-09
-2.79e-09
-2.83e-09
1.48e-09
2.13e-09
-3.55e-09
2.23e-09
-1.04e-09
2.18e-09
-4.29e-10
-2.04e-09
-1.02e-09
1.15e-09
2.28e-09
3.41e-09
-5.56e-10
-1.45e-09
2.01e-09
-7.38e-10
7.38e-10
-6.7e-10
6.7e-10
8.18e-10
-8.18e-10
7.96e-10
-7.96e-10
8.28e-10
8.33e-10
2.11e-09
-2.84e-09
7.26e-10
-1.07e-09
2.11e-09
1.29e-09
1.06e-09
-1.06e-09
-9.81e-10
1.02e-09
-1.02e-09
-3e-09
1.14e-09
1.87e-09
-4.14e-10
-3.26e-09
2.01e-09
1.25e-09
-7.39e-10
7.39e-10
-2.75e-09
1.11e-09
1.64e-09
-9.89e-10
-2.04e-09
-1.8e-09
1.37e-09
-8.97e-10
1.89e-09
-7.44e-10
-2.59e-09
-2.67e-09
1.36e-09
7.95e-10
7.95e-11
1.27e-10
2.24e-11
-1.51e-09
-3.19e-09
1.78e-09
1.41e-09
-2.05e-09
-9.72e-10
-6.9e-10
-6.97e-11
9.91e-10
-2.46e-09
1.01e-09
-1.35e-09
-1.84e-09
3.42e-09
-1.07e-09
-1.71e-09
6.68e-10
1.04e-09
-2.12e-10
-2.24e-09
5.12e-11
2.19e-09
-7.01e-10
7.07e-10
-7.07e-10
-4.17e-11
-1.38e-09
-1.2e-09
-1.52e-09
2.44e-09
2.28e-09
-6.4e-10
-2.23e-09
-1.58e-09
6.88e-11
2.89e-09
-1.54e-09
-1.05e-09
-2.27e-09
-1.65e-09
-2.16e-09
-3.97e-10
-1.51e-09
-6.22e-10
-1.44e-09
-9.94e-10
-1.87e-09
-2.7e-09
-5.91e-10
2.14e-09
-1.81e-09
-1.67e-09
-2.11e-09
1.85e-09
-2.27e-09
4.16e-10
-9.07e-10
-3.31e-10
-1.98e-10
1.99e-09
-9.07e-10
-5.5e-10
2.85e-09
3.96e-10
-3.25e-09
3.15e-09
9.16e-10
1.18e-09
-1.38e-09
2.37e-09
8.22e-10
-8.22e-10
1.94e-09
4.48e-10
1.04e-09
2.18e-10
-1.94e-09
1.94e-09
-2.58e-09
2.76e-09
1.56e-09
1.38e-09
-2.39e-09
1.01e-09
6.17e-11
2.75e-09
-8.88e-10
1.55e-09
2.27e-09
-1.87e-09
7.56e-11
6.81e-10
-1.74e-09
7.95e-10
9.67e-10
9.49e-10
1.58e-09
-2.01e-09
3.25e-10
-1.57e-09
1.11e-10
1.9e-09
-1.68e-09
1.85e-09
5.31e-10
-1.75e-09
8.7e-10
-5.97e-11
7.98e-10
-2.65e-09
-1.68e-10
-3e-09
4.34e-10
-1.2e-10
7.08e-10
2.83e-10
-1.78e-09
2.39e-09
2.47e-10
-2.49e-09
-6.65e-10
8.7e-10
1.79e-09
-1.4e-09
-1.76e-09
-1.08e-09
1.64e-09
1.07e-09
-1.82e-09
7.08e-10
9.16e-10
-2.46e-09
-2.61e-09
2.44e-09
-6.27e-11
-1.53e-09
-1.21e-09
1.21e-09
7.93e-10
-2.33e-09
-1.24e-09
1.24e-09
-1.92e-09
-2.46e-09
-1.9e-09
-1.92e-09
1.12e-09
1.08e-09
2.26e-09
-6.26e-10
-1.69e-09
1.75e-09
1.99e-09
-2.62e-09
1.22e-09
-1.49e-09
1.57e-09
-1.83e-09
-1.31e-09
-1.08e-09
-1.33e-09
-4.58e-10
-1.85e-09
-6.1e-10
1.09e-09
-1.47e-09
1.4e-09
3.02e-10
2.13e-09
6.58e-11
-2.43e-09
-2.31e-09
-1.38e-09
-2.12e-10
-1.93e-09
-8.71e-11
-1.78e-10
-3.69e-10
-1.17e-09
1.07e-09
2.48e-09
-2.89e-10
-1.46e-09
6.36e-11
1.39e-09
1.86e-09
-1.96e-09
-1.91e-09
-2.03e-09
-2.17e-09
-7.93e-10
6.2e-10
2.95e-10
)
;

boundaryField
{
    front
    {
        type            empty;
        value           nonuniform List<scalar> 0();
    }
    back
    {
        type            empty;
        value           nonuniform List<scalar> 0();
    }
    bottom
    {
        type            calculated;
        value           nonuniform List<scalar> 
12
(
1.25e-09
2.37e-09
2.17e-09
2.2e-09
1.17e-09
2.88e-10
2.89e-10
1.93e-09
2.46e-09
2.06e-09
1.17e-09
1.24e-09
)
;
    }
    left
    {
        type            calculated;
        value           uniform 0;
    }
    top
    {
        type            calculated;
        value           nonuniform List<scalar> 8(-2.33e-09 -2.33e-09 -2.32e-09 -2.32e-09 -2.32e-09 -2.33e-09 -2.33e-09 -2.32e-09);
    }
    right
    {
        type            calculated;
        value           uniform 0;
    }
    inner_arc
    {
        type            calculated;
        value           uniform 0;
    }
}


// ************************************************************************* //
