/*--------------------------------*- C++ -*----------------------------------*\
  =========                 |
  \\      /  F ield         | OpenFOAM: The Open Source CFD Toolbox
   \\    /   O peration     | Website:  https://openfoam.org
    \\  /    A nd           | Version:  9
     \\/     M anipulation  |
\*---------------------------------------------------------------------------*/
FoamFile
{
    format      ascii;
    class       volScalarField;
    location    "0.76";
    object      p;
}
// * * * * * * * * * * * * * * * * * * * * * * * * * * * * * * * * * * * * * //

dimensions      [0 2 -2 0 0 0 0];

internalField   nonuniform List<scalar> 
578
(
-2.06572e-12
-4.25496e-12
-1.71994e-12
-1.0321e-12
-3.72906e-12
1.09339e-12
2.69529e-12
-3.03377e-12
-3.01716e-12
-5.98506e-12
1.17699e-13
-3.10066e-12
-1.1805e-12
-3.64322e-12
2.44709e-12
-9.55336e-13
-2.40231e-12
-2.19224e-12
-2.47765e-12
-2.28804e-12
-1.01105e-12
-7.87828e-13
-1.76577e-13
-2.28967e-13
-2.6436e-13
-2.22411e-12
-1.35537e-12
-1.57891e-12
-3.31226e-12
-8.25968e-13
-1.41515e-12
1.36029e-12
-1.82917e-12
-8.81981e-13
2.18078e-12
-1.93575e-12
-3.29132e-12
-2.85869e-12
-7.46164e-13
-4.21503e-12
-3.48735e-12
-2.74113e-12
-3.27513e-12
2.56089e-12
-1.60758e-12
3.38687e-12
2.46605e-12
-3.19974e-12
-8.11133e-13
-1.41996e-12
2.21716e-12
-1.18368e-12
2.24663e-12
-9.31459e-13
-1.23758e-12
-2.34489e-12
-2.16506e-13
-3.82779e-13
-1.59082e-12
-2.5316e-12
-2.31594e-12
-2.98744e-12
-2.88062e-12
-3.9971e-12
-1.2561e-12
2.30386e-12
-1.37793e-12
5.21889e-13
1.39897e-13
-2.19148e-12
-7.67754e-13
1.25214e-12
-1.24384e-12
-2.6005e-12
4.65099e-14
-4.24013e-12
-3.62281e-12
-3.12282e-12
-1.23093e-12
1.40212e-12
1.66352e-12
-3.34746e-12
2.8998e-12
2.70524e-12
2.21162e-14
1.95928e-12
2.74535e-12
-1.90101e-12
-2.5402e-12
1.77108e-12
-1.34274e-12
7.7519e-13
2.16808e-12
-1.12086e-12
3.89849e-13
1.36539e-12
-1.24862e-12
-1.23866e-12
-5.70739e-12
2.48307e-12
2.1808e-12
-2.44328e-12
-1.34774e-12
1.02815e-12
-1.29505e-12
-3.61242e-12
1.77361e-13
-4.256e-12
2.324e-12
-3.88534e-12
-1.81216e-12
-2.30671e-12
-2.48872e-12
8.82807e-13
1.07525e-12
-1.30885e-12
-1.07001e-12
-2.48443e-12
1.71459e-12
-1.26934e-12
-1.95393e-12
4.07507e-12
-2.76289e-12
-1.05407e-12
2.01074e-12
1.17784e-12
1.20541e-12
-8.85605e-13
2.08889e-12
3.19726e-13
2.15556e-12
1.04953e-12
-1.1126e-12
-2.09283e-12
1.9286e-12
1.78911e-12
-3.62945e-12
-1.30277e-12
2.76165e-13
2.16863e-12
2.37521e-12
6.71603e-13
2.10132e-12
-1.86597e-12
-2.41565e-12
1.87651e-13
8.08205e-13
-1.49438e-12
-2.7542e-12
-2.27563e-14
-3.27077e-12
4.94252e-13
-3.97422e-12
-1.90743e-12
2.45335e-12
-1.42319e-12
-2.75008e-12
-1.08338e-12
2.38221e-12
-3.33787e-12
-3.46273e-12
-3.42191e-12
2.50063e-12
-3.20399e-12
-2.36417e-12
7.00801e-13
-1.95254e-12
2.48077e-12
-1.00114e-12
-1.24939e-12
-3.01051e-12
-3.71442e-12
1.85065e-12
1.61187e-12
2.42971e-12
-1.28099e-12
-1.22567e-12
-2.36983e-12
-3.2358e-12
-3.0881e-12
2.69104e-12
-3.47803e-12
1.55973e-12
-1.22258e-12
1.86028e-12
-1.43775e-12
-9.9551e-13
2.79723e-12
2.37156e-12
-3.9923e-12
-3.43221e-12
-3.37653e-12
1.53827e-13
2.4079e-12
-4.81039e-12
-1.20867e-12
-8.75895e-13
-1.56487e-12
2.2504e-12
-3.40768e-12
-1.05214e-12
-1.18358e-12
4.3075e-12
-1.29738e-12
-1.2505e-12
-3.43235e-12
2.14567e-12
-7.39719e-13
-3.36533e-12
-2.87363e-13
4.32594e-13
2.17234e-12
1.84485e-12
-1.18892e-12
1.9031e-12
-1.09195e-12
2.36017e-12
-3.41342e-12
2.39598e-12
1.00494e-12
-3.35795e-12
2.43127e-12
-1.39308e-12
-3.47627e-12
2.65365e-12
1.16053e-12
-1.17473e-12
-9.53072e-13
-1.51128e-12
-3.35902e-12
-5.39841e-12
4.04525e-12
1.80922e-12
-1.1989e-12
1.15762e-12
-2.82146e-12
-3.52179e-12
2.50979e-12
-1.14903e-12
-5.21126e-13
2.62019e-12
-3.69761e-12
-1.23932e-12
2.65965e-12
-1.54954e-12
-2.46661e-12
2.21199e-12
-5.42173e-12
1.49957e-12
-1.13363e-12
-1.20213e-12
1.57214e-12
1.71728e-12
3.32339e-13
1.40038e-12
-7.41478e-13
-2.86499e-12
2.15153e-12
-3.04329e-12
3.49258e-12
-1.14032e-12
2.67349e-12
-8.71666e-13
-8.21139e-13
-3.50241e-12
-1.68894e-12
8.00195e-13
-5.77971e-13
-4.62836e-12
9.63071e-13
-9.79953e-13
9.1327e-13
4.1674e-13
-1.18671e-12
-1.15837e-12
-1.12566e-12
-1.28412e-12
4.97694e-13
2.40058e-12
-1.00413e-12
-3.57997e-12
-1.20348e-12
-1.17548e-12
-1.1693e-12
-1.10803e-12
2.10078e-12
-1.42128e-12
1.2307e-12
-6.80824e-13
-8.31403e-13
3.81131e-13
1.48053e-12
-1.31736e-12
2.11609e-12
-8.98944e-13
-8.43194e-13
-3.53085e-12
-3.47538e-13
-1.32922e-12
-9.12604e-13
-1.08628e-12
-4.13969e-13
-1.16645e-12
-1.61516e-12
-8.48156e-13
-1.08459e-12
-2.21536e-14
-2.70482e-12
-1.03044e-12
-1.08848e-12
-9.18806e-13
-1.27743e-12
-1.06847e-12
-4.69967e-13
-8.97485e-13
-1.16481e-12
1.36142e-12
-3.79705e-13
-8.26532e-13
-9.06825e-13
1.42875e-12
-1.17197e-12
-1.1916e-12
-5.23081e-13
-1.25024e-12
-1.26918e-12
2.127e-12
2.42912e-12
-3.35113e-12
-1.2909e-12
-1.28437e-12
1.74464e-12
-1.16709e-12
-1.24794e-12
1.73676e-12
-7.26658e-13
-1.12589e-12
-1.22865e-12
-2.05036e-12
-1.31509e-12
-1.16891e-12
-1.16921e-12
-1.27056e-12
-2.4013e-12
-9.08578e-13
1.58594e-12
4.74492e-13
1.99698e-12
-2.4977e-12
2.28276e-12
-2.82526e-12
-3.17834e-12
2.40316e-12
-1.9419e-12
-4.08031e-12
3.08277e-12
-6.74247e-13
2.8594e-12
-4.36499e-12
2.98796e-12
-1.04219e-12
-1.98669e-12
-7.69432e-13
-1.94798e-12
-1.03739e-12
-8.00161e-13
-1.25063e-12
1.26114e-12
-1.14434e-12
-9.29849e-13
-2.94452e-12
-3.13016e-12
3.33294e-13
5.39366e-13
3.63086e-13
2.83263e-12
-1.33861e-12
2.25757e-12
-2.9261e-12
-1.4395e-12
-1.26888e-12
-3.04747e-12
2.4433e-12
-4.29608e-13
-6.80153e-13
-1.00701e-12
-8.07925e-13
2.89426e-12
2.62422e-12
-2.27268e-12
-1.20763e-12
-3.48671e-13
-2.72186e-13
-7.99622e-13
-9.85516e-13
-5.85564e-13
1.52211e-12
-1.57709e-12
-4.5348e-13
-2.24668e-13
-7.00378e-13
8.57666e-13
-8.28323e-13
-2.63983e-12
-1.30505e-12
-1.26452e-12
7.35391e-13
-1.57147e-12
-7.59104e-14
7.29528e-13
-1.10626e-12
-3.09826e-12
-2.23409e-12
1.32433e-12
-1.67293e-12
1.08921e-13
-2.7147e-12
1.93585e-12
-3.44017e-12
-1.39606e-12
2.21618e-12
3.13461e-13
-2.90547e-12
2.63932e-12
1.74691e-12
-1.30055e-12
-1.93535e-12
-2.78026e-12
-2.43338e-12
-1.19981e-12
1.22123e-12
-4.99981e-13
-1.74358e-13
-1.20225e-12
1.54467e-12
-1.7198e-12
-3.00202e-12
-2.38655e-12
-1.63366e-12
-1.60073e-12
-2.13343e-12
-1.08564e-12
-1.05796e-12
-1.35488e-12
1.67208e-12
-1.54194e-12
-1.41816e-12
1.36586e-12
1.36928e-12
-1.33246e-12
2.27486e-12
-1.34064e-12
1.63782e-12
-1.15972e-12
2.20925e-12
-1.17777e-12
-4.17281e-12
-1.07551e-13
-4.55445e-13
-2.61255e-12
2.99685e-12
1.65316e-12
-2.4363e-12
-1.71742e-12
-1.56023e-12
-2.69665e-12
1.58325e-12
-3.84564e-12
-1.8913e-12
-1.63497e-12
-1.54694e-12
-1.62371e-12
1.13183e-12
-1.41896e-12
-1.67186e-12
-2.85548e-12
-1.89582e-12
-2.66886e-12
-1.77212e-12
-2.43517e-12
-4.96865e-13
-9.32743e-14
-1.49241e-12
-1.48422e-12
-1.40334e-12
-1.50715e-12
-1.94103e-12
-1.39079e-12
-1.34752e-12
1.88639e-12
-1.10222e-12
1.18005e-12
-1.02619e-12
-1.10186e-12
-1.31811e-12
1.8057e-12
-1.23962e-12
2.0711e-12
-1.37717e-12
-1.11677e-12
-3.41475e-12
-1.38912e-12
-1.67528e-12
-1.09774e-12
-2.29672e-12
-1.38188e-12
2.00854e-12
-1.01678e-12
1.41739e-12
-1.35005e-12
-1.36757e-12
1.84939e-12
-1.06602e-12
3.30261e-12
2.2569e-12
-1.32112e-12
-3.07105e-12
-4.05809e-12
7.01569e-13
-1.13236e-12
-1.85835e-13
3.22801e-13
-1.73874e-12
-2.30709e-12
-2.55011e-12
-1.13471e-12
-1.61696e-12
-9.99149e-13
-3.20958e-12
-3.29697e-12
-3.32494e-12
-3.0571e-12
-1.57553e-12
-1.37807e-12
1.37089e-12
1.32621e-12
5.00742e-13
1.90926e-12
1.25099e-12
-1.42003e-12
-1.07437e-12
1.23344e-12
-2.10866e-12
-2.23737e-12
1.75852e-12
-7.90224e-13
-1.59035e-14
-2.35752e-12
-2.02728e-12
-2.02908e-12
5.89792e-13
2.43095e-12
-1.99032e-12
1.9519e-12
7.10408e-13
-1.94537e-12
-3.39599e-12
-1.431e-12
-1.14971e-12
-1.38803e-12
-1.35279e-12
2.14937e-12
-2.68266e-12
-1.38895e-12
-1.10249e-12
4.95187e-13
-1.16417e-12
-2.42764e-12
-1.35611e-12
-1.13757e-12
2.13188e-12
-2.38909e-12
7.8052e-13
-3.20905e-12
-1.66065e-12
-4.18036e-14
6.75405e-13
3.02413e-13
)
;

boundaryField
{
    front
    {
        type            empty;
    }
    back
    {
        type            empty;
    }
    bottom
    {
        type            uniformFixedValue;
        uniformValue    
        {
            type            scale;
            scale           
            {
                type            squarePulse;
                start           0.3;
                duration        0.3;
            }
            xScale          
            {
                type            constant;
                value           1;
            }
            value           
            {
                type            constant;
                value           15.1;
            }
        }
        value           uniform 0;
    }
    left
    {
        type            zeroGradient;
    }
    top
    {
        type            zeroGradient;
    }
    right
    {
        type            zeroGradient;
    }
    inner_arc
    {
        type            zeroGradient;
    }
}


// ************************************************************************* //
