/*--------------------------------*- C++ -*----------------------------------*\
  =========                 |
  \\      /  F ield         | OpenFOAM: The Open Source CFD Toolbox
   \\    /   O peration     | Website:  https://openfoam.org
    \\  /    A nd           | Version:  9
     \\/     M anipulation  |
\*---------------------------------------------------------------------------*/
FoamFile
{
    format      ascii;
    class       volVectorField;
    location    "0.37";
    object      U;
}
// * * * * * * * * * * * * * * * * * * * * * * * * * * * * * * * * * * * * * //

dimensions      [0 1 -1 0 0 0 0];

internalField   nonuniform List<vector> 
464
(
(0.00367563 -0.940247 -1.60968e-17)
(0.00162463 -0.657971 0)
(0.0153793 -0.698769 0)
(-0.00264445 -0.716177 -3.53717e-16)
(-0.00702004 -0.537598 0)
(0.0773349 -0.755235 8.05856e-17)
(0.00107857 -0.970311 2.7063e-16)
(-0.0110597 -0.718667 0)
(-0.00260794 -1.00374 -9.12102e-20)
(-0.00337955 -0.982729 2.56083e-16)
(0.00591101 -0.840824 1.74421e-17)
(0.00482781 -0.644061 -1.05924e-17)
(-0.000400215 -0.99862 5.13356e-16)
(-0.00802674 -0.525777 0)
(0.00424468 -0.613491 2.32714e-16)
(0.00276445 -0.505012 -3.93256e-16)
(0.00248223 -0.623025 0)
(0.00571047 -0.518757 1.46589e-16)
(-0.0289067 -0.475583 3.17666e-16)
(0.0215396 -0.863602 -2.79945e-16)
(0.0252973 -0.83748 4.53343e-16)
(0.0428181 -0.831858 -7.76942e-17)
(0.0371347 -0.843124 3.83847e-17)
(0.0174509 -0.726385 0)
(0.00352491 -0.708715 3.17572e-16)
(0.0288775 -0.740251 -1.64866e-16)
(-0.005422 -0.532483 -1.83201e-16)
(-0.0621334 -0.804521 2.91259e-16)
(0.00965475 -0.647594 0)
(0.0521292 -0.811265 0)
(0.0465837 -0.79722 -1.97593e-17)
(0.0109709 -0.863399 -2.29098e-18)
(0.00103409 -0.807806 4.09007e-17)
(0.00408352 -0.803867 2.94723e-16)
(0.0117106 -0.86705 -2.89724e-16)
(0.000411741 -0.554512 -4.29195e-16)
(0.0163596 -0.672055 3.46694e-16)
(-0.0493213 -0.66131 4.36785e-17)
(-0.0578444 -0.759026 -2.52752e-18)
(0.00152643 -0.52769 0)
(0.021135 -0.869377 -4.52652e-16)
(0.0251468 -0.827951 0)
(0.0317839 -0.855209 1.1107e-16)
(0.00858867 -0.519029 -3.84805e-16)
(0.00172809 -0.640316 3.50864e-16)
(0.00597424 -0.606863 2.40812e-17)
(-0.0350117 -0.831616 -2.8318e-16)
(-0.0288457 -0.704906 1.9281e-19)
(-0.0217798 -0.342628 0)
(-0.0656931 -0.776357 -3.55624e-17)
(0.0110636 -0.833245 3.28346e-16)
(-0.0479904 -0.743069 1.85667e-17)
(0.00691301 -0.565713 2.54813e-16)
(-0.0138357 -0.875719 2.68806e-16)
(-0.0216045 -0.870323 8.86156e-18)
(-0.0469451 -0.800922 -2.96812e-16)
(-0.0424969 -0.818571 0)
(-0.00940496 -0.909365 0)
(-0.013152 -0.88345 2.85044e-16)
(0.0079427 -0.636269 0)
(-0.0417796 -0.577717 -3.94792e-16)
(-0.00483437 -0.828247 -5.85248e-16)
(-0.00546171 -0.931325 -5.43177e-16)
(-0.0080407 -0.899003 2.78288e-16)
(-0.00296988 -0.957966 5.87338e-20)
(-0.0103083 -0.868196 2.84092e-16)
(-0.00928135 -0.842786 2.8519e-16)
(-0.0323621 -0.517514 3.97616e-16)
(0.00379884 -0.787522 -1.44629e-16)
(-0.0207186 -0.846263 -2.8504e-16)
(-0.0122935 -0.845031 -2.84168e-16)
(-0.00305084 -0.885558 2.94599e-16)
(0.0044752 -0.644196 0)
(-0.0376386 -0.791754 -3.1433e-16)
(-0.00411255 -0.686829 3.48179e-16)
(-0.056661 -0.809166 -2.95798e-16)
(-0.00999766 -0.886573 2.85244e-16)
(0.00306388 -0.966473 -2.59003e-16)
(-0.00710693 -0.911555 2.74432e-16)
(0.0102037 -0.53646 1.86849e-16)
(-0.00975615 -0.647585 0)
(0.0802245 -0.789502 -8.15259e-17)
(0.00177362 -0.312483 5.73235e-16)
(0.0477916 -0.63466 -3.93063e-16)
(-0.000670348 -0.568884 0)
(-0.00823966 -0.91725 -9.99799e-20)
(-0.00465059 -0.887156 2.87714e-16)
(0.0751534 -0.767621 0)
(-0.0129806 -0.742036 0)
(-0.0054869 -0.836683 2.85949e-16)
(-0.00347526 -0.670355 -3.53466e-16)
(-0.00689159 -0.812537 0)
(-0.00792192 -0.888844 -2.8902e-16)
(-0.00579491 -0.602222 -3.29413e-16)
(-0.00738101 -0.840473 2.86089e-16)
(-0.00726783 -0.924405 2.70468e-16)
(-0.0105168 -0.899929 -2.74625e-16)
(0.0453657 -0.736381 7.61725e-17)
(-0.0012011 -0.323846 5.53107e-16)
(-0.00140422 -0.999178 -2.55339e-16)
(0.00235951 -0.740334 0)
(-0.0298957 -0.780326 -1.90525e-17)
(0.0107191 -0.754951 0)
(0.00804216 -0.860292 2.27433e-18)
(0.0111154 -0.800591 0)
(-0.000383995 -0.168012 4.8031e-16)
(0.0240509 -0.446243 0)
(-0.00879897 -0.888066 -2.80944e-16)
(-0.00175652 -0.571373 3.53614e-16)
(-0.0252006 -0.861387 0)
(-0.00656888 -0.839417 0)
(-0.0367577 -0.831981 2.90455e-16)
(-0.00825157 -0.84205 0)
(-0.00266432 -0.579178 -3.50187e-16)
(-0.0215318 -0.76092 -9.91716e-18)
(0.00231294 -0.7677 5.06507e-18)
(-0.000992763 -0.317337 -5.62315e-16)
(0.0439818 -0.555068 -4.41957e-16)
(-0.000497488 -0.172769 -4.83924e-16)
(0.0587852 -0.749997 1.89281e-17)
(-0.0301104 -0.840578 -2.66026e-16)
(-1.13207e-05 -0.99462 -8.16987e-18)
(-0.00405125 -0.959318 -2.61122e-16)
(0.00232496 -0.938961 -2.7034e-16)
(-0.0113195 -0.884806 0)
(-0.00635125 -0.889918 -2.85856e-16)
(-0.00325986 -0.980702 2.6605e-16)
(-0.00476227 -0.694771 0)
(0.0123892 -0.858817 0)
(-0.00053073 -0.168738 -4.85824e-16)
(0.0273442 -0.382722 3.70852e-16)
(0.00808363 -0.181938 -4.76975e-16)
(-0.028388 -0.390869 3.61228e-16)
(0.0089959 -0.783124 0)
(0.0366629 -0.701933 0)
(-0.000551993 -0.171404 4.84176e-16)
(0.0227128 -0.317038 8.18604e-16)
(-0.0482513 -0.772034 3.05261e-16)
(-0.00352452 -0.982881 -2.59244e-16)
(0.00834492 -0.222743 -4.59566e-16)
(0.0165863 -0.449759 0)
(-0.00706495 -0.889202 0)
(-0.00953591 -0.723189 -1.2343e-19)
(-0.0138716 -0.77023 -3.20346e-16)
(0.0289197 -0.486707 -4.55132e-16)
(-0.00288235 -0.583406 3.50943e-16)
(0.00133843 -0.794578 0)
(0.0682551 -0.803314 0)
(-0.0122422 -0.888599 -1.51935e-20)
(0.00857574 -0.384015 1.03745e-15)
(0.00831895 -0.809491 -9.54488e-18)
(0.0255651 -0.79349 -2.94295e-16)
(0.00290679 -0.959152 2.97496e-16)
(-0.00588458 -0.838311 2.86384e-16)
(-0.000845506 -0.320936 5.45934e-19)
(0.0165003 -0.415651 5.23102e-16)
(0.0129878 -0.549769 0)
(0.00141107 -0.821399 0)
(-0.000642191 -0.995558 2.622e-16)
(-0.0029874 -0.676149 -3.56114e-16)
(-0.000771189 -0.986321 0)
(0.00699695 -0.83414 3.17104e-16)
(-0.00303162 -0.587382 -6.96509e-16)
(0.00238051 -0.203056 -1.70414e-19)
(0.00179156 -0.377649 -5.24975e-16)
(0.0125464 -0.268658 0)
(0.000663155 -0.980453 2.62236e-16)
(0.0139252 -0.641731 -3.57917e-16)
(0.0054398 -0.57716 -3.32716e-16)
(-0.000586524 -0.177402 -9.61446e-16)
(-0.00122229 -0.331551 -1.74176e-19)
(-0.00445549 -0.831769 2.9024e-16)
(-0.000991468 -0.326592 -1.65625e-19)
(0.0373242 -0.78211 7.95134e-17)
(-0.000860683 -0.329126 1.71932e-19)
(-0.00365299 -0.595768 3.46759e-16)
(0.000833011 -0.844115 -3.04819e-16)
(0.00580523 -0.856037 1.17399e-18)
(0.00326463 -0.934132 2.75639e-16)
(0.00451685 -0.59623 -4.1099e-17)
(0.0192178 -0.865169 -2.77994e-16)
(-0.00458451 -0.606242 -3.43211e-16)
(-0.00102791 -0.17824 0)
(-0.00357871 -0.335524 6.00208e-16)
(0.00453107 -0.30926 9.12864e-18)
(0.003438 -0.322359 1.74491e-17)
(-0.00131253 -0.341255 0)
(-0.000629706 -0.183218 4.76756e-16)
(-0.000318095 -0.176143 9.62307e-16)
(-0.00122962 -0.334642 -1.07561e-18)
(-0.0231473 -0.764777 3.13699e-19)
(-0.00135002 -0.337875 -5.49149e-16)
(-0.00783373 -0.238566 8.78052e-16)
(-0.0221018 -0.683393 3.2699e-16)
(-0.0144754 -0.846493 -2.78384e-19)
(-0.011499 -0.732655 3.25668e-19)
(0.0168015 -0.745015 3.26052e-16)
(-0.0249386 -0.843748 -2.76087e-19)
(0.00238463 -0.16989 4.96344e-16)
(-0.0178777 -0.753408 -3.25306e-16)
(-0.0161817 -0.667283 0)
(-0.0096176 -0.641185 0)
(-0.00693089 -0.387985 0)
(-0.0141644 -0.742255 -3.22451e-19)
(-0.000662842 -0.181067 0)
(-0.0106112 -0.406424 -8.04319e-18)
(-0.00316434 -0.209942 0)
(-0.00220048 -0.202152 4.63268e-16)
(-0.00337602 -0.365225 -5.30421e-16)
(-0.000642169 -0.174738 -4.82197e-16)
(0.00874443 -0.257185 -4.30134e-16)
(-0.000682245 -0.184788 0)
(-0.0166836 -0.293431 -4.09341e-16)
(-0.00310747 -0.19432 4.78391e-16)
(0.00237357 -0.212244 0)
(-0.000594158 -0.17933 4.79247e-16)
(0.00657929 -0.170257 -4.98813e-16)
(-0.0049714 -0.221104 -4.51142e-16)
(0.00443374 -0.178092 -2.1656e-19)
(-0.00168981 -0.196728 4.6722e-16)
(0.00032952 -0.191145 -4.70292e-16)
(-0.00468009 -0.374944 -5.2384e-16)
(-0.0122919 -0.653261 3.3015e-16)
(-0.00930223 -0.884935 -5.54524e-16)
(0.000474478 -0.86491 -2.99532e-16)
(0.00505972 -0.875209 2.81405e-16)
(0.000239665 -0.88333 0)
(0.0130351 -0.906178 -1.31878e-16)
(0.00473851 -0.891726 8.79714e-18)
(0.000719094 -0.898715 2.89448e-16)
(0.00435905 -0.906127 -2.77815e-16)
(0.0102978 -0.895758 3.4153e-17)
(0.00720718 -0.912626 0)
(-0.00637281 -0.922016 2.67409e-16)
(0.0104233 -0.83713 -3.24956e-16)
(0.000451489 -0.913159 0)
(0.00961357 -0.903916 1.1743e-19)
(0.00882989 -0.920475 1.21749e-19)
(0.00285515 -0.918141 -2.74369e-16)
(0.0138818 -0.840141 -2.84054e-16)
(-0.000328147 -0.924219 2.76635e-16)
(0.00714856 -0.926758 2.66307e-16)
(0.0099378 -0.900636 -2.8474e-16)
(0.00353466 -0.928266 0)
(0.000731621 -0.935484 0)
(0.00405709 -0.78319 7.53793e-20)
(0.0031374 -0.938716 8.43322e-18)
(0.01323 -0.638104 0)
(0.00948685 -0.906712 0)
(0.0119656 -0.353825 0)
(0.00893638 -0.92952 2.58691e-16)
(0.00935255 -0.829878 6.01851e-16)
(-0.00490004 -0.947316 2.69613e-16)
(-0.00578266 -0.890099 -2.86031e-16)
(0.000517698 -0.945203 0)
(0.00207117 -0.947275 0)
(-0.0129676 -0.825235 0)
(0.0137117 -0.193733 4.86781e-16)
(-0.000729806 -0.953714 2.80244e-16)
(0.00806204 -0.943266 0)
(0.00196882 -0.956075 -2.74893e-16)
(-0.00388539 -0.959486 -5.39089e-16)
(0.000252648 -0.961356 -2.76576e-16)
(0.00214981 -0.923047 2.61052e-16)
(0.00247791 -0.962657 2.75847e-16)
(0.000975313 -0.951175 -5.40856e-16)
(0.000115549 -0.968823 5.36765e-19)
(-0.0394446 -0.777142 9.47135e-18)
(0.00431169 -0.771223 -1.89465e-16)
(0.00654109 -0.951285 -2.54382e-16)
(0.028047 -0.69213 2.89161e-16)
(0.00222684 -0.970699 0)
(-0.000297005 -0.981948 -2.59643e-16)
(0.00236382 -0.831485 -1.49158e-16)
(0.0016333 -0.965399 8.45589e-18)
(0.000595344 -0.975858 0)
(0.00181834 -0.975512 0)
(-0.00771691 -0.630515 3.35873e-16)
(-0.00138774 -0.191835 0)
(-0.00379265 -0.683051 -1.0621e-19)
(-0.00334148 -0.970077 -2.0859e-18)
(-0.0218644 -0.790332 2.0334e-19)
(-0.0027417 -0.357142 0)
(-0.0376809 -0.71959 3.16305e-16)
(0.00545247 -0.836161 -1.89082e-16)
(-0.004426 -0.952689 2.6126e-16)
(-0.00224393 -0.349602 5.4599e-16)
(-0.00412068 -0.957617 0)
(-0.038697 -0.807755 0)
(-0.00361832 -0.973745 -2.65656e-16)
(-0.00452243 -0.955161 -1.03758e-18)
(-0.00339525 -0.977145 2.07343e-18)
(-0.0201574 -0.817182 2.9856e-16)
(-0.0160494 -0.859669 -5.71764e-16)
(-0.00653252 -0.930984 -2.75703e-16)
(-0.00628848 -0.619528 -6.83762e-16)
(-0.0015789 -0.344446 0)
(-0.00539257 -0.698934 1.12043e-19)
(-0.0061329 -0.703844 3.43502e-16)
(-0.00493703 -0.888587 -2.88162e-16)
(0.0031336 -0.925519 3.01521e-16)
(0.00032663 -0.9853 2.44326e-16)
(0.00867586 -0.838567 -5.79271e-16)
(-0.00192217 -0.500285 3.92029e-16)
(0.0146726 -0.661576 -1.82745e-16)
(-0.0062515 -0.936028 2.74705e-16)
(-0.00525844 -0.940931 5.39606e-16)
(0.010633 -0.54973 -1.8215e-16)
(-0.00231966 -0.575509 7.05539e-16)
(-0.00323556 -0.591351 3.46772e-16)
(-0.017995 -0.876268 2.85155e-16)
(-0.0139546 -0.799168 2.06541e-19)
(-0.00486605 -0.939642 0)
(0.000526806 -0.989609 -4.02511e-18)
(-0.00509321 -0.945201 5.37934e-16)
(-0.00435067 -0.949568 0)
(-0.00103501 -0.187129 -4.7511e-16)
(-0.00478215 -0.833088 0)
(-0.0158688 -0.71142 0)
(0.00274436 -0.961928 -2.73298e-16)
(0.0524157 -0.814027 -2.38551e-16)
(-0.00681682 -0.708941 1.33309e-18)
(-0.00342131 -0.679298 -3.51738e-16)
(-0.00415179 -0.600873 -3.44412e-16)
(-0.00112401 -0.990776 -5.3289e-16)
(-0.015851 -0.432919 2.66745e-19)
(-0.0228668 -0.468121 4.56254e-16)
(0.00300925 -0.93352 2.82893e-16)
(-0.0472558 -0.798561 0)
(-0.00520386 -0.889059 2.88893e-16)
(0.0250164 -0.854456 1.51815e-16)
(-0.00181997 -0.995162 2.57992e-16)
(0.00216669 -0.700627 1.46966e-16)
(-0.00405579 -0.953188 -5.38834e-16)
(-0.0170839 -0.846877 2.77964e-19)
(-0.0118889 -0.848373 2.89828e-16)
(0.0457636 -0.828454 2.35578e-16)
(-0.00168628 -0.700466 2.92319e-16)
(-0.00437454 -0.690538 -1.05734e-19)
(0.0267099 -0.820016 -3.11775e-16)
(-0.00576157 -0.701089 -1.48556e-16)
(-0.0032045 -0.890318 0)
(-0.005542 -0.889668 4.47057e-18)
(-0.0051373 -0.834784 -2.87396e-16)
(-0.00331134 -0.964891 -2.6863e-16)
(-0.0369851 -0.743091 -1.63193e-16)
(-0.0110082 -0.262747 -8.49144e-16)
(-0.0106333 -0.843736 -2.84983e-16)
(-0.000336069 -0.702498 -3.11789e-16)
(-0.0152655 -0.880473 0)
(-0.0182957 -0.840322 9.10684e-18)
(-0.00721054 -0.704775 1.45036e-16)
(-0.00514428 -0.612152 0)
(-0.00785087 -0.714741 3.39927e-16)
(-0.0303595 -0.850047 2.82358e-16)
(-0.00445866 -0.273551 -6.31728e-16)
(0.0245639 -0.73109 0)
(0.00111037 -0.141285 5.02723e-16)
(-0.00339518 -0.459187 1.76868e-16)
(-0.00179017 -0.822551 0)
(0.0208751 -0.703641 1.76969e-16)
(-0.0040031 -1.00123 -2.52755e-16)
(0.0902365 -0.773113 -8.24363e-17)
(-0.00331653 -0.548667 0)
(-0.00278244 -0.776191 9.2212e-18)
(-0.0535555 -0.710513 -3.6176e-16)
(-0.0198154 -0.733034 0)
(0.0168211 -0.806855 0)
(-0.00144868 -0.274887 0)
(0.0592486 -0.793227 -1.56213e-16)
(-0.017803 -0.702279 0)
(0.00744843 -0.297297 8.5956e-16)
(0.000316931 -0.800023 4.92826e-20)
(0.00348291 -0.638648 0)
(-0.00489964 -0.281884 -1.74264e-19)
(0.00829333 -0.727923 0)
(0.000304848 -0.798052 2.94951e-16)
(0.0281035 -0.748268 -4.70093e-16)
(0.00283017 -0.306252 1.11486e-15)
(0.0464006 -0.768425 -8.98849e-17)
(0.0096572 -0.277331 0)
(0.00592924 -0.66637 3.41286e-16)
(0.00489212 -0.66573 0)
(0.00422363 -0.931667 1.37315e-16)
(0.00472967 -0.922681 -4.38762e-20)
(0.00794654 -0.927375 0)
(0.00788568 -0.923638 1.37334e-16)
(0.0442423 -0.745626 1.63693e-16)
(0.000634108 -0.328251 0)
(-0.000565055 -0.30015 0)
(0.00939961 -0.80269 1.52529e-16)
(0.0141559 -0.797228 0)
(-0.0125759 -0.308996 -2.85436e-16)
(0.0156602 -0.292217 -9.99441e-16)
(0.0162038 -0.89204 1.35044e-16)
(0.0240775 -0.855303 2.81978e-16)
(0.0187774 -0.871691 0)
(0.0305109 -0.812061 6.54105e-16)
(0.0205893 -0.720363 0)
(0.00853546 -0.790657 2.97873e-16)
(-0.00381264 -0.895331 0)
(0.00462287 -0.70107 0)
(-0.00220231 -0.801255 0)
(-0.0171809 -0.701724 1.45866e-16)
(-0.00352025 -1.00941 -1.29128e-16)
(0.00179226 -0.961703 0)
(0.00121266 -0.147369 0)
(0.000683028 -0.440416 -3.75293e-16)
(-0.00404462 -0.281535 0)
(-0.0217677 -0.73078 3.64334e-16)
(-0.001208 -0.954102 -6.53532e-17)
(-0.0438313 -0.738096 -1.68599e-16)
(0.0183254 -0.710183 0)
(0.0234625 -0.761557 -1.90534e-16)
(0.0166826 -0.715477 0)
(-0.00554852 -0.860199 0)
(-0.00414229 -0.122276 0)
(-0.0710576 -0.788576 -9.54887e-18)
(0.0262398 -0.709304 -1.5784e-16)
(-0.0018384 -0.967236 6.52192e-17)
(-0.0253056 -0.709271 -1.9137e-16)
(0.00700592 -0.704034 -1.86505e-16)
(-0.001355 -0.86299 1.78387e-16)
(-0.00511468 -0.129937 -5.47168e-16)
(-0.00333578 -0.653868 -1.90564e-16)
(9.32226e-05 -0.862228 1.83031e-16)
(-0.00599067 -0.145371 -5.29316e-16)
(-0.00927429 -0.26919 3.29275e-16)
(0.00167629 -0.131942 -2.71807e-16)
(0.00627026 -0.290489 -6.12762e-16)
(0.0441015 -0.702686 -2.0531e-16)
(0.00165053 -0.957169 -1.67867e-16)
(0.00211773 -0.551243 -1.35718e-17)
(0.0567475 -0.777128 -3.68793e-16)
(0.00228249 -0.945092 -5.08833e-16)
(-0.00168558 -0.151452 0)
(0.00531986 -0.281711 -1.70164e-16)
(0.0324551 -0.785081 1.51816e-16)
(-0.000313586 -0.13704 0)
(0.0462759 -0.707365 1.97883e-16)
(0.00841904 -0.856685 0)
(-0.00195106 -0.128025 2.77297e-16)
(0.00948516 -0.894513 -1.16764e-17)
(0.0134807 -0.884231 1.678e-16)
(0.02291 -0.81942 -4.78728e-16)
(0.0140847 -0.8807 9.82625e-18)
(0.0239972 -0.834417 1.73486e-16)
(0.0182728 -0.635234 2.08968e-16)
(0.0169981 -0.84056 -2.12668e-16)
(0.00892268 -0.714518 -1.61723e-16)
(0.000985635 -0.661063 0)
(-0.000210892 -0.995358 -1.37636e-16)
(0.00339421 -0.775017 2.61094e-16)
(0.0320274 -0.75746 0)
(0.00932981 -0.797602 3.2271e-16)
(0.0115468 -0.680154 0)
(0.00104855 -0.797914 -3.27549e-16)
(-0.092837 -0.790394 1.7723e-16)
(-0.0305251 -0.712871 -8.4107e-20)
(-0.076873 -0.770109 -5.67533e-20)
(-0.0806637 -0.765065 -2.78069e-16)
(0.00109262 -0.271583 0)
(-0.00634255 -0.522729 1.13696e-16)
(0.0515024 -0.781323 3.62093e-16)
)
;

boundaryField
{
    back
    {
        type            empty;
    }
    front
    {
        type            empty;
    }
    left
    {
        type            noSlip;
    }
    top
    {
        type            uniformFixedValue;
        uniformValue    
        {
            type            scale;
            scale           
            {
                type            squarePulse;
                start           0.3;
                duration        0.3;
            }
            xScale          
            {
                type            constant;
                value           1;
            }
            value           
            {
                type            constant;
                value           (0 -0.7 0);
            }
        }
        value           uniform (0 -0.7 0);
    }
    right
    {
        type            noSlip;
    }
    bottom
    {
        type            zeroGradient;
    }
}


// ************************************************************************* //
