/*--------------------------------*- C++ -*----------------------------------*\
  =========                 |
  \\      /  F ield         | OpenFOAM: The Open Source CFD Toolbox
   \\    /   O peration     | Website:  https://openfoam.org
    \\  /    A nd           | Version:  9
     \\/     M anipulation  |
\*---------------------------------------------------------------------------*/
FoamFile
{
    format      ascii;
    class       volScalarField;
    location    "2.12";
    object      p;
}
// * * * * * * * * * * * * * * * * * * * * * * * * * * * * * * * * * * * * * //

dimensions      [0 2 -2 0 0 0 0];

internalField   nonuniform List<scalar> 
942
(
13.1106
13.1173
13.0514
13.126
13.0499
13.1451
13.1607
13.143
13.1672
13.1663
13.1035
13.1299
13.1336
13.0977
13.1276
13.1194
13.0507
13.1098
13.0459
13.1156
13.0546
13.1297
13.0878
13.0323
13.1043
13.0375
13.0673
13.0898
13.0308
13.0954
13.045
13.0669
13.0279
13.0699
13.0726
13.0862
13.1062
13.0897
13.1064
13.029
13.0769
13.1133
13.0227
13.1611
13.1589
13.0363
13.0531
13.0649
13.0747
13.0991
13.0516
13.086
13.0827
13.0376
13.1587
13.0894
13.1298
13.1548
13.1279
13.0809
13.0893
13.0703
13.0771
13.1039
13.0914
13.1217
13.0701
13.063
13.0831
13.159
13.1179
13.1665
13.1231
13.0986
13.0361
13.1137
13.1168
13.0725
13.047
13.1197
13.1523
13.0393
13.1077
13.1215
13.1238
13.0574
13.075
13.1311
13.0946
13.108
13.1106
13.0788
13.1524
13.0909
13.093
13.1108
13.1101
13.1311
13.1514
13.0892
13.1652
13.1499
13.0554
13.1589
13.0998
13.0876
13.0426
13.0327
13.0606
13.0564
13.0828
13.0785
13.0704
13.1664
13.1009
13.0786
13.0772
13.1241
13.0873
13.0945
13.0864
13.0844
13.0191
13.1213
13.1233
13.045
13.0846
13.0224
13.0241
13.0791
13.0397
13.0372
13.0437
13.0562
13.0514
13.031
13.0766
13.048
13.0717
13.0662
13.0607
13.0273
13.0713
13.0469
13.1436
13.0311
13.1612
13.1645
13.0952
13.0595
13.1413
13.0934
13.077
13.155
13.0748
13.1013
13.1258
13.1681
13.0817
13.1122
13.1255
13.0954
13.1205
13.1366
13.0885
13.0897
13.1629
13.1562
13.0382
13.0588
13.0671
13.0795
13.0857
13.0892
13.0545
13.1552
13.1113
13.156
13.0971
13.1529
13.1569
13.0312
13.1003
13.152
13.1046
13.0375
13.0765
13.0532
13.0586
13.1484
13.0655
13.1493
13.0952
13.048
13.053
13.1403
13.0553
13.0974
13.0731
13.0246
13.0873
13.1402
13.051
13.0426
13.0662
13.087
13.0914
13.055
13.0255
13.0315
13.0557
13.1464
13.1613
13.0679
13.0501
13.1338
13.0563
13.0762
13.0579
13.0574
13.1284
13.1266
13.1451
13.1406
13.1676
13.07
13.0679
13.1248
13.0864
13.0564
13.0404
13.058
13.0751
13.1658
13.1348
13.1529
13.075
13.1305
13.0529
13.0604
13.0602
13.1563
13.1344
13.1581
13.1567
13.0523
13.122
13.1406
13.1272
13.0539
13.0657
13.0886
13.0684
13.0512
13.1533
13.1465
13.1393
13.1463
13.0759
13.1594
13.1206
13.0799
13.0705
13.1506
13.1146
13.1634
13.1566
13.1438
13.0464
13.1247
13.1198
13.0595
13.0846
13.065
13.0577
13.0814
13.0191
13.1441
13.0633
13.0847
13.1539
13.0876
13.087
13.1433
13.0738
13.0872
13.1456
13.1416
13.1512
13.1479
13.0721
13.0881
13.0847
13.1131
13.1467
13.0599
13.0908
13.0914
13.0954
13.0884
13.0836
13.1465
13.1049
13.1084
13.0797
13.1365
13.1129
13.1338
13.1142
13.0805
13.1625
13.1092
13.1423
13.1213
13.1193
13.0933
13.1557
13.1283
13.1122
13.1379
13.1182
13.0861
13.1604
13.1246
13.0856
13.0855
13.1047
13.1195
13.1194
13.1495
13.0698
13.1187
13.1365
13.1058
13.14
13.0726
13.1095
13.0592
13.0632
13.0803
13.0741
13.107
13.1144
13.0729
13.0932
13.0628
13.0907
13.1222
13.14
13.0963
13.0693
13.1003
13.1224
13.1049
13.0636
13.1425
13.0886
13.1225
13.0874
13.1035
13.109
13.1324
13.1259
13.1227
13.1116
13.1223
13.1323
13.0332
13.116
13.1089
13.0886
13.0698
13.0371
13.1222
13.0788
13.097
13.0821
13.0943
13.1301
13.1004
13.0186
13.0857
13.0489
13.0764
13.0311
13.1044
13.1104
13.1232
13.0921
13.1087
13.0412
13.0643
13.1408
13.1178
13.0518
13.1352
13.1292
13.0451
13.0254
13.0699
13.0572
13.1274
13.1253
13.1338
13.1142
13.0791
13.0933
13.0905
13.1197
13.0828
13.0229
13.1198
13.129
13.1131
13.1161
13.1325
13.129
13.1291
13.0807
13.127
13.1343
13.1207
13.1384
13.135
13.1174
13.1138
13.0817
13.108
13.1157
13.1202
13.1263
13.1121
13.1215
13.103
13.0879
13.1329
13.1045
13.1338
13.1226
13.1184
13.1296
13.1274
13.0987
13.1149
13.138
13.1163
13.0899
13.0971
13.1269
13.1283
13.0952
13.1031
13.1064
13.1305
13.0949
13.0824
13.0875
13.1148
13.1315
13.1014
13.1081
13.1014
13.0386
13.0971
13.0751
13.1014
13.1415
13.1117
13.1081
13.094
13.1049
13.1059
13.1021
13.1175
13.0848
13.0867
13.1232
13.1021
13.1189
13.0768
13.1319
13.0833
13.0965
13.0906
13.1215
13.0887
13.1201
13.0998
13.1272
13.0926
13.0998
13.0956
13.0975
13.0981
13.1342
13.082
13.092
13.0792
13.0903
13.1363
13.1017
13.0875
13.1379
13.0818
13.1081
13.0732
13.1037
13.1122
13.0657
13.1146
13.1241
13.0856
13.0887
13.08
13.0988
13.1396
13.0922
13.0866
13.1089
13.0598
13.1252
13.1048
13.1086
13.0888
13.1116
13.1148
13.0968
13.0749
13.0981
13.1116
13.1066
13.0993
13.1232
13.0631
13.0783
13.0688
13.0505
13.0941
13.1423
13.0705
13.1067
13.095
13.0677
13.1487
13.0605
13.0557
13.0923
13.0723
13.0599
13.0598
13.0712
13.0795
13.0665
13.066
13.0628
13.0649
13.0636
13.1037
13.0628
13.1028
13.0743
13.1376
13.1188
13.0679
13.0685
13.0497
13.0544
13.0432
13.0715
13.1617
13.0663
13.0598
13.0546
13.0639
13.1463
13.0604
13.072
13.0698
13.0734
13.0749
13.1226
13.0458
13.159
13.0707
13.1429
13.1416
13.0731
13.0461
13.1566
13.0607
13.1034
13.147
13.1328
13.0449
13.0439
13.1029
13.0426
13.1329
13.0464
13.1515
13.1519
13.0924
13.0397
13.0463
13.1694
13.0471
13.0463
13.1554
13.042
13.0464
13.0557
13.0473
13.0454
13.0442
13.1351
13.1202
13.0967
13.1174
13.1147
13.0956
13.0412
13.1118
13.0475
13.1672
13.0524
13.0548
13.0362
13.0874
13.0958
13.1309
13.1131
13.1058
13.0678
13.1123
13.1264
13.1149
13.0406
13.1601
13.0286
13.0655
13.1176
13.1628
13.1282
13.0731
13.1158
13.1317
13.135
13.1308
13.1639
13.1577
13.1585
13.0516
13.1344
13.1619
13.0789
13.1126
13.1101
13.0647
13.0336
13.106
13.1666
13.1173
13.1232
13.1079
13.139
13.1614
13.0802
13.0563
13.1102
13.0667
13.0747
13.07
13.1664
13.0728
13.1657
13.1479
13.0657
13.072
13.1662
13.1591
13.1066
13.0767
13.1118
13.0945
13.1022
13.1092
13.1131
13.0811
13.0974
13.1076
13.1427
13.0905
13.1567
13.111
13.1119
13.0839
13.0869
13.1591
13.1051
13.1012
13.1108
13.1134
13.0831
13.0894
13.1446
13.1585
13.1072
13.0972
13.0965
13.0626
13.166
13.0804
13.0376
13.095
13.1471
13.076
13.0616
13.1019
13.1285
13.0775
13.1468
13.0601
13.064
13.0429
13.1392
13.1406
13.1384
13.1532
13.1173
13.102
13.0486
13.0504
13.1121
13.0845
13.082
13.1061
13.0871
13.1281
13.0769
13.151
13.1346
13.0503
13.0592
13.1097
13.1126
13.1488
13.1163
13.0767
13.1624
13.0863
13.1644
13.0912
13.1257
13.1225
13.1401
13.1006
13.0967
13.1269
13.1257
13.055
13.0985
13.152
13.0874
13.0335
13.1394
13.1552
13.1452
13.0887
13.0389
13.0949
13.0503
13.1513
13.087
13.1672
13.0639
13.1098
13.1001
13.1104
13.0389
13.0895
13.1648
13.165
13.1186
13.1177
13.0509
13.1461
13.083
13.1323
13.1131
13.1322
13.1055
13.0644
13.1657
13.1347
13.136
13.1471
13.0797
13.1544
13.075
13.1194
13.1192
13.0519
13.0925
13.0465
13.129
13.1082
13.0959
13.0427
13.168
13.1101
13.1268
13.048
13.0448
13.1688
13.0399
13.0998
13.1039
13.0415
13.093
13.0542
13.1536
13.1695
13.0428
13.1008
13.1009
13.0536
13.0309
13.0873
13.0972
13.163
13.0458
13.0443
13.1009
13.0938
13.1641
13.1413
13.061
13.04
13.0616
13.1499
13.1044
13.094
13.1395
13.0852
13.0955
13.0659
13.1673
13.137
13.1062
13.1335
13.1024
13.1038
13.0612
13.0554
13.1013
13.1053
13.0855
13.1038
13.1648
13.0858
13.0991
13.0719
13.1075
13.086
13.105
13.149
13.1156
13.0492
13.1073
13.1359
13.0777
13.1655
13.0485
13.1512
13.1377
13.1528
13.0938
13.1009
13.0497
13.1513
13.0679
13.1638
13.1168
13.1103
13.1488
13.1615
13.1476
13.0791
13.1544
13.1534
13.0377
13.0893
13.0394
13.0792
13.1447
13.0941
13.0885
13.0506
13.1235
13.084
13.0827
13.1021
13.1014
13.1536
13.169
13.0532
13.0804
13.1034
13.1357
13.1194
13.1126
13.0484
13.1604
13.0938
13.1359
13.054
13.0475
13.1011
13.046
13.0471
13.1145
13.1394
13.1098
13.163
13.0448
13.0518
13.1374
13.0861
13.1057
13.1011
13.109
13.1668
13.0924
13.1485
13.1122
13.0983
13.105
13.0928
13.1681
13.052
13.1075
13.1145
)
;

boundaryField
{
    back
    {
        type            empty;
    }
    front
    {
        type            empty;
    }
    top
    {
        type            zeroGradient;
    }
    outer_arc
    {
        type            zeroGradient;
    }
    bottom
    {
        type            uniformFixedValue;
        uniformValue    
        {
            type            table;
            format          csv;
            file            "outlet_p.csv";
            nHeaderLine     1;
            refColumn       0;
            componentColumns List<label> 1(1);
            separator       ",";
            mergeSeparators 0;
        }
        value           uniform 13.0439;
    }
    inner_arc
    {
        type            zeroGradient;
    }
}


// ************************************************************************* //
