/*--------------------------------*- C++ -*----------------------------------*\
  =========                 |
  \\      /  F ield         | OpenFOAM: The Open Source CFD Toolbox
   \\    /   O peration     | Website:  https://openfoam.org
    \\  /    A nd           | Version:  9
     \\/     M anipulation  |
\*---------------------------------------------------------------------------*/
FoamFile
{
    format      ascii;
    class       surfaceScalarField;
    location    "0.38";
    object      phi;
}
// * * * * * * * * * * * * * * * * * * * * * * * * * * * * * * * * * * * * * //

dimensions      [0 3 -1 0 0 0 0];

internalField   nonuniform List<scalar> 
663
(
-3.25651e-08
-1.51099e-09
3.4076e-08
-1.55799e-08
-8.81336e-09
1.7371e-08
8.87898e-09
2.46452e-09
-2.22409e-08
1.97763e-08
3.38223e-09
-1.89621e-08
-8.47523e-09
2.58463e-08
-1.03312e-09
-3.15319e-08
-2.27738e-08
2.52383e-08
-2.20768e-09
-3.38364e-08
3.60441e-08
-3.41774e-08
3.19697e-08
-2.96316e-08
2.81206e-08
1.46933e-08
-2.1964e-08
7.27071e-09
-3.48695e-08
1.82936e-08
-3.60025e-09
-1.6806e-08
1.89622e-08
-2.15614e-09
-1.77228e-08
9.16773e-10
-1.65973e-08
1.76064e-08
-1.00907e-09
-1.79961e-08
1.39875e-09
2.20881e-08
-2.20881e-08
-2.41931e-08
2.88452e-08
-4.65216e-09
2.94447e-09
-2.71375e-08
2.39964e-08
1.97499e-09
-2.59714e-08
2.77621e-08
-3.76565e-09
1.62553e-08
7.62957e-09
-2.38849e-08
-2.67e-08
4.45916e-09
-7.7829e-09
2.40382e-08
-1.53533e-08
1.81972e-08
-2.84385e-09
2.70621e-08
-2.99274e-08
2.86536e-09
-2.26018e-08
7.24848e-09
-1.64833e-08
2.66699e-08
-1.01866e-08
9.11078e-09
-2.55941e-08
1.83394e-08
-2.85193e-08
1.01799e-08
-6.25629e-09
2.45957e-08
-2.07446e-08
2.77293e-08
-6.98472e-09
-2.85805e-08
7.83596e-09
-1.44371e-08
-3.55901e-09
-2.24636e-08
8.02655e-09
4.11972e-09
1.79684e-08
-1.97949e-09
2.90416e-08
1.93336e-08
-2.28956e-09
-1.7044e-08
1.71243e-08
1.17209e-08
-1.75038e-08
2.73081e-08
-9.80426e-09
1.02583e-08
1.51343e-08
3.0629e-09
-6.82975e-09
1.61074e-09
-3.05362e-08
2.95223e-08
1.01383e-09
-2.63019e-08
2.73206e-08
-1.01874e-09
-1.59889e-08
1.59889e-08
-2.58077e-08
-7.42067e-09
2.4545e-08
2.87069e-08
-2.3047e-09
-2.64022e-08
2.18108e-08
-3.41557e-09
-1.83952e-08
-1.17929e-09
-3.03856e-08
3.15649e-08
2.95087e-08
-3.06879e-08
3.42403e-09
2.52829e-08
-2.71121e-08
-6.0029e-10
-3.1805e-08
3.24053e-08
2.97212e-08
-3.03215e-08
1.96828e-08
2.12796e-09
-1.79684e-08
2.90818e-08
-2.87173e-08
-3.64558e-10
-3.24623e-08
3.21858e-08
2.76476e-10
3.13352e-08
-3.13849e-08
4.97144e-11
-1.7994e-09
-3.2378e-08
5.68179e-11
-3.04424e-08
-2.98089e-08
3.00924e-08
-2.8356e-10
1.36842e-08
-2.23609e-08
-8.76355e-10
3.0385e-08
3.04289e-08
-7.07716e-10
2.72824e-08
-1.70795e-08
-5.52234e-09
1.83396e-10
-2.64853e-08
2.94037e-10
2.18302e-08
-2.21243e-08
2.63934e-09
4.44294e-10
-3.02532e-08
-6.54181e-10
3.47302e-08
-3.20077e-08
2.02708e-10
1.88271e-09
-2.14351e-08
4.08189e-09
1.73532e-08
2.47939e-08
1.69309e-11
-2.48108e-08
2.5014e-10
8.06784e-09
-8.31798e-09
1.96185e-09
-1.88102e-08
1.68484e-08
-2.11849e-08
-4.34685e-10
-3.20276e-08
9.41717e-10
-2.9659e-08
2.67557e-08
-1.43648e-09
2.48306e-08
-2.33941e-08
-2.96635e-08
2.99575e-08
-2.15495e-08
3.13643e-08
2.97788e-08
-3.03149e-08
5.36166e-10
-1.62881e-08
3.27346e-10
1.59607e-08
3.00392e-08
-2.60412e-10
3.26301e-08
-6.72559e-10
2.62682e-08
-2.62512e-08
1.06336e-10
8.55643e-09
-8.66277e-09
-3.31941e-08
-1.67547e-09
2.59694e-08
-2.74059e-08
2.61653e-09
2.47041e-08
2.52984e-08
6.7099e-10
-2.11432e-08
-7.37611e-09
6.58612e-09
8.06784e-09
-1.88102e-08
3.00729e-08
1.95705e-11
-1.70361e-10
-2.13791e-08
-3.08218e-08
2.96843e-08
1.13753e-09
3.00075e-08
-2.0371e-10
-2.98038e-08
2.97057e-08
-2.42077e-10
-2.16613e-08
2.17676e-08
2.64706e-08
-1.64001e-09
2.5704e-08
-4.05559e-10
8.31798e-09
-8.48834e-09
3.15736e-09
-1.68484e-08
1.3691e-08
8.55643e-09
-2.46411e-08
2.77985e-08
-2.82053e-08
-3.39953e-08
8.01191e-10
-3.31117e-08
3.40535e-08
-3.19175e-08
3.8552e-10
2.99942e-08
2.97625e-08
2.44956e-10
1.74038e-10
-3.32858e-08
-2.24193e-08
2.22155e-08
-1.89762e-08
-9.60439e-09
8.31065e-09
-8.31065e-09
2.59625e-08
-2.58461e-10
6.41954e-11
2.29677e-08
-2.30319e-08
-8.48834e-09
1.3691e-08
2.80419e-08
-2.51766e-08
1.0199e-08
-1.0199e-08
-1.19411e-08
1.20053e-08
2.35421e-10
-2.36312e-08
2.29235e-08
2.60651e-08
1.19411e-08
1.74987e-09
-6.80201e-11
2.18983e-08
2.62886e-08
-3.2612e-10
2.11458e-09
-3.07436e-08
-6.41226e-10
9.47809e-09
7.20883e-10
2.75886e-08
-1.30008e-09
2.85673e-08
-2.88257e-08
3.12353e-08
-3.03157e-08
-9.19597e-10
2.99878e-08
-2.25333e-10
6.80908e-11
-1.20053e-08
1.80637e-09
1.46231e-08
2.98327e-09
2.81076e-08
-5.18997e-10
-3.38212e-08
2.47927e-10
-2.16271e-08
-3.38144e-08
-3.15399e-10
3.41298e-08
2.761e-08
4.97622e-10
-4.68886e-11
-2.20774e-08
9.47809e-09
-6.80983e-10
1.01591e-08
1.81958e-10
-3.39964e-08
2.10743e-08
-2.17553e-08
-3.10584e-10
-2.29897e-08
2.33003e-08
-8.77768e-09
8.77768e-09
-8.86486e-09
8.71808e-11
-2.94111e-08
-8.73079e-09
8.66277e-09
2.49427e-08
8.73079e-09
-7.42601e-11
-2.2345e-08
2.79685e-08
-3.58457e-10
-5.39101e-10
2.85076e-08
3.14444e-08
-2.09129e-10
-9.36161e-10
2.28882e-08
-2.19521e-08
-3.12858e-08
3.07467e-08
-4.97972e-11
2.27533e-08
-2.27035e-08
-8.39232e-09
8.39232e-09
-9.32849e-09
-7.89226e-09
7.58167e-09
7.89226e-09
5.00063e-10
9.03328e-09
-9.08308e-09
9.03328e-09
-8.93912e-09
8.86486e-09
-2.54782e-08
1.00368e-09
2.44745e-08
8.93912e-09
9.41603e-11
1.14631e-08
-1.14631e-08
-7.7413e-10
-5.66917e-10
-2.97546e-08
-2.39463e-08
2.33793e-08
2.40188e-08
-2.49348e-08
2.40585e-08
-4.60313e-10
-2.36989e-08
-2.47352e-10
1.02286e-08
-1.06889e-08
-2.43822e-08
6.83336e-10
1.06889e-08
1.02286e-08
9.90485e-09
-9.90485e-09
9.65749e-09
-9.08308e-09
1.36842e-08
8.50548e-09
-8.50548e-09
1.01591e-08
7.58167e-09
8.0916e-09
-8.0916e-09
9.65749e-09
-9.32849e-09
3.23784e-10
8.21264e-10
2.85644e-08
2.95961e-08
-1.03173e-09
3.04174e-08
1.70346e-09
3.16287e-08
-3.33321e-08
2.99499e-08
4.67535e-10
2.99996e-08
3.1703e-08
3.00582e-08
1.5705e-09
6.27275e-11
2.99954e-08
3.77664e-10
2.82434e-08
-2.66729e-08
3.19057e-08
-2.98241e-08
-1.92529e-09
3.17494e-08
-2.9954e-08
1.29851e-10
3.19685e-08
2.80463e-08
-2.99716e-08
3.23461e-08
-2.40152e-10
3.19896e-08
4.14708e-11
3.2476e-08
3.27525e-08
2.70372e-08
3.25123e-08
-1.79706e-09
2.58159e-08
3.27217e-08
-7.32126e-10
8.36201e-09
-1.42383e-09
3.41455e-08
2.63051e-08
2.39261e-10
-3.23869e-08
3.21476e-08
3.24355e-10
3.27751e-08
-2.62834e-10
3.13513e-08
-2.86819e-08
2.81629e-08
8.36201e-09
3.15906e-08
1.20366e-10
3.22637e-08
-3.23841e-08
3.15836e-08
6.98363e-12
1.39902e-10
-3.27226e-08
3.25827e-08
3.17801e-08
-1.96546e-10
3.2494e-08
-3.33658e-08
8.71819e-10
3.19005e-08
3.2676e-08
3.20404e-08
2.64019e-08
-2.70782e-08
2.49221e-08
1.45496e-09
-3.48208e-08
2.67491e-08
3.22871e-08
-2.46723e-10
-3.3746e-08
-2.5035e-10
-2.62064e-08
-3.11163e-08
3.2291e-08
-3.9328e-12
-2.51894e-10
-9.40559e-09
9.40559e-09
2.3698e-10
3.28978e-08
-3.31481e-08
-1.92911e-09
2.79942e-08
-1.20236e-09
-2.36027e-09
2.72824e-08
3.33511e-08
-4.53337e-10
2.35847e-10
9.16975e-09
-3.3051e-08
-2.34776e-10
-2.90412e-08
3.30357e-08
3.33397e-08
-3.03961e-10
2.88654e-10
-2.76681e-08
-2.93049e-08
-3.23673e-08
2.31594e-08
-9.16975e-09
8.66695e-11
-2.26054e-08
2.25112e-08
-2.96458e-08
3.32102e-08
-5.77493e-12
2.88051e-08
-2.87994e-08
2.00548e-09
-1.61238e-08
-6.33988e-09
3.26838e-08
-3.24872e-08
3.55904e-09
-2.1559e-08
2.23027e-08
2.97438e-08
-3.2237e-10
-3.34989e-08
3.28277e-08
-3.28238e-08
-2.08637e-10
-2.94372e-08
-2.93016e-08
6.52785e-09
3.1122e-08
2.29997e-08
3.67012e-09
-2.29871e-08
-1.24818e-08
1.24818e-08
-2.97412e-08
-2.32184e-08
-3.91909e-09
-1.61588e-08
-2.10464e-08
1.5702e-08
1.0548e-08
3.04271e-08
-2.96634e-08
-2.97165e-09
1.0998e-08
1.5252e-08
4.08961e-09
1.40496e-08
1.22004e-08
-1.6554e-08
-1.66689e-08
2.95042e-08
-1.84415e-09
-2.33324e-08
-2.5895e-10
-1.50047e-09
-2.29004e-08
-6.45895e-09
1.77748e-08
-6.45895e-09
1.77748e-08
1.99176e-08
-2.8731e-08
-1.44251e-08
2.33041e-08
3.53899e-08
1.03546e-09
-1.60889e-09
2.8448e-08
-1.59113e-08
-6.17677e-09
3.5307e-09
-2.25069e-08
4.7104e-09
1.76119e-08
-1.36891e-08
2.58895e-08
-5.24775e-09
2.176e-08
1.84214e-08
-3.79824e-09
5.24775e-09
2.19754e-08
1.69448e-08
-6.20889e-09
-1.93618e-08
5.29212e-09
-1.64036e-08
1.59035e-08
2.48876e-08
2.45411e-08
-2.46409e-08
-2.45481e-08
1.84852e-08
-6.34522e-09
4.94646e-09
2.19036e-08
-2.1945e-08
-4.94644e-09
4.94644e-09
-2.16112e-08
-2.10275e-08
2.68276e-08
2.55956e-08
-1.76657e-08
-2.15509e-08
-1.35566e-08
1.18249e-08
1.1894e-08
1.25609e-08
1.92311e-08
1.80613e-08
6.71587e-09
-6.71587e-09
-1.59113e-08
-3.50708e-09
1.03387e-08
-2.63334e-09
3.4603e-08
-2.2471e-09
-2.10853e-08
1.94257e-08
2.94712e-09
-2.23729e-08
1.97149e-08
-1.9044e-08
4.7104e-09
-2.80548e-08
-1.45575e-08
-1.24537e-08
-6.20889e-09
-5.29212e-09
2.05998e-08
-6.34522e-09
-4.94646e-09
-2.11437e-08
-2.57959e-08
2.42955e-08
2.05299e-08
4.99427e-09
1.67228e-08
-2.28996e-08
1.1332e-08
)
;

boundaryField
{
    back
    {
        type            empty;
        value           nonuniform List<scalar> 0();
    }
    front
    {
        type            empty;
        value           nonuniform List<scalar> 0();
    }
    left
    {
        type            calculated;
        value           uniform 0;
    }
    top
    {
        type            calculated;
        value           nonuniform List<scalar> 8(-2.625e-08 -2.625e-08 -2.625e-08 -2.625e-08 -2.625e-08 -2.625e-08 -2.625e-08 -2.625e-08);
    }
    right
    {
        type            calculated;
        value           uniform 0;
    }
    bottom
    {
        type            calculated;
        value           nonuniform List<scalar> 8(2.43932e-08 3.72052e-08 3.3223e-08 9.84118e-09 3.34743e-08 1.0223e-08 2.43476e-08 3.72924e-08);
    }
}


// ************************************************************************* //
