/*--------------------------------*- C++ -*----------------------------------*\
  =========                 |
  \\      /  F ield         | OpenFOAM: The Open Source CFD Toolbox
   \\    /   O peration     | Website:  https://openfoam.org
    \\  /    A nd           | Version:  9
     \\/     M anipulation  |
\*---------------------------------------------------------------------------*/
FoamFile
{
    format      ascii;
    class       volVectorField;
    location    "0.38";
    object      U;
}
// * * * * * * * * * * * * * * * * * * * * * * * * * * * * * * * * * * * * * //

dimensions      [0 1 -1 0 0 0 0];

internalField   nonuniform List<vector> 
464
(
(0.00367565 -0.940247 -1.60968e-17)
(0.00162467 -0.657971 0)
(0.0153793 -0.698769 0)
(-0.00264446 -0.716177 -3.53717e-16)
(-0.00702 -0.537598 0)
(0.0773349 -0.755235 8.05856e-17)
(0.00107862 -0.970312 2.7063e-16)
(-0.0110597 -0.718667 0)
(-0.00260791 -1.00374 -9.12107e-20)
(-0.00337952 -0.982729 2.56083e-16)
(0.00591103 -0.840824 1.74421e-17)
(0.00482782 -0.644061 -1.05924e-17)
(-0.000400145 -0.99862 5.13356e-16)
(-0.00802672 -0.525777 0)
(0.00424469 -0.613491 2.32714e-16)
(0.00276448 -0.505012 -3.93256e-16)
(0.00248226 -0.623025 0)
(0.00571048 -0.518757 1.46589e-16)
(-0.0289067 -0.475583 3.17666e-16)
(0.0215396 -0.863602 -2.79945e-16)
(0.0252973 -0.83748 4.53343e-16)
(0.0428181 -0.831858 -7.76942e-17)
(0.0371347 -0.843124 3.83847e-17)
(0.0174509 -0.726385 0)
(0.00352491 -0.708715 3.17572e-16)
(0.0288775 -0.740251 -1.64866e-16)
(-0.00542202 -0.532483 -1.83201e-16)
(-0.0621334 -0.804521 2.91259e-16)
(0.00965476 -0.647594 0)
(0.0521292 -0.811265 0)
(0.0465837 -0.79722 -1.97593e-17)
(0.0109709 -0.863399 -2.29098e-18)
(0.00103413 -0.807806 4.09007e-17)
(0.00408353 -0.803867 2.94723e-16)
(0.0117106 -0.86705 -2.89724e-16)
(0.000411759 -0.554512 -4.29195e-16)
(0.0163596 -0.672055 3.46694e-16)
(-0.0493213 -0.66131 4.36785e-17)
(-0.0578444 -0.759026 -2.52752e-18)
(0.00152648 -0.527691 0)
(0.0211351 -0.869377 -4.52652e-16)
(0.0251468 -0.827951 0)
(0.0317839 -0.855209 1.1107e-16)
(0.00858865 -0.519029 -3.84805e-16)
(0.00172811 -0.640316 3.50864e-16)
(0.00597426 -0.606863 2.40812e-17)
(-0.0350117 -0.831616 -2.8318e-16)
(-0.0288458 -0.704906 1.92811e-19)
(-0.0217798 -0.342628 0)
(-0.0656931 -0.776357 -3.55624e-17)
(0.0110636 -0.833245 3.28346e-16)
(-0.0479904 -0.743069 1.85667e-17)
(0.00691301 -0.565713 2.54813e-16)
(-0.0138357 -0.875719 2.68806e-16)
(-0.0216045 -0.870323 8.86156e-18)
(-0.0469452 -0.800922 -2.96812e-16)
(-0.0424969 -0.818571 0)
(-0.00940499 -0.909365 0)
(-0.013152 -0.88345 2.85044e-16)
(0.00794269 -0.636269 0)
(-0.0417796 -0.577717 -3.94792e-16)
(-0.0048343 -0.828247 -5.85248e-16)
(-0.00546171 -0.931325 -5.43177e-16)
(-0.00804065 -0.899003 2.78288e-16)
(-0.00296982 -0.957966 5.87345e-20)
(-0.0103083 -0.868196 2.84092e-16)
(-0.0092813 -0.842786 2.8519e-16)
(-0.0323621 -0.517514 3.97616e-16)
(0.00379887 -0.787522 -1.44629e-16)
(-0.0207186 -0.846263 -2.8504e-16)
(-0.0122935 -0.845031 -2.84168e-16)
(-0.0030508 -0.885558 2.94599e-16)
(0.00447523 -0.644196 0)
(-0.0376386 -0.791754 -3.1433e-16)
(-0.00411252 -0.686829 3.48179e-16)
(-0.056661 -0.809166 -2.95798e-16)
(-0.00999764 -0.886573 2.85244e-16)
(0.0030639 -0.966473 -2.59003e-16)
(-0.00710693 -0.911555 2.74432e-16)
(0.0102037 -0.53646 1.86849e-16)
(-0.00975613 -0.647586 0)
(0.0802245 -0.789502 -8.15259e-17)
(0.00177362 -0.312484 5.73235e-16)
(0.0477916 -0.63466 -3.93063e-16)
(-0.000670325 -0.568884 0)
(-0.00823969 -0.91725 -9.99801e-20)
(-0.00465048 -0.887156 2.87713e-16)
(0.0751534 -0.767621 0)
(-0.0129806 -0.742036 0)
(-0.00548685 -0.836683 2.85949e-16)
(-0.00347522 -0.670355 -3.53466e-16)
(-0.00689157 -0.812538 0)
(-0.0079219 -0.888844 -2.8902e-16)
(-0.00579491 -0.602222 -3.29413e-16)
(-0.007381 -0.840473 2.86089e-16)
(-0.0072678 -0.924405 2.70468e-16)
(-0.0105168 -0.899929 -2.74625e-16)
(0.0453657 -0.736381 7.61725e-17)
(-0.00120109 -0.323846 5.53107e-16)
(-0.00140413 -0.999179 -2.55339e-16)
(0.0023595 -0.740334 0)
(-0.0298956 -0.780326 -1.90525e-17)
(0.0107191 -0.754951 0)
(0.00804218 -0.860292 2.27433e-18)
(0.0111154 -0.800591 0)
(-0.000383992 -0.168012 4.8031e-16)
(0.0240509 -0.446243 0)
(-0.00879891 -0.888066 -2.80944e-16)
(-0.00175647 -0.571373 3.53614e-16)
(-0.0252006 -0.861387 0)
(-0.00656885 -0.839417 0)
(-0.0367577 -0.831981 2.90455e-16)
(-0.00825153 -0.84205 0)
(-0.0026643 -0.579178 -3.50187e-16)
(-0.0215318 -0.76092 -9.91716e-18)
(0.00231292 -0.7677 5.06507e-18)
(-0.000992748 -0.317337 -5.62314e-16)
(0.0439818 -0.555068 -4.41957e-16)
(-0.00049748 -0.172769 -4.83924e-16)
(0.0587852 -0.749997 1.89281e-17)
(-0.0301104 -0.840578 -2.66026e-16)
(-1.12031e-05 -0.99462 -8.16987e-18)
(-0.00405114 -0.959318 -2.61122e-16)
(0.00232505 -0.938961 -2.7034e-16)
(-0.0113195 -0.884806 0)
(-0.0063512 -0.889918 -2.85856e-16)
(-0.00325975 -0.980702 2.6605e-16)
(-0.00476225 -0.694771 0)
(0.0123892 -0.858817 0)
(-0.000530732 -0.168739 -4.85824e-16)
(0.0273442 -0.382722 3.70852e-16)
(0.00808361 -0.181938 -4.76975e-16)
(-0.028388 -0.390869 3.61228e-16)
(0.00899589 -0.783124 0)
(0.0366629 -0.701933 0)
(-0.000551983 -0.171404 4.84175e-16)
(0.0227128 -0.317038 8.18604e-16)
(-0.0482513 -0.772034 3.05261e-16)
(-0.00352442 -0.982881 -2.59244e-16)
(0.00834492 -0.222743 -4.59566e-16)
(0.0165863 -0.449759 0)
(-0.00706492 -0.889202 0)
(-0.00953594 -0.723189 -1.23428e-19)
(-0.0138716 -0.77023 -3.20346e-16)
(0.0289197 -0.486707 -4.55132e-16)
(-0.00288233 -0.583406 3.50943e-16)
(0.00133842 -0.794578 0)
(0.0682551 -0.803314 0)
(-0.0122421 -0.888599 -1.51933e-20)
(0.00857574 -0.384015 1.03745e-15)
(0.00831894 -0.809491 -9.54488e-18)
(0.0255651 -0.79349 -2.94295e-16)
(0.00290685 -0.959152 2.97496e-16)
(-0.00588452 -0.838311 2.86384e-16)
(-0.000845487 -0.320937 5.45934e-19)
(0.0165003 -0.415651 5.23102e-16)
(0.0129879 -0.549769 0)
(0.00141108 -0.821399 0)
(-0.000642081 -0.995558 2.622e-16)
(-0.00298733 -0.67615 -3.56114e-16)
(-0.000771128 -0.986321 0)
(0.00699698 -0.83414 3.17104e-16)
(-0.00303159 -0.587382 -6.96509e-16)
(0.00238051 -0.203056 -1.70414e-19)
(0.00179156 -0.377649 -5.24975e-16)
(0.0125464 -0.268658 0)
(0.00066323 -0.980453 2.62236e-16)
(0.0139252 -0.641731 -3.57917e-16)
(0.00543979 -0.57716 -3.32716e-16)
(-0.000586518 -0.177402 -9.61446e-16)
(-0.00122228 -0.331551 -1.74176e-19)
(-0.00445539 -0.831769 2.90239e-16)
(-0.000991459 -0.326592 -1.65625e-19)
(0.0373243 -0.78211 7.95134e-17)
(-0.000860664 -0.329126 1.71932e-19)
(-0.00365298 -0.595769 3.46759e-16)
(0.000833049 -0.844115 -3.04819e-16)
(0.00580525 -0.856037 1.17399e-18)
(0.0032647 -0.934132 2.75639e-16)
(0.00451686 -0.59623 -4.1099e-17)
(0.0192178 -0.865169 -2.77994e-16)
(-0.0045845 -0.606243 -3.43211e-16)
(-0.00102792 -0.17824 0)
(-0.00357871 -0.335524 6.00208e-16)
(0.00453107 -0.30926 9.12864e-18)
(0.00343795 -0.322359 1.74491e-17)
(-0.00131252 -0.341255 0)
(-0.000629696 -0.183218 4.76756e-16)
(-0.000318087 -0.176143 9.62307e-16)
(-0.0012296 -0.334642 -1.07561e-18)
(-0.0231472 -0.764777 3.13699e-19)
(-0.00135 -0.337875 -5.49149e-16)
(-0.00783372 -0.238566 8.78052e-16)
(-0.0221017 -0.683393 3.2699e-16)
(-0.0144754 -0.846493 -2.78384e-19)
(-0.0114989 -0.732655 3.25668e-19)
(0.0168015 -0.745015 3.26052e-16)
(-0.0249386 -0.843748 -2.76087e-19)
(0.00238461 -0.16989 4.96344e-16)
(-0.0178777 -0.753408 -3.25306e-16)
(-0.0161817 -0.667283 0)
(-0.00961748 -0.641185 0)
(-0.00693092 -0.387985 0)
(-0.0141644 -0.742255 -3.22451e-19)
(-0.000662839 -0.181068 0)
(-0.0106112 -0.406424 -8.04319e-18)
(-0.00316444 -0.209942 0)
(-0.00220047 -0.202152 4.63268e-16)
(-0.00337595 -0.365225 -5.30421e-16)
(-0.000642173 -0.174738 -4.82197e-16)
(0.00874443 -0.257185 -4.30134e-16)
(-0.000682249 -0.184788 0)
(-0.0166836 -0.293431 -4.09341e-16)
(-0.00310746 -0.19432 4.78391e-16)
(0.00237357 -0.212244 0)
(-0.000594158 -0.17933 4.79247e-16)
(0.00657931 -0.170257 -4.98813e-16)
(-0.0049713 -0.221104 -4.51142e-16)
(0.00443373 -0.178092 -2.16562e-19)
(-0.00168978 -0.196728 4.6722e-16)
(0.000329525 -0.191145 -4.70292e-16)
(-0.00468007 -0.374944 -5.2384e-16)
(-0.012292 -0.653262 3.3015e-16)
(-0.00930224 -0.884935 -5.54524e-16)
(0.000474488 -0.86491 -2.99532e-16)
(0.00505971 -0.875209 2.81405e-16)
(0.000239657 -0.88333 0)
(0.0130351 -0.906178 -1.31878e-16)
(0.00473851 -0.891726 8.79714e-18)
(0.000719127 -0.898715 2.89448e-16)
(0.00435907 -0.906127 -2.77815e-16)
(0.0102978 -0.895758 3.4153e-17)
(0.00720717 -0.912626 0)
(-0.00637284 -0.922016 2.67409e-16)
(0.0104233 -0.83713 -3.24956e-16)
(0.000451488 -0.913159 0)
(0.00961357 -0.903916 1.1743e-19)
(0.00882988 -0.920475 1.21749e-19)
(0.00285513 -0.918141 -2.74369e-16)
(0.0138818 -0.840141 -2.84054e-16)
(-0.000328193 -0.924219 2.76635e-16)
(0.00714859 -0.926758 2.66307e-16)
(0.00993778 -0.900636 -2.8474e-16)
(0.00353463 -0.928266 0)
(0.00073163 -0.935484 0)
(0.00405711 -0.78319 7.53792e-20)
(0.00313743 -0.938716 8.43322e-18)
(0.01323 -0.638104 0)
(0.00948689 -0.906712 0)
(0.0119656 -0.353825 0)
(0.00893643 -0.92952 2.58691e-16)
(0.00935258 -0.829878 6.01851e-16)
(-0.00489998 -0.947316 2.69613e-16)
(-0.0057826 -0.890099 -2.86031e-16)
(0.000517756 -0.945203 0)
(0.00207123 -0.947275 0)
(-0.0129676 -0.825235 0)
(0.0137117 -0.193733 4.86781e-16)
(-0.000729738 -0.953714 2.80244e-16)
(0.00806205 -0.943266 0)
(0.00196887 -0.956075 -2.74893e-16)
(-0.00388536 -0.959486 -5.39089e-16)
(0.000252693 -0.961356 -2.76576e-16)
(0.00214986 -0.923047 2.61052e-16)
(0.00247794 -0.962657 2.75847e-16)
(0.000975386 -0.951175 -5.40856e-16)
(0.000115571 -0.968823 5.36765e-19)
(-0.0394446 -0.777142 9.47135e-18)
(0.00431173 -0.771223 -1.89465e-16)
(0.00654115 -0.951285 -2.54382e-16)
(0.028047 -0.69213 2.89161e-16)
(0.00222687 -0.970699 0)
(-0.00029693 -0.981948 -2.59643e-16)
(0.00236386 -0.831485 -1.49158e-16)
(0.00163341 -0.965399 8.45589e-18)
(0.00059541 -0.975858 0)
(0.00181842 -0.975512 0)
(-0.00771687 -0.630515 3.35873e-16)
(-0.00138775 -0.191835 0)
(-0.00379263 -0.683051 -1.06211e-19)
(-0.0033414 -0.970077 -2.0859e-18)
(-0.0218644 -0.790332 2.0334e-19)
(-0.00274171 -0.357142 0)
(-0.037681 -0.71959 3.16305e-16)
(0.0054525 -0.836161 -1.89082e-16)
(-0.00442596 -0.952689 2.6126e-16)
(-0.00224394 -0.349602 5.4599e-16)
(-0.0041206 -0.957617 0)
(-0.038697 -0.807755 0)
(-0.00361828 -0.973745 -2.65656e-16)
(-0.00452239 -0.955161 -1.03758e-18)
(-0.00339519 -0.977145 2.07343e-18)
(-0.0201574 -0.817182 2.9856e-16)
(-0.0160494 -0.859669 -5.71764e-16)
(-0.00653247 -0.930984 -2.75703e-16)
(-0.00628854 -0.619528 -6.83762e-16)
(-0.00157895 -0.344446 0)
(-0.00539256 -0.698934 1.12043e-19)
(-0.00613286 -0.703845 3.43502e-16)
(-0.00493694 -0.888587 -2.88162e-16)
(0.00313366 -0.925519 3.01521e-16)
(0.000326688 -0.9853 2.44326e-16)
(0.00867594 -0.838567 -5.79271e-16)
(-0.00192216 -0.500285 3.92029e-16)
(0.0146726 -0.661576 -1.82745e-16)
(-0.00625144 -0.936028 2.74705e-16)
(-0.00525841 -0.940931 5.39606e-16)
(0.010633 -0.54973 -1.8215e-16)
(-0.00231962 -0.57551 7.05539e-16)
(-0.00323554 -0.591351 3.46772e-16)
(-0.017995 -0.876268 2.85155e-16)
(-0.0139546 -0.799168 2.06541e-19)
(-0.00486599 -0.939642 0)
(0.000526892 -0.989609 -4.02511e-18)
(-0.00509316 -0.945201 5.37934e-16)
(-0.00435061 -0.949568 0)
(-0.00103503 -0.187129 -4.7511e-16)
(-0.0047821 -0.833088 0)
(-0.0158688 -0.71142 0)
(0.00274445 -0.961928 -2.73298e-16)
(0.0524157 -0.814027 -2.38551e-16)
(-0.0068168 -0.708941 1.33309e-18)
(-0.00342126 -0.679298 -3.51738e-16)
(-0.00415176 -0.600873 -3.44412e-16)
(-0.00112394 -0.990776 -5.3289e-16)
(-0.015851 -0.432919 2.66748e-19)
(-0.0228668 -0.468121 4.56254e-16)
(0.00300936 -0.93352 2.82893e-16)
(-0.0472558 -0.798561 0)
(-0.00520383 -0.889059 2.88893e-16)
(0.0250164 -0.854456 1.51815e-16)
(-0.00181991 -0.995163 2.57992e-16)
(0.00216669 -0.700627 1.46966e-16)
(-0.00405575 -0.953188 -5.38834e-16)
(-0.0170839 -0.846877 2.77964e-19)
(-0.0118889 -0.848373 2.89828e-16)
(0.0457636 -0.828454 2.35578e-16)
(-0.00168629 -0.700466 2.92319e-16)
(-0.00437449 -0.690539 -1.05734e-19)
(0.0267099 -0.820016 -3.11775e-16)
(-0.00576158 -0.701089 -1.48556e-16)
(-0.00320447 -0.890318 0)
(-0.00554196 -0.889668 4.47057e-18)
(-0.00513727 -0.834784 -2.87396e-16)
(-0.00331126 -0.964891 -2.6863e-16)
(-0.0369851 -0.743091 -1.63193e-16)
(-0.0110082 -0.262747 -8.49144e-16)
(-0.0106333 -0.843736 -2.84983e-16)
(-0.000336072 -0.702498 -3.11789e-16)
(-0.0152655 -0.880473 0)
(-0.0182957 -0.840322 9.10684e-18)
(-0.00721054 -0.704775 1.45036e-16)
(-0.0051443 -0.612153 0)
(-0.00785087 -0.714741 3.39927e-16)
(-0.0303595 -0.850047 2.82358e-16)
(-0.00445864 -0.273551 -6.31727e-16)
(0.024564 -0.73109 0)
(0.00111036 -0.141285 5.02723e-16)
(-0.00339518 -0.459187 1.76868e-16)
(-0.00179013 -0.822552 0)
(0.0208751 -0.703641 1.76969e-16)
(-0.00400308 -1.00123 -2.52755e-16)
(0.0902365 -0.773113 -8.24363e-17)
(-0.0033165 -0.548668 0)
(-0.00278243 -0.776191 9.2212e-18)
(-0.0535555 -0.710513 -3.6176e-16)
(-0.0198154 -0.733034 0)
(0.0168212 -0.806855 0)
(-0.00144867 -0.274888 0)
(0.0592486 -0.793227 -1.56213e-16)
(-0.017803 -0.702279 0)
(0.0074484 -0.297298 8.5956e-16)
(0.000316976 -0.800023 4.92828e-20)
(0.00348293 -0.638648 0)
(-0.00489966 -0.281884 -1.74265e-19)
(0.00829332 -0.727923 0)
(0.000304915 -0.798052 2.94951e-16)
(0.0281035 -0.748268 -4.70093e-16)
(0.00283015 -0.306252 1.11486e-15)
(0.0464006 -0.768425 -8.98849e-17)
(0.00965723 -0.277331 0)
(0.00592923 -0.66637 3.41286e-16)
(0.00489212 -0.66573 0)
(0.00422365 -0.931667 1.37315e-16)
(0.00472971 -0.922681 -4.38762e-20)
(0.00794659 -0.927375 0)
(0.00788569 -0.923638 1.37334e-16)
(0.0442423 -0.745626 1.63693e-16)
(0.000634137 -0.328251 0)
(-0.000565041 -0.30015 0)
(0.00939961 -0.80269 1.52529e-16)
(0.0141559 -0.797228 0)
(-0.0125758 -0.308996 -2.85436e-16)
(0.0156602 -0.292217 -9.99441e-16)
(0.0162038 -0.89204 1.35044e-16)
(0.0240775 -0.855303 2.81978e-16)
(0.0187774 -0.871691 0)
(0.0305109 -0.812061 6.54105e-16)
(0.0205893 -0.720363 0)
(0.00853553 -0.790657 2.97873e-16)
(-0.00381258 -0.895331 0)
(0.00462288 -0.70107 0)
(-0.00220228 -0.801255 0)
(-0.0171809 -0.701724 1.45866e-16)
(-0.00352021 -1.00941 -1.29128e-16)
(0.00179229 -0.961703 0)
(0.00121266 -0.147369 0)
(0.000683028 -0.440416 -3.75293e-16)
(-0.00404462 -0.281535 0)
(-0.0217677 -0.73078 3.64334e-16)
(-0.00120797 -0.954103 -6.53532e-17)
(-0.0438313 -0.738096 -1.68599e-16)
(0.0183254 -0.710183 0)
(0.0234625 -0.761557 -1.90534e-16)
(0.0166826 -0.715477 0)
(-0.0055485 -0.8602 0)
(-0.00414228 -0.122276 0)
(-0.0710576 -0.788576 -9.54887e-18)
(0.0262398 -0.709304 -1.5784e-16)
(-0.00183835 -0.967236 6.52192e-17)
(-0.0253057 -0.709271 -1.9137e-16)
(0.00700592 -0.704034 -1.86505e-16)
(-0.00135494 -0.86299 1.78387e-16)
(-0.00511468 -0.129938 -5.47168e-16)
(-0.00333576 -0.653868 -1.90564e-16)
(9.32865e-05 -0.862228 1.83031e-16)
(-0.00599068 -0.145371 -5.29316e-16)
(-0.00927427 -0.26919 3.29275e-16)
(0.00167629 -0.131942 -2.71807e-16)
(0.00627027 -0.290489 -6.12762e-16)
(0.0441015 -0.702686 -2.0531e-16)
(0.00165057 -0.957169 -1.67867e-16)
(0.0021177 -0.551243 -1.35718e-17)
(0.0567475 -0.777128 -3.68793e-16)
(0.00228253 -0.945092 -5.08833e-16)
(-0.00168558 -0.151452 0)
(0.00531987 -0.281711 -1.70164e-16)
(0.0324551 -0.785081 1.51816e-16)
(-0.000313586 -0.13704 0)
(0.0462759 -0.707365 1.97883e-16)
(0.00841904 -0.856685 0)
(-0.00195106 -0.128025 2.77297e-16)
(0.00948517 -0.894513 -1.16764e-17)
(0.0134807 -0.884231 1.678e-16)
(0.02291 -0.81942 -4.78728e-16)
(0.0140847 -0.8807 9.82625e-18)
(0.0239972 -0.834417 1.73486e-16)
(0.0182728 -0.635234 2.08968e-16)
(0.0169982 -0.84056 -2.12668e-16)
(0.00892268 -0.714518 -1.61723e-16)
(0.00098566 -0.661063 0)
(-0.000210812 -0.995358 -1.37636e-16)
(0.00339425 -0.775017 2.61094e-16)
(0.0320274 -0.75746 0)
(0.00932982 -0.797602 3.2271e-16)
(0.0115468 -0.680154 0)
(0.00104859 -0.797915 -3.27549e-16)
(-0.092837 -0.790394 1.7723e-16)
(-0.0305251 -0.712871 -8.41071e-20)
(-0.076873 -0.770109 -5.67533e-20)
(-0.0806637 -0.765065 -2.78069e-16)
(0.00109262 -0.271583 0)
(-0.00634256 -0.522729 1.13696e-16)
(0.0515024 -0.781323 3.62093e-16)
)
;

boundaryField
{
    back
    {
        type            empty;
    }
    front
    {
        type            empty;
    }
    left
    {
        type            noSlip;
    }
    top
    {
        type            uniformFixedValue;
        uniformValue    
        {
            type            scale;
            scale           
            {
                type            squarePulse;
                start           0.3;
                duration        0.3;
            }
            xScale          
            {
                type            constant;
                value           1;
            }
            value           
            {
                type            constant;
                value           (0 -0.7 0);
            }
        }
        value           uniform (0 -0.7 0);
    }
    right
    {
        type            noSlip;
    }
    bottom
    {
        type            zeroGradient;
    }
}


// ************************************************************************* //
