/*--------------------------------*- C++ -*----------------------------------*\
  =========                 |
  \\      /  F ield         | OpenFOAM: The Open Source CFD Toolbox
   \\    /   O peration     | Website:  https://openfoam.org
    \\  /    A nd           | Version:  9
     \\/     M anipulation  |
\*---------------------------------------------------------------------------*/
FoamFile
{
    format      ascii;
    class       volVectorField;
    location    "1.13";
    object      U;
}
// * * * * * * * * * * * * * * * * * * * * * * * * * * * * * * * * * * * * * //

dimensions      [0 1 -1 0 0 0 0];

internalField   nonuniform List<vector> 
1655
(
(0.157535 -0.0776104 -4.71332e-18)
(0.0813065 -0.124105 3.11212e-17)
(0.352232 -0.00551487 2.48546e-17)
(0.0913413 -0.0267876 -1.51329e-17)
(0.0968117 0.173657 0)
(0.21538 0.145305 9.38977e-18)
(0.360393 -0.0176848 0)
(0.0682868 0.279687 -1.67494e-17)
(0.0827024 0.326032 0)
(0.105278 0.174394 -8.19155e-18)
(0.163912 -0.0562237 3.77032e-17)
(0.171005 -0.058536 -3.71538e-17)
(0.0512677 0.174401 -3.87407e-21)
(0.010979 -0.172878 -1.96067e-17)
(0.0723461 0.360218 1.89585e-17)
(0.177073 -0.166441 0)
(0.266513 -0.138353 3.33424e-17)
(0.116446 0.317863 9.91749e-18)
(0.247673 0.103874 -3.74177e-17)
(0.00884167 -0.132881 -1.09178e-17)
(0.124559 -0.19867 4.39254e-18)
(0.066834 0.356089 0)
(0.0905204 0.161029 -2.02859e-17)
(0.0830034 0.156397 9.42127e-18)
(0.163219 -0.0717918 -5.90898e-18)
(0.214225 -0.131314 -3.93698e-17)
(0.140142 -0.149427 -1.73677e-17)
(0.0673619 0.350398 -1.9999e-17)
(0.062848 0.349601 2.68751e-17)
(0.0346128 -0.166432 -1.9422e-17)
(0.380366 -0.055265 4.81177e-17)
(0.336065 0.00189214 -5.14076e-18)
(0.0298741 -0.40486 -7.0839e-18)
(0.336664 0.0509946 0)
(0.105865 0.341891 0)
(0.326373 0.0523136 0)
(0.215034 0.153198 -2.50943e-17)
(0.116143 -0.176332 0)
(0.0211505 -0.39389 -9.68468e-18)
(0.126041 -0.174138 -3.35909e-17)
(0.102004 -0.160571 1.88772e-17)
(0.0833423 0.154214 1.6397e-17)
(0.0199019 -0.357992 -1.01726e-17)
(0.255687 0.0789904 2.96547e-17)
(0.0800553 -0.193804 0)
(0.133038 -0.0401939 0)
(0.143375 -0.032782 4.70556e-17)
(0.0755388 -0.179264 0)
(0.168018 0.183024 1.81904e-17)
(0.0184994 -0.339165 2.47538e-18)
(0.225821 0.147048 2.79391e-17)
(0.341536 -0.0117423 -1.85113e-17)
(0.089857 0.348943 -2.03683e-17)
(0.0895702 0.3138 1.79323e-17)
(0.160911 0.206941 -2.32576e-17)
(0.10461 0.208073 0)
(0.0824443 -0.119645 -9.1761e-18)
(0.137392 -0.048954 0)
(0.176273 -0.0634205 0)
(0.112951 0.196562 1.97461e-17)
(0.379638 -0.0345647 -4.81018e-17)
(0.234979 0.123596 0)
(0.162081 -0.0854129 0)
(0.084934 0.289052 -4.62255e-18)
(0.273771 0.0492024 0)
(0.359974 -0.0492015 0)
(0.246759 -0.00694902 4.34785e-17)
(0.150658 -0.0532736 -2.16875e-17)
(0.0970927 0.3531 0)
(0.0824799 0.147492 -1.87519e-17)
(0.127311 -0.044229 2.40878e-17)
(0.354617 -0.0384667 -1.13066e-18)
(0.095402 -0.23601 -1.20552e-18)
(0.0725967 0.354784 1.71509e-17)
(0.350076 0.0556965 -2.21958e-17)
(0.04549 -0.178536 1.06711e-17)
(0.0615936 0.326556 -6.11214e-18)
(0.0876923 0.372748 0)
(0.101424 -0.144097 0)
(0.0530931 -0.171252 0)
(0.268391 0.0411497 2.37254e-17)
(0.0498008 -0.171753 -1.08491e-17)
(0.157539 0.205883 2.37626e-17)
(0.267657 0.0764596 1.19094e-17)
(0.0675118 -0.258773 0)
(0.0907247 0.335973 0)
(0.371124 0.0379405 -1.33164e-17)
(0.0965693 -0.210632 0)
(0.158026 -0.153972 -9.40406e-18)
(0.105475 0.281624 0)
(0.106893 0.318053 0)
(0.353563 0.00871544 1.15308e-17)
(0.26262 0.10412 2.28334e-17)
(0.174425 0.173954 0)
(0.0176384 -0.114099 0)
(0.256283 0.114674 3.79943e-17)
(0.237129 -0.000815858 -3.68976e-17)
(0.14939 -0.0534356 0)
(0.336397 0.0174764 -1.09806e-17)
(0.0572927 -0.442328 2.31261e-17)
(0.358173 0.0227036 -7.34602e-17)
(0.240751 0.0230026 -2.42261e-17)
(0.159456 0.180161 -2.37244e-17)
(0.257337 0.0266691 2.54643e-17)
(0.151797 0.228889 0)
(0.241307 0.132577 -1.45869e-18)
(0.12694 0.226126 -2.04957e-17)
(0.0198626 -0.122622 0)
(0.0408222 -0.443945 0)
(0.111989 0.204093 -2.06289e-17)
(0.01928 -0.447879 1.63334e-17)
(0.148217 -0.0508216 1.92305e-17)
(0.123732 0.180577 1.25119e-17)
(0.0797554 -0.297113 2.14706e-17)
(0.135144 0.179183 1.95333e-17)
(0.0980027 0.347214 -1.20582e-17)
(0.129051 0.210721 -2.08376e-17)
(0.169641 -0.0561323 0)
(0.159711 -0.14752 1.86371e-17)
(0.149909 0.23649 -4.10799e-17)
(0.132181 0.146013 -3.56992e-17)
(0.322398 0.0782669 3.6066e-17)
(0.371876 0.00753703 -2.85968e-17)
(0.283618 -0.0415579 2.69897e-17)
(0.250383 0.00845925 9.45814e-18)
(0.102529 0.215848 0)
(0.0125362 -0.296221 -2.34575e-17)
(0.0187988 -0.145795 2.14036e-17)
(0.188865 -0.158942 -2.90244e-18)
(0.039258 -0.355286 -2.788e-18)
(0.205669 0.179772 5.36569e-18)
(0.0189366 -0.452814 2.87668e-17)
(0.0989714 0.271318 1.79167e-17)
(0.0992261 0.196945 1.8904e-17)
(0.00788265 -0.0453764 0)
(0.144298 -0.184389 0)
(0.0842265 0.158561 -1.10482e-17)
(0.0723546 0.218941 1.85007e-17)
(0.0346783 -0.0660439 1.00326e-17)
(0.235353 -0.0135625 -9.8396e-18)
(0.0774113 0.134308 1.28676e-17)
(0.121453 -0.132984 1.78863e-17)
(0.164742 -0.140503 0)
(0.238544 0.0963544 0)
(0.311901 -0.13154 -1.10221e-17)
(0.266418 0.0705981 0)
(0.19921 0.102432 -3.83289e-17)
(0.132404 0.144293 3.08791e-17)
(0.153657 0.113432 1.99337e-17)
(0.359571 -0.07686 0)
(0.352888 -0.0363066 1.88386e-17)
(0.340369 -0.108649 -1.01571e-17)
(0.310784 0.0426716 1.96833e-17)
(0.339714 0.0111189 1.71979e-17)
(0.084407 0.355155 0)
(0.00883097 -0.279966 3.77488e-17)
(0.260353 0.0536639 2.41819e-18)
(0.262322 0.0842872 1.00785e-17)
(0.139809 0.187742 0)
(0.253864 0.0390446 -2.58266e-17)
(0.220688 0.102076 2.89798e-17)
(0.18976 -0.148299 0)
(0.10656 0.280257 -1.68852e-21)
(0.279603 0.0881019 0)
(0.288393 0.100704 0)
(0.160765 -0.0591801 -1.00323e-17)
(0.0812267 0.327614 0)
(0.12496 0.183123 -3.93646e-17)
(0.238307 0.013215 5.96827e-18)
(0.0789613 0.376783 0)
(0.299569 -0.138647 0)
(0.164425 0.202515 0)
(0.17823 0.107856 1.19505e-17)
(0.132105 0.229738 2.07103e-17)
(0.0703512 -0.224291 1.25917e-18)
(0.136834 0.214714 2.06392e-17)
(0.191478 0.180978 5.38363e-18)
(0.072249 0.38935 0)
(0.100852 -0.355104 -2.22005e-17)
(0.00386979 -0.129337 1.78345e-17)
(0.100713 0.253292 2.5142e-17)
(0.162367 0.214379 1.60679e-17)
(0.222232 0.135879 -3.41399e-17)
(0.271948 -0.0379175 -5.90048e-18)
(0.111204 -0.195768 -1.13646e-17)
(0.126985 -0.379725 0)
(0.0590747 -0.182241 0)
(0.107916 -0.378887 0)
(0.119426 0.308021 0)
(0.157345 0.225965 -1.56242e-17)
(0.0904649 -0.193915 -2.04622e-17)
(0.248943 0.126415 0)
(0.123666 0.310603 -2.07226e-17)
(0.339584 -0.0298126 2.61035e-17)
(0.14858 -0.394062 0)
(0.0170299 -0.0765532 -1.28588e-17)
(0.128798 0.29547 0)
(0.131784 -0.396575 0)
(0.146543 -0.152199 2.44298e-17)
(0.148634 0.251182 0)
(0.223925 -0.0438766 1.34688e-17)
(0.21079 -0.0343721 -6.0574e-18)
(0.367576 0.0203296 2.16966e-17)
(0.379664 -0.0165992 4.87031e-17)
(0.133106 0.324641 -1.83868e-17)
(0.15443 -0.212869 1.47779e-17)
(0.057257 -0.396873 0)
(0.114513 0.338279 0)
(0.0492249 -0.379385 6.57384e-17)
(0.3467 0.0555724 0)
(0.331125 -0.0232044 3.52384e-17)
(0.336229 -0.0319188 -9.7107e-18)
(0.13729 -0.188197 0)
(0.11599 0.205145 2.05337e-17)
(0.00902582 -0.150798 -2.11398e-18)
(0.244413 -0.0250773 4.58746e-17)
(0.317992 0.0691949 -1.13511e-17)
(0.172474 -0.14205 0)
(0.333887 -0.0488031 2.00409e-17)
(0.14327 0.264303 0)
(0.0641309 -0.177174 0)
(0.121829 -0.222571 -4.27667e-17)
(0.0374612 -0.392942 2.99198e-17)
(0.140537 0.255971 2.08219e-17)
(0.0487665 -0.404874 -2.15677e-17)
(0.163926 -0.397914 2.07482e-17)
(0.180149 -0.384885 -2.06718e-17)
(0.118982 0.336351 0)
(0.335704 -0.068203 2.53782e-17)
(0.33466 -0.0786298 2.03243e-17)
(0.0897305 -0.308392 0)
(0.336632 -0.104119 -2.542e-17)
(0.335001 -0.112981 2.5409e-17)
(0.0850227 0.381259 -3.95445e-17)
(0.0717525 -0.40647 -2.13036e-17)
(0.0888874 -0.32515 2.09888e-17)
(0.150272 -0.403985 0)
(0.112772 0.351156 0)
(0.179599 -0.374456 2.57536e-17)
(0.337749 -0.136205 2.03616e-17)
(0.0919778 0.278056 -1.93494e-17)
(0.103247 -0.18782 3.73772e-17)
(0.334688 -0.14506 -2.54547e-17)
(0.0352109 -0.0891156 1.79874e-17)
(0.133696 0.284157 5.19124e-18)
(0.0748691 -0.160908 -2.64779e-17)
(0.375612 -0.0959567 1.52907e-17)
(0.116173 0.263909 0)
(0.163659 -0.377698 -5.16839e-18)
(0.146963 0.245172 0)
(0.267115 0.0899313 -1.69107e-17)
(0.0514435 -0.140443 4.25374e-18)
(0.159102 0.400607 -2.01791e-17)
(0.333874 -0.019908 -1.46872e-17)
(0.07982 -0.395854 2.09562e-17)
(0.331319 -0.039135 -2.5153e-17)
(0.0860016 -0.428028 -2.13755e-17)
(0.128424 0.292819 -5.17069e-18)
(0.0685508 0.388011 2.7255e-17)
(0.0359094 -0.363902 1.98292e-17)
(0.210238 -0.18529 1.55209e-17)
(0.112224 -0.330864 2.12955e-17)
(0.192353 -0.377457 2.05801e-17)
(0.336358 -0.0467408 2.01845e-17)
(0.14263 0.408698 2.021e-17)
(0.129963 0.168832 2.08602e-17)
(0.0423782 -0.352993 0)
(0.0100235 -0.220439 -2.9421e-17)
(0.0498344 -0.423405 1.12332e-17)
(0.0146986 -0.231033 0)
(0.0587431 0.232559 -2.19035e-17)
(0.0924402 0.375795 1.55574e-17)
(0.0933579 -0.188518 1.09834e-17)
(0.133025 -0.334394 0)
(0.0768427 0.395255 3.3071e-21)
(0.08966 0.385729 -1.56593e-17)
(0.369237 -0.0991739 0)
(0.123371 0.320838 2.57657e-17)
(0.14509 0.254712 -2.60642e-17)
(0.247006 -0.216341 5.08224e-18)
(0.14685 0.253237 2.12242e-17)
(0.117532 0.180514 5.22753e-18)
(0.0823976 0.401905 2.07253e-17)
(0.103129 0.312295 1.84697e-17)
(0.0827599 0.318237 -3.46868e-17)
(0.0978358 0.37811 -2.08256e-17)
(0.131933 0.295896 2.08473e-17)
(0.0497457 -0.446159 1.86591e-17)
(0.0543372 -0.369983 0)
(0.101751 0.350901 0)
(0.106631 0.352322 2.0447e-17)
(0.0730848 -0.143148 2.03349e-17)
(0.0283549 -0.295768 4.38242e-17)
(0.164589 0.194462 0)
(0.120519 0.336421 -2.07433e-17)
(0.114631 -0.415796 5.2448e-18)
(0.040954 0.182015 0)
(0.333517 -0.0603783 -3.54331e-17)
(0.0207498 -0.0514188 -2.08438e-17)
(0.076632 -0.397333 -5.15495e-17)
(0.0764218 -0.440096 -2.17007e-17)
(0.164821 0.161299 0)
(0.116912 0.103342 3.20531e-17)
(0.140442 -0.402009 -5.21925e-18)
(0.208664 -0.363767 -4.11343e-17)
(0.140346 0.268204 -2.22679e-17)
(0.104855 -0.430858 -5.26997e-18)
(0.159155 -0.360241 5.16031e-18)
(0.112241 0.373989 -5.14809e-18)
(0.218923 -0.354978 -2.04836e-17)
(0.0909853 0.408049 0)
(0.33906 -0.127515 1.10426e-17)
(0.140288 -0.359738 -5.19534e-18)
(0.226224 -0.194081 -5.17504e-18)
(0.139273 0.169117 0)
(0.118669 0.347843 0)
(0.0573187 -0.102696 -2.07878e-17)
(0.155986 0.228608 -2.09774e-17)
(0.234984 -0.340864 8.27113e-21)
(0.0891454 -0.435006 2.26615e-17)
(0.142182 0.267412 0)
(0.0232558 -0.252834 -2.21573e-17)
(0.063016 -0.441125 2.86407e-18)
(0.123787 -0.405296 -5.23074e-18)
(0.0893137 -0.434711 -2.11494e-17)
(0.111579 -0.0382299 3.01074e-17)
(0.0577404 -0.0225089 1.03319e-17)
(0.127517 0.176618 -2.63278e-17)
(0.0999961 -0.414133 0)
(0.198557 0.387319 -2.01844e-17)
(0.0745646 -0.37134 0)
(0.128829 0.308918 2.08004e-17)
(0.00598967 -0.0569816 9.57191e-18)
(0.172661 -0.341094 -2.0775e-17)
(0.105242 0.387353 2.05995e-17)
(0.194753 -0.358053 -1.54745e-17)
(0.183725 0.400108 1.51424e-17)
(0.0392355 -0.319999 -2.19061e-17)
(0.188466 -0.37997 0)
(0.104965 0.377156 0)
(0.0743964 -0.443238 2.23546e-17)
(0.165136 -0.38456 2.07692e-17)
(0.0764954 0.400865 0)
(0.336359 -0.0867148 -2.53067e-17)
(0.0783638 0.171186 0)
(0.148128 -0.390091 -3.64237e-17)
(0.0149224 -0.219073 0)
(0.117297 -0.423516 5.24814e-18)
(0.104105 -0.431402 0)
(0.143941 -0.31226 0)
(0.0531095 0.130261 0)
(0.141811 0.359491 2.00905e-17)
(0.334923 -0.096476 0)
(0.0884931 -0.425499 2.11239e-17)
(0.151473 0.209235 0)
(0.242701 -0.330603 0)
(0.17147 -0.389902 0)
(0.196261 -0.368494 -7.79755e-21)
(0.117292 0.365965 -2.05105e-17)
(0.252664 -0.315713 2.56262e-17)
(0.107446 0.254577 -1.77854e-17)
(0.0602904 -0.358396 0)
(0.137297 0.229272 -5.5933e-18)
(0.276386 -0.224172 2.03717e-17)
(0.0181359 -0.0844417 2.18274e-17)
(0.0928733 0.274831 -1.79494e-17)
(0.0949836 -0.398465 5.42336e-18)
(0.0506405 0.0996526 -2.06639e-17)
(0.134777 0.292356 0)
(0.133003 -0.344105 0)
(0.0526258 -0.113487 0)
(0.0740954 -0.423257 2.1133e-17)
(0.0345827 -0.102959 0)
(0.218459 -0.344555 0)
(0.0483862 0.0861406 0)
(0.112789 0.382363 5.12728e-18)
(0.258189 0.351264 1.51881e-17)
(0.117971 0.221363 -2.89784e-21)
(0.104843 -0.316519 5.20619e-18)
(0.16173 -0.399974 -2.0791e-17)
(0.0780957 -0.276796 -5.36048e-18)
(0.270383 -0.210843 0)
(0.12235 0.1641 -2.16545e-17)
(0.267839 -0.235411 -2.54329e-17)
(0.133593 -0.417013 -5.22018e-18)
(0.157535 0.200149 0)
(0.234536 -0.332568 0)
(0.121307 0.340244 -2.5499e-21)
(0.0829053 0.408397 0)
(0.209506 -0.353739 -5.13335e-18)
(0.13566 -0.161805 1.95993e-17)
(0.16033 0.349417 -2.01471e-17)
(0.239807 0.364466 -2.02212e-17)
(0.163517 0.195943 0)
(0.171008 -0.371267 0)
(0.237222 -0.318497 -2.04005e-17)
(0.258075 -0.316301 2.03695e-17)
(0.0971727 0.388633 0)
(0.131472 0.235523 0)
(0.260286 0.258868 0)
(0.213022 -0.357406 -2.05195e-17)
(0.0515709 -0.261197 4.37635e-17)
(0.277234 -0.201412 5.08696e-18)
(0.113921 0.198782 -2.60357e-17)
(0.225439 0.320862 -5.05922e-18)
(0.0948808 -0.401408 -2.10343e-17)
(0.160878 0.209533 2.10318e-17)
(0.171738 0.308535 -2.53682e-17)
(0.0673328 -0.112362 0)
(0.255171 0.335325 0)
(0.0717428 0.0986695 0)
(0.294518 -0.191686 5.08003e-18)
(0.273107 -0.250342 5.10002e-18)
(0.234244 0.349926 0)
(0.101946 -0.389381 0)
(0.307846 -0.179132 -2.03059e-17)
(0.154337 0.219818 0)
(0.337161 -0.120178 0)
(0.261965 -0.262736 -1.53299e-17)
(0.252131 -0.305946 2.03803e-17)
(0.264023 0.237996 2.03458e-17)
(0.290011 -0.2015 -5.08093e-18)
(0.291645 0.0242584 5.12413e-18)
(0.262646 -0.304649 0)
(0.237012 -0.287012 2.0448e-17)
(0.350471 -0.106571 -1.29197e-17)
(0.335202 -0.128796 0)
(0.187875 -0.363894 1.54831e-17)
(0.191057 -0.341088 2.07129e-17)
(0.322233 0.000120248 2.54503e-17)
(0.134325 -0.41597 0)
(0.284308 -0.00264508 1.9384e-21)
(0.251747 -0.290938 0)
(0.12759 0.179507 -6.72445e-18)
(0.305515 -0.18884 1.52337e-17)
(0.282585 -0.164884 -1.52861e-17)
(0.133439 -0.32678 2.07902e-17)
(0.144848 0.279751 8.74551e-18)
(0.0887555 0.103375 0)
(0.301084 -0.172043 0)
(0.08106 -0.0920834 1.80411e-17)
(0.308926 -0.232994 0)
(0.193657 0.296844 2.53651e-17)
(0.276667 -0.29036 0)
(0.287416 -0.250223 0)
(0.291457 -0.174173 -2.54398e-17)
(0.317602 0.0338425 2.03482e-17)
(0.218466 0.374026 0)
(0.315073 0.00747059 9.74272e-22)
(0.170849 0.378505 2.01171e-17)
(0.309367 -0.0108607 -5.09628e-18)
(0.308061 -0.111634 -2.03741e-17)
(0.307851 -0.00364457 -5.09385e-18)
(0.290843 -0.224216 5.0778e-18)
(0.31087 -0.00858781 -4.07807e-17)
(0.30956 -0.209124 2.53635e-17)
(0.297344 0.271325 0)
(0.28991 -0.263483 0)
(0.325657 0.0156812 0)
(0.282343 0.00823187 0)
(0.250056 -0.193541 -5.10268e-18)
(0.316012 -0.219229 -5.06759e-18)
(0.256168 -0.207509 5.09681e-18)
(0.302108 -0.109733 -2.03992e-17)
(0.246486 0.221411 -2.04216e-17)
(0.1199 0.172949 4.16097e-17)
(0.296736 -0.236902 -5.07322e-18)
(0.277741 -0.277615 0)
(0.323579 -0.191267 5.11222e-18)
(0.257328 -0.18621 0)
(0.245948 -0.172172 -2.04655e-17)
(0.104453 -0.298689 1.55842e-17)
(0.296983 -0.212483 5.0778e-18)
(0.203719 0.33318 5.05639e-18)
(0.309386 -0.0987987 2.03834e-17)
(0.250256 -0.165409 -5.11139e-18)
(0.232284 -0.150199 -3.58592e-17)
(0.272288 -0.146891 -1.5312e-17)
(0.331747 -0.16228 1.53016e-17)
(0.307677 0.0164607 -9.7487e-18)
(0.262992 -0.308521 -2.55764e-17)
(0.270203 0.301254 0)
(0.324796 -0.180115 -5.06641e-18)
(0.307621 0.00178419 5.09806e-18)
(0.253556 -0.149839 -5.11149e-18)
(0.313232 -0.197353 -1.52135e-17)
(0.296069 -0.00146219 -2.02603e-17)
(0.313093 0.0142508 0)
(0.238743 0.277128 0)
(0.195015 -0.315502 -5.15184e-18)
(0.311866 -0.0909628 -4.59012e-17)
(0.293577 0.00203911 -2.03834e-17)
(0.316777 -0.174146 5.07447e-18)
(0.309743 0.0149677 -5.10422e-18)
(0.286719 -0.108614 -2.04275e-17)
(0.269534 -0.163148 5.10146e-18)
(0.351008 -0.0898733 -2.87159e-19)
(0.319075 0.0248587 0)
(0.285208 -0.15791 1.52838e-17)
(0.313315 0.0117669 2.54961e-17)
(0.291323 -0.0838361 0)
(0.234264 -0.143121 2.04862e-17)
(0.3103 0.032572 1.02527e-17)
(0.301824 -0.0917642 2.5515e-17)
(0.346476 -0.106224 0)
(0.288771 -0.0961432 1.53236e-17)
(0.314414 0.0140634 -2.03842e-17)
(0.29443 -0.0907112 -5.11198e-18)
(0.296869 -0.113553 -1.89464e-21)
(0.303836 -0.00212358 -1.52905e-17)
(0.156452 0.266515 1.54086e-17)
(0.28426 -0.104332 -2.55316e-17)
(0.359603 0.104863 -5.06366e-18)
(0.255874 -0.142703 -5.11165e-18)
(0.320325 0.0217095 0)
(0.305694 0.00771942 2.04186e-17)
(0.300358 -0.104284 0)
(0.298731 -0.13048 1.52831e-17)
(0.347318 -0.0823162 1.82588e-17)
(0.35064 -0.0634845 0)
(0.32932 -0.0888356 -2.03637e-17)
(0.328314 -0.121045 0)
(0.22817 -0.164596 4.113e-17)
(0.304074 -0.0982457 0)
(0.357119 -0.0739658 -1.95401e-17)
(0.323312 -0.150598 2.53865e-17)
(0.274541 -0.0919393 -1.54369e-17)
(0.29177 -0.101687 1.1053e-21)
(0.289577 -0.123586 5.10097e-18)
(0.32736 -0.0538329 -2.54528e-17)
(0.279415 -0.081144 2.05997e-17)
(0.29669 -0.012322 2.03852e-17)
(0.0920204 -0.0816862 -1.1534e-17)
(0.10539 -0.0118611 1.9585e-17)
(0.123309 0.0689252 1.29128e-18)
(0.0811039 -0.109199 2.46337e-18)
(0.111634 0.108894 -1.96161e-21)
(0.0844076 -0.0376773 -4.22246e-17)
(0.131644 0.017335 0)
(0.068797 -0.0241429 -1.83019e-17)
(0.134152 0.0498996 -3.03873e-17)
(0.343946 -0.0405561 -5.30322e-17)
(0.125852 0.0598142 -2.06304e-17)
(0.0831302 -0.0164903 0)
(0.0899848 -0.0944719 3.03229e-17)
(0.125837 0.0872881 2.07259e-17)
(0.0992487 -0.0704967 2.25996e-17)
(0.127004 -0.00536386 0)
(0.258864 -0.127149 1.53466e-17)
(0.135239 0.0303863 -3.20288e-17)
(0.0530421 -0.0204178 0)
(0.277949 -0.111135 -5.10943e-18)
(0.183504 -0.0927321 0)
(0.267457 -0.0978193 -1.5355e-17)
(0.290009 -0.119345 5.10135e-18)
(0.345785 -0.0995065 0)
(0.170068 0.0488631 0)
(0.236584 -0.127369 5.12382e-18)
(0.303443 0.0072564 -2.04384e-17)
(0.300897 -0.00813443 -5.09566e-18)
(0.311281 -0.105257 1.52921e-17)
(0.299793 0.0157769 -3.57824e-17)
(0.324061 -0.158799 5.11458e-18)
(0.327974 -0.0112296 -1.51303e-17)
(0.280209 0.215025 0)
(0.343943 -0.0633694 2.02216e-21)
(0.309344 -0.117454 2.54713e-17)
(0.26504 -0.278189 -5.0869e-18)
(0.320609 0.0169783 -4.71375e-22)
(0.327825 -0.0411877 -1.52053e-17)
(0.211106 -0.141677 -5.18894e-18)
(0.313294 0.00381948 4.07614e-17)
(0.157959 0.0651737 1.87048e-17)
(0.346318 0.103357 4.56867e-17)
(0.324456 -0.0153225 -2.53597e-17)
(0.304845 -0.122215 -1.52779e-17)
(0.276597 -0.107886 2.55458e-17)
(0.206345 0.247922 -4.06852e-17)
(0.344188 -0.0826108 2.03413e-17)
(0.270798 -0.189662 -2.54753e-17)
(0.262225 -0.0930949 2.05328e-17)
(0.269515 -0.0854756 6.54718e-22)
(0.278266 0.276421 0)
(0.341489 -0.0543834 3.44637e-17)
(0.302 0.0160907 1.53179e-17)
(0.274918 -0.0734084 2.08388e-17)
(0.327896 0.018755 4.00848e-17)
(0.323673 -0.12026 2.0376e-17)
(0.304606 -0.0320021 5.11449e-18)
(0.321302 -0.134238 -1.52822e-17)
(0.239349 -0.120215 -2.04938e-17)
(0.324844 -0.105378 5.09534e-18)
(0.325163 -0.089149 0)
(0.324706 -0.072263 -5.10147e-18)
(0.317232 -0.147468 -5.08656e-18)
(0.341991 -0.0742907 -2.03362e-17)
(0.20994 -0.149123 4.11052e-17)
(0.0962025 0.0758141 -1.90483e-17)
(0.32354 -0.0550879 -1.53138e-17)
(0.317014 0.0102428 -2.03593e-17)
(0.321685 -0.0333349 -1.53117e-17)
(0.239681 -0.0506516 5.09038e-18)
(0.333762 -0.00237455 1.47679e-17)
(0.295231 -0.0109509 2.03942e-17)
(0.233125 -0.0727753 1.0021e-17)
(0.204872 -0.0916691 0)
(0.194896 0.0283803 -1.08903e-17)
(0.0840489 0.09681 -3.49494e-17)
(0.0511156 -0.0778673 4.17753e-17)
(0.223997 0.0121561 4.73319e-18)
(0.278419 -0.121749 -2.04267e-17)
(0.264365 -0.106635 5.11613e-18)
(0.108848 -0.0957805 0)
(0.231957 -0.020938 -4.20202e-17)
(0.123479 0.067261 0)
(0.317994 -0.0103255 -2.54993e-17)
(0.344946 -0.0991723 2.0331e-17)
(0.252282 -0.0952959 2.04869e-17)
(0.317329 -0.165096 -2.02905e-17)
(0.338891 -0.0556327 2.53451e-17)
(0.343259 -0.0924291 -2.03222e-17)
(0.320424 -0.127331 0)
(0.347506 -0.113933 -4.06439e-17)
(0.329902 0.00809227 -2.44091e-17)
(0.316975 -0.140385 2.54574e-17)
(0.297557 0.0247053 2.04341e-17)
(0.322309 -0.113297 -1.52802e-17)
(0.3231 -0.0980914 0)
(0.323095 -0.0815584 5.09997e-18)
(0.302886 -0.0427389 -1.02306e-17)
(0.303097 -0.164077 -5.08381e-18)
(0.308419 -0.0307343 1.53282e-17)
(0.322364 -0.0650421 0)
(0.250593 -0.0593671 2.25953e-17)
(0.25763 -0.0986037 -2.56075e-17)
(0.321271 -0.0465248 4.59048e-17)
(0.23421 -0.0829883 0)
(0.196959 -0.0742107 1.02629e-17)
(0.264092 -0.109712 0)
(0.305248 -0.127654 5.09305e-18)
(0.223156 -0.0840911 -2.56829e-17)
(0.331688 0.0382328 -1.7467e-17)
(0.287823 -0.182283 1.52647e-17)
(0.221121 -0.0828603 0)
(0.245028 -0.0941239 -2.70243e-17)
(0.247436 0.202713 2.04112e-17)
(0.261618 -0.121597 -5.11433e-18)
(0.255704 -0.0676328 -2.24318e-17)
(0.310246 0.00102582 -2.04068e-17)
(0.298558 -0.126974 -5.13197e-18)
(0.31901 -0.0227918 0)
(0.213793 -0.126961 0)
(0.311555 -0.137319 -5.08953e-18)
(0.288773 -0.136519 0)
(0.274495 -0.14054 2.5522e-17)
(0.198465 -0.0923671 0)
(0.305772 -0.141464 5.09099e-18)
(0.313352 0.000822388 0)
(0.317776 -0.112531 1.52765e-17)
(0.340894 -0.0940954 0)
(0.276697 -0.126314 2.04267e-17)
(0.321192 -0.0057961 5.08802e-18)
(0.301869 -0.00286779 3.57632e-17)
(0.298116 -0.135856 -2.54736e-17)
(0.310737 -0.160139 0)
(0.321621 0.0080094 0)
(0.265753 -0.0119578 2.00895e-17)
(0.240376 -0.092088 3.16821e-17)
(0.212831 -0.0786132 0)
(0.221898 -0.102603 0)
(0.325292 -0.0305784 3.55541e-17)
(0.318136 -0.0658176 2.0411e-17)
(0.287179 -0.00456452 -5.20059e-18)
(0.346784 0.0747503 0)
(0.297235 0.00530827 2.0444e-17)
(0.297997 -0.0428508 1.02394e-17)
(0.332622 0.00857572 -5.08869e-18)
(0.289544 0.0826064 0)
(0.326178 0.0032886 5.06724e-18)
(0.268279 0.00604688 -9.20078e-18)
(0.316886 -0.00577346 0)
(0.315989 0.00371386 0)
(0.302643 -0.0228825 -1.02228e-17)
(0.311412 -0.152629 5.08336e-18)
(0.306488 -0.00994327 -1.02117e-17)
(0.345331 -0.107941 5.08324e-18)
(0.207914 -0.0782952 1.02388e-17)
(0.163882 0.269673 9.49416e-18)
(0.3145 0.00125756 0)
(0.315147 -0.00296609 1.01955e-17)
(0.307681 -0.000273953 2.16988e-23)
(0.299208 -0.00391586 5.11382e-18)
(0.327846 0.205575 0)
(0.312573 -0.00616255 5.10387e-17)
(0.244914 -0.106457 2.56276e-17)
(0.316234 -0.00146711 -5.0987e-18)
(0.274797 -0.00338612 -1.52492e-17)
(0.318503 0.00261317 0)
(0.224853 -0.0968861 -2.66607e-17)
(0.225332 -0.0863916 3.62175e-17)
(0.3051 -0.147843 -5.08919e-18)
(0.246393 -0.101968 5.12511e-18)
(0.192982 -0.118898 2.19069e-17)
(0.303803 -0.0118329 -3.06726e-17)
(0.335251 0.108879 0)
(0.3447 0.189078 -2.52669e-17)
(0.292226 0.00525912 0)
(0.315578 -0.125573 -2.03614e-17)
(0.317944 0.00201191 4.58839e-17)
(0.30163 -0.010128 1.0517e-21)
(0.348699 -0.123921 2.03036e-17)
(0.311284 -0.0588899 2.55416e-17)
(0.346148 -0.112424 0)
(0.31134 -0.13108 -5.09048e-18)
(0.314607 -0.119223 1.52696e-17)
(0.260621 0.26557 0)
(0.287585 0.0330714 5.3824e-18)
(0.354652 0.0600003 2.02816e-17)
(0.295587 -0.157182 -1.5272e-17)
(0.281526 -0.140468 0)
(0.315441 -0.0258992 0)
(0.313034 0.00546109 0)
(0.0933638 0.414184 0)
(0.297236 -0.150462 2.03651e-17)
(0.105324 0.202649 2.59838e-17)
(0.350235 -0.143495 -2.03792e-17)
(0.327275 0.00103529 -5.09145e-18)
(0.319714 0.0676277 -2.03549e-17)
(0.297704 -0.118198 1.52988e-17)
(0.292685 0.0246662 0)
(0.321067 -0.126394 5.06785e-18)
(0.298962 0.15833 4.57813e-17)
(0.342813 0.0432874 0)
(0.312501 -0.0162635 -2.55211e-17)
(0.300058 0.183792 -5.08242e-18)
(0.340314 0.0825063 -1.52276e-17)
(0.334397 0.0685571 0)
(0.296081 -0.0337512 4.07442e-22)
(0.321158 0.015034 -4.07936e-17)
(0.291412 -0.0138575 -5.20987e-18)
(0.344899 -0.125989 0)
(0.261894 0.201554 0)
(0.19559 -0.101194 -1.70073e-17)
(0.349083 -0.154284 -3.8396e-21)
(0.314755 0.00398072 -2.03922e-17)
(0.309146 -0.0189802 -1.53319e-17)
(0.346449 0.0290592 -2.03031e-17)
(0.215274 -0.11925 0)
(0.275552 0.0156395 2.39604e-17)
(0.298838 -0.0234664 1.03362e-17)
(0.353728 0.0517159 -1.14673e-21)
(0.287769 0.0144919 -5.20994e-18)
(0.261441 0.0810897 0)
(0.28651 -0.152218 -3.54371e-17)
(0.328756 -0.117623 -4.09452e-17)
(0.289595 0.094037 0)
(0.318053 0.0946272 2.03468e-17)
(0.35044 0.0389639 2.03319e-17)
(0.265998 -0.170132 0)
(0.319403 0.187085 -2.02817e-17)
(0.346778 -0.12959 -2.02546e-17)
(0.343207 -0.120132 2.0889e-17)
(0.348567 0.14722 1.5156e-17)
(0.299139 0.0995004 0)
(0.203411 0.117406 -2.01006e-17)
(0.345661 0.0664166 -2.03319e-17)
(0.296955 -0.014325 5.21117e-18)
(0.349994 -0.131403 0)
(0.360163 0.108763 0)
(0.302984 -0.0131042 -1.52929e-17)
(0.341224 -0.140613 2.02649e-17)
(0.325449 0.0832139 -5.08832e-18)
(0.306963 0.0915875 0)
(0.218944 0.0749437 0)
(0.316196 -0.105891 -3.56443e-17)
(0.315838 -0.0583846 -5.10307e-18)
(0.192437 -0.127216 5.5171e-18)
(0.331662 0.0100951 2.54682e-17)
(0.310733 -0.0399713 1.53423e-17)
(0.30918 -0.0508724 -3.57586e-17)
(0.36378 0.0842901 -2.53527e-17)
(0.368394 0.11112 -2.02475e-17)
(0.360612 0.146326 2.52837e-17)
(0.363536 0.0795765 4.55531e-17)
(0.31728 -0.0477996 1.53226e-17)
(0.314956 -0.0385956 -1.53203e-17)
(0.28936 0.146149 -5.18458e-18)
(0.28721 -0.142245 0)
(0.339473 0.0243383 -4.06613e-17)
(0.316421 -0.0747585 -2.03959e-17)
(0.297677 0.0762953 -2.04112e-17)
(0.326048 -0.139141 2.02735e-17)
(0.323358 0.00733227 -2.03723e-17)
(0.305611 0.0670021 0)
(0.330397 0.261882 0)
(0.098697 -0.416405 0)
(0.318684 -0.0980445 2.03835e-17)
(0.228609 0.236504 0)
(0.290916 0.167542 -1.52604e-17)
(0.309783 0.0684407 0)
(0.274522 0.163289 0)
(0.281143 0.235533 0)
(0.317422 0.239648 -5.06477e-18)
(0.304957 0.078178 0)
(0.276244 -0.181878 2.03726e-17)
(0.318714 -0.0820609 -5.09818e-18)
(0.348926 0.218546 0)
(0.231198 0.188738 -2.58683e-17)
(0.335679 -0.169157 -2.03392e-17)
(0.289116 0.191321 0)
(0.316686 -0.0908502 5.096e-18)
(0.192328 -0.215511 0)
(0.304003 -0.233277 1.53575e-17)
(0.294679 0.210033 0)
(0.24241 0.0900046 0)
(0.336623 -0.184108 -2.03836e-17)
(0.335636 0.242361 0)
(0.363811 0.174677 -2.0184e-17)
(0.315151 0.218409 5.06444e-18)
(0.314097 -0.152826 0)
(0.30481 -0.0512327 1.53455e-17)
(0.346973 0.204046 5.05349e-18)
(0.235163 0.0608834 0)
(0.230475 0.171648 -1.3881e-17)
(0.304664 -0.0840587 -2.55389e-17)
(0.344042 -0.155057 3.77131e-21)
(0.290327 0.288036 -2.02316e-17)
(0.23055 0.141387 2.0386e-17)
(0.357854 0.207628 -2.01941e-17)
(0.300497 0.0353389 0)
(0.240422 0.183003 -1.52433e-17)
(0.313957 0.279235 0)
(0.295886 -0.0765052 -2.04745e-17)
(0.366957 0.167055 0)
(0.323468 0.0551433 5.09513e-18)
(0.276685 0.333217 5.05595e-18)
(0.362959 0.131502 0)
(0.329353 0.194582 5.05374e-18)
(0.273619 0.143487 1.78361e-17)
(0.34824 0.22106 1.51443e-17)
(0.108384 0.338514 0)
(0.305193 0.0257067 -1.53224e-17)
(0.321338 -0.169971 0)
(0.265909 0.167477 0)
(0.266087 0.149308 -1.83642e-17)
(0.338458 0.250966 0)
(0.30784 -0.185142 0)
(0.290818 0.0436976 -5.33233e-18)
(0.184775 -0.182422 2.58515e-17)
(0.310606 0.29418 -2.0201e-17)
(0.334761 0.0344179 -2.0368e-17)
(0.165062 -0.316727 2.12461e-17)
(0.21001 0.152449 2.06971e-17)
(0.302606 0.24756 0)
(0.355074 0.181111 -5.05591e-18)
(0.259305 0.184333 0)
(0.163195 -0.163735 -1.06778e-17)
(0.325105 0.2654 6.87363e-21)
(0.320723 0.107307 0)
(0.283215 -0.0672877 -2.60347e-17)
(0.271276 0.182033 0)
(0.270034 0.120014 -5.08374e-18)
(0.197003 0.209132 1.61662e-17)
(0.326615 -0.199611 2.0366e-17)
(0.293992 0.311292 2.02097e-17)
(0.315305 0.0428698 1.5285e-17)
(0.241925 0.17087 -8.55907e-18)
(0.323339 0.0251273 4.07342e-17)
(0.320984 0.237661 2.02209e-17)
(0.260947 0.173748 -5.08107e-18)
(0.27182 0.216539 0)
(0.238284 0.319968 0)
(0.0988094 0.180917 2.07975e-17)
(0.334959 0.0493517 1.52472e-17)
(0.292998 -0.0689729 2.60258e-17)
(0.177275 -0.168975 -5.12866e-18)
(0.368142 0.136127 0)
(0.161484 -0.181456 0)
(0.311682 -0.0752601 0)
(0.24455 -0.192529 -2.03833e-17)
(0.190484 0.36748 0)
(0.100855 0.16779 -2.11803e-17)
(0.270539 -0.165839 3.58706e-17)
(0.28581 0.00358759 4.07322e-17)
(0.315219 0.157939 -2.03211e-17)
(0.302254 -0.0768215 0)
(0.320056 0.142813 -2.03191e-17)
(0.31635 0.0318959 0)
(0.291623 0.208249 0)
(0.249445 0.29972 0)
(0.16781 0.237589 1.55154e-17)
(0.123974 0.331135 0)
(0.117061 -0.412549 0)
(0.303944 0.0351544 0)
(0.164566 0.203712 0)
(0.209188 -0.324591 -5.13927e-18)
(0.117983 0.371234 0)
(0.309617 -0.0838335 2.55055e-17)
(0.270513 0.332531 -5.07038e-18)
(0.130979 0.303384 0)
(0.319681 0.110775 -2.03507e-17)
(0.308996 0.0235854 -5.10183e-18)
(0.152657 -0.188619 5.33447e-18)
(0.301034 0.248955 0)
(0.172179 0.192384 -1.9972e-17)
(0.234901 0.356211 -2.03158e-17)
(0.297182 0.0443753 5.20548e-18)
(0.174906 0.222412 -1.54627e-17)
(0.299075 0.112078 2.59776e-17)
(0.174907 -0.18983 -2.06104e-17)
(0.250209 0.33767 0)
(0.312977 -0.201564 0)
(0.270455 -0.198217 0)
(0.111126 0.166055 0)
(0.145672 0.240915 -1.54809e-17)
(0.170372 0.3968 -5.06857e-18)
(0.21488 0.356212 2.03081e-17)
(0.217429 -0.141004 1.22042e-17)
(0.309246 0.118576 -5.13463e-18)
(0.159104 -0.171885 2.15169e-17)
(0.291167 0.066869 0)
(0.123282 0.208767 -1.64404e-17)
(0.349805 0.145168 5.0653e-18)
(0.309352 -0.0679825 0)
(0.303538 0.300283 -2.02443e-17)
(0.346273 0.167359 5.06275e-18)
(0.120003 0.326773 -2.57171e-17)
(0.177961 -0.204608 0)
(0.199824 0.372141 -4.06623e-17)
(0.092343 0.182993 0)
(0.147742 0.354014 0)
(0.0768192 -0.259076 5.35078e-18)
(0.127899 0.346535 0)
(0.123883 0.241053 -1.55159e-17)
(0.152962 0.228419 -5.16242e-18)
(0.152441 -0.19898 -2.59149e-17)
(0.308352 0.0459014 5.10308e-18)
(0.305955 0.055911 0)
(0.222982 -0.297755 -4.10089e-17)
(0.176775 0.218249 4.96952e-18)
(0.335001 0.135622 1.52331e-17)
(0.300071 -0.217204 -1.52736e-17)
(0.269894 0.298258 -2.0341e-17)
(0.270677 0.0372704 0)
(0.304713 -0.0683698 2.04501e-17)
(0.284386 0.311741 4.55662e-17)
(0.280073 0.0426034 -2.65686e-17)
(0.327951 0.172273 2.02834e-17)
(0.11972 -0.30374 -2.0822e-17)
(0.102108 0.205553 -1.85757e-17)
(0.131463 0.229768 -5.17471e-18)
(0.335007 0.116158 -2.03015e-17)
(0.306412 0.0282996 0)
(0.120367 0.424024 0)
(0.330507 -0.198553 -5.11095e-18)
(0.063556 -0.430201 0)
(0.285965 0.11496 2.54241e-17)
(0.296852 -0.0606101 0)
(0.317207 0.15452 0)
(0.166253 0.410436 2.5274e-17)
(0.13425 0.339487 0)
(0.302507 -0.0606385 -2.04514e-17)
(0.181316 0.368981 -5.41347e-21)
(0.299462 0.158084 -2.02623e-17)
(0.231183 -0.205616 2.04692e-17)
(0.144868 -0.408373 5.2037e-18)