/*--------------------------------*- C++ -*----------------------------------*\
  =========                 |
  \\      /  F ield         | OpenFOAM: The Open Source CFD Toolbox
   \\    /   O peration     | Website:  https://openfoam.org
    \\  /    A nd           | Version:  9
     \\/     M anipulation  |
\*---------------------------------------------------------------------------*/
FoamFile
{
    format      ascii;
    class       volScalarField;
    location    "0.94";
    object      p;
}
// * * * * * * * * * * * * * * * * * * * * * * * * * * * * * * * * * * * * * //

dimensions      [0 2 -2 0 0 0 0];

internalField   nonuniform List<scalar> 
578
(
-1.29206e-21
-7.44043e-21
1.67374e-22
4.25737e-21
-1.00631e-20
9.98836e-21
1.09531e-20
-7.31858e-21
-5.90419e-21
-1.31919e-20
6.91979e-21
-6.90983e-21
3.90685e-21
-8.66948e-21
9.68251e-21
3.45124e-21
-1.53248e-21
-1.03478e-21
-5.30653e-21
-3.88346e-21
4.29259e-21
3.98177e-21
5.00118e-21
6.29422e-21
6.15446e-21
-5.24742e-21
3.2777e-21
2.41356e-21
-4.66924e-21
3.08745e-21
2.95822e-21
1.08046e-20
-5.80166e-22
4.37896e-21
9.57434e-21
-1.55255e-21
-8.45833e-21
-6.98796e-21
2.85131e-21
-1.18037e-20
-8.99495e-21
-6.49882e-21
-8.20761e-21
9.76897e-21
2.34229e-23
1.26892e-20
1.05203e-20
-5.99583e-21
3.36247e-21
3.12311e-21
1.34454e-20
3.90097e-21
1.30977e-20
4.34703e-21
3.75555e-21
-6.01352e-22
4.94448e-21
4.4217e-21
1.22378e-21
-3.51941e-21
-8.13938e-22
-3.24083e-21
-3.60983e-21
-9.28394e-21
3.69576e-21
8.55495e-21
-2.02816e-22
7.90898e-21
6.9563e-21
-4.74842e-21
4.66536e-21
1.05524e-20
3.7362e-21
-5.12378e-21
6.89767e-21
-9.82491e-21
-8.02672e-21
-6.38998e-21
3.76518e-21
9.41425e-21
1.13264e-20
-5.23982e-21
1.58935e-20
1.55683e-20
3.46368e-21
5.65546e-21
1.51483e-20
7.83538e-22
-5.92219e-21
4.33091e-21
3.26468e-21
6.1143e-21
6.93436e-21
4.03593e-21
7.78666e-21
1.05557e-20
3.73597e-21
3.76131e-21
-1.2085e-20
1.08464e-20
8.42222e-21
-5.4872e-21
3.43706e-21
8.28902e-21
3.59657e-21
-1.02852e-20
7.26205e-21
-1.03206e-20
6.30392e-21
-8.40478e-21
-1.94472e-21
-5.39806e-21
-4.4026e-21
9.00062e-21
9.93206e-21
3.56956e-21
4.17138e-21
-8.8435e-22
4.14407e-21
3.67648e-21
-4.56533e-21
1.97754e-20
-6.58285e-21
4.13048e-21
1.31561e-20
2.53644e-21
1.02536e-20
3.03238e-21
6.4032e-21
3.2275e-22
5.72176e-21
2.16907e-21
4.06443e-21
-4.94396e-21
5.04405e-21
7.06829e-21
-9.12801e-21
3.59336e-21
6.57438e-21
6.3055e-21
6.80159e-21
1.06926e-21
5.96277e-21
1.49875e-21
-5.79918e-21
5.05789e-21
1.66228e-21
2.99338e-21
-6.329e-21
-1.00676e-21
-6.67786e-21
5.06583e-21
-8.92291e-21
-4.55029e-21
9.9832e-21
3.12664e-21
-2.64307e-21
4.16944e-21
1.10807e-20
-6.39784e-21
-7.06645e-21
-6.82545e-21
7.68346e-21
-6.53977e-21
-1.24702e-22
1.17471e-21
1.31129e-21
9.59501e-21
4.4235e-21
3.61465e-21
-5.59584e-21
-9.77381e-21
7.54897e-21
4.12216e-21
8.96871e-21
3.61762e-21
3.75808e-21
-1.43654e-21
-6.64586e-21
-3.10321e-21
9.8179e-21
-4.51887e-21
3.90934e-21
3.76581e-21
7.37473e-21
3.18302e-21
2.2691e-21
9.94841e-21
9.48347e-21
-5.99134e-21
-8.59496e-21
-7.6826e-21
6.93214e-21
9.43893e-21
-9.55773e-21
3.7124e-21
4.78321e-21
2.70672e-21
8.9138e-21
-8.45473e-21
4.27772e-21
3.85895e-21
2.04513e-20
3.46976e-21
3.65207e-21
-8.75413e-21
8.30945e-21
8.0664e-22
-7.72943e-21
4.0514e-21
5.88474e-22
8.42763e-21
4.80148e-21
3.8208e-21
5.16826e-21
4.02318e-21
9.38035e-21
-8.39322e-21
1.00747e-20
2.37111e-21
-8.88131e-21
8.36033e-21
-3.05117e-21
-8.21559e-21
1.03913e-20
2.75006e-21
3.74012e-21
4.57017e-21
2.92211e-21
-3.78536e-21
-1.14202e-20
1.95596e-20
4.73488e-21
-3.07098e-21
3e-21
-5.20103e-21
-8.72941e-21
1.01385e-20
3.99276e-21
-5.69679e-22
9.08081e-21
-9.54267e-21
3.5767e-21
8.5431e-21
2.70437e-21
-5.85216e-21
6.12082e-21
-1.1089e-20
5.95683e-21
3.82568e-21
3.74181e-21
3.75706e-21
1.18441e-20
1.69219e-21
1.10557e-20
-1.09871e-21
-1.89545e-21
8.20264e-21
-6.42524e-21
1.75458e-20
-2.41937e-21
9.99357e-21
4.80021e-21
4.93249e-21
-4.89769e-21
-3.92346e-21
2.99922e-21
-9.16523e-22
-8.36165e-21
3.34416e-21
-3.30465e-21
1.82131e-21
2.15514e-21
3.65211e-21
3.91034e-21
3.85587e-21
3.37186e-21
9.87103e-22
9.81195e-21
4.15956e-21
-9.31893e-21
3.63888e-21
3.65652e-21
3.80329e-21
3.85346e-21
5.59253e-21
-3.20829e-21
3.06228e-21
4.78444e-21
4.41178e-21
1.89252e-21
3.67314e-21
3.38918e-21
8.80748e-21
4.71353e-21
4.85995e-21
-9.08488e-21
-2.95847e-22
3.3894e-21
4.71949e-21
3.90248e-21
-1.83286e-21
3.88692e-21
2.44973e-21
4.83115e-21
3.71218e-21
1.04918e-21
-1.67581e-21
3.96385e-21
3.88945e-21
-1.72437e-21
3.13575e-21
3.75484e-21
-2.14628e-21
4.37606e-21
3.68764e-21
3.14849e-21
-1.64723e-21
-2.96056e-21
4.36686e-21
3.52171e-21
3.61674e-21
3.74009e-21
5.40096e-21
3.65152e-21
3.29371e-21
8.04771e-21
7.70416e-21
-9.03523e-21
3.09286e-21
3.6127e-21
7.37372e-21
3.52642e-21
3.41321e-21
4.46412e-21
4.82139e-21
3.93715e-21
3.5011e-21
7.71281e-22
3.38855e-21
3.70957e-21
3.7543e-21
3.00086e-21
-5.24377e-22
4.22983e-21
1.16142e-20
7.08762e-21
5.49723e-21
-5.70785e-21
7.31638e-21
-6.9129e-21
-8.28269e-21
8.91293e-21
8.76295e-22
-1.02615e-20
1.23455e-20
4.81627e-21
1.01945e-20
-9.6357e-21
1.14608e-20
3.51021e-21
-4.44371e-22
4.48218e-21
-4.19045e-21
3.7024e-21
3.66609e-21
2.91965e-21
9.9086e-21
3.91888e-21
1.45633e-21
-6.97459e-21
-3.62571e-21
4.73495e-21
7.60641e-21
5.43238e-21
1.52828e-20
3.40105e-21
6.90491e-21
-7.28316e-21
1.16402e-21
3.67988e-21
-7.60596e-21
8.28395e-21
5.16632e-21
4.57353e-21
3.26768e-21
3.24911e-21
1.14856e-20
8.86271e-21
-5.05284e-21
3.83415e-21
4.65093e-21
5.09591e-21
-1.20501e-21
1.67324e-21
3.8383e-21
1.10273e-20
2.30914e-21
4.53114e-21
6.18546e-21
1.97972e-21
9.34051e-21
3.12403e-21
-2.33698e-21
3.57606e-21
2.15072e-21
9.07045e-21
9.67094e-22
6.02718e-21
8.31697e-21
2.53279e-21
-3.37649e-21
-1.7847e-22
3.13754e-21
6.42134e-22
6.42885e-21
-6.79486e-21
7.04095e-21
-7.92987e-21
3.18889e-21
6.58246e-21
7.79844e-21
-6.47641e-21
1.00336e-20
4.25121e-21
-2.40893e-21
-5.63746e-21
-2.19247e-21
-6.50549e-21
-2.29846e-21
5.57737e-21
5.23805e-21
4.18335e-21
3.85045e-21
3.74978e-21
-3.65795e-21
-7.49106e-21
-1.38663e-21
-3.95584e-21
1.03098e-21
-8.27701e-22
4.02215e-21
4.24836e-21
3.15442e-21
7.27562e-21
1.82993e-21
3.01608e-21
6.05424e-21
5.5806e-21
3.08892e-21
6.65888e-21
3.47766e-21
8.04219e-21
3.98031e-21
8.81045e-21
3.56472e-21
-7.1561e-21
4.7576e-21
5.46426e-21
-1.21925e-21
1.62164e-20
7.82588e-21
-1.48662e-21
-3.86719e-21
1.97834e-21
-4.67893e-21
3.98188e-21
-8.70917e-21
2.83118e-22
-3.55064e-21
2.44233e-21
2.36638e-21
5.2381e-21
3.21152e-21
1.86154e-21
-8.04081e-21
-4.04337e-21
-4.82011e-21
-1.18169e-21
-4.24703e-21
5.48089e-21
6.49889e-21
8.57851e-22
2.49411e-21
3.21988e-21
-3.22986e-21
1.153e-21
3.3311e-21
3.45741e-21
8.49666e-21
4.13857e-21
6.14306e-21
-1.86447e-21
4.13659e-21
3.44916e-21
4.68475e-21
3.48632e-21
5.2407e-21
3.37754e-21
4.10706e-21
-9.35536e-21
2.05894e-21
-3.34647e-21
3.93218e-21
-4.51577e-22
3.32926e-21
5.84512e-21
4.34055e-21
3.27506e-21
3.43791e-21
3.09879e-21
1.20442e-20
4.16682e-21
1.27881e-20
7.07959e-21
3.01911e-21
-7.42498e-21
-1.17172e-20
8.86047e-21
4.04274e-21
6.28239e-21
6.66948e-21
1.44189e-21
-4.78693e-21
-5.67691e-21
3.82156e-21
2.27249e-21
4.42444e-21
-5.89439e-21
-4.04044e-21
-6.2082e-21
-7.87305e-21
2.59183e-21
2.94931e-21
1.07042e-20
5.4768e-21
8.33788e-21
5.04583e-21
6.51255e-21
3.24745e-21
4.22068e-21
1.01099e-20
-2.90028e-21
-4.71282e-21
1.20124e-20
4.69132e-21
6.94226e-21
-7.73354e-22
-2.30437e-21
-4.2302e-21
8.29682e-21
8.32977e-21
-4.01055e-21
9.35921e-21
7.94244e-21
5.35171e-22
-6.7763e-21
2.66876e-21
3.81703e-21
3.25811e-21
3.42593e-21
1.03908e-20
-6.43718e-21
3.32909e-21
4.13695e-21
8.196e-21
3.97096e-21
-1.17794e-21
3.4252e-21
4.03918e-21
5.53137e-21
-1.5086e-21
8.41298e-21
-3.88818e-21
8.99381e-22
6.69229e-21
5.60704e-21
4.46005e-21
)
;

boundaryField
{
    front
    {
        type            empty;
    }
    back
    {
        type            empty;
    }
    bottom
    {
        type            uniformFixedValue;
        uniformValue    
        {
            type            scale;
            scale           
            {
                type            squarePulse;
                start           0.3;
                duration        0.3;
            }
            xScale          
            {
                type            constant;
                value           1;
            }
            value           
            {
                type            constant;
                value           15.1;
            }
        }
        value           uniform 0;
    }
    left
    {
        type            zeroGradient;
    }
    top
    {
        type            zeroGradient;
    }
    right
    {
        type            zeroGradient;
    }
    inner_arc
    {
        type            zeroGradient;
    }
}


// ************************************************************************* //
