/*--------------------------------*- C++ -*----------------------------------*\
  =========                 |
  \\      /  F ield         | OpenFOAM: The Open Source CFD Toolbox
   \\    /   O peration     | Website:  https://openfoam.org
    \\  /    A nd           | Version:  9
     \\/     M anipulation  |
\*---------------------------------------------------------------------------*/
FoamFile
{
    format      ascii;
    class       surfaceScalarField;
    location    "1.59";
    object      phi;
}
// * * * * * * * * * * * * * * * * * * * * * * * * * * * * * * * * * * * * * //

dimensions      [0 3 -1 0 0 0 0];

internalField   nonuniform List<scalar> 
1363
(
-3.70228e-07
1.24943e-07
2.45285e-07
-1.62333e-07
2.74355e-07
-1.12022e-07
9.71849e-07
-6.61717e-07
-3.10131e-07
-1.82803e-07
4.39601e-07
-2.56799e-07
8.38657e-07
1.33192e-07
7.49092e-07
-9.43539e-08
-6.54738e-07
-3.64374e-07
3.64374e-07
3.83883e-07
3.65209e-07
-2.82765e-07
2.93954e-07
-1.11899e-08
1.10279e-08
-2.93792e-07
-3.64268e-07
3.26146e-07
3.81221e-08
3.74997e-07
-4.1979e-07
4.4793e-08
2.96675e-07
-4.79477e-07
-4.45002e-07
4.1978e-07
2.52222e-08
1.52729e-07
2.22267e-07
-2.11546e-07
4.92127e-08
1.00106e-07
-3.29032e-07
2.28927e-07
-1.61503e-07
-2.08725e-07
3.86909e-07
1.32562e-07
-5.19471e-07
-3.78547e-08
3.78547e-08
1.23296e-07
-2.31899e-08
-7.62001e-08
-3.4359e-07
3.29296e-07
-2.95166e-07
-3.41292e-08
-8.82714e-08
4.49195e-07
-3.60924e-07
-2.00899e-07
-1.63369e-07
3.07788e-07
-3.9606e-07
8.16802e-07
-7.39042e-07
-7.77599e-08
-8.46104e-08
4.13906e-07
-3.93253e-07
5.60005e-07
-1.66752e-07
3.4201e-08
-3.80166e-07
3.45965e-07
-2.11192e-07
1.13546e-07
9.76459e-08
2.16983e-08
7.95104e-07
1.20383e-07
-5.13635e-07
-5.84402e-07
9.24693e-08
4.91933e-07
7.29107e-07
-6.28527e-07
-1.0058e-07
-3.99287e-07
-4.50455e-07
8.49742e-07
1.84274e-07
-4.88954e-07
3.0468e-07
2.99302e-07
-7.30538e-08
-2.26249e-07
-3.62605e-07
5.46878e-07
9.44196e-08
3.54775e-07
5.39506e-07
-4.81774e-07
-5.77313e-08
9.66633e-07
-1.78134e-07
-7.88499e-07
-2.2558e-07
3.2e-07
-1.87305e-07
-1.77069e-07
2.49401e-07
1.14973e-07
4.68029e-07
-4.13455e-08
-4.26683e-07
-5.46172e-07
8.82675e-08
4.57904e-07
-2.06949e-08
-5.63707e-07
1.23784e-08
5.27127e-07
-1.9233e-07
-2.52672e-07
4.591e-07
-7.21909e-08
-7.87814e-08
-2.16385e-07
-8.41123e-07
4.41836e-07
5.12304e-07
-1.99562e-07
-3.12741e-07
3.89735e-07
-3.78707e-07
2.14563e-07
-3.37755e-07
1.23192e-07
-2.46666e-07
2.46666e-07
6.59729e-09
3.83138e-07
-1.8657e-07
-6.0096e-08
-1.9472e-08
3.69363e-07
-3.49891e-07
-2.3313e-07
2.6733e-07
8.15541e-07
-6.99805e-07
-1.15736e-07
-7.4475e-09
9.99168e-08
-2.2806e-07
3.53003e-07
3.01064e-07
-1.76188e-09
1.36633e-07
-3.16653e-09
-1.33467e-07
7.64993e-08
5.61023e-07
-5.12788e-07
-4.82347e-08
8.36762e-07
-6.22199e-07
5.82064e-07
-2.67113e-07
-3.1495e-07
1.65192e-07
1.09164e-07
-2.10887e-07
2.1851e-07
-7.62364e-09
-1.65107e-07
1.65107e-07
-1.02913e-07
-2.77253e-07
3.98439e-07
1.13865e-07
2.73393e-08
-6.5194e-08
3.13115e-08
6.54326e-09
2.93019e-08
-2.19645e-07
8.4536e-09
-1.09624e-07
-1.01922e-07
5.28356e-08
2.19726e-07
-2.72561e-07
4.21334e-07
-2.34929e-07
2.48068e-08
2.10122e-07
2.70095e-08
3.47005e-08
-3.78671e-08
-9.90118e-07
9.51659e-07
3.84588e-08
-4.70604e-08
2.75884e-08
-4.53298e-08
5.6038e-08
-1.07082e-08
1.0144e-07
3.1834e-07
-1.4558e-07
-8.93486e-08
1.21096e-07
8.45536e-07
3.06164e-07
-4.43819e-08
-2.61782e-07
-3.87689e-07
3.94286e-07
-3.63682e-07
2.59278e-08
-2.86938e-07
4.1013e-07
-2.23812e-07
1.60326e-07
6.34855e-08
4.26902e-07
-6.05036e-07
3.16891e-08
-7.70189e-08
-4.90671e-07
5.43507e-07
6.79347e-08
2.20741e-07
-1.26393e-08
-2.08102e-07
4.86794e-08
-4.36368e-07
-8.70717e-08
3.94759e-07
-2.73799e-07
-1.31392e-08
-1.46635e-09
2.68797e-07
3.61713e-08
4.31858e-07
-4.24668e-08
5.5309e-07
-5.10623e-07
4.05831e-08
5.2044e-07
3.88097e-08
-5.51598e-07
8.72582e-08
7.49504e-07
8.51043e-08
-7.07304e-07
-9.52951e-08
-7.41081e-08
-1.36779e-07
5.67803e-08
2.69366e-07
3.06164e-07
6.07348e-08
-3.48969e-07
2.88235e-07
3.21353e-07
1.18249e-07
-1.49917e-07
2.17851e-07
1.62011e-07
-8.19693e-07
6.57681e-07
-2.17851e-07
2.16385e-07
-8.02641e-07
-2.55513e-08
8.28192e-07
-2.2558e-07
-1.15894e-07
1.92117e-07
-1.7015e-07
-4.94956e-08
-7.87814e-08
4.40383e-07
-3.2e-07
-4.40383e-07
3.26826e-07
1.13556e-07
-8.41123e-07
-2.3266e-07
3.65222e-07
2.3266e-07
-2.43014e-07
1.03544e-08
-3.65222e-07
4.53489e-07
-5.32882e-07
5.12187e-07
5.32882e-07
-4.92299e-07
2.43014e-07
-2.8436e-07
8.66674e-07
-7.79416e-07
-4.53489e-07
4.92299e-07
-6.94312e-07
7.79416e-07
6.94312e-07
-6.81933e-07
-5.12187e-07
6.81933e-07
-1.69746e-07
2.8436e-07
-3.26826e-07
-3.45604e-08
1.19549e-07
-2.89699e-07
4.29787e-07
-4.59034e-08
-1.5886e-07
1.31422e-07
-3.98536e-07
9.56145e-08
1.22896e-07
4.19277e-07
2.54935e-07
-6.74211e-07
-3.16658e-07
-6.7346e-07
2.69713e-07
1.60073e-07
1.39289e-07
-6.24394e-07
4.85106e-07
5.59717e-07
-6.04099e-07
-4.7707e-07
6.27237e-07
-1.50167e-07
-6.87956e-07
5.94298e-08
-8.41159e-07
4.78555e-07
2.37982e-09
3.23207e-08
1.01732e-08
4.9282e-08
-5.94552e-08
2.03936e-08
-1.96473e-07
-8.75565e-09
1.11355e-08
-8.42291e-07
1.13225e-09
-4.64666e-07
2.07867e-07
1.02981e-07
-6.97246e-08
-3.32568e-08
4.59881e-07
-3.20592e-07
1.82701e-08
-4.43804e-07
4.25533e-07
7.47901e-08
1.45951e-07
7.91949e-07
-3.97191e-07
1.26407e-07
-9.36932e-08
-4.32674e-08
-1.80176e-07
-5.31368e-08
1.84186e-07
1.52212e-07
7.99447e-07
-4.37289e-07
2.06501e-07
2.30789e-07
-1.03042e-08
1.70631e-07
-2.33887e-07
-2.03403e-07
-3.71797e-08
-3.26503e-07
-5.29927e-07
1.69944e-07
3.59983e-07
-5.37974e-07
6.09036e-08
3.33026e-07
2.26979e-07
-6.96772e-08
-3.23427e-07
-2.64416e-07
2.62474e-07
-2.68957e-07
-5.57111e-08
3.24668e-07
-5.7925e-07
1.43857e-07
4.35392e-07
6.48064e-07
-9.64722e-07
6.56788e-07
-4.86844e-07
9.4005e-07
-7.58554e-07
-1.81496e-07
1.83777e-07
4.73011e-07
-1.17905e-07
3.02092e-07
1.5853e-08
8.17929e-08
-1.61155e-07
-4.18095e-07
4.74544e-07
-1.77869e-07
5.64669e-07
-4.36414e-07
-1.28255e-07
-3.22186e-07
-1.59588e-07
1.88065e-07
-1.88065e-07
-1.49917e-07
1.85972e-07
2.88572e-07
-1.70168e-07
9.0137e-09
-2.02625e-07
-1.28254e-07
-1.54249e-07
3.56993e-07
-7.13581e-07
8.57438e-07
-3.75154e-08
1.46574e-07
-2.19775e-07
4.05747e-07
-2.19846e-07
4.05891e-07
-1.86045e-07
-9.50382e-07
8.34646e-07
-5.06191e-08
-2.69747e-07
4.11822e-07
-1.42074e-07
-3.27179e-07
9.75243e-07
9.03096e-07
-5.59664e-07
-3.43432e-07
-5.91757e-07
1.55343e-07
-4.83312e-07
-1.08445e-07
-2.43823e-08
4.99902e-07
-4.75519e-07
1.35603e-07
-4.0535e-07
-6.73032e-07
8.56809e-07
4.05664e-07
-1.85424e-07
-2.2024e-07
4.16584e-08
-4.16584e-08
4.93093e-07
-4.93093e-07
-1.39812e-07
-8.1057e-07
1.6141e-07
6.66531e-07
-8.27941e-07
2.63012e-07
1.39053e-07
-4.02065e-07
-1.11265e-07
3.73739e-07
-8.2859e-07
1.15009e-07
3.94896e-07
-3.94896e-07
1.0709e-08
-1.0709e-08
3.87439e-07
1.93735e-07
-4.1351e-07
6.64172e-07
2.38924e-07
6.61312e-07
2.78865e-07
-6.67713e-07
1.844e-07
-5.2866e-07
4.23001e-07
3.68949e-07
-8.84375e-07
-1.83368e-08
9.02712e-07
4.51054e-07
-2.20265e-07
-2.40135e-07
6.00119e-07
-1.78874e-07
2.17844e-07
-9.71548e-07
7.53704e-07
2.63589e-07
1.7042e-07
8.00238e-07
9.63977e-08
-2.50646e-07
1.83529e-07
-9.42083e-07
-2.85168e-07
7.5818e-07
2.20322e-07
-6.91369e-07
5.25932e-07
3.30876e-07
-5.7617e-07
-3.90376e-07
9.66546e-07
2.10919e-07
-3.80888e-07
-9.46319e-08
3.96609e-07
-9.72779e-07
-9.1115e-07
-3.60989e-07
8.86922e-07
-4.66989e-07
-5.0456e-07
4.58226e-07
5.97811e-07
-1.05604e-06
-2.94717e-08
-8.30391e-08
8.36743e-07
7.09716e-07
-7.92755e-07
-9.40674e-07
9.2568e-07
1.49934e-08
3.86663e-08
-1.26663e-07
9.61309e-07
-6.82016e-07
-4.62646e-07
8.59255e-07
-9.26506e-07
-2.78803e-07
1.20531e-06
-8.60259e-07
6.78763e-07
3.63055e-07
-4.41836e-07
-7.67891e-07
3.17436e-07
-2.62385e-07
6.2544e-07
-1.05152e-06
1.25013e-07
6.8166e-07
-4.47082e-07
-2.34578e-07
-6.24056e-07
6.4445e-07
-2.11896e-07
1.07509e-06
-8.63191e-07
-1.12883e-06
9.1693e-07
5.79117e-07
3.07804e-07
1.03734e-06
4.87905e-07
1.93755e-07
2.96137e-07
-2.57471e-07
-8.67371e-07
4.04725e-07
-4.12727e-08
2.20761e-07
-1.79488e-07
-8.98615e-07
6.19812e-07
-5.82868e-08
1.58212e-07
-9.99251e-08
7.71067e-07
-6.06318e-07
-1.64749e-07
1.47011e-07
3.10167e-07
-9.16485e-07
1.7376e-08
6.27074e-07
6.32158e-07
-8.1056e-08
-5.51102e-07
2.35683e-08
-1.11163e-06
3.5666e-07
7.54972e-07
-1.00467e-06
3.54097e-07
6.50573e-07
8.81992e-08
5.43959e-07
1.77551e-07
7.25161e-07
-1.09521e-06
2.7754e-07
8.17669e-07
-2.08084e-07
2.08084e-07
-6.5194e-08
-2.61782e-07
-1.77069e-07
3.52462e-08
-3.52462e-08
-1.71897e-09
1.71897e-09
-1.15894e-07
4.25335e-07
-8.80668e-07
4.55333e-07
-1.13048e-07
1.13048e-07
-3.32975e-07
3.32975e-07
-1.8657e-07
-7.42382e-08
7.42382e-08
1.37518e-07
-1.37518e-07
3.13115e-08
1.58919e-07
-1.58919e-07
2.49401e-07
1.92117e-07
2.36466e-07
5.9671e-08
4.01156e-07
5.07879e-07
-9.09035e-07
3.01622e-08
-3.01622e-08
4.90496e-07
-5.31769e-07
-1.18376e-06
3.95258e-07
2.07639e-07
-2.07639e-07
-5.25615e-07
7.85334e-08
5.82445e-07
-2.4225e-07
-3.40195e-07
-6.06316e-07
-7.61908e-07
1.36822e-06
-6.8012e-07
-4.31512e-07
-1.26371e-06
6.57396e-07
-3.60236e-07
-1.6538e-07
-8.27036e-07
-1.77635e-07
-5.83805e-09
9.37516e-08
-8.79135e-08
-6.41249e-08
-8.66674e-07
3.51347e-07
-2.63148e-07
9.79947e-08
-5.67712e-07
4.69717e-07
-9.74112e-07
4.24361e-07
-2.97431e-07
-1.2693e-07
-7.9407e-07
8.11446e-07
2.36745e-07
-7.94025e-07
7.55235e-07
3.87897e-08
-7.58422e-07
-5.31015e-07
9.04594e-07
-7.57583e-07
9.75654e-07
-6.65487e-07
-3.90172e-07
9.81173e-07
-6.24294e-07
-3.5688e-07
-5.3916e-08
1.47668e-07
-7.43045e-07
-5.20667e-07
-8.18868e-07
7.37812e-07
5.06755e-08
1.54171e-07
-8.73429e-07
7.19258e-07
8.17049e-07
-7.19054e-07
9.93809e-07
-6.37149e-07
2.08851e-07
6.64108e-07
-8.7296e-07
-1.65457e-07
4.43762e-07
-2.78305e-07
4.67466e-07
1.08801e-06
-7.33917e-07
-2.77892e-07
-2.95417e-07
5.73309e-07
4.92185e-07
-6.28143e-07
1.35958e-07
1.1869e-06
-9.09355e-07
-4.76775e-07
-9.0937e-08
3.98478e-07
1.33386e-06
-9.386e-07
-6.9813e-07
5.712e-07
1.10524e-07
1.74211e-08
9.50745e-07
-4.8328e-07
2.18071e-07
3.15686e-07
4.07894e-07
4.67464e-07
-6.32921e-07
-6.36324e-08
3.69515e-07
1.02261e-06
1.9609e-07
-6.99564e-07
5.03474e-07
-6.13551e-07
1.16323e-06
-5.49677e-07
7.75686e-07
-2.835e-07
5.95126e-07
-1.35355e-06
1.65871e-07
-4.19292e-07
3.5986e-07
-7.69418e-07
6.04038e-07
-5.87357e-07
-1.35618e-07
3.59746e-07
5.23049e-07
-8.18466e-07
-3.75028e-07
1.03914e-06
-1.01994e-06
3.82787e-07
-1.1244e-06
3.90487e-07
8.0119e-07
1.49556e-07
8.51865e-07
-4.75073e-07
-8.11736e-07
1.28681e-06
-8.49641e-07
6.15063e-07
-1.41367e-06
-3.51491e-07
-5.21468e-07
-1.27153e-06
3.62171e-07
4.09054e-07
6.2309e-07
-1.385e-06
-7.64544e-07
-6.12042e-07
-1.98218e-07
5.33203e-07
5.88227e-07
3.17609e-07
-9.05836e-07
4.88851e-07
-2.92761e-07
1.59123e-07
6.74744e-09
9.57743e-07
3.81955e-07
1.91354e-07
-1.17893e-07
7.83873e-07
-6.6598e-07
-7.42181e-07
9.60252e-07
8.18547e-07
-9.11781e-07
6.99486e-07
-8.46354e-07
8.63775e-07
-2.94263e-07
7.97737e-07
1.06649e-06
-1.86906e-07
9.06164e-07
-7.42348e-07
-1.88202e-07
9.3055e-07
7.30458e-07
-1.12063e-06
7.78185e-07
-9.13803e-07
-5.95671e-07
7.14048e-07
-1.18378e-07
4.1531e-07
-9.29254e-07
-2.45603e-07
7.07946e-07
4.95464e-07
-6.07486e-07
-2.68765e-07
-6.6348e-07
9.79166e-07
-8.03371e-07
9.13895e-07
2.06986e-07
-1.51069e-07
-7.93637e-07
5.23716e-07
2.69921e-07
4.62264e-07
2.36984e-07
-6.56445e-07
9.56589e-07
-3.00144e-07
1.56881e-07
-6.75408e-08
-7.31518e-07
7.99058e-07
-9.63045e-07
3.51003e-07
9.2005e-07
-3.04986e-07
-4.66215e-07
1.11781e-06
-7.55636e-07
9.32832e-08
-8.12337e-07
-5.72558e-07
-3.05731e-07
1.01429e-06
6.14318e-07
-8.84152e-07
8.2052e-07
-9.61431e-07
3.53263e-07
6.9222e-07
-9.37823e-07
-2.03768e-08
3.61208e-07
5.95381e-07
-5.49269e-07
8.81123e-07
-3.31854e-07
2.29877e-07
7.00673e-07
-8.49413e-07
-4.649e-07
-2.69211e-07
2.99592e-07
9.22734e-07
-1.1915e-06
1.9871e-07
5.15338e-07
9.75527e-07
-4.74528e-07
-5.10179e-07
9.84707e-07
5.16242e-08
-5.28399e-07
-9.37671e-07
5.47296e-07
7.60713e-07
-7.8109e-07
-1.06061e-07
6.01525e-07
2.98624e-07
-7.12944e-07
4.1432e-07
-1.60876e-07
-4.4661e-07
1.05275e-06
4.01709e-07
5.73818e-07
-4.05592e-07
-5.03443e-07
9.25424e-07
3.21054e-07
5.60069e-07
-9.36801e-07
5.31209e-07
-9.77971e-07
-8.37578e-07
4.84529e-07
-1.85904e-07
-4.80191e-07
-6.80697e-07
-4.04154e-07
-8.41574e-07
6.04589e-07
1.93147e-07
-8.99383e-07
6.30172e-07
-4.17865e-07
-5.19807e-07
1.79684e-08
-2.19241e-07
-6.75858e-07
4.15246e-07
-3.17063e-07
8.64358e-07
6.93931e-08
-9.88648e-08
-5.12282e-07
-4.24519e-07
-7.27621e-07
5.45252e-07
-1.92249e-07
9.16435e-07
-4.43023e-07
1.74152e-07
2.91565e-07
1.92963e-07
-3.32672e-07
8.29565e-07
5.49279e-07
-3.86203e-07
-1.63076e-07
2.16607e-07
4.117e-07
-2.38207e-07
9.02053e-07
-6.63846e-07
7.03266e-07
9.52328e-07
-1.5209e-07
-7.66866e-07
7.32527e-07
-2.17189e-07
8.25665e-07
5.13286e-07
6.23113e-07
-3.00571e-08
5.5026e-07
3.14099e-07
-7.15889e-07
-2.26195e-07
1.93234e-08
-1.18188e-07
2.81264e-07
-8.83007e-08
2.2631e-07
-9.37538e-07
2.21649e-07
1.94417e-07
2.11474e-07
4.52888e-07
-1.89299e-07
8.34106e-07
-2.73366e-07
-9.37212e-07
8.55861e-07
-6.34211e-07
-1.28239e-07
-2.90696e-07
3.06361e-07
-1.56647e-08
-8.57029e-07
-6.92483e-08
2.00477e-07
2.1955e-07
-5.16901e-07
-1.29462e-07
1.83718e-08
-4.84292e-07
3.88152e-07
1.53103e-07
2.66289e-07
1.90663e-07
2.68664e-08
2.56629e-09
1.05579e-07
2.00954e-07
1.85835e-07
1.60341e-07
3.53496e-07
3.63238e-07
9.52216e-08
-3.40848e-08
-6.11368e-08
-8.72939e-07
-2.84967e-07
4.23186e-07
-2.02863e-07
1.00127e-07
1.35272e-07
2.31449e-07
1.69927e-07
-8.27714e-07
-3.89427e-07
1.25847e-07
1.09553e-07
-1.33073e-07
4.47724e-08
1.85289e-07
9.32367e-08
-4.57426e-07
8.7583e-08
3.57126e-08
-9.42187e-07
1.08145e-07
5.54449e-07
1.04651e-07
-9.42891e-09
3.55385e-07
-4.886e-07
-3.31093e-07
-5.48532e-07
4.5062e-07
2.85962e-07
5.94687e-07
-2.8741e-07
-1.11268e-06
-1.26605e-07
-9.6047e-07
1.95721e-07
5.3473e-08
-2.53035e-07
8.67305e-08
-1.59784e-07
-2.79015e-07
1.76395e-07
7.02715e-08
-9.01807e-08
-1.97229e-07
-3.62769e-07
3.77321e-07
-8.44309e-07
-6.88517e-08
-1.07132e-07
2.72324e-07
-4.45555e-07
-4.469e-07
2.43497e-07
4.46582e-07
1.36997e-07
-7.54767e-08
-6.15205e-08
-4.56468e-08
-1.5679e-08
-8.36375e-08
-1.01754e-07
-2.41835e-07
2.89635e-09
-4.56468e-08
-2.61611e-07
1.61904e-07
-7.43212e-08
1.05878e-07
-1.78231e-07
3.47285e-07
-5.90505e-08
4.94393e-07
-5.12361e-07
-1.60381e-08
8.83549e-07
-6.40416e-08
-3.81991e-07
1.53782e-07
2.28209e-07
-1.67945e-07
-1.98376e-07
-2.2165e-07
-4.30798e-07
-1.87617e-07
-7.78856e-08
7.04381e-08
1.1214e-06
1.49703e-07
7.1058e-08
5.48557e-07
-5.54639e-08
7.83282e-08
-4.71395e-07
1.93024e-09
3.97282e-08
4.71395e-07
-1.93024e-09
2.16417e-07
5.48557e-07
1.97093e-07
-8.19001e-07
6.41365e-07
7.8355e-07
-5.44626e-07
-3.55147e-08
-7.20775e-08
-4.0971e-08
4.68553e-08
-1.66931e-08
6.00529e-08
-7.54982e-08
-1.98523e-07
-6.32593e-08
-7.20775e-08
-7.95997e-09
-2.72862e-08
-6.7382e-08
6.56631e-08
1.31319e-07
-3.10304e-07
-2.26705e-08
-6.00529e-08
-1.41852e-08
7.54982e-08
-1.26004e-09
1.98523e-07
-3.96036e-08
-1.31319e-07
-2.76007e-08
3.10304e-07
7.95997e-09
4.68553e-08
-6.7382e-08
3.32871e-08
-6.16849e-07
4.99254e-08
-3.93072e-07
6.92663e-07
2.56174e-07
-3.20216e-07
5.97136e-08
1.13285e-07
1.49339e-07
8.98542e-07
-5.32753e-07
3.0657e-08
-4.5476e-07
1.13285e-07
2.13555e-07
-4.0731e-07
3.26873e-07
-3.16518e-07
6.78768e-07
-6.77936e-08
6.95125e-08
6.77936e-08
-6.04567e-07
6.52526e-07
-4.79595e-08
-9.20112e-07
-1.92599e-07
1.85729e-07
-4.9586e-07
3.61649e-07
5.68023e-07
-6.06813e-07
-4.53355e-07
3.34978e-07
6.03013e-08
-9.89892e-08
3.65594e-07
2.22269e-07
-7.1294e-07
3.19229e-07
2.65098e-07
-5.87016e-07
5.87016e-07
-2.45877e-07
-6.76347e-07
-2.24389e-07
3.65594e-07
3.18287e-07
-5.1464e-07
3.07089e-07
-1.66435e-07
-2.77369e-07
9.02716e-08
-2.81626e-07
7.88259e-07
-4.31379e-07
-1.54249e-07
1.54249e-07
-2.40002e-08
-2.16818e-07
-6.31861e-08
6.31861e-08
-1.34592e-07
1.34592e-07
-2.40135e-07
2.45118e-08
8.31087e-08
-5.18188e-07
1.61413e-07
3.56776e-07
5.28082e-07
-5.28082e-07
2.19726e-07
1.3628e-07
2.89253e-07
4.9282e-08
-7.28924e-07
1.32585e-07
3.80454e-08
1.31325e-07
-4.68955e-07
-6.32649e-07
-7.61085e-09
-3.0982e-09
-1.62624e-07
-4.54777e-08
3.46075e-08
7.45563e-08
1.00266e-08
2.45809e-08
-9.27414e-07
-1.47731e-08
-2.29272e-07
-4.25467e-07
-5.41005e-07
1.47933e-07
1.76395e-07
1.94667e-08
1.90655e-07
6.61798e-08
-1.37795e-07
1.46947e-07
-1.46947e-07
-1.30127e-07
7.49939e-07
-5.18019e-07
-2.72561e-07
-4.1338e-08
4.1338e-08
-7.94223e-07
-4.57887e-07
9.98754e-08
8.26992e-09
-1.33195e-09
-4.03591e-07
5.88563e-07
-1.84972e-07
-5.39524e-07
2.07834e-07
3.3169e-07
-5.94552e-08
-2.15003e-07
2.71697e-07
-1.71821e-07
-2.76947e-07
-5.01263e-08
5.01263e-08
2.81946e-07
4.67383e-07
-5.04563e-07
-5.22093e-08
1.23267e-07
-2.07723e-08
1.65173e-07
3.75716e-08
-2.57578e-07
2.69538e-07
-6.7313e-07
-2.80512e-07
-2.31741e-07
5.33833e-07
5.32576e-08
-2.40875e-07
-8.18654e-08
2.96871e-07
-2.87923e-07
8.90789e-09
7.61085e-09
2.25736e-07
1.20865e-08
1.82165e-07
1.94527e-07
3.12092e-08
7.74607e-07
-5.92443e-07
1.57299e-07
3.41583e-07
-3.39642e-07
5.05895e-07
-5.47592e-08
7.50436e-07
-2.71882e-07
-5.02726e-07
4.1338e-07
-5.90565e-08
2.32289e-07
-2.23276e-07
-2.77914e-08
7.00738e-07
-5.26586e-07
3.51827e-07
-6.04137e-08
1.00894e-07
6.04681e-08
6.52778e-07
1.42853e-07
-1.5295e-07
2.71199e-07
1.48037e-07
-6.76753e-07
5.91311e-07
4.09586e-07
-2.61653e-07
3.69982e-07
-3.17645e-08
1.47124e-07
-2.8468e-07
-2.13267e-07
-8.58382e-07
9.8022e-08
-4.35618e-07
-6.74649e-08
5.89346e-08
3.05141e-07
1.00722e-07
-1.03534e-07
1.15339e-07
-2.08698e-07
2.17606e-07
9.32894e-09
-4.68096e-08
)
;

boundaryField
{
    back
    {
        type            empty;
        value           nonuniform List<scalar> 0();
    }
    front
    {
        type            empty;
        value           nonuniform List<scalar> 0();
    }
    top
    {
        type            calculated;
        value           nonuniform List<scalar> 10(-4.20027e-07 -4.56952e-07 -3.46176e-07 -2.354e-07 -2.354e-07 -3.46176e-07 -4.20027e-07 -8.76979e-08 -8.76979e-08 -4.56952e-07);
    }
    outer_arc
    {
        type            calculated;
        value           uniform 0;
    }
    bottom
    {
        type            calculated;
        value           nonuniform List<scalar> 10(9.26277e-07 4.6592e-07 -2.94327e-08 -3.06533e-07 -7.16733e-07 1.15791e-06 -4.01376e-07 1.21714e-06 -2.17701e-07 9.97037e-07);
    }
    inner_arc
    {
        type            calculated;
        value           uniform 0;
    }
}


// ************************************************************************* //
