/*--------------------------------*- C++ -*----------------------------------*\
  =========                 |
  \\      /  F ield         | OpenFOAM: The Open Source CFD Toolbox
   \\    /   O peration     | Website:  https://openfoam.org
    \\  /    A nd           | Version:  9
     \\/     M anipulation  |
\*---------------------------------------------------------------------------*/
FoamFile
{
    format      ascii;
    class       surfaceScalarField;
    location    "0.63";
    object      phi;
}
// * * * * * * * * * * * * * * * * * * * * * * * * * * * * * * * * * * * * * //

dimensions      [0 3 -1 0 0 0 0];

internalField   nonuniform List<scalar> 
2420
(
7.27724e-07
-6.2405e-07
-1.03674e-07
-3.30433e-07
3.30433e-07
4.50454e-07
-2.62179e-08
-4.24236e-07
1.69679e-07
-1.69679e-07
-7.58715e-07
2.95855e-07
4.6286e-07
3.53563e-07
-3.59284e-07
5.72145e-09
4.29252e-07
2.12017e-08
-8.8737e-07
9.70306e-08
7.90339e-07
1.37041e-06
-1.62019e-06
2.49785e-07
-5.44799e-07
-2.13916e-07
-4.06688e-07
1.66941e-08
3.89994e-07
-4.22571e-07
1.58829e-08
-8.8737e-07
-1.3635e-07
9.57551e-08
4.05947e-08
-9.04567e-08
3.01309e-07
-2.10853e-07
-3.56006e-07
-7.86794e-08
4.34685e-07
1.1372e-06
-2.20457e-07
-9.16742e-07
5.0558e-07
-9.13111e-07
4.07531e-07
-2.26961e-07
2.15901e-07
1.10607e-08
-7.93171e-08
-5.70327e-08
1.30984e-07
3.33877e-07
-4.64861e-07
-6.57093e-08
-6.21101e-07
7.88708e-07
-1.67606e-07
-7.81865e-07
1.60764e-07
4.27635e-07
3.00088e-07
3.92497e-07
7.44702e-07
-7.63198e-08
-2.79686e-07
-5.64841e-07
-9.36343e-07
1.50118e-06
-1.26996e-06
7.05121e-07
2.2678e-07
-9.29922e-08
-1.33788e-07
-7.85243e-07
-2.5898e-07
1.04422e-06
3.82759e-08
4.98197e-08
-8.80956e-08
-4.85857e-07
4.18051e-07
6.78066e-08
-4.45927e-07
3.25958e-07
1.19968e-07
-3.9692e-07
9.02499e-07
-3.0355e-07
-1.42377e-07
9.4106e-08
2.59457e-07
-9.09031e-08
-2.3953e-07
-8.83777e-08
-3.97479e-07
-4.36003e-08
3.74033e-07
3.44937e-07
-2.13953e-07
7.02673e-07
1.10004e-07
-8.12678e-07
2.86195e-07
-3.74572e-07
-1.61886e-07
1.47837e-07
1.40483e-08
1.21301e-08
1.60353e-07
-1.72483e-07
5.43819e-08
1.15298e-07
-1.44534e-07
-2.51453e-08
7.50975e-10
1.13791e-08
-3.6373e-07
5.29133e-07
-1.65403e-07
-9.8721e-08
3.84915e-07
-2.40912e-07
-1.18372e-07
1.2058e-08
-3.94788e-07
3.04331e-07
-9.85588e-07
-6.34606e-07
7.03805e-07
-8.54856e-08
-6.18319e-07
1.86269e-07
-2.88216e-08
-1.57447e-07
2.34133e-08
-2.46691e-07
2.23278e-07
1.19097e-07
-1.02403e-07
-9.63629e-08
7.02043e-08
2.61585e-08
4.16281e-07
-2.30012e-07
9.00505e-08
-8.75293e-07
2.52447e-07
-2.60461e-07
8.01456e-09
-6.70676e-07
4.66263e-08
-9.78047e-07
1.07508e-06
-1.55413e-07
1.1737e-07
3.80434e-08
-6.05039e-07
3.46059e-07
4.33957e-08
-4.9933e-08
6.53731e-09
-1.60216e-07
9.0835e-08
6.93809e-08
5.31915e-07
-9.28835e-07
-7.91915e-08
-4.11191e-08
-1.75786e-07
4.47408e-07
-2.77473e-07
-1.69935e-07
1.13919e-07
1.8739e-07
5.8923e-07
8.38589e-08
-6.73089e-07
1.98772e-08
-1.08218e-07
8.83412e-08
-1.20118e-06
-6.87866e-08
-3.05382e-07
8.37297e-07
3.6835e-07
-3.87568e-08
2.65537e-07
-3.32289e-08
-1.22184e-07
-4.10244e-08
6.09016e-08
7.1233e-07
-8.52474e-09
-9.56238e-08
-6.62619e-08
-1.71822e-08
3.1623e-07
-2.99048e-07
4.50481e-07
-5.56913e-07
1.06433e-07
7.1656e-07
-1.27331e-07
2.87221e-07
1.60188e-07
1.14e-06
-3.75707e-07
-7.64295e-07
-4.71407e-07
1.6651e-08
4.54756e-07
-4.80945e-07
9.5379e-09
-2.65211e-07
-1.59025e-07
-1.08236e-07
-1.18725e-07
6.16411e-08
-4.25371e-07
8.05454e-08
1.42583e-07
-2.23128e-07
4.10251e-08
1.74876e-07
1.38906e-08
2.95051e-08
-7.83969e-08
-1.79659e-08
5.67473e-08
-6.92755e-09
-4.61403e-07
7.95059e-08
3.81898e-07
6.24417e-08
-3.27652e-07
-3.20107e-08
2.47636e-08
7.24715e-09
2.98643e-07
2.3049e-07
3.67225e-08
-6.87332e-08
1.22753e-07
-2.59295e-07
1.36542e-07
5.15923e-08
2.00854e-07
-1.13998e-06
2.971e-07
8.42876e-07
1.0518e-08
-1.0351e-07
-1.4997e-07
-3.11433e-07
2.86212e-07
-3.15034e-07
2.19824e-08
-3.42535e-07
3.20553e-07
-8.33687e-08
-3.39202e-07
5.01423e-07
-2.1521e-07
3.24797e-07
-3.41979e-07
1.0729e-06
-2.21001e-07
-8.51896e-07
-3.04643e-08
-8.9875e-07
-2.41226e-07
1.24586e-07
3.53503e-07
7.86499e-07
1.54339e-07
-3.15861e-08
4.07584e-07
9.38388e-08
1.79341e-09
-8.37791e-07
8.35998e-07
-7.50896e-08
-7.79002e-07
8.54092e-07
-3.92962e-08
-5.18251e-07
5.57547e-07
1.86087e-08
-4.71816e-09
-1.0404e-06
2.81617e-07
7.58783e-07
-3.40927e-07
2.42206e-07
-7.29396e-08
1.53485e-07
-4.38839e-07
3.60159e-07
1.32476e-07
-3.75441e-07
2.42965e-07
4.90373e-07
-1.86463e-07
-3.03911e-07
-3.30104e-07
3.52086e-07
-1.24996e-06
2.71908e-07
-6.21572e-07
-4.18829e-07
-3.49199e-08
3.49199e-08
-5.82164e-07
-9.23005e-08
6.74464e-07
-4.45804e-07
-2.75149e-07
7.20953e-07
-3.94788e-07
-2.46691e-07
-7.93553e-08
2.94223e-08
4.16281e-07
1.46958e-07
-2.23278e-07
-1.46958e-07
-1.43786e-07
2.90744e-07
5.08419e-08
6.27574e-07
-6.78416e-07
-1.18563e-07
9.16742e-07
-7.98179e-07
-6.27574e-07
6.29368e-07
-2.95783e-07
6.78416e-07
-3.82633e-07
1.77572e-07
2.30012e-07
-2.05061e-07
-1.77572e-07
3.82633e-07
-7.28188e-07
8.58663e-07
-1.30475e-07
7.28188e-07
-6.38137e-07
-8.58663e-07
7.98179e-07
6.04837e-08
-6.29368e-07
7.13227e-07
-7.13227e-07
6.38137e-07
-4.1229e-07
-1.44624e-07
-5.33486e-08
-2.87578e-07
1.5242e-08
1.02128e-07
-3.94525e-07
7.96212e-07
-4.01687e-07
1.74147e-07
3.4936e-09
-6.90308e-07
-5.54108e-07
-8.66531e-07
1.42064e-06
-1.34829e-06
3.62699e-07
5.93641e-07
2.02571e-07
6.44483e-07
4.4846e-08
-1.23243e-07
-1.57095e-06
7.5128e-07
-9.72282e-07
4.33723e-08
4.00587e-07
-7.05969e-07
9.16417e-07
-1.13687e-06
-8.95047e-07
-1.19015e-07
1.01406e-06
-5.79508e-07
3.74447e-07
-1.21939e-06
2.69975e-07
9.49417e-07
-9.22292e-07
1.25224e-07
3.6515e-07
-1.91623e-07
5.9221e-07
-1.15353e-07
4.80998e-07
-3.65645e-07
-3.84537e-08
-4.08635e-08
-1.40796e-07
-8.43142e-07
-5.19043e-08
3.2257e-08
-2.73169e-07
-3.28558e-07
2.89261e-07
-5.22117e-08
-2.33541e-07
2.85752e-07
-4.00944e-07
-1.88111e-07
5.89055e-07
5.9447e-08
-1.00471e-07
-5.16297e-07
5.18837e-07
-2.56548e-08
-4.93182e-07
-8.47416e-07
4.27342e-09
2.37892e-07
-7.75386e-08
-1.16263e-07
-1.44198e-07
-2.45096e-07
-9.62847e-08
3.4138e-07
-1.26824e-07
1.38882e-07
-3.94418e-07
-2.21349e-07
6.15767e-07
-2.44019e-08
2.73741e-07
-5.82529e-07
2.96967e-07
-6.72674e-07
-6.76889e-07
-1.70527e-07
9.07194e-09
-1.14893e-07
1.05821e-07
4.54737e-08
-3.64018e-08
-4.21393e-07
-2.19007e-07
6.404e-07
-9.8302e-10
3.3486e-07
-4.00219e-07
4.32963e-07
-3.27435e-08
3.59847e-07
-4.56132e-07
-2.71891e-07
4.04367e-07
4.88868e-07
-1.62909e-07
1.30309e-07
-6.75622e-07
5.45313e-07
2.7809e-07
-4.04914e-07
-6.25764e-07
1.0329e-06
6.36304e-08
-1.02084e-07
5.05267e-08
-1.29882e-07
1.93308e-07
-4.96858e-07
-1.27249e-06
7.18387e-07
5.06203e-07
1.91641e-07
-6.97844e-07
1.16545e-07
-7.93434e-07
6.0198e-08
-1.7764e-07
3.99957e-07
1.8094e-08
-9.49392e-07
8.65999e-07
8.33923e-08
-2.62691e-10
5.94391e-07
-3.61398e-07
-2.32992e-07
1.99118e-07
3.95273e-07
-4.11855e-07
-7.38029e-07
4.25957e-07
3.12072e-07
-3.26195e-07
-4.11834e-07
-3.29413e-07
2.53896e-07
7.55169e-08
-8.04486e-07
2.26299e-07
5.78187e-07
-1.70244e-07
-6.34242e-07
4.25463e-07
4.11834e-07
3.82492e-07
5.04705e-08
-3.36186e-07
6.77366e-09
-5.82748e-07
3.07108e-07
5.27391e-08
-3.87208e-07
5.86325e-07
-5.9903e-07
1.74159e-07
4.24871e-07
-3.43638e-08
-1.54083e-07
1.01871e-07
-3.51007e-07
-2.48023e-07
-8.08526e-08
1.15773e-07
-7.40815e-07
-2.08577e-07
-1.84684e-07
3.44872e-07
1.1107e-06
-4.60735e-07
-6.49967e-07
-9.61504e-07
-3.86783e-07
2.2856e-07
9.82545e-07
1.36157e-07
1.16802e-08
9.66479e-09
-3.59522e-08
2.62874e-08
4.08399e-07
-5.81209e-08
4.40613e-07
-1.69419e-07
-3.69124e-08
5.06432e-07
-4.6952e-07
-9.05605e-07
1.64791e-07
-5.5573e-07
3.64107e-07
3.69568e-07
-3.51473e-07
1.33847e-07
-1.21927e-06
1.08542e-06
3.48538e-07
1.32459e-07
4.62221e-07
-6.6948e-08
-2.13273e-07
-1.34129e-08
2.30777e-08
9.61682e-07
-8.66358e-07
-9.53243e-08
4.04872e-07
-3.53044e-08
1.5095e-07
-2.04298e-07
4.17512e-07
-4.17774e-07
1.98476e-07
2.22354e-08
-2.20712e-07
3.04331e-07
6.96362e-07
-2.70899e-07
8.38087e-08
-2.07959e-07
5.56498e-07
6.70085e-07
-2.58251e-07
3.11357e-07
3.85005e-07
7.67232e-07
3.43469e-07
-2.83121e-07
-6.22484e-07
2.59762e-08
2.75047e-07
-3.01023e-07
8.88492e-07
1.93331e-07
-1.08182e-06
-2.99717e-07
5.81961e-07
-2.82244e-07
8.86907e-07
-8.68942e-07
-1.79647e-08
-3.11555e-07
6.22912e-07
1.72873e-08
-4.12075e-07
9.53783e-08
-7.8091e-08
-1.49813e-07
5.34818e-07
4.52771e-07
-1.1139e-07
4.47127e-07
-3.79784e-07
-6.73428e-08
3.72128e-07
6.316e-07
-6.05945e-07
1.30919e-07
-7.97404e-08
3.77624e-07
-2.97883e-07
9.86007e-07
-1.10502e-06
-4.62995e-08
3.53408e-07
3.28875e-07
1.52286e-07
-4.81161e-07
7.90339e-07
-2.71887e-07
1.15773e-07
4.22292e-07
-3.69542e-07
-5.27494e-08
-4.40701e-07
4.20891e-07
1.98101e-08
-1.19713e-07
1.81354e-07
-1.19713e-07
-4.63111e-07
2.63625e-07
1.99486e-07
6.05903e-07
-1.43682e-07
-5.147e-07
3.78619e-07
1.36081e-07
-3.81095e-07
6.09655e-07
3.53695e-07
-3.03633e-07
-5.0062e-08
1.308e-07
4.75103e-07
-2.67599e-07
-2.59421e-07
5.2702e-07
-1.04512e-06
9.26558e-07
-1.11402e-06
1.24787e-06
1.09786e-07
3.07396e-07
5.30057e-07
9.30935e-07
-8.00135e-07
-4.596e-07
4.22688e-07
-2.94232e-07
2.14491e-07
6.42572e-09
-1.34236e-07
-9.38088e-08
9.73317e-08
-1.15298e-07
9.73317e-08
2.05491e-08
9.40047e-08
4.12428e-07
3.41555e-07
-3.41569e-07
1.33921e-11
-4.19666e-07
3.61545e-07
2.42017e-07
5.64409e-08
-5.64409e-08
4.05248e-07
2.04407e-07
-3.28136e-07
2.45029e-08
4.94913e-07
9.14123e-08
2.39068e-07
1.02487e-07
3.42319e-07
-4.81937e-07
4.14989e-07
-2.75397e-07
-4.3979e-07
-4.26809e-07
1.7862e-07
2.4819e-07
3.5853e-07
-7.89442e-07
4.63247e-07
-4.12075e-07
-1.63184e-07
5.30905e-07
5.58768e-07
3.39504e-07
2.16994e-07
5.86871e-07
-5.86871e-07
1.04811e-07
-3.23818e-07
-5.63142e-07
-4.74408e-07
3.80599e-07
9.71044e-07
-1.19003e-06
2.18988e-07
1.12549e-06
-1.94554e-07
-3.03318e-07
2.39051e-07
1.75938e-07
-3.75896e-07
7.3572e-07
-3.59824e-07
1.04505e-06
5.3856e-08
-1.0989e-06
4.20559e-09
-4.75374e-08
-2.94656e-07
1.2657e-06
9.12594e-07
-5.38161e-07
-3.74433e-07
-2.54895e-07
2.54895e-07
-3.01582e-08
-4.92571e-07
4.92571e-07
-5.51417e-07
1.79851e-07
5.86272e-08
-2.38478e-07
9.47768e-08
-9.47768e-08
-4.23937e-07
-1.66354e-07
1.66354e-07
-5.931e-08
-7.14154e-07
7.73464e-07
4.10999e-07
-4.10999e-07
-4.25958e-07
6.62682e-07
-1.32856e-07
-5.29827e-07
7.91672e-07
2.49306e-07
4.58972e-09
-5.3631e-07
3.15113e-07
-2.39596e-07
8.6012e-07
5.24743e-08
7.54128e-07
-8.49452e-07
-1.06063e-06
5.22473e-07
1.94081e-07
3.36824e-07
-2.04025e-07
1.06618e-06
4.52599e-07
3.55314e-07
3.51231e-07
8.86639e-08
2.27081e-07
-1.2227e-07
1.76975e-07
4.85708e-07
-9.96891e-07
-1.08131e-07
2.72048e-07
-2.38586e-08
-1.88854e-07
1.25503e-06
1.1967e-06
-1.39126e-06
-1.25616e-06
-5.51079e-07
-3.04018e-07
8.55097e-07
2.96022e-07
-3.26878e-07
3.08561e-08
9.26922e-08
7.67427e-07
-8.26666e-07
-4.22757e-08
2.16337e-08
2.67169e-07
-2.88803e-07
3.40051e-07
1.00562e-07
-9.92617e-07
-8.12593e-08
3.0834e-07
-9.09031e-08
4.18342e-07
-5.51197e-07
-3.10212e-07
3.10212e-07
-8.68725e-07
2.77646e-07
5.91079e-07
-2.27537e-07
-8.33097e-07
4.39975e-07
4.07764e-07
-6.77128e-08
-8.75154e-07
3.60391e-07
5.14763e-07
-1.00723e-08
-7.5303e-07
5.82785e-07
-1.23742e-06
1.00988e-06
-1.46297e-06
1.27411e-06
2.99643e-07
-8.50722e-07
-7.76033e-07
-8.74626e-08
1.41319e-07
-5.38569e-08
-2.66262e-07
-1.33423e-06
2.75689e-08
1.30666e-06
2.17404e-07
5.91197e-07
-8.08602e-07
-5.7887e-07
4.47986e-07
4.9666e-07
-5.21542e-07
8.5684e-07
-3.35298e-07
-3.88667e-07
1.3396e-07
-2.21241e-07
8.72815e-08
-6.01154e-08
3.1619e-07
8.02616e-08
-3.96452e-07
-5.97508e-07
-3.62091e-07
-1.16619e-06
1.52828e-06
5.80207e-08
1.2183e-07
1.51597e-07
4.88803e-07
-2.07938e-07
2.07938e-07
-8.60164e-07
1.22055e-06
1.83598e-07
6.78423e-07
-8.62021e-07
-1.0896e-07
2.7701e-08
1.22077e-06
-1.48703e-06
-1.05435e-06
2.21249e-07
-1.22225e-06
-7.42889e-07
3.77888e-07
3.65001e-07
9.84066e-08
-3.58569e-07
-3.8432e-07
-1.58222e-07
-7.98953e-07
2.77411e-07
-2.4978e-07
1.36621e-06
-1.11643e-06
5.41135e-07
2.00259e-07
-7.41394e-07
-8.99672e-07
5.25238e-07
-2.57818e-07
-7.57489e-07
2.50794e-07
5.06695e-07
9.04856e-07
-3.29031e-07
-5.75825e-07
7.67659e-08
-1.13111e-06
4.98271e-07
4.6497e-08
-9.40967e-07
1.23186e-06
-2.90889e-07
-5.73891e-07
-1.24132e-06
9.91542e-07
-4.54407e-07
7.54051e-07
-2.18154e-07
1.29754e-06
4.50136e-07
9.08134e-08
-5.4095e-07
7.84852e-07
4.47003e-07
1.54106e-06
-7.56211e-07
1.6435e-07
8.49559e-08
1.58209e-07
1.21272e-06
-1.98659e-07
-1.01406e-06
5.86155e-07
9.54909e-07
1.64511e-06
-1.05895e-06
-1.46897e-07
-1.45411e-06
1.60101e-06
-2.64843e-08
3.81163e-07
-3.54679e-07
5.32992e-08
-5.43563e-08
1.05713e-09
-3.46209e-07
-7.88133e-08
-4.72384e-07
3.15637e-07
1.34499e-07
-3.71329e-07
5.71588e-07
-3.71978e-07
-1.26907e-06
1.64105e-06
-1.67942e-07
6.69424e-08
2.0782e-07
-2.74763e-07
-3.52039e-07
6.32365e-08
-9.14086e-07
2.99288e-08
8.84157e-07
2.67224e-07
9.45496e-07
-5.04558e-07
2.60216e-07
2.44342e-07
8.304e-07
2.0967e-07
-9.5972e-07
7.5005e-07
1.54309e-07
8.61789e-07
-1.0161e-06
-1.53816e-06
-7.35038e-07
2.69906e-07
4.65132e-07
1.25861e-08
1.38138e-06
-7.81511e-07
9.91181e-07
-7.71113e-07
-4.99623e-08
8.21075e-07
3.76037e-07
-9.93845e-08
-9.23269e-07
1.02265e-06
-6.59895e-07
3.39605e-07
3.2029e-07
8.70497e-07
-6.23476e-08
-8.0815e-07
1.1578e-07
-4.87109e-07
-1.08701e-06
-1.86152e-07
3.93972e-07
1.88982e-07
6.05838e-07
-7.9482e-07
9.38536e-07
-7.67473e-08
-4.14492e-07
-5.82611e-07
9.97103e-07
1.86939e-07
-1.58982e-07
-1.62248e-07
-7.97472e-07
1.12193e-06
-1.30387e-07
-2.38706e-07
1.63079e-06
-1.39208e-06
-4.08927e-07
-3.26111e-07
6.05881e-07
-2.59823e-07
-4.58125e-07
1.02589e-06
-5.67766e-07
-6.1015e-07
1.18707e-06
-5.76916e-07
7.70672e-07
-1.52688e-06
1.96955e-07
-7.46062e-07
-2.58995e-07
1.00506e-06
-6.58349e-07
5.96002e-07
1.20156e-06
-1.44027e-06
8.64537e-07
-2.04296e-07
-6.60241e-07
-6.2836e-07
5.78397e-07
-2.2603e-07
-2.78527e-07
4.69226e-07
-4.69226e-07
-1.57249e-07
1.57249e-07
-4.32431e-08
4.32431e-08
3.74033e-07
1.81354e-07
-1.61967e-07
1.61967e-07
-1.09009e-07
1.09009e-07
4.57598e-08
-4.57598e-08
-3.69045e-08
-4.0219e-09
4.0219e-09
-1.44534e-07
5.8502e-07
-5.8502e-07
-8.12216e-08
8.12216e-08
3.7619e-07
-3.7619e-07
-1.89134e-07
1.89134e-07
-1.40152e-06
1.40937e-06
-7.84511e-09
-9.02737e-08
9.02737e-08
2.38047e-08
-2.38047e-08
1.56798e-07
9.32317e-07
-1.08911e-06
6.19108e-07
-6.95855e-07
1.35836e-06
-3.89989e-07
1.46236e-06
-1.27542e-06
7.17099e-07
-8.79347e-07
3.85436e-07
3.52152e-07
1.44745e-07
5.69082e-07
-7.13827e-07
-7.72547e-07
-1.3207e-07
6.77383e-07
3.17269e-07
5.08115e-07
-8.25384e-07
-1.76906e-07
-8.29169e-08
-1.52025e-06
4.03818e-07
-3.42859e-07
-1.4425e-07
6.95118e-07
-1.60136e-06
5.42404e-07
-5.52157e-07
-1.89237e-07
-9.63708e-07
5.49216e-07
7.0565e-07
-8.3772e-07
-1.2489e-06
-2.71347e-07
-8.37808e-08
-2.10531e-07
2.38232e-07
-2.46977e-07
-7.91345e-08
1.21443e-06
-3.92417e-08
-3.23578e-08
6.00838e-07
-2.1381e-07
8.61844e-07
-2.85678e-08
6.06965e-07
-4.44608e-07
1.01749e-07
-1.48723e-06
8.77076e-07
-8.9409e-07
9.39711e-08
8.00119e-07
9.70428e-07
-1.47216e-06
5.01735e-07
6.08333e-08
-1.39551e-06
8.17421e-07
5.78084e-07
-1.25008e-06
7.91957e-07
-1.10702e-06
7.88945e-07
3.18072e-07
1.0784e-06
-1.3374e-06
-3.29894e-07
-8.30686e-07
-9.99603e-07
7.95308e-07
-6.96407e-07
-9.39839e-07
7.97237e-07
1.42601e-07
3.20303e-07
-1.24247e-07
-1.31602e-06
-1.01067e-06
-7.84497e-08
-1.43786e-07
-9.20371e-07
1.33268e-07
7.87103e-07
-3.70224e-07
-1.97655e-08
-6.51786e-07
-4.40688e-08
5.78538e-08
-4.27083e-07
-4.49358e-07
-5.16798e-07
-4.86243e-07
1.03693e-07
3.8255e-07
-1.24305e-07
-3.93758e-07
-9.94106e-08
6.68493e-07
-5.1843e-07
-4.32661e-07
-3.1506e-07
-6.79219e-08
-8.26168e-07
1.1137e-06
1.06851e-07
9.51815e-07
-8.57843e-07
-2.10658e-07
-3.19751e-07
-9.43068e-09
3.29182e-07
-7.35567e-07
-1.44531e-07
-3.86613e-07
3.47372e-07
4.04524e-07
-3.59678e-07
-1.13491e-06
3.81882e-07
7.36124e-07
-7.1432e-07
-2.18039e-08
1.32554e-07
-6.31176e-07
3.60455e-07
6.57674e-07
-7.1475e-07
2.60343e-07
1.45857e-06
-4.9198e-08
-3.48319e-07
-1.56821e-07
-8.16094e-07
9.72914e-07
1.09225e-06
-1.75833e-07
-1.23133e-07
-1.10348e-06
1.47952e-06
-1.66602e-06
1.27226e-06
-1.42545e-07
1.65923e-06
-1.51669e-06
1.59316e-06
1.05221e-06
-1.3449e-06
2.92687e-07
-2.67154e-07
-1.39886e-06
-8.6174e-07
6.72503e-07
-1.54116e-06
1.02273e-06
-1.83424e-08
-4.31016e-07
8.38918e-07
-1.14365e-07
-7.64982e-07
1.17156e-06
-5.53078e-07
-1.43329e-07
2.95209e-07
-2.88672e-07
-7.78929e-08
1.11304e-06
8.69354e-07
-1.08001e-06
-3.89606e-08
5.22909e-07
-4.83948e-07
-9.08078e-07
4.35362e-07
4.72716e-07
-6.27902e-07
-8.59245e-08
7.04114e-07
-7.72036e-07
-9.39586e-07
6.04287e-07
4.83517e-07
-3.39998e-07
-1.43518e-07
-2.56248e-07
2.5153e-07
-8.98763e-07
6.40945e-07
-1.66152e-07
-6.95588e-07
8.86681e-07
-8.65626e-08
-1.65843e-07
9.54293e-07
-1.217e-07
-8.32593e-07
-5.06009e-07
-4.37571e-07
4.59937e-07
-9.29654e-07
7.63503e-07
-1.42551e-07
-7.42267e-07
-4.83957e-07
9.11972e-07
-4.28015e-07
-9.58645e-07
-1.1299e-06
1.0807e-06
-2.2626e-07
-1.68601e-08
5.42079e-08
-7.68528e-07
-1.56471e-06
-1.37724e-06
2.73759e-07
-8.13249e-07
3.69703e-07
4.43546e-07
-8.69954e-07
3.59334e-07
5.1062e-07
4.36984e-07
-1.65414e-06
1.13734e-06
-9.54906e-07
7.28646e-07
-6.62847e-07
-4.37038e-07
5.40731e-07
1.29799e-07
8.78764e-07
-1.00856e-06
7.22155e-07
-4.30852e-07
-3.55089e-07
3.98186e-07
-4.30976e-08
-6.36275e-07
-3.76853e-07
1.01313e-06
1.48823e-06
1.1735e-06
-8.12546e-08
8.39423e-07
-9.62557e-07
1.91403e-07
2.70625e-07
2.56394e-07
-7.6475e-08
3.03267e-08
-8.56993e-07
5.03114e-07
-2.88807e-07
-2.14307e-07
-2.98641e-07
8.89662e-07
-2.68775e-07
-6.20887e-07
-4.54499e-07
-9.50599e-07
7.74766e-07
-3.07135e-07
7.0677e-07
-3.99635e-07
-4.09806e-07
-1.19222e-07
-3.9626e-07
-3.83057e-07
7.79316e-07
-6.18079e-07
-3.45629e-07
7.5403e-07
-4.99158e-08
2.55325e-07
7.35856e-07
7.48002e-08
-5.58748e-07
-2.23947e-07
-2.13091e-07
-3.97481e-07
-2.04098e-07
-1.1408e-06
1.02079e-08
4.92906e-07
9.74287e-07
-3.7e-07
1.75151e-08
2.34015e-07
6.67467e-07
5.64481e-07
2.01016e-07
-1.65919e-08
-1.84424e-07
6.44076e-08
1.1091e-06
-2.49428e-07
-7.01171e-07
1.68502e-07
3.15015e-07
-5.44033e-07
-2.74241e-07
8.18274e-07
-1.00627e-06
-5.83255e-07
-8.80217e-07
-4.72727e-07
-2.51925e-07
7.24652e-07
-5.00251e-07
-4.16383e-07
5.84885e-07
3.60871e-07
-3.18588e-07
-4.22829e-08
-9.94932e-07
-4.72698e-07
9.45414e-07
9.01612e-08
6.34491e-07
-6.90625e-07
-4.72976e-08
4.08168e-07
1.37488e-06
9.99153e-07
-8.34835e-07
6.8533e-07
-9.83971e-07
-9.65778e-07
1.07935e-07
-8.70139e-08
4.30517e-07
-9.94998e-07
5.223e-07
4.45163e-07
8.54622e-07
2.9448e-07
-6.01615e-07
-3.20945e-07
-8.94385e-07
-1.85627e-07
1.89337e-07
-5.29335e-07
8.64927e-07
2.56232e-07
3.53111e-07
-6.09343e-07
-5.74354e-07
9.20877e-07
-3.46523e-07
9.42222e-07
-1.47295e-07
3.23713e-07
5.01288e-07
-7.70063e-07
5.69347e-07
-2.45633e-07
-3.42608e-07
-3.81183e-07
-5.37249e-07
9.18432e-07
-1.20945e-06
-5.47855e-07
9.07189e-07
-3.29324e-07
5.89668e-07
8.13969e-07
-6.44699e-07
-1.6927e-07
4.50661e-07
3.28655e-07
3.82712e-07
-1.27664e-06
8.93929e-07
-1.31349e-06
5.64387e-07
7.49099e-07
-3.74723e-07
2.12895e-07
-1.18788e-08
5.28087e-07
2.85882e-07
-9.55538e-07
9.63061e-07
-5.17898e-07
9.29335e-07
-9.13182e-07
5.40332e-07
-9.68347e-07
1.65597e-07
-6.18311e-07
2.88986e-07
8.78353e-07
1.443e-07
-6.66407e-07
1.94023e-07
-1.4266e-07
1.30781e-07
4.15205e-07
1.71124e-07
4.97368e-07
-2.89955e-07
5.91846e-07
7.45723e-07
7.53524e-08
4.77105e-07
-9.95003e-07
-9.35011e-07
3.14124e-07
-7.49322e-07
2.19495e-07
4.72703e-07
5.244e-07
7.75207e-07
-2.64587e-07
5.41768e-07
-2.47289e-07
6.55467e-07
2.06377e-07
7.60065e-07
3.36011e-07
2.33335e-07
2.96135e-07
5.60666e-07
1.11766e-06
-3.57596e-07
1.01304e-07
2.96883e-07
1.07153e-06
-1.07135e-06
-1.87357e-10
-8.33738e-07
5.55299e-07
2.78439e-07
-1.00175e-06
6.80808e-07
5.43911e-07
-1.87807e-07
-5.02135e-07
-1.64272e-07
-4.91242e-07
-6.64667e-07
2.67185e-07
1.98474e-07
-9.62769e-07
-2.73071e-07
6.99779e-07
3.78401e-08
5.69125e-07
3.11611e-07
-3.28203e-07
5.04255e-08
-4.61783e-07
9.8987e-07
-6.9053e-07
-2.44481e-07
-3.51125e-07
-2.65897e-07
2.16563e-08
-4.09196e-07
-6.11347e-07
-2.34317e-07
8.45664e-07
7.7772e-07
-7.47394e-07
7.83563e-07
1.27001e-06
-7.94897e-07
-8.01019e-08
8.74998e-07
-1.0898e-06
9.0417e-07
5.08026e-07
5.40595e-07
-1.04862e-06
7.8428e-07
-6.5596e-09
1.1847e-06
-7.56018e-08
3.47497e-07
-8.17835e-07
4.18201e-07
9.53706e-07
-4.76096e-07
-3.41739e-07
-9.56427e-07
-5.73468e-07
-8.77788e-07
2.66441e-07
-4.87388e-07
6.96704e-07
-2.09316e-07
7.59994e-07
-1.70101e-07
8.26591e-07
-4.09256e-07
-1.89461e-07
5.98717e-07
-8.06996e-07
-1.0709e-07
3.00717e-07
-6.60541e-07
8.1283e-07
-5.93335e-07
4.62537e-07
3.55737e-07
-8.87197e-07
-5.74659e-07
-5.78514e-07
7.55488e-07
5.98672e-07
-6.76849e-07
2.54568e-07
3.30317e-07
-1.15145e-06
6.55877e-07
-8.27103e-07
1.33513e-06
7.66315e-07
-5.25394e-07
7.14376e-07
1.68803e-07
-5.28244e-07
3.59441e-07
5.51835e-07
2.03654e-07
9.12158e-07
-6.63447e-07
-2.48711e-07
7.17105e-07
-8.77709e-08
4.66479e-07
-1.13368e-07
-1.55068e-07
6.11235e-07
-4.56167e-07
9.53258e-07
-4.28857e-07
-1.04394e-07
8.70285e-07
4.62016e-07
-8.32266e-07
2.09782e-07
-7.68735e-07
7.10192e-07
-1.58357e-07
2.03067e-08
-7.677e-07
7.99098e-07
-1.94807e-07
-6.04292e-07
1.86185e-07
1.28928e-07
-6.1324e-07
8.22907e-07
-2.09667e-07
-5.59309e-07
7.29343e-07
-1.70034e-07
1.7131e-07
-3.27416e-07
-5.59781e-07
5.8211e-07
-1.87953e-07
-1.14794e-06
1.17551e-06
5.10363e-07
-9.04953e-07
-6.57609e-07
-2.76951e-07
4.9705e-08
-2.34129e-07
8.49312e-07
-3.48145e-07
2.94288e-07
2.22371e-07
-5.66655e-07
-1.65082e-07
7.31736e-07
-2.78224e-07
1.74734e-07
1.03491e-07
-4.37257e-07
-1.03693e-07
1.38276e-07
6.38698e-08
7.19693e-07
4.35192e-07
2.65355e-07
1.85858e-07
5.20671e-07
1.89521e-07
1.01901e-06
-4.78418e-07
5.21496e-07
3.00793e-07
-8.22289e-07
-5.23429e-08
3.82119e-07
-2.05739e-08
-7.46279e-07
3.75366e-07
2.32403e-07
-2.56262e-07
-4.10719e-07
-1.18616e-07
-6.91138e-07
7.11444e-07
4.45799e-08
4.3063e-07
-8.83108e-08
-6.1027e-07
7.14039e-07
-1.03768e-07
-2.26249e-07
-5.64261e-07
7.01792e-07
-1.37531e-07
-2.44324e-07
5.47076e-07
-3.02751e-07
2.73528e-07
6.77521e-07
5.93012e-07
-5.10699e-07
-8.23138e-08
-9.6202e-08
2.61799e-07
6.89474e-07
6.45643e-07
1.77264e-07
-3.94913e-07
-1.42765e-07
5.37679e-07
5.84114e-07
-5.00219e-07
-1.09615e-06
4.94668e-07
-7.15784e-07
1.3933e-06
7.04593e-07
-2.09925e-07
4.25757e-07
-8.21449e-07
8.14889e-07
-6.95938e-07
4.80065e-09
9.15215e-08
-4.42976e-07
-6.53175e-07
4.94926e-07
2.26293e-08
6.91409e-07
6.78359e-07
-3.89469e-09
-5.31549e-07
-3.60819e-07
1.97635e-07
2.7114e-07
2.66288e-07
-1.44458e-07
-6.73309e-07
-7.62912e-08
-4.76014e-08
3.43623e-07
-8.3137e-08
7.49253e-07
-2.54327e-07
1.98099e-07
3.11678e-08
2.3512e-07
8.91724e-07
-6.93625e-07
-8.04384e-07
-1.19729e-07
9.24113e-07
-9.53023e-07
9.10021e-08
4.91031e-07
-7.64769e-07
-9.22242e-08
5.63497e-07
-5.32329e-07
-3.2118e-07
8.72909e-08
2.33889e-07
-8.4106e-07
-1.3428e-07
-1.32906e-07
2.67186e-07
2.17704e-07
4.48748e-07
-1.01912e-07
2.32524e-07
-1.30613e-07
-1.40271e-08
-3.51618e-07
3.03229e-07
8.79459e-08
-3.83788e-07
3.83093e-07
-3.22862e-07
6.78176e-07
-4.99789e-07
2.21564e-07
1.3686e-07
-2.02615e-07
5.01259e-07
-1.12989e-07
-2.39648e-07
3.52638e-07
-5.66604e-07
8.18568e-07
-2.51964e-07
5.48776e-07
-2.18459e-07
-4.58284e-07
5.27983e-08
-3.14406e-07
-8.96608e-07
2.95128e-07
-3.35321e-08
-2.72389e-07
1.594e-07
-5.8273e-07
8.8596e-07
3.63353e-07
-6.85535e-07
3.22183e-07
-3.21962e-07
9.15932e-07
-7.06151e-07
-1.98995e-07
1.40242e-06
-1.03972e-06
-4.52349e-08
-4.26474e-07
2.34389e-07
2.37077e-07
3.22527e-07
-1.48095e-07
-8.63457e-08
8.68421e-08
1.35529e-07
-8.39725e-07
7.99158e-07
-1.9332e-07
7.96203e-07
1.72429e-08
-9.62112e-07
9.44869e-07
-1.72813e-07
8.01937e-07
-6.29124e-07
9.60994e-07
3.52532e-07
-1.38041e-07
8.63348e-07
-2.02939e-07
-3.79791e-07
3.18362e-07
-1.35847e-06
1.04011e-06
5.12677e-07
-1.53236e-07
-7.21883e-07
3.99021e-07
-3.95048e-07
-8.16934e-07
7.13165e-07
9.01269e-07
5.9725e-08
9.86185e-07
-1.19021e-06
-4.43388e-07
2.40448e-07
9.84661e-07
5.6501e-07
-3.08616e-07
2.68653e-07
3.76813e-07
1.65599e-07
2.80267e-07
1.61321e-07
4.44371e-07
-1.17696e-07
-3.26675e-07
-1.57197e-07
-7.39411e-07
2.91163e-08
-2.73441e-07
8.67306e-07
-6.90042e-07
7.86818e-07
-2.42983e-07
-5.43835e-07
6.44458e-07
5.07122e-07
-2.09872e-07
3.86437e-07
-1.76565e-07
3.66015e-07
4.03205e-07
-1.0019e-06
9.91832e-07
3.73319e-07
-2.69828e-07
2.51122e-07
5.02929e-07
-1.09676e-06
9.88624e-07
8.81837e-07
-9.56978e-07
-5.69906e-07
-6.64406e-07
-1.52527e-07
-5.024e-07
6.54327e-07
-2.64221e-07
-8.39257e-08
3.48147e-07
-4.14454e-07
6.56712e-07
-8.29525e-07
-3.6956e-07
-4.52729e-07
-1.04923e-07
-1.21946e-06
-9.20689e-07
-1.15788e-06
2.01586e-07
-1.12388e-06
6.52201e-08
-7.96046e-07
1.91754e-07
6.14056e-07
-9.32129e-07
-1.27895e-07
1.72455e-07
1.71011e-07
-3.00741e-07
-8.68835e-07
9.21633e-07
-9.41562e-07
-1.15011e-07
-3.91315e-07
-3.4643e-08
2.34747e-07
6.10917e-07
4.44905e-07
4.26215e-07
4.02435e-07
5.77502e-07
2.92749e-07
2.72938e-07
5.82158e-07
4.45152e-07
2.53644e-07
5.52824e-07
-1.13091e-06
9.61865e-08
-1.53227e-08
1.19083e-06
-1.1212e-07
-8.4257e-07
-6.06525e-07
5.82552e-08
-1.42181e-07
1.42353e-07
1.24314e-07
2.03252e-07
1.40214e-07
1.47171e-07
3.58838e-07
1.58496e-07
6.54051e-07
-1.15579e-06
4.86107e-10
1.32068e-07
6.3777e-07
-8.3109e-07
2.08046e-07
-8.14571e-07
3.67792e-07
2.1178e-07
1.05465e-06
1.06755e-07
6.60454e-08
-6.05616e-07
8.40363e-07
3.90994e-07
-4.04362e-07
5.6401e-07
-6.73494e-08
-1.23982e-06
5.5935e-07
6.80469e-07
3.92497e-07
-7.91765e-08
-6.23044e-07
4.23267e-07
-7.45901e-07
-5.3074e-07
-2.29936e-07
9.49731e-07
-3.58865e-07
5.99314e-07
1.68962e-07
1.10578e-07
3.10189e-07
2.12687e-08
7.75867e-07
-8.48599e-07
7.52645e-07
-7.69505e-07
4.23524e-07
2.28008e-07
-1.16867e-06
-4.84339e-07
-4.03031e-07
1.4685e-06
-9.04109e-07
8.49957e-08
8.78043e-08
-3.25527e-07
1.23443e-08
2.2018e-07
-8.28299e-07
-2.70605e-07
5.65747e-07
-1.31165e-06
1.40984e-07
6.77584e-07
-6.59337e-07
-6.00233e-08
-2.17319e-07
3.14808e-07
-3.00148e-07
-9.18992e-07
1.3314e-07
2.24735e-07
2.21132e-07
9.55907e-07
2.34927e-07
-4.44817e-07
-2.32032e-07
-2.0951e-07
9.28576e-07
4.37331e-08
8.25937e-07
1.18392e-06
-4.24912e-07
3.96102e-07
-9.98145e-07
-3.60326e-07
-5.67412e-07
1.11245e-07
2.31068e-07
1.31513e-06
-4.89196e-07
5.52258e-09
1.19064e-07
-8.12039e-07
-2.52762e-09
1.04027e-07
-1.43644e-06
6.76876e-07
1.11478e-06
9.72809e-08
1.04453e-06
1.17237e-06
4.70351e-07
1.24622e-06
1.07672e-06
2.12668e-07
-1.0864e-07
3.52894e-07
-3.20536e-07
-2.77828e-08
-1.51488e-06
1.57081e-07
-6.13164e-09
4.59124e-07
-1.24324e-07
-1.91865e-07
-4.33899e-07
-3.24079e-08
-3.27713e-07
-8.4481e-10
3.87473e-07
-7.1283e-08
5.89953e-07
-7.51646e-07
1.40705e-06
-7.01924e-07
2.4454e-07
3.02898e-07
2.3478e-07
-8.03771e-07
7.38062e-07
-5.81882e-08
4.55041e-08
1.26841e-08
5.69785e-07
-1.62253e-07
-2.01767e-07
-4.21713e-07
-4.52325e-07
7.64064e-07
-2.39142e-07
3.51015e-07
4.69497e-07
-2.36162e-07
5.94604e-07
-2.98749e-07
1.48801e-07
-1.37618e-06
5.41342e-07
5.21665e-07
-5.88041e-08
2.25985e-07
5.13128e-07
2.7558e-07
-4.49172e-07
-1.30336e-07
1.13041e-07
-2.46516e-07
4.97924e-07
-2.51408e-07
7.70711e-07
1.96285e-08
3.39788e-07
6.97413e-07
1.46928e-09
1.09417e-06
-8.20411e-07
6.08223e-07
7.98822e-07
-5.70594e-07
-1.06323e-06
-5.9121e-07
5.11165e-08
5.07632e-07
7.70711e-07
3.33959e-07
-8.82625e-08
-2.3188e-07
-3.34926e-07
2.1631e-07
8.34777e-07
-8.80012e-07
-1.7132e-07
-8.27716e-07
6.31917e-08
-1.74319e-08
-7.724e-08
-1.30337e-08
-2.50263e-07
8.82962e-08
-3.99266e-09
-3.92505e-08
7.55001e-08
-1.05516e-07
7.8598e-08
-3.46991e-08
3.99266e-09
-7.55001e-08
3.46991e-08
-3.06772e-08
3.53937e-07
2.22528e-08
1.05516e-07
-7.8598e-08
6.31917e-08
-7.724e-08
-2.50263e-07
3.53937e-07
4.88032e-07
-7.98641e-08
-1.59629e-07
4.53012e-07
4.57256e-07
-3.31808e-07
3.31808e-07
-1.59629e-07
-3.56006e-07
-5.04315e-07
2.64441e-07
4.19902e-07
-1.9877e-07
9.11488e-07
4.13315e-07
-6.28525e-07
4.20459e-07
4.87671e-08
-4.20459e-07
4.42692e-08
-8.87175e-07
-6.83774e-07
3.3442e-08
-2.33378e-07
2.51282e-08
-8.33164e-08
5.90588e-07
-1.3134e-07
9.17839e-07
1.04449e-07
-1.27396e-06
-2.0443e-07
-4.57165e-07
8.76225e-08
7.20322e-07
1.52896e-07
-1.20587e-06
1.42638e-07
-7.86224e-07
1.48011e-07
1.28931e-07
-5.91751e-10
-3.26695e-07
-1.87032e-07
1.53253e-07
3.3779e-08
6.89308e-07
-1.7618e-07
4.14552e-08
-4.14552e-08
-3.24542e-07
-2.54103e-07
-9.79882e-07
9.47033e-08
-8.34456e-07
8.83223e-07
4.50693e-08
-2.32101e-07
6.47283e-07
-4.64395e-07
8.46115e-08
-6.48423e-07
7.90243e-07
6.88462e-07
2.87321e-07
-3.09154e-07
3.47728e-07
-5.64146e-07
4.13602e-08
-1.5e-07
3.83092e-07
-2.10316e-07
-6.49238e-08
-6.07015e-08
1.02062e-07
1.42583e-07
-3.60284e-07
-1.02532e-07
8.61315e-07
-4.19958e-07
1.06156e-07
-1.06156e-07
-4.5368e-07
-1.55458e-08
4.5368e-07
-2.76397e-08
-2.27255e-07
2.27255e-07
3.61537e-07
-7.88197e-08
3.70139e-07
-3.32598e-07
-9.38757e-08
-3.6819e-07
-6.0889e-08
1.19144e-07
-1.33829e-07
4.14466e-08
-3.56309e-07
-8.44867e-07
-9.60214e-08
5.09336e-07
1.65282e-07
3.72059e-07
-4.14342e-07
-2.44019e-08
-1.47364e-07
3.3811e-07
-3.3811e-07
4.32987e-07
1.16256e-07
-3.63552e-07
-5.24508e-07
1.98332e-07
3.47069e-07
-5.45401e-07
2.70479e-07
1.09386e-08
2.48518e-07
-1.19303e-07
9.21601e-08
5.97352e-07
3.74648e-08
-7.80874e-08
-1.36213e-07
-5.96793e-09
-3.52091e-08
3.52091e-08
2.69359e-07
2.28565e-07
4.84339e-07
-1.0889e-07
4.75822e-08
6.13075e-08
-7.94674e-08
2.66576e-08
-1.09681e-08
6.49238e-08
-5.75995e-08
1.09681e-08
-3.23519e-07
1.19613e-07
2.03906e-07
1.86784e-07
-9.30289e-08
-3.51576e-07
-2.23128e-07
-1.30564e-06
7.84605e-07
5.21031e-07
-5.91751e-10
-3.16392e-07
-2.51408e-07
3.16392e-07
1.73557e-07
2.75527e-08
-3.277e-07
-8.8325e-08
-1.36655e-07
8.8325e-08
1.36655e-07
-1.09667e-07
1.09667e-07
4.09176e-07
-2.88052e-07
-5.1835e-07
-2.94328e-07
-1.93081e-07
-6.41375e-07
3.78427e-08
1.19406e-07
-1.19406e-07
-7.01924e-07
-1.67682e-07
-9.21601e-08
-1.43842e-07
8.6142e-08
-1.16256e-07
-9.79305e-07
-1.92546e-07
-8.20861e-08
1.49896e-07
1.14756e-06
8.6209e-08
-9.0662e-07
-3.55334e-07
3.38847e-08
3.70139e-07
-3.41123e-07
1.39722e-07