/*--------------------------------*- C++ -*----------------------------------*\
  =========                 |
  \\      /  F ield         | OpenFOAM: The Open Source CFD Toolbox
   \\    /   O peration     | Website:  https://openfoam.org
    \\  /    A nd           | Version:  9
     \\/     M anipulation  |
\*---------------------------------------------------------------------------*/
FoamFile
{
    format      ascii;
    class       surfaceScalarField;
    location    "0.01";
    object      phi;
}
// * * * * * * * * * * * * * * * * * * * * * * * * * * * * * * * * * * * * * //

dimensions      [0 3 -1 0 0 0 0];

internalField   nonuniform List<scalar> 
1363
(
-6.29499e-07
4.82838e-07
1.46662e-07
-4.06659e-07
4.52019e-07
-4.53598e-08
4.11351e-07
-3.8241e-07
-2.89403e-08
-3.57782e-07
6.2207e-07
-2.64287e-07
4.53784e-07
-4.24336e-08
4.16137e-07
-1.97772e-08
-3.9636e-07
-4.3791e-07
4.3791e-07
3.65678e-07
5.04591e-08
-5.15824e-07
4.42107e-07
7.37172e-08
-9.28389e-08
-4.22985e-07
-3.91672e-07
3.79269e-07
1.24037e-08
3.43244e-07
-4.52604e-07
1.0936e-07
3.62986e-07
-7.20769e-07
-3.86727e-07
3.9742e-07
-1.06938e-08
7.21393e-08
2.71105e-07
-3.86268e-07
-2.03909e-08
2.66509e-08
5.51223e-07
-5.77874e-07
-2.50223e-07
-3.79277e-07
-6.27501e-07
-4.27339e-08
6.70235e-07
3.75807e-07
-3.75807e-07
3.93524e-07
-3.66873e-07
-1.24027e-07
-3.28578e-07
-4.88224e-07
-5.67173e-08
5.44941e-07
-3.0991e-08
-5.77662e-07
6.08653e-07
-1.03603e-07
-2.88069e-07
-5.3221e-07
5.0122e-07
3.40398e-07
-3.62157e-07
2.17589e-08
-5.83104e-07
9.48799e-08
5.36624e-07
-6.98757e-07
1.62134e-07
6.49852e-08
-6.64506e-07
5.9952e-07
5.1661e-07
-2.36613e-08
-4.92949e-07
-1.18151e-08
3.52213e-07
-7.75121e-08
6.14136e-07
6.68257e-07
-1.59157e-07
-5.091e-07
3.57733e-07
-3.53281e-07
-4.45197e-09
5.6296e-08
4.89542e-07
-5.45838e-07
-6.8181e-07
3.43369e-07
3.38441e-07
5.74803e-07
-8.11812e-08
-4.93622e-07
-3.24267e-07
-3.57542e-07
-3.51643e-09
-5.74145e-07
-5.41401e-07
6.79551e-07
-1.38151e-07
5.80071e-07
-4.41939e-07
-1.38132e-07
6.09586e-07
-6.13102e-07
-6.67353e-08
-3.71174e-07
3.00008e-07
1.37901e-07
-5.87171e-07
-9.22711e-09
5.96398e-07
5.84095e-07
8.34996e-09
-5.92445e-07
4.48578e-08
6.234e-07
8.98073e-08
-6.31208e-07
-7.62615e-08
-3.10465e-07
-6.0524e-07
-2.22607e-08
5.72975e-07
-6.29692e-07
6.55569e-07
-5.99273e-07
-7.26871e-07
3.66703e-07
3.60168e-07
4.92277e-07
-5.85116e-07
7.24395e-09
4.97507e-07
-5.04751e-07
3.65405e-07
-3.65405e-07
-3.33142e-08
5.25591e-07
3.21233e-07
4.41726e-08
-3.30298e-08
4.842e-07
-4.5117e-07
-4.96613e-07
5.61598e-07
3.70354e-07
-3.66419e-07
-3.93518e-09
3.65922e-07
-5.2508e-07
-4.52397e-08
5.28077e-07
5.50285e-07
2.4518e-08
3.79401e-07
-2.69232e-07
-1.10168e-07
8.19755e-09
-6.16617e-07
6.07464e-07
9.15384e-09
-6.02356e-07
6.096e-07
4.18059e-07
-3.30152e-07
-8.79066e-08
2.82277e-07
1.69743e-07
-4.23296e-07
3.73482e-07
4.98143e-08
3.5445e-07
-3.5445e-07
-1.76609e-07
-4.87896e-07
-5.52302e-07
-1.7457e-07
2.67289e-08
3.49078e-07
-2.7182e-07
-1.03987e-07
-8.68586e-09
5.22772e-07
-6.16212e-09
-3.42739e-07
-4.35289e-08
-1.38255e-09
2.8355e-07
-2.82168e-07
-5.55872e-07
-3.75182e-07
1.94396e-08
3.55742e-07
3.66611e-08
-3.3674e-07
6.75077e-08
-3.74586e-07
3.75864e-07
-1.27821e-09
4.85184e-07
-5.18213e-07
2.88298e-07
6.73719e-08
-3.5567e-07
1.08423e-07
2.88998e-07
-1.12609e-07
-2.62573e-07
3.02189e-07
2.77882e-07
3.24865e-07
-5.11501e-09
-3.1975e-07
-5.6738e-07
5.34066e-07
-7.75092e-08
5.75016e-07
1.82544e-08
-5.23005e-07
-3.73581e-07
3.23385e-07
5.0196e-08
7.21149e-08
-5.14054e-07
-4.58007e-08
3.34099e-07
-2.73063e-07
2.7168e-07
5.36722e-08
3.89515e-07
-4.03915e-09
-3.85475e-07
9.38014e-08
-6.61181e-07
-2.11448e-08
3.51324e-07
-5.36885e-07
5.55139e-07
1.17593e-07
4.44005e-07
1.75673e-08
-6.04738e-07
-3.1591e-08
-6.31964e-07
6.63556e-07
-1.88458e-08
-5.97772e-07
1.54508e-08
5.92013e-07
-2.36796e-08
-5.78676e-07
1.67095e-08
5.9289e-07
4.94338e-07
-1.89488e-07
-2.33808e-07
8.66676e-08
2.92601e-07
3.24865e-07
2.74607e-08
-4.77476e-07
4.50015e-07
4.01756e-07
2.20314e-07
-4.58427e-07
5.12099e-07
1.48326e-07
-5.74771e-07
4.26445e-07
-5.12099e-07
6.29692e-07
5.70465e-07
-4.37658e-08
-5.26699e-07
6.09586e-07
3.34059e-07
-3.17789e-07
4.31949e-07
9.0823e-08
5.72975e-07
-6.90614e-07
6.13102e-07
6.90614e-07
-5.67216e-07
-1.23399e-07
6.55569e-07
5.70931e-07
-6.13665e-07
-5.70931e-07
6.08034e-07
-3.71026e-08
6.13665e-07
-6.05315e-07
6.0871e-07
-5.63852e-07
-6.0871e-07
5.89864e-07
-6.08034e-07
5.98807e-07
-6.11804e-07
5.88124e-07
6.05315e-07
-5.89864e-07
6.04834e-07
-5.88124e-07
-6.04834e-07
6.94641e-07
5.63852e-07
-6.94641e-07
1.30788e-07
-5.98807e-07
5.67216e-07
5.21798e-07
-7.3128e-08
5.05077e-07
3.5896e-07
6.71757e-09
3.99906e-08
5.04609e-08
-3.80613e-07
8.2061e-08
2.91421e-07
6.74008e-08
-5.52015e-07
4.84614e-07
-7.98464e-08
-2.94739e-07
5.93971e-08
2.99563e-07
1.68264e-07
-4.15799e-07
2.47534e-07
3.42644e-07
-3.47759e-07
-3.0647e-07
3.15664e-07
-9.1946e-09
-3.64693e-07
1.14122e-08
1.02629e-07
-4.26897e-07
-2.65789e-07
-7.09515e-08
-4.96841e-08
2.74068e-07
-2.24384e-07
6.72415e-09
-3.46852e-07
-2.94088e-07
2.82998e-08
5.74864e-07
-4.72235e-07
-7.08811e-07
4.44523e-07
3.28446e-07
2.66571e-08
-3.55103e-07
4.85984e-07
-3.1772e-07
-8.84654e-09
-3.46548e-07
3.55394e-07
1.24703e-07
2.64811e-07
4.35661e-07
-8.43369e-08
-3.55668e-08
-4.32719e-10
2.56279e-08
-3.83178e-08
-8.21095e-09
-1.39099e-07
1.17449e-07
2.58415e-07
-4.22765e-07
3.22582e-07
1.00183e-07
-2.4901e-08
3.48286e-07
-1.50545e-07
-2.7222e-07
3.24381e-07
-4.0189e-07
-4.49616e-07
3.42188e-07
1.07427e-07
-3.11674e-07
5.2039e-09
-3.95312e-07
-3.03445e-07
4.10769e-07
-1.27034e-07
-4.26832e-07
-5.15881e-07
-4.90317e-07
-3.08441e-08
5.21161e-07
-3.8786e-07
-7.15727e-08
4.59432e-07
2.98951e-07
-3.78797e-07
4.40428e-07
-9.82391e-08
3.90024e-07
-3.727e-07
-1.73238e-08
3.57805e-07
8.26222e-08
-5.54281e-07
4.15181e-07
4.93882e-08
-5.42337e-07
6.05541e-08
-4.48414e-07
6.14153e-07
-2.51167e-07
4.11973e-07
-4.34775e-07
2.28016e-08
3.78311e-07
3.0124e-07
-6.65937e-07
6.65937e-07
-4.58427e-07
2.02077e-07
4.12076e-07
-4.07569e-07
4.68123e-07
5.15656e-07
5.21366e-07
5.36699e-07
-5.31216e-07
-4.22347e-07
3.50774e-07
-5.63509e-08
-3.64409e-08
-2.91115e-07
4.93192e-07
-2.52619e-07
5.3405e-07
-2.81431e-07
-3.83176e-07
3.79241e-07
-4.80697e-07
-1.73899e-07
4.97344e-07
-3.23445e-07
-4.21233e-08
3.41074e-07
3.97622e-07
-2.94849e-07
-1.02773e-07
-4.3507e-07
2.95653e-10
-4.15767e-07
-1.9303e-08
-3.78757e-07
4.85401e-07
-1.06644e-07
3.8405e-07
-5.57949e-07
-6.74708e-08
4.25276e-07
4.81569e-07
-3.01576e-07
-1.79993e-07
3.23882e-07
-3.23882e-07
3.23974e-07
-3.23974e-07
-1.92632e-09
-3.8125e-07
-3.98782e-07
4.76293e-07
-7.7511e-08
4.33973e-07
5.92645e-08
-4.93237e-07
9.20379e-08
-6.07919e-07
-3.77879e-07
-4.44685e-08
3.27592e-07
-3.27592e-07
-3.12804e-07
3.12804e-07
1.18587e-07
2.35945e-07
-5.27059e-07
3.30503e-07
6.71186e-08
8.66191e-08
4.83361e-07
-4.5205e-07
3.62825e-08
-3.92785e-07
1.73772e-07
2.61889e-07
-5.67267e-08
-3.91041e-07
4.47767e-07
3.92341e-07
-2.92158e-07
-3.1461e-07
4.22038e-07
-4.57896e-07
-4.19567e-07
-4.6079e-08
4.65646e-07
1.58123e-07
4.64058e-07
3.88098e-07
5.495e-07
-1.28012e-08
2.68174e-08
-3.99518e-07
-3.34131e-07
4.16753e-07
1.91616e-07
-4.58511e-07
4.45124e-08
3.80764e-07
-3.00748e-07
-1.31659e-07
4.32407e-07
7.77301e-08
-5.30712e-07
4.24068e-07
1.35421e-07
-4.36169e-07
-3.85702e-07
-3.32416e-07
3.76929e-07
-4.812e-07
4.35121e-07
2.0272e-08
3.95905e-07
-4.16177e-07
-4.50299e-07
4.38552e-07
2.70931e-08
5.16149e-07
-7.75964e-08
-3.46813e-07
4.19493e-07
-7.26803e-08
4.11349e-07
1.64798e-08
3.62761e-07
-4.1432e-07
-2.57104e-07
3.92525e-07
-3.35594e-07
-4.81645e-08
3.83759e-07
-4.18052e-07
4.00728e-07
-2.62985e-08
5.99273e-07
5.35573e-07
-4.60304e-08
5.22989e-07
-5.49288e-07
-3.71674e-07
3.60801e-08
5.3377e-07
-3.06761e-07
-2.27009e-07
-4.36998e-07
4.43722e-07
1.06481e-08
3.68985e-07
-3.79633e-07
-3.99565e-07
4.10213e-07
3.55582e-07
2.13468e-08
3.75854e-07
2.5792e-07
2.7585e-07
5.81131e-07
-1.69782e-07
-4.38566e-07
1.81463e-07
-8.15663e-08
4.67669e-07
-3.86103e-07
-3.33218e-07
2.85054e-07
-5.65218e-07
3.32155e-07
2.33064e-07
4.91256e-07
-3.95208e-07
-9.60476e-08
5.42574e-08
1.23068e-07
-5.18276e-07
-4.76163e-09
4.48484e-07
4.70317e-07
-5.81747e-08
-4.12143e-07
-2.68964e-09
-5.3506e-07
1.49624e-07
3.85436e-07
-4.68484e-07
2.19031e-07
2.49453e-07
7.77837e-08
3.92534e-07
4.12354e-07
3.54135e-08
-4.95404e-07
2.79041e-07
2.16362e-07
3.09308e-07
-3.09308e-07
3.49078e-07
-3.1975e-07
-3.71174e-07
-3.16511e-07
3.16511e-07
-2.91232e-07
2.91232e-07
3.34059e-07
3.65708e-07
-4.73159e-07
1.07451e-07
-3.04593e-07
3.04593e-07
-3.07805e-07
3.07805e-07
3.21233e-07
2.9841e-07
-2.9841e-07
-3.15247e-07
3.15247e-07
-2.7182e-07
2.89442e-07
-2.89442e-07
3.00008e-07
-3.17789e-07
3.57291e-07
2.2384e-07
1.38207e-07
2.78875e-07
-4.17082e-07
3.31158e-07
-3.31158e-07
3.87818e-07
-4.69384e-07
-4.81026e-07
3.42895e-07
3.16542e-07
-3.16542e-07
-5.38067e-07
2.31306e-07
4.19045e-07
-5.43401e-07
1.24356e-07
-8.18471e-08
-3.43176e-07
4.25023e-07
-2.97998e-07
-2.37062e-07
-4.32969e-07
3.51122e-07
-3.53137e-07
-1.8493e-07
-2.41573e-07
-2.26911e-07
3.63705e-07
-6.62554e-07
2.98849e-07
-2.01513e-07
6.11804e-07
5.47024e-07
-4.6924e-07
6.57862e-08
-3.95802e-07
3.30015e-07
-1.93214e-07
5.5465e-07
-4.09723e-07
-1.44927e-07
-4.29286e-07
4.24524e-07
5.6346e-07
-4.34455e-07
4.04279e-07
3.01757e-08
-1.15319e-07
-3.66001e-09
4.56358e-07
-4.02101e-07
4.69877e-07
-3.46809e-07
-8.53417e-08
4.52104e-07
-3.26763e-07
-1.25341e-07
-1.37301e-07
-5.25252e-07
-3.05587e-07
-1.27383e-07
-4.48322e-07
3.90147e-07
-5.0339e-08
1.11832e-07
-4.72217e-07
3.60385e-07
4.14656e-07
-3.4887e-07
4.54662e-07
-3.05038e-07
2.32148e-07
1.67068e-07
-3.99217e-07
-9.98777e-08
4.38355e-07
-3.38477e-07
-2.72516e-08
4.83314e-07
-2.64283e-07
-2.40628e-07
-1.53148e-07
3.93776e-07
1.78419e-07
-4.18921e-07
2.40502e-07
4.8818e-07
-2.09138e-07
-3.13156e-07
-8.26455e-08
5.05617e-07
4.91962e-07
-1.49068e-07
-5.04365e-07
3.59438e-07
2.70727e-08
-9.93112e-09
4.08535e-07
-4.35787e-07
6.77761e-08
1.05295e-07
1.85316e-07
2.70436e-07
-3.70313e-07
-4.40424e-08
1.27899e-07
4.01581e-07
8.67714e-08
-3.99992e-07
3.1322e-07
-1.07112e-07
4.14976e-07
-3.07864e-07
4.29802e-07
-2.51383e-07
3.38826e-07
-4.54144e-07
1.97726e-07
-1.86773e-07
2.46607e-07
-5.07637e-07
3.22707e-07
2.28492e-08
-8.20699e-08
2.98748e-07
2.81294e-07
-4.34443e-07
-2.75222e-07
4.4229e-07
-4.65652e-07
1.60613e-07
-4.776e-07
2.13317e-07
4.39816e-07
-3.12812e-08
3.89477e-07
-3.06917e-07
-1.42205e-07
4.49122e-07
-5.02657e-07
2.75648e-07
-4.55985e-07
-2.72771e-07
-1.26446e-07
-4.72648e-07
2.6351e-07
2.94469e-07
8.86223e-08
-4.31798e-07
-2.30993e-07
-2.80335e-07
-1.48199e-07
3.80211e-07
3.09946e-07
1.31962e-07
-4.41908e-07
4.20829e-07
-3.34057e-07
4.29927e-07
-2.32201e-07
4.37845e-07
2.6803e-07
1.25747e-07
-7.92975e-08
4.0681e-07
-3.27512e-07
-3.66998e-07
4.34774e-07
1.17159e-07
-1.739e-07
3.05775e-07
-4.11454e-07
4.01523e-07
-1.00828e-07
4.14048e-07
3.78932e-07
-1.14323e-07
4.74708e-07
-3.28506e-07
-1.1308e-07
4.41587e-07
3.65522e-07
-4.50864e-07
3.55685e-07
-4.37755e-07
-2.93729e-07
3.85997e-07
-9.22673e-08
3.00914e-07
-4.42829e-07
-1.79949e-07
3.26509e-07
3.54489e-07
-3.99849e-07
-6.13863e-08
-3.37017e-07
4.42312e-07
-3.9215e-07
4.19223e-07
-4.45785e-07
-8.7144e-08
-4.91758e-07
2.22771e-07
2.68986e-07
7.81718e-08
7.53136e-08
-2.54637e-07
4.53113e-07
-1.98476e-07
4.2624e-08
-7.76898e-09
-3.72743e-07
3.80512e-07
-4.44342e-07
1.64007e-07
4.81654e-07
-2.06007e-07
-3.00359e-07
4.54417e-07
-1.90907e-07
5.64768e-08
-4.05347e-07
-2.31025e-07
-2.33838e-07
4.39447e-07
2.47816e-07
-4.25321e-07
3.81278e-07
-4.60644e-07
2.23424e-07
2.92924e-07
-4.72873e-07
-2.37979e-08
2.20132e-07
2.32981e-07
-2.23175e-07
4.85706e-07
-2.62531e-07
1.46364e-07
2.95222e-07
-4.21651e-07
-1.57295e-07
-1.67719e-07
9.76759e-08
3.53626e-07
-4.15012e-07
1.40202e-07
2.45794e-07
4.67948e-07
-2.67575e-07
-1.92461e-07
4.60037e-07
3.6569e-08
-3.49725e-07
-4.65775e-07
3.34116e-07
3.68778e-07
-3.92576e-07
-2.65259e-08
3.81015e-07
3.8081e-07
-5.85993e-07
2.05183e-07
-5.45365e-08
-3.45312e-07
5.29199e-07
2.60904e-07
2.07044e-07
-2.33237e-07
-1.83845e-07
4.83676e-07
2.01437e-07
2.84269e-07
-4.84717e-07
2.5148e-07
-4.51421e-07
-3.99269e-07
5.21438e-07
-1.40628e-07
-2.98174e-07
-3.56645e-07
-2.44377e-07
-4.11181e-07
3.35868e-07
7.81807e-08
-4.35425e-07
2.67705e-07
-1.63033e-07
-3.02742e-07
-1.20639e-08
-1.53946e-07
-3.81769e-07
2.91214e-07
-1.31979e-07
4.66095e-07
9.03325e-08
-5.40631e-07
-1.90042e-07
-2.94675e-07
-3.58884e-07
6.97582e-08
4.58319e-07
4.34418e-07
-3.17007e-07
-3.77869e-09
1.64597e-07
3.5684e-07
-4.02905e-07
4.96398e-07
5.0179e-07
-3.65984e-07
-1.35806e-07
9.8885e-08
3.33365e-07
-6.94903e-08
4.28986e-07
-3.59496e-07
4.97962e-07
3.74802e-07
1.32961e-08
-4.62276e-07
4.54651e-07
-2.08856e-07
3.91281e-07
3.00705e-07
3.29634e-07
-3.71892e-07
3.63391e-07
1.02704e-07
-3.52301e-07
-4.72169e-08
-1.34691e-07
-4.0594e-07
5.41746e-07
-1.84906e-07
-5.80476e-07
-4.03345e-07
5.10447e-08
2.27967e-07
3.06083e-07
4.78579e-07
-3.20455e-07
4.01023e-07
-7.28426e-08
-4.32338e-07
3.80934e-07
-3.29889e-07
-2.20496e-08
-4.21643e-07
3.45752e-07
7.58908e-08
-2.9283e-07
-1.4758e-07
3.59909e-07
3.1936e-07
-4.70131e-07
-3.51545e-07
-1.60954e-07
-2.93586e-07
4.63912e-07
-4.6477e-07
5.0918e-07
2.29805e-07
-2.48756e-07
-2.56292e-07
-2.49536e-07
-2.82157e-07
4.64468e-07
9.53687e-08
-2.52095e-07
-3.20148e-07
-3.14415e-07
2.4631e-07
6.81053e-08
-2.32422e-07
-1.75269e-07
4.71e-07
-2.79384e-07
-1.70939e-08
3.97783e-07
-2.78765e-07
-3.33202e-07
-2.06553e-07
-1.80432e-07
8.83554e-08
2.92334e-07
4.05004e-07
-5.8991e-07
1.84527e-07
-1.75473e-07
-5.42341e-07
5.48954e-07
-1.5543e-07
-3.80002e-07
-5.05828e-07
-5.34252e-07
-2.40371e-07
-7.40447e-08
3.10661e-07
-2.55122e-07
-3.19649e-07
-3.88841e-07
4.93826e-07
4.47374e-07
-5.98913e-07
-4.29497e-07
-3.81822e-07
-2.83493e-07
-2.64373e-07
-3.1636e-08
-1.51944e-07
5.18647e-07
2.37734e-07
-3.18915e-07
-4.63378e-07
-2.63507e-07
-1.01898e-07
-1.99908e-07
-2.29589e-07
-3.21465e-07
-4.16315e-07
-6.48853e-08
-2.49916e-07
-5.48308e-08
3.37107e-07
5.92043e-07
-4.85655e-07
2.13435e-07
-5.18711e-07
-4.95592e-07
5.47513e-07
-5.1921e-08
-3.20713e-07
-4.92586e-07
-3.03895e-07
-5.31713e-08
-2.75406e-07
-2.93542e-07
-3.20713e-07
-3.01128e-07
4.93562e-07
5.53927e-08
3.49044e-08
-2.25207e-07
4.85688e-07
-3.5673e-08
3.26184e-07
-3.1412e-07
-3.56049e-08
3.8452e-07
1.44845e-07
-5.75006e-07
8.37626e-08
4.91244e-07
-3.3463e-07
-1.99631e-07
-4.79638e-07
-6.26967e-07
-3.02883e-07
-1.87897e-07
5.5382e-07
3.87857e-07
4.06603e-07
6.10663e-08
3.1449e-07
9.48377e-09
-4.62875e-09
-3.35789e-07
3.16844e-07
7.03825e-09
3.35789e-07
-3.16844e-07
2.82899e-07
3.1449e-07
2.44161e-07
-4.45244e-07
2.18333e-07
3.6884e-07
-3.01721e-07
4.62797e-07
-3.026e-07
-1.99321e-09
3.13294e-07
1.78638e-08
-2.97071e-07
3.24177e-07
-2.97741e-07
-2.20095e-08
-3.026e-07
3.18754e-07
-2.24334e-09
-3.03482e-07
1.22503e-08
2.95747e-07
-3.05212e-07
-2.59337e-09
2.97071e-07
1.33921e-09
-3.24177e-07
2.57664e-08
2.97741e-07
-8.2992e-09
-2.95747e-07
6.30519e-09
3.05212e-07
-3.18754e-07
3.13294e-07
-3.03482e-07
1.06465e-08
-3.70936e-07
-5.16737e-07
-2.49035e-07
3.46711e-07
-3.34073e-07
4.78918e-07
-4.62474e-08
2.96765e-07
3.89507e-08
3.1184e-07
-3.66134e-07
-1.98871e-08
-3.08808e-07
2.96765e-07
1.96587e-07
-4.72437e-07
-4.59762e-07
4.22659e-07
3.53866e-07
2.8859e-07
2.64185e-09
-2.8859e-07
-3.13071e-07
3.15411e-07
-2.3397e-09
-4.92183e-07
2.10473e-07
2.90702e-07
-3.19643e-07
5.28286e-07
4.12811e-07
-4.42987e-07
-3.51084e-07
2.58817e-07
8.87328e-09
-2.12196e-07
3.36278e-07
6.79856e-08
-3.41048e-07
3.92189e-07
-5.60307e-07
-3.13212e-07
3.13212e-07
-4.35139e-07
-2.65233e-07
-3.03386e-07
3.36278e-07
3.38138e-07
-5.47218e-07
3.88144e-07
-5.95434e-08
-2.87004e-07
1.80011e-07
-3.05758e-07
3.96082e-07
-2.70741e-07
2.50281e-07
-2.50281e-07
3.52934e-07
-3.41822e-07
-2.20693e-07
2.20693e-07
5.13993e-07
-5.13993e-07
-3.97163e-07
-7.88681e-08
-1.85445e-07
4.92822e-07
-5.42387e-08
-4.38584e-07
2.54417e-07
-2.54417e-07
2.8355e-07
1.22298e-07
2.33096e-07
2.74068e-07
-2.85256e-07
2.98116e-07
5.01698e-08
3.23882e-07
-1.36778e-07
-3.59903e-07
3.03766e-07
9.03861e-09
-2.98459e-07
-8.70161e-08
2.91288e-07
-1.21546e-07
5.93062e-08
2.31982e-07
-3.033e-07
-7.67012e-08
-1.59755e-07
-2.36605e-07
-3.03761e-07
5.47258e-08
-2.63507e-07
6.54295e-08
2.90312e-07
6.69571e-08
-2.09775e-07
-2.41203e-07
2.41203e-07
-2.08356e-09
2.87137e-07
-3.30818e-07
-2.82168e-07
2.12514e-07
-2.12514e-07
-3.45734e-07
5.01696e-07
-2.14654e-07
-2.91173e-07
-2.28882e-07
-1.83756e-07
4.89431e-07
-3.05675e-07
5.70175e-07
-1.52702e-07
-4.17473e-07
-2.24384e-07
7.6694e-08
2.51639e-07
-4.66293e-07
5.71049e-07
-1.46681e-07
1.46681e-07
-2.38745e-07
5.2663e-07
-2.02249e-07
4.94291e-07
-4.33225e-07
2.36976e-07
-3.27243e-07
-4.85543e-09
3.3143e-07
2.42731e-07
-4.26487e-07
5.09322e-07
4.03394e-07
1.17874e-08
1.69475e-08
-3.19831e-07
3.52375e-07
-2.02822e-07
-4.44996e-07
-1.8382e-08
-3.03766e-07
3.11814e-07
-3.29916e-08
4.98274e-07
5.60874e-08
2.55726e-07
2.16931e-08
4.76581e-07
2.27421e-07
4.70106e-07
1.53249e-07
4.31131e-07
-6.12341e-08
1.75607e-11
-4.26914e-07
4.05221e-07
2.69597e-07
-7.19133e-08
3.26504e-07
1.4162e-07
-6.26487e-08
2.70262e-07
-2.74041e-07
2.83508e-07
-2.56377e-08
2.95209e-08
-1.3979e-07
2.67922e-07
2.7385e-07
-1.79907e-07
4.00221e-07
4.49897e-08
-2.83235e-07
-4.34631e-09
2.94127e-07
-2.39401e-07
2.85828e-07
-2.08154e-07
2.87478e-07
4.87463e-07
-2.65194e-07
-3.1721e-07
4.59806e-08
-3.18476e-07
9.67354e-08
5.8795e-08
-4.93995e-07
2.58368e-07
-2.61234e-07
-1.82079e-07
-3.48379e-07
3.29997e-07
7.77028e-08
-9.68349e-08
)
;

boundaryField
{
    back
    {
        type            empty;
        value           nonuniform List<scalar> 0();
    }
    front
    {
        type            empty;
        value           nonuniform List<scalar> 0();
    }
    top
    {
        type            calculated;
        value           nonuniform List<scalar> 10(-6.79269e-07 -7.38984e-07 -5.59837e-07 -3.80689e-07 -3.80689e-07 -5.59837e-07 -6.79269e-07 -1.41825e-07 -1.41825e-07 -7.38984e-07);
    }
    outer_arc
    {
        type            calculated;
        value           uniform 0;
    }
    bottom
    {
        type            calculated;
        value           nonuniform List<scalar> 10(4.4041e-07 4.5454e-07 5.05047e-07 5.31693e-07 5.72243e-07 4.07691e-07 6.11967e-07 3.86985e-07 6.99438e-07 3.91195e-07);
    }
    inner_arc
    {
        type            calculated;
        value           uniform 0;
    }
}


// ************************************************************************* //
