/*--------------------------------*- C++ -*----------------------------------*\
  =========                 |
  \\      /  F ield         | OpenFOAM: The Open Source CFD Toolbox
   \\    /   O peration     | Website:  https://openfoam.org
    \\  /    A nd           | Version:  9
     \\/     M anipulation  |
\*---------------------------------------------------------------------------*/
FoamFile
{
    format      ascii;
    class       volVectorField;
    location    "0.79";
    object      U;
}
// * * * * * * * * * * * * * * * * * * * * * * * * * * * * * * * * * * * * * //

dimensions      [0 1 -1 0 0 0 0];

internalField   nonuniform List<vector> 
942
(
(0.0224559 -0.0701135 0)
(-0.0246628 -0.0025763 2.70159e-17)
(0.0434824 0.104973 0)
(0.00949313 -0.0788933 -1.42821e-17)
(0.0457634 0.118256 8.56781e-18)
(0.0375043 -0.0540087 1.50921e-17)
(0.00556345 -0.00835186 3.97274e-17)
(0.0472157 -0.0764071 0)
(0.004136 -0.0484682 -3.12808e-17)
(0.0049598 -0.053071 3.18847e-17)
(0.0549276 0.0406172 0)
(0.161722 -0.00281325 0)
(0.00904637 -0.0802463 1.33197e-17)
(0.0513575 0.0464285 0)
(0.165741 0.0114449 0)
(-0.0349276 -0.003493 -2.93601e-17)
(-0.0161444 -0.0326172 -1.15831e-17)
(0.0192149 -0.0700712 0)
(-0.0158447 -0.0152132 -3.46886e-18)
(-0.0212028 -0.0170997 5.30451e-18)
(8.55897e-05 -0.0171417 1.97502e-17)
(0.173205 -0.0144459 1.57721e-17)
(0.0187943 -0.0253418 0)
(-0.0211235 -0.0321828 -3.13541e-17)
(0.0654757 0.046008 0)
(-0.0275694 -0.0458589 2.35522e-17)
(0.0476693 0.129447 0)
(0.0198296 -0.0326074 2.00236e-17)
(-0.0412032 -0.0406021 0)
(0.0150424 -0.0510519 1.26463e-17)
(-0.034283 -0.0351659 1.58727e-17)
(0.0408254 0.122192 0)
(-0.0356066 -0.0358874 1.49398e-17)
(-0.00675342 0.0527067 1.7571e-17)
(0.055449 0.111726 -1.71959e-17)
(0.00899326 -0.0270512 3.30135e-17)
(0.026314 -0.0558353 1.11603e-18)
(0.004958 -0.0413797 0)
(0.0325312 -0.0525204 -5.69959e-19)
(-0.022182 -0.0268371 2.23775e-17)
(-0.0575019 0.067765 -3.12845e-17)
(-0.000371561 -0.144104 0)
(-0.0121666 -0.00795414 -1.54776e-17)
(0.00745877 -0.0159489 -1.32446e-17)
(0.00834246 -0.0139836 -3.35076e-17)
(-0.0275508 -0.0381805 7.55609e-18)
(-0.0163618 -0.0077617 -1.53778e-17)
(-0.0224295 0.0407674 -1.45048e-17)
(-0.0966756 0.0639273 1.61008e-17)
(0.0620467 0.0547991 1.88559e-17)
(-0.0218115 -0.0110669 0)
(0.0113237 -0.0151273 0)
(0.00316202 -0.017883 -2.22794e-17)
(0.00274099 -0.0349224 1.77624e-17)
(0.00507847 -0.0656281 0)
(-0.0928892 -0.0202362 -1.17618e-17)
(0.0263734 0.00378265 -2.97958e-17)
(0.00643468 -0.0687393 -2.13626e-18)
(0.0160155 0.0100519 3.81687e-17)
(0.127884 0.0308192 1.64706e-17)
(0.0112663 -0.0374709 -1.57204e-17)
(0.0513972 0.119627 -4.04617e-17)
(0.0232888 0.0635504 1.88881e-17)
(0.0233628 -0.0636621 -1.54073e-17)
(0.00711468 -0.0421395 1.46101e-17)
(-0.0191805 0.0237948 1.12385e-17)
(0.0441351 0.112615 3.16377e-17)
(0.011528 0.000409598 -1.45718e-17)
(-0.115383 0.00404057 1.48718e-17)
(0.0202996 -0.0414667 4.10693e-18)
(-0.0323516 -0.0091588 0)
(0.00603695 -0.0330437 0)
(-0.0392941 -0.00408354 -1.94366e-18)
(0.01405 -0.0575199 3.7917e-18)
(-0.00471502 -0.0365619 -1.68311e-17)
(-0.00742446 -0.0167917 2.71368e-22)
(-0.0318585 -0.0173628 1.95481e-18)
(0.0474213 0.103187 1.74766e-17)
(-0.022173 -0.0238066 -1.89943e-17)
(-0.0226718 0.00884722 -3.84829e-18)
(0.0165766 -0.0201495 2.27872e-17)
(-0.0355139 -0.0421689 -8.19204e-18)
(0.0532252 0.0262981 -2.06859e-18)
(-0.0282621 0.0101382 8.47375e-18)
(-0.0193448 0.0260672 0)
(0.0360659 0.142951 0)
(0.107437 0.022976 -1.72864e-17)
(0.0974966 -0.00223288 4.74577e-18)
(0.059384 0.0552475 0)
(0.0624843 0.0268031 2.36556e-17)
(0.0131674 -0.110842 -1.20292e-17)
(0.0314385 0.0551844 5.4578e-19)
(0.00641785 -0.0749204 2.40393e-18)
(-0.0654591 -0.00259355 0)
(-0.0844117 -0.0558999 -4.63683e-18)
(0.0422376 -0.0145212 8.59623e-18)
(-0.0266173 -0.138576 1.47092e-17)
(0.066729 -0.010799 -1.38364e-17)
(0.0254585 -0.0303901 -2.05517e-17)
(0.00694369 -0.0332377 -2.93468e-17)
(0.0110633 -0.0314799 -8.82004e-18)
(0.00546787 -0.0769758 9.95311e-18)
(-0.0120435 -0.00287431 0)
(0.0179994 -0.0359653 1.12988e-17)
(-0.0566326 -0.0854052 -1.77856e-17)
(0.0116876 -0.0303295 -2.88051e-17)
(-0.026141 -0.0381425 -1.01539e-17)
(-0.0312498 -0.0405061 0)
(0.00445154 0.0166789 1.57005e-17)
(-0.00344487 -0.00079385 0)
(-0.102796 -0.00360605 0)
(-0.120949 0.0388247 -1.56896e-17)
(0.0857025 0.0102623 3.14636e-17)
(0.00575364 -0.0373999 0)
(0.0637574 0.0500136 0)
(0.0179032 0.0317433 2.12881e-18)
(0.124633 -0.0109407 -1.69123e-17)
(0.0125524 -0.0777017 1.80484e-17)
(0.00391683 -0.015673 -1.61536e-24)
(0.110488 0.110459 -2.05882e-18)
(0.0072937 -0.015938 6.87309e-18)
(-0.0541194 -0.0311512 -1.77009e-17)
(-0.00185462 0.0102706 0)
(-0.0553487 -0.00268145 1.55988e-17)
(-0.0526513 0.00376919 1.26315e-17)
(-0.0189139 -0.0404841 -3.37275e-17)
(0.00570204 -0.00831458 1.78167e-17)
(-0.0211529 -0.0195297 -1.70156e-17)
(-0.0223775 -0.0273178 3.11202e-17)
(-0.00616105 -0.0167191 1.6287e-17)
(0.00479364 -0.000368098 -8.38937e-18)
(0.000221687 -0.00893996 -1.94088e-17)
(0.00263829 0.00579484 0)
(-0.0527787 0.0277782 0)
(-0.0157608 0.026462 -1.74338e-17)
(-0.0110099 -0.0182465 -1.21213e-17)
(-0.0988456 0.0216306 1.05216e-18)
(0.000845051 0.00971575 0)
(-0.146292 0.0469703 2.14781e-17)
(-0.140984 0.0557383 -7.35804e-18)
(-0.0985812 0.0438772 1.73277e-17)
(-0.0187249 -0.024667 0)
(0.0978887 -0.00794609 -1.7306e-17)
(-0.00411259 -0.0322043 1.87195e-17)
(0.0545823 -0.0701832 -4.35553e-18)
(-0.0370521 -0.0343746 -7.91447e-18)
(0.0149851 -0.0307943 0)
(0.00785126 -0.0382784 -1.04883e-17)
(0.00774653 -0.0497923 2.64589e-17)
(0.0414672 0.14612 0)
(0.0717391 -0.0855491 4.70509e-18)
(0.142198 0.104874 5.1842e-18)
(0.0518795 0.0837792 0)
(0.023301 -0.0369602 9.82368e-18)
(0.0502569 0.0940179 -1.71021e-17)
(0.0322782 -0.0465849 0)
(-0.00986986 0.0265554 1.93159e-17)
(0.00178651 -0.0160653 0)
(0.140114 0.0049418 0)
(0.0172242 -0.0176705 7.13989e-18)
(0.00547152 0.0355638 -2.49358e-17)
(0.0285346 -0.0398493 0)
(0.00638221 -0.0768566 0)
(0.128616 -0.0499738 8.74442e-18)
(0.126619 0.0968902 0)
(0.0499875 0.0530011 -2.61354e-17)
(0.0139515 -0.0359503 0)
(0.0232833 -0.0456008 0)
(-0.0311189 -0.0443309 1.5429e-17)
(-0.00438753 0.000183032 1.84482e-17)
(0.0294469 0.0373437 -1.53362e-17)
(-0.102058 0.0383618 -2.02304e-18)
(-0.0930334 -0.0269972 5.47948e-21)
(0.0174899 -0.0350301 9.87679e-18)
(0.0392384 0.157902 0)
(0.0240485 -0.0617201 -1.91709e-17)
(0.032305 -0.00692796 -1.81793e-17)
(0.0220578 -0.0627452 0)
(-0.0360666 -0.0241179 6.31366e-19)
(0.0287245 -0.065168 0)
(0.0179795 -0.031163 -1.15339e-17)
(-0.0394849 -0.0418807 0)
(0.00982824 -0.0566237 -2.26086e-17)
(0.0269704 -0.0666217 2.08709e-22)
(0.0162849 -0.0659827 -1.14184e-17)
(-0.0422645 -0.0449314 0)
(0.101469 -0.0375004 -8.98748e-18)
(0.0342403 0.0709627 1.80593e-17)
(0.0494902 0.156398 2.55986e-17)
(0.0319636 -0.0688185 8.6335e-18)
(0.0715015 0.132664 3.45765e-17)
(0.0332893 -0.0670844 -8.65246e-18)
(0.0204463 -0.0476534 -1.09644e-17)
(-0.0241251 -0.0160046 -1.66049e-17)
(0.0279301 0.054617 9.14537e-18)
(0.0113219 -0.078776 -8.21917e-18)
(0.0278453 0.0571937 0)
(0.0191261 -0.0536866 2.93791e-17)
(-0.0502126 0.0721803 -2.1219e-17)
(0.000423835 0.00387292 1.60141e-17)
(0.000734261 -0.00926184 0)
(0.0143901 -0.0786156 8.34383e-18)
(0.0125528 0.0169228 0)
(-0.0224026 -0.0369228 -1.93975e-17)
(0.0628546 -0.0012711 1.83623e-17)
(-0.0610138 0.0341218 0)
(-0.0870492 -0.0650668 1.82065e-17)
(0.0458058 0.106209 -3.97784e-17)
(-0.000859551 0.00202351 -1.54705e-17)
(-0.00627015 -0.0250593 1.52997e-17)
(0.0333132 0.0733052 -8.87116e-18)
(0.015768 -0.0755623 3.46337e-22)
(0.00823924 -0.0586485 1.41647e-17)
(0.0613126 0.137051 8.41776e-18)
(-0.000659057 -0.00702645 0)
(0.0261743 -0.0771289 -8.85676e-23)
(0.0505128 0.159952 -2.10239e-17)
(0.0958379 0.116709 1.76722e-17)
(0.0384095 0.0788646 1.75734e-17)
(0.0354194 0.0667325 -3.0837e-22)
(0.0312966 -0.0753218 0)
(0.0243563 -0.0769663 -1.69718e-17)
(0.0362844 -0.069249 0)
(0.02104 -0.0771368 0)
(0.00204216 -0.00977695 -1.77208e-17)
(0.015919 0.0552239 1.75948e-17)
(0.0667581 0.137306 -1.24003e-17)
(0.0362273 -0.0719342 -1.74385e-17)
(0.00243876 -0.00625091 2.59774e-17)
(0.0268734 0.0418116 0)
(-0.0365575 -0.035522 -1.61867e-17)
(0.0512981 0.119642 -3.11144e-17)
(0.0173724 0.0429185 1.70469e-17)
(0.00344068 -0.00717451 -9.33972e-18)
(0.0293639 -0.0766345 -8.7703e-18)
(0.0135715 -0.0723026 2.78336e-22)
(0.0917326 0.120003 -1.83346e-17)
(0.0344442 -0.0746129 1.75176e-17)
(0.00602225 0.0248773 -1.68404e-17)
(0.0504309 0.0872342 1.73721e-17)
(0.0493896 0.076341 0)
(0.0235704 -0.0425424 -4.27343e-18)
(0.0392655 -0.0719165 8.63984e-18)
(0.0230465 -0.0537265 -9.76393e-18)
(0.0271169 -0.0575133 -1.72769e-17)
(0.00316919 0.0117408 -1.75257e-17)
(0.0396117 -0.0675584 8.69544e-18)
(0.0242766 -0.0769923 -9.4208e-18)
(0.0387461 -0.0713118 -1.74453e-17)
(0.00668088 0.0234098 4.31076e-18)
(0.0685733 0.138347 -4.3678e-18)
(-0.0286775 0.0446394 -1.60799e-17)
(0.0769755 0.13397 0)
(-0.0079348 0.00855411 1.30166e-17)
(0.0309515 -0.060548 1.71653e-17)
(0.018903 -0.0752022 1.90793e-17)
(0.0374023 -0.0723077 0)
(0.0373273 -0.066772 0)
(0.100611 0.111482 -8.64082e-18)
(0.0232804 -0.0505072 9.72631e-18)
(0.0291671 -0.0737033 -8.58243e-18)
(0.104872 0.112063 8.49545e-18)
(0.0670195 0.129567 -2.13272e-17)
(0.0341508 -0.0615756 -4.53776e-18)
(0.0374731 -0.0637998 9.03276e-18)
(0.00700808 -0.0495277 0)
(0.0269955 -0.0551312 0)
(0.041971 -0.06499 0)
(-0.0264745 -0.0197681 1.6463e-17)
(0.0422495 -0.0676224 8.79375e-18)
(0.0391231 -0.0653329 1.66401e-17)
(0.0569071 0.148432 -1.5916e-17)
(-0.0227721 0.0742281 1.87587e-17)
(0.0609354 0.143899 -8.38923e-18)
(0.0486092 0.105827 1.76654e-17)
(0.097152 0.107772 -1.75952e-17)
(-0.0117685 -0.0123328 0)
(0.0422015 -0.0607401 0)
(0.0652061 0.120396 -8.70303e-18)
(0.0127953 -0.0164892 -1.8095e-17)
(0.030087 -0.0581265 0)
(-0.0124754 -0.0359427 -1.48644e-18)
(0.0196089 -0.0242324 1.83679e-17)
(0.0451074 -0.0626648 0)
(0.0657041 0.0301017 3.43269e-17)
(0.149895 0.00711247 -1.69541e-17)
(0.0431338 -0.0583209 2.58189e-17)
(0.0469382 -0.0641605 1.71614e-17)
(0.0337968 -0.0578682 4.44534e-18)
(0.0386259 -0.0603078 4.41975e-18)
(0.0594801 0.0333443 -1.74089e-17)
(0.0279351 0.087495 2.03549e-17)
(0.0901045 0.0963266 -7.87547e-18)
(0.00122696 -0.110321 1.92736e-17)
(0.036564 -0.0493259 4.89262e-18)
(-0.00732708 -0.0291313 -1.57591e-17)
(0.148244 0.0570647 0)
(0.151513 0.0301087 8.80089e-18)
(0.147751 0.0772006 8.17448e-18)
(0.155157 -0.0152522 0)
(0.136256 -0.0493975 0)
(0.0423111 -0.0540546 -8.83338e-18)
(0.159672 0.121212 -3.94201e-18)
(0.129104 0.05464 -2.75017e-17)
(0.107533 -0.0439746 -2.73885e-17)
(0.0416419 -0.07057 8.6161e-18)
(0.0667301 -0.0668991 -2.7417e-17)
(0.0290814 -0.00435981 0)
(-0.0127673 -0.00719867 -7.96637e-18)
(0.0175538 0.026224 1.66518e-17)
(0.000341746 -0.00401818 1.35074e-17)
(0.0126993 0.0061741 2.52764e-22)
(0.050201 -0.033804 -2.38008e-18)
(-0.0410425 -0.00664592 -1.66029e-17)
(0.00284265 -0.150587 3.0102e-21)
(0.0120493 0.0115683 2.68121e-17)
(0.00469631 -0.00793749 -1.82449e-17)
(0.00438894 0.00904006 -1.28656e-21)
(0.00572249 0.000885487 -4.72255e-18)
(0.0619239 -0.0142692 0)
(-0.0267206 -0.0139748 -4.87352e-18)
(0.0136682 0.0156252 0)
(0.00145743 -0.00357238 1.91438e-17)
(-0.033077 0.00224163 -3.41487e-17)
(0.0353675 0.0898212 -2.14738e-17)
(0.10654 0.10543 -1.74859e-17)
(0.0126618 0.00894413 0)
(0.0133507 -0.109861 -8.86305e-18)
(0.0210853 -0.158192 0)
(0.0107965 -0.0159495 0)
(0.040133 0.00339701 -3.44804e-17)
(0.0324211 -0.0750556 -1.51724e-17)
(0.0474118 -0.124785 8.60941e-18)
(0.161194 0.112609 -1.54826e-17)
(0.0462308 -0.100292 0)
(0.0530652 0.00171608 1.72507e-17)
(0.108122 0.0137821 9.85143e-18)
(-0.0119844 -0.028596 -5.08813e-19)
(0.00455269 -0.0257959 0)
(-0.0344382 -0.00544306 -1.70589e-17)
(0.0678785 -0.0347168 2.52684e-17)
(0.0765904 -0.0311882 -1.72423e-17)
(0.046919 -0.10563 -4.48057e-18)
(0.0510888 -0.0214399 -4.30273e-17)
(0.146526 -0.0179695 -1.74164e-17)
(0.0167497 -0.00950864 0)
(0.151863 -0.0491226 1.76897e-17)
(0.0199329 -0.16537 1.71126e-17)
(0.0448512 -0.0667592 1.71584e-17)
(0.141829 0.0246786 -8.57899e-18)
(0.03041 -0.0192497 1.72574e-17)
(0.141558 0.0679305 3.27078e-23)
(0.0183317 -0.131813 -4.36335e-17)
(0.14823 0.101398 -8.99008e-18)
(-0.000984983 -0.0276732 -1.54076e-17)
(0.0426644 -0.0766223 0)
(0.148954 -0.0544645 1.74012e-17)
(0.0321853 -0.0897007 0)
(0.141117 -0.0337482 8.55055e-18)
(0.10434 -0.0374626 1.72331e-17)
(0.164201 0.11318 2.18577e-17)
(0.125405 -0.111001 0)
(0.122303 0.0306418 -2.42549e-18)
(0.0416074 -0.0693983 1.46489e-17)
(0.161632 0.0684214 -1.73422e-17)
(0.102277 0.0522107 9.09674e-18)
(0.155754 -0.0652066 -8.71647e-18)
(0.00864831 0.00370727 3.98551e-17)
(0.103653 -0.0550771 2.59176e-17)
(0.0520614 -0.0327814 -4.49954e-18)
(0.0873635 0.102529 0)
(0.0377498 -0.0308496 1.70444e-17)
(0.0132798 0.00464366 -8.65905e-18)
(0.0482749 -0.158367 -1.65839e-17)
(0.0924297 -0.0217833 8.67338e-18)
(0.137502 0.00274282 8.58845e-18)
(0.116961 -0.0324514 8.67349e-18)
(0.147186 -0.0342509 1.77597e-17)
(0.04437 -0.0711985 8.46223e-18)
(0.132184 0.0452264 8.55945e-18)
(-0.00262408 0.00202274 1.94772e-17)
(0.00377452 -0.00702201 0)
(-0.0228363 0.00587831 1.74139e-17)
(-0.0486548 0.00038703 0)
(-0.00168302 -0.0058117 4.32903e-18)
(0.132641 0.0832252 2.70075e-17)
(0.168039 0.0950374 3.40868e-17)
(0.160149 0.0448172 2.63924e-18)
(0.155623 -0.0541295 -3.53618e-17)
(0.143367 0.104484 -3.61007e-17)
(0.0131779 -0.00110703 -8.85695e-18)
(-0.101859 0.0451373 -4.38008e-18)
(0.0503811 -0.0986323 0)
(0.0641755 0.0645977 1.77653e-17)
(-0.0594856 0.0159044 4.63511e-18)
(0.065 -0.141339 0)
(0.165046 -0.0578176 1.68991e-17)
(0.00452508 -0.00524192 4.54317e-18)
(-0.00956367 -0.0125495 8.948e-18)
(-0.0896395 0.0290353 -1.12204e-18)
(-0.0862201 0.0385203 -7.73799e-18)
(0.0326611 -0.157319 -2.54518e-17)
(0.0991743 0.030741 0)
(0.135834 -0.0893048 8.1003e-18)
(0.125794 -0.0116727 0)
(0.0889132 0.0100378 0)
(0.023877 -0.038227 0)
(0.153831 -0.0461052 0)
(0.0656888 -0.130876 8.53174e-18)
(0.0066307 -0.0104516 2.61078e-17)
(-0.0116086 -0.0148554 -1.86467e-17)
(0.136222 0.0712169 8.58484e-18)
(0.127925 -0.112192 0)
(0.161545 0.102385 2.56637e-17)
(0.170378 0.0420314 0)
(0.0467644 -0.0744876 -8.636e-18)
(0.0387417 -0.0871539 8.63098e-18)
(0.0827993 -0.152382 8.49689e-18)
(0.0947011 0.0434031 1.7208e-17)
(0.0615741 -0.15973 8.49136e-18)
(0.099141 -0.127513 1.78691e-17)
(0.120358 -0.0807814 -3.43245e-17)
(0.0632855 -0.116666 0)
(0.0427145 -0.119778 -8.49018e-18)
(0.157677 0.00429049 1.71346e-17)
(0.181111 0.0962257 -1.70877e-17)
(0.105794 -0.00066871 0)
(0.0687941 -0.0204892 1.80107e-17)
(0.113629 0.0846059 1.72801e-17)
(0.0330235 0.0514378 -3.21177e-17)
(0.0617882 0.0170126 0)
(0.119637 0.0890503 1.72585e-17)
(0.0789837 0.0586519 0)
(0.11432 -0.0134785 0)
(0.0174073 -0.0308094 0)
(0.0859039 -0.140508 0)
(0.105481 0.0357993 2.57637e-17)
(0.0541959 -0.14417 0)
(0.09646 -0.118867 8.60725e-18)
(0.085779 0.0701824 -1.81262e-17)
(0.048795 -0.163305 8.47707e-18)
(0.180744 -0.0286693 -1.56509e-17)
(0.124746 -0.0356197 -1.72253e-17)
(0.0733954 0.0639475 0)
(0.0472043 -0.0708466 -1.71715e-17)
(0.137768 0.0874298 -2.57341e-17)
(0.14635 -0.0155478 0)
(0.142502 0.00378293 0)
(0.107908 -0.129525 0)
(0.029223 -0.123228 1.70848e-17)
(0.146614 -0.044696 1.05461e-21)
(0.115275 0.0173599 1.24159e-23)
(0.0884546 -0.00885393 -1.77873e-17)
(0.0365578 -0.137103 0)
(0.147228 -0.0133976 0)
(0.104477 0.0336388 0)
(0.134764 0.00216677 0)
(0.00432462 9.36984e-05 0)
(0.04095 -0.0989907 -8.58932e-18)
(0.125108 0.00521053 -1.74893e-17)
(0.108911 0.0696792 2.58103e-17)
(0.111468 -0.00218391 -8.60804e-18)
(-0.0400572 -0.0408785 1.7319e-17)
(0.144507 -0.0312562 -8.54093e-18)
(0.0795888 0.0626997 8.73191e-18)
(0.122066 -0.0267944 -8.58819e-18)
(0.0434076 -0.0783469 0)
(0.0995368 0.0769293 -1.72722e-17)
(0.0918785 0.0504673 -3.43257e-17)
(0.125605 0.0795037 0)
(0.0929444 0.0165212 -1.72117e-17)
(0.0753556 -0.0193836 -1.74826e-17)
(0.10402 -0.0178888 0)
(0.179812 0.0730401 0)
(0.108619 0.0642801 8.21883e-22)
(0.0943844 0.094656 7.81474e-18)
(0.14835 -0.0623872 0)
(0.110744 -0.0457381 -2.57541e-17)
(0.188407 0.0527267 0)
(0.0816322 0.05809 0)
(0.0426066 -0.0699516 -1.70786e-17)
(0.104153 0.0716979 -1.71674e-17)
(0.13896 -0.0535061 0)
(0.127621 0.0702246 -1.71284e-17)
(0.167309 -0.024088 -8.55457e-18)
(0.130734 0.0397465 1.7142e-17)
(0.163485 0.0685186 -1.75588e-17)
(0.121051 -0.0436387 1.7213e-17)
(0.152897 -0.0809897 0)
(0.123598 0.0890654 -8.5537e-18)
(0.109884 0.0736929 -3.02802e-17)
(0.142813 0.0246295 0)
(0.125012 0.0765038 0)
(0.137474 -0.0503734 2.56527e-17)
(0.0456494 -0.06908 -1.67856e-17)
(0.106584 0.107706 0)
(0.132082 0.0567305 1.71263e-17)
(0.0944394 0.110894 3.60633e-17)
(0.138444 0.0229415 -1.71361e-17)
(0.0446616 -0.0890077 0)
(0.122339 0.0356796 3.65088e-17)
(0.113481 0.0861766 8.55083e-18)
(0.0457024 -0.0941354 0)
(0.106173 0.0995788 1.71121e-17)
(0.0595419 -0.0376709 -9.44635e-18)
(0.0954704 0.102726 0)
(0.092636 -0.0413521 0)
(0.025764 -0.00741838 0)
(0.0578479 0.0454024 1.51654e-17)
(0.0176373 0.0115452 -8.35679e-18)
(0.183187 -0.00709978 -2.08361e-17)
(0.111736 0.0926997 0)
(0.107134 0.101898 8.79262e-18)
(0.0966844 0.0823183 -1.71385e-17)
(0.107435 0.0813453 2.88986e-17)
(0.0480545 -0.0717155 0)
(0.0999372 0.0920499 -7.43274e-18)
(0.113123 0.103478 0)
(0.0526719 -0.00495862 0)
(0.0413097 0.0275893 0)
(0.177427 0.032899 0)
(0.085727 -0.042251 8.63881e-18)
(0.0648327 0.00969247 0)
(0.113953 0.0984223 0)
(0.0484253 0.0218286 -8.72043e-18)
(0.0539417 0.0471565 -8.55629e-18)
(0.135294 0.0557161 0)
(0.0954565 0.095947 0)
(0.135523 0.038279 0)
(0.06466 0.038513 3.43736e-17)
(0.0664353 -0.0287665 2.61406e-17)
(0.124374 0.0637737 0)
(0.18494 0.0219269 1.47395e-17)
(0.0660773 0.111163 -1.73201e-17)
(0.096694 0.0874383 1.71433e-17)
(0.0828058 0.0905749 -1.7183e-17)
(-0.00662332 -0.0072614 -3.15327e-22)
(0.10299 0.0887369 0)
(0.0403372 -0.0680925 0)
(0.0731109 0.130312 1.6606e-17)
(0.027358 -0.064166 0)
(0.116035 0.0910662 0)
(0.0581706 0.0426182 -1.53281e-17)
(0.0387593 -0.0554109 -2.17919e-17)
(0.0438251 0.0348257 0)
(0.0286674 0.0360366 -1.72373e-17)
(0.115978 0.0972997 0)
(0.0809134 0.0718043 -1.71776e-17)
(0.0469422 0.0476672 -8.62419e-18)
(0.0470431 0.0569178 3.45045e-17)
(0.0820664 0.0777682 0)
(0.105899 0.105078 -1.70986e-17)
(0.0790579 0.112709 8.62365e-18)
(0.0649439 0.0611737 0)
(0.0638476 0.135239 2.16068e-17)
(0.0652569 0.0677345 -8.61588e-18)
(0.0664865 0.0934016 -1.72607e-17)
(0.107392 0.0407923 -1.60694e-17)
(0.0617374 0.142365 -8.69624e-18)
(0.108794 0.0553567 0)
(0.0987012 0.117199 -1.72935e-17)
(0.0351353 -0.0737217 0)
(0.0255532 -0.0738935 2.55957e-17)
(0.0827431 0.0986538 2.58037e-17)
(0.0808167 0.129049 1.72415e-17)
(-0.0018553 0.00196277 3.48876e-17)
(0.0245179 0.016919 -9.21678e-18)
(-0.0280801 -0.0268263 -1.75325e-17)
(0.085477 0.127924 0)
(0.0110512 -0.058025 0)
(0.0772932 0.120999 -1.72823e-17)
(0.0586478 0.13825 3.59735e-17)
(0.0200402 0.0130315 0)
(0.0667067 0.0845769 -2.58458e-17)
(0.0248217 -0.0732984 -3.08868e-22)
(0.0554757 0.108026 8.72994e-18)
(0.089583 0.123752 0)
(0.0890654 0.119928 8.74362e-18)
(0.0788369 0.121594 -2.5948e-17)
(0.0586806 0.101849 0)
(0.0190408 -0.0766497 1.98062e-17)
(0.046265 0.12247 -3.72978e-17)
(0.00158945 -0.0729376 0)
(0.091049 0.112744 0)
(0.0325524 -0.0732175 -1.72837e-17)
(0.0300901 -0.0743887 0)
(0.0724949 0.120858 1.72784e-17)
(0.027955 0.0550112 5.04265e-19)
(0.0141179 -0.0658925 -1.89326e-17)
(0.056568 0.11935 -1.75403e-17)
(-0.0468257 -0.114296 -1.40885e-17)
(0.0274281 -0.0723984 1.73573e-17)
(0.00188354 -0.0794176 0)
(0.00323224 -0.00398294 0)
(-0.00395652 -0.0318372 5.99022e-17)
(0.00137703 -0.0600703 -3.85452e-17)
(0.00331696 -0.0512251 -3.79934e-17)
(0.109297 -0.0177128 0)
(0.0520248 0.165471 1.8477e-17)
(0.0190719 -0.0704079 -2.70915e-17)
(0.0218647 -0.0695112 2.72525e-17)
(0.000796122 -0.0405971 0)
(0.0103109 -0.03427 -1.90604e-17)
(0.0454453 0.180321 -5.70936e-17)
(0.00109115 -0.0408286 -1.80596e-17)
(-0.00877115 -0.0188028 -5.77194e-23)
(0.0413334 0.106291 1.613e-17)
(0.0164817 -0.0655819 -1.85948e-17)
(-0.026353 -0.0298724 8.96679e-18)
(0.023336 0.0392062 0)
(0.0157646 -0.00364845 -2.05997e-17)
(0.051336 0.152394 4.17717e-17)
(0.00182067 -0.0186996 -2.0198e-17)
(0.00367506 -0.0479011 7.71756e-22)
(0.120887 -0.0219016 2.80607e-17)
(0.013736 0.036776 3.86953e-22)
(0.10627 0.106397 3.37362e-17)
(0.00570288 0.0176218 1.24212e-17)
(0.0304732 -0.0694721 0)
(0.00234071 -0.0511266 1.93594e-17)
(0.00364147 -0.0470411 0)
(0.0267219 -0.0258162 -1.14232e-17)
(0.0489784 0.17212 -5.97748e-19)
(0.00238052 -0.028423 0)
(0.0471858 0.166281 5.50024e-19)
(0.0489909 0.122834 1.9301e-17)
(0.007499 -0.0166452 -2.25213e-17)
(0.0019765 -0.0302929 -5.46096e-18)
(0.010151 -0.0535576 4.60902e-18)
(0.0327761 0.00208129 2.67868e-17)
(0.00757218 -0.0249429 2.01818e-17)
(0.086582 0.0338042 -2.12984e-17)
(-0.0570952 0.0542243 1.66116e-17)
(0.0347805 -0.0641414 0)
(0.0257014 0.024623 1.00669e-17)
(-0.000470939 -0.0155961 0)
(-0.019433 -0.0469887 1.60495e-17)
(0.0185792 -0.0557757 0)
(-0.0371548 -0.040321 -3.81811e-17)
(0.0241571 -0.0210542 -2.07237e-17)
(0.0227967 0.0342615 -1.68901e-17)
(0.00505778 -0.0123669 -1.44979e-17)
(0.127233 0.0114446 0)
(0.0804171 0.048444 9.44301e-19)
(-0.0175292 -0.0142278 0)
(0.161908 -0.0314715 -2.95576e-17)
(0.144333 -0.023536 -1.40554e-17)
(0.121611 -0.0100823 -4.95355e-18)
(-0.000411367 -0.00279318 3.68654e-17)
(0.0175481 -0.0333821 0)
(0.016124 -0.0573824 1.58806e-17)
(0.0106077 -0.00816819 0)
(0.139997 -0.0453467 -2.67826e-17)
(0.00209707 -0.0678296 -2.05382e-17)
(0.131795 -0.0283334 1.90079e-17)
(0.0151163 -0.0177047 0)
(0.0335262 -0.0308899 -4.98906e-18)
(0.056161 0.143893 0)
(-0.0353271 -0.0445749 1.8916e-17)
(0.00582683 -0.0676231 6.07196e-19)
(0.00131242 -0.0507425 4.05762e-17)
(0.0340233 -0.069144 0)
(0.00334451 -0.077022 1.76229e-17)
(0.00289578 -0.0674667 1.88272e-17)
(0.00555004 -0.079734 9.93952e-18)
(0.0180359 -0.0369187 -3.53949e-23)
(0.070569 0.0823969 -2.61326e-17)
(0.05384 0.143197 0)
(-0.02533 -0.12722 0)
(0.0249147 0.100671 -9.55504e-18)
(0.101669 -0.0290026 1.95389e-17)
(0.0273124 0.0907838 0)
(0.00511151 -0.0169224 9.44326e-18)
(0.0291121 0.082058 -1.59313e-17)
(0.00570032 -0.0143558 0)
(0.00978731 -0.0766184 0)
(0.0149459 0.0635741 -2.83152e-22)
(0.0181391 0.0505185 1.65588e-17)
(0.00319105 -0.00900937 9.22613e-18)
(0.00877502 -0.0668952 -9.6779e-18)
(0.0724467 0.002071 0)
(0.0822898 0.110934 1.87597e-17)
(0.0269214 -0.0728703 -9.6835e-18)
(0.0230379 0.0229726 -9.45042e-18)
(0.0217712 0.0210661 0)
(0.0232075 0.0112557 0)
(0.00553474 -0.00786247 8.47664e-18)
(0.0304701 0.0459698 -1.81358e-17)
(0.0104146 0.00843302 0)
(0.0233649 0.0170581 1.58497e-17)
(0.073636 -0.0539727 0)
(0.024693 0.0264478 9.34532e-18)
(0.0114433 -0.0159545 -1.81053e-17)
(0.0181741 0.00743294 2.41872e-18)
(0.0134501 0.000221795 1.45406e-17)
(0.0276654 0.0373265 -1.92046e-17)
(0.0251968 0.0309987 -1.94097e-17)
(0.00921528 -0.0129718 0)
(0.0243804 0.0177432 1.7721e-17)
(0.0109973 0.0101197 0)
(0.0105833 0.00360221 -2.28355e-18)
(-0.000761587 -0.00204848 0)
(0.0152392 0.0196125 0)
(0.0121721 0.0127883 -9.38748e-18)
(0.0344302 -0.0318328 -1.61601e-22)
(0.00346111 -0.00646403 0)
(0.0129959 0.00858449 -1.49408e-17)
(0.14102 0.122376 -1.00195e-17)
(0.0903615 0.0764004 -1.8459e-17)
(0.0284592 -0.0062784 0)
(0.000630728 -0.0601145 -1.71219e-22)
(0.0830793 0.0997592 -3.00843e-17)
(-0.030973 -0.0419994 -2.19403e-17)
(0.00506385 -0.0521733 0)
(0.0344033 -0.0354501 -3.67516e-17)
(0.076124 0.110186 -9.16148e-18)
(0.0556665 0.151013 0)
(0.0940996 0.0620067 1.86676e-17)
(0.0154427 -0.078392 -1.0535e-17)
(0.0604151 0.0912761 2.08943e-17)
(0.0197955 -0.0213895 1.86199e-17)
(0.00830729 -0.00557709 1.00969e-17)
(0.0364994 0.0166232 2.93832e-17)
(-0.0209277 -0.0254402 1.0494e-17)
(0.0731971 -0.109072 0)
(0.0907133 -0.0470529 -3.65053e-17)
(0.0935403 -0.0291924 -4.46545e-18)
(0.026688 -0.0354767 2.81045e-17)
(0.00149964 -0.0729595 -1.95727e-17)
(0.128453 0.0998874 -3.14706e-17)
(-0.0184498 -0.0258148 1.56661e-17)
(0.0354011 0.0731981 -2.56784e-17)
(0.00796932 -0.0721988 4.97248e-18)
(0.146917 -0.0319197 1.89635e-17)
(0.13096 -0.0486199 -2.85142e-17)
(0.0920893 0.0163989 3.98303e-17)
(-0.0468671 -0.0391333 0)
(0.0211612 -0.0770702 -2.04874e-17)
(0.0314974 0.0639531 3.19988e-17)
(0.0283695 -0.0335615 -1.86862e-17)
(0.0165226 -0.0789637 1.10929e-17)
(-0.0198887 -0.035251 -4.96584e-18)
(0.0126735 0.0740276 0)
(0.0417109 -0.0268629 -9.65211e-18)
(0.0353826 -0.0604183 -2.04451e-17)
(0.0335183 -0.0423267 1.89579e-17)
(0.0190215 -0.0743039 1.2315e-17)
(0.0186375 0.0382709 -2.06706e-17)
(0.0177477 -0.0485779 1.0988e-17)
(0.136867 0.0565691 -1.53315e-17)
(0.0103136 -0.0509666 0)
(0.0585526 0.0601244 3.53423e-17)
(0.0460112 0.032119 -1.94685e-17)
(0.0310158 0.0509399 2.46991e-17)
(0.0591094 -0.028768 2.33046e-17)
(0.157808 0.120324 4.86163e-18)
(0.151532 0.0993779 -1.04778e-17)
(-0.0100451 0.0177052 -2.18148e-17)
(-0.0393564 0.0101227 2.07124e-17)
(0.0144977 -0.00525762 0)
(0.0218889 0.0198469 0)
(0.00243322 -0.0765723 -2.15489e-17)
(0.000927562 -0.00681151 -1.05237e-17)
(0.00361179 -0.00123455 -2.10527e-17)
(0.00307639 -0.0799668 1.10358e-22)
(0.0211834 -0.0307676 9.61695e-18)
(0.0498878 -0.0476795 -1.93339e-17)
(0.000681325 -0.0158644 0)
(0.00279841 -0.0115631 0)
(-0.0329688 -0.0724501 3.51872e-17)
(0.00427246 0.0855083 -3.47549e-17)
(0.00585506 -0.0104565 -9.82717e-18)
(0.0560424 0.0614777 1.13802e-17)
(0.000426162 -0.00857692 1.9872e-17)
(0.0357727 0.129309 2.2646e-17)
(0.0517078 0.00146962 0)
(0.0925678 0.0717153 0)
(0.0398899 0.00578572 -1.01743e-17)
(0.0208498 0.142357 1.18508e-17)
(0.0835727 0.0817142 -9.22808e-18)
(0.00620604 -0.0107404 -1.52202e-17)
(0.0112762 -0.0372738 1.01421e-17)
(-0.043103 -0.00883083 -2.5137e-18)
(-0.0370746 -0.0163405 -3.46767e-17)
(0.0526752 0.154872 -2.42852e-17)
(0.0347513 -0.0542093 5.88194e-18)
(0.0744225 0.0849619 2.49429e-17)
(0.0220137 -0.00366394 8.34154e-23)
(-0.0135297 -0.147835 1.74334e-17)
(0.0377619 -0.011336 2.04821e-17)
(0.0640432 0.035951 -9.84376e-18)
(0.0434627 0.135705 -3.30192e-17)
(0.00214041 -0.0357491 2.14966e-17)
(0.049539 -0.00650758 -1.00968e-17)
(0.069967 -0.0150924 -2.01211e-17)
(0.0321913 -0.046906 1.754e-17)
(0.0508844 0.0723615 -2.39415e-18)
(0.00483955 -0.00767089 4.952e-18)
(0.0301541 0.0719677 4.41084e-18)
(-0.0527263 -0.00606646 0)
(-0.0488909 -0.0128412 6.72885e-18)
(0.0524279 0.144198 1.08236e-17)
(-0.0520367 -0.0724989 2.37541e-17)
(0.00550551 -0.0138111 0)
(0.0609633 -0.00202095 -4.19872e-18)
(0.0442102 -0.0415467 2.40454e-17)
(0.0423465 0.0645076 1.33514e-17)
(-0.00526884 -0.0524401 0)
(0.000617713 -0.00777608 -2.08246e-17)
(0.00455491 -0.0865299 1.09332e-17)
(-0.0157181 0.00669726 -2.78821e-18)
(0.01321 0.0115484 -1.45488e-18)
(-0.0163643 -0.0287763 5.31326e-18)
(-4.55143e-05 -0.00668014 2.28375e-17)
(-0.000375428 -0.0517303 0)
(0.000100846 -0.0142263 0)
(-0.0363876 -0.113495 0)
(-0.0215733 -0.0346057 -1.17652e-17)
(0.0861509 0.0788268 0)
(-0.0159449 -0.0346831 1.94516e-17)
(0.0108656 -0.0722252 -1.13597e-17)
(0.000121555 -0.0153684 -1.1658e-17)
(0.00083842 -0.0541143 0)
(0.0705595 0.0548619 -5.90416e-18)
(0.045622 0.0370242 0)
(-0.020849 -0.0333507 6.63874e-19)
(0.00518218 -0.000389338 1.12269e-17)
(0.00104533 -0.016538 1.64476e-17)
(0.0247452 -0.0498409 0)
(0.0136018 -0.0265819 2.126e-17)
(-0.00201222 -0.040889 0)
(0.00269104 -0.0522274 0)
(0.00991779 -0.0617803 1.42145e-18)
(0.0585822 0.0900362 -2.06765e-17)
(0.00520974 -0.0090823 -1.21426e-18)
(0.0805166 -0.0757757 0)
(-0.000827425 -0.0197491 4.09178e-17)
(-0.00974403 -0.0494978 1.15748e-18)
(0.0232278 0.113449 -1.02687e-17)
(0.0233438 -0.026571 0)
(0.0945539 0.0525035 -9.07425e-18)
(0.0248378 -0.0420949 -2.47709e-17)
(0.100433 -0.0789386 2.2619e-17)
(0.0768898 0.0825947 1.084e-17)
(0.0283004 -0.0422153 1.00275e-17)
(0.0413568 0.0209742 -1.08644e-17)
(0.00267527 -0.0173337 -2.18936e-17)
(0.0943423 -0.108876 -2.05833e-17)
(0.0460438 0.0282342 0)
(0.15587 -0.0485771 1.44484e-17)
(0.028152 -0.0579799 5.02816e-18)
(0.108877 0.0716857 1.94118e-17)
(0.051876 0.149803 5.23844e-18)
(0.0540145 0.151588 0)
(-0.0335412 -0.0752932 1.91853e-17)
(-0.00501505 -0.0778208 3.09734e-17)
(0.126956 0.0801798 0)
(0.0343057 -0.0510582 3.19952e-18)
(0.00198086 -0.00439445 -1.43467e-17)
(0.0909252 0.0961171 0)
(0.00683 -0.0602827 -1.35544e-18)
(0.0666046 -0.0334311 -1.95076e-17)
(0.0799537 0.000744776 -4.36005e-22)
(0.152916 -0.0451747 -4.52498e-22)
(0.0313913 -0.0581723 -5.1805e-18)
(0.0279234 -0.0375047 -2.33542e-17)
(-0.0234984 -0.0184823 2.58852e-17)
(0.0116962 -0.00744843 4.63186e-17)
(0.082363 0.0209447 -2.36778e-17)
(0.0284522 -0.00703175 3.43164e-17)
(0.0894301 0.0682616 4.88193e-18)
(0.00701262 -0.029507 1.14829e-17)
(0.0253286 0.0465104 2.29035e-17)
(0.0327696 -0.0475586 0)
(0.104853 -0.0959153 -3.17944e-17)
(0.023967 -0.0308091 -2.00404e-17)
(0.0444532 0.0422587 5.54904e-18)
(-0.0605958 -0.1126 0)
(0.0194108 0.0282204 -2.45719e-17)
(0.0319716 -0.0430511 -2.34885e-17)
(0.057457 -0.013656 0)
(0.0114745 -0.025286 1.27958e-17)
(0.0132893 -0.0744408 1.43814e-17)
(0.0378014 -0.0585415 -1.18375e-17)
(0.0363926 -0.0460801 1.43412e-18)
(0.0134944 -0.0500808 0)
(0.000941628 -0.0793697 2.16499e-22)
(0.0768184 0.0984491 0)
(0.0139231 -0.0158531 2.06111e-17)
(0.02867 -0.0457953 -2.92456e-18)
(-0.0326979 -0.0384753 1.19622e-17)
(0.00171648 -0.0323905 0)
(0.00687185 -0.025713 2.54749e-17)
(0.00870578 0.0786308 2.35723e-17)
(0.0384739 -0.0602447 -5.91359e-18)
(-0.0709363 -0.0790689 -1.92184e-17)
(0.0219361 -0.0285776 -4.03798e-17)
(0.030807 0.0621111 0)
(0.0528601 0.0491542 0)
(0.0557715 0.0671787 -2.46599e-17)
(0.0482891 0.0610446 3.19734e-17)
(0.0502953 0.0183613 1.01957e-17)
(0.153153 0.108121 1.1504e-17)
(0.0294715 -0.0488271 8.37713e-18)
(0.000833457 -0.0316318 -1.26946e-17)
(0.0510286 0.162809 0)
(0.059331 0.0791507 0)
(-0.00441944 -0.0798762 0)
(0.0200825 -0.0784152 -8.44136e-19)
(-0.0367088 -0.00613325 1.3173e-17)