/*--------------------------------*- C++ -*----------------------------------*\
  =========                 |
  \\      /  F ield         | OpenFOAM: The Open Source CFD Toolbox
   \\    /   O peration     | Website:  https://openfoam.org
    \\  /    A nd           | Version:  9
     \\/     M anipulation  |
\*---------------------------------------------------------------------------*/
FoamFile
{
    format      ascii;
    class       volVectorField;
    location    "0.79";
    object      U;
}
// * * * * * * * * * * * * * * * * * * * * * * * * * * * * * * * * * * * * * //

dimensions      [0 1 -1 0 0 0 0];

internalField   nonuniform List<vector> 
1655
(
(0.100551 -0.123808 -3.89928e-18)
(-0.0154691 0.0319763 2.59215e-17)
(-0.00696001 0.0638553 2.11216e-17)
(0.0533012 -0.00547474 -1.25578e-17)
(0.0485542 0.054822 0)
(0.0277072 0.0115971 7.91579e-18)
(-0.0545088 0.0594548 0)
(0.0384445 0.13784 -1.40254e-17)
(0.0764083 0.196367 0)
(0.0471072 0.0506057 -6.86531e-18)
(0.212687 -0.0780381 3.09953e-17)
(0.193652 -0.100167 -3.05464e-17)
(0.0259233 0.0820847 -1.05075e-21)
(0.0080705 -0.0217574 -1.63543e-17)
(0.00238803 0.0716046 1.61555e-17)
(0.0248624 -0.0122813 0)
(-0.0622688 -0.00816738 2.82088e-17)
(0.0213298 -0.107686 8.40601e-18)
(-0.00793942 -0.0120608 -3.16307e-17)
(0.00230041 -0.0187866 -9.07924e-18)
(0.0100991 -0.0296617 3.69652e-18)
(0.0718083 0.216483 0)
(0.0522629 0.0870226 -1.69404e-17)
(0.0449963 0.0795066 7.86817e-18)
(0.114711 -0.131294 -4.89913e-18)
(-0.0437914 -0.00972395 -3.35201e-17)
(0.0156408 -0.00579968 -1.46298e-17)
(0.0573951 0.198494 -1.68376e-17)
(0.0487333 0.192912 2.27221e-17)
(-0.001403 -0.0296426 -1.63341e-17)
(-0.131094 0.0491358 4.06483e-17)
(0.0783989 0.0933218 -4.34598e-18)
(0.0101618 -0.0721609 -6.0006e-18)
(0.0153568 0.0152472 0)
(0.0167047 -0.0986868 0)
(-0.00483798 -0.00222868 0)
(0.0355102 0.0152182 -2.13012e-17)
(-0.0182608 0.0416767 0)
(0.00791121 -0.0698753 -8.21164e-18)
(-0.0263974 0.051673 -2.79828e-17)
(0.00501419 -0.015802 1.58582e-17)
(0.0510248 0.0755068 1.36923e-17)
(0.00780273 -0.0628111 -8.58669e-18)
(-0.0259389 -0.0186355 2.50046e-17)
(-0.00942714 -8.86735e-06 0)
(0.082091 -0.0131001 0)
(0.065807 -0.0023221 3.90548e-17)
(-0.0131981 0.0125931 0)
(0.0458607 0.0346474 1.52881e-17)
(0.00848872 -0.0596529 2.09084e-18)
(0.0351382 0.0119145 2.35336e-17)
(0.0206857 0.082238 -1.57062e-17)
(0.0243346 0.118591 -1.72416e-17)
(0.0756233 0.191721 1.50619e-17)
(0.0459427 0.0194466 -1.96722e-17)
(-0.0364158 0.000515746 0)
(0.00307329 0.00102984 -7.67988e-18)
(0.223984 -0.0658387 0)
(0.155067 0.0121248 0)
(-0.0101549 0.0268839 1.66431e-17)
(-0.136231 0.0371979 -4.06631e-17)
(0.00748437 -0.00340757 0)
(0.0597695 -0.126124 0)
(0.0495773 0.148766 -3.87825e-18)
(-0.0291208 -0.0107894 0)
(-0.0916057 0.0705484 0)
(-0.0220838 0.0209914 3.64798e-17)
(0.226305 -0.0245351 -1.7822e-17)
(0.00911493 -0.0845927 0)
(0.0459333 0.0719013 -1.56565e-17)
(0.211597 -0.0474727 1.97558e-17)
(-0.0554532 0.0770814 -9.56264e-19)
(0.0028599 -0.0466581 -1.0158e-18)
(-0.0133634 0.051239 1.48333e-17)
(-0.0881537 7.65163e-05 -1.8863e-17)
(-0.00324175 0.0142522 8.90717e-18)
(0.0434365 0.176403 -5.1579e-18)
(0.00879345 -0.0573185 0)
(0.00747085 -0.0055725 0)
(-0.00188881 -0.0313952 0)
(-0.0316946 -0.00922085 2.01035e-17)
(-0.00897844 0.0233747 -9.0577e-18)
(0.0416098 0.0103014 2.0091e-17)
(-0.0206057 -0.0145084 1.00862e-17)
(0.00310273 -0.048017 0)
(-0.0548188 0.0120967 0)
(-0.0761882 0.00666499 -1.14203e-17)
(0.0023394 -0.0389526 0)
(-0.0483532 0.0382848 -7.86223e-18)
(-0.0580004 0.000996808 0)
(-0.0607224 0.0048716 0)
(-0.0129523 0.0435956 9.96932e-18)
(0.000328745 -0.00952476 1.93538e-17)
(0.0345013 0.0250366 0)
(0.00390123 0.0131129 0)
(0.00749593 -0.0147354 3.22333e-17)
(-0.0397016 0.0113784 -3.08957e-17)
(0.160158 -0.00273405 0)
(0.074961 0.0740853 -9.30801e-18)
(0.010604 -0.079737 1.98189e-17)
(-0.0338465 0.0357032 -6.27048e-17)
(-0.0511527 0.000431283 -2.03679e-17)
(0.042284 0.0348845 -1.99549e-17)
(-0.046329 -6.34049e-05 2.1371e-17)
(0.0272884 -0.0503048 0)
(0.0199517 -0.00383765 -1.23843e-18)
(0.075767 0.147722 -1.71405e-17)
(-0.00271631 -0.0205375 0)
(0.00743744 -0.0791456 0)
(-0.053197 -0.00678541 -1.7574e-17)
(0.00442163 -0.0795883 1.38172e-17)
(0.189171 -0.106897 1.58107e-17)
(-0.0523255 -0.00864867 1.06234e-17)
(0.00514771 -0.0555422 1.81874e-17)
(0.0790725 0.125995 1.62953e-17)
(-0.0650904 0.00771591 -1.03034e-17)
(0.0747843 0.138619 -1.74246e-17)
(0.119107 0.000473841 0)
(-0.0453403 0.0221198 1.55767e-17)
(0.0264194 -0.0466616 -3.48821e-17)
(-0.049292 -0.0117587 -2.9996e-17)
(-0.0756357 -0.0128307 3.06469e-17)
(-0.103587 0.0201504 -2.42089e-17)
(0.0674369 0.0698897 2.26176e-17)
(-0.0369798 0.0111735 7.9301e-18)
(0.0533031 0.116266 0)
(0.00650745 -0.0516946 -1.97535e-17)
(0.0147007 0.00602668 1.78126e-17)
(0.0225189 -0.00976507 -2.46925e-18)
(0.00428236 -0.0632176 -2.36684e-18)
(0.0632525 0.0370411 4.51414e-18)
(0.00435323 -0.0804975 2.43832e-17)
(0.0571062 0.145953 1.50339e-17)
(0.0521252 0.107332 1.58223e-17)
(-0.00103719 -0.00474311 0)
(-0.0130802 0.0456584 0)
(0.0512531 0.0626816 -9.23709e-18)
(0.020536 0.0782221 1.56364e-17)
(-0.00114571 0.00970924 8.39e-18)
(-0.0172907 0.0223615 -8.28567e-18)
(0.00606883 0.0370642 1.08549e-17)
(0.00889402 -0.00382856 1.50222e-17)
(0.0116564 -0.0080864 0)
(-0.0807008 -0.026814 0)
(-0.123328 0.0200928 -9.27761e-18)
(-0.0918759 -0.0211208 0)
(-0.0632192 -0.0245419 -3.22688e-17)
(-0.031749 -0.00342696 2.5961e-17)
(-0.0416434 -0.0172864 1.6763e-17)
(-0.191809 0.0370377 0)
(-0.173061 0.025844 1.58271e-17)
(-0.178375 0.0356404 -8.52967e-18)
(-0.111818 -0.00850363 1.66054e-17)
(-0.140812 0.00852197 1.44628e-17)
(-0.0522947 0.0166123 0)
(0.00427597 -0.0488894 3.18663e-17)
(-0.0389409 -0.0132933 2.03321e-18)
(-0.0631125 -0.0205093 8.56229e-18)
(0.0812728 0.133873 0)
(-0.0523258 -0.0075438 -2.1679e-17)
(-0.0705833 -0.0235298 2.44272e-17)
(-0.0239953 -0.0721861 0)
(0.0821601 0.17561 -1.03255e-21)
(-0.0609614 -0.019057 0)
(-0.0778163 -0.0232239 0)
(0.200098 0.00522595 -8.26606e-18)
(0.0667166 0.191664 0)
(0.0705757 0.121238 -3.28559e-17)
(-0.0505151 0.00240254 5.01608e-18)
(0.00744663 -0.0227746 0)
(-0.113483 -0.0205098 0)
(0.0735409 0.0602057 0)
(-0.058647 -0.0213423 1.00492e-17)
(0.0837328 0.155708 1.73169e-17)
(0.000257023 -0.0425172 1.06174e-18)
(0.0832505 0.147454 1.72536e-17)
(0.0568405 0.0359485 4.53042e-18)
(0.00594077 -0.00775056 0)
(0.0108483 -0.0670835 -1.88831e-17)
(0.0030226 -0.0210783 1.48456e-17)
(-0.04172 0.00892051 2.15702e-17)
(0.0675417 0.03284 1.35471e-17)
(0.0188944 0.00308538 -2.88279e-17)
(0.0471994 0.0592388 -4.93863e-18)
(-0.00267832 0.0222645 -9.50798e-18)
(0.0167505 -0.0744884 0)
(-0.00895148 0.00936273 0)
(0.0132788 -0.0719952 0)
(0.02429 -0.0850509 0)
(0.0783158 0.0408143 -1.31697e-17)
(-0.00249374 0.0123876 -1.71342e-17)
(0.0156344 -0.00324214 0)
(0.0371375 -0.0599475 -1.76177e-17)
(0.0308672 0.108571 2.20123e-17)
(0.024298 -0.0808086 0)
(-0.00297909 -0.008263 -1.0745e-17)
(0.0340364 -0.0663803 0)
(0.0197685 -0.0784187 0)
(-0.0467804 0.0467496 2.03798e-17)
(0.0694645 0.0143499 0)
(0.0382163 0.0415291 1.13367e-17)
(0.0189351 0.0297974 -5.0758e-18)
(-0.0730288 0.0209316 1.85191e-17)
(-0.0942779 0.036264 4.12322e-17)
(-0.0452743 0.0102304 -1.5705e-17)
(0.016808 -0.030717 1.24992e-17)
(0.0222267 -0.0735818 0)
(0.0266252 -0.0671675 0)
(0.005949 -0.0678792 5.60617e-17)
(-0.0277944 0.00506463 0)
(0.143126 0.144526 2.9454e-17)
(0.0711513 0.125131 -8.15733e-18)
(-0.0134298 0.0413487 0)
(0.063264 0.122987 1.71792e-17)
(0.00486326 -0.0240436 -1.76512e-18)
(0.00197935 0.0368481 3.85356e-17)
(-0.031655 -0.00074239 -9.67593e-18)
(-0.0368342 -0.0407358 0)
(0.111907 0.150785 1.67766e-17)
(0.070707 0.0243067 0)
(-0.0112163 0.0174029 0)
(0.00679377 -0.0415466 -3.60974e-17)
(0.0143998 -0.0702529 2.53934e-17)
(0.0727543 0.0581688 1.75871e-17)
(0.0172965 -0.0737409 -1.83291e-17)
(0.0330818 -0.0856323 1.76232e-17)
(0.0351543 -0.0853956 -1.75614e-17)
(-0.0537701 0.00650004 0)
(0.0723723 0.126889 2.13345e-17)
(0.0754515 0.116457 1.70799e-17)
(0.0388699 -0.0732822 0)
(-0.0044672 0.0226975 -2.15898e-17)
(0.00975375 -0.00483045 2.16175e-17)
(0.000551214 -0.0534958 -3.38749e-17)
(0.0248074 -0.0771257 -1.81001e-17)
(0.0448569 -0.0774282 1.76579e-17)
(0.0277232 -0.0837966 0)
(0.0219525 -0.0514843 0)
(0.0309914 -0.0823223 2.18822e-17)
(-0.0531197 -0.11824 1.71501e-17)
(-0.0461599 0.0120045 -1.64667e-17)
(-0.00544773 0.0237174 3.13545e-17)
(-0.0435901 -0.148119 -2.14044e-17)
(-0.00479187 -0.00154292 1.50029e-17)
(0.0618615 0.042517 4.39954e-18)
(-0.00135971 -0.0236634 -2.2254e-17)
(-0.164715 0.0413921 1.30912e-17)
(0.0823711 0.168933 0)
(0.0251409 -0.0796337 -4.3876e-18)
(0.0759157 0.0482682 0)
(-0.00850294 -0.0204368 -1.4298e-17)
(-0.00231608 -0.0208077 3.56523e-18)
(-0.000168643 0.0363374 -1.7371e-17)
(0.112329 0.131209 -1.23506e-17)
(0.0297257 -0.0778037 1.77928e-17)
(0.144561 0.16036 -2.10203e-17)
(0.0147533 -0.0793767 -1.82736e-17)
(0.0635008 0.056578 -4.38537e-18)
(0.00661246 0.0183708 2.34742e-17)
(0.0157161 -0.0651273 1.67577e-17)
(0.0192155 -0.0727756 1.30389e-17)
(0.010088 -0.0641213 1.80637e-17)
(0.0419305 -0.0870416 1.74816e-17)
(0.0760152 0.138039 1.69425e-17)
(-0.0162342 0.0279805 1.74045e-17)
(0.0815003 0.114446 1.7404e-17)
(0.0212679 -0.0635459 0)
(0.00419239 -0.0378866 -2.46677e-17)
(0.015815 -0.0768399 9.57422e-18)
(0.00777583 -0.0380058 0)
(0.0192464 0.0916656 -1.84924e-17)
(0.0035079 -0.0690724 1.33164e-17)
(-0.00672862 0.0158034 9.1939e-18)
(0.0133401 -0.0672831 0)
(-0.00550785 -0.029632 5.59491e-22)
(-0.00659908 -0.0586692 -1.34093e-17)
(-0.16972 0.0360881 0)
(0.0520585 0.0469878 2.19209e-17)
(0.0248078 -0.0405071 -2.2206e-17)
(0.0604026 -0.136863 4.26756e-18)
(0.0441345 -0.016966 1.80107e-17)
(0.0818662 0.105971 4.36794e-18)
(-0.018351 -0.0368852 1.78335e-17)
(0.0243106 0.0920662 1.56083e-17)
(-0.0131411 0.0493461 -2.95119e-17)
(0.00038668 -0.0601455 -1.78524e-17)
(0.0507426 -0.0364259 1.77265e-17)
(0.0119978 -0.0803744 1.59083e-17)
(0.0245192 -0.0687929 0)
(0.0118674 -0.0931025 0)
(0.0145948 -0.079561 1.74173e-17)
(0.00109982 -0.0135063 1.70958e-17)
(0.0184408 -0.0496592 3.69653e-17)
(0.0849107 0.0871429 0)
(0.03136 -0.035996 -1.77253e-17)
(0.0305725 -0.0845346 4.45518e-18)
(0.0231155 0.0894677 0)
(0.113476 0.154021 -2.96635e-17)
(-0.00173188 0.00475353 -1.74054e-17)
(0.0102426 -0.0727158 -4.40529e-17)
(0.0176021 -0.0817623 -1.85207e-17)
(0.015546 0.0118878 0)
(0.00356851 0.000632166 2.6903e-17)
(0.037123 -0.0869231 -4.42584e-18)
(0.0451669 -0.0868345 -3.49481e-17)
(0.0333826 -0.0418419 -1.88938e-17)
(0.0233167 -0.0835151 -4.48729e-18)
(0.0212016 -0.0754429 4.38158e-18)
(-0.011981 -0.00242763 -4.4318e-18)
(0.052936 -0.0882173 -1.73937e-17)
(-0.0295904 -0.0305765 0)
(-0.150547 0.0132555 9.31378e-18)
(0.0167207 -0.072383 -4.41128e-18)
(0.0343925 -0.108745 -4.34155e-18)
(0.0842113 0.120325 0)
(0.0174694 -0.0152068 0)
(-0.00271109 0.00394485 -1.73892e-17)
(0.047739 0.00281275 -1.77621e-17)
(0.0558128 -0.088447 1.36435e-22)
(0.0169496 -0.0813975 1.93783e-17)
(0.0596458 -0.0131645 0)
(0.0171811 -0.0405732 -1.86181e-17)
(0.0158893 -0.0807265 2.44827e-18)
(0.0349557 -0.0856469 -4.44254e-18)
(0.0216794 -0.0826428 -1.8024e-17)
(0.0988085 -0.0172413 2.4907e-17)
(0.07498 -0.0124645 8.53148e-18)
(0.0843903 0.109473 -2.19942e-17)
(0.0154602 -0.0779051 0)
(0.0360986 0.0505534 -1.72986e-17)
(0.0333177 -0.0741704 0)
(0.0494684 -0.0208082 1.77139e-17)
(0.00427466 -0.00804237 7.92683e-18)
(0.0221999 -0.0730807 -1.76514e-17)
(-0.0114355 -0.019374 1.76971e-17)
(0.0330355 -0.0808845 -1.31616e-17)
(0.034892 0.0545201 1.30053e-17)
(0.0226984 -0.056221 -1.84954e-17)
(0.0455705 -0.0883663 0)
(-0.00218666 -0.0341844 0)
(0.0156372 -0.0817899 1.91034e-17)
(0.0447922 -0.0881091 1.75762e-17)
(-0.0163881 -0.0193067 0)
(0.0343439 0.0825338 -2.13695e-17)
(0.020769 0.0587193 0)
(0.0415623 -0.087381 -3.08618e-17)
(0.0105536 -0.0329097 0)
(0.0276789 -0.0847028 4.46814e-18)
(0.0208098 -0.0827157 0)
(0.0132439 -0.0642417 0)
(0.0237996 0.0574722 0)
(-0.0329512 0.0170971 1.72239e-17)
(0.0406588 0.0617751 0)
(0.0242286 -0.0817776 1.79745e-17)
(0.0829767 0.109588 0)
(0.0624362 -0.0903564 0)
(0.042133 -0.0878475 0)
(0.0522692 -0.0882128 -3.23333e-22)
(0.016999 0.0291407 -1.75765e-17)
(0.0518795 -0.0825964 2.17866e-17)
(0.0102166 0.0624203 -1.49848e-17)
(0.0307508 -0.0686589 0)
(0.084102 0.135473 -4.69122e-18)
(0.053905 -0.153726 1.71268e-17)
(-0.00474291 0.0210715 1.81016e-17)
(-0.0171406 0.0301402 -1.52247e-17)
(0.0132201 -0.074383 4.62658e-18)
(0.0206501 0.0427127 -1.72467e-17)
(0.0563348 0.0011812 0)
(0.0451904 -0.0841619 0)
(-0.009868 0.0166021 0)
(0.0223098 -0.0796492 1.79915e-17)
(-0.0123588 0.0247924 0)
(0.0628091 -0.0882884 0)
(0.0179457 0.0305047 0)
(-0.00920594 0.00808768 4.41104e-18)
(0.0854598 0.0596776 1.29169e-17)
(0.0653119 0.132488 -7.79347e-22)
(0.0402552 -0.0784365 4.3758e-18)
(0.0364098 -0.0871149 -1.76453e-17)
(0.0306223 -0.0544267 -4.49853e-18)
(0.0450275 -0.163387 0)
(0.0745025 0.111908 -1.80662e-17)
(0.0670555 -0.14051 -2.141e-17)
(0.0293735 -0.0853728 -4.43725e-18)
(0.0872249 0.111592 0)
(0.0655958 -0.0908233 0)
(0.0291222 0.0258474 -1.02422e-22)
(-0.029381 -0.0249855 0)
(0.0405245 -0.0835615 -4.3721e-18)
(0.0157022 -0.00830934 1.65357e-17)
(-0.0186045 0.024128 -1.72889e-17)
(0.0809918 0.0662736 -1.72365e-17)
(0.0890437 0.0893387 0)
(0.0496281 -0.0870153 0)
(0.0714704 -0.0906349 -1.72659e-17)
(0.0622005 -0.0920557 1.72928e-17)
(-0.0101793 -0.0463332 0)
(0.086548 0.153264 0)
(0.115347 0.0621608 0)
(0.0564143 -0.0891937 -1.73972e-17)
(0.0393421 -0.0399735 3.67229e-17)
(0.0312805 -0.177895 4.26055e-18)
(0.0835878 0.102072 -2.17977e-17)
(0.03904 0.0405654 -4.32088e-18)
(0.0318368 -0.0811129 -1.78406e-17)
(0.0844816 0.065668 1.76666e-17)
(-0.0163892 0.0208125 -2.16775e-17)
(-0.010311 0.023089 0)
(0.073334 0.05185 0)
(0.0151789 0.0177167 0)
(0.00539461 -0.206569 4.24638e-18)
(0.0711298 -0.129351 4.29945e-18)
(0.0552887 0.0498128 0)
(0.0362165 -0.0824779 0)
(-0.0152475 -0.229317 -1.69503e-17)
(0.0844563 0.0700594 0)
(-0.0367737 -0.0463984 0)
(0.0797125 -0.116526 -1.292e-17)
(0.0715846 -0.0961784 1.72484e-17)
(0.113191 0.0555408 1.71756e-17)
(0.0220537 -0.183337 -4.26346e-18)
(0.0234741 -0.003108 4.3604e-18)
(0.0670031 -0.0962542 0)
(0.0844146 -0.0945777 1.72455e-17)
(-0.161904 0.00801623 -1.08946e-17)
(-0.0255428 -0.082579 0)
(0.0541337 -0.0876404 1.31081e-17)
(0.0284402 -0.0762667 1.7605e-17)
(0.169746 -0.00445925 2.138e-17)
(0.0264239 -0.0840896 0)
(0.0888542 0.00102961 1.5666e-21)
(0.0786614 -0.0991743 0)
(0.0408486 0.0411944 -5.65313e-18)
(-0.00911634 -0.218462 1.27428e-17)
(0.00168209 -0.234341 -1.27175e-17)
(0.0430333 -0.0791839 1.75064e-17)
(-0.046556 0.00477736 7.43161e-18)
(0.0107085 0.0112501 0)
(-0.00841241 -0.237446 0)
(0.00335566 -0.00328526 1.51594e-17)
(0.0334687 -0.131264 0)
(0.000303822 0.0259756 2.16834e-17)
(0.0626641 -0.100216 0)
(0.0592553 -0.128275 0)
(-0.00180258 -0.231526 -2.11974e-17)
(0.157941 -0.00541375 1.71178e-17)
(0.0517597 0.0553124 0)
(0.163262 -0.00626367 5.52805e-22)
(0.00129125 0.0337558 1.72756e-17)
(0.171918 0.00651788 -4.27205e-18)
(0.183624 0.0450528 -1.69888e-17)
(0.173623 0.0340044 -4.26559e-18)
(0.043312 -0.151994 4.28109e-18)
(0.174279 0.0174391 -3.41647e-17)
(0.0104492 -0.173027 2.13541e-17)
(0.12444 0.0481996 0)
(0.0581529 -0.115399 0)
(0.166943 -0.0079197 0)
(0.0521108 -0.000147129 0)
(0.0323899 -0.155494 -4.27285e-18)
(0.0114064 -0.151866 -4.2724e-18)
(0.047606 -0.153918 4.27248e-18)
(0.203095 0.0538643 -1.69879e-17)
(0.103744 0.0557516 -1.71951e-17)
(0.0691285 0.112951 3.47381e-17)
(0.0461799 -0.137969 -4.28244e-18)
(0.0667831 -0.10865 0)
(-0.0294982 -0.207781 4.29173e-18)
(0.0221398 -0.171129 0)
(0.00962907 -0.169794 -1.70806e-17)
(0.0323471 -0.0709025 1.31042e-17)
(0.026197 -0.168751 4.26631e-18)
(0.021183 0.0362113 4.32251e-18)
(0.207941 0.115221 1.69226e-17)
(0.00233348 -0.188258 -4.26036e-18)
(-0.00513656 -0.184225 -2.98238e-17)
(0.023921 -0.220609 -1.27296e-17)
(-0.0455627 -0.192545 1.28317e-17)
(0.0805454 0.00533809 -8.26079e-18)
(0.0571241 -0.0874391 -2.17358e-17)
(0.079613 0.0447217 0)
(-0.0370145 -0.214989 -4.23904e-18)
(0.161416 0.0295267 4.27521e-18)
(0.0042675 -0.217526 -4.2457e-18)
(-0.0104061 -0.19956 -1.27526e-17)
(0.102335 0.000489317 -1.7104e-17)
(0.119486 0.0205837 0)
(0.0444435 0.0347928 0)
(0.0667821 -0.0771811 -4.34589e-18)
(0.210398 0.14181 -3.80835e-17)
(0.136274 -0.00234012 -1.71392e-17)
(-0.0266491 -0.226976 4.24041e-18)
(0.0905244 0.0280348 -4.29342e-18)
(0.219543 0.0313072 -1.69865e-17)
(0.00198071 -0.221237 4.24606e-18)
(-0.139333 0.0245198 -2.42569e-19)
(0.091089 0.00976634 0)
(0.0127441 -0.228148 1.27289e-17)
(0.112256 0.0318509 2.14327e-17)
(0.1947 0.117468 0)
(-0.00189182 -0.196495 1.70324e-17)
(0.0420124 0.00127376 8.72286e-18)
(0.224233 0.136495 2.114e-17)
(-0.145539 -0.0184878 0)
(0.230255 0.104476 1.26931e-17)
(0.148898 0.044904 -1.71248e-17)
(0.224235 0.124201 -4.23359e-18)
(0.198931 0.0208788 1.48477e-22)
(0.138922 0.0110949 -1.28648e-17)
(0.0923431 0.0871813 1.2958e-17)
(0.235545 0.0620055 -2.116e-17)
(0.117848 -0.0219959 -4.29195e-18)
(0.0183704 -0.214388 -4.25183e-18)
(0.125368 0.0359955 0)
(0.0890261 0.0418811 1.71703e-17)
(0.222208 0.0890557 0)
(0.120125 -0.100974 1.27893e-17)
(-0.120619 0.0403685 1.54195e-17)
(-0.0874735 0.0677657 0)
(0.111017 0.109476 -1.70706e-17)
(0.0457249 -0.0325316 0)
(0.000207091 -0.14199 3.43623e-17)
(0.224151 0.118436 0)
(-0.121097 0.0535343 -1.64942e-17)
(-0.00895226 -0.17436 2.12868e-17)
(0.223685 0.0886031 -1.27885e-17)
(0.237164 0.0913499 -2.38653e-21)
(0.139895 -0.0853276 4.2608e-18)
(0.170703 0.17814 -2.11831e-17)
(0.173384 0.0909001 1.71234e-17)
(0.145384 -0.00219049 1.71408e-17)
(-0.0232805 0.00390441 -9.62262e-18)
(0.012966 0.00498972 1.63339e-17)
(-0.0102443 -0.00988323 1.08208e-18)
(-0.0254171 0.0371524 2.04794e-18)
(0.00780407 0.00855253 -3.79345e-23)
(0.130145 -0.0765944 -3.46854e-17)
(-0.0451121 -0.00821983 0)
(0.0572653 -0.0099655 -1.51511e-17)
(-0.031379 -0.0156686 -2.53879e-17)
(-0.0206194 0.098974 -4.48624e-17)
(-0.0196654 -0.0128019 -1.72579e-17)
(0.0377579 -0.00176224 0)
(-0.0451366 0.026001 2.51896e-17)
(-0.00302289 -0.00389822 1.74029e-17)
(0.0387194 -0.046748 1.87745e-17)
(-0.0250221 0.00451355 0)
(0.0655726 -0.18605 1.27775e-17)
(-0.0470667 -0.0122335 -2.67006e-17)
(0.118546 -0.0408435 0)
(0.187856 -0.034863 -4.25939e-18)
(-0.0682483 0.00932518 0)
(0.247055 0.0624037 -1.27091e-17)
(0.167897 -0.0486319 4.26214e-18)
(-0.134115 -0.00161645 0)
(-0.0543941 -0.0204309 0)
(0.0300671 -0.202401 4.25161e-18)
(0.0713892 0.0355682 -1.71903e-17)
(0.156632 0.0166938 -4.27668e-18)
(0.187111 0.0782091 1.2744e-17)
(0.0429806 0.0171368 -3.01831e-17)
(-0.0264066 -0.197809 4.28442e-18)
(0.163549 0.134959 -1.26527e-17)
(0.110035 0.0402653 0)
(-0.0562716 0.0839787 -6.28197e-21)
(0.159557 0.00511224 2.13391e-17)
(0.0754049 -0.108795 -4.29713e-18)
(0.153234 0.063791 -8.56793e-23)
(0.170908 0.168909 -1.26465e-17)
(-0.0143029 -0.154715 -4.32022e-18)
(0.175405 0.0518439 3.41211e-17)
(-0.0449947 -0.0180021 1.57463e-17)
(0.0981235 -0.0226458 3.87075e-17)
(0.180311 0.141576 -2.11185e-17)
(0.154824 -0.0302221 -1.27997e-17)
(0.214606 0.000751959 2.12344e-17)
(0.0067622 0.0220274 -3.46673e-17)
(-0.087554 0.0519464 1.71836e-17)
(0.0223317 -0.185039 -2.13112e-17)
(0.229193 0.0690134 1.70035e-17)
(0.186253 0.0793861 -1.14434e-21)
(0.120523 0.0585394 0)
(-0.00945401 0.103355 2.90904e-17)
(0.0563106 0.0211481 1.29218e-17)
(0.134966 0.0806813 1.73969e-17)
(0.133193 0.0800166 3.37227e-17)
(0.078754 -0.0217469 1.71915e-17)
(0.118068 0.097985 4.26924e-18)
(0.0433651 -0.105027 -1.28661e-17)
(0.0569087 -0.186568 -1.70603e-17)
(0.11143 0.0541573 4.28115e-18)
(0.142588 0.118445 0)
(0.173224 0.167063 -4.24489e-18)
(0.0147694 -0.172167 -4.25979e-18)
(-0.0497141 0.0754318 -1.71922e-17)
(-0.0127904 -0.133502 3.42665e-17)
(-0.0088726 -0.0029804 -1.60261e-17)
(0.190844 0.182328 -1.27074e-17)
(0.170863 0.072058 -1.70408e-17)
(0.189557 0.160873 -1.27073e-17)
(-0.128865 0.0209088 4.27853e-18)
(0.107804 0.112115 1.24196e-17)
(0.131577 0.00328249 1.71568e-17)
(-0.13228 0.0302416 8.41413e-18)
(-0.107111 0.0248913 0)
(-0.0675121 -0.0188177 -9.17765e-18)
(0.000618074 0.0210221 -2.94725e-17)
(-0.00229514 0.0065887 3.50144e-17)
(-0.0857028 -0.0102125 3.99172e-18)
(0.132736 -0.110093 -1.70417e-17)
(0.182593 -0.0610918 4.2583e-18)
(0.00462836 -0.00866512 0)
(-0.110311 0.00539544 -3.53653e-17)
(-0.0250745 -0.011653 0)
(0.17801 0.120054 -2.12362e-17)
(-0.109283 0.0049187 1.71726e-17)
(0.243505 0.0352082 1.69398e-17)
(-0.0185414 -0.215679 -1.69574e-17)
(0.028449 0.116938 2.13467e-17)
(-0.0826671 0.0300124 -1.7195e-17)
(0.0784605 -0.0612525 0)
(-0.120328 -0.0498276 -3.42633e-17)
(0.137456 0.102115 -2.05246e-17)
(0.0452802 -0.137666 2.14061e-17)
(0.0300292 0.00684551 1.72747e-17)
(0.111211 0.0218882 -1.28423e-17)
(0.141059 0.0933534 0)
(0.171029 0.153163 4.24471e-18)
(0.124342 0.10804 -8.54178e-18)
(0.00116825 -0.228333 -4.23942e-18)
(0.135751 0.111633 1.27958e-17)
(0.190453 0.184072 0)
(0.0767614 0.0567272 1.89205e-17)
(0.236852 0.0113894 -2.12315e-17)
(0.190792 0.174808 3.81195e-17)
(0.206761 0.0507394 0)
(0.233072 0.0100565 8.45732e-18)
(0.153063 -0.0946545 0)
(0.126868 -0.070286 4.26661e-18)
(0.199507 -0.0707686 -2.12575e-17)
(0.0606517 0.0174211 -1.48337e-17)
(0.00296248 -0.218887 1.27416e-17)
(0.241685 0.0338419 0)
(0.206045 -0.0475157 -2.24219e-17)
(0.0963376 0.0471906 1.72063e-17)
(0.0956577 -0.159351 -4.26354e-18)
(0.10556 0.0559099 -1.8731e-17)
(0.127802 0.0677046 -1.70985e-17)
(-0.115464 -0.0445007 -4.33995e-18)
(0.178678 0.139614 0)
(0.00300196 -0.186286 0)
(0.071003 -0.126515 -4.2715e-18)
(0.0833035 -0.15934 0)
(0.0476471 -0.200507 2.12873e-17)
(0.0726996 -0.160507 0)
(0.0683619 -0.152177 4.26974e-18)
(0.175552 0.0548835 0)
(0.139852 0.0302947 1.2813e-17)
(-0.0463863 0.0399609 0)
(0.103022 -0.14386 1.70417e-17)
(0.17972 0.12095 4.2439e-18)
(0.072779 0.0467818 3.00799e-17)
(0.0898683 -0.138259 -2.13174e-17)
(-0.00244806 -0.216813 0)
(0.172344 0.0941128 0)
(0.000874286 0.0295017 1.69245e-17)
(0.229832 -0.0163176 2.6215e-17)
(0.209473 0.0343661 0)
(0.0776541 -0.170065 0)
(0.180662 0.160332 2.96029e-17)
(0.204402 0.183697 1.69077e-17)
(0.0225229 0.0278788 -4.38827e-18)
(0.159779 -0.0102313 0)
(0.041522 0.025308 1.72451e-17)
(0.106038 0.09268 8.55282e-18)
(0.162887 -0.00558651 -4.27646e-18)
(0.0178409 -0.0146477 0)
(0.16217 0.113282 4.24041e-18)
(-0.0154093 0.0121239 -7.75093e-18)
(0.169739 0.0186212 0)
(0.17436 0.0758027 0)
(0.09562 0.0771736 -8.5688e-18)
(0.0183686 -0.192853 4.25307e-18)
(0.109294 0.0752923 -8.55989e-18)
(-0.105452 -0.0259577 4.29333e-18)
(0.244849 -0.00764369 8.44684e-18)
(-0.0346555 0.0103484 8.08833e-18)
(0.164632 0.0752088 0)
(0.163269 0.0958374 8.51847e-18)
(0.107538 0.0606308 -4.18987e-22)
(0.0576326 0.0394163 4.30172e-18)
(0.119386 0.0140224 0)
(0.147594 0.0902138 4.26183e-17)
(0.116281 -0.14337 2.12947e-17)
(0.168061 0.0349028 -4.26831e-18)
(0.00247922 0.0227601 -1.28472e-17)
(0.179883 0.0986686 0)
(0.110289 -0.150894 -2.21413e-17)
(0.171028 -0.100177 2.99778e-17)
(0.0384779 -0.185625 -4.2535e-18)
(0.147159 -0.113822 4.25872e-18)
(-0.00419998 -0.15842 1.82047e-17)
(0.091467 0.0654612 -2.57084e-17)
(0.15353 -0.000446546 0)
(0.146797 0.011582 -2.14258e-17)
(0.0262758 0.0208956 0)
(0.107921 -0.0486516 -1.71118e-17)
(0.153178 0.0347654 3.84382e-17)
(0.159306 -0.000323264 4.85212e-22)
(-0.113456 -0.0817268 1.71346e-17)
(0.192141 0.16564 2.1171e-17)
(-0.137866 -0.0469566 0)
(0.103576 -0.0858275 -4.27206e-18)
(0.137242 -0.00555647 1.28102e-17)
(0.0649942 0.036823 0)
(0.00316937 -0.00300977 4.55842e-18)
(0.124322 -0.0208876 1.71596e-17)
(0.0141626 -0.225226 -1.27178e-17)
(-0.0740097 -0.0428949 0)
(0.170055 0.132543 0)
(0.129588 0.0500961 0)
(-0.0404444 -0.0162692 0)
(0.0364555 -0.202054 1.70139e-17)
(0.0814741 0.1001 2.17548e-17)
(-0.107224 -0.127824 -1.7198e-17)
(0.161492 0.00388422 -4.27502e-18)
(0.0647368 -0.0182968 -1.72291e-17)
(0.17336 -0.0173323 1.28034e-17)
(0.0174485 0.00605718 0)
(-0.130534 -0.0621062 4.27546e-18)
(0.0848062 0.00429967 3.87394e-17)
(0.162668 -0.0131789 0)
(0.148809 0.108 -2.13078e-17)
(0.100523 0.0159756 -4.29772e-18)
(0.0915165 -0.0229273 -1.28983e-17)
(0.15901 -0.00674238 0)
(0.082648 0.0750791 8.50255e-22)
(0.116788 0.0163093 -3.4295e-17)
(0.0417147 0.0403863 -4.38436e-18)
(-0.088369 -0.0845539 0)
(0.0991832 0.0411874 0)
(0.0432269 -0.170733 -1.41276e-17)
(-0.104632 -0.139554 -5.44604e-21)
(0.149753 0.0533791 -1.70819e-17)
(0.131156 0.0976149 -1.27972e-17)
(0.154088 -0.0142291 -1.71256e-17)
(0.0217769 -0.187546 0)
(-0.0108844 0.00960341 2.01982e-17)
(0.0789881 0.0662131 8.66107e-18)
(0.154853 -0.0163473 -1.29553e-21)
(0.0106025 0.0126985 -4.40091e-18)
(0.0484508 0.0107929 0)
(-0.0676616 -0.0573306 -3.00483e-17)
(-0.146977 -0.0549215 -3.45049e-17)
(0.0230682 -0.0126814 0)
(0.0654831 -0.0195921 1.72328e-17)
(0.136027 -0.0155059 1.71508e-17)
(0.00398686 -0.208746 0)
(0.109043 0.0102876 -1.71916e-17)
(-0.131461 -0.0909335 -1.70812e-17)
(-0.13948 -0.0641565 1.75965e-17)
(0.152193 0.00162781 1.28525e-17)
(0.0445234 -0.0135664 0)
(-0.0319335 -0.00132726 -1.70326e-17)
(0.102209 -0.0213459 -1.71932e-17)
(0.0590922 0.0485027 4.3841e-18)
(-0.117545 -0.101193 0)
(0.154069 -0.0108477 0)
(0.164303 0.00547694 -1.28315e-17)
(-0.124058 -0.101783 1.7096e-17)
(0.0727488 -0.0215781 -4.30751e-18)
(0.0522986 -0.0167127 0)
(-0.0273113 -0.00232321 0)
(0.165116 0.0706072 -2.97519e-17)
(0.196128 0.177215 -4.23315e-18)
(-0.0176132 -0.143962 4.57923e-18)
(0.143964 0.00355643 2.14047e-17)
(0.160609 0.13513 1.27482e-17)
(0.167123 0.145616 -2.97459e-17)
(0.128565 -0.0218316 -2.14587e-17)
(0.145961 -0.0153585 -1.71476e-17)
(0.151271 -0.00327229 2.14229e-17)
(0.145663 -0.0193947 3.85663e-17)
(0.19257 0.169049 1.27006e-17)
(0.17354 0.147834 -1.27388e-17)
(0.0701564 0.0028753 -4.39008e-18)
(0.054082 -0.190793 0)
(0.13129 -0.00778786 -3.42985e-17)
(0.204999 0.178155 -1.69107e-17)
(0.0300395 -0.0138363 -1.72838e-17)
(-0.124239 -0.0843462 1.71139e-17)
(0.139357 0.0176483 -1.7119e-17)
(0.135945 0.00206423 0)
(0.133888 0.0319253 0)
(0.0287038 -0.0827297 0)
(0.167755 0.100976 1.70033e-17)
(0.0256435 0.0256278 0)
(0.0879647 0.0125327 -1.29123e-17)
(0.0505333 -0.0163035 0)
(0.0758779 0.0147635 0)
(0.115844 0.046428 0)
(0.125237 0.030654 -4.28936e-18)
(0.0433682 -0.0156219 0)
(0.0100767 -0.204349 1.69999e-17)
(0.194105 0.158827 -4.23409e-18)
(0.143527 0.0156298 0)
(0.0815358 0.0431134 -2.17721e-17)
(-0.0921335 -0.120173 -1.72212e-17)
(0.10174 0.0255229 0)
(0.191512 0.137671 4.23441e-18)
(0.0613804 -0.0400124 0)
(0.0168482 -0.0612771 1.3095e-17)
(0.111046 0.0304048 0)
(0.0230451 0.0088859 0)
(-0.0756508 -0.128738 -1.72356e-17)
(0.132142 0.025375 0)
(0.144628 -0.000707481 -1.71451e-17)
(0.119075 0.0251697 4.2929e-18)
(-0.0932783 -0.0825282 0)
(0.151154 0.128354 1.27643e-17)
(0.127504 0.00844851 4.29194e-18)
(-0.0038549 0.0006577 0)
(0.067248 0.0319052 -1.17148e-17)
(0.220212 0.153467 -2.11435e-17)
(-0.113052 -0.122517 3.93331e-21)
(0.099966 0.0433428 -1.72005e-17)
(0.0112961 0.0119861 1.73337e-17)
(0.141895 0.0095995 -1.71478e-17)
(0.0348309 -0.000117711 0)
(0.0336623 0.0207168 -1.29839e-17)
(0.12928 0.0434186 0)
(0.183904 0.125966 -1.69997e-17)
(0.136682 -0.00596894 0)
(0.0742922 -0.0152694 4.30923e-18)
(0.101575 0.0585501 4.29901e-18)
(0.121358 -0.017381 0)
(0.136841 0.0177123 4.28966e-18)
(0.0560334 0.00291096 1.508e-17)
(0.134796 0.0140006 1.28632e-17)
(0.0191099 -0.0886033 0)
(0.058376 0.0109956 -1.29239e-17)
(-0.0835246 -0.0943715 0)
(0.0759256 0.0208751 0)
(0.0554883 0.00782289 -1.55368e-17)
(0.138406 0.0271817 0)
(-0.0451988 -0.0780576 0)
(0.00903253 -0.00612005 -4.51617e-18)
(0.0109176 -0.0129791 2.17771e-17)
(0.12323 0.0450234 -1.71674e-17)
(0.108104 -0.00826164 -1.71808e-17)
(0.0180366 -0.0676552 1.8027e-17)
(-0.00909855 0.0099116 1.75871e-17)
(0.1087 0.034031 0)
(0.127741 -0.00196554 -4.29195e-18)
(0.0886187 0.0333116 0)
(-0.0253506 0.0287531 -8.94921e-18)
(0.130327 0.0339414 6.40214e-22)
(0.142428 0.00401034 0)
(0.126246 0.0886526 -2.17268e-17)
(0.0900386 0.0272263 0)
(0.066942 0.0164026 -4.31673e-18)
(-0.0150392 0.0123477 1.37525e-17)
(-0.0412243 -0.109068 1.73065e-17)
(0.108196 0.0497375 1.71881e-17)
(0.0674445 -0.00688157 1.29279e-17)
(0.071602 0.0286707 -7.21202e-18)
(0.101911 0.00321852 3.43593e-17)
(0.1283 0.0288527 1.71636e-17)
(0.0565768 0.0227127 -4.31671e-18)
(0.0733495 0.0296603 0)
(0.105527 0.0768962 0)
(0.076624 0.0969397 1.73893e-17)
(0.0953945 -0.0156083 1.28971e-17)
(0.149978 0.112239 2.17028e-17)
(-0.0154869 -0.000810547 -4.31482e-18)
(0.136686 -0.0141291 0)
(-0.00100036 0.0319945 0)
(0.213726 0.173685 0)
(0.0229851 -0.0162778 -1.73443e-17)
(0.0176043 0.0398516 0)
(0.0728745 0.0973205 -1.76799e-17)
(-0.0316166 -0.044242 3.05375e-17)
(0.107463 -0.000443693 3.43758e-17)
(0.0932412 -0.000959889 -1.7223e-17)
(0.198141 0.147867 0)
(0.0880872 -0.0089998 -1.7222e-17)
(0.0798357 0.00186218 0)
(0.0979215 0.0278818 0)
(0.112505 0.0729717 0)
(0.0869334 0.0735138 1.30159e-17)
(0.0288348 0.00715869 0)
(0.0191924 -0.0797719 0)
(0.0464759 0.00123106 0)
(0.0690161 0.0545506 0)
(0.0687948 -0.0823069 -4.3429e-18)
(0.0303709 0.0427077 0)
(0.215871 0.16168 2.11273e-17)
(0.107156 0.0643304 -4.29818e-18)
(0.0482855 0.0193885 0)
(0.0736048 -0.0178292 -1.72396e-17)
(0.0752489 0.0138823 -4.30246e-18)
(0.000823529 0.030555 4.48022e-18)
(0.122811 0.0418157 0)
(0.0616115 0.0449225 -1.67812e-17)
(0.0902616 0.0732208 -1.72535e-17)
(0.0240182 -0.00508919 4.40583e-18)
(0.0823868 0.0648016 -1.29772e-17)
(0.0531941 -0.011193 2.20052e-17)
(0.0159056 0.00216538 -1.73606e-17)
(0.10226 0.0721083 0)
(-0.0294124 -0.0769814 0)
(0.0111693 -0.0348487 0)
(0.0763324 0.10339 0)
(0.0847246 0.0796047 -1.29925e-17)
(0.0506385 0.0676794 -4.34218e-18)
(0.0871918 0.0788995 1.72666e-17)
(-0.0036473 -0.0289476 1.03862e-17)
(0.066972 -0.0131809 -4.34855e-18)
(-0.0249682 0.0382093 1.80334e-17)
(0.108957 0.00658756 0)
(0.0701545 0.0677824 -1.3779e-17)
(0.111895 -0.0139025 4.29796e-18)
(0.198377 0.167944 0)