/*--------------------------------*- C++ -*----------------------------------*\
  =========                 |
  \\      /  F ield         | OpenFOAM: The Open Source CFD Toolbox
   \\    /   O peration     | Website:  https://openfoam.org
    \\  /    A nd           | Version:  9
     \\/     M anipulation  |
\*---------------------------------------------------------------------------*/
FoamFile
{
    format      ascii;
    class       volScalarField;
    location    "0.92";
    object      p;
}
// * * * * * * * * * * * * * * * * * * * * * * * * * * * * * * * * * * * * * //

dimensions      [0 2 -2 0 0 0 0];

internalField   nonuniform List<scalar> 
578
(
-1.43774e-20
-2.64446e-20
-1.04856e-20
8.75456e-21
-1.93806e-20
2.36849e-20
1.85602e-20
-8.78124e-21
-1.48678e-20
-4.26553e-20
1.55147e-20
-9.61137e-21
3.87186e-21
-1.76568e-20
1.58171e-20
3.43473e-21
-8.61686e-21
-8.98732e-21
-4.9071e-21
-7.76611e-21
8.87512e-21
6.20844e-21
8.57723e-21
1.13749e-20
1.03525e-20
-5.16511e-21
-1.30756e-21
-3.53163e-21
-1.80577e-20
6.27016e-21
-1.86418e-21
2.63802e-20
-4.55371e-21
4.96577e-21
1.46417e-20
-4.66739e-21
-1.60219e-20
-9.1529e-21
-4.15539e-21
-2.29613e-20
-1.64944e-20
-6.38402e-21
-1.19005e-20
1.77282e-20
-3.58858e-21
2.39399e-20
1.57467e-20
-1.59224e-20
-2.05192e-21
-1.7736e-21
3.20229e-20
4.50491e-21
3.00888e-20
4.43071e-21
2.68401e-21
-5.36281e-21
8.76783e-21
7.53098e-21
-1.54486e-21
-8.79606e-21
-8.84804e-21
-1.3423e-20
-1.39849e-20
-2.11568e-20
1.50785e-21
1.54753e-20
-9.97069e-22
1.958e-20
1.37536e-20
-4.5475e-21
5.70082e-21
2.43377e-20
2.13654e-21
-5.25467e-21
1.47368e-20
-2.45912e-20
-1.92879e-20
-1.42488e-20
2.98871e-21
1.3267e-20
2.97092e-20
-2.35204e-20
4.29391e-20
3.89135e-20
1.46268e-21
1.65429e-20
3.74454e-20
-1.36431e-21
-6.78916e-21
7.62315e-21
-9.39989e-22
8.75821e-21
8.93148e-21
5.65618e-21
1.72406e-20
2.37547e-20
2.08167e-21
3.17579e-21
-3.94179e-20
1.60043e-20
1.57694e-20
-8.09979e-21
-3.92506e-22
1.08693e-20
6.17165e-23
-1.84289e-20
1.61192e-20
-2.40807e-20
1.88116e-20
-2.14831e-20
-4.20256e-21
-6.64117e-21
-1.16364e-20
2.02408e-20
2.20418e-20
-9.25952e-23
7.94485e-21
-8.73477e-21
6.57156e-21
7.7209e-22
-3.10508e-21
4.97859e-20
-8.95055e-21
9.2928e-21
3.36033e-20
5.14349e-21
2.6222e-20
4.12675e-21
6.66297e-21
1.3028e-21
6.69529e-21
4.63531e-21
6.48194e-21
-3.99589e-21
5.22641e-21
8.85587e-21
-1.49671e-20
4.94678e-22
1.42729e-20
6.7078e-21
8.35595e-21
3.46668e-21
6.54713e-21
1.59546e-21
-5.6995e-21
5.04428e-21
6.15835e-22
-3.1297e-21
-8.45834e-21
-3.29591e-21
-1.40337e-20
8.99812e-21
-2.16552e-20
-3.92752e-21
1.48818e-20
-2.31115e-21
-1.22002e-20
7.08735e-21
1.85528e-20
-1.45665e-20
-1.64324e-20
-1.67698e-20
9.27031e-21
-1.34036e-20
-2.62903e-21
1.02866e-21
1.66916e-21
1.42486e-20
8.04421e-21
1.15178e-21
-1.16258e-20
-1.5604e-20
8.49435e-21
4.68614e-21
1.32749e-20
1.37052e-21
2.61446e-21
-7.894e-21
-1.45636e-20
-1.21097e-20
1.5351e-20
-2.08293e-20
1.21558e-20
3.37218e-21
1.04212e-20
-2.6533e-21
6.06774e-21
1.44046e-20
1.46506e-20
-1.97774e-20
-1.69332e-20
-1.60401e-20
1.58604e-20
1.40398e-20
-3.4931e-20
3.16984e-21
9.88769e-21
-3.76746e-21
1.32038e-20
-1.57115e-20
7.33974e-21
4.44313e-21
5.47439e-20
1.448e-21
2.57362e-21
-1.56186e-20
1.22208e-20
-1.15041e-21
-1.5451e-20
-6.57845e-23
-1.50748e-21
1.25788e-20
5.79373e-21
4.01971e-21
5.79314e-21
8.75838e-21
1.39859e-20
-1.64029e-20
1.46759e-20
2.27565e-21
-1.60826e-20
1.1718e-20
-1.12342e-21
-1.71456e-20
1.63322e-20
1.89608e-21
4.49368e-21
8.93987e-21
-3.51215e-21
-1.31616e-20
-3.91441e-20
5.17323e-20
4.9926e-21
-9.37995e-21
9.26694e-21
-1.02288e-20
-1.66445e-20
1.4975e-20
5.36657e-21
2.58792e-21
1.32995e-20
-1.45165e-20
3.01516e-21
1.19912e-20
-3.70295e-21
-5.13115e-21
7.01036e-21
-3.56103e-20
4.59525e-21
2.84908e-21
4.03342e-21
6.17131e-21
3.00129e-20
7.02075e-21
2.47598e-20
-3.36591e-21
-7.77843e-21
1.34098e-20
-1.30685e-20
4.53839e-20
-1.01692e-21
1.59775e-20
1.0312e-20
1.09484e-20
-2.06557e-20
-2.83547e-21
9.28364e-21
1.84418e-21
-2.69439e-20
1.06481e-20
-1.02817e-20
2.2796e-21
8.0831e-21
4.38601e-21
4.99186e-21
4.2705e-21
6.36307e-22
-3.46531e-22
1.40517e-20
4.98692e-21
-1.68212e-20
2.76225e-21
5.19029e-21
5.27755e-21
4.4228e-21
7.07634e-21
-1.13229e-21
2.35417e-21
5.91683e-21
4.57975e-21
5.62153e-21
4.3596e-21
6.70612e-22
1.05372e-20
1.14224e-20
1.13592e-20
-1.45332e-20
-1.15906e-21
7.83735e-21
1.14027e-20
3.41882e-21
-5.30685e-21
9.34724e-21
5.01298e-21
1.10988e-20
2.10025e-21
3.73174e-21
-7.73399e-21
5.65025e-21
5.23706e-21
6.21106e-22
4.33943e-21
5.6968e-21
-7.50122e-21
6.63088e-21
6.00963e-21
4.15817e-21
-6.29803e-21
-8.81596e-21
5.94228e-21
3.70444e-21
5.08708e-21
2.72091e-21
9.84646e-21
1.84299e-21
4.8517e-21
1.28292e-20
9.92369e-21
-1.56614e-20
4.14356e-21
7.48205e-22
9.98943e-21
4.91462e-21
5.79937e-21
4.92711e-21
8.19154e-21
6.40172e-21
6.21472e-21
-9.28452e-22
1.60005e-22
6.05855e-21
5.30954e-21
4.05711e-21
-4.41995e-21
7.13442e-21
2.74135e-20
1.65764e-20
8.8321e-21
-9.83619e-21
1.12089e-20
-1.06263e-20
-1.394e-20
1.48434e-20
-1.34948e-21
-2.26412e-20
2.22908e-20
9.11359e-21
2.10688e-20
-2.6951e-20
2.44965e-20
5.69108e-21
-4.58231e-21
8.49162e-21
-9.17348e-21
6.3409e-21
5.86936e-21
4.63879e-21
2.51341e-20
6.06077e-21
1.63204e-21
-1.0599e-20
-1.5235e-20
1.08034e-20
1.81965e-20
7.29289e-21
3.49014e-20
3.27028e-22
1.008e-20
-1.22534e-20
-3.48923e-22
1.31264e-21
-1.20314e-20
1.34195e-20
1.05427e-20
8.66427e-21
4.64778e-21
5.28912e-21
2.05925e-20
1.95772e-20
-9.72148e-21
3.93091e-21
9.21327e-21
1.0272e-20
-1.21492e-22
-1.52434e-21
6.4739e-21
2.47304e-20
2.84854e-21
8.24641e-21
1.06193e-20
3.17692e-22
1.98863e-20
4.86381e-21
-1.1266e-20
-5.00103e-22
1.60304e-21
1.92071e-20
-1.08508e-21
1.32811e-20
2.01723e-20
2.88547e-21
-1.53824e-20
-4.05827e-21
7.54032e-21
-2.12832e-21
1.4674e-20
-7.79972e-21
6.42918e-21
-1.17997e-20
-9.68042e-22
7.30038e-21
1.53664e-20
-9.01757e-21
1.37261e-20
6.14963e-21
-4.04178e-21
-1.60952e-20
-1.01521e-20
-1.90812e-20
-4.17869e-21
5.69548e-21
1.06657e-20
8.41307e-21
4.45212e-21
7.80805e-21
-3.62048e-21
-1.09759e-20
-9.17743e-21
-1.20286e-20
-1.48163e-21
-6.20301e-21
7.6203e-21
7.50268e-21
6.29099e-21
1.0741e-20
1.65771e-21
6.43955e-21
7.0279e-21
5.77756e-21
-1.14281e-21
7.72723e-21
-1.13272e-21
7.8551e-21
5.18287e-21
1.04545e-20
1.33246e-21
-2.39425e-20
9.04609e-21
1.11929e-20
-1.15256e-20
4.26421e-20
1.02263e-20
-8.48906e-21
-9.45037e-21
1.87676e-21
-9.27165e-21
9.22953e-21
-2.08311e-20
-3.08205e-21
-3.81435e-21
3.82799e-21
-4.18307e-21
4.1765e-21
-2.36881e-21
1.41827e-21
-1.23997e-20
-6.42511e-21
-9.89906e-21
-5.96337e-21
-9.38325e-21
8.93849e-21
1.4153e-20
-8.03541e-21
2.85702e-21
-2.00412e-21
-7.56684e-21
-5.63359e-23
-2.06251e-21
-9.25723e-22
1.27507e-20
6.38113e-21
8.86783e-21
-1.16506e-21
6.41311e-21
-1.60313e-22
8.39194e-21
5.18126e-22
7.12864e-21
-1.88943e-21
6.1165e-21
-1.46963e-20
1.35384e-21
-7.7335e-21
7.43142e-21
-9.39223e-21
-1.76081e-21
7.19937e-21
7.65776e-21
7.48086e-21
-1.34938e-21
6.31733e-21
3.14906e-20
9.68297e-21
2.17327e-20
8.19179e-21
-3.79212e-22
-1.08318e-20
-2.18548e-20
1.97355e-20
5.83618e-21
1.25335e-20
1.38489e-20
-4.49333e-24
-8.87482e-21
-8.27436e-21
7.79139e-21
3.78239e-21
8.59951e-21
-1.63677e-20
-1.50415e-20
-1.82642e-20
-1.08763e-20
-3.78405e-21
5.07316e-21
2.71947e-20
4.64184e-21
1.76492e-20
5.84538e-21
6.61384e-21
-2.3025e-21
6.79589e-21
2.59141e-20
-4.7165e-21
-7.05945e-21
3.09237e-20
6.71784e-21
1.39591e-20
-1.08195e-20
-7.40643e-21
-7.92319e-21
1.73848e-20
1.24091e-20
-6.00024e-21
1.5625e-20
1.82128e-20
-2.08887e-21
-1.45596e-20
3.05548e-21
7.62117e-21
-1.3722e-21
-1.00709e-21
1.81857e-20
-9.25504e-21
-1.85831e-21
6.22143e-21
1.7809e-20
4.94459e-21
-7.09089e-21
-1.50746e-21
5.6988e-21
6.48979e-21
-1.47205e-20
1.69864e-20
-1.49857e-20
-6.86064e-21
1.37439e-20
4.54264e-21
1.54786e-22
)
;

boundaryField
{
    front
    {
        type            empty;
    }
    back
    {
        type            empty;
    }
    bottom
    {
        type            uniformFixedValue;
        uniformValue    
        {
            type            scale;
            scale           
            {
                type            squarePulse;
                start           0.3;
                duration        0.3;
            }
            xScale          
            {
                type            constant;
                value           1;
            }
            value           
            {
                type            constant;
                value           15.1;
            }
        }
        value           uniform 0;
    }
    left
    {
        type            zeroGradient;
    }
    top
    {
        type            zeroGradient;
    }
    right
    {
        type            zeroGradient;
    }
    inner_arc
    {
        type            zeroGradient;
    }
}


// ************************************************************************* //
