/*--------------------------------*- C++ -*----------------------------------*\
  =========                 |
  \\      /  F ield         | OpenFOAM: The Open Source CFD Toolbox
   \\    /   O peration     | Website:  https://openfoam.org
    \\  /    A nd           | Version:  9
     \\/     M anipulation  |
\*---------------------------------------------------------------------------*/
FoamFile
{
    format      ascii;
    class       volVectorField;
    location    "0.92";
    object      U;
}
// * * * * * * * * * * * * * * * * * * * * * * * * * * * * * * * * * * * * * //

dimensions      [0 1 -1 0 0 0 0];

internalField   nonuniform List<vector> 
578
(
(5.17565e-19 6.25176e-19 0)
(3.9944e-19 4.68002e-19 -1.54906e-36)
(8.07311e-19 9.51041e-19 0)
(-2.68669e-20 -5.58929e-20 4.91603e-37)
(1.4735e-19 -3.25222e-19 0)
(3.14319e-19 -9.38698e-21 -1.04608e-36)
(1.5367e-19 3.34043e-19 -1.00802e-37)
(1.51993e-19 -2.79992e-19 -4.70558e-37)
(7.95755e-19 -1.27842e-18 0)
(2.0117e-19 2.77455e-19 1.90753e-36)
(5.12209e-19 -1.04032e-19 6.61523e-37)
(5.30259e-19 -1.02044e-18 -4.02628e-38)
(-1.39982e-20 -4.29109e-21 0)
(5.50061e-19 -1.14249e-18 1.142e-36)
(5.51771e-19 1.14254e-18 0)
(1.01888e-18 -1.1365e-18 1.56048e-37)
(7.79218e-19 3.55112e-19 2.57633e-37)
(8.70967e-19 7.78931e-19 -9.05933e-37)
(4.72907e-19 -9.18119e-19 1.06063e-37)
(8.64931e-19 -1.26072e-18 5.64069e-37)
(-4.2241e-20 -8.02033e-20 -5.06169e-37)
(8.46854e-19 -1.04083e-18 6.22126e-37)
(4.8309e-19 -2.08252e-19 -6.82233e-37)
(-1.12212e-20 2.3312e-19 -8.12614e-38)
(-1.52527e-20 2.07826e-19 0)
(4.74875e-19 -9.37841e-19 1.06487e-37)
(-2.34802e-20 5.79829e-20 0)
(-1.15008e-20 5.40733e-20 -8.63147e-39)
(4.84804e-19 3.70325e-19 8.26996e-37)
(9.99276e-19 -1.15945e-18 0)
(-2.37694e-20 8.83259e-20 8.72709e-38)
(2.13505e-19 -1.25172e-21 -1.65148e-37)
(1.00412e-18 -1.1982e-18 -1.09835e-39)
(-4.98114e-20 2.07139e-19 -6.70935e-38)
(4.80482e-19 1.02189e-18 -8.8352e-37)
(8.58678e-19 -9.7523e-19 -1.25109e-37)
(4.77568e-19 -1.01446e-18 -9.54028e-37)
(4.4543e-19 -8.56481e-19 0)
(9.74258e-19 1.1142e-18 1.8177e-37)
(2.51952e-19 -5.19397e-19 0)
(2.61123e-19 -5.69352e-19 9.17555e-37)
(2.76357e-19 -4.74155e-19 2.74883e-37)
(2.49757e-19 -4.72323e-19 6.29371e-37)
(4.69826e-19 9.90357e-19 -3.15998e-38)
(5.97409e-19 -6.50242e-19 0)
(2.55039e-19 5.32561e-19 4.83717e-38)
(2.6462e-19 5.81341e-19 9.80759e-37)
(7.01102e-19 -1.13839e-18 4.69995e-37)
(9.88421e-19 1.13088e-18 -1.8547e-37)
(-3.02854e-20 5.08574e-20 0)
(2.81631e-20 1.01351e-19 5.15757e-38)
(-1.2641e-20 -5.57971e-21 5.85717e-39)
(5.40613e-19 -2.88332e-19 1.1538e-36)
(-5.68966e-20 1.8418e-19 6.63555e-38)
(-2.39057e-21 -5.66497e-22 0)
(2.97862e-19 -4.58192e-20 -1.05381e-37)
(2.20545e-19 -6.33358e-20 -1.67251e-37)
(3.40605e-19 -3.25848e-19 0)
(9.68686e-19 6.49267e-19 3.24738e-37)
(5.51848e-19 -6.15984e-19 -2.20074e-37)
(9.90979e-19 8.33373e-19 2.52716e-37)
(4.31698e-19 2.06085e-19 5.11628e-37)
(5.32322e-19 4.63548e-19 6.78457e-37)
(4.74159e-19 -1.00535e-18 -4.93463e-37)
(-2.23145e-20 3.61221e-21 1.04801e-37)
(5.90606e-19 1.15106e-18 4.65968e-37)
(9.48573e-19 -1.21021e-18 -3.03132e-37)
(6.51513e-19 -2.19324e-19 0)
(1.02598e-18 -1.03297e-18 1.13746e-37)
(5.75261e-19 -1.18963e-18 -1.7326e-37)
(-3.02355e-20 1.95322e-19 0)
(8.71479e-20 1.09822e-19 -1.57373e-36)
(-1.77083e-20 -5.36083e-22 -2.64404e-37)
(5.93723e-19 -1.21155e-18 -5.59805e-37)
(2.48836e-19 8.45973e-20 0)
(1.4138e-19 -3.06052e-19 -6.03284e-37)
(7.11917e-19 -1.07687e-18 -1.41978e-36)
(5.64896e-19 -8.62291e-19 8.5228e-37)
(-2.35075e-20 -4.19656e-21 1.49708e-37)
(4.82018e-19 5.28832e-19 2.0205e-37)
(7.85181e-19 -7.28463e-19 -2.11254e-36)
(2.60996e-19 3.42597e-19 -2.56685e-36)
(1.8328e-19 -2.50449e-19 -3.2286e-36)
(2.56066e-19 -3.46845e-19 0)
(8.95158e-19 1.18581e-18 1.72483e-37)
(1.88569e-19 4.45174e-19 -1.41435e-36)
(2.73759e-20 4.03193e-20 0)
(4.20688e-19 -2.66647e-21 1.17972e-37)
(4.02259e-19 -8.57479e-19 5.07609e-37)
(4.15853e-19 9.37429e-19 3.54921e-39)
(-3.49874e-20 8.04846e-20 -8.41501e-38)
(7.38028e-19 1.0418e-18 1.98947e-39)
(4.0183e-19 8.669e-19 4.58773e-37)
(-2.89651e-20 -1.7686e-20 1.5111e-37)
(1.07045e-18 -1.10826e-18 -1.81782e-37)
(8.79608e-19 -9.67996e-19 0)
(-6.81304e-21 2.84087e-22 1.00568e-37)
(-4.88046e-21 -8.56145e-22 0)
(8.4117e-20 8.05596e-20 4.73762e-37)
(5.64851e-19 1.16222e-18 -8.61264e-37)
(5.21905e-19 1.00229e-18 -5.49195e-38)
(5.39338e-19 -1.15249e-18 -2.55e-37)
(-2.24697e-20 1.29904e-20 0)
(7.65069e-19 8.34479e-19 0)
(-4.74685e-22 7.72012e-22 -5.56291e-39)
(5.60977e-19 -1.16616e-18 -9.60688e-37)
(2.22157e-19 9.31524e-20 0)
(2.59928e-19 -5.50736e-19 -6.82966e-37)
(8.60952e-20 2.32906e-19 8.77772e-37)
(2.86436e-19 -5.69651e-19 1.46692e-36)
(8.35765e-19 -1.04647e-18 -2.8558e-37)
(5.53524e-19 -1.13897e-18 -1.55942e-37)
(9.34709e-19 -1.23837e-18 -5.90203e-38)
(1.05188e-18 -8.98944e-19 1.56585e-37)
(1.02593e-18 -1.02667e-18 -1.55675e-37)
(-1.38657e-20 6.97571e-21 1.14591e-38)
(-2.8329e-20 -4.56432e-20 0)
(1.01647e-18 8.59013e-19 1.82803e-37)
(3.52376e-19 7.88554e-19 0)
(-4.71315e-21 1.4637e-21 6.53438e-38)
(3.81877e-19 -7.56859e-19 2.71919e-37)
(4.31616e-19 -5.7043e-19 0)
(5.4256e-19 -1.05508e-18 5.25701e-38)
(-3.1436e-20 -9.35633e-20 6.22732e-37)
(3.91329e-19 -4.89385e-19 0)
(4.66647e-19 1.12768e-18 1.88562e-37)
(6.34136e-19 -5.90481e-19 2.08671e-36)
(9.34111e-19 -1.04319e-18 1.20188e-39)
(5.99066e-19 1.21057e-18 -4.2774e-37)
(4.2715e-19 1.15058e-18 0)
(5.80577e-19 1.13795e-18 4.87459e-37)
(4.74984e-19 1.1637e-18 0)
(-2.93318e-20 -2.56182e-20 2.29423e-37)
(9.8737e-20 -1.94857e-19 -2.31976e-37)
(5.79447e-19 1.18056e-18 -4.41835e-37)
(5.27493e-19 9.45702e-19 0)
(4.44356e-19 -8.36299e-19 9.97739e-37)
(-1.27517e-20 3.64206e-21 -1.34276e-38)
(1.05623e-18 -8.05474e-19 -4.5312e-39)
(4.8879e-19 9.20521e-19 -4.11248e-37)
(2.23642e-19 4.02267e-19 0)
(4.21216e-19 1.13255e-18 0)
(4.07589e-19 7.67884e-19 0)
(-1.40566e-20 -2.18594e-19 0)
(2.10403e-19 -4.01267e-19 2.91128e-37)
(9.94486e-19 1.21527e-18 0)
(3.57745e-19 7.88498e-19 2.17321e-38)
(-2.48396e-21 3.21636e-21 -2.08832e-37)
(5.97484e-19 -1.19408e-18 0)
(4.07868e-19 1.07519e-18 0)
(6.6983e-19 -1.27177e-18 0)
(1.92565e-19 2.81137e-19 -9.4728e-38)
(2.27515e-19 -2.45753e-19 1.20796e-36)
(1.83519e-19 -3.59035e-19 1.47114e-37)
(6.06395e-19 1.21462e-18 -2.29884e-38)
(-1.54984e-20 2.97093e-20 -1.31519e-37)
(7.42543e-19 4.50917e-19 -9.31515e-37)
(-7.85214e-21 -9.92664e-21 3.78214e-37)
(1.87362e-19 2.02098e-19 3.46893e-37)
(7.00631e-19 -1.29291e-18 0)
(5.96303e-19 -1.15535e-18 0)
(5.34205e-19 -9.9808e-19 0)
(1.12863e-19 2.10863e-19 0)
(5.98089e-19 -1.0955e-18 1.20517e-38)
(-1.48775e-21 -9.21881e-20 0)
(4.33073e-19 1.01819e-18 -5.00937e-38)
(-8.08938e-21 -1.50805e-19 0)
(5.21247e-19 1.01764e-18 -6.84397e-39)
(-1.86608e-21 -3.15859e-21 0)
(-6.94704e-20 6.03536e-20 0)
(5.61313e-19 -9.57518e-19 7.83712e-37)
(2.4933e-19 -4.5034e-19 0)
(3.01457e-19 5.22633e-19 0)
(1.81727e-19 3.50337e-19 -4.59503e-39)
(4.37849e-19 8.36229e-19 0)
(-3.58225e-20 6.82541e-21 0)
(-4.72126e-20 1.43774e-21 -1.81301e-37)
(1.0548e-18 7.08106e-19 -3.80042e-38)
(3.3008e-19 -5.59589e-19 -7.38805e-37)
(8.52769e-20 -1.14553e-19 0)
(2.45688e-19 4.50572e-19 7.40317e-39)
(6.26814e-19 8.07601e-19 1.50963e-36)
(3.04935e-19 8.18171e-19 0)
(-3.76439e-20 -6.76906e-21 3.79771e-37)
(6.46033e-19 1.09262e-18 0)
(-5.55341e-22 -4.65698e-22 1.13015e-37)
(3.37791e-19 -4.17495e-19 -2.82995e-37)
(5.99187e-19 1.22385e-18 6.82053e-37)
(6.26788e-19 1.25119e-18 0)
(2.95203e-20 -1.06123e-19 0)
(6.27812e-19 -1.249e-18 0)
(5.00407e-19 -9.34163e-19 1.01603e-36)
(5.51449e-19 -7.18695e-19 -6.69699e-37)
(4.62241e-19 8.91372e-19 6.71338e-39)
(3.61223e-19 5.15724e-19 1.66047e-36)
(-9.66188e-20 1.78555e-20 -2.31042e-37)
(-5.07628e-21 -1.38218e-20 -5.56227e-37)
(-5.35263e-21 1.41963e-20 -2.32176e-37)
(4.91514e-19 9.29615e-19 0)
(4.65462e-19 -8.9028e-19 0)
(-1.21452e-21 4.21234e-22 0)
(-4.14183e-20 -1.61802e-20 -2.1629e-37)
(2.32245e-19 -2.86035e-19 2.87665e-36)
(-8.03235e-20 3.39245e-20 2.57093e-37)
(-6.38e-20 3.9868e-21 6.69492e-38)
(5.31955e-19 -1.02332e-18 -1.88047e-36)
(5.91695e-19 1.10268e-18 0)
(4.89168e-19 6.31304e-19 -4.51653e-40)
(6.39739e-19 -1.28792e-18 0)
(3.01049e-19 3.48186e-19 -1.63961e-37)
(2.80575e-19 6.14057e-19 2.60308e-38)
(6.40877e-19 1.28662e-18 0)
(5.44957e-19 1.10859e-18 0)
(-7.3331e-20 -1.14826e-20 -1.35624e-37)
(4.5977e-19 8.95318e-19 0)
(-4.44725e-20 -1.23013e-19 -5.63489e-37)
(5.5249e-19 1.0731e-18 0)
(5.52903e-19 -1.07048e-18 -3.87534e-39)
(6.21624e-19 1.2704e-18 9.55925e-37)
(1.51488e-19 3.10322e-19 0)
(6.19255e-19 -1.26509e-18 1.10422e-36)
(5.02477e-19 9.6088e-19 7.2023e-37)
(3.35479e-19 -6.86783e-19 -2.73185e-37)
(2.82319e-19 -5.22279e-19 -1.00121e-36)
(2.62641e-19 4.85116e-19 0)
(3.33315e-19 6.81444e-19 1.19846e-39)
(-1.2071e-19 -5.29776e-21 2.9342e-37)
(-2.36503e-21 -2.8221e-21 0)
(-1.94191e-21 3.33257e-21 1.58559e-37)
(9.0018e-21 -8.25157e-20 4.98438e-37)
(1.52534e-19 2.19011e-19 0)
(7.64531e-20 -6.85652e-20 2.32999e-36)
(9.68204e-20 1.88319e-19 3.66934e-39)
(3.71299e-19 -9.70437e-19 0)
(3.68788e-19 9.70546e-19 0)
(1.88369e-19 -3.11519e-19 -3.27756e-37)
(1.37451e-19 -2.60877e-19 -8.14418e-37)
(1.38486e-19 2.61786e-19 -7.24859e-37)
(-1.84311e-20 -1.0445e-20 -3.29495e-37)
(2.81876e-19 -6.14348e-19 0)
(1.20205e-19 2.26249e-19 -6.34772e-37)
(1.24806e-19 -2.15299e-19 -7.1296e-37)
(-1.11209e-19 2.91707e-20 -4.6373e-38)
(2.34139e-19 4.21663e-19 -1.19244e-38)
(-3.85816e-21 1.12814e-20 3.47021e-37)
(1.04797e-19 -2.144e-19 -4.08352e-37)
(1.08482e-19 2.04104e-19 0)
(8.88142e-20 3.17806e-20 0)
(1.56761e-19 2.63426e-19 0)
(-8.92824e-20 1.36192e-19 8.32058e-38)
(-9.14688e-20 -1.2178e-20 0)
(5.23923e-19 1.17021e-18 5.43076e-39)
(2.16243e-19 -1.05294e-19 1.54796e-36)
(1.0432e-19 -2.71876e-19 0)
(7.13502e-21 7.94761e-20 0)
(4.22411e-19 -1.13352e-18 -1.33158e-37)
(5.4834e-21 -1.51281e-19 -6.46495e-37)
(6.88826e-19 1.29548e-18 -4.4292e-37)
(1.50067e-19 -2.80323e-19 -6.396e-37)
(8.32174e-20 -2.29733e-20 -3.03347e-36)
(1.52191e-19 -3.12517e-19 -2.57506e-38)
(1.27666e-19 2.42318e-19 -5.93024e-39)
(-4.50397e-21 -1.14657e-20 9.83504e-37)
(-9.06806e-21 -3.25194e-20 -1.34404e-36)
(6.55187e-19 7.26174e-19 -2.22421e-36)
(4.17273e-19 -8.66955e-19 9.86129e-38)
(2.08328e-19 -5.67147e-19 0)
(6.2321e-20 -1.40215e-19 2.01405e-38)
(3.1187e-20 -3.91101e-20 -2.03247e-38)
(2.93216e-20 -1.29502e-19 0)
(2.8914e-20 1.27856e-19 0)
(4.76806e-19 1.11471e-18 0)
(2.88343e-19 -7.3241e-19 0)
(-1.28149e-19 2.43085e-21 -1.29527e-37)
(-6.02168e-20 -2.48376e-20 -2.03977e-37)
(-1.22796e-19 6.37562e-20 2.60402e-37)
(-6.67525e-20 1.28665e-19 1.88618e-38)
(6.23355e-20 1.3935e-19 7.87048e-41)
(2.81909e-19 5.16897e-19 0)
(-9.79342e-20 1.47389e-19 2.54188e-37)
(2.5983e-19 -4.84496e-19 7.98118e-39)
(-1.09168e-19 9.5685e-20 -8.38404e-38)
(-1.24562e-19 -5.20904e-20 0)
(-9.52697e-20 -4.05974e-20 1.77146e-37)
(-1.1593e-19 8.49186e-20 1.58601e-37)
(2.05369e-19 3.81811e-19 0)
(8.31711e-20 -1.70035e-19 4.07551e-40)
(8.31267e-20 1.69636e-19 -1.14228e-37)
(-3.29521e-21 6.32748e-20 1.25972e-37)
(-1.32597e-20 1.22624e-19 5.11997e-38)
(3.60101e-19 -9.74533e-19 3.79229e-37)
(5.35213e-19 1.14897e-18 0)
(-7.79333e-20 8.07239e-20 -9.58162e-38)
(1.51224e-19 2.75086e-19 -5.08297e-37)
(-7.45332e-21 -3.87672e-20 2.7572e-37)
(-1.19892e-20 -5.7561e-20 -4.13378e-37)
(1.27755e-19 -2.43554e-19 0)
(4.28436e-19 -1.15345e-18 8.06587e-38)
(-1.53669e-20 -1.29788e-19 8.24066e-37)
(-1.57626e-20 -9.36878e-20 -1.42396e-37)
(-8.60703e-20 1.64698e-19 -2.58997e-37)
(3.59172e-19 9.72752e-19 0)
(-9.83953e-21 -6.85967e-20 -4.08574e-37)
(-6.7053e-21 -7.84965e-20 -3.0573e-37)
(-6.4672e-21 -2.49445e-20 5.16172e-37)
(-1.10627e-20 7.14e-20 -1.57362e-37)
(4.08461e-19 -1.07849e-18 -2.0729e-37)
(8.46932e-20 -1.72306e-19 0)
(-8.24496e-20 4.39654e-20 -8.1085e-38)
(-1.11496e-19 2.79235e-20 -2.08029e-37)
(3.59222e-19 -7.93975e-19 0)
(5.97441e-20 -8.14792e-20 0)
(1.16114e-20 -1.14341e-20 -1.97543e-37)
(2.86758e-19 7.29203e-19 1.07104e-39)
(-6.38279e-20 1.24013e-19 -4.96002e-37)
(-1.13299e-19 -1.00222e-19 -3.77567e-37)
(4.95964e-19 1.07099e-18 0)
(1.0347e-19 2.70174e-19 -9.8766e-41)
(2.08491e-19 5.65523e-19 0)
(-7.69445e-20 1.71419e-19 5.59276e-37)
(4.1326e-19 8.4775e-19 0)
(-1.16888e-19 -4.90752e-20 -3.01851e-37)
(-1.03407e-19 7.12328e-20 1.09165e-37)
(1.4966e-21 1.94513e-19 1.72331e-37)
(-6.54894e-20 2.15277e-20 -1.06522e-37)
(-9.51739e-20 -1.19467e-19 2.78131e-37)
(6.64405e-19 1.27553e-18 0)
(4.2325e-19 7.89881e-19 0)
(6.11513e-19 -1.20922e-18 9.48954e-37)
(-6.5079e-20 -1.13586e-19 -3.23455e-37)
(-3.63934e-20 1.51425e-20 -8.2582e-39)
(7.34088e-19 1.27898e-18 0)
(-5.41501e-20 -2.72477e-20 1.36736e-37)
(-9.03191e-20 -1.66429e-19 -8.54472e-38)
(3.75924e-19 7.31606e-19 0)
(-1.43883e-20 1.38849e-19 1.11909e-37)
(-7.42346e-20 -5.92913e-20 1.21714e-38)
(-9.70799e-20 -1.47216e-19 2.50969e-37)
(6.61342e-21 -2.32059e-19 0)
(-6.21109e-20 9.72647e-20 0)
(-1.05639e-19 -8.73847e-20 0)
(-1.11222e-19 -4.72692e-20 -2.92692e-37)
(1.57677e-19 -6.18566e-20 2.7003e-37)
(2.49484e-20 -2.08012e-19 1.09809e-38)
(3.36835e-20 6.94542e-20 -5.13605e-38)
(7.72539e-19 -9.64476e-19 0)
(1.08658e-18 -4.77418e-19 -5.50242e-37)
(9.04961e-20 2.06359e-19 -2.04222e-37)
(9.05648e-20 -1.98781e-19 2.41757e-37)
(9.90651e-20 2.16223e-19 -2.72379e-37)
(1.04106e-19 -2.22606e-19 -3.9926e-37)
(1.09672e-19 -2.21745e-19 0)
(1.11432e-19 2.21906e-19 2.36814e-37)
(1.37317e-19 -1.53179e-19 0)
(1.17552e-19 -2.73102e-19 0)
(1.17529e-19 2.82762e-19 0)
(1.24135e-19 7.27307e-20 -2.14153e-37)
(1.32248e-19 2.90297e-19 -3.9105e-37)
(1.66718e-19 -3.12932e-19 -1.04191e-36)
(1.58068e-19 3.0435e-19 -2.44729e-37)
(6.25365e-19 3.27931e-21 -8.17188e-38)
(1.98836e-19 4.48324e-20 0)
(3.45485e-19 8.71515e-21 5.73424e-37)
(8.30956e-20 -2.06451e-19 0)
(2.04963e-19 6.78786e-21 3.13906e-37)
(1.07702e-18 -2.79069e-20 0)
(4.47294e-19 -9.2227e-21 7.86962e-38)
(9.79342e-19 -7.67381e-19 2.91526e-36)
(-5.79663e-20 -4.53265e-20 1.27841e-37)
(2.93735e-19 3.01747e-19 0)
(5.23339e-19 -1.10459e-18 4.86495e-37)
(2.86462e-19 1.95656e-19 -3.33862e-37)
(5.48612e-19 6.3515e-19 4.52325e-37)
(1.02566e-18 -5.99902e-19 -7.98511e-37)
(9.75999e-19 1.19137e-18 -1.37463e-37)
(2.94322e-19 -1.83921e-19 8.49015e-37)
(-4.86733e-20 2.49843e-20 7.24747e-38)
(1.88168e-19 4.19364e-19 0)
(1.89819e-19 -4.16755e-19 -3.1106e-37)
(8.67054e-19 2.34259e-19 -3.29523e-37)
(-1.89132e-21 4.00501e-22 -1.34584e-37)
(2.04614e-19 -4.47457e-19 1.79728e-37)
(2.04919e-19 4.43138e-19 0)
(8.5049e-19 -9.38855e-20 9.91084e-38)
(6.82615e-19 -4.63364e-20 -6.67305e-37)
(9.59292e-19 -5.47659e-21 -5.46726e-37)
(3.93753e-19 -5.32052e-21 1.39722e-37)
(2.55235e-19 5.49646e-19 0)
(2.76764e-19 5.50221e-19 -1.62805e-37)
(1.72735e-19 -3.95411e-19 0)
(-5.67119e-22 -9.09184e-22 0)
(1.10922e-18 -2.74385e-19 0)
(1.08502e-18 -2.17241e-19 -7.56208e-37)
(4.33146e-19 -1.02007e-18 0)
(9.96918e-19 1.07531e-18 3.47007e-38)
(9.06672e-19 -1.17117e-19 4.21012e-37)
(6.09744e-19 -4.82265e-19 0)
(-2.82074e-20 -2.12022e-19 -4.30902e-38)
(1.07695e-18 -9.28763e-20 -1.14239e-37)
(-6.2191e-21 1.35912e-19 0)
(9.03392e-19 1.05799e-18 -3.50488e-37)
(1.97824e-21 1.43658e-19 0)
(7.42369e-19 4.28455e-20 1.45343e-37)
(3.73602e-19 2.31019e-19 0)
(-1.02142e-21 1.21361e-21 7.11849e-39)
(1.11083e-18 1.39813e-19 -3.43293e-38)
(9.1907e-19 -7.71399e-19 -6.98384e-37)
(1.05345e-18 3.02908e-19 -4.82379e-38)
(8.49453e-19 -2.17661e-19 1.52336e-37)
(9.31481e-19 -4.97148e-19 0)
(1.103e-18 1.21646e-19 3.45081e-38)
(8.77842e-19 7.6349e-19 3.55078e-37)
(1.61853e-19 -1.36665e-19 0)
(3.80958e-19 9.56318e-19 -1.90646e-37)
(1.07609e-18 5.22746e-19 4.88521e-38)
(9.78381e-19 -3.20021e-19 9.72666e-37)
(4.67658e-19 -9.76422e-19 -3.00046e-37)
(4.67804e-19 9.81368e-19 -3.30356e-37)
(6.06663e-19 -1.22705e-18 4.80688e-37)
(-4.65224e-20 5.21719e-20 0)
(5.60249e-19 1.15709e-18 4.9836e-37)
(-3.16679e-21 8.71363e-20 0)
(5.95329e-19 -1.18515e-18 -1.57041e-38)
(5.72779e-19 1.16112e-18 3.09382e-37)
(5.11615e-19 1.12749e-18 0)
(4.59913e-19 -1.12154e-18 1.0766e-37)
(1.86611e-19 -4.40624e-19 0)
(3.07583e-19 1.25735e-20 0)
(8.21952e-20 -2.29524e-19 -4.32357e-38)
(4.74023e-19 -1.16661e-18 -1.34005e-37)
(8.47188e-19 1.24474e-18 1.84041e-37)
(3.79433e-19 1.9888e-20 -5.74292e-37)
(5.22109e-19 -6.42534e-19 2.59179e-38)
(-9.28952e-22 -7.72133e-22 0)
(9.02728e-20 2.2206e-19 0)
(5.32626e-19 -1.15481e-18 2.71006e-37)
(4.43159e-19 -9.36384e-19 -5.8886e-37)
(9.06745e-19 5.96056e-19 -2.28056e-37)
(3.0594e-19 -8.19608e-19 -2.37762e-39)
(1.04965e-18 3.09206e-19 2.33933e-37)
(1.0424e-18 4.98133e-19 1.38805e-39)
(-6.67344e-20 -8.36213e-20 0)
(-1.55022e-20 -2.04149e-20 -1.14657e-37)
(-5.06181e-20 -1.95107e-19 1.68259e-37)
(7.82071e-19 1.29038e-18 6.83763e-37)
(7.1397e-19 6.20003e-20 -1.65127e-38)
(-3.05244e-20 -1.91087e-19 -3.92238e-37)
(7.16905e-19 1.01889e-18 2.02801e-37)
(5.74891e-19 9.0513e-19 -3.92467e-37)
(-9.44031e-21 3.88168e-20 0)
(6.08719e-19 1.19403e-18 0)
(8.59839e-22 4.40179e-22 0)
(5.14372e-19 1.1157e-18 -4.6724e-37)
(8.53644e-22 -4.45408e-22 1.29599e-37)
(6.13686e-19 1.238e-18 -7.2064e-37)
(-3.46528e-20 1.46574e-19 0)
(1.76141e-19 8.74999e-20 5.96274e-37)
(1.02409e-18 -4.82376e-19 3.36703e-37)
(1.38099e-19 1.22733e-19 0)
(1.01756e-18 9.71883e-19 0)
(3.76923e-19 -4.06997e-19 -2.10476e-36)
(3.17534e-19 3.75108e-19 -9.0748e-37)
(7.76505e-19 3.05613e-19 -6.03782e-38)
(1.62897e-19 -4.34259e-19 3.27707e-37)
(3.66522e-19 -3.23716e-20 1.63261e-39)
(6.76947e-19 -1.11652e-18 4.62239e-37)
(1.75012e-19 4.50865e-19 2.53546e-37)
(3.17231e-19 -3.70583e-19 0)
(9.24834e-19 2.51718e-19 -5.2633e-38)
(4.96814e-19 -1.08216e-18 9.556e-39)
(-4.51797e-20 -2.23879e-19 -2.89008e-38)
(-4.4304e-21 2.08436e-20 9.54542e-38)
(1.45256e-19 2.05336e-19 -1.99986e-37)
(-7.40609e-21 1.13778e-20 2.04411e-38)
(5.78885e-20 -1.82143e-19 1.22289e-37)
(5.16934e-19 -1.11462e-18 -1.14391e-37)
(5.14217e-19 -1.16453e-18 -2.94712e-37)
(1.19158e-19 -1.6742e-19 -4.74732e-37)
(2.04907e-19 -2.8713e-19 -1.75809e-38)
(6.41656e-19 -8.08643e-19 -6.13301e-38)
(-2.95509e-20 2.25645e-19 0)
(5.37392e-19 -4.1427e-20 1.16951e-36)
(1.05507e-18 1.15021e-18 0)
(-3.06779e-20 -1.61515e-19 2.60846e-37)
(-1.74878e-20 2.37801e-20 1.26131e-37)
(3.72904e-19 -9.47787e-19 2.39568e-37)
(1.06604e-20 -2.19153e-19 -1.26121e-39)
(1.91738e-22 -5.40832e-22 -1.38393e-37)
(-5.56815e-21 3.88962e-21 -3.56275e-38)
(6.72437e-19 1.14618e-18 -6.40916e-37)
(-8.40337e-23 6.36255e-22 0)
(9.28394e-19 1.25852e-18 -6.9601e-38)
(4.75606e-19 -1.11854e-18 -9.51742e-39)
(-8.10674e-21 -7.38437e-21 -4.21315e-37)
(-4.13858e-20 3.48972e-20 0)
(1.81702e-19 4.15771e-19 5.43004e-37)
(-4.16993e-20 1.29936e-19 -1.85884e-38)
(5.64032e-19 1.17882e-18 3.58599e-37)
(6.98187e-22 -1.92439e-22 9.20647e-38)
(7.02666e-22 4.99695e-23 6.85215e-38)
(5.95906e-19 -1.21462e-18 -4.12032e-37)
(8.86768e-19 1.04527e-19 1.6918e-37)
(3.09764e-19 -7.78757e-19 -5.30678e-37)
(-8.35774e-20 -1.05923e-19 0)
(1.06336e-18 1.006e-18 -1.34911e-37)
(-9.03777e-21 9.27005e-21 -3.48108e-38)
(3.557e-19 7.75363e-19 -1.8128e-37)
(-4.11964e-20 -4.22194e-20 -1.08376e-37)
(3.26416e-19 8.04268e-19 -2.6116e-37)
(-4.59464e-21 4.56439e-21 2.71678e-38)
(-5.28494e-20 -1.77527e-19 4.81279e-38)
(7.10313e-19 -7.64121e-19 0)
(-3.09132e-20 -1.39209e-19 1.61324e-37)
(3.86694e-19 8.77793e-19 1.24841e-37)
(4.62316e-19 9.77121e-19 -6.50263e-37)
(-1.80236e-20 9.47272e-20 0)
(5.84449e-19 -1.17047e-18 2.81627e-37)
(3.90618e-19 -8.70909e-19 5.8536e-37)
(7.24624e-20 1.66174e-19 9.18364e-37)
(-3.87282e-21 -3.00796e-21 -2.10226e-37)
(6.23427e-20 1.87063e-19 -1.69567e-37)
(8.5394e-19 -2.78175e-19 -5.2121e-37)
(2.17402e-19 -8.81307e-20 -1.35276e-37)
(3.23987e-19 -7.39049e-19 -3.14734e-38)
(5.01174e-19 -1.06315e-18 2.73912e-37)
(-7.19133e-20 -1.31911e-19 0)
(-2.9252e-20 -2.24679e-19 3.19755e-38)
(-1.37418e-20 -2.72468e-20 -3.66443e-38)
(6.56593e-19 -9.93526e-19 -3.24617e-37)
(1.78735e-19 -2.61077e-20 -6.35032e-37)
(3.75124e-19 -5.75963e-19 -1.96509e-37)
(6.12402e-19 -1.23584e-18 -3.26318e-37)
(-6.2469e-21 2.93719e-20 -3.7618e-37)
(-6.78436e-20 -2.04038e-19 1.81373e-37)
(7.61347e-19 -4.86418e-19 9.06836e-37)
(3.11456e-19 4.74419e-19 0)
(1.71831e-20 1.92744e-19 -5.90097e-37)
(4.32643e-19 9.23739e-19 2.13643e-37)
(6.54729e-19 8.22506e-19 4.27562e-37)
(2.39443e-22 -1.02426e-21 -8.55852e-38)
(4.04872e-22 9.85899e-22 -2.10971e-37)
(5.99183e-19 -3.16102e-19 0)
(3.10739e-19 -4.82088e-19 6.00252e-37)
(3.9295e-19 -8.54332e-19 3.14428e-37)
(3.94915e-19 -2.61384e-19 0)
(-5.76017e-20 2.10276e-19 -2.06315e-37)
(1.2882e-20 2.27228e-19 1.0045e-37)
(8.61712e-19 9.76645e-19 -4.54144e-37)
(7.74295e-19 -1.02559e-18 1.0339e-37)
(3.84582e-19 -8.95343e-19 1.54016e-38)
(9.7069e-19 -7.51501e-19 6.31673e-37)
(5.88271e-19 1.14167e-18 -8.27737e-37)
(4.89678e-19 -1.09662e-18 0)
(6.17931e-19 9.92226e-19 0)
(1.02373e-18 -6.1156e-19 0)
(5.93591e-19 8.17439e-20 -6.62674e-39)
(7.46133e-19 -1.28324e-18 0)
(2.90307e-20 -1.42658e-19 -1.29816e-37)
(-7.88346e-20 -1.58948e-19 2.3277e-37)
(-2.66659e-20 2.67985e-20 1.44823e-38)
(-2.04862e-20 1.61375e-20 4.6115e-38)
(3.51793e-19 5.69916e-19 3.7125e-37)
(3.36154e-19 -7.29285e-19 7.90893e-38)
(-2.51021e-22 1.27868e-21 1.34513e-38)
(-7.09645e-22 -1.11386e-21 6.09743e-37)
(1.16473e-19 1.65274e-19 -3.03607e-37)
(-5.34227e-21 -3.02169e-21 -2.13161e-38)
(6.06916e-19 1.86427e-19 5.86187e-38)
(1.01477e-21 -1.0402e-22 -1.47091e-38)
(9.41509e-22 7.36804e-22 -3.22532e-37)
(5.41555e-19 1.13174e-18 0)
(9.12365e-19 1.0359e-18 0)
(8.8269e-19 -5.48547e-19 -7.89207e-37)
(4.57789e-19 1.5283e-19 0)
(1.04908e-18 1.10995e-18 1.45516e-37)
(5.95594e-20 2.03838e-19 0)
(9.20456e-19 1.16928e-18 2.96717e-38)
(7.95859e-19 9.54866e-19 1.00356e-37)
)
;

boundaryField
{
    front
    {
        type            empty;
    }
    back
    {
        type            empty;
    }
    bottom
    {
        type            zeroGradient;
    }
    left
    {
        type            noSlip;
    }
    top
    {
        type            uniformFixedValue;
        uniformValue    
        {
            type            scale;
            scale           
            {
                type            squarePulse;
                start           0.3;
                duration        0.3;
            }
            xScale          
            {
                type            constant;
                value           1;
            }
            value           
            {
                type            constant;
                value           (0 -0.7 0);
            }
        }
        value           uniform (0 -0 0);
    }
    right
    {
        type            noSlip;
    }
    inner_arc
    {
        type            noSlip;
    }
}


// ************************************************************************* //
