/*--------------------------------*- C++ -*----------------------------------*\
  =========                 |
  \\      /  F ield         | OpenFOAM: The Open Source CFD Toolbox
   \\    /   O peration     | Website:  https://openfoam.org
    \\  /    A nd           | Version:  9
     \\/     M anipulation  |
\*---------------------------------------------------------------------------*/
FoamFile
{
    format      ascii;
    class       volScalarField;
    location    "1.5";
    object      p;
}
// * * * * * * * * * * * * * * * * * * * * * * * * * * * * * * * * * * * * * //

dimensions      [0 2 -2 0 0 0 0];

internalField   nonuniform List<scalar> 
942
(
13.1228
13.118
13.108
13.125
13.1079
13.1142
13.1223
13.1138
13.1255
13.1256
13.1197
13.1142
13.125
13.1197
13.1144
13.1175
13.1167
13.1235
13.1152
13.1187
13.1163
13.1134
13.1123
13.1092
13.1196
13.11
13.1148
13.1138
13.1124
13.122
13.1112
13.1145
13.1113
13.1102
13.117
13.0969
13.0919
13.1236
13.0916
13.1094
13.1097
13.1048
13.1085
13.1229
13.1213
13.1146
13.1133
13.1094
13.1081
13.1196
13.1159
13.116
13.0984
13.1091
13.1254
13.1062
13.1152
13.1253
13.1154
13.1112
13.1217
13.116
13.1102
13.1192
13.1232
13.1167
13.1159
13.1119
13.1051
13.1229
13.1185
13.1247
13.1174
13.1235
13.1079
13.1185
13.119
13.1169
13.1109
13.1171
13.1162
13.1103
13.1193
13.117
13.1161
13.1112
13.1111
13.1152
13.1195
13.1191
13.1066
13.1186
13.1253
13.1075
13.1038
13.1183
13.1034
13.1155
13.1163
13.1224
13.1235
13.1253
13.114
13.1227
13.1049
13.1203
13.1158
13.1138
13.111
13.1125
13.1026
13.1059
13.1119
13.1252
13.1195
13.1183
13.1125
13.1249
13.1219
13.1109
13.1209
13.0994
13.1061
13.1174
13.1173
13.1106
13.1116
13.1103
13.1118
13.0949
13.1135
13.1138
13.112
13.1081
13.1092
13.1133
13.1001
13.1109
13.1035
13.1061
13.1074
13.1128
13.1126
13.1105
13.1142
13.1105
13.1232
13.1246
13.0945
13.112
13.1135
13.1107
13.1183
13.119
13.1177
13.0931
13.1167
13.1253
13.1119
13.1184
13.1161
13.0957
13.1249
13.1137
13.1106
13.1196
13.1233
13.1215
13.1151
13.1137
13.1108
13.1081
13.1017
13.1194
13.1098
13.1231
13.1183
13.1237
13.1073
13.1219
13.1195
13.113
13.0927
13.1228
13.1235
13.1115
13.1147
13.1093
13.1114
13.1205
13.1146
13.1193
13.1169
13.1121
13.1098
13.125
13.1111
13.1204
13.11
13.1054
13.1226
13.1251
13.1106
13.1162
13.1137
13.1086
13.102
13.1102
13.1073
13.1083
13.1109
13.1249
13.125
13.1152
13.1105
13.1222
13.1104
13.1174
13.1122
13.1124
13.1171
13.1238
13.1163
13.1242
13.1245
13.1148
13.1153
13.1081
13.1216
13.1133
13.1125
13.1114
13.117
13.1233
13.1208
13.1251
13.1174
13.1137
13.1124
13.1134
13.1135
13.1211
13.1078
13.123
13.1226
13.111
13.0988
13.1242
13.1043
13.1122
13.1145
13.1094
13.1156
13.1111
13.121
13.1247
13.1131
13.1155
13.1167
13.123
13.1168
13.1178
13.1163
13.1185
13.0977
13.1252
13.1222
13.1119
13.1127
13.0974
13.0929
13.1118
13.1105
13.1141
13.1115
13.1182
13.1101
13.1134
13.1138
13.1063
13.1204
13.0964
13.1036
13.1125
13.1162
13.1123
13.1134
13.1098
13.1182
13.1154
13.1165
13.1103
13.119
13.097
13.1149
13.1168
13.1114
13.1122
13.1118
13.1131
13.1151
13.1143
13.1116
13.1107
13.1154
13.1067
13.1086
13.1145
13.1185
13.1188
13.1232
13.1193
13.1134
13.1181
13.1027
13.1197
13.1181
13.1161
13.1187
13.1135
13.119
13.1194
13.1206
13.1168
13.1114
13.1182
13.1196
13.0985
13.1061
13.1147
13.1167
13.0939
13.1109
13.1111
13.1127
13.1162
13.11
13.1162
13.1159
13.0974
13.1152
13.1183
13.1076
13.1159
13.1138
13.1163
13.1147
13.1049
13.1085
13.113
13.1162
13.1127
13.1013
13.1126
13.1161
13.113
13.1156
13.0975
13.1162
13.118
13.1126
13.1124
13.1147
13.0941
13.1112
13.1152
13.1131
13.1136
13.1096
13.1185
13.1096
13.1159
13.112
13.1077
13.1162
13.114
13.1159
13.1147
13.0998
13.1134
13.108
13.1192
13.107
13.0957
13.1133
13.1134
13.112
13.1143
13.1155
13.1131
13.1106
13.1018
13.1132
13.1157
13.1059
13.1115
13.1129
13.1087
13.1127
13.0994
13.1043
13.1071
13.1154
13.1127
13.1105
13.1165
13.0949
13.1161
13.1087
13.0999
13.1111
13.1148
13.1118
13.1134
13.1121
13.1026
13.1014
13.1104
13.1169
13.1093
13.1122
13.1105
13.1127
13.1095
13.1112
13.1126
13.1162
13.1183
13.1147
13.1159
13.115
13.1141
13.1155
13.1181
13.1002
13.1116
13.1145
13.1106
13.1097
13.1152
13.1088
13.113
13.1157
13.1156
13.1074
13.1142
13.1166
13.1177
13.1109
13.1043
13.1168
13.1185
13.1183
13.1068
13.1173
13.1167
13.1168
13.1178
13.1045
13.1182
13.1143
13.1151
13.1134
13.1173
13.1166
13.1179
13.1123
13.1148
13.115
13.1182
13.1154
13.117
13.116
13.1131
13.1171
13.1186
13.1113
13.1177
13.1126
13.1166
13.1017
13.1173
13.1163
13.1178
13.112
13.1174
13.1138
13.1165
13.1124
13.1184
13.119
13.1178
13.1187
13.1169
13.1028
13.1176
13.1176
13.118
13.1172
13.1081
13.1186
13.1174
13.11
13.117
13.1185
13.1162
13.1174
13.118
13.1155
13.1172
13.1127
13.1175
13.1184
13.1166
13.1194
13.1095
13.1193
13.1181
13.1172
13.1148
13.1143
13.1179
13.1165
13.1179
13.1167
13.1163
13.1184
13.1161
13.1182
13.116
13.1177
13.1187
13.1137
13.1139
13.1167
13.1153
13.1139
13.1188
13.1116
13.1163
13.1139
13.1186
13.1155
13.1155
13.1148
13.1136
13.1185
13.1157
13.1143
13.1144
13.1155
13.1171
13.1149
13.1147
13.1134
13.1151
13.1145
13.1188
13.1133
13.1192
13.1168
13.1152
13.1204
13.1154
13.1156
13.114
13.114
13.1143
13.1166
13.1249
13.1149
13.1121
13.1145
13.1144
13.1235
13.1127
13.1166
13.1159
13.1172
13.1177
13.1242
13.1058
13.1255
13.1159
13.1191
13.1208
13.1172
13.1049
13.1248
13.1126
13.1029
13.1226
13.1251
13.1051
13.105
13.1242
13.1068
13.1139
13.1065
13.1244
13.124
13.1236
13.1053
13.1068
13.1258
13.1147
13.1068
13.1246
13.1143
13.1069
13.1163
13.1068
13.1066
13.1061
13.1138
13.1164
13.1105
13.1171
13.1127
13.124
13.1059
13.1187
13.1071
13.1252
13.1091
13.1097
13.1062
13.1232
13.1236
13.1152
13.1186
13.1189
13.1096
13.1026
13.1159
13.1187
13.11
13.1238
13.112
13.1153
13.1167
13.1235
13.1146
13.1106
13.119
13.1131
13.1139
13.1141
13.1232
13.1216
13.124
13.1158
13.1132
13.1255
13.1133
13.1186
13.1185
13.114
13.1136
13.1246
13.1256
13.1079
13.125
13.1246
13.1252
13.1231
13.1097
13.1104
13.0989
13.114
13.114
13.1153
13.124
13.1164
13.1236
13.1252
13.1132
13.1159
13.1237
13.1254
13.1095
13.118
13.0922
13.1197
13.1197
13.1193
13.1183
13.119
13.1197
13.1195
13.1134
13.1196
13.1187
13.1189
13.1184
13.1193
13.1195
13.12
13.1197
13.1196
13.119
13.1185
13.1191
13.1196
13.1139
13.1192
13.1195
13.1103
13.1192
13.1151
13.1257
13.1184
13.1142
13.124
13.1142
13.1179
13.1128
13.1192
13.125
13.1184
13.1141
13.1169
13.1157
13.1146
13.1132
13.1133
13.1134
13.118
13.1248
13.1108
13.1152
13.108
13.1248
13.1134
13.1145
13.1185
13.0993
13.1238
13.118
13.1166
13.1249
13.1167
13.1111
13.1182
13.0915
13.1158
13.1242
13.1177
13.1234
13.1108
13.1245
13.1196
13.1154
13.1159
13.1135
13.1112
13.1112
13.1159
13.1167
13.1142
13.1197
13.1254
13.1231
13.106
13.1252
13.1187
13.1138
13.1232
13.1092
13.0969
13.108
13.1156
13.1192
13.125
13.1134
13.1183
13.1198
13.1185
13.1049
13.1191
13.1231
13.1237
13.1189
13.1188
13.1082
13.1144
13.1189
13.1154
13.1014
13.1147
13.1192
13.1135
13.1257
13.1142
13.1137
13.1153
13.1188
13.1168
13.1173
13.1181
13.1191
13.1088
13.0982
13.1065
13.1148
13.1084
13.1101
13.1097
13.1255
13.0946
13.1166
13.1072
13.1154
13.1257
13.1084
13.108
13.0985
13.1142
13.1196
13.1168
13.1251
13.1258
13.1086
13.1098
13.1195
13.1161
13.1044
13.1229
13.1114
13.1231
13.1101
13.1079
13.1244
13.1107
13.1233
13.1136
13.1154
13.1092
13.1121
13.1152
13.1196
13.1087
13.1131
13.1193
13.1044
13.1162
13.1248
13.1127
13.1193
13.114
13.1104
13.1102
13.1125
13.1102
13.1057
13.1065
13.1103
13.0963
13.1231
13.1103
13.1243
13.1154
13.1185
13.1142
13.1044
13.1156
13.1191
13.1095
13.1188
13.1143
13.111
13.1238
13.1071
13.1174
13.1132
13.1176
13.1197
13.1009
13.1078
13.1173
13.1143
13.1229
13.1249
13.0946
13.116
13.1241
13.1254
13.1185
13.1174
13.1183
13.114
13.1233
13.1071
13.1102
13.1141
13.1004
13.1068
13.1089
13.1159
13.1193
13.1191
13.1093
13.1119
13.1194
13.1258
13.1096
13.1189
13.0951
13.1247
13.1189
13.1188
13.1077
13.1231
13.1094
13.113
13.1095
13.1142
13.0965
13.1078
13.1097
13.1189
13.1129
13.1187
13.123
13.1153
13.1091
13.1132
13.1194
13.1245
13.1008
13.1186
13.1256
13.0957
13.1148
13.1248
13.109
13.1077
13.1009
13.1256
13.1163
13.1248
13.1246
)
;

boundaryField
{
    back
    {
        type            empty;
    }
    front
    {
        type            empty;
    }
    top
    {
        type            zeroGradient;
    }
    outer_arc
    {
        type            zeroGradient;
    }
    bottom
    {
        type            uniformFixedValue;
        uniformValue    
        {
            type            table;
            format          csv;
            file            "outlet_p.csv";
            nHeaderLine     1;
            refColumn       0;
            componentColumns List<label> 1(1);
            separator       ",";
            mergeSeparators 0;
        }
        value           uniform 13.106;
    }
    inner_arc
    {
        type            zeroGradient;
    }
}


// ************************************************************************* //
