/*--------------------------------*- C++ -*----------------------------------*\
  =========                 |
  \\      /  F ield         | OpenFOAM: The Open Source CFD Toolbox
   \\    /   O peration     | Website:  https://openfoam.org
    \\  /    A nd           | Version:  9
     \\/     M anipulation  |
\*---------------------------------------------------------------------------*/
FoamFile
{
    format      ascii;
    class       volScalarField;
    location    "1.25";
    object      p;
}
// * * * * * * * * * * * * * * * * * * * * * * * * * * * * * * * * * * * * * //

dimensions      [0 2 -2 0 0 0 0];

internalField   nonuniform List<scalar> 
1655
(
14.6846
14.6619
14.6374
14.7023
14.7413
14.7325
14.6329
14.7389
14.7153
14.7402
14.691
14.6893
14.7426
14.6352
14.7005
14.5758
14.5943
14.7099
14.722
14.6351
14.5695
14.7151
14.7418
14.7436
14.6851
14.5903
14.5742
14.7221
14.7261
14.5639
14.6231
14.646
14.6176
14.653
14.7086
14.657
14.7327
14.6605
14.6186
14.6626
14.5688
14.7436
14.6251
14.7168
14.6515
14.7009
14.7013
14.6511
14.7363
14.628
14.7311
14.6405
14.7028
14.7195
14.7159
14.6915
14.5703
14.6922
14.6976
14.6907
14.6256
14.7269
14.6831
14.7367
14.7106
14.6253
14.7054
14.6938
14.7077
14.745
14.6937
14.63
14.5678
14.7045
14.6423
14.6459
14.7287
14.706
14.57
14.5656
14.7091
14.6474
14.7143
14.7153
14.5673
14.6992
14.6419
14.5673
14.6693
14.6942
14.696
14.6411
14.7204
14.7374
14.6397
14.7226
14.7062
14.6978
14.6483
14.5914
14.641
14.7074
14.7383
14.7072
14.7109
14.7273
14.7333
14.5635
14.589
14.69
14.6003
14.6897
14.686
14.5694
14.7349
14.6993
14.7348
14.6994
14.6711
14.7116
14.6816
14.6493
14.6341
14.6996
14.7062
14.7421
14.628
14.6396
14.5786
14.571
14.7321
14.597
14.7367
14.7421
14.5649
14.6639
14.7422
14.7043
14.5694
14.7043
14.6949
14.5746
14.5791
14.6553
14.5999
14.6478
14.6629
14.6808
14.6717
14.6162
14.6248
14.608
14.641
14.6331
14.7008
14.6286
14.7118
14.6638
14.7337
14.7094
14.6645
14.6711
14.7205
14.6597
14.6557
14.6961
14.7219
14.7382
14.7074
14.7057
14.5936
14.7193
14.672
14.7284
14.5664
14.7301
14.7339
14.7035
14.5766
14.6356
14.6951
14.7183
14.7311
14.7012
14.6568
14.5841
14.6486
14.581
14.7117
14.7197
14.6545
14.7254
14.7138
14.6382
14.5933
14.5641
14.7132
14.5896
14.6693
14.7187
14.7028
14.7031
14.6378
14.6304
14.6964
14.5722
14.623
14.7127
14.5744
14.6492
14.6539
14.643
14.6627
14.7395
14.6355
14.7039
14.6567
14.6719
14.6478
14.7197
14.6503
14.5692
14.6218
14.7231
14.6202
14.6035
14.6016
14.6977
14.6423
14.643
14.6397
14.6338
14.636
14.7064
14.621
14.637
14.5994
14.7133
14.5954
14.6298
14.7
14.6561
14.6335
14.5655
14.7217
14.5665
14.6143
14.7228
14.5913
14.7219
14.7175
14.5654
14.7052
14.6488
14.6241
14.6535
14.5912
14.7226
14.704
14.6254
14.664
14.5749
14.6062
14.6423
14.705
14.7346
14.6283
14.6323
14.6153
14.6329
14.7029
14.7078
14.6556
14.5775
14.7048
14.708
14.6113
14.7211
14.7134
14.6539
14.7158
14.734
14.7065
14.7037
14.7027
14.7099
14.7157
14.6046
14.6272
14.7093
14.7111
14.5674
14.6324
14.7211
14.7152
14.6155
14.7386
14.6479
14.5666
14.5806
14.605
14.7389
14.7385
14.6175
14.6046
14.7141
14.6061
14.5856
14.7144
14.6097
14.7087
14.6004
14.582
14.6616
14.7336
14.7159
14.5675
14.7164
14.6086
14.5968
14.7166
14.6344
14.6075
14.6193
14.6085
14.6991
14.6982
14.7331
14.5885
14.7062
14.6285
14.7164
14.6374
14.5839
14.7124
14.5937
14.7088
14.6315
14.6125
14.7119
14.5996
14.6201
14.705
14.6376
14.7011
14.6216
14.6345
14.6098
14.6002
14.576
14.7467
14.6991
14.639
14.614
14.7201
14.6141
14.6141
14.6173
14.7172
14.6015
14.6984
14.6297
14.7201
14.6452
14.6435
14.699
14.5833
14.7474
14.7186
14.6354
14.6535
14.616
14.6485
14.6212
14.746
14.715
14.7091
14.7381
14.6396
14.6097
14.6423
14.651
14.7372
14.644
14.6076
14.722
14.6205
14.7187
14.7067
14.5983
14.5723
14.699
14.7115
14.7229
14.6245
14.6259
14.6135
14.7101
14.7231
14.7218
14.6161
14.6396
14.6524
14.7324
14.7007
14.6226
14.7217
14.6957
14.6587
14.7056
14.7441
14.6498
14.6381
14.7044
14.626
14.6474
14.7232
14.6312
14.6375
14.6256
14.7229
14.6479
14.6652
14.6194
14.637
14.6059
14.6341
14.6233
14.5879
14.6871
14.6016
14.6727
14.6314
14.7409
14.6451
14.6635
14.6389
14.6927
14.7425
14.654
14.5773
14.6278
14.696
14.6194
14.6325
14.658
14.6887
14.7071
14.6862
14.7024
14.682
14.6761
14.6747
14.64
14.68
14.6363
14.7173
14.6261
14.6892
14.6705
14.6599
14.6293
14.6551
14.681
14.7255
14.7388
14.6335
14.6256
14.6331
14.6614
14.6658
14.6425
14.6415
14.6998
14.678
14.6674
14.6712
14.6707
14.634
14.6639
14.6071
14.7029
14.6356
14.6708
14.671
14.6382
14.6694
14.6641
14.6975
14.6374
14.6764
14.6807
14.6428
14.6951
14.6862
14.6666
14.6117
14.6608
14.6658
14.6924
14.6921
14.6729
14.6617
14.6859
14.6068
14.6903
14.6651
14.6895
14.6825
14.6695
14.729
14.6887
14.7065
14.673
14.6613
14.6946
14.6841
14.6738
14.6168
14.623
14.6511
14.646
14.6681
14.6828
14.6184
14.6448
14.693
14.6878
14.6785
14.6595
14.6947
14.6778
14.677
14.7054
14.7316
14.6644
14.7399
14.6896
14.7092
14.7004
14.7217
14.633
14.7269
14.703
14.6718
14.7354
14.6822
14.7063
14.6771
14.7136
14.694
14.6848
14.596
14.6914
14.6811
14.6112
14.6509
14.6767
14.6971
14.673
14.6743
14.7017
14.6414
14.6596
14.7225
14.6266
14.6726
14.6316
14.6631
14.6592
14.6731
14.673
14.6588
14.7081
14.6648
14.6747
14.6871
14.6924
14.6207
14.6579
14.6934
14.695
14.7191
14.6319
14.6998
14.6967
14.6575
14.6532
14.6916
14.6521
14.6787
14.6551
14.6579
14.6614
14.652
14.6259
14.6715
14.6758
14.6655
14.6675
14.6701
14.6207
14.6501
14.6724
14.6122
14.6036
14.6435
14.6855
14.5723
14.6369
14.6801
14.6857
14.5826
14.6286
14.6662
14.6751
14.6157
14.6919
14.6457
14.6366
14.6206
14.6561
14.6117
14.6558
14.6555
14.7038
14.6576
14.6598
14.6628
14.6921
14.6566
14.6882
14.6664
14.7004
14.6898
14.6705
14.6956
14.6942
14.6836
14.6715
14.6888
14.6553
14.6558
14.694
14.6883
14.7266
14.6792
14.6988
14.688
14.5926
14.675
14.6761
14.6622
14.6732
14.6729
14.6828
14.6652
14.6772
14.6643
14.626
14.6776
14.6702
14.697
14.6708
14.6526
14.6661
14.7039
14.6901
14.6957
14.6816
14.6646
14.6722
14.7027
14.6961
14.7013
14.695
14.6901
14.7137
14.6605
14.7051
14.6836
14.6761
14.6944
14.6557
14.6913
14.6163
14.6922
14.6922
14.6803
14.6798
14.6913
14.6992
14.7165
14.684
14.6825
14.6822
14.704
14.6709
14.6829
14.6872
14.6621
14.6845
14.6768
14.6942
14.6961
14.7029
14.703
14.6629
14.6858
14.681
14.6134
14.6816
14.6068
14.6656
14.6667
14.6988
14.7067
14.7012
14.6626
14.5889
14.6798
14.6884
14.7089
14.6653
14.7333
14.6119
14.6885
14.7066
14.6796
14.705
14.5948
14.7199
14.694
14.684
14.7205
14.7065
14.6937
14.6973
14.6932
14.7011
14.6197
14.725
14.6809
14.6083
14.6849
14.6878
14.6947
14.6779
14.7058
14.697
14.6965
14.7046
14.6829
14.5889
14.599
14.7155
14.711
14.6972
14.6646
14.7178
14.6039
14.6028
14.7006
14.7145
14.6807
14.7032
14.6992
14.6091
14.7005
14.6785
14.6
14.7081
14.7122
14.6763
14.6684
14.6766
14.6758
14.6915
14.6846
14.6853
14.7028
14.7026
14.7026
14.7007
14.6758
14.6801
14.7206
14.6706
14.6957
14.6734
14.7116
14.5953
14.6903
14.6889
14.7124
14.6175
14.6663
14.6933
14.7216
14.7081
14.7239
14.7214
14.7169
14.7107
14.6596
14.669
14.7068
14.7288
14.5991
14.722
14.6707
14.6585
14.5972
14.7209
14.6814
14.6028
14.7138
14.7065
14.7182
14.592
14.6891
14.7135
14.6767
14.73
14.6848
14.6024
14.7043
14.6852
14.7085
14.7047
14.6898
14.7143
14.6913
14.7083
14.7036
14.7104
14.7082
14.701
14.7229
14.712
14.7107
14.7004
14.5941
14.7251
14.7249
14.7089
14.5912
14.7081
14.6645
14.7095
14.6981
14.5791
14.6845
14.7017
14.7117
14.726
14.6676
14.7073
14.6938
14.6963
14.7244
14.6877
14.6884
14.6003
14.7081
14.7024
14.7284
14.697
14.7034
14.6912
14.6957
14.7186
14.7359
14.7017
14.6938
14.6671
14.7064
14.6644
14.6788
14.5812
14.7028
14.7373
14.5854
14.678
14.7173
14.6879
14.7157
14.6992
14.6974
14.7197
14.7306
14.7181
14.5919
14.7031
14.7337
14.6322
14.7179
14.6801
14.7136
14.7194
14.7125
14.6983
14.6634
14.7186
14.7345
14.7146
14.7069
14.7314
14.7158
14.6634
14.7157
14.5946
14.5849
14.7365
14.7314
14.7141
14.7166
14.5847
14.7152
14.6664
14.6865
14.7351
14.7115
14.6826
14.7129
14.7132
14.7219
14.6607
14.7156
14.7368
14.7215
14.6446
14.7225
14.7322
14.7322
14.6613
14.7041
14.7067
14.637
14.6883
14.7129
14.5927
14.7179
14.6792
14.6869
14.7149
14.6642
14.7161
14.6425
14.7361
14.7329
14.7112
14.686
14.7074
14.6259
14.6128
14.6897
14.6931
14.6965
14.7082
14.7233
14.6899
14.7177
14.6945
14.5793
14.6117
14.703
14.6955
14.5872
14.6313
14.6022
14.7169
14.6299
14.7101
14.7392
14.7367
14.6334
14.7339
14.7079
14.7193
14.733
14.7148
14.6245
14.5879
14.6492
14.7338
14.6729
14.7168
14.6742
14.7243
14.6544
14.7104
14.7391
14.6813
14.6598
14.7188
14.5864
14.718
14.7127
14.7396
14.7397
14.7345
14.6569
14.7404
14.72
14.7356
14.6656
14.7203
14.6269
14.645
14.6386
14.7379
14.735
14.6397
14.7118
14.7379
14.7192
14.6524
14.6423
14.653
14.7283
14.621
14.7008
14.7317
14.6421
14.6327
14.7325
14.6489
14.721
14.656
14.6189
14.5742
14.5822
14.634
14.6373
14.6329
14.7056
14.7051
14.6474
14.7372
14.6512
14.6114
14.7181
14.7385
14.6459
14.6335
14.5977
14.7292
14.7108
14.6281
14.6272
14.6304
14.6504
14.6308
14.5813
14.6997
14.6488
14.7243
14.7054
14.7167
14.7112
14.5838
14.7203
14.636
14.5792
14.6685
14.6455
14.7413
14.7282
14.7259
14.7292
14.6457
14.6479
14.729
14.7249
14.6358
14.7235
14.5777
14.6135
14.7133
14.7035
14.5971
14.7316
14.7265
14.7245
14.5774
14.7253
14.7075
14.7099
14.6099
14.7075
14.5744
14.7276
14.7251
14.7123
14.7267
14.7248
14.7266
14.7086
14.6546
14.7073
14.7301
14.7254
14.7095
14.7033
14.7268
14.727
14.5742
14.7252
14.6536
14.7299
14.6666
14.73
14.6377
14.7294
14.6373
14.6334
14.7266
14.704
14.7268
14.6628
14.628
14.6575
14.7127
14.7293
14.7018
14.7223
14.6496
14.6541
14.7309
14.7284
14.5654
14.6318
14.6356
14.7261
14.7022
14.6461
14.7304
14.6364
14.7132
14.7205
14.6313
14.578
14.7118
14.7288
14.7283
14.7167
14.7235
14.706
14.6432
14.6459
14.7307
14.7092
14.642
14.7101
14.7275
14.7204
14.6386
14.7111
14.5634
14.6244
14.6272
14.6243
14.7055
14.7155
14.6536
14.6409
14.6415
14.6523
14.7298
14.7257
14.7213
14.7138
14.6226
14.7307
14.6419
14.5629
14.7231
14.612
14.7258
14.7249
14.6347
14.7106
14.7093
14.716
14.5867
14.6479
14.5885
14.7025
14.7239
14.6049
14.6549
14.6427
14.7294
14.5812
14.5912
14.707
14.7306
14.6376
14.726
14.7241
14.6629
14.6852
14.5727
14.65
14.6131
14.7446
14.596
14.5817
14.6324
14.6594
14.6235
14.5955
14.6514
14.6168
14.5905
14.5853
14.6488
14.6549
14.7194
14.7274
14.7224
14.6352
14.6309
14.5647
14.7359
14.6708
14.648
14.6297
14.576
14.7249
14.6465
14.7299
14.7332
14.6222
14.7309
14.7174
14.5752
14.5854
14.6504
14.6207
14.6561
14.6449
14.7276
14.7353
14.6075
14.7358
14.5633
14.7004
14.5901
14.6988
14.6152
14.6186
14.6419
14.6684
14.7085
14.6308
14.609
14.7342
14.5646
14.5954
14.6237
14.6031
14.62
14.6014
14.6521
14.6542
14.6423
14.6434
14.6469
14.6875
14.5907
14.6973
14.6988
14.607
14.6339
14.6565
14.5809
14.7017
14.6611
14.696
14.5765
14.6009
14.7013
14.7344
14.7415
14.6723
14.6224
14.6086
14.6137
14.6603
14.7197
14.7139
14.6569
14.7161
14.7036
14.7107
14.5657
14.7078
14.7083
14.5824
14.7138
14.6684
14.7272
14.7392
14.7403
14.6767
14.7426
14.7179
14.7448
14.6749
14.5668
14.7441
14.6971
14.5874
14.7367
14.7025
14.7197
14.7
14.6792
14.7266
14.6978
14.7122
14.6671
14.6163
14.7029
14.6994
14.7356
14.7034
14.7153
14.6154
14.7108
14.712
14.622
14.604
14.7067
14.7203
14.7149
14.6883
14.7305
14.7323
14.7103
14.6907
14.7228
14.7278
14.734
14.7257
14.6833
14.7121
14.6921
14.7189
14.7162
14.6872
14.7292
14.7336
14.7114
14.6846
14.6919
14.7243
14.6718
14.706
14.6188
14.5713
14.7466
14.7457
14.7069
14.6579
14.5709
14.5718
14.6316
14.5736
14.604
14.6878
14.6781
14.6809
14.7254
14.6267
14.648
14.7047
14.6664
14.7463
14.6726
14.6453
14.7261
14.5682
14.5834
14.6851
14.7291
14.6567
14.713
14.6796
14.6746
14.5767
14.6012
14.6076
14.6363
14.7185
14.7036
14.7456
14.6346
14.7286
14.6533
14.7158
14.6511
14.6777
14.7174
14.6856
14.7046
14.741
14.6071
14.6826
14.7318
14.582
14.5703
14.5814
14.727
14.742
14.6425
14.7321
14.5979
14.6952
14.6431
14.6386
14.5967
14.7431
14.739
14.6521
14.6493
14.7434
14.6174
14.6812
14.6757
14.6727
14.6447
14.6472
14.6465
14.6981
14.7016
14.6654
14.7116
14.7121
14.6922
14.6447
14.6402
14.641
14.7011
14.7105
14.7313
14.5693
14.6854
14.7073
14.6819
14.7099
14.5637
14.6277
14.707
14.7375
14.7084
14.7234
14.7382
14.7027
14.7454
14.7349
14.6311
14.7361
14.7027
14.5635
14.7091
14.6377
14.6529
14.6338
14.7488
14.7448
14.5842
14.7054
14.7052
14.6336
14.6546
14.6971
14.7002
14.6573
14.7406
14.5762
14.7136
14.7392
14.7007
14.6408
14.7139
14.5727
14.6678
14.7003
14.6353
14.7225
14.7472
14.7453
14.7462
14.7423
14.7365
14.7421
14.7438
14.7393
14.7416
14.705
14.7061
14.7024
14.6704
14.7429
14.6763
14.7051
14.7041
14.7297
14.7146
14.6961
14.7376
14.6001
14.6059
14.6379
14.7068
14.6746
14.7038
14.6461
14.7392
14.5696
14.668
14.6743
14.6506
14.5927
14.7181
14.6791
14.6799
14.6453
14.6666
14.713
14.6459
14.6916
14.7111
14.7019
14.701
14.6307
14.7192
14.735
14.7196
14.6597
14.6907
14.7382
14.7327
14.6878
14.6075
14.6386
14.6795
14.7076
14.7176
14.7435
14.6517
14.6422
14.6171
14.7325
14.7371
14.6371
14.7453
14.5883
14.7249
14.6856
14.7159
14.7425
14.641
14.7124
14.7003
14.6874
14.7406
14.6349
14.5802
14.7421
14.681
14.7278
14.7295
14.7454
14.7187
14.6558
14.6604
14.7106
14.6594
14.6096
14.7052
14.6423
14.6288
14.7122
14.7125
14.7474
14.6677
14.647
14.6473
14.5999
14.7028
14.7019
14.6908
14.7038
14.5635
14.7349
14.7079
14.7347
14.7298
14.7102
14.7433
14.5888
14.6154
14.7032
14.7144
14.7295
14.6131
14.6998
14.6577
14.6786
14.7128
14.7031
14.6341
14.701
14.6369
14.7424
14.5844
14.7076
14.6688
14.6721
14.632
14.6856
14.7465
14.7377
14.6335
14.7366
14.7046
14.7003
14.7052
14.7405
14.6455
14.6782
14.7126
14.6753
14.6333
14.6802
14.7311
14.6328
14.6738
14.7005
14.6378
14.7439
14.6736
14.6815
14.6112
14.6689
14.7115
14.5913
14.6755
14.5965
14.7445
14.7108
)
;

boundaryField
{
    back
    {
        type            empty;
    }
    front
    {
        type            empty;
    }
    top
    {
        type            zeroGradient;
    }
    outer_arc
    {
        type            zeroGradient;
    }
    bottom
    {
        type            uniformFixedValue;
        uniformValue    
        {
            type            table;
            format          csv;
            file            "outlet_p.csv";
            nHeaderLine     1;
            refColumn       0;
            componentColumns List<label> 1(1);
            separator       ",";
            mergeSeparators 0;
        }
        value           uniform 14.7103;
    }
    inner_arc
    {
        type            zeroGradient;
    }
}


// ************************************************************************* //
