/*--------------------------------*- C++ -*----------------------------------*\
  =========                 |
  \\      /  F ield         | OpenFOAM: The Open Source CFD Toolbox
   \\    /   O peration     | Website:  https://openfoam.org
    \\  /    A nd           | Version:  9
     \\/     M anipulation  |
\*---------------------------------------------------------------------------*/
FoamFile
{
    format      ascii;
    class       surfaceScalarField;
    location    "1.25";
    object      phi;
}
// * * * * * * * * * * * * * * * * * * * * * * * * * * * * * * * * * * * * * //

dimensions      [0 3 -1 0 0 0 0];

internalField   nonuniform List<scalar> 
1363
(
-2.62128e-06
1.67898e-06
9.42298e-07
-1.61473e-06
1.79234e-06
-1.77604e-07
2.19499e-06
-1.59541e-06
-5.99585e-07
-7.78958e-07
2.37569e-06
-1.59674e-06
2.05381e-06
1.41186e-07
1.42383e-06
-3.59455e-08
-1.38788e-06
-6.1084e-07
6.1084e-07
1.22966e-06
1.94169e-07
-1.478e-06
1.55933e-06
-8.13349e-08
1.03423e-07
-1.58142e-06
-1.45832e-06
1.44446e-06
1.38601e-08
1.54905e-06
-1.94659e-06
3.97544e-07
1.74783e-06
-2.52678e-06
-1.45717e-06
1.50234e-06
-4.51751e-08
3.84385e-07
1.16466e-06
-1.52707e-06
-8.76665e-08
-6.4661e-08
1.78892e-06
-1.72426e-06
-1.33976e-06
-1.28152e-06
-1.45316e-06
1.49813e-08
1.43818e-06
9.0406e-07
-9.0406e-07
1.42008e-06
-1.48474e-06
-6.81575e-07
-1.26502e-06
-7.39695e-07
-1.07186e-07
8.46881e-07
3.15895e-07
-1.42741e-06
1.11152e-06
-4.47889e-07
-1.01043e-06
-1.45417e-06
1.77007e-06
1.65467e-06
-1.59092e-06
-6.37445e-08
-1.10787e-06
3.68178e-07
1.30869e-06
-1.87333e-06
5.64631e-07
-1.55913e-07
-1.7901e-06
1.94602e-06
1.98202e-06
-3.84263e-07
-1.59775e-06
2.02288e-09
1.65265e-06
-2.60009e-07
1.5687e-06
1.09562e-06
-3.76533e-07
-7.1909e-07
1.58739e-06
-1.46407e-06
-1.23319e-07
1.33475e-08
7.41057e-07
-7.54405e-07
-2.6666e-06
1.23442e-06
1.43218e-06
1.5198e-06
-6.95199e-07
-8.24603e-07
-1.31326e-06
-1.35334e-06
-2.16449e-07
-1.21097e-06
-8.1369e-07
1.22555e-06
-4.1186e-07
2.71091e-06
-2.04029e-06
-6.70628e-07
4.54216e-07
-6.70665e-07
-1.85607e-07
-4.25233e-07
2.96218e-07
3.14622e-07
-1.43282e-06
5.89603e-09
1.42693e-06
1.0894e-06
1.0387e-07
-1.19327e-06
1.1626e-07
9.79363e-07
1.27596e-07
-9.41285e-07
-3.5744e-07
-1.09973e-06
-1.30339e-06
-1.49773e-07
8.21775e-08
-1.89364e-07
9.34667e-08
-8.01192e-08
-1.42196e-06
2.30082e-07
1.19187e-06
2.11825e-06
-2.01483e-06
3.55077e-08
1.24937e-06
-1.28487e-06
8.14511e-07
-8.14511e-07
9.70539e-09
2.10855e-06
6.53907e-07
1.60605e-07
7.54456e-08
1.63562e-06
-1.71106e-06
-1.05815e-06
9.02233e-07
1.71118e-06
-1.5657e-06
-1.45481e-07
8.41705e-07
-1.21824e-06
-4.65502e-07
2.14448e-06
9.39652e-07
5.8015e-07
1.4406e-06
-1.00096e-06
-4.39645e-07
1.20259e-07
-1.02444e-06
1.17337e-06
-1.4893e-07
-8.11728e-07
8.47235e-07
1.37049e-06
-9.73423e-07
-3.97067e-07
1.16482e-06
6.27518e-07
-1.13392e-06
1.06992e-06
6.40059e-08
7.9313e-07
-7.9313e-07
-8.29572e-08
-1.70714e-06
-1.36921e-06
-5.27427e-08
1.57793e-07
7.46267e-07
-5.42233e-07
-3.61827e-07
2.16845e-08
1.69417e-06
2.87852e-07
-1.33115e-06
-1.95915e-07
-2.81554e-08
3.58225e-07
-3.30069e-07
-1.83843e-06
-1.38081e-06
4.11832e-08
1.33962e-06
1.09448e-07
-1.2306e-06
2.29645e-07
-1.91448e-06
1.87546e-06
3.9022e-08
1.40564e-06
-1.3302e-06
1.07127e-06
1.83427e-07
-1.2547e-06
4.42089e-07
1.06025e-06
-4.74405e-07
-9.06401e-07
1.43354e-06
1.27738e-06
8.55961e-07
-5.6774e-08
-7.99187e-07
-2.12537e-06
2.13508e-06
-2.74872e-07
1.52424e-06
3.53377e-08
-1.32021e-06
-1.49331e-06
1.22968e-06
2.63634e-07
2.64555e-07
-2.30484e-06
-1.49847e-07
1.22112e-06
-8.33474e-07
8.05318e-07
-1.18494e-07
1.0594e-06
-1.12675e-08
-1.04813e-06
2.01244e-07
-2.32662e-06
-2.13985e-07
1.18488e-06
-1.9745e-06
2.00984e-06
-2.19169e-08
9.2415e-07
3.33968e-09
-1.43616e-06
-4.55454e-08
-1.59566e-06
1.6412e-06
6.76072e-08
-1.09205e-06
1.08551e-07
1.06482e-06
9.44893e-09
-8.21177e-07
4.85675e-08
7.98668e-07
1.25671e-06
-4.58239e-07
-6.75685e-07
3.77993e-07
1.06647e-06
8.55961e-07
2.57036e-07
-1.77693e-06
1.51989e-06
2.00615e-06
3.69548e-07
-3.29775e-07
2.1128e-07
6.90265e-07
-2.35974e-06
1.66947e-06
-2.1128e-07
1.89364e-07
7.9218e-07
-1.22584e-08
-7.79922e-07
4.54216e-07
7.05464e-07
-6.83682e-07
1.77945e-06
-8.52811e-08
8.21775e-08
-9.30675e-07
6.70665e-07
9.30675e-07
-7.42555e-07
-1.8812e-07
9.34667e-08
6.39756e-07
-6.24775e-07
-6.39756e-07
7.82204e-07
-1.42448e-07
6.24775e-07
-5.20905e-07
3.44746e-07
-2.28486e-07
-3.44746e-07
4.12353e-07
-7.82204e-07
7.881e-07
-8.12083e-08
9.06572e-08
5.20905e-07
-4.12353e-07
1.39225e-07
-9.06572e-08
-1.39225e-07
2.6682e-07
2.28486e-07
-2.6682e-07
3.83341e-08
-7.881e-07
7.42555e-07
1.51375e-06
1.29191e-07
1.65026e-06
1.18736e-06
4.23041e-08
3.57739e-07
1.37421e-07
-1.11084e-06
3.37502e-07
7.32415e-07
2.58855e-07
-1.45582e-06
1.19696e-06
-5.41129e-07
-1.37335e-06
2.00295e-07
9.8706e-07
7.21279e-07
-1.7791e-06
1.05782e-06
1.37414e-06
-1.43092e-06
-8.76947e-07
9.6783e-07
-9.08822e-08
-1.55673e-06
9.2664e-08
1.7697e-07
-1.49023e-06
-1.03073e-06
-1.9987e-07
-7.36991e-09
2.36366e-07
-2.28996e-07
-1.41309e-07
-1.33552e-06
-1.0918e-06
6.10741e-08
1.44232e-06
-1.26535e-06
-2.48252e-06
8.85779e-07
1.11366e-06
8.86875e-08
-1.20235e-06
1.79771e-06
-1.07643e-06
-3.77971e-08
-1.30656e-06
1.34436e-06
4.0645e-07
6.52951e-07
1.60026e-06
-4.15373e-07
-1.68728e-07
-1.28452e-07
-1.12687e-07
-1.42617e-07
-2.89966e-08
-1.83724e-07
3.56527e-07
1.51893e-06
-1.94028e-06
1.44099e-06
4.99287e-07
-9.70884e-08
1.32677e-06
-7.78085e-07
-1.16219e-06
1.19607e-06
-1.47095e-06
-2.19695e-06
1.61599e-06
5.80955e-07
-9.16855e-07
3.99076e-08
-1.0378e-06
-8.3553e-07
1.49327e-06
-7.55955e-07
-1.42272e-06
-1.48069e-06
-1.64621e-06
-2.79722e-07
1.92593e-06
-1.83452e-06
1.10302e-07
1.72421e-06
1.29271e-06
-1.83383e-06
2.26259e-06
-6.466e-07
1.78809e-06
-1.51509e-06
-2.72996e-07
1.76769e-06
4.94904e-07
-1.48051e-06
1.29679e-06
4.15447e-07
-2.0132e-06
-1.62887e-07
-1.67163e-06
2.66625e-06
-9.18423e-07
1.86121e-06
-1.60365e-06
-2.57564e-07
6.80756e-07
5.44793e-07
-1.96521e-07
1.96521e-07
-3.29775e-07
1.05977e-06
1.60647e-06
-1.79078e-06
1.6279e-06
1.62019e-06
1.3853e-06
1.38162e-06
-1.34921e-06
-1.74101e-06
1.85131e-06
2.57696e-07
1.89581e-07
-1.25008e-06
2.30986e-06
-1.10109e-06
2.13566e-06
-1.03456e-06
-1.80099e-06
1.65551e-06
-1.66159e-06
-1.10146e-06
2.55292e-06
-1.45146e-06
-5.26421e-07
1.81913e-06
1.69053e-06
-1.16263e-06
-5.27907e-07
-1.87471e-06
2.71067e-07
-1.54271e-06
-3.32e-07
-1.74568e-06
2.51753e-06
-7.71855e-07
1.57718e-06
-2.67864e-06
-4.99422e-07
2.26711e-06
2.41075e-06
-1.28403e-06
-1.12672e-06
3.00372e-07
-3.00372e-07
1.09259e-06
-1.09259e-06
-1.7184e-07
-1.62915e-06
-1.87454e-06
2.46752e-06
-5.92984e-07
1.54786e-06
4.2518e-07
-1.97304e-06
4.83193e-07
-1.96389e-06
-1.83367e-06
9.26576e-08
9.7031e-07
-9.7031e-07
-2.49184e-07
2.49184e-07
8.07242e-07
1.04056e-06
-2.29064e-06
1.32562e-06
3.6491e-07
6.42991e-07
1.9633e-06
-1.89859e-06
3.55877e-07
-1.47341e-06
6.02233e-07
9.98024e-07
-4.67364e-07
-1.98092e-06
2.44828e-06
1.57425e-06
-1.07496e-06
-1.25931e-06
1.84027e-06
-1.91916e-06
-2.00016e-06
-3.8919e-07
2.38935e-06
9.59293e-07
1.63131e-06
1.61625e-06
1.50931e-06
-1.27687e-07
2.5993e-07
-1.77502e-06
-1.4432e-06
1.9381e-06
1.02583e-06
-2.48034e-06
3.28531e-07
1.93858e-06
-1.1978e-06
-6.16391e-07
1.8142e-06
3.14934e-07
-2.51948e-06
1.74763e-06
6.12001e-07
-1.80981e-06
-1.75247e-06
-1.52273e-06
1.85126e-06
-2.18455e-06
1.79536e-06
1.96362e-07
2.06726e-06
-2.26362e-06
-1.53001e-06
2.08194e-06
3.07404e-07
2.62896e-06
-5.47019e-07
-1.76721e-06
1.86068e-06
-9.34706e-08
1.09745e-06
-1.34119e-07
1.78963e-06
-1.64409e-06
-1.03619e-06
1.64819e-06
-1.69199e-06
-1.72457e-07
1.86444e-06
-1.83844e-06
1.56544e-06
2.05829e-09
8.01192e-08
8.27769e-07
-8.67118e-08
7.67902e-07
-7.65843e-07
-1.80895e-06
1.16966e-07
2.1855e-06
-1.19507e-06
-9.90433e-07
-1.92337e-06
1.78206e-06
-3.35881e-08
1.86771e-06
-1.83412e-06
-2.19727e-06
2.16369e-06
1.6924e-06
1.58862e-07
1.88876e-06
1.02001e-06
1.16549e-06
1.74112e-06
-6.43666e-07
-1.80355e-06
7.67356e-07
-2.99448e-07
2.04408e-06
-1.74463e-06
-1.31981e-06
1.14736e-06
-1.96262e-06
1.14671e-06
8.15915e-07
2.02504e-06
-1.85807e-06
-1.66974e-07
1.01668e-07
4.48459e-07
-2.30653e-06
-1.64496e-07
1.94656e-06
2.02496e-06
-3.89463e-07
-1.63549e-06
5.87559e-08
-2.57286e-06
6.44591e-07
1.92827e-06
-2.26059e-06
1.07847e-06
1.18212e-06
4.69597e-07
1.55536e-06
2.12324e-06
3.25045e-07
-2.44074e-06
1.43744e-06
1.0033e-06
6.19223e-07
-6.19223e-07
7.46267e-07
-7.99187e-07
-4.25233e-07
-6.35006e-07
6.35006e-07
-4.71679e-07
4.71679e-07
7.05464e-07
1.93775e-06
-2.41237e-06
4.74627e-07
-6.49152e-07
6.49152e-07
-3.65302e-07
3.65302e-07
6.53907e-07
5.58849e-07
-5.58849e-07
-5.99191e-07
5.99191e-07
-5.42233e-07
6.30547e-07
-6.30547e-07
2.96218e-07
-6.83682e-07
1.06767e-06
6.73445e-07
6.32674e-07
1.10265e-06
-1.73532e-06
6.8236e-07
-6.8236e-07
2.03475e-06
-2.3342e-06
-2.51597e-06
1.84534e-06
4.84339e-07
-4.84339e-07
-2.20691e-06
1.01184e-06
2.15806e-06
-2.66443e-06
5.0637e-07
-3.78973e-07
-1.84341e-06
2.22239e-06
-1.52576e-06
-1.0471e-06
-1.99174e-06
1.61277e-06
-1.315e-06
-8.91901e-07
-1.24101e-06
-1.01958e-06
1.10048e-06
-2.14592e-06
1.04543e-06
-8.6214e-07
8.12083e-08
2.13448e-06
-1.66489e-06
3.06605e-07
-1.6704e-06
1.36379e-06
-1.0072e-06
2.17714e-06
-1.44604e-06
-7.31108e-07
-2.05015e-06
1.88565e-06
2.15855e-06
-2.02957e-06
1.75971e-06
2.6986e-07
-5.78227e-07
-1.30013e-07
2.07597e-06
-1.9743e-06
2.20446e-06
-1.75601e-06
-3.77623e-07
2.20533e-06
-1.63539e-06
-5.69939e-07
-6.88447e-07
-1.45747e-06
-1.55306e-06
-4.38676e-07
-2.0663e-06
1.67684e-06
-1.76142e-07
6.19525e-07
-2.14461e-06
1.52508e-06
1.82257e-06
-1.51596e-06
2.26237e-06
-1.61778e-06
1.17074e-06
7.8907e-07
-1.9598e-06
-5.65695e-07
1.91379e-06
-1.34809e-06
-3.54622e-08
2.47423e-06
-1.39576e-06
-1.10371e-06
-7.3381e-07
1.83752e-06
8.69065e-07
-1.89761e-06
1.02854e-06
2.5382e-06
-1.10076e-06
-1.31977e-06
-3.50627e-07
1.75794e-06
2.61852e-06
-7.73171e-07
-2.17489e-06
1.44378e-06
2.58271e-08
-1.43924e-07
2.26517e-06
-2.30063e-06
2.3016e-07
4.4932e-07
9.48462e-07
1.29343e-06
-1.85913e-06
-3.06585e-07
6.26987e-07
1.80694e-06
4.25888e-07
-1.9019e-06
1.47601e-06
-4.76785e-07
2.11206e-06
-1.63527e-06
2.12835e-06
-1.25928e-06
1.88179e-06
-2.46002e-06
8.10071e-07
-7.26871e-07
1.29719e-06
-2.19044e-06
1.29853e-06
-1.3497e-08
-4.67773e-07
1.61131e-06
1.44406e-06
-2.17787e-06
-1.49176e-06
2.28083e-06
-2.39429e-06
7.7651e-07
-2.50951e-06
1.11375e-06
2.33469e-06
-6.95234e-08
2.15855e-06
-1.69574e-06
-7.20734e-07
2.41647e-06
-2.13943e-06
1.14899e-06
-2.46891e-06
-1.39132e-06
-5.68483e-07
-2.53602e-06
1.43526e-06
1.33015e-06
4.25886e-07
-2.2693e-06
-1.21232e-06
-1.44583e-06
-7.46658e-07
1.62743e-06
1.58364e-06
6.36937e-07
-2.22057e-06
1.81437e-06
-1.38849e-06
1.68605e-06
-8.75981e-07
2.21062e-06
1.26496e-06
5.72559e-07
-3.82148e-07
1.76177e-06
-1.37962e-06
-1.8506e-06
2.08076e-06
5.87116e-07
-9.24709e-07
1.44677e-06
-1.97543e-06
1.83151e-06
-4.88976e-07
1.96499e-06
2.09416e-06
-5.91761e-07
2.11685e-06
-1.39792e-06
-5.43536e-07
1.94146e-06
2.03413e-06
-2.41176e-06
1.54673e-06
-2.01451e-06
-1.21823e-06
1.64936e-06
-4.31126e-07
1.24528e-06
-1.98968e-06
-8.40892e-07
1.37019e-06
1.57455e-06
-1.75215e-06
-2.53208e-07
-1.72165e-06
2.17097e-06
-1.93309e-06
1.95892e-06
-1.39926e-06
-4.42949e-07
-2.0544e-06
9.34968e-07
1.11943e-06
3.1138e-07
3.20372e-07
-1.07619e-06
1.89067e-06
-8.14476e-07
1.47663e-07
1.65127e-08
-1.75348e-06
1.73697e-06
-2.33027e-06
8.84443e-07
2.05223e-06
-9.03241e-07
-1.17087e-06
2.45681e-06
-1.02155e-06
3.14588e-07
-1.83055e-06
-1.21652e-06
-1.03438e-06
2.43064e-06
1.01785e-06
-2.0065e-06
1.69992e-06
-1.97943e-06
1.24449e-06
1.21871e-06
-2.0596e-06
-1.74996e-07
9.42981e-07
9.47688e-07
-9.57569e-07
1.98947e-06
-1.03191e-06
6.89411e-07
1.25205e-06
-1.77204e-06
-7.0716e-07
-7.60728e-07
4.85567e-07
1.95792e-06
-2.21113e-06
5.97079e-07
1.05228e-06
1.96083e-06
-1.09052e-06
-8.12487e-07
1.90301e-06
2.02298e-07
-1.52207e-06
-1.91605e-06
1.29965e-06
1.62825e-06
-1.80325e-06
-1.06205e-07
1.68075e-06
1.55128e-06
-2.37789e-06
8.26612e-07
-2.28926e-07
-1.52323e-06
2.69126e-06
1.07239e-06
8.88443e-07
-9.64401e-07
-7.70918e-07
2.00736e-06
8.59745e-07
1.12973e-06
-1.98472e-06
1.02032e-06
-1.86144e-06
-1.85969e-06
2.07568e-06
-5.24399e-07
-1.47474e-06
-1.71202e-06
-9.72998e-07
-1.94095e-06
1.62058e-06
3.44411e-07
-1.84913e-06
1.0884e-06
-7.20196e-07
-1.19585e-06
-6.62801e-08
-6.83647e-07
-1.48256e-06
1.19487e-06
-6.24833e-07
1.92449e-06
4.97567e-07
-2.02758e-06
-8.34435e-07
-1.15028e-06
-1.49254e-06
5.6822e-07
1.57626e-06
1.80743e-06
-1.25847e-06
5.46415e-08
7.17772e-07
1.35791e-06
-1.47547e-06
2.02148e-06
2.00175e-06
-1.39423e-06
-6.07529e-07
5.26284e-07
1.30129e-06
-4.42784e-07
1.83937e-06
-1.39658e-06
2.01906e-06
1.80867e-06
-1.92423e-07
-1.91619e-06
1.86775e-06
-8.15467e-07
1.67455e-06
1.1841e-06
1.28629e-06
-1.83735e-06
1.38991e-06
5.34578e-07
-1.41822e-06
-3.56803e-07
-5.77064e-07
-1.45051e-06
2.05804e-06
-7.00132e-07
-1.97632e-06
-1.74991e-06
3.31686e-07
1.01453e-06
1.12113e-06
2.43266e-06
-1.47337e-06
1.83651e-06
-4.24283e-07
-1.82087e-06
1.67513e-06
-1.34344e-06
-1.82591e-07
-1.72916e-06
1.9219e-06
-1.92743e-07
-1.90962e-06
-2.30356e-07
1.05282e-06
1.16684e-06
-2.48395e-06
-1.67671e-06
-1.44188e-07
-1.89492e-06
2.05509e-06
-1.70995e-06
1.34427e-06
1.07053e-06
-4.12736e-07
-1.53017e-06
-3.23688e-07
-1.5341e-06
8.54292e-07
9.75096e-07
-1.54028e-07
-1.3642e-06
-1.0736e-06
8.57152e-07
2.1645e-07
-1.60363e-06
-5.97743e-07
2.25146e-06
-1.22563e-06
6.82455e-07
5.61529e-07
-1.2856e-08
-6.50067e-07
-1.47528e-06
-7.77006e-07
7.14043e-07
5.29941e-07
1.33748e-06
-2.03761e-06
8.29457e-07
-6.38842e-07
-2.30766e-06
2.00091e-06
-5.80828e-07
-1.83398e-06
-1.85386e-06
-1.68813e-06
-8.77184e-07
-1.96418e-07
1.37473e-06
-1.17465e-06
-1.18509e-06
-1.71914e-06
2.31585e-06
1.53675e-06
-1.37705e-06
-1.68614e-06
-2.07302e-06
-6.83055e-07
-1.71649e-06
2.55905e-07
-2.71006e-07
5.01088e-07
8.46231e-08
-7.79822e-07
-1.12699e-06
-4.69376e-07
-3.45136e-07
-7.12077e-07
-9.74067e-07
-1.28987e-06
-1.72286e-06
-4.61688e-07
-9.312e-07
-2.2541e-07
1.39023e-06
1.68479e-06
-2.01229e-06
8.50098e-07
-1.22592e-06
-1.3462e-06
1.60724e-06
-2.61046e-07
-2.87812e-07
-1.44288e-06
-1.0739e-06
-9.9358e-08
-1.16566e-06
-9.76542e-07
-2.87812e-07
-1.18283e-06
1.77905e-06
2.21856e-07
1.37117e-07
-9.62011e-07
1.82109e-06
-3.01204e-07
1.45534e-06
-1.38906e-06
-1.33006e-07
1.72588e-06
4.15285e-07
-2.0565e-06
1.12498e-06
9.31525e-07
-8.67376e-07
-1.13825e-06
-1.08141e-06
-2.32554e-06
-7.9591e-07
-6.81502e-07
1.52321e-06
2.11659e-06
1.83021e-06
2.13864e-07
1.17047e-06
-7.78731e-08
1.74884e-07
-1.09057e-06
2.60451e-07
3.99209e-08
1.09057e-06
-2.60451e-07
1.21666e-06
1.17047e-06
1.07398e-06
-2.03287e-06
1.01329e-06
1.57743e-06
-1.21252e-06
1.93855e-06
-6.03926e-07
-4.52258e-08
6.49101e-07
3.32595e-08
-5.93823e-07
6.49179e-07
-6.85701e-07
-1.13486e-07
-6.03926e-07
6.685e-07
-3.34939e-08
-4.90698e-07
1.90183e-08
6.11354e-07
-3.36126e-07
-2.91762e-08
5.93823e-07
-3.49738e-08
-6.49179e-07
9.03295e-08
6.85701e-07
-5.51539e-08
-6.11354e-07
-1.91929e-08
3.36126e-07
-6.685e-07
6.49101e-07
-4.90698e-07
-1.09623e-07
-1.50772e-06
-1.56018e-06
-9.6542e-07
1.45099e-06
-1.05909e-06
1.47437e-06
7.12144e-07
4.48394e-07
2.33983e-07
1.63241e-06
-1.47979e-06
2.76989e-07
-1.19693e-06
4.48394e-07
6.73806e-07
-1.8393e-06
-1.0391e-06
8.96649e-07
1.53045e-06
5.10504e-07
-3.88242e-08
-5.10504e-07
-9.38653e-07
9.92011e-07
-5.33578e-08
-2.22175e-06
3.99083e-07
9.19839e-07
-1.51942e-06
2.01076e-06
1.64536e-06
-1.91522e-06
-1.46085e-06
1.02972e-06
4.78473e-08
-7.56743e-07
9.48625e-07
1.9377e-07
-1.02724e-06
1.88346e-06
-1.72092e-06
-1.20949e-06
1.20949e-06
-1.90036e-06
-1.12604e-06
-1.47426e-06
9.48625e-07
1.25655e-06
-1.87804e-06
1.45863e-06
-2.91533e-07
-1.01503e-06
7.54852e-07
-1.32741e-06
1.81865e-06
-1.24871e-06
4.54037e-07
-4.54037e-07
1.25465e-06
-1.15978e-06
-2.45152e-07
2.45152e-07
-7.4485e-08
7.4485e-08
-1.25501e-06
2.18293e-07
1.48979e-07
1.2187e-06
-1.08451e-07
-1.11025e-06
1.06661e-06
-1.06661e-06
3.58225e-07
4.75671e-07
8.68687e-07
2.36366e-07
-1.45122e-06
1.11119e-06
2.15572e-07
1.20152e-06
-8.84803e-07
-1.46241e-06
2.34613e-07
1.45701e-08
-7.72336e-07
-2.75797e-07
9.96814e-07
-3.69296e-07
2.06066e-07
7.90748e-07
-1.73135e-06
-1.02632e-07
-6.77474e-07
-7.10409e-07
-1.24303e-06
2.77607e-07
-4.69376e-07
2.95696e-07
1.04393e-06
2.01422e-07
-7.6439e-07
-4.02773e-07
4.02773e-07
3.12054e-08
1.11615e-06
-1.31042e-06
-3.30069e-07
3.36168e-07
-3.36168e-07
-1.59016e-06
1.26655e-06
-3.53081e-07
-1.50078e-06
-1.02957e-06
-7.28354e-07
1.82876e-06
-1.1004e-06
1.67984e-06
-4.78018e-08
-1.63204e-06
-2.28996e-07
1.93921e-07
1.38782e-06
-1.7409e-06
1.84205e-06
-2.26035e-07
2.26035e-07
-1.85177e-07
1.98278e-06
-7.86707e-07
1.79261e-06
-1.57874e-06
7.82958e-07
-9.05002e-07
2.3741e-07
1.49467e-06
1.03962e-06
-1.76798e-06
1.44452e-06
1.03725e-06
2.59542e-07
5.31982e-08
-8.49109e-07
1.60245e-06
-1.93462e-07
-1.64367e-06
5.16674e-07
-2.34613e-07
1.00608e-06
-1.26114e-07
1.40543e-06
1.81821e-07
8.24257e-07
2.21112e-07
1.18431e-06
9.61963e-07
1.83581e-06
5.38896e-07
1.81627e-06
-8.03233e-08
1.04999e-07
-1.59523e-06
1.37412e-06
8.36524e-07
-2.83156e-07
1.53611e-06
9.1784e-08
-2.60149e-07
1.12064e-06
-1.066e-06
1.14378e-06
-3.52326e-08
8.26578e-08
-2.0479e-07
1.06729e-06
6.67521e-07
-1.10695e-06
1.4765e-06
2.38471e-07
-1.15689e-06
8.10382e-08
1.1271e-06
-8.49494e-07
1.07195e-06
-7.54691e-07
7.67351e-07
1.68719e-06
-1.10707e-06
-1.66181e-06
1.81588e-07
-1.22809e-06
4.16913e-07
1.42879e-07
-1.69424e-06
7.85433e-07
-9.41374e-07
-5.39514e-07
-9.03803e-07
1.42048e-06
2.9614e-09
-2.24335e-09
)
;

boundaryField
{
    back
    {
        type            empty;
        value           nonuniform List<scalar> 0();
    }
    front
    {
        type            empty;
        value           nonuniform List<scalar> 0();
    }
    top
    {
        type            calculated;
        value           nonuniform List<scalar> 10(-2.21966e-06 -2.41479e-06 -1.82939e-06 -1.24398e-06 -1.24398e-06 -1.82939e-06 -2.21966e-06 -4.63445e-07 -4.63445e-07 -2.41479e-06);
    }
    outer_arc
    {
        type            calculated;
        value           uniform 0;
    }
    bottom
    {
        type            calculated;
        value           nonuniform List<scalar> 10(2.13998e-06 2.03911e-06 1.9429e-06 1.85779e-06 1.51822e-06 2.20137e-06 6.62923e-07 2.25228e-06 -2.23465e-07 1.95141e-06);
    }
    inner_arc
    {
        type            calculated;
        value           uniform 0;
    }
}


// ************************************************************************* //
