/*--------------------------------*- C++ -*----------------------------------*\
  =========                 |
  \\      /  F ield         | OpenFOAM: The Open Source CFD Toolbox
   \\    /   O peration     | Website:  https://openfoam.org
    \\  /    A nd           | Version:  9
     \\/     M anipulation  |
\*---------------------------------------------------------------------------*/
FoamFile
{
    format      ascii;
    class       volScalarField;
    location    "0.6";
    object      p;
}
// * * * * * * * * * * * * * * * * * * * * * * * * * * * * * * * * * * * * * //

dimensions      [0 2 -2 0 0 0 0];

internalField   nonuniform List<scalar> 
464
(
-0.339198
-0.292158
-6.41532
-6.10558
-0.38186
-6.3845
-0.510435
-6.0654
-0.357784
-0.378736
-0.3069
-0.544983
-0.505225
-0.3767
-1.59137
-1.73547
-3.29969
-3.46705
-5.82164
-4.55958
-4.68435
-5.49043
-5.33866
-6.1201
-6.21937
-6.05761
-1.01126
-5.70476
-1.15334
-5.78482
-5.86446
-2.1539
-2.05005
-2.54505
-2.70376
-3.60157
-3.77196
-5.75038
-5.62903
-2.01919
-4.49256
-5.07627
-5.2109
-0.89157
-0.736071
-1.84196
-5.36573
-5.06328
-5.53202
-5.76746
-4.42094
-5.4879
-4.4605
-4.58897
-4.5657
-5.40184
-5.45355
-3.79237
-3.77518
-4.2746
-5.60865
-0.711916
-3.43149
-4.20358
-0.55652
-4.74868
-3.15162
-5.45688
-0.49213
-4.4217
-3.63947
-0.59788
-1.32993
-5.1967
-1.85372
-5.57205
-3.28256
-0.168415
-3.94175
-1.43224
-0.501716
-6.15219
-0.560852
-6.0446
-0.594511
-3.53547
-0.821546
-6.05838
-5.92362
-1.83634
-0.696933
-0.567213
-2.78986
-0.160655
-2.66608
-3.29708
-4.05759
-6.13022
-1.43097
-0.68239
-5.95437
-4.93898
-5.89559
-2.26418
-2.39747
-0.403965
-6.14583
-3.03839
-0.826484
-4.84638
-2.40699
-5.21946
-2.90481
-1.41131
-5.79397
-5.78414
-0.833572
-5.88355
-1.28496
-5.89469
-4.98194
-0.828814
-0.83384
-0.666772
-3.52183
-2.26536
-0.967396
-2.41903
-2.9054
-0.681573
-5.95652
-0.636956
-5.67544
-5.72829
-5.54087
-0.983774
-5.80078
-5.76041
-0.679704
-5.14596
-5.50178
-2.53749
-3.62801
-5.74284
-5.71045
-1.71359
-5.61061
-5.9812
-4.31772
-4.99796
-5.52246
-5.73402
-1.40288
-2.12539
-1.13331
-5.27875
-3.14224
-5.36507
-0.974448
-0.959588
-1.51343
-5.23359
-1.99664
-4.85692
-4.72469
-5.60538
-1.65796
-4.74933
-2.15011
-2.14303
-2.28288
-0.956677
-1.72871
-5.4037
-2.00546
-2.54944
-5.07031
-4.94742
-1.26245
-2.72362
-4.94425
-3.02153
-2.57835
-2.71554
-2.14841
-2.44175
-3.02246
-2.90509
-1.871
-2.55307
-4.66862
-2.79287
-4.91626
-4.80243
-3.9003
-3.8869
-4.59983
-4.69049
-2.28323
-4.40238
-4.53088
-4.01357
-4.52367
-4.14459
-2.67515
-4.7871
-4.39311
-4.13708
-4.00974
-1.58437
-5.39194
-3.13661
-5.36727
-3.82098
-4.61593
-2.42055
-2.01766
-4.65463
-1.21474
-3.881
-2.82115
-4.2653
-4.26916
-4.47042
-4.78074
-4.67087
-4.50543
-4.19776
-4.39083
-4.23176
-4.14286
-4.13265
-3.95205
-3.67741
-4.22043
-3.97746
-3.54332
-3.64691
-3.86752
-3.51395
-3.70941
-3.38697
-3.83241
-3.60359
-3.4594
-3.43027
-3.3539
-4.5604
-3.25713
-4.52829
-3.11958
-3.27786
-2.92419
-1.97883
-3.21478
-3.10056
-5.32231
-4.4506
-2.94055
-2.48302
-2.78673
-2.38129
-2.63795
-1.86261
-2.49547
-1.71516
-2.36073
-5.72253
-1.74572
-1.95873
-5.30321
-2.21123
-1.8066
-1.87559
-0.832661
-2.07966
-1.95147
-3.75539
-3.62715
-1.55404
-1.81277
-5.62756
-3.75398
-5.28799
-1.56695
-1.6618
-3.50279
-1.08807
-5.56523
-1.50777
-1.36198
-1.23029
-5.41801
-4.87467
-3.04381
-3.50267
-3.25753
-2.67737
-2.91131
-1.08835
-1.58069
-1.38008
-0.950597
-0.259927
-3.98047
-2.78702
-2.51804
-4.09535
-1.11403
-2.27768
-4.29986
-5.55512
-3.18752
-1.10544
-2.25223
-1.96873
-3.37793
-1.23118
-6.07951
-1.10607
-5.73496
-3.14659
-1.24904
-2.79063
-1.24065
-5.04455
-5.27154
-0.976393
-5.61838
-1.37024
-4.78674
-0.0342691
-6.3882
-2.64862
-4.15903
-5.04137
-5.61143
-6.32373
-2.13672
-4.95739
-6.20761
0.0314672
-1.67699
-1.52985
-2.10787
-5.87791
-5.15923
-3.39066
-6.33516
-4.03851
-5.16595
-6.24891
-3.25839
-3.38408
-5.12511
-0.119848
-6.35807
-0.211929
-6.36103
-0.409785
-6.38131
-0.196988
-6.24332
-0.395478
-0.209224
-5.92125
-5.94749
-3.03045
-0.512384
-5.85531
-6.14754
-0.792125
-1.42535
-3.07247
-1.14876
-6.05686
-0.823474
-5.17622
-1.32488
-5.65399
-1.86015
-2.3127
-2.62586
-2.36832
-3.00365
-2.09588
-2.62848
-6.10537
-2.96409
-3.73821
-4.0671
-3.69534
-3.9643
-4.30138
-4.36408
-5.10939
-4.84542
-5.66559
-4.87277
-1.10069
-0.171039
-6.39753
-0.0200743
-6.1264
-0.0281378
0.0506092
-0.0667877
-6.03084
-0.0183894
-6.03098
-0.354941
-5.90072
-6.25087
-5.90059
-6.18918
-0.466239
-0.336064
-5.8388
-6.23411
-0.167541
-6.01505
-6.38626
-0.675112
-0.980903
-0.0585709
-1.25462
-1.448
-1.54951
-1.70682
-0.321197
-6.25402
-2.23221
-2.46746
-6.00492
-2.81568
-3.15592
-3.3221
-5.81022
-3.54399
-5.75502
-3.86502
-4.1403
-4.46044
-4.63118
-5.52273
-4.68138
-5.44006
-5.03152
-5.26025
-4.48886
-2.07816
-0.00198225
-2.06021
-6.00524
-4.44847
-2.89735
-3.15254
-5.93903
-6.00045
-5.91242
-6.09106
-0.146041
-0.0960796
-5.94033
)
;

boundaryField
{
    back
    {
        type            empty;
    }
    front
    {
        type            empty;
    }
    left
    {
        type            zeroGradient;
    }
    top
    {
        type            zeroGradient;
    }
    right
    {
        type            zeroGradient;
    }
    bottom
    {
        type            uniformFixedValue;
        uniformValue    
        {
            type            scale;
            scale           
            {
                type            squarePulse;
                start           0.3;
                duration        0.3;
            }
            xScale          
            {
                type            constant;
                value           1;
            }
            value           
            {
                type            constant;
                value           15.1;
            }
        }
        value           uniform 0;
    }
}


// ************************************************************************* //
