/*--------------------------------*- C++ -*----------------------------------*\
  =========                 |
  \\      /  F ield         | OpenFOAM: The Open Source CFD Toolbox
   \\    /   O peration     | Website:  https://openfoam.org
    \\  /    A nd           | Version:  9
     \\/     M anipulation  |
\*---------------------------------------------------------------------------*/
FoamFile
{
    format      ascii;
    class       surfaceScalarField;
    location    "0.6";
    object      phi;
}
// * * * * * * * * * * * * * * * * * * * * * * * * * * * * * * * * * * * * * //

dimensions      [0 3 -1 0 0 0 0];

internalField   nonuniform List<scalar> 
663
(
-1.26024e-08
-4.58652e-10
1.30611e-08
1.18069e-08
-2.56505e-09
6.37134e-10
-6.37133e-10
-9.23398e-10
7.28508e-10
1.94892e-10
1.07693e-10
1.16993e-08
-1.26886e-09
1.906e-09
-1.99256e-10
-1.24032e-08
-9.08929e-11
-8.32468e-10
-1.43548e-09
-1.46283e-08
1.60638e-08
-1.33433e-08
1.19078e-08
-7.41742e-09
6.95872e-09
-4.14368e-09
2.43741e-09
1.70627e-09
-1.48275e-08
-1.00935e-08
5.94999e-09
6.81532e-09
-6.36311e-09
-4.52211e-10
6.42955e-09
3.85801e-10
4.87457e-09
-4.41588e-09
-4.58681e-10
7.4015e-09
-2.52695e-09
-2.76236e-09
2.76236e-09
-8.29199e-09
9.25264e-09
-9.60648e-10
-8.94533e-10
-7.39748e-09
7.58949e-09
-2.5124e-09
-5.07709e-09
7.04092e-09
5.48536e-10
9.64474e-10
-2.9614e-11
-9.34861e-10
-1.2859e-10
8.57116e-10
-1.21464e-09
2.17916e-09
4.54774e-09
-8.28886e-09
3.74112e-09
6.16186e-10
-3.50047e-09
2.88428e-09
2.37861e-09
2.16927e-09
-1.43029e-09
5.19097e-09
-3.76067e-09
2.29515e-09
-3.7255e-09
6.20262e-09
-9.94325e-09
3.74063e-09
-1.63712e-09
7.83973e-09
-4.59445e-09
7.06166e-09
-2.4672e-09
-9.66332e-09
5.06883e-09
4.03903e-09
3.36263e-09
1.20085e-09
2.83824e-09
3.06379e-09
-5.82612e-09
-2.95566e-09
3.57187e-09
-9.32062e-09
4.8358e-09
4.48482e-09
5.79557e-09
3.45709e-09
-3.18546e-09
6.4855e-09
-3.30004e-09
3.85547e-09
-3.47064e-09
-4.8184e-09
-1.03321e-09
-2.8911e-09
-5.13237e-09
3.02788e-09
2.10449e-09
4.19118e-10
1.71259e-09
-2.1317e-09
8.78176e-09
-8.78175e-09
-4.36699e-10
-1.98553e-09
7.7811e-09
2.96603e-09
-2.4858e-09
-4.80232e-10
-7.54515e-09
4.91775e-09
2.62739e-09
-1.73231e-09
-5.76687e-09
7.49918e-09
5.26831e-09
-7.0006e-09
2.99516e-09
-2.91485e-11
-2.13722e-09
-9.14223e-10
-8.50607e-09
9.42029e-09
6.40033e-09
-7.31462e-09
-5.02938e-09
-2.51588e-09
5.82607e-09
7.6294e-09
-6.88344e-09
-7.45963e-10
-1.00532e-08
9.67359e-09
3.7962e-10
7.64819e-09
-8.06455e-09
4.16369e-10
-9.80819e-10
-1.23623e-08
8.50779e-10
-6.61764e-09
-6.48992e-09
7.37523e-09
-8.85305e-10
-1.12676e-08
-5.71113e-09
-1.85069e-09
7.11898e-09
7.3533e-09
-9.5299e-10
6.64857e-09
2.61699e-09
-2.38408e-10
3.09435e-09
-2.6753e-09
4.5157e-10
-5.62577e-09
5.1742e-09
3.09163e-09
9.14275e-10
-7.40422e-09
-5.18337e-10
1.35794e-08
-8.75679e-09
2.50669e-10
-3.74607e-09
7.46584e-09
1.00334e-10
-7.56617e-09
7.53326e-10
2.16911e-09
-2.92244e-09
-3.33673e-10
-2.37732e-08
2.41069e-08
2.60342e-09
2.28542e-09
-4.88884e-09
7.13208e-09
-9.0576e-10
-9.14743e-09
5.08969e-10
-7.39247e-09
3.35665e-09
9.26377e-10
-2.2331e-10
-7.03068e-10
-7.07928e-09
7.53094e-09
6.38604e-09
6.74887e-09
6.6631e-09
-7.33862e-09
6.7552e-10
6.90261e-09
-6.21858e-10
-6.28075e-09
7.32525e-09
-6.62059e-10
1.05879e-08
-1.1086e-09
2.00677e-09
1.62306e-10
1.25053e-10
-2.4043e-08
2.3918e-08
-1.40613e-08
-7.66233e-10
1.09168e-09
-1.65315e-10
2.39639e-09
-6.83827e-10
8.40908e-10
2.50807e-10
-7.07675e-09
-2.8665e-09
-1.50659e-11
-2.37731e-08
2.28537e-09
6.50362e-09
8.71582e-10
1.41574e-10
6.24446e-09
-6.61014e-09
4.78472e-09
1.82542e-09
7.34657e-09
-5.52196e-10
-6.79437e-09
6.12224e-09
-8.34925e-10
5.81308e-09
-5.68788e-09
1.63628e-09
-1.8596e-09
1.49273e-09
-6.51832e-10
-2.41071e-08
2.42487e-08
3.0745e-09
4.88892e-09
-7.96343e-09
-2.4043e-08
-6.49453e-10
3.72401e-09
-4.21377e-09
-1.40261e-08
-3.49553e-11
-1.26196e-08
1.31286e-08
-1.16793e-08
-7.23995e-10
6.44749e-09
6.90956e-09
4.37046e-10
2.84402e-10
-1.29039e-08
4.71184e-09
-5.26403e-09
-6.95809e-09
-2.70523e-09
-1.92574e-08
1.92574e-08
2.11822e-09
-6.25503e-10
-2.44756e-09
3.8314e-09
-1.38384e-09
2.42486e-08
-7.96355e-09
2.90278e-09
-1.8457e-11
-1.47133e-08
1.47133e-08
1.07062e-08
-1.31538e-08
5.3091e-10
2.44904e-09
-3.402e-09
9.84437e-10
-1.07061e-08
2.74259e-09
-2.3982e-10
-5.38586e-09
2.88808e-09
-7.69854e-10
2.70715e-09
-6.64034e-09
-1.42424e-09
-1.60404e-08
1.32714e-09
3.40717e-09
-5.19076e-10
3.8734e-09
-4.4989e-09
1.14142e-08
-1.09877e-08
-4.26479e-10
7.33531e-09
-4.25775e-10
2.05562e-10
1.31536e-08
1.55982e-09
1.60924e-09
-6.02522e-09
4.13286e-09
-7.2574e-10
-1.37419e-08
4.29935e-10
5.81453e-09
-1.3579e-08
-1.45513e-10
1.37245e-08
4.7643e-09
-6.3146e-10
-2.21815e-10
5.39601e-09
-1.60403e-08
1.32782e-09
-1.73682e-08
-2.24073e-10
-1.33548e-08
1.40585e-09
-7.79654e-11
-1.32597e-10
2.9802e-09
-2.8476e-09
2.34565e-08
-2.34565e-08
2.31626e-08
2.93913e-10
-6.96281e-09
2.3678e-08
-2.39181e-08
1.31899e-09
-2.3678e-08
-4.09841e-10
5.12178e-09
5.47132e-09
-7.07056e-10
-3.78567e-10
5.84985e-09
1.18124e-08
-3.98254e-10
2.21908e-10
9.87874e-12
-2.31785e-10
-8.56272e-09
8.18417e-09
-4.69259e-10
-3.98711e-09
4.45637e-09
2.0031e-08
-2.0031e-08
2.02528e-08
1.95232e-08
-1.96559e-08
-1.95231e-08
-5.07709e-10
-2.23908e-08
2.19215e-08
-2.23909e-08
2.27531e-08
-2.31629e-08
-8.54974e-10
2.21593e-09
-1.36096e-09
-2.27531e-08
3.6214e-10
-1.61038e-08
1.61038e-08
-1.53886e-09
-1.20793e-09
-6.10669e-09
1.72702e-09
-2.93496e-09
5.11435e-10
9.38381e-11
-1.94453e-09
-1.26716e-09
2.4923e-09
-7.65272e-10
-1.89099e-08
1.76427e-08
9.71703e-10
1.52057e-09
-1.76427e-08
-1.89099e-08
-1.98829e-08
1.98829e-08
-2.06482e-08
2.19216e-08
-1.12676e-08
-1.50635e-08
1.50635e-08
-1.73681e-08
-1.96559e-08
-1.81802e-08
1.81802e-08
-2.06482e-08
2.02528e-08
9.72862e-10
8.58858e-10
6.70067e-09
6.68254e-09
1.81301e-11
7.54144e-09
6.28623e-10
9.86882e-09
-1.04974e-08
7.65908e-09
-1.17642e-10
8.07546e-09
8.70407e-09
8.81794e-09
1.05087e-09
6.23135e-10
8.19474e-09
2.72862e-10
6.31601e-09
-5.26512e-09
8.95472e-09
-9.15596e-09
-8.83386e-10
1.00393e-08
-9.57735e-09
4.21348e-10
9.57784e-09
6.82607e-09
-7.70945e-09
9.8507e-09
1.66952e-10
9.87236e-09
-1.38261e-09
1.0272e-08
1.06517e-08
6.36734e-09
1.08186e-08
1.15324e-09
-6.41806e-10
1.06593e-08
-7.86875e-10
-1.62149e-08
-9.01887e-10
1.15612e-08
5.58049e-09
5.37373e-10
-1.08795e-08
1.03421e-08
2.56053e-10
1.13987e-08
-5.80124e-10
1.04969e-08
-4.31661e-09
3.59084e-09
-1.62149e-08
1.10343e-08
2.24215e-10
1.31755e-08
-1.33998e-08
1.1559e-08
-5.24678e-10
1.45307e-10
-1.14615e-08
1.13162e-08
1.16459e-08
-8.68963e-11
1.13383e-08
-1.27996e-08
1.46129e-09
1.187e-08
1.11143e-08
1.20153e-08
1.04321e-09
-6.40993e-09
5.95775e-09
6.95982e-10
-1.34956e-08
2.87883e-09
1.25694e-08
-5.54012e-10
-1.32286e-08
-1.2628e-10
-4.94872e-09
-1.17143e-08
1.25327e-08
3.66903e-11
-4.85897e-10
2.1134e-08
-2.1134e-08
4.27038e-10
1.19197e-08
-1.2046e-08
-1.99763e-09
2.98207e-09
-2.70445e-09
-1.26453e-10
6.08421e-09
1.22907e-08
-3.71074e-10
3.281e-10
-2.1462e-08
-1.24134e-08
-4.90482e-10
-4.13485e-09
1.21451e-08
1.26108e-08
-4.65664e-10
1.97311e-10
-2.21214e-09
-4.79223e-09
-1.00078e-08
-3.07389e-09
2.1462e-08
4.59588e-10
4.45977e-09
-4.82209e-09
-7.45323e-09
1.32977e-08
1.48717e-10
7.46814e-09
-7.61686e-09
-3.19088e-09
1.26312e-09
-6.21618e-11
1.10177e-08
-1.09307e-08
-3.76636e-09
6.0201e-09
-4.9702e-09
5.69476e-09
-2.46827e-10
-1.34951e-08
1.17532e-08
-1.17899e-08
-3.32062e-10
-7.12116e-09
4.11523e-10
-5.02398e-10
1.15655e-08
6.51303e-09
-1.32209e-09
3.57104e-09
1.3972e-08
-1.3972e-08
-7.58686e-09
-7.31366e-09
-8.3776e-11
-8.10692e-09
-8.47888e-09
-5.52475e-10
5.52475e-10
7.21531e-09
-5.49931e-09
1.43591e-09
6.81004e-10
-6.81004e-10
-8.28105e-10
2.69507e-10
-2.69506e-10
-4.72692e-09
-6.46364e-09
7.15982e-09
1.5355e-09
-1.55397e-09
-9.56732e-10
-1.90847e-09
4.03062e-09
1.96401e-08
-1.26889e-09
1.96401e-08
-1.26888e-09
3.86099e-09
-6.42603e-09
-1.8414e-10
-4.53053e-10
1.55456e-08
-1.01649e-09
4.13304e-09
6.3369e-09
1.43772e-09
1.32468e-09
-4.60686e-10
-6.49741e-09
-1.33075e-08
-3.6746e-11
1.52132e-10
-4.21638e-10
1.44389e-08
5.84582e-09
6.92388e-10
9.16958e-10
-1.44389e-08
6.43501e-09
-4.21231e-10
1.44343e-08
-2.70597e-09
-1.48201e-08
2.96504e-09
-2.45727e-09
1.03089e-08
8.85586e-09
-9.7549e-09
-8.33108e-09
7.92147e-10
1.42277e-08
-1.17009e-08
6.2538e-09
-4.87119e-09
1.12972e-08
-1.12972e-08
-7.04037e-09
-4.70724e-09
8.10047e-09
5.30931e-09
-9.06032e-10
-5.44763e-09
-3.75198e-09
-1.84103e-10
1.60993e-09
1.52191e-10
7.43859e-09
7.11586e-09
-1.64984e-08
1.64984e-08
1.43778e-09
7.52893e-11
1.43778e-09
-3.22991e-10
1.22307e-08
-1.94863e-09
3.94677e-10
7.76658e-11
2.9077e-10
-3.68434e-10
2.20381e-09
-1.95295e-09
-1.33075e-08
-2.38531e-09
-1.07684e-10
6.20546e-09
1.44343e-08
1.48201e-08
3.4993e-09
1.42277e-08
1.17009e-08
-7.15802e-09
-8.11863e-09
4.79018e-09
5.33873e-09
2.26199e-10
2.91473e-09
-1.59002e-09
-5.29358e-10
)
;

boundaryField
{
    back
    {
        type            empty;
        value           nonuniform List<scalar> 0();
    }
    front
    {
        type            empty;
        value           nonuniform List<scalar> 0();
    }
    left
    {
        type            calculated;
        value           uniform 0;
    }
    top
    {
        type            calculated;
        value           uniform 0;
    }
    right
    {
        type            calculated;
        value           uniform 0;
    }
    bottom
    {
        type            calculated;
        value           nonuniform List<scalar> 8(-9.24181e-09 1.65858e-08 1.11905e-08 -1.95325e-08 7.61291e-09 -1.65736e-08 -4.59556e-09 1.45544e-08);
    }
}


// ************************************************************************* //
