/*--------------------------------*- C++ -*----------------------------------*\
  =========                 |
  \\      /  F ield         | OpenFOAM: The Open Source CFD Toolbox
   \\    /   O peration     | Website:  https://openfoam.org
    \\  /    A nd           | Version:  9
     \\/     M anipulation  |
\*---------------------------------------------------------------------------*/
FoamFile
{
    format      ascii;
    class       volVectorField;
    location    "0.6";
    object      U;
}
// * * * * * * * * * * * * * * * * * * * * * * * * * * * * * * * * * * * * * //

dimensions      [0 1 -1 0 0 0 0];

internalField   nonuniform List<vector> 
464
(
(0.00572551 -0.34997 3.48681e-18)
(0.161042 0.152399 0)
(-0.00990724 0.0944796 0)
(-0.0443828 0.0197325 1.41641e-16)
(-0.00106775 0.447894 0)
(0.0321464 -0.103364 -3.29865e-17)
(0.0100961 -0.373439 -7.68656e-18)
(0.0111832 0.0108564 0)
(0.0187842 -0.421776 2.70058e-18)
(-0.0231281 -0.42139 -7.97866e-18)
(-0.0271612 -0.240588 -3.73272e-19)
(0.00342644 0.0778533 4.49287e-19)
(-0.00800524 -0.423249 -1.74333e-17)
(0.0361273 0.288567 0)
(-0.0217191 0.170495 -2.757e-17)
(0.00169318 0.283929 4.33287e-17)
(-0.0298475 0.132459 0)
(0.0900137 0.297568 -3.31074e-17)
(-0.073576 0.161301 -1.21209e-16)
(0.0358553 -0.238186 8.47725e-17)
(0.0505959 -0.181044 -1.38281e-16)
(0.0623919 -0.141811 2.76513e-17)
(0.0661127 -0.175441 -1.32434e-17)
(-0.00316903 -0.012402 0)
(0.0396619 0.0470066 -1.27167e-16)
(0.0340474 -0.0552666 6.51808e-17)
(0.0399386 0.279999 1.31857e-17)
(-0.0754008 -0.0924653 -1.07415e-16)
(0.00523006 0.0792174 0)
(0.0777006 -0.12878 0)
(0.0244873 -0.105632 7.60197e-18)
(-0.0227885 -0.284078 3.33415e-19)
(0.0443404 -0.251856 -5.54632e-18)
(0.0901039 -0.186575 -5.09668e-17)
(0.0470135 -0.262545 5.01023e-17)
(0.0651323 0.231093 1.03426e-16)
(0.0362521 0.0451037 -8.4061e-17)
(-0.0485826 0.0486348 -1.63538e-17)
(-0.0693223 -0.0361101 2.13622e-18)
(-0.0524839 0.251009 0)
(-0.0301007 -0.26734 1.32008e-16)
(0.0938108 -0.187542 0)
(0.0345186 -0.21194 -3.7167e-17)
(0.0407214 0.287596 2.07877e-17)
(-0.0586196 0.104295 -1.87834e-17)
(-0.0208769 0.115266 -3.1037e-18)
(-0.0650359 -0.12371 9.78399e-17)
(-0.0569952 0.0316894 -2.61367e-18)
(-0.0359233 0.292344 0)
(-0.0910686 -0.0510679 1.3315e-17)
(0.047115 -0.256243 -9.5886e-17)
(-0.0660178 -0.0111657 -6.62567e-18)
(-0.0270798 0.179873 -7.42928e-17)
(-0.0312175 -0.18778 -7.9726e-17)
(-0.0478768 -0.193263 -2.6563e-18)
(-0.0894906 -0.0919055 1.03521e-16)
(-0.0626637 -0.100868 0)
(-0.00596979 -0.250749 0)
(-0.0284642 -0.221372 -6.93973e-17)
(-0.0258954 0.0988669 0)
(-0.0517465 0.135524 1.44927e-16)
(-0.0237063 -0.163958 2.7496e-17)
(-0.0184288 -0.290815 1.22237e-16)
(-0.0214348 -0.226002 -7.77312e-17)
(-0.0174714 -0.339883 -2.51806e-18)
(-0.0277565 -0.182072 -8.94578e-17)
(-0.0169702 -0.173815 -5.80726e-17)
(-0.0604785 0.226829 -1.4027e-16)
(0.00547507 -0.147781 5.65196e-18)
(-0.040936 -0.164122 8.14639e-17)
(-0.0211945 -0.174173 6.9184e-17)
(0.00476358 -0.273933 -1.2756e-17)
(0.0121878 0.076125 0)
(-0.0784498 -0.0917479 1.05397e-16)
(-0.00919544 0.080797 -4.42259e-17)
(-0.0832413 -0.102842 1.07871e-16)
(-0.0255747 -0.227949 -6.2567e-17)
(0.00516604 -0.362026 4.17256e-18)
(-0.0219494 -0.254473 -7.20259e-17)
(0.0281533 0.277105 -1.86446e-17)
(-0.0146739 0.200181 0)
(0.0162048 -0.0517282 3.25047e-17)
(-0.000572873 0.738489 -2.35021e-17)
(0.0392717 0.0408879 1.53357e-16)
(-0.0416741 0.277113 0)
(-0.00921313 -0.268648 2.19222e-18)
(-0.0132165 -0.246325 -1.45764e-17)
(0.0704032 -0.0237784 0)
(-0.00226784 -0.00329441 0)
(-0.00893778 -0.172294 -3.59946e-17)
(0.00712595 0.115926 1.78017e-17)
(-0.0847532 -0.124233 0)
(-0.0185738 -0.235617 5.19421e-17)
(-0.0393026 0.103042 5.10716e-18)
(-0.0150782 -0.172052 -5.1398e-17)
(-0.0102139 -0.284269 -5.98187e-17)
(-0.00811024 -0.234031 7.20765e-17)
(0.0668746 -0.0172359 -3.03703e-17)
(0.0138755 0.688811 -4.9603e-17)
(-0.000906414 -0.41114 1.00162e-17)
(-0.0593995 -0.00199902 0)
(-0.0684989 -0.0808587 3.62471e-18)
(0.0276785 -0.00279893 0)
(-0.0449102 -0.272485 -3.30993e-19)
(0.0439869 -0.176752 0)
(0.10562 0.681768 -1.13237e-17)
(0.0626114 0.141216 0)
(-0.0191418 -0.229963 5.72276e-17)
(-0.0220294 0.247716 -1.78092e-17)
(-0.0508533 -0.179393 0)
(-0.0115738 -0.175076 0)
(-0.0511511 -0.126637 -1.00353e-16)
(-0.0180022 -0.166447 0)
(-0.0171307 0.246457 3.42964e-17)
(-0.048388 -0.013031 3.71745e-18)
(-0.0107577 -0.0281462 -1.9015e-18)
(0.00735876 0.710725 3.3764e-17)
(0.0389899 0.154801 1.68258e-16)
(-0.0136054 0.703235 4.34065e-17)
(0.096803 -0.0190244 -7.25868e-18)
(-0.0545945 -0.154168 8.80026e-17)
(-0.00451695 -0.40749 4.48847e-19)
(-0.00181052 -0.345439 1.55624e-17)
(0.0065881 -0.333588 1.34225e-17)
(-0.0251714 -0.222967 0)
(-0.00915227 -0.237389 4.13767e-17)
(-0.000341758 -0.390311 -1.58561e-17)
(-0.00785017 0.0669003 0)
(-0.0471618 -0.294005 0)
(0.0098055 0.686132 1.99183e-17)
(0.0543437 0.201816 -1.44691e-16)
(0.0559016 0.619491 2.27052e-17)
(-0.0258369 0.211515 -1.32602e-16)
(0.017811 -0.0459958 0)
(0.0679657 0.0116685 0)
(-0.00880595 0.698564 -2.90722e-17)
(0.0410804 0.298271 -3.09338e-16)
(-0.0659498 -0.0438713 -1.15556e-16)
(-0.00883743 -0.394891 1.05729e-17)
(0.0341529 0.478503 1.52532e-16)
(0.0586042 0.326113 0)
(-0.0128164 -0.233035 0)
(-0.0206935 0.0159428 2.79275e-18)
(-0.0153122 -0.0383111 1.18697e-16)
(0.0687447 0.269235 1.7078e-16)
(-0.00595382 0.237102 -3.78571e-17)
(-0.00294511 -0.0671939 0)
(0.077699 -0.0866105 0)
(-0.0216619 -0.213896 -2.39786e-18)
(0.0431359 0.469872 -3.39505e-16)
(0.0157724 -0.093822 3.44017e-18)
(-0.00999633 -0.108257 1.09408e-16)
(0.00280528 -0.345017 -2.91377e-17)
(-0.0100935 -0.174316 -4.14531e-17)
(0.00431242 0.696415 -4.05421e-20)
(0.0451639 0.386258 -1.82336e-16)
(0.0557598 0.20411 0)
(-0.00845697 -0.10293 0)
(-0.00766663 -0.403806 -1.8027e-17)
(-0.0114605 0.0965799 2.43838e-17)
(0.00135882 -0.392007 0)
(0.00486925 -0.131339 -1.06885e-16)
(-0.00682784 0.235725 9.1714e-17)
(0.0282421 0.521669 4.18643e-18)
(0.0125566 0.486452 1.64754e-16)
(0.0198256 0.382298 0)
(-0.0116374 -0.392586 -2.99802e-17)
(0.0543624 0.0894598 1.09739e-16)
(0.0551178 0.157235 4.90122e-17)
(-0.00615755 0.686421 1.35924e-16)
(-0.00118587 0.662575 5.05363e-18)
(-0.00395837 -0.177117 -1.96074e-17)
(-0.000600924 0.678197 5.24395e-18)
(0.0711481 -0.0914843 -2.82987e-17)
(0.00158417 0.676645 -4.97439e-18)
(-0.0059844 0.217089 -5.96944e-17)
(-0.0118978 -0.150033 1.02632e-16)
(0.0178368 -0.155682 -3.79855e-19)
(0.00637827 -0.332886 -2.1582e-17)
(0.136208 0.142381 7.35724e-18)
(-0.0259907 -0.213571 9.15273e-17)
(-0.012466 0.197721 6.70005e-17)
(-0.0569616 0.620344 0)
(-0.00474509 0.630924 -1.09175e-16)
(-0.0124727 0.63537 3.81373e-18)
(0.024268 0.606312 -2.82373e-18)
(-0.000185134 0.632342 0)
(-0.00176716 0.661984 -8.94204e-17)
(-0.00466534 0.693311 -1.18685e-16)
(-0.00867266 0.654776 1.80804e-19)
(-0.0472196 -0.0518311 -9.60964e-20)
(-0.00250454 0.64488 1.02999e-16)
(-0.027705 0.490285 -2.82372e-16)
(-0.0495345 0.0500793 -1.04165e-16)
(-0.0243226 -0.173308 7.11413e-20)
(-0.0264624 -0.00143627 -8.32249e-20)
(0.0230211 -0.0605866 -9.99685e-17)
(-0.0506996 -0.155763 8.45747e-20)
(-0.00347782 0.61851 -7.24632e-17)
(-0.04187 -0.034289 9.24413e-17)
(-0.0431822 0.084319 0)
(-0.0254573 0.128852 0)
(-0.015214 0.504793 0)
(-0.0345887 -0.01599 8.77976e-20)
(0.00283378 0.671814 0)
(-0.0297677 0.456234 6.71414e-18)
(-0.0200994 0.569757 0)
(-0.0141312 0.595589 -1.27634e-16)
(-0.0100172 0.565769 1.3734e-16)
(-0.00926296 0.692054 5.27389e-17)
(0.0208302 0.424789 1.5e-16)
(-0.00292629 0.652257 0)
(-0.0309103 0.359617 1.44511e-16)
(0.00740214 0.548027 -1.22362e-16)
(0.0255844 0.532907 0)
(0.00163426 0.677598 -7.42942e-17)
(-0.0198827 0.647295 6.85401e-17)
(-0.0230462 0.533405 1.39428e-16)
(0.0254455 0.595105 2.89837e-18)
(-0.0104707 0.61487 -1.20975e-16)
(0.0276246 0.62132 8.57134e-17)
(-0.0107031 0.538967 1.44321e-16)
(-0.0328664 0.107686 -9.38178e-17)
(-0.0303358 -0.205756 1.62096e-16)
(-0.0082735 -0.182454 9.26712e-17)
(0.010591 -0.194879 -8.70915e-17)
(-0.0118013 -0.203785 0)
(-0.0253208 -0.277621 3.71062e-17)
(-0.0165674 -0.215761 -2.55518e-18)
(0.00294495 -0.236782 -7.95029e-17)
(0.000842645 -0.231403 7.63078e-17)
(0.0146687 -0.217021 -9.36465e-18)
(0.0502525 -0.254704 0)
(-0.0173151 -0.273955 -6.33252e-17)
(-0.0828599 -0.163454 9.25918e-17)
(0.018563 -0.254929 0)
(0.0424741 -0.267157 -2.36038e-18)
(0.00900559 -0.281154 -2.71829e-18)
(-0.00920631 -0.270429 6.82619e-17)
(-0.0267374 -0.214617 6.48458e-17)
(0.00950478 -0.276629 -6.87993e-17)
(0.00983077 -0.293333 -6.07382e-17)
(0.0296821 -0.268934 6.99249e-17)
(0.00445868 -0.29239 0)
(0.0052139 -0.297398 0)
(0.0730305 -0.10726 -2.30865e-18)
(-0.00179468 -0.3114 -1.86894e-18)
(0.0649009 0.0703415 0)
(0.00911382 -0.279927 0)
(0.0222811 0.509245 0)
(-0.0147514 -0.304059 -5.20301e-17)
(0.0639204 -0.18727 -1.29674e-16)
(-0.0172698 -0.317613 -5.29435e-17)
(-0.00620759 -0.243083 3.60048e-17)
(0.00028676 -0.31804 0)
(-0.00708241 -0.319658 0)
(-0.0301725 -0.11792 0)
(-0.00913863 0.542795 -1.39677e-16)
(-0.00495554 -0.317595 -5.2841e-17)
(-0.0164747 -0.365311 0)
(-0.00934475 -0.333792 5.18225e-17)
(-0.00957222 -0.337775 8.4675e-17)
(0.00634565 -0.342829 4.67631e-17)
(0.0153143 -0.277664 -3.29382e-17)
(0.00939458 -0.344512 -4.66398e-17)
(0.0406714 -0.339381 5.88489e-17)
(0.00553394 -0.347718 -8.38727e-20)
(-0.0474051 -0.063657 -3.55033e-18)
(0.0583122 -0.0793896 2.22828e-17)
(-0.0310099 -0.371366 3.20965e-17)
(0.0837307 0.0175297 -9.89265e-17)
(-0.0109919 -0.364806 0)
(0.0109199 -0.392122 2.96734e-17)
(-0.0909339 -0.185291 2.13016e-17)
(0.0179541 -0.353664 2.33992e-18)
(-0.00130846 -0.377928 0)
(0.00262644 -0.360922 0)
(-0.0202982 0.148723 -8.14279e-17)
(-0.0100712 0.627964 0)
(-0.00748347 0.0817903 3.49814e-18)
(-0.0129629 -0.361578 2.49111e-19)
(-0.0449783 -0.0568085 -1.86451e-18)
(-0.00652491 0.589805 0)
(-0.0615496 0.00636126 -1.10315e-16)
(0.0157146 -0.185155 1.87842e-17)
(-0.00149879 -0.342328 -2.73086e-17)
(-0.00387248 0.609281 -1.23471e-16)
(-0.00114265 -0.35552 0)
(-0.0568703 -0.0977272 0)
(-0.00595228 -0.363043 2.77917e-17)
(-0.0030819 -0.351779 9.36231e-20)
(0.00166782 -0.373843 -1.69253e-19)
(-0.0353068 -0.0916206 -1.06871e-16)
(-0.031081 -0.165741 1.8272e-16)
(-0.0127678 -0.29031 5.41482e-17)
(-0.0161709 0.165197 1.57443e-16)
(0.000461286 0.621815 0)
(-0.0104 0.0651017 -2.73545e-18)
(-0.0101297 0.0512899 -6.70573e-17)
(-0.0223415 -0.241049 1.94766e-17)
(0.0211981 -0.311986 -3.54523e-17)
(-0.00942918 -0.392707 -2.10502e-17)
(-0.0294746 -0.222013 3.6693e-17)
(0.0990916 0.345398 -5.415e-18)
(-0.0180693 0.0453793 4.81958e-17)
(-0.00682505 -0.299242 -4.91908e-17)
(-0.00769913 -0.313487 -8.94644e-17)
(-0.0143043 0.199095 4.81207e-17)
(-0.0138816 0.248213 -5.17117e-17)
(-0.00728348 0.223273 -5.04648e-17)
(-0.039939 -0.202002 -8.14963e-17)
(-0.0306976 -0.0737853 -2.07026e-18)
(-0.0216631 -0.306276 0)
(-0.000650506 -0.397748 -2.0097e-18)
(-0.00340932 -0.325663 -7.97387e-17)
(0.00548801 -0.333731 0)
(-0.00537951 0.637217 1.07427e-16)
(-0.00334221 -0.177184 0)
(-0.0190593 0.0356366 0)
(0.0136485 -0.365032 2.14214e-17)
(0.0901536 -0.140136 8.8313e-17)
(-0.0160898 0.039995 -2.76136e-19)
(-0.00735692 0.094759 2.7462e-17)
(-0.0107601 0.211255 6.20093e-17)
(-0.00541055 -0.396029 4.37051e-17)
(-0.0431136 0.388565 -3.8115e-18)
(-0.0501134 0.319885 -1.55426e-16)
(0.0156383 -0.324531 -1.69531e-17)
(-0.0638724 -0.073006 0)
(-0.0175947 -0.247846 -2.7652e-17)
(-0.020638 -0.204787 -4.99121e-17)
(0.0526332 -0.424725 -5.27743e-19)
(-0.0112297 0.105943 -6.09477e-17)
(-0.00838718 -0.330403 9.40712e-17)
(-0.0315992 -0.168315 -7.56848e-20)
(-0.022989 -0.15086 -9.39772e-17)
(0.0185586 -0.136804 -8.74882e-17)
(-0.0303051 0.101808 -1.20161e-16)
(-0.00132078 0.0679899 3.20734e-18)
(0.094328 -0.158861 9.96072e-17)
(-0.0256883 0.0976814 6.00334e-17)
(-0.0177244 -0.276526 0)
(-0.0136108 -0.248421 -4.92648e-19)
(-0.00642774 -0.179291 2.75149e-17)
(-0.00239832 -0.350174 3.86135e-17)
(-0.0232071 -0.0214559 6.1087e-17)
(-0.0254209 0.432226 2.86218e-16)
(-0.0170279 -0.17298 6.25096e-17)
(0.00475802 -0.0775461 1.28164e-16)
(-0.0366594 -0.213295 0)
(-0.0332468 -0.134819 -3.0621e-18)
(-0.00862195 -0.0570501 -5.86109e-17)
(-0.0126814 0.183148 0)
(-0.017225 0.0321789 -7.69289e-17)
(-0.0626832 -0.166179 -9.32398e-17)
(-0.065785 0.52994 6.90034e-18)
(0.00650485 0.0854681 0)
(0.335658 0.617503 -5.49123e-18)
(-0.0248244 0.0684635 -7.21068e-17)
(-0.0302499 -0.15927 0)
(-0.0468075 -0.0643208 -7.2495e-17)
(-0.0296975 -0.440618 4.48206e-18)
(0.0559131 -0.0394064 3.37441e-17)
(-0.0424259 0.285362 0)
(0.0427838 -0.0988373 -1.11387e-19)
(-0.00557806 -0.0109973 1.38034e-16)
(-0.0312035 0.0159356 0)
(0.0913697 -0.216359 0)
(-0.0543181 0.711768 0)
(0.0684658 -0.0580928 5.90881e-17)
(0.0230565 -0.0368459 0)
(0.0376027 0.621199 -4.42181e-17)
(0.0250346 -0.143196 -1.55134e-18)
(0.0460505 0.0212631 0)
(-0.0424626 0.717119 4.15962e-18)
(-0.000482475 -0.00708218 0)
(0.034671 -0.108625 -1.7231e-17)
(0.0124717 -0.0339234 1.5956e-16)
(0.0657249 0.610476 -9.79809e-17)
(0.0699345 -0.0981261 3.33699e-17)
(0.120159 0.675348 0)
(0.0100969 0.0232376 -5.03047e-17)
(-0.0106543 0.0600454 0)
(0.0368754 -0.305321 -2.07811e-17)
(0.0236201 -0.266649 2.65222e-18)
(0.0139916 -0.351717 0)
(0.0258847 -0.33891 -2.46678e-17)
(0.00719185 0.000470023 -6.47173e-17)
(0.0992164 0.606692 0)
(-0.0276845 0.636339 0)
(0.0644772 -0.127947 -4.0312e-17)
(0.0426091 -0.156222 0)
(0.0602497 0.577429 7.06081e-17)
(0.140908 0.616825 2.83916e-16)
(0.0293003 -0.257959 -3.80818e-17)
(0.0288316 -0.200719 -9.31493e-17)
(0.0436453 -0.16219 0)
(0.0608462 -0.0685198 -2.40761e-16)
(0.0352145 -0.0582311 0)
(0.0297452 -0.162095 -2.03336e-17)
(0.00554876 -0.218795 0)
(-0.00531654 0.101743 0)
(0.0969771 -0.247986 0)
(-0.0144863 0.0882392 -5.7662e-17)
(-0.00690078 -0.488443 4.07645e-19)
(-0.0102146 -0.451072 0)
(-0.0464359 0.617142 0)
(0.0245661 0.0712131 1.45633e-16)
(-0.00229697 0.475744 0)
(-0.0136262 0.0831083 -1.41595e-16)
(-0.0537199 -0.315743 1.12345e-18)
(-0.040526 -0.025962 6.45501e-17)
(0.00392163 0.0121541 0)
(-0.0410094 -0.0649254 7.26546e-17)
(-0.0426173 -0.0220749 0)
(0.00625236 -0.172823 0)
(-0.0456442 0.551378 0)
(-0.0440399 -0.0575151 3.64159e-18)
(-0.0398689 0.0396838 6.46589e-17)
(-0.106871 -0.347968 -1.12115e-18)
(-0.014582 0.0111389 7.46286e-17)
(-0.00770713 -0.068268 7.73448e-17)
(0.0365592 -0.24906 -6.97117e-18)
(-0.0436609 0.557757 3.53249e-17)
(-0.115867 0.0927445 9.85698e-19)
(0.0172473 -0.250182 -1.61793e-17)
(-0.0343828 0.567001 4.86601e-17)
(0.0886631 0.655481 -3.53774e-17)
(-0.0211758 0.580364 2.9203e-17)
(-0.000839856 0.699436 1.44463e-17)
(0.00412495 -0.0153508 8.37022e-17)
(0.0317561 -0.389081 2.54048e-17)
(-0.0199109 0.191088 2.19628e-18)
(0.0405922 -0.0565686 1.43211e-16)
(0.0480307 -0.329426 9.52981e-17)
(0.0125223 0.573062 0)
(0.04112 0.604842 3.78969e-17)
(0.0494848 -0.0866792 -5.78905e-17)
(-0.0431109 0.507403 0)
(0.0495763 0.0242189 -7.485e-17)
(0.0277672 -0.227376 0)
(0.000924859 0.48787 -7.67298e-17)
(-0.00417218 -0.273018 4.95967e-18)
(0.0268036 -0.242123 -5.00075e-17)
(0.0536925 -0.124687 1.73407e-16)
(0.0302316 -0.240601 -3.00914e-18)
(0.0449383 -0.158986 -6.20405e-17)
(0.0170699 0.0822178 -6.97014e-17)
(0.0161603 -0.173923 7.22608e-17)
(-0.017725 0.000812624 4.74926e-17)
(-0.0154605 0.0516942 0)
(0.00485224 -0.393728 1.28615e-19)
(0.101019 -0.178046 -3.41083e-17)
(0.0432672 -0.0417539 0)
(0.116285 -0.181873 -9.2385e-17)
(-0.023689 -0.0641926 0)
(0.0580423 -0.17629 6.88893e-17)
(-0.0673191 -0.0648695 -6.81131e-17)
(0.0195708 0.00969341 -5.31783e-19)
(-0.0432454 -0.0563364 -3.32673e-19)
(-0.038559 -0.0959063 1.09523e-16)
(-0.0158826 0.57648 0)
(0.0667454 0.276668 -2.31201e-19)
(0.018833 -0.101206 -1.40533e-16)
)
;

boundaryField
{
    back
    {
        type            empty;
    }
    front
    {
        type            empty;
    }
    left
    {
        type            noSlip;
    }
    top
    {
        type            uniformFixedValue;
        uniformValue    
        {
            type            scale;
            scale           
            {
                type            squarePulse;
                start           0.3;
                duration        0.3;
            }
            xScale          
            {
                type            constant;
                value           1;
            }
            value           
            {
                type            constant;
                value           (0 -0.7 0);
            }
        }
        value           uniform (0 -0 0);
    }
    right
    {
        type            noSlip;
    }
    bottom
    {
        type            zeroGradient;
    }
}


// ************************************************************************* //
