/*--------------------------------*- C++ -*----------------------------------*\
  =========                 |
  \\      /  F ield         | OpenFOAM: The Open Source CFD Toolbox
   \\    /   O peration     | Website:  https://openfoam.org
    \\  /    A nd           | Version:  9
     \\/     M anipulation  |
\*---------------------------------------------------------------------------*/
FoamFile
{
    format      ascii;
    class       volVectorField;
    location    "0.57";
    object      U;
}
// * * * * * * * * * * * * * * * * * * * * * * * * * * * * * * * * * * * * * //

dimensions      [0 1 -1 0 0 0 0];

internalField   nonuniform List<vector> 
942
(
(-0.0204454 -0.0493845 0)
(0.0494928 -0.00436659 3.10604e-17)
(0.0679897 0.144441 0)
(0.0132505 -0.067435 -1.64554e-17)
(0.0663245 0.15899 9.80589e-18)
(0.0780333 -0.0372309 1.73009e-17)
(0.0171709 -0.0386878 4.55871e-17)
(0.0868903 -0.0307771 0)
(0.00456109 -0.0436105 -3.60254e-17)
(0.00413871 -0.0475179 3.67266e-17)
(0.0423658 0.0232189 0)
(0.0660732 -0.016064 0)
(0.0112383 -0.0698271 1.53437e-17)
(0.0494398 0.0361456 0)
(0.0808207 -0.022708 0)
(0.0233051 -0.0058055 -3.37793e-17)
(-0.0305821 -0.0440217 -1.33019e-17)
(0.00905828 -0.0439303 0)
(-0.0963393 -0.0253232 -3.96905e-18)
(-0.00705027 0.000834973 6.11217e-18)
(0.00734124 -0.00641761 2.27187e-17)
(0.0830435 -0.0170835 1.82649e-17)
(-0.0776599 -0.009846 0)
(-0.0463036 -0.0929131 -3.58681e-17)
(0.0543701 0.0279903 0)
(-0.0435521 -0.08525 2.7012e-17)
(0.0549667 0.14033 0)
(-0.0792499 -0.0186173 2.29302e-17)
(-0.0481742 -0.0883845 0)
(0.0150595 -0.0432309 1.45658e-17)
(-0.00991999 -0.0237615 1.82842e-17)
(0.0474248 0.136255 0)
(-0.0566739 -0.102661 1.71083e-17)
(-0.106003 0.0152459 2.01219e-17)
(0.0618403 0.11632 -1.9758e-17)
(-0.148672 0.0896004 3.75674e-17)
(-0.0712065 -0.0187128 1.2816e-18)
(0.021402 -0.0391718 0)
(-0.0887871 -0.041073 -6.54059e-19)
(-0.0534469 -0.0998544 2.56057e-17)
(-0.0761763 0.0357234 -3.6044e-17)
(0.156818 -0.00291875 0)
(-0.0499974 -0.103525 -1.76905e-17)
(0.0194148 -0.0571206 -1.51984e-17)
(0.0306228 -0.0601346 -3.8415e-17)
(-0.0666349 -0.0638399 8.67227e-18)
(-0.113596 -0.0200281 -1.75623e-17)
(-0.121502 0.0134695 -1.65841e-17)
(-0.117442 0.0575916 1.85441e-17)
(0.0608543 0.0422366 2.1701e-17)
(-0.0922577 -0.0225206 0)
(-0.0226566 -0.0206005 0)
(-0.142922 0.0973285 -2.53296e-17)
(-0.0283194 -0.100774 2.02836e-17)
(0.00472777 -0.0588038 0)
(-0.0430472 0.0613786 -1.35775e-17)
(-0.0344466 0.000564227 -3.42288e-17)
(0.00669988 -0.0601602 -2.46121e-18)
(-0.037698 0.000547218 4.38504e-17)
(0.0535423 0.00441069 1.90594e-17)
(0.0122357 -0.0406589 -1.80927e-17)
(0.0586017 0.127017 -4.64769e-17)
(-0.0507737 0.0052902 2.17974e-17)
(-0.0391115 -0.0524566 -1.77458e-17)
(0.0248809 -0.0367737 1.68225e-17)
(0.0357045 -0.00913574 1.29411e-17)
(0.0508757 0.12324 3.63419e-17)
(-0.0972332 -0.00641039 -1.66247e-17)
(-0.103272 0.081333 1.70828e-17)
(0.0156141 -0.0940506 4.7045e-18)
(0.0317519 -0.00205297 0)
(0.0102061 -0.0275683 0)
(-0.0257877 -0.00304664 -2.24037e-18)
(0.0204525 -0.0414703 4.36755e-18)
(-0.0347879 -0.0959992 -1.92298e-17)
(-0.0110304 -0.000305728 -6.74858e-23)
(-0.00673059 -0.0015605 2.25332e-18)
(0.0537763 0.110782 2.00802e-17)
(-0.00296374 -0.0290501 -2.1854e-17)
(0.0478633 -0.00422324 -4.42654e-18)
(0.0416543 -0.0325247 2.6164e-17)
(-0.0371323 -0.0652519 -9.40692e-18)
(0.0282657 0.0118643 -2.38438e-18)
(0.0148842 -0.00590349 9.75143e-18)
(-0.00926791 0.000126666 0)
(0.0404274 0.1622 0)
(-0.0104436 0.00459617 -1.99893e-17)
(0.00149495 0.00544611 5.50542e-18)
(0.0597903 0.0458997 0)
(0.0406111 0.0160344 2.72834e-17)
(0.150919 0.00105848 -1.37996e-17)
(0.0362068 0.0610911 6.27304e-19)
(0.0070309 -0.0656833 2.77005e-18)
(0.00672063 0.0394098 0)
(-0.0137109 0.0548613 -5.35116e-18)
(0.0409738 0.0167206 9.88938e-18)
(0.105001 0.00705669 1.69878e-17)
(0.00137363 -0.00330505 -1.59931e-17)
(0.0790548 -0.0616259 -2.35194e-17)
(0.0235594 -0.0388201 -3.37519e-17)
(0.00870037 -0.0300392 -1.01539e-17)
(0.00679834 -0.0682003 1.14693e-17)
(-0.0906652 -0.016087 0)
(0.0249208 -0.0913143 1.29486e-17)
(0.0371175 0.0348488 -2.05585e-17)
(0.00644434 -0.0437276 -3.3126e-17)
(-0.0704276 -0.052292 -1.16429e-17)
(-0.0511423 -0.0834175 0)
(-0.122156 -0.000195666 1.79384e-17)
(-0.118294 -0.00988021 0)
(-0.134041 0.104833 0)
(-0.126736 0.0834428 -1.80495e-17)
(-0.035883 0.00711217 3.63429e-17)
(0.010217 -0.0351401 0)
(0.0564786 0.0326334 0)
(0.0215279 0.0371203 2.44672e-18)
(0.0456362 0.0165253 -1.95694e-17)
(0.015125 -0.0630877 2.0799e-17)
(0.0181654 -0.0397982 3.27887e-22)
(0.11237 -0.0191474 -2.37322e-18)
(0.00825525 -0.0463718 7.89822e-18)
(-0.141357 0.107396 -2.01863e-17)
(-0.0239283 -0.0629251 0)
(-0.0261291 -0.00517787 1.79802e-17)
(-0.0311104 -0.00294004 1.45559e-17)
(-0.0146013 -0.0464202 -3.87622e-17)
(-0.0408285 0.00491716 2.04711e-17)
(-0.0562089 -0.106348 -1.94588e-17)
(-0.051909 -0.0927197 3.55867e-17)
(-0.109703 0.0855772 1.84758e-17)
(-0.0904492 -0.026723 -9.5943e-18)
(-0.0689773 -0.0307878 -2.22458e-17)
(-0.11503 -0.025723 0)
(-0.146015 0.0111548 0)
(-0.139761 -0.00382894 -1.99009e-17)
(-0.0541575 -0.0409407 -1.39081e-17)
(-0.173651 0.112949 1.20309e-18)
(-0.128919 -0.017464 0)
(-0.166531 0.089957 2.46623e-17)
(-0.158196 0.0623747 -8.45664e-18)
(-0.149126 0.0353253 1.9898e-17)
(-0.0464997 -0.060117 0)
(-0.00809654 0.0112259 -2.00018e-17)
(0.00573029 -0.0415654 2.14926e-17)
(0.0554367 -0.0182381 -5.02211e-18)
(-0.0518771 -0.0915338 -9.06096e-18)
(0.0113159 -0.0694571 0)
(0.0133105 -0.0369098 -1.20751e-17)
(-0.112058 0.0309736 3.02147e-17)
(0.0467712 0.16304 0)
(0.0598838 -0.0112157 5.42846e-18)
(0.119677 -0.0166225 6.00033e-18)
(0.0565395 0.087357 0)
(0.0716741 -0.111279 1.12277e-17)
(0.0558222 0.0992394 -1.96552e-17)
(-0.137815 -0.0236222 0)
(0.00598759 -0.0020182 2.22725e-17)
(0.00448891 -0.0100197 0)
(0.0711988 0.0130426 0)
(0.0269153 0.0108536 8.21103e-18)
(0.0116052 0.00432876 -2.88034e-17)
(-0.14626 0.00379175 0)
(0.0116895 -0.0672024 0)
(0.0119762 0.00928948 1.016e-17)
(0.0927163 -0.00968238 0)
(0.0520864 0.0494293 -3.00609e-17)
(0.00966986 -0.043842 0)
(0.031423 -0.117408 0)
(-0.0558302 -0.0776598 1.76817e-17)
(-0.0935467 -0.0106663 2.10329e-17)
(-0.09589 0.00349416 -1.75589e-17)
(-0.0895474 0.0606431 -2.32412e-18)
(-0.1199 0.0935741 9.96596e-22)
(-0.038407 -0.0326286 1.13528e-17)
(0.0430808 0.177034 0)
(0.00246043 -0.0842439 -2.20434e-17)
(0.0217835 0.00973721 -2.09313e-17)
(0.00355043 -0.0755646 0)
(0.0478192 0.0257364 7.26642e-19)
(-0.00546777 -0.1028 0)
(0.0542542 -0.0956053 -1.31793e-17)
(-0.0489193 -0.0936429 0)
(-0.0874062 0.00719601 -2.59081e-17)
(-0.00792076 -0.0894932 1.83128e-22)
(0.0170467 -0.0434525 -1.31597e-17)
(-0.0432036 -0.0730788 0)
(0.0595492 0.0275555 -1.03969e-17)
(0.0671412 0.105153 2.06748e-17)
(0.0558735 0.171146 2.93857e-17)
(-0.0205346 -0.114903 9.89582e-18)
(0.0848717 0.138546 3.97114e-17)
(-0.00742921 -0.132283 -9.91702e-18)
(-0.0581315 -0.0466482 -1.26167e-17)
(0.0150351 -0.00471717 -1.91144e-17)
(0.0631157 0.0830059 1.04701e-17)
(0.0113165 -0.0669884 -9.47354e-18)
(0.0628935 0.0794285 0)
(-0.0276377 -0.0434255 3.38218e-17)
(-0.0897304 0.0295269 -2.43377e-17)
(-0.00916738 -0.0542379 1.83126e-17)
(0.00957447 -0.0201989 0)
(0.0101285 -0.0664657 9.6169e-18)
(0.0421359 0.0372318 0)
(-0.0409079 -0.0610303 -2.22728e-17)
(-0.0343934 0.00989242 2.1188e-17)
(-0.0189682 0.0461831 0)
(-0.06411 0.0696644 2.09685e-17)
(0.0717316 0.135834 -4.55707e-17)
(-0.0341001 -0.090908 -1.76852e-17)
(-0.040652 -0.0967045 1.74962e-17)
(0.0672139 0.101446 -1.01596e-17)
(0.0085728 -0.0650349 3.19489e-22)
(0.00997918 -0.0534286 1.63117e-17)
(0.0695379 0.142155 9.6708e-18)
(0.02763 0.00834497 0)
(-0.016614 -0.067757 -2.03399e-22)
(0.0580698 0.1773 -2.41256e-17)
(0.100688 0.11518 2.03221e-17)
(0.068998 0.0992789 2.01436e-17)
(0.0651271 0.0832882 5.12883e-23)
(-0.0591684 -0.0871875 0)
(-0.0130442 -0.0619268 -1.95825e-17)
(-0.0189668 -0.147489 0)
(0.000999633 -0.0653525 0)
(0.00371164 -0.0033172 -2.04184e-17)
(0.0201962 0.0692664 2.02011e-17)
(0.0757725 0.14105 -1.42468e-17)
(-0.0972075 -0.116619 -1.99367e-17)
(0.0127321 -0.0319379 2.98341e-17)
(0.0539523 0.0586563 0)
(-0.0222957 -0.054142 -1.86085e-17)
(0.0743331 0.143119 -3.56635e-17)
(0.0218558 0.0526385 1.95829e-17)
(-0.00210108 0.00558089 -1.07579e-17)
(-0.0347108 -0.081467 -1.0095e-17)
(0.00895894 -0.0640062 2.59673e-22)
(0.0960512 0.118592 -2.10826e-17)
(-0.0699359 -0.110474 2.0075e-17)
(0.0396982 0.035917 -1.93137e-17)
(0.0743103 0.0997343 1.99322e-17)
(0.0717453 0.0877668 0)
(0.0453111 -0.116195 -4.88207e-18)
(-0.0564962 -0.150993 9.87102e-18)
(0.00564524 -0.0825545 -1.12089e-17)
(0.00279942 -0.101788 -1.98052e-17)
(0.0406967 0.0363974 -2.00749e-17)
(-0.0931084 -0.125595 9.93133e-18)
(-0.0066211 -0.0703535 -1.08594e-17)
(-0.0806036 -0.135667 -1.99371e-17)
(0.0467584 0.0499306 4.93883e-18)
(0.0811592 0.144639 -5.01659e-18)
(0.0237357 0.0217968 -1.85702e-17)
(0.0866143 0.136673 0)
(0.030558 0.0234297 1.4926e-17)
(0.00785207 -0.128148 1.96311e-17)
(0.00458844 -0.0667072 2.19883e-17)
(-0.0394107 -0.144185 0)
(0.00989779 -0.161302 0)
(0.109331 0.111155 -9.93363e-18)
(0.00830433 -0.089553 1.11656e-17)
(-0.0619222 -0.0741179 -9.8606e-18)
(0.111589 0.107963 9.76938e-18)
(0.0738684 0.131729 -2.45113e-17)
(0.0277751 -0.15357 -5.17648e-18)
(-0.114802 -0.0988948 1.02993e-17)
(0.0106878 -0.0460602 0)
(0.0125584 -0.110475 0)
(0.0488919 -0.176689 0)
(0.0128259 -0.00872849 1.89751e-17)
(-0.0487371 -0.137426 1.00634e-17)
(-0.0530485 -0.108012 1.90654e-17)
(0.0705146 0.164655 -1.8274e-17)
(-0.0150587 0.0265843 2.17263e-17)
(0.0708363 0.15135 -9.63499e-18)
(0.0746543 0.127763 2.02485e-17)
(0.101271 0.103311 -2.02379e-17)
(-0.0372088 -0.071478 0)
(0.163559 -0.11811 0)
(0.0833946 0.130062 -9.99017e-18)
(-0.081591 0.0400957 -2.06614e-17)
(0.0237689 -0.136646 0)
(-0.148423 0.0863336 -1.68646e-18)
(-0.122612 0.0424418 2.09338e-17)
(0.162963 -0.138427 0)
(0.0991404 0.0506639 3.9361e-17)
(0.112892 0.0122431 -1.95677e-17)
(0.118486 -0.160453 2.94052e-17)
(0.102922 -0.168844 1.95327e-17)
(0.0521491 -0.155942 5.07196e-18)
(0.0691989 -0.167048 5.03313e-18)
(0.0947864 0.0501949 -1.99605e-17)
(0.0529852 -0.00053205 2.35889e-17)
(0.0927244 0.0902329 -9.06062e-18)
(0.0449699 -0.026042 2.22398e-17)
(0.140849 -0.0994878 5.57255e-18)
(-0.00131844 -0.0106787 -1.81477e-17)
(0.123052 -0.00193071 0)
(0.132314 0.00588514 1.01282e-17)
(0.143875 -0.0101925 9.42467e-18)
(0.123747 0.0199916 0)
(0.11376 0.0384837 0)
(0.134671 -0.146338 -1.00511e-17)
(0.162961 -0.0329175 -4.55106e-18)
(0.169113 -0.0297963 -3.16124e-17)
(0.0991517 0.0373625 -3.15639e-17)
(-0.0185513 -0.167336 9.83727e-18)
(0.183096 -0.0169917 -3.13177e-17)
(-0.0330749 0.00508674 0)
(-0.0115961 -0.00301737 -9.1607e-18)
(0.0204812 0.0298158 1.91433e-17)
(0.00250694 -0.0186213 1.55229e-17)
(-0.00811541 -0.00721967 -5.91548e-23)
(-0.00413779 0.00834048 -2.75249e-18)
(-0.0217342 -0.00671144 -1.91464e-17)
(0.149153 -0.0385946 -2.32953e-22)
(0.00936007 0.00748964 3.08528e-17)
(0.0316936 -0.0342968 -2.09239e-17)
(-0.03246 0.00517473 4.04351e-22)
(-0.0147837 -0.00778443 -5.42907e-18)
(-0.0225891 0.0122183 0)
(-0.00679984 -0.00394705 -5.6217e-18)
(0.0145723 0.0156395 0)
(0.0166178 -0.0306832 2.1963e-17)
(-0.030026 -0.00451316 -3.93138e-17)
(0.0200282 -0.00303408 -2.48351e-17)
(0.112197 0.0963145 -2.01164e-17)
(-0.000701505 -0.00218929 0)
(0.0829286 -0.056711 -1.0199e-17)
(0.193839 -0.0293726 0)
(0.0247605 -0.0123304 0)
(0.0743628 0.0353945 -3.95362e-17)
(0.0118334 -0.0791224 -1.74233e-17)
(0.202439 -0.077096 9.82131e-18)
(0.161329 -0.0340407 -1.78558e-17)
(0.17561 -0.0731009 0)
(0.0820838 0.0387909 1.97774e-17)
(0.17189 -0.025375 1.12783e-17)
(-0.0303114 -0.00688914 -5.86216e-19)
(0.022318 0.0117503 0)
(-0.16752 0.119893 -1.94103e-17)
(0.0601452 0.0288535 2.91252e-17)
(0.101784 0.0326136 -1.98067e-17)
(0.188174 -0.0150155 -5.12932e-18)
(0.0700104 0.0308077 -4.94379e-17)
(0.146569 0.0194688 -2.00647e-17)
(0.0401973 0.0126486 0)
(0.140978 0.0319564 2.041e-17)
(0.191664 -0.0410091 1.96141e-17)
(0.0645564 -0.172381 1.95286e-17)
(0.153039 0.0049851 -9.86242e-18)
(0.0572997 0.0259148 1.98128e-17)
(0.158939 -0.0102977 -4.0864e-22)
(0.141251 -0.0599806 -4.99901e-17)
(0.164515 -0.0234478 -1.03609e-17)
(-0.00493976 0.00669936 -1.77327e-17)
(0.165321 -0.0830574 0)
(0.136934 0.0417675 2.0072e-17)
(0.0744312 -0.0835339 0)
(0.136388 0.0497149 9.8415e-18)
(0.130504 0.0400528 1.9797e-17)
(0.165418 -0.0339403 2.52392e-17)
(0.142172 -0.0314173 0)
(0.0803104 -0.0197954 -2.79938e-18)
(0.00435623 -0.109492 1.67911e-17)
(0.173098 -0.0368903 -1.99546e-17)
(0.105325 -0.0259721 1.04652e-17)
(0.0974491 -0.0166698 -1.00822e-17)
(-0.0424995 -0.0213612 4.56306e-17)
(0.191572 -0.0268843 2.96701e-17)
(0.0891967 0.0247952 -5.1615e-18)
(0.07024 -0.015605 0)
(0.0417538 0.0186997 1.96046e-17)
(-0.0651218 -0.0202935 -9.89895e-18)
(0.21144 -0.0329782 -1.9008e-17)
(0.103484 0.0432766 9.96738e-18)
(0.156677 0.0128549 9.86915e-18)
(0.113645 0.0448313 9.98451e-18)
(0.150894 0.0268003 2.04627e-17)
(0.0471507 -0.141046 9.66069e-18)
(0.162814 -0.00267494 9.82793e-18)
(-0.0339042 -0.0710659 2.22394e-17)
(-0.00248063 -0.034129 0)
(-0.0975951 -0.00156605 1.98729e-17)
(-0.12082 0.0846207 0)
(-0.0308344 -0.0217054 4.96206e-18)
(0.166489 -0.0167843 3.10556e-17)
(0.172058 -0.0373467 3.93264e-17)
(0.120283 -0.0334938 3.05225e-18)
(0.145805 0.0385262 -4.07866e-17)
(0.166703 -0.0286802 -4.15907e-17)
(-0.0794232 -0.0188882 -1.01083e-17)
(-0.115155 0.0464905 -5.03407e-18)
(0.140837 -0.0527782 0)
(0.121313 -0.0193139 2.03937e-17)
(-0.101877 0.00744537 5.30697e-18)
(0.182881 -0.0517658 0)
(0.132059 -0.0276251 1.95267e-17)
(-0.0903153 -0.0119343 5.1772e-18)
(-0.0271235 -0.0324491 1.02644e-17)
(-0.120941 0.0667146 -1.28436e-18)
(-0.107555 0.0260362 -8.88362e-18)
(0.215449 -0.0648959 -2.91181e-17)
(0.0713299 -0.0180458 0)
(0.104587 -0.0184553 9.36568e-18)
(0.186177 -0.030474 0)
(0.112639 0.0508375 0)
(-0.142635 0.0308304 0)
(0.142678 0.0477323 0)
(0.209422 -0.0293673 9.75635e-18)
(-0.0796108 0.0515003 2.98191e-17)
(-0.0303482 -0.0537 -2.13665e-17)
(0.135372 -0.032998 9.89302e-18)
(0.169965 -0.0355434 0)
(0.164119 -0.0366646 2.96131e-17)
(0.1769 -0.0395601 0)
(0.0983852 -0.140264 -9.85777e-18)
(0.114961 -0.115871 9.87424e-18)
(0.203232 -0.0439107 9.74313e-18)
(0.121617 0.0622263 1.97401e-17)
(0.221186 -0.0494387 9.71961e-18)
(0.146556 -0.0322355 2.05569e-17)
(0.199907 -0.0350079 -3.92972e-17)
(0.145915 -0.0459942 0)
(0.211536 -0.0943167 -9.6779e-18)
(0.180756 -0.0369773 1.96693e-17)
(0.164881 -0.0395209 -1.97137e-17)
(0.119247 0.0520296 0)
(0.081925 0.0281148 2.06999e-17)
(0.150139 -0.02905 1.98723e-17)
(0.0859158 -0.0122024 -3.68706e-17)
(0.0360036 -0.0116043 0)
(0.159892 -0.0261731 1.98409e-17)
(0.10109 -0.0216102 0)
(0.123176 0.0446101 0)
(-0.154259 0.0624144 0)
(0.182435 -0.0460879 0)
(0.165186 -0.00186083 2.95217e-17)
(0.21083 -0.0669111 0)
(0.205196 -0.0335571 9.85387e-18)
(0.12677 -0.0230803 -2.08223e-17)
(0.21879 -0.0576044 9.69689e-18)
(0.123432 -0.0288946 -1.80786e-17)
(0.158873 0.0266174 -1.98057e-17)
(0.139813 -0.0170762 0)
(0.127156 -0.154391 -1.9577e-17)
(0.151022 -0.0333539 -2.96267e-17)
(0.142044 0.0551687 0)
(0.142289 0.0566169 0)
(0.200227 -0.0410744 0)
(0.176981 -0.0889871 1.95266e-17)
(0.151416 0.048292 3.91721e-23)
(0.113578 0.0458666 3.25856e-23)
(0.0935291 0.0349604 -2.04452e-17)
(0.204498 -0.0807294 0)
(0.148133 0.0560186 0)
(0.12579 0.0598784 0)
(0.137991 0.0575901 0)
(0.0951765 -0.000795433 0)
(0.159791 -0.110874 -9.78422e-18)
(0.129931 0.0510677 -2.00804e-17)
(0.164291 -0.0153337 2.96226e-17)
(0.162758 0.0127932 -9.86868e-18)
(-0.0232749 -0.0535021 1.99211e-17)
(0.147518 0.0509853 -9.82706e-18)
(0.10887 0.069205 1.00217e-17)
(0.137751 0.0472332 -9.86679e-18)
(0.184259 -0.107149 0)
(0.158732 -0.0201615 -1.98236e-17)
(0.163384 -0.00890156 -3.93149e-17)
(0.133231 0.072798 0)
(0.16355 0.00486865 -1.96854e-17)
(0.151302 0.0177602 -2.00211e-17)
(0.160582 0.0191661 0)
(0.158611 -0.0392193 0)
(0.129807 0.0703944 -2.43004e-23)
(0.0979761 0.0868271 8.99114e-18)
(0.181838 -0.036156 0)
(0.143696 0.0399711 -2.95867e-17)
(0.161098 -0.039379 0)
(0.111421 0.0641922 0)
(-0.0160941 -0.158309 -1.94867e-17)
(0.12775 0.073975 -1.97161e-17)
(0.154798 0.0385131 0)
(0.138112 0.0732082 -1.96857e-17)
(0.177036 -0.038711 -9.83906e-18)
(0.139098 0.065494 1.96786e-17)
(0.139103 -0.0363733 -2.02376e-17)
(0.156327 0.0321483 1.97827e-17)
(0.165216 -0.0357648 0)
(0.13281 0.0788235 -9.83962e-18)
(0.107145 0.0572327 -3.48708e-17)
(0.143637 0.0617067 0)
(0.125553 0.0670825 0)
(0.151927 0.0428543 2.95163e-17)
(0.0328141 -0.165081 -1.91511e-17)
(0.114986 0.102211 0)
(0.139175 0.0684646 1.96834e-17)
(0.0978493 0.107426 4.14795e-17)
(0.141224 0.0620521 -1.96718e-17)
(0.181591 -0.125598 0)
(0.119882 0.0517681 4.1949e-17)
(0.131439 0.0798448 9.82836e-18)
(0.194192 -0.110044 0)
(0.121469 0.0949013 1.9669e-17)
(0.110285 0.0262355 -1.08423e-17)
(0.108316 0.105648 0)
(0.148288 0.0296858 0)
(0.112477 0.00668804 0)
(0.0872804 0.0556066 1.74009e-17)
(0.109833 -0.0017383 -9.55172e-18)
(0.14687 -0.0361516 -2.40353e-17)
(0.129742 0.0861234 0)
(0.113857 0.0907688 1.01156e-17)
(0.120002 0.0811106 -1.96858e-17)
(0.105098 0.0629259 3.32781e-17)
(0.15721 -0.142973 0)
(0.102212 0.0779951 -8.5557e-18)
(0.124112 0.0936593 0)
(0.142765 0.00927905 0)
(0.0653559 0.0393804 0)
(0.119808 -0.0326805 0)
(0.136526 0.0319958 9.91003e-18)
(0.151709 0.00482932 0)
(0.126048 0.0870816 0)
(0.141014 -0.00232502 -9.96097e-18)
(0.133453 -0.0121436 -9.79724e-18)
(0.136868 0.0652776 0)
(0.1106 0.0981727 0)
(0.135022 0.0596447 0)
(0.148337 -0.00683121 3.93387e-17)
(0.140972 0.0213642 2.99365e-17)
(0.123141 0.0609859 0)
(0.142982 -0.0364137 1.70033e-17)
(0.0840599 0.119856 -1.98826e-17)
(0.118175 0.0875866 1.96913e-17)
(0.0967602 0.0976751 -1.97379e-17)
(0.0261489 0.0157664 -9.89077e-23)
(0.105997 0.0729122 0)
(0.0107291 -0.170414 0)
(0.0801677 0.131338 1.90856e-17)
(-0.0836791 -0.0619281 0)
(0.121506 0.0758705 0)
(0.0890092 0.0505792 -1.75886e-17)
(0.0929621 -0.161127 -2.48173e-17)
(0.0657779 0.0496314 0)
(0.0494848 0.0485072 -1.97752e-17)
(0.121601 0.0821063 0)
(0.104525 0.0765999 -1.97223e-17)
(0.0639138 0.0610255 -9.90039e-18)
(0.065028 0.0687335 3.96108e-17)
(0.103057 0.0848186 0)
(0.119098 0.102095 -1.96535e-17)
(0.0916772 0.118391 9.90626e-18)
(0.0854095 0.0723004 0)
(0.0799923 0.145957 2.4802e-17)
(0.0835098 0.079668 -9.8904e-18)
(0.0828205 0.102693 -1.98196e-17)
(0.0981925 0.0420148 -1.84984e-17)
(0.0760314 0.153474 -9.98222e-18)
(0.0997424 0.047758 0)
(0.106112 0.117311 -1.98801e-17)
(-0.0567973 -0.121533 0)
(-0.0285295 -0.0597927 2.95178e-17)
(0.0957327 0.105728 2.964e-17)
(0.0905467 0.131644 1.98126e-17)
(0.0219795 0.00663651 4.00707e-17)
(0.037688 0.0269838 -1.05822e-17)
(-0.0055894 -0.0328847 -2.01618e-17)
(0.0919223 0.128296 0)
(0.0115973 -0.0572653 0)
(0.0902308 0.126547 -1.98518e-17)
(0.0755494 0.155125 4.12743e-17)
(0.0363705 0.0288759 0)
(0.0822904 0.093531 -2.96788e-17)
(-0.00672756 -0.073194 -3.15161e-22)
(0.0788263 0.122526 1.00129e-17)
(0.0961728 0.124215 0)
(0.098416 0.122945 1.0048e-17)
(0.0837128 0.120975 -2.9832e-17)
(0.0639947 0.104521 0)
(0.00672825 -0.0563327 2.28255e-17)
(0.058473 0.169195 -4.26802e-17)
(0.00160221 -0.0638625 0)
(0.10085 0.116006 0)
(-0.0326638 -0.110281 -1.98685e-17)
(-0.0310514 -0.0898057 0)
(0.0774738 0.121052 1.98646e-17)
(0.0485776 0.105095 5.77208e-19)
(0.0102221 -0.0616296 -2.18032e-17)
(0.0787363 0.135121 -2.01188e-17)
(0.0567073 0.0263604 -1.62842e-17)
(-0.0128663 -0.0845733 1.99842e-17)
(0.00326541 -0.0695425 0)
(0.0184327 0.0107202 0)
(-0.0039239 -0.0597236 6.8849e-17)
(0.00398131 -0.052463 -4.44049e-17)
(-0.00720629 -0.155586 -4.36722e-17)
(-0.0194924 0.00963254 0)
(0.0577583 0.194758 2.11801e-17)
(0.00442418 -0.0676292 -3.11979e-17)
(0.000914681 -0.0730409 3.13831e-17)
(0.00440336 -0.035753 0)
(-0.0153127 -0.0888243 -2.19093e-17)
(0.0477312 0.200921 -6.54942e-17)
(0.000943043 -0.0353459 -2.08013e-17)
(0.00016258 -0.0145438 7.26384e-23)
(0.0592417 0.153237 1.84732e-17)
(0.00803782 -0.0662404 -2.14137e-17)
(-0.0126467 -0.0316621 1.0324e-17)
(0.0424517 0.0824192 0)
(0.0343221 0.00565615 -2.36701e-17)
(0.0611307 0.185569 4.78743e-17)
(0.00626355 -0.0140447 -2.32061e-17)
(0.00275168 -0.118649 5.38374e-21)
(-0.00615474 0.00586108 3.25468e-17)
(0.0734405 -0.00896324 -4.24665e-22)
(0.119137 -0.0189009 3.90334e-17)
(0.0878162 -0.00625171 1.42071e-17)
(-0.0880466 -0.0805918 0)
(0.00931764 -0.0453607 2.23022e-17)
(-0.0195917 -0.131079 0)
(0.0471907 0.0161334 -1.31283e-17)
(0.0527057 0.192756 -6.85778e-19)
(0.00569631 -0.0228353 0)
(0.0518982 0.185397 6.31123e-19)
(0.0708101 0.154389 2.2104e-17)
(-0.015297 -0.0779472 -2.57605e-17)
(0.0155528 -0.0303126 -6.28709e-18)
(0.0246844 -0.0434221 5.31249e-18)
(-0.044138 0.00800056 3.07642e-17)
(0.0407386 0.0120078 2.31511e-17)
(0.0686948 0.0295539 -2.45245e-17)
(-0.125319 0.0324626 1.90439e-17)
(-0.129166 -0.0897062 0)
(0.0056563 -0.00797715 1.15882e-17)
(0.0595257 0.0042393 0)
(-0.0278546 -0.0778727 1.83921e-17)
(0.0100071 -0.0722013 0)
(-0.0546666 -0.097945 -4.37019e-17)
(-0.00785422 0.00612209 -2.38604e-17)
(0.101056 -0.00803242 -1.93501e-17)
(0.00483141 -0.0387281 -1.66585e-17)
(0.0521338 -0.0104672 0)
(-0.018165 0.0116328 1.09419e-18)
(0.0101679 0.00582152 0)
(0.0576826 -0.00633405 -3.44649e-17)
(0.00614524 0.0152187 -1.63643e-17)
(0.0160261 -0.0128364 -5.74788e-18)
(-0.0074021 -0.00182253 4.24305e-17)
(0.0460403 -0.0997094 0)
(0.0116117 -0.0647564 1.82667e-17)
(0.0238297 -0.0097654 0)
(0.0157858 0.00284788 -3.12935e-17)
(0.00158004 -0.0598814 -2.36654e-17)
(0.065964 0.0236902 2.20133e-17)
(0.0980731 0.00842678 0)
(0.0974775 0.0180543 -5.71379e-18)
(0.0649066 0.152953 0)
(-0.0508535 -0.0952582 2.16754e-17)
(0.0142743 -0.0586034 6.99649e-19)
(0.000930735 -0.0451163 4.67452e-17)
(-0.107487 -0.0955223 0)
(0.00684067 -0.0678733 2.03068e-17)
(0.00796885 -0.0592592 2.16941e-17)
(0.00774051 -0.0707173 1.14536e-17)
(0.00828151 -0.0723051 1.72122e-23)
(0.00936646 0.00156653 -3.03483e-17)
(0.0687462 0.166452 0)
(0.0430141 -0.000473316 0)
(0.030103 0.121703 -1.09675e-17)
(0.0419362 0.0233556 2.26103e-17)
(0.0334401 0.109095 0)
(0.00503469 0.00194376 1.08784e-17)
(0.0352392 0.0971618 -1.82972e-17)
(0.000273168 0.00285627 0)
(0.0090921 -0.0664794 0)
(0.0185899 0.0793995 -5.8427e-22)
(0.0228368 0.0624308 1.90171e-17)
(-0.00218993 0.00360652 1.06297e-17)
(0.00765734 -0.0585777 -1.11518e-17)
(0.155181 -0.0131869 0)
(0.0857173 0.109315 2.15729e-17)
(-0.0177774 -0.0425969 -1.11429e-17)
(0.0206699 0.0161061 -1.08749e-17)
(0.0089591 0.00724937 0)
(-0.00419849 -0.00678266 0)
(-0.0137899 -0.00377364 9.7477e-18)
(0.0342331 0.0495632 -2.08489e-17)
(0.00445292 0.000923859 0)
(-7.93969e-05 -0.00206463 1.82534e-17)
(0.000458957 0.00451711 0)
(0.0236632 0.0230857 1.07509e-17)
(0.0486427 -0.0548585 -2.07659e-17)
(-0.012197 -0.00751586 2.78193e-18)
(-0.0142958 -0.00690292 1.67148e-17)
(0.0304278 0.0386207 -2.20828e-17)
(0.0265145 0.0297448 -2.23239e-17)
(0.0420909 -0.0565526 0)
(0.00849391 0.000554796 2.04117e-17)
(0.003036 -0.00123605 0)
(-0.0102933 -0.00916262 -2.62715e-18)
(-0.0140967 -0.00575449 0)
(0.0172244 0.0215049 0)
(0.01155 0.0112069 -1.07994e-17)
(0.00716804 0.00368072 3.25566e-22)
(0.0278517 -0.0346109 0)
(-0.00281353 -0.00711235 -1.72133e-17)
(0.131031 -0.0219511 -1.15851e-17)
(0.0898935 0.0597847 -2.12552e-17)
(-0.0353346 0.0093889 0)
(0.000466874 -0.0532893 -1.0845e-22)
(0.0859201 0.0970247 -3.46001e-17)
(-0.0406582 -0.0820949 -2.51747e-17)
(0.0175759 -0.0451503 0)
(0.0230849 -0.00834202 -4.23138e-17)
(0.0795465 0.109279 -1.0535e-17)
(0.0646672 0.162535 0)
(0.0849703 0.0438782 2.15038e-17)
(0.0115839 -0.0625443 -1.2147e-17)
(0.0646757 0.0927281 2.40191e-17)
(0.0122401 -0.00315683 2.14686e-17)
(0.0335149 0.00957321 1.15925e-17)
(0.0685624 0.0281222 3.36985e-17)
(-0.0919231 -0.0436239 1.20191e-17)
(0.110015 -0.0290482 0)
(-0.0110356 0.0155372 -4.22003e-17)
(-0.0227229 0.0146832 -5.15515e-18)
(0.0934495 -0.102693 3.21309e-17)
(0.00322277 -0.0641533 -2.25523e-17)
(0.145824 -0.0275956 -3.63544e-17)
(-0.0868801 -0.0292278 1.78791e-17)
(0.063258 0.11708 -2.93685e-17)
(0.0163917 -0.0609162 5.73089e-18)
(0.106718 0.0238325 2.19172e-17)
(0.101402 0.0314113 -3.29452e-17)
(0.0839595 0.0345498 4.57879e-17)
(-0.13347 0.0978209 0)
(0.000625392 -0.0562607 -2.36515e-17)
(0.0370843 0.0725766 3.67683e-17)
(0.100168 -0.0836733 -2.13378e-17)
(0.00968679 -0.0654746 1.27853e-17)
(-0.0488902 -0.0422187 -5.70527e-18)
(0.0151236 0.0910518 0)
(0.114812 0.0178818 -1.1061e-17)
(-0.0875012 -0.0760424 -2.33378e-17)
(0.123856 -0.107938 2.15793e-17)
(0.00857663 -0.0524038 1.42001e-17)
(0.0228803 0.0456004 -2.3752e-17)
(0.00949933 -0.0664725 1.26301e-17)
(0.0845884 -0.00202771 -1.77057e-17)
(0.0138861 -0.052333 0)
(0.0610886 0.0544934 4.06507e-17)
(0.0266492 -0.0105342 -2.24328e-17)
(0.0551545 -0.00920526 2.84268e-17)
(-0.0143302 0.00808336 2.69333e-17)
(0.153939 -0.0267784 5.64653e-18)
(0.140147 -0.0168917 -1.20616e-17)
(-0.0368717 0.000558692 -2.50516e-17)
(-0.0398271 0.000946805 2.38467e-17)
(0.0409018 0.00434647 0)
(0.0158016 0.00903688 0)
(0.0031271 -0.0677225 -2.48335e-17)
(0.00189085 -0.00929814 -1.21132e-17)
(-0.00862313 -0.0469785 -2.40823e-17)
(0.00459062 -0.0701916 4.05304e-22)
(0.0706433 -0.0937572 1.09932e-17)
(0.00953166 -0.00443398 -2.23309e-17)
(0.00196054 -0.0153284 0)
(-0.00983664 -0.0659563 0)
(-0.0794468 0.0456369 4.03568e-17)
(0.00478436 0.104008 -3.98802e-17)
(0.0226257 -0.019325 -1.12916e-17)
(0.059044 0.0593951 1.30933e-17)
(0.000874036 -0.00550104 2.28895e-17)
(0.0409999 0.146771 2.59943e-17)
(0.0353553 0.0144905 0)
(0.0898991 0.0536003 0)
(0.0184852 0.00719136 -1.17254e-17)
(0.0215657 0.165588 1.35838e-17)
(0.0859151 0.0730412 -1.06193e-17)
(-0.00158894 0.00140716 -1.75321e-17)
(0.0122521 -0.0402694 1.16745e-17)
(0.0141198 -0.0105275 -2.89693e-18)
(0.00396518 -0.00494095 -4.00391e-17)
(0.0623659 0.182824 -2.78205e-17)
(0.0970233 -0.0487584 6.74282e-18)
(0.0771425 0.0822804 2.86903e-17)
(-0.0333736 0.0110699 4.44818e-23)
(0.10825 -0.0110872 2.00777e-17)
(-0.0389998 0.00781779 2.35464e-17)
(0.0456988 0.0181873 -1.13517e-17)
(0.0499768 0.150361 -3.79057e-17)
(0.00387858 -0.0320222 2.47568e-17)
(-0.0423123 0.0149264 -1.16066e-17)
(-0.0307666 0.0177539 -2.32329e-17)
(0.128426 -0.0816511 2.00095e-17)
(0.0549005 0.0748381 -2.75252e-18)
(0.0301848 -0.0240172 5.68286e-18)
(0.0364116 0.0836586 5.06701e-18)
(-0.0158671 -0.0121352 0)
(-0.0109577 -0.00449758 7.76695e-18)
(0.0657951 0.174324 1.24061e-17)
(-0.0884002 0.0683295 2.7218e-17)
(0.0324616 -0.00366006 0)
(-0.016083 0.00817753 -4.84878e-18)
(0.159206 -0.00740134 2.74718e-17)
(0.100154 -0.00731935 1.53656e-17)
(-0.00695491 -0.097959 0)
(0.00202659 -0.00877284 -2.39775e-17)
(-0.014349 -0.0160979 1.2654e-17)
(-0.0338695 0.00463535 -3.20384e-18)
(0.0398595 0.042161 -1.66579e-18)
(-0.021868 -0.0562695 6.09539e-18)
(-0.000144076 -0.00702263 2.62946e-17)
(-0.0243681 -0.125848 0)
(0.0979525 0.0114533 0)
(0.00704219 0.0185035 0)
(-0.0270874 -0.0646142 -1.34897e-17)
(0.0882021 0.0673341 0)
(-0.0393908 -0.0237918 2.23537e-17)
(0.00938643 -0.0629122 -1.30929e-17)
(-0.000390983 -0.0134911 -1.34249e-17)
(-0.00647777 -0.114307 0)
(0.128187 -0.0132533 -6.78243e-18)
(0.0379492 0.0230203 0)
(-0.062335 -0.0150052 7.6221e-19)
(-0.0156433 -0.0826384 1.28116e-17)
(0.0137588 -0.0232436 1.89051e-17)
(-0.0973026 -0.043806 0)
(0.00678659 -0.0460367 2.44333e-17)
(0.00841397 -0.0634593 0)
(0.00884217 -0.11334 0)
(0.0232516 -0.0487979 1.63842e-18)
(0.0912323 -0.00655062 -2.38529e-17)
(-0.00171265 -0.0153625 -1.39737e-18)
(0.0342115 -0.0016981 0)
(-0.0355929 -0.00211816 4.69796e-17)
(-0.0255424 -0.095463 1.326e-18)
(0.0272624 0.136762 -1.17841e-17)
(0.0362593 -0.01945 0)
(0.0835425 0.0383749 -1.0453e-17)
(-0.111634 -0.0359938 -2.83796e-17)
(0.034949 -0.000189068 2.6182e-17)
(0.079664 0.0783625 1.2469e-17)
(-0.138416 -0.0236957 1.14259e-17)
(0.0728545 0.0368787 -1.24604e-17)
(0.00414379 -0.00606546 -2.52264e-17)
(0.110174 -0.0238332 -2.36531e-17)
(0.0267844 0.0097444 0)
(0.0714911 -0.0153735 1.6787e-17)
(-0.107929 -0.0620616 5.7554e-18)
(0.149442 -0.0240928 2.2345e-17)
(0.060024 0.163088 6.0139e-18)
(0.0664556 0.174212 0)
(0.0735305 0.0329228 2.21525e-17)
(0.127852 0.0110578 3.54723e-17)
(0.0704886 -0.00850526 0)
(-0.142013 -0.0494607 3.64397e-18)
(-0.00954334 0.00408007 -1.65243e-17)
(0.0576328 -0.0105795 0)
(0.0202001 -0.0510703 -1.56224e-18)
(0.0358276 0.0218472 -2.25059e-17)
(0.074941 0.0284413 2.65674e-22)
(0.118364 0.031298 5.35368e-22)
(-0.133551 -0.0628599 -5.90259e-18)
(0.0930983 -0.0617148 -2.67209e-17)
(0.024567 0.000501529 2.98426e-17)
(0.0459004 0.00474181 5.30357e-17)
(0.067728 0.0267985 -2.72676e-17)
(-0.0288849 0.0126106 3.94752e-17)
(-0.010666 0.00363271 5.678e-18)
(0.0111701 -0.0207732 1.32201e-17)
(0.0486695 0.0863788 2.61764e-17)
(0.0941481 -0.139516 0)
(0.0796849 -0.0125515 -3.67691e-17)
(0.0837699 -0.0846728 -2.28746e-17)
(0.0447626 0.0356572 6.38383e-18)
(-0.00433138 0.0463397 0)
(0.0562853 0.0547027 -2.81264e-17)
(0.102599 -0.127009 -2.67847e-17)
(-0.0082859 0.014516 0)
(0.00617232 -0.0284237 1.47255e-17)
(0.0179159 -0.0588391 1.65774e-17)
(-0.119453 -0.0806982 -1.3506e-17)
(0.127427 -0.12605 1.63576e-18)
(0.0153943 -0.0572273 0)
(0.00130222 -0.0703903 2.75452e-22)
(0.0795878 0.0967799 0)
(0.0489918 -0.045799 2.36251e-17)
(0.0732445 -0.133032 -3.33584e-18)
(-0.0357907 -0.0729301 1.37227e-17)
(0.00761515 -0.0299286 0)
(-0.00378607 -0.0791165 2.90969e-17)
(-0.0211623 0.0133817 2.73001e-17)
(0.135315 -0.0681831 -6.74098e-18)
(-0.0477012 0.0594936 -2.21536e-17)
(-0.12763 0.0234201 -4.5976e-17)
(0.0621914 0.0992072 0)
(0.0708604 -0.0161576 0)
(0.0591259 0.0668522 -2.83536e-17)
(0.0519268 0.062373 3.67646e-17)
(0.130846 -0.00760262 1.16628e-17)
(0.159372 -0.0216859 1.32773e-17)
(0.0611494 -0.136406 9.55963e-18)
(-0.000314146 -0.0281104 -1.46214e-17)
(0.0573608 0.182355 0)
(0.0629819 0.0798365 0)
(-0.042732 0.00902362 0)
(0.00306077 -0.0644446 -9.73231e-19)
(-0.0179162 -0.00117739 1.5196e-17)
(0.0643699 0.0122457 7.20571e-18)