/*--------------------------------*- C++ -*----------------------------------*\
  =========                 |
  \\      /  F ield         | OpenFOAM: The Open Source CFD Toolbox
   \\    /   O peration     | Website:  https://openfoam.org
    \\  /    A nd           | Version:  9
     \\/     M anipulation  |
\*---------------------------------------------------------------------------*/
FoamFile
{
    format      ascii;
    class       volVectorField;
    location    "0.07";
    object      U;
}
// * * * * * * * * * * * * * * * * * * * * * * * * * * * * * * * * * * * * * //

dimensions      [0 1 -1 0 0 0 0];

internalField   nonuniform List<vector> 
942
(
(0.134861 -0.251924 0)
(0.176222 0.0185334 2.8407e-17)
(0.0496051 0.210354 0)
(0.0502534 -0.322353 -1.50177e-17)
(0.0448109 0.210718 8.97187e-18)
(0.144359 -0.112234 1.59484e-17)
(0.066335 -0.117468 4.1995e-17)
(0.147413 -0.107911 0)
(0.002739 -0.201844 -3.31018e-17)
(0.00862538 -0.222933 3.3735e-17)
(0.141006 0.105704 0)
(0.171984 -0.0591287 0)
(0.0431399 -0.330107 1.40126e-17)
(0.128933 0.120599 0)
(0.175432 -0.0551975 0)
(0.174681 0.0133042 -3.0885e-17)
(0.210053 0.173188 -1.20592e-17)
(0.119294 -0.262359 0)
(0.28506 0.13632 -3.60072e-18)
(0.11823 0.0298844 5.58311e-18)
(0.199501 0.164694 2.05725e-17)
(0.171785 -0.0631786 1.67662e-17)
(0.164413 -0.186416 0)
(0.10251 0.273433 -3.25092e-17)
(0.142826 0.10151 0)
(0.0967991 0.255548 2.45079e-17)
(0.0527078 0.178926 0)
(0.162917 -0.177621 2.09718e-17)
(0.160279 0.24685 0)
(0.122988 -0.209948 1.33098e-17)
(0.103709 0.233219 1.65103e-17)
(0.0480851 0.181025 0)
(0.152231 0.26921 1.54968e-17)
(0.305411 -0.0369112 1.8258e-17)
(0.0699189 0.168839 -1.80963e-17)
(0.207655 -0.195863 3.45973e-17)
(0.181862 -0.177125 1.16535e-18)
(0.0466414 -0.176869 0)
(0.178594 -0.178631 -5.95228e-19)
(0.116393 0.279977 2.32253e-17)
(0.28562 -0.0808305 -3.27464e-17)
(0.198417 -0.122572 0)
(0.127288 0.29374 -1.60432e-17)
(0.0969666 -0.169464 -1.40029e-17)
(0.101629 -0.160998 -3.53021e-17)
(0.243853 0.200914 7.85726e-18)
(0.298297 0.0943578 -1.59729e-17)
(0.31736 -0.0176768 -1.50941e-17)
(0.292064 -0.0949727 1.69125e-17)
(0.131192 0.116908 1.97958e-17)
(0.281668 0.117755 0)
(0.149737 -0.199465 0)
(0.223986 -0.227812 -2.33084e-17)
(0.0611449 0.272625 1.82958e-17)
(0.0104945 -0.274178 0)
(0.246017 -0.130433 -1.23962e-17)
(0.117752 -0.0248532 -3.14265e-17)
(0.0171181 -0.285203 -2.24709e-18)
(0.172508 -0.0270128 4.02433e-17)
(0.25909 0.016495 1.73638e-17)
(0.105226 -0.169835 -1.65674e-17)
(0.0618238 0.173717 -4.25894e-17)
(0.278506 -0.0325969 1.97514e-17)
(0.152851 -0.230802 -1.6211e-17)
(0.0668024 -0.177187 1.54133e-17)
(0.177722 -0.00452146 1.18374e-17)
(0.0565704 0.175515 3.33043e-17)
(0.303514 0.0335773 -1.51361e-17)
(0.259488 -0.14039 1.56674e-17)
(0.091228 -0.175394 4.33696e-18)
(0.173669 0.022783 0)
(0.00508321 -0.15444 0)
(0.119754 0.00220956 -2.05243e-18)
(0.107126 -0.230142 3.98156e-18)
(0.0719319 0.27171 -1.73634e-17)
(0.16907 0.0529866 4.67455e-23)
(0.165577 0.0412471 2.05607e-18)
(0.0652574 0.170353 1.83848e-17)
(0.0942703 0.231003 -1.97371e-17)
(0.175826 0.00670049 -4.04887e-18)
(0.129722 -0.12414 2.41118e-17)
(0.109175 0.245257 -8.51453e-18)
(0.152037 0.0870686 -2.17518e-18)
(0.175731 0.00215596 8.90525e-18)
(0.175394 -0.00916738 0)
(0.0339936 0.193627 0)
(0.270796 0.0156385 -1.8104e-17)
(0.170982 -0.046788 5.02643e-18)
(0.126528 0.125472 0)
(0.153888 0.082685 2.48148e-17)
(0.205704 -0.115269 -1.26805e-17)
(0.0821085 0.159218 5.72939e-19)
(0.0218741 -0.311717 2.52102e-18)
(0.245281 -0.115663 0)
(0.232689 -0.138985 -4.88239e-18)
(0.168722 0.0591323 9.01942e-18)
(0.200766 -0.130641 1.5608e-17)
(0.170118 -0.0465604 -1.45983e-17)
(0.131214 -0.125985 -2.1727e-17)
(0.0702913 -0.155931 -3.10071e-17)
(0.0308785 -0.173199 -9.33267e-18)
(0.0221113 -0.322003 1.04108e-17)
(0.287641 0.0997607 0)
(0.0969763 -0.169675 1.19441e-17)
(0.222213 -0.130303 -1.87534e-17)
(0.118232 -0.162125 -3.03728e-17)
(0.245396 0.180823 -1.04965e-17)
(0.213541 0.224677 0)
(0.316998 0.0189075 1.63162e-17)
(0.310803 0.0581274 0)
(0.258971 -0.157277 0)
(0.279559 -0.128411 -1.64992e-17)
(0.277804 0.0325339 3.30066e-17)
(0.00239868 -0.160379 0)
(0.138602 0.110352 0)
(0.0551975 0.108604 2.23449e-18)
(0.256977 0.0418218 -1.78112e-17)
(0.068438 -0.308617 1.8892e-17)
(0.0563638 -0.117154 1.5868e-21)
(0.243018 -0.0422007 -2.16998e-18)
(0.103259 -0.157844 7.25263e-18)
(0.239059 -0.182837 -1.85253e-17)
(0.0822689 0.20249 0)
(0.175093 0.012596 1.64715e-17)
(0.17305 0.00102961 1.33315e-17)
(0.0849096 0.238353 -3.49722e-17)
(0.10265 -0.147164 1.86882e-17)
(0.169692 0.283486 -1.7623e-17)
(0.200451 0.262031 3.22353e-17)
(0.16047 -0.15741 1.6973e-17)
(0.310333 0.137615 -8.69319e-18)
(0.285011 0.175039 -2.01162e-17)
(0.324549 0.100639 0)
(0.334898 -0.0230004 0)
(0.336885 0.017944 -1.81255e-17)
(0.266794 0.209708 -1.25711e-17)
(0.279012 -0.180599 1.10497e-18)
(0.331548 0.0581783 0)
(0.301529 -0.145653 2.26075e-17)
(0.322609 -0.109428 -7.72313e-18)
(0.333696 -0.0694146 1.81567e-17)
(0.231946 0.233786 0)
(0.269316 0.0432959 -1.81118e-17)
(0.0767363 0.233449 1.94202e-17)
(0.147221 -0.101006 -4.61513e-18)
(0.132968 0.264756 -8.20204e-18)
(0.0836414 -0.174448 0)
(0.00621074 -0.167382 -1.11145e-17)
(0.19418 -0.181672 2.77503e-17)
(0.0382492 0.189237 0)
(0.151109 -0.0964455 4.98622e-18)
(0.240709 -0.0202421 5.49429e-18)
(0.0821237 0.160021 0)
(0.117047 -0.153641 1.03769e-17)
(0.0735026 0.165488 -1.79928e-17)
(0.180996 -0.182523 0)
(0.173447 -0.0179429 2.02961e-17)
(0.00187365 -0.0979453 0)
(0.25337 0.0262279 0)
(0.170969 0.0533639 7.50606e-18)
(0.174147 -0.0194901 -2.63025e-17)
(0.185581 -0.185674 0)
(0.0389969 -0.320349 0)
(0.159913 -0.074973 9.29811e-18)
(0.251591 -0.0186859 0)
(0.115343 0.134778 -2.7459e-17)
(0.0400798 -0.178749 0)
(0.10469 -0.168607 0)
(0.219769 0.204135 1.60256e-17)
(0.297116 0.0674756 1.90749e-17)
(0.305791 -0.00341858 -1.59878e-17)
(0.27531 -0.112898 -2.1211e-18)
(0.238288 -0.163479 -3.46042e-21)
(0.148239 -0.178786 1.03459e-17)
(0.0317004 0.195773 0)
(0.0662834 -0.211812 -2.02201e-17)
(0.165166 0.0628224 -1.90869e-17)
(0.0573061 -0.221338 0)
(0.232873 -0.109889 6.63875e-19)
(0.0907949 -0.204482 0)
(0.11221 -0.157463 -1.21482e-17)
(0.17372 0.240962 0)
(0.190383 -0.174023 -2.37844e-17)
(0.0823355 -0.216172 3.59458e-21)
(0.113589 -0.256897 -1.19791e-17)
(0.121674 0.247553 0)
(0.243046 0.0707938 -9.43116e-18)
(0.0597426 0.212972 1.88316e-17)
(0.0420712 0.192627 2.69397e-17)
(0.106119 -0.203823 9.11887e-18)
(0.0806437 0.185305 3.64354e-17)
(0.110686 -0.193201 -9.13776e-18)
(0.160127 -0.196879 -1.14459e-17)
(0.112104 0.22297 -1.72401e-17)
(0.066791 0.214881 9.53942e-18)
(0.048249 -0.317311 -8.61214e-18)
(0.0789132 0.211003 0)
(0.145692 -0.208985 3.0929e-17)
(0.291193 -0.0685721 -2.19474e-17)
(0.0529716 0.204245 1.6558e-17)
(0.0141553 -0.0573791 0)
(0.0603794 -0.309316 8.74163e-18)
(0.0688576 0.222084 0)
(0.203212 0.190415 -2.01868e-17)
(0.274901 0.0602356 1.9159e-17)
(0.258184 -0.105302 0)
(0.230805 -0.15146 1.91186e-17)
(0.0583788 0.206662 -4.17021e-17)
(0.087407 0.301636 -1.60071e-17)
(0.0813893 0.283924 1.58516e-17)
(0.0716759 0.209446 -9.25816e-18)
(0.0571167 -0.293484 5.54221e-21)
(0.0148099 -0.237706 1.49598e-17)
(0.0639584 0.179628 8.87424e-18)
(0.0755511 0.224877 0)
(0.112593 -0.262457 -2.38024e-21)
(0.0398816 0.196622 -2.21371e-17)
(0.108134 0.160371 1.86466e-17)
(0.0842212 0.204623 1.83669e-17)
(0.091971 0.205248 -1.23945e-24)
(0.14018 -0.234737 0)
(0.11689 -0.270133 -1.77934e-17)
(0.122131 -0.18961 0)
(0.0845106 -0.282713 0)
(0.00699973 -0.0854102 -1.88453e-17)
(0.0324013 0.123561 1.84714e-17)
(0.0703735 0.179418 -1.30744e-17)
(0.154961 -0.208236 -1.83929e-17)
(0.0356295 -0.081884 2.75046e-17)
(0.110891 0.204466 0)
(0.129589 0.234018 -1.68094e-17)
(0.0628477 0.201863 -3.26296e-17)
(0.0436309 0.116486 1.7897e-17)
(0.0298811 -0.112144 -9.89934e-18)
(0.121187 -0.247027 -9.22078e-18)
(0.0418272 -0.28521 4.50059e-21)
(0.101851 0.162611 -1.9339e-17)
(0.14347 -0.219109 1.84442e-17)
(0.105341 0.213713 -1.75124e-17)
(0.0969027 0.197713 1.81829e-17)
(0.105114 0.197171 0)
(0.107 -0.163931 -4.5078e-18)
(0.141532 -0.191334 9.12608e-18)
(0.0665326 -0.196565 -1.03103e-17)
(0.0871618 -0.190742 -1.82592e-17)
(0.0820772 0.219108 -1.81772e-17)
(0.159677 -0.189799 9.17652e-18)
(0.0937553 -0.26965 -9.89308e-18)
(0.152765 -0.196726 -1.83914e-17)
(0.0967253 0.213166 4.47591e-18)
(0.0739686 0.185468 -4.60281e-18)
(0.254909 -0.0926356 -1.68789e-17)
(0.0840968 0.178804 0)
(0.0900891 0.221107 1.35159e-17)
(0.104444 -0.182848 1.81453e-17)
(0.0666221 -0.282665 2.00198e-17)
(0.131493 -0.197992 0)
(0.12409 -0.180108 0)
(0.121773 0.161921 -9.11188e-18)
(0.0760721 -0.188107 1.02684e-17)
(0.148019 -0.239107 -9.01826e-18)
(0.122085 0.153423 8.96232e-18)
(0.0728973 0.17368 -2.24864e-17)
(0.117261 -0.172816 -4.79919e-18)
(0.169682 -0.191403 9.50969e-18)
(0.00722437 -0.204532 0)
(0.0936987 -0.183311 0)
(0.133879 -0.167488 0)
(0.122395 0.222997 1.70953e-17)
(0.157674 -0.180809 9.27761e-18)
(0.164838 -0.175558 1.75412e-17)
(0.0535882 0.195261 -1.67398e-17)
(0.266047 -0.0791029 1.96161e-17)
(0.0608338 0.185033 -8.8442e-18)
(0.069035 0.202944 1.8537e-17)
(0.11479 0.149853 -1.85656e-17)
(0.137145 0.186331 0)
(0.141777 -0.132141 0)
(0.0847823 0.191495 -9.14842e-18)
(0.183634 -0.224744 -1.8915e-17)
(0.108084 -0.175427 0)
(0.210101 -0.190663 -1.54532e-18)
(0.185111 -0.199965 1.92116e-17)
(0.142152 -0.138662 0)
(0.190543 0.133031 3.58534e-17)
(0.240433 0.0261012 -1.79222e-17)
(0.135032 -0.150319 2.73084e-17)
(0.141642 -0.155218 1.81394e-17)
(0.118885 -0.164777 4.70249e-18)
(0.127163 -0.161718 4.67602e-18)
(0.184216 0.142277 -1.81782e-17)
(0.257875 -0.0662491 2.13745e-17)
(0.11465 0.142947 -8.30416e-18)
(0.184672 -0.152734 2.03145e-17)
(0.136727 -0.128141 5.16907e-18)
(0.216724 0.143512 -1.64061e-17)
(0.241183 0.00462124 0)
(0.236149 0.0140118 9.27025e-18)
(0.234893 -0.0056144 8.64567e-18)
(0.23432 0.033921 0)
(0.223317 0.0716752 0)
(0.135157 -0.142711 -9.34459e-18)
(0.221712 -0.0395782 -4.18892e-18)
(0.215567 -0.068399 -2.91265e-17)
(0.22305 0.0842254 -2.8815e-17)
(0.140925 -0.18153 9.09747e-18)
(0.205211 -0.0966784 -2.88892e-17)
(0.109699 -0.0370686 0)
(0.110581 0.0353861 -8.37246e-18)
(0.0609408 0.104785 1.74794e-17)
(0.0597212 -0.11835 1.42831e-17)
(0.101591 0.0599186 1.81898e-21)
(0.099953 -0.0601729 -2.5255e-18)
(0.118256 0.00917867 -1.75312e-17)
(0.183977 -0.134772 5.10344e-21)
(0.08102 0.0864527 2.81394e-17)
(0.0783098 -0.096424 -1.9289e-17)
(0.112376 -0.0167156 -2.02136e-21)
(0.102665 0.0450913 -4.96215e-18)
(0.107739 -0.0486872 0)
(0.108561 0.0228473 -5.14189e-18)
(0.0703809 0.094542 0)
(0.0651489 -0.0986279 2.02499e-17)
(0.116261 -0.00405248 -3.60558e-17)
(0.263408 -0.0528659 -2.2461e-17)
(0.128232 0.141798 -1.84545e-17)
(0.0946635 0.0716559 0)
(0.177681 -0.148519 -9.3754e-18)
(0.188729 -0.119531 0)
(0.0908468 -0.0783364 0)
(0.201568 0.133213 -3.59189e-17)
(0.172013 -0.163565 -1.59834e-17)
(0.158851 -0.118978 9.13986e-18)
(0.220528 -0.0491788 -1.64417e-17)
(0.152585 -0.115922 0)
(0.206891 0.122291 1.79685e-17)
(0.213289 -0.0788518 1.03898e-17)
(0.239876 0.128407 -5.27231e-19)
(0.22512 0.130051 0)
(0.254741 -0.208378 -1.78241e-17)
(0.235591 0.0902228 2.64078e-17)
(0.176922 0.0576513 -1.81557e-17)
(0.200738 -0.10527 -4.73461e-18)
(0.222373 0.107782 -4.48526e-17)
(0.224581 0.0336757 -1.84276e-17)
(0.206048 0.143377 0)
(0.22046 0.0516234 1.87308e-17)
(0.182041 -0.126759 1.81708e-17)
(0.141626 -0.162987 1.81431e-17)
(0.225462 0.0154975 -9.06745e-18)
(0.218376 0.120432 1.79726e-17)
(0.223623 -0.00171618 -4.08603e-21)
(0.176702 -0.140727 -4.61755e-17)
(0.218272 -0.0178774 -9.53755e-18)
(0.244091 0.11408 -1.59904e-17)
(0.146986 -0.120287 0)
(0.214009 0.0682005 1.84135e-17)
(0.170493 -0.153832 0)
(0.205579 0.0836585 9.02171e-18)
(0.183675 0.0608559 1.81926e-17)
(0.212678 -0.0332769 2.32654e-17)
(0.167573 -0.08922 0)
(0.178364 -0.0441901 -2.56416e-18)
(0.163843 -0.168383 1.54349e-17)
(0.209726 -0.0624444 -1.84017e-17)
(0.185146 -0.0353859 9.61894e-18)
(0.168216 -0.0758518 -9.27895e-18)
(0.210387 0.0957913 4.12764e-17)
(0.200462 -0.0893516 2.74169e-17)
(0.177658 0.0506271 -4.731e-18)
(0.255367 -0.041485 0)
(0.23421 0.103881 1.77649e-17)
(0.222922 0.0736955 -8.97109e-18)
(0.185912 -0.111735 -1.76212e-17)
(0.21203 0.100587 9.09649e-18)
(0.220853 0.0233022 9.0695e-18)
(0.214161 0.0886973 9.11567e-18)
(0.218544 0.0409327 1.87866e-17)
(0.156466 -0.162718 8.936e-18)
(0.220107 0.00659967 9.03673e-18)
(0.112666 0.192979 2.01409e-17)
(0.0741773 -0.11818 0)
(0.230974 -0.0127895 1.80968e-17)
(0.175536 -0.143887 0)
(0.196796 0.125379 4.48042e-18)
(0.216635 -0.00954189 2.85953e-17)
(0.21154 -0.0531541 3.62633e-17)
(0.183719 -0.0482161 2.80891e-18)
(0.213655 0.0573395 -3.74168e-17)
(0.211594 -0.0244353 -3.83294e-17)
(0.229646 0.041844 -9.1797e-18)
(0.211674 -0.101108 -4.60672e-18)
(0.150554 -0.110484 0)
(0.190003 -0.016539 1.87673e-17)
(0.226319 -0.0434186 4.83782e-18)
(0.162063 -0.106835 0)
(0.174789 -0.0766521 1.80022e-17)
(0.230322 0.0145563 4.70915e-18)
(0.178769 0.145046 9.27023e-18)
(0.195434 -0.12248 -1.17829e-18)
(0.22713 -0.0730724 -8.10271e-18)
(0.17404 -0.123444 -2.70753e-17)
(0.179289 -0.0390974 0)
(0.164951 -0.0822509 8.62414e-18)
(0.204587 -0.0804466 0)
(0.198757 0.114052 0)
(0.191189 -0.187771 0)
(0.206508 0.0729813 0)
(0.191522 -0.104361 9.03992e-18)
(0.129558 -0.16603 2.73088e-17)
(0.158561 0.162675 -1.93195e-17)
(0.190857 -0.0384643 9.11693e-18)
(0.175278 -0.0899002 0)
(0.204886 -0.0387376 2.73125e-17)
(0.201211 -0.0648907 0)
(0.155938 -0.154632 -9.12042e-18)
(0.163088 -0.149637 9.12865e-18)
(0.174932 -0.102639 9.04092e-18)
(0.184491 0.124085 1.80516e-17)
(0.177861 -0.109763 9.03526e-18)
(0.163988 -0.0944639 1.89997e-17)
(0.191652 -0.0892037 -3.63977e-17)
(0.155094 -0.104642 0)
(0.160465 -0.125799 -9.01176e-18)
(0.198548 -0.0735335 1.81734e-17)
(0.20459 -0.0476568 -1.81828e-17)
(0.202305 0.103505 0)
(0.172306 0.0611039 1.89597e-17)
(0.196459 -0.0268098 1.83192e-17)
(0.182989 -0.0133191 -3.38277e-17)
(0.175457 -0.0330415 0)
(0.202916 -0.0215566 1.82913e-17)
(0.185279 -0.0283906 0)
(0.177158 0.0723891 0)
(0.190418 -0.196715 0)
(0.167101 -0.100902 0)
(0.209796 0.0079112 2.71993e-17)
(0.164656 -0.113575 0)
(0.18751 -0.0968692 9.12606e-18)
(0.190702 -0.0235891 -1.91595e-17)
(0.172075 -0.116017 9.01805e-18)
(0.177473 -0.0683651 -1.6674e-17)
(0.208581 0.0398146 -1.82204e-17)
(0.194761 -0.0109552 0)
(0.14882 -0.15062 -1.81596e-17)
(0.197336 -0.0344087 -2.73127e-17)
(0.197236 0.0871308 0)
(0.182232 0.0846519 0)
(0.179579 -0.0961673 0)
(0.169093 -0.136719 1.81233e-17)
(0.197962 0.0690402 -2.89116e-21)
(0.169894 0.0821691 2.61746e-21)
(0.17126 0.0686713 -1.87234e-17)
(0.167676 -0.129144 0)
(0.189582 0.0820157 0)
(0.188992 0.11519 0)
(0.194853 0.0969673 0)
(0.182852 0.0160879 0)
(0.162232 -0.142018 -9.08357e-18)
(0.175927 0.079979 -1.84347e-17)
(0.207276 -0.00693756 2.73029e-17)
(0.210394 0.0237536 -9.08647e-18)
(0.143027 0.233997 1.79631e-17)
(0.190799 0.0729878 -9.03061e-18)
(0.166741 0.148074 9.14997e-18)
(0.183322 0.0691345 -9.06446e-18)
(0.147631 -0.127628 0)
(0.201323 -0.0136074 -1.82754e-17)
(0.204583 0.000703475 -3.62324e-17)
(0.162015 0.116198 0)
(0.206096 0.0152089 -1.81348e-17)
(0.197372 0.0303273 -1.84286e-17)
(0.205617 0.0307742 0)
(0.197155 -0.051262 0)
(0.175091 0.123923 -1.96151e-21)
(0.120762 0.139339 8.24199e-18)
(0.186954 -0.0825002 0)
(0.189699 0.0567314 -2.7197e-17)
(0.195359 -0.0586976 0)
(0.173704 0.140846 0)
(0.149304 -0.175914 -1.80523e-17)
(0.169752 0.131779 -1.80557e-17)
(0.204366 0.0546632 0)
(0.170101 0.116331 -1.80625e-17)
(0.190203 -0.0748749 -9.09608e-18)
(0.182742 0.107824 1.80492e-17)
(0.190768 -0.046057 -1.86459e-17)
(0.202827 0.0455009 1.81956e-17)
(0.178809 -0.0829727 0)
(0.157289 0.123121 -9.0277e-18)
(0.15055 0.109302 -3.19527e-17)
(0.179877 0.0929895 0)
(0.15813 0.109737 0)
(0.197861 0.0595541 2.71319e-17)
(0.148854 -0.167553 -1.77322e-17)
(0.128547 0.149702 0)
(0.174321 0.108529 1.80604e-17)
(0.108715 0.153158 3.8047e-17)
(0.18627 0.0989558 -1.80429e-17)
(0.155202 -0.138291 0)
(0.167571 0.0891919 3.8481e-17)
(0.160967 0.130841 9.01283e-18)
(0.154245 -0.13099 0)
(0.142653 0.14916 1.80334e-17)
(0.182204 0.0470486 -9.94587e-18)
(0.129314 0.166714 0)
(0.194361 0.0436502 0)
(0.186424 0.0224526 0)
(0.164121 0.166147 1.58331e-17)
(0.18588 0.0101066 -8.7731e-18)
(0.184907 -0.0676893 -2.21778e-17)
(0.155324 0.137536 0)
(0.133488 0.137574 9.2818e-18)
(0.157907 0.146003 -1.80184e-17)
(0.145891 0.115274 3.0501e-17)
(0.148426 -0.143085 0)
(0.131699 0.130084 -7.84065e-18)
(0.141275 0.140618 0)
(0.194639 0.0223447 0)
(0.163225 0.177379 0)
(0.181545 -0.0558803 0)
(0.188971 0.0483475 9.11211e-18)
(0.198321 0.0162191 0)
(0.147287 0.135216 0)
(0.19454 0.0090888 -9.1729e-18)
(0.192694 -0.00371402 -9.01777e-18)
(0.169343 0.102017 0)
(0.136541 0.162655 0)
(0.172517 0.0945802 0)
(0.197353 0.00269321 3.62296e-17)
(0.192745 0.0355183 2.75449e-17)
(0.161994 0.102773 0)
(0.18742 -0.0600758 1.56846e-17)
(0.0920206 0.191238 -1.82071e-17)
(0.151015 0.152144 1.80234e-17)
(0.128198 0.175716 -1.80491e-17)
(0.12798 0.211747 1.78451e-22)
(0.13713 0.125534 0)
(0.133179 -0.175782 0)
(0.0792022 0.172841 1.75105e-17)
(0.16663 -0.218137 0)
(0.149541 0.122236 0)
(0.170346 0.15855 -1.60053e-17)
(0.12764 -0.153717 -2.30472e-17)
(0.153016 0.181719 0)
(0.12005 0.203639 -1.79471e-17)
(0.144918 0.12783 0)
(0.15263 0.162121 -1.80147e-17)
(0.133458 0.191238 -8.99827e-18)
(0.124197 0.193713 3.60077e-17)
(0.144783 0.167135 0)
(0.135867 0.153923 -1.80193e-17)
(0.10343 0.182914 9.07378e-18)
(0.144145 0.176958 0)
(0.0703506 0.191221 2.27614e-17)
(0.135808 0.181089 -9.01101e-18)
(0.109212 0.188933 -1.80972e-17)
(0.160896 0.0899117 -1.69445e-17)
(0.0638926 0.190923 -9.15943e-18)
(0.157291 0.0965797 0)
(0.115049 0.164962 -1.8231e-17)
(0.130642 -0.210487 0)
(0.136513 -0.254639 2.69024e-17)
(0.120292 0.178595 2.71022e-17)
(0.090999 0.177995 1.81782e-17)
(0.138817 0.209914 3.6134e-17)
(0.152265 0.193495 -9.55636e-18)
(0.148322 0.218918 -1.81732e-17)
(0.0937302 0.171012 0)
(0.0202916 -0.230943 0)
(0.0959054 0.184094 -1.81835e-17)
(0.0603656 0.196244 3.78493e-17)
(0.142447 0.197783 0)
(0.117479 0.187258 -2.71038e-17)
(0.0834373 -0.250431 -5.07308e-21)
(0.0804537 0.197873 9.16731e-18)
(0.100386 0.16968 0)
(0.1063 0.175213 9.20774e-18)
(0.0880781 0.165158 -2.73639e-17)
(0.0787151 0.163538 0)
(0.100545 -0.284122 2.08413e-17)
(0.0326785 0.213437 -3.90304e-17)
(0.0051032 -0.302181 0)
(0.113542 0.173074 0)
(0.115626 -0.217492 -1.82203e-17)
(0.110236 -0.232349 0)
(0.0816883 0.166828 1.82202e-17)
(0.0378069 0.22061 5.24966e-19)
(0.035924 -0.257241 -1.99253e-17)
(0.0736351 0.197408 -1.84222e-17)
(0.211407 -0.136968 -1.48987e-17)
(0.0907866 -0.235811 1.82793e-17)
(0.0104653 -0.32927 0)
(0.0415047 0.229655 0)
(0.0443116 0.236479 6.1727e-17)
(0.0110079 -0.248612 -4.04383e-17)
(0.0416243 0.243668 -3.91681e-17)
(0.167002 -0.0557876 0)
(0.0296673 0.204424 1.94312e-17)
(0.0571759 -0.259411 -2.85168e-17)
(0.0635427 -0.245896 2.86798e-17)
(0.00985169 -0.166782 0)
(0.0342583 0.264043 -1.96079e-17)
(0.0284103 0.203286 -6.01275e-17)
(0.000707429 -0.167172 -1.91365e-17)
(0.162522 0.200457 2.63546e-21)
(0.0403402 0.214155 1.68766e-17)
(0.0406323 -0.248424 -1.95743e-17)
(0.159855 0.215179 9.29285e-18)
(0.0449677 0.223152 0)
(0.186526 0.169824 -2.12862e-17)
(0.0351601 0.206815 4.38775e-17)
(0.0484219 0.231474 -2.08586e-17)
(0.0499857 0.240333 -2.89832e-22)
(0.164028 -0.064882 2.97602e-17)
(0.180733 -0.00835505 1.03213e-21)
(0.239128 -0.0540451 3.57138e-17)
(0.181485 0.00333508 1.30481e-17)
(0.163647 -0.223293 0)
(0.0233999 -0.211559 2.03708e-17)
(0.0480689 0.255281 0)
(0.172826 0.0497374 -1.19926e-17)
(0.0310808 0.199478 -6.2956e-19)
(-0.00197789 -0.126875 0)
(0.0344788 0.198007 5.7907e-19)
(0.0523574 0.205622 2.02567e-17)
(0.0501201 0.281493 -2.32166e-17)
(0.0305981 -0.13213 -5.77585e-18)
(0.0829403 -0.220997 4.84783e-18)
(0.164265 -0.033486 2.82022e-17)
(0.172385 0.044662 2.10718e-17)
(0.156791 0.0844852 -2.24169e-17)
(0.316028 -0.0564632 1.73459e-17)
(0.172939 -0.200037 0)
(0.176088 -0.0261351 1.05935e-17)
(0.174186 0.0280658 0)
(0.0861685 0.250109 1.66404e-17)
(0.0409848 -0.208286 0)
(0.184937 0.247252 -3.95978e-17)
(0.256012 0.090798 -2.14975e-17)
(0.184201 -0.00270511 -1.77697e-17)
(0.083966 -0.170655 -1.53215e-17)
(0.173246 -0.0469387 0)
(0.281014 0.000883807 9.93415e-19)
(0.17166 0.0427627 0)
(0.167554 -0.0666165 -3.15641e-17)
(0.162819 -0.0659737 -1.492e-17)
(0.17153 -0.0519734 -5.24565e-18)
(0.0504126 -0.117482 3.89994e-17)
(0.10886 -0.164601 0)
(0.0321951 -0.219439 1.67768e-17)
(0.184132 0.180821 0)
(0.1642 -0.0711129 -2.84815e-17)
(0.00370006 -0.280875 -2.15484e-17)
(0.248823 0.0497073 1.99882e-17)
(0.182797 0.0279252 0)
(0.181122 0.0398197 -5.2409e-18)
(0.055302 0.185181 0)
(0.201231 0.227437 1.95221e-17)
(0.0421927 -0.281948 6.35726e-19)
(-0.00113951 -0.210625 4.27959e-17)
(0.165983 -0.209929 0)
(0.0214007 -0.31938 1.84309e-17)
(0.0221777 -0.279978 1.97124e-17)
(0.0226138 -0.332327 1.03719e-17)
(0.0761251 -0.17925 -2.87014e-21)
(0.270194 -0.027238 -2.73356e-17)
(0.0488401 0.200373 0)
(0.193304 -0.147367 0)
(0.0394711 0.187875 -1.00306e-17)
(0.251511 0.0642528 2.05116e-17)
(0.0489047 0.181902 0)
(0.0212584 -0.146968 1.00265e-17)
(0.0558521 0.177485 -1.67317e-17)
(0.0384919 -0.163664 0)
(0.0351601 -0.311488 0)
(0.0261601 0.128206 -1.43824e-21)
(0.0390492 0.121318 1.73863e-17)
(0.0173624 -0.102412 9.7945e-18)
(0.0221855 -0.272184 -1.01585e-17)
(0.218504 -0.0859455 0)
(0.0962865 0.157442 1.97785e-17)
(0.179212 -0.16612 -1.0176e-17)
(0.119543 0.126365 -9.91306e-18)
(0.133887 0.112324 0)
(0.149299 0.0869243 0)
(0.158969 0.0593117 8.90234e-18)
(0.089531 0.152577 -1.90284e-17)
(0.0846484 0.0811407 0)
(0.144943 0.0962051 1.66396e-17)
(0.147904 -0.0910866 0)
(0.113036 0.133703 9.80179e-18)
(0.114987 -0.143497 -1.91452e-17)
(0.151005 0.0757741 2.53974e-18)
(0.153859 0.0662193 1.5257e-17)
(0.0973023 0.145493 -2.01491e-17)
(0.104958 0.139117 -2.03642e-17)
(0.10362 -0.145209 0)
(0.13988 0.104914 1.86019e-17)
(0.0898405 0.0761497 0)
(0.103008 0.0523267 -2.39925e-18)
(0.105539 0.0396004 0)
(0.0654372 0.0994692 0)
(0.075173 0.0907227 -9.85177e-18)
(0.0973668 -0.0667514 1.07728e-21)
(0.0723957 -0.0985014 0)
(0.0981926 0.0656463 -1.56908e-17)
(0.237388 -0.0354544 -1.06152e-17)
(0.134515 0.11863 -1.94608e-17)
(0.268086 0.0862759 0)
(0.000869102 -0.25026 -1.06904e-21)
(0.103448 0.149679 -3.17096e-17)
(0.187056 0.216411 -2.27281e-17)
(0.044778 -0.217253 0)
(0.139179 -0.108281 -3.8878e-17)
(0.089964 0.159176 -9.65913e-18)
(0.0509882 0.189304 0)
(0.146751 0.102635 1.96807e-17)
(0.0760943 -0.303742 -1.10596e-17)
(0.0872266 0.15725 2.19753e-17)
(0.09317 -0.0712348 1.97149e-17)
(0.201799 0.152492 1.04326e-17)
(0.178693 0.161368 3.06066e-17)
(0.265249 0.167833 1.08776e-17)
(0.154131 -0.0984299 0)
(0.151787 -0.0810253 -3.87387e-17)
(0.157047 -0.071634 -4.73496e-18)
(0.123657 -0.142903 2.96989e-17)
(0.00987219 -0.30308 -2.04688e-17)
(0.228493 -0.0548791 -3.34167e-17)
(0.270408 0.143636 1.60989e-17)
(0.0490236 0.21439 -2.67695e-17)
(0.0528475 -0.297412 5.20891e-18)
(0.237171 0.0463731 2.00338e-17)
(0.231022 0.065973 -3.01029e-17)
(0.165059 0.0775462 4.18888e-17)
(0.222044 -0.183159 0)
(0.103213 -0.280434 -2.1399e-17)
(0.0734994 0.164993 3.35879e-17)
(0.130048 -0.132649 -1.97196e-17)
(0.0753145 -0.304801 1.16603e-17)
(0.222069 0.170956 -5.14233e-18)
(0.0191597 0.134057 0)
(0.185875 0.035022 -1.01537e-17)
(0.173715 -0.178348 -2.15079e-17)
(0.13122 -0.132313 2.00203e-17)
(0.107962 -0.27764 1.29384e-17)
(0.0500086 0.11268 -2.17017e-17)
(0.0423903 -0.193298 1.16132e-17)
(0.252838 0.00225618 -1.61405e-17)
(0.0119326 -0.204772 0)
(0.117743 0.131283 3.71106e-17)
(0.176259 -0.0287938 -2.04402e-17)
(0.178117 -0.0186665 2.60591e-17)
(0.103163 -0.0540591 2.47345e-17)
(0.229089 -0.032293 5.19429e-18)
(0.234249 -0.0157968 -1.10405e-17)
(0.164399 -0.016042 -2.29448e-17)
(0.164754 -0.00633283 2.18319e-17)
(0.171487 0.182895 0)
(0.126749 0.119278 0)
(0.00939201 -0.318669 -2.24968e-17)
(0.007779 -0.0346181 -1.11965e-17)
(0.0363809 0.192336 -2.18039e-17)
(0.0146896 -0.330771 4.65015e-21)
(0.119268 -0.149112 1.01599e-17)
(0.142773 -0.0991321 -2.04876e-17)
(0.00694283 -0.0676164 0)
(0.0232679 0.2339 0)
(0.205951 -0.170692 3.68589e-17)
(0.00434479 0.144482 -3.64919e-17)
(0.0873164 -0.0835505 -1.03922e-17)
(0.112117 0.139497 1.19238e-17)
(-4.2776e-05 -0.0655932 2.11731e-17)
(0.0379511 0.18577 2.38294e-17)
(0.164378 0.0689868 0)
(0.140598 0.112977 0)
(0.160213 0.0706605 -1.06805e-17)
(0.0133387 0.197044 1.24259e-17)
(0.120228 0.13273 -9.72564e-18)
(0.0556112 -0.170362 -1.6109e-17)
(0.0196026 -0.173924 1.07095e-17)
(0.174013 0.0254043 -2.64439e-18)
(0.171354 0.0323511 -3.6372e-17)
(0.038674 0.203015 -2.54953e-17)
(0.141118 -0.115574 6.18976e-18)
(0.104792 0.144192 2.62438e-17)
(0.106748 -0.0261346 1.08223e-21)
(0.192176 -0.138691 1.84298e-17)
(0.162269 -0.0454275 2.16e-17)
(0.150069 0.0931365 -1.03338e-17)
(0.0449139 0.184497 -3.46847e-17)
(-0.00565494 -0.148129 2.28497e-17)
(0.156919 -0.0510976 -1.06544e-17)
(0.15818 -0.0616081 -2.13048e-17)
(0.138264 -0.123822 1.854e-17)
(0.0901991 0.15394 -2.51644e-18)
(0.0834679 -0.0887815 5.23451e-18)
(0.0655204 0.169814 4.62915e-18)
(0.165674 0.0224821 0)
(0.154228 0.0294362 7.07702e-18)
(0.0429331 0.203467 1.1383e-17)
(0.217449 -0.166964 2.48403e-17)
(0.0526246 0.230321 0)
(0.170712 -0.0368916 -4.43292e-18)
(0.214269 -0.0954652 2.52538e-17)
(0.239901 -0.0755546 1.3995e-17)
(0.0677855 0.246499 0)
(-9.50567e-05 -0.048268 -2.22276e-17)
(0.18489 -0.160743 1.15101e-17)
(0.106784 -0.00783831 -2.94187e-18)
(0.0533539 0.224139 -1.50323e-18)
(0.194038 0.190706 5.48963e-18)
(-0.00432061 -0.0332894 2.44058e-17)
(0.0552143 0.258836 0)
(0.229378 -0.102247 0)
(0.201943 -0.153119 0)
(0.185556 0.201859 -1.21184e-17)
(0.126852 0.127703 0)
(0.225861 0.15427 2.01858e-17)
(0.0334787 -0.29046 -1.18683e-17)
(-0.00160392 -0.0643862 -1.24292e-17)
(0.0600093 0.247871 0)
(0.230974 -0.075024 -6.21245e-18)
(0.13336 0.113754 0)
(0.2498 0.141204 6.88278e-19)
(0.0554224 0.283066 1.15194e-17)
(0.0257333 -0.0892603 1.74328e-17)
(0.174643 -0.194621 0)
(0.0684817 -0.176104 2.2453e-17)
(0.0688106 0.23727 0)
(0.0548202 0.24085 0)
(0.0747215 -0.251793 1.49015e-18)
(0.245201 -0.0648058 -2.17768e-17)
(0.0702155 -0.171546 -1.28344e-18)
(0.151445 -0.0916615 0)
(0.255503 0.110538 4.23442e-17)
(0.0759646 0.254693 1.198e-18)
(0.0318776 0.195268 -1.07764e-17)
(0.133207 -0.115536 0)
(0.152353 0.0956429 -9.56675e-18)
(0.177354 -0.188309 -2.59336e-17)
(0.154738 -0.0873346 2.39711e-17)
(0.110807 0.140522 1.14173e-17)
(0.181638 -0.188302 1.05052e-17)
(0.18822 0.151901 -1.12914e-17)
(0.00599486 -0.123194 -2.32431e-17)
(0.158254 -0.0931057 -2.18153e-17)
(0.144018 0.0975661 0)
(0.164601 -0.0739294 1.5377e-17)
(0.176209 -0.205364 5.26862e-18)
(0.2254 -0.067946 2.0521e-17)
(0.048358 0.189215 5.51482e-18)
(0.0465396 0.20005 0)
(0.222043 -0.122811 2.01278e-17)
(0.215266 -0.113456 3.26656e-17)
(0.25733 -0.0078262 0)
(0.178158 -0.188744 3.34563e-18)
(0.0405322 -0.116022 -1.51897e-17)
(0.260134 -0.0313989 0)
(0.0545059 -0.250286 -1.42219e-18)
(0.244952 0.0847752 -2.03798e-17)
(0.167283 0.0709059 2.76576e-21)
(0.229672 0.0536205 -3.89977e-21)
(0.178664 -0.197993 -5.44274e-18)
(0.136635 -0.122076 -2.46631e-17)
(0.174006 0.0368684 2.71302e-17)
(0.0624632 0.225474 4.78254e-17)
(0.161758 0.0775394 -2.49029e-17)
(0.102111 -0.0373288 3.63042e-17)
(0.271633 -0.0126288 5.11893e-18)
(0.013886 -0.157084 1.21662e-17)
(0.0481796 0.220686 2.36235e-17)
(0.12103 -0.147985 0)
(0.157448 -0.088776 -3.37872e-17)
(0.125453 -0.138425 -2.1135e-17)
(0.120186 0.127977 5.82757e-18)
(0.210836 -0.149389 0)
(0.058344 0.222319 -2.52974e-17)
(0.12288 -0.142637 -2.48447e-17)
(0.265289 0.0683888 0)
(0.0518701 -0.172966 1.35283e-17)
(0.0789903 -0.293485 1.50413e-17)
(0.173662 -0.188124 -1.23917e-17)
(0.128463 -0.137429 1.51703e-18)
(0.0196923 -0.201059 0)
(0.00372862 -0.331343 3.69779e-21)
(0.0977495 0.152148 0)
(0.120593 -0.135386 2.17548e-17)
(0.11469 -0.152397 -3.09237e-18)
(0.171425 0.222588 1.2371e-17)
(0.0209574 -0.13613 0)
(0.0358054 0.276755 2.61657e-17)
(0.276677 -0.0515588 2.46367e-17)
(0.142461 -0.116959 -6.24491e-18)
(0.219695 -0.155412 -2.022e-17)
(0.177051 -0.19015 -4.216e-17)
(0.0564711 0.217666 0)
(0.178706 -0.0266636 0)
(0.102907 0.144266 -2.58664e-17)
(0.0986263 0.148005 3.35961e-17)
(0.22842 -0.0854483 1.06663e-17)
(0.225615 -0.0203366 1.22042e-17)
(0.11229 -0.158097 8.86318e-18)
(-0.00686736 -0.128892 -1.3469e-17)
(0.0370106 0.197538 0)
(0.095702 0.151282 0)
(0.192498 -0.165651 0)
(0.0890925 -0.292237 -8.8278e-19)
(0.0995865 0.0158147 1.39172e-17)
(0.17244 0.0382632 6.58738e-18)
(0.0310897 0.205149 3.45366e-17)
(0.056095 -0.190424 -9.99767e-22)
(0.242446 -0.0857223 2.61395e-17)
(0.160195 -0.0807689 6.57835e-18)
(0.0234724 0.200616 -1.01596e-21)
(0.172442 0.195113 0)
(0.200619 -0.163261 -2.25446e-17)
(0.0574548 0.234515 0)
(0.0630211 0.232476 -2.26781e-17)
(0.173409 0.0323015 0)
(0.154511 -0.080844 1.95933e-17)
(0.154341 0.0783288 -6.37486e-18)
(0.0591649 -0.178942 -1.44722e-17)
(0.255273 0.167962 0)
(0.0262325 0.199617 1.93484e-17)
(0.157861 -0.0799669 6.45332e-18)
(0.105169 0.141347 2.63067e-17)
(0.08232 -0.272338 0)
(0.181761 -0.19092 -2.57631e-17)
(0.15947 0.0753142 6.24069e-18)
(-0.00472821 -0.126728 -2.53992e-17)
(0.204657 -0.180714 -2.69296e-17)
(0.137902 -0.116119 0)
(0.0675176 -0.292114 -7.39927e-18)
(0.234731 -0.0969975 -1.75662e-17)
(0.218627 -0.103056 -1.70763e-17)
(0.183833 -0.189113 3.28437e-17)
(-0.00153513 -0.0774944 2.83844e-17)
(0.243502 0.15233 0)
(0.0936475 -0.273363 -9.33317e-18)
(0.0915474 -0.284315 -2.86805e-17)
)
;

boundaryField
{
    back
    {
        type            empty;
    }
    front
    {
        type            empty;
    }
    top
    {
        type            codedFixedValue;
        value           nonuniform List<vector> 10((0 -0.30576 0) (0 -0.33264 0) (0 -0.252 0) (0 -0.17136 0) (0 -0.17136 0) (0 -0.252 0) (0 -0.30576 0) (0 -0.06384 0) (0 -0.06384 0) (0 -0.33264 0));