/*--------------------------------*- C++ -*----------------------------------*\
  =========                 |
  \\      /  F ield         | OpenFOAM: The Open Source CFD Toolbox
   \\    /   O peration     | Website:  https://openfoam.org
    \\  /    A nd           | Version:  9
     \\/     M anipulation  |
\*---------------------------------------------------------------------------*/
FoamFile
{
    format      ascii;
    class       surfaceScalarField;
    location    "0.35";
    object      phi;
}
// * * * * * * * * * * * * * * * * * * * * * * * * * * * * * * * * * * * * * //

dimensions      [0 3 -1 0 0 0 0];

internalField   nonuniform List<scalar> 
663
(
-3.25651e-08
-1.51097e-09
3.40761e-08
-1.55798e-08
-8.81336e-09
1.7371e-08
8.87898e-09
2.46452e-09
-2.22409e-08
1.97763e-08
3.38223e-09
-1.89621e-08
-8.47523e-09
2.58463e-08
-1.03314e-09
-3.1532e-08
-2.27738e-08
2.52383e-08
-2.20769e-09
-3.38364e-08
3.60441e-08
-3.41773e-08
3.19696e-08
-2.96317e-08
2.81208e-08
1.46934e-08
-2.19641e-08
7.27073e-09
-3.48695e-08
1.82937e-08
-3.60028e-09
-1.68061e-08
1.89623e-08
-2.15616e-09
-1.77229e-08
9.16781e-10
-1.65974e-08
1.76064e-08
-1.00907e-09
-1.79961e-08
1.39876e-09
2.20881e-08
-2.20881e-08
-2.41931e-08
2.88452e-08
-4.65217e-09
2.94448e-09
-2.71375e-08
2.39964e-08
1.97499e-09
-2.59714e-08
2.77621e-08
-3.76565e-09
1.62553e-08
7.62957e-09
-2.38849e-08
-2.67e-08
4.45916e-09
-7.7829e-09
2.40382e-08
-1.53534e-08
1.81973e-08
-2.84386e-09
2.70621e-08
-2.99274e-08
2.86536e-09
-2.26019e-08
7.24849e-09
-1.64833e-08
2.66699e-08
-1.01866e-08
9.11078e-09
-2.55941e-08
1.83394e-08
-2.85193e-08
1.01799e-08
-6.2563e-09
2.45957e-08
-2.07446e-08
2.77293e-08
-6.98473e-09
-2.85806e-08
7.83596e-09
-1.44371e-08
-3.55902e-09
-2.24637e-08
8.02655e-09
4.11972e-09
1.79684e-08
-1.97949e-09
2.90416e-08
1.93336e-08
-2.28957e-09
-1.7044e-08
1.71243e-08
1.17209e-08
-1.75038e-08
2.73081e-08
-9.80426e-09
1.02583e-08
1.51343e-08
3.06292e-09
-6.82979e-09
1.61074e-09
-3.05362e-08
2.95223e-08
1.01383e-09
-2.63019e-08
2.73206e-08
-1.01874e-09
-1.59889e-08
1.59889e-08
-2.58077e-08
-7.42068e-09
2.4545e-08
2.87069e-08
-2.3047e-09
-2.64022e-08
2.18108e-08
-3.41557e-09
-1.83952e-08
-1.17929e-09
-3.03856e-08
3.15649e-08
2.95087e-08
-3.0688e-08
3.42404e-09
2.52829e-08
-2.71121e-08
-6.00294e-10
-3.1805e-08
3.24053e-08
2.97212e-08
-3.03215e-08
1.96828e-08
2.12796e-09
-1.79684e-08
2.90818e-08
-2.87172e-08
-3.6456e-10
-3.24623e-08
3.21858e-08
2.76481e-10
3.13352e-08
-3.13849e-08
4.97228e-11
-1.7994e-09
-3.23779e-08
5.68244e-11
-3.04424e-08
-2.98089e-08
3.00924e-08
-2.83561e-10
1.36842e-08
-2.2361e-08
-8.76357e-10
3.0385e-08
3.04289e-08
-7.07718e-10
2.72824e-08
-1.70795e-08
-5.52237e-09
1.83396e-10
-2.64853e-08
2.94041e-10
2.18302e-08
-2.21243e-08
2.63934e-09
4.44296e-10
-3.02532e-08
-6.54194e-10
3.47303e-08
-3.20077e-08
2.02715e-10
1.88273e-09
-2.14351e-08
4.08189e-09
1.73532e-08
2.47939e-08
1.69282e-11
-2.48108e-08
2.5014e-10
8.06785e-09
-8.31799e-09
1.96184e-09
-1.88102e-08
1.68484e-08
-2.11849e-08
-4.34688e-10
-3.20276e-08
9.41727e-10
-2.9659e-08
2.67557e-08
-1.43648e-09
2.48306e-08
-2.33941e-08
-2.96635e-08
2.99575e-08
-2.15495e-08
3.13643e-08
2.97788e-08
-3.03149e-08
5.36169e-10
-1.62882e-08
3.27344e-10
1.59608e-08
3.00392e-08
-2.60413e-10
3.26301e-08
-6.72564e-10
2.62682e-08
-2.62512e-08
1.06337e-10
8.55644e-09
-8.66278e-09
-3.3194e-08
-1.67549e-09
2.59694e-08
-2.74059e-08
2.61653e-09
2.47041e-08
2.52984e-08
6.70992e-10
-2.11432e-08
-7.37613e-09
6.58615e-09
8.06785e-09
-1.88102e-08
3.00729e-08
1.95738e-11
-1.70362e-10
-2.13791e-08
-3.08218e-08
2.96843e-08
1.13754e-09
3.00075e-08
-2.03712e-10
-2.98038e-08
2.97057e-08
-2.42079e-10
-2.16613e-08
2.17676e-08
2.64706e-08
-1.64002e-09
2.5704e-08
-4.05561e-10
8.31799e-09
-8.48835e-09
3.15736e-09
-1.68484e-08
1.3691e-08
8.55644e-09
-2.46411e-08
2.77985e-08
-2.82053e-08
-3.39953e-08
8.01214e-10
-3.31117e-08
3.40534e-08
-3.19175e-08
3.85543e-10
2.99942e-08
2.97625e-08
2.44963e-10
1.74057e-10
-3.32858e-08
-2.24193e-08
2.22156e-08
-1.89762e-08
-9.60441e-09
8.31071e-09
-8.31071e-09
2.59625e-08
-2.5846e-10
6.41968e-11
2.29677e-08
-2.30319e-08
-8.48835e-09
1.3691e-08
2.80419e-08
-2.51766e-08
1.0199e-08
-1.0199e-08
-1.19412e-08
1.20054e-08
2.35426e-10
-2.36313e-08
2.29235e-08
2.60651e-08
1.19412e-08
1.74987e-09
-6.80221e-11
2.18983e-08
2.62886e-08
-3.26121e-10
2.11457e-09
-3.07436e-08
-6.41232e-10
9.4781e-09
7.2088e-10
2.75887e-08
-1.30008e-09
2.85673e-08
-2.88257e-08
3.12353e-08
-3.03157e-08
-9.19621e-10
2.99878e-08
-2.25337e-10
6.80917e-11
-1.20054e-08
1.80637e-09
1.46232e-08
2.98328e-09
2.81077e-08
-5.18998e-10
-3.38212e-08
2.4793e-10
-2.16271e-08
-3.38144e-08
-3.15416e-10
3.41298e-08
2.761e-08
4.97626e-10
-4.68896e-11
-2.20774e-08
9.4781e-09
-6.80986e-10
1.01591e-08
1.81981e-10
-3.39964e-08
2.10743e-08
-2.17553e-08
-3.10584e-10
-2.29898e-08
2.33003e-08
-8.77769e-09
8.77769e-09
-8.86487e-09
8.71813e-11
-2.9411e-08
-8.7308e-09
8.66278e-09
2.49427e-08
8.7308e-09
-7.42608e-11
-2.2345e-08
2.79685e-08
-3.58461e-10
-5.39094e-10
2.85076e-08
3.14444e-08
-2.09112e-10
-9.36162e-10
2.28883e-08
-2.19521e-08
-3.12858e-08
3.07467e-08
-4.97976e-11
2.27533e-08
-2.27035e-08
-8.39236e-09
8.39236e-09
-9.32852e-09
-7.89229e-09
7.58171e-09
7.89229e-09
5.00061e-10
9.0333e-09
-9.0831e-09
9.0333e-09
-8.93914e-09
8.86488e-09
-2.54782e-08
1.00369e-09
2.44745e-08
8.93914e-09
9.41612e-11
1.14631e-08
-1.14631e-08
-7.74133e-10
-5.66922e-10
-2.97546e-08
-2.39463e-08
2.33794e-08
2.40188e-08
-2.49348e-08
2.40585e-08
-4.60314e-10
-2.36989e-08
-2.47357e-10
1.02286e-08
-1.0689e-08
-2.43823e-08
6.83339e-10
1.0689e-08
1.02286e-08
9.90486e-09
-9.90486e-09
9.6575e-09
-9.0831e-09
1.36842e-08
8.5055e-09
-8.5055e-09
1.01591e-08
7.58171e-09
8.09165e-09
-8.09165e-09
9.6575e-09
-9.32852e-09
3.23784e-10
8.21271e-10
2.85644e-08
2.95961e-08
-1.03172e-09
3.04174e-08
1.70345e-09
3.16287e-08
-3.33321e-08
2.99499e-08
4.67543e-10
2.99996e-08
3.1703e-08
3.00582e-08
1.57051e-09
6.27217e-11
2.99955e-08
3.77669e-10
2.82435e-08
-2.6673e-08
3.19057e-08
-2.98241e-08
-1.92529e-09
3.17494e-08
-2.9954e-08
1.29846e-10
3.19685e-08
2.80463e-08
-2.99716e-08
3.23461e-08
-2.40159e-10
3.19896e-08
4.14763e-11
3.2476e-08
3.27525e-08
2.70372e-08
3.25123e-08
-1.79706e-09
2.58159e-08
3.27217e-08
-7.32117e-10
8.36203e-09
-1.42384e-09
3.41455e-08
2.63051e-08
2.39267e-10
-3.23869e-08
3.21476e-08
3.24365e-10
3.27751e-08
-2.6284e-10
3.13513e-08
-2.86819e-08
2.81629e-08
8.36203e-09
3.15906e-08
1.20354e-10
3.22637e-08
-3.23841e-08
3.15836e-08
6.9929e-12
1.39913e-10
-3.27226e-08
3.25827e-08
3.17801e-08
-1.96554e-10
3.2494e-08
-3.33659e-08
8.71841e-10
3.19005e-08
3.2676e-08
3.20404e-08
2.64019e-08
-2.70783e-08
2.49221e-08
1.45494e-09
-3.48208e-08
2.67491e-08
3.22871e-08
-2.46706e-10
-3.3746e-08
-2.50368e-10
-2.62065e-08
-3.11163e-08
3.22911e-08
-3.9482e-12
-2.51894e-10
-9.40561e-09
9.40561e-09
2.36984e-10
3.28977e-08
-3.31481e-08
-1.92911e-09
2.79942e-08
-1.20236e-09
-2.3603e-09
2.72824e-08
3.33511e-08
-4.53348e-10
2.35846e-10
9.16977e-09
-3.3051e-08
-2.34787e-10
-2.90412e-08
3.30357e-08
3.33396e-08
-3.03971e-10
2.88673e-10
-2.76681e-08
-2.93049e-08
-3.23673e-08
2.31594e-08
-9.16977e-09
8.66688e-11
-2.26054e-08
2.25113e-08
-2.96458e-08
3.32102e-08
-5.79523e-12
2.88052e-08
-2.87995e-08
2.00549e-09
-1.61238e-08
-6.33989e-09
3.26838e-08
-3.24872e-08
3.55904e-09
-2.1559e-08
2.23027e-08
2.97438e-08
-3.22347e-10
-3.34989e-08
3.28277e-08
-3.28237e-08
-2.08641e-10
-2.94372e-08
-2.93016e-08
6.52785e-09
3.11221e-08
2.29998e-08
3.67012e-09
-2.29871e-08
-1.24818e-08
1.24818e-08
-2.97412e-08
-2.32184e-08
-3.9191e-09
-1.61588e-08
-2.10464e-08
1.5702e-08
1.0548e-08
3.04271e-08
-2.96634e-08
-2.97165e-09
1.0998e-08
1.5252e-08
4.08962e-09
1.40496e-08
1.22004e-08
-1.65541e-08
-1.6669e-08
2.95042e-08
-1.84415e-09
-2.33324e-08
-2.58952e-10
-1.50047e-09
-2.29004e-08
-6.45896e-09
1.77748e-08
-6.45896e-09
1.77748e-08
1.99176e-08
-2.8731e-08
-1.44251e-08
2.33041e-08
3.53899e-08
1.03546e-09
-1.60889e-09
2.84481e-08
-1.59113e-08
-6.17677e-09
3.53071e-09
-2.25069e-08
4.71043e-09
1.76119e-08
-1.36891e-08
2.58895e-08
-5.24779e-09
2.17601e-08
1.84214e-08
-3.79825e-09
5.24779e-09
2.19755e-08
1.69448e-08
-6.20892e-09
-1.93618e-08
5.29214e-09
-1.64036e-08
1.59036e-08
2.48876e-08
2.45411e-08
-2.46409e-08
-2.45481e-08
1.84853e-08
-6.34524e-09
4.94648e-09
2.19036e-08
-2.19451e-08
-4.94646e-09
4.94646e-09
-2.16112e-08
-2.10275e-08
2.68276e-08
2.55956e-08
-1.76657e-08
-2.1551e-08
-1.35566e-08
1.18249e-08
1.1894e-08
1.25609e-08
1.92311e-08
1.80613e-08
6.71592e-09
-6.71592e-09
-1.59113e-08
-3.5071e-09
1.03387e-08
-2.63333e-09
3.4603e-08
-2.2471e-09
-2.10853e-08
1.94257e-08
2.94712e-09
-2.23729e-08
1.9715e-08
-1.9044e-08
4.71043e-09
-2.80548e-08
-1.45575e-08
-1.24537e-08
-6.20892e-09
-5.29214e-09
2.05998e-08
-6.34524e-09
-4.94648e-09
-2.11437e-08
-2.57959e-08
2.42955e-08
2.05299e-08
4.99427e-09
1.67228e-08
-2.28996e-08
1.1332e-08
)
;

boundaryField
{
    back
    {
        type            empty;
        value           nonuniform List<scalar> 0();
    }
    front
    {
        type            empty;
        value           nonuniform List<scalar> 0();
    }
    left
    {
        type            calculated;
        value           uniform 0;
    }
    top
    {
        type            calculated;
        value           nonuniform List<scalar> 8(-2.625e-08 -2.625e-08 -2.625e-08 -2.625e-08 -2.625e-08 -2.625e-08 -2.625e-08 -2.625e-08);
    }
    right
    {
        type            calculated;
        value           uniform 0;
    }
    bottom
    {
        type            calculated;
        value           nonuniform List<scalar> 8(2.43932e-08 3.72051e-08 3.3223e-08 9.84119e-09 3.34742e-08 1.0223e-08 2.43478e-08 3.72924e-08);
    }
}


// ************************************************************************* //
