/*--------------------------------*- C++ -*----------------------------------*\
  =========                 |
  \\      /  F ield         | OpenFOAM: The Open Source CFD Toolbox
   \\    /   O peration     | Website:  https://openfoam.org
    \\  /    A nd           | Version:  9
     \\/     M anipulation  |
\*---------------------------------------------------------------------------*/
FoamFile
{
    format      ascii;
    class       volVectorField;
    location    "0.35";
    object      U;
}
// * * * * * * * * * * * * * * * * * * * * * * * * * * * * * * * * * * * * * //

dimensions      [0 1 -1 0 0 0 0];

internalField   nonuniform List<vector> 
464
(
(0.00367522 -0.940248 -1.60968e-17)
(0.00162473 -0.657971 0)
(0.0153793 -0.698769 0)
(-0.00264449 -0.716177 -3.53717e-16)
(-0.00701983 -0.537598 0)
(0.0773349 -0.755235 8.05856e-17)
(0.00107817 -0.970312 2.7063e-16)
(-0.0110597 -0.718667 0)
(-0.00260832 -1.00374 -9.12114e-20)
(-0.00337982 -0.982727 2.56083e-16)
(0.00591073 -0.840827 1.74421e-17)
(0.00482763 -0.644064 -1.05924e-17)
(-0.000400637 -0.998619 5.13356e-16)
(-0.00802684 -0.52578 0)
(0.00424442 -0.613494 2.32713e-16)
(0.0027643 -0.505014 -3.93255e-16)
(0.00248222 -0.623026 0)
(0.00571041 -0.518758 1.46589e-16)
(-0.0289067 -0.475583 3.17666e-16)
(0.0215394 -0.863602 -2.79945e-16)
(0.0252971 -0.837481 4.53343e-16)
(0.042818 -0.831858 -7.76942e-17)
(0.0371346 -0.843124 3.83847e-17)
(0.0174509 -0.726385 0)
(0.00352489 -0.708715 3.17572e-16)
(0.0288775 -0.740251 -1.64866e-16)
(-0.00542221 -0.532486 -1.83201e-16)
(-0.0621335 -0.804521 2.91259e-16)
(0.00965454 -0.647597 0)
(0.0521291 -0.811265 0)
(0.0465836 -0.79722 -1.97593e-17)
(0.0109705 -0.863401 -2.29097e-18)
(0.00103373 -0.807808 4.09007e-17)
(0.00408329 -0.803868 2.94723e-16)
(0.0117103 -0.867051 -2.89723e-16)
(0.000411681 -0.554513 -4.29195e-16)
(0.0163595 -0.672056 3.46694e-16)
(-0.0493213 -0.66131 4.36785e-17)
(-0.0578444 -0.759027 -2.52752e-18)
(0.00152644 -0.527692 0)
(0.0211348 -0.869377 -4.52652e-16)
(0.0251467 -0.827951 0)
(0.0317838 -0.855209 1.1107e-16)
(0.0085885 -0.519032 -3.84804e-16)
(0.00172791 -0.640319 3.50863e-16)
(0.00597408 -0.606865 2.40811e-17)
(-0.0350117 -0.831616 -2.8318e-16)
(-0.0288458 -0.704907 1.92813e-19)
(-0.0217798 -0.342628 0)
(-0.0656931 -0.776357 -3.55624e-17)
(0.0110634 -0.833245 3.28346e-16)
(-0.0479904 -0.743069 1.85667e-17)
(0.00691301 -0.565713 2.54813e-16)
(-0.0138359 -0.87572 2.68806e-16)
(-0.0216047 -0.870323 8.86156e-18)
(-0.0469452 -0.800922 -2.96812e-16)
(-0.0424969 -0.818571 0)
(-0.0094051 -0.909365 0)
(-0.0131521 -0.88345 2.85045e-16)
(0.00794265 -0.63627 0)
(-0.0417796 -0.577717 -3.94792e-16)
(-0.00483439 -0.828246 -5.85248e-16)
(-0.00546182 -0.931325 -5.43178e-16)
(-0.00804085 -0.899003 2.78288e-16)
(-0.00297009 -0.957965 5.87358e-20)
(-0.0103085 -0.868197 2.84092e-16)
(-0.00928135 -0.842786 2.85191e-16)
(-0.0323622 -0.517514 3.97616e-16)
(0.00379851 -0.787525 -1.44629e-16)
(-0.0207187 -0.846263 -2.8504e-16)
(-0.0122935 -0.845031 -2.84169e-16)
(-0.00305093 -0.885557 2.94599e-16)
(0.00447497 -0.644199 0)
(-0.0376386 -0.791754 -3.1433e-16)
(-0.0041126 -0.686829 3.48179e-16)
(-0.0566611 -0.809166 -2.95798e-16)
(-0.00999769 -0.886573 2.85244e-16)
(0.00306354 -0.966474 -2.59003e-16)
(-0.00710709 -0.911556 2.74433e-16)
(0.0102035 -0.536462 1.86849e-16)
(-0.00975603 -0.647585 0)
(0.0802244 -0.789502 -8.15259e-17)
(0.00177365 -0.312484 5.73235e-16)
(0.0477916 -0.63466 -3.93063e-16)
(-0.000670295 -0.568884 0)
(-0.00823976 -0.91725 -9.99838e-20)
(-0.00465069 -0.887155 2.87714e-16)
(0.0751534 -0.767621 0)
(-0.0129806 -0.742036 0)
(-0.00548701 -0.836683 2.8595e-16)
(-0.00347523 -0.670355 -3.53466e-16)
(-0.00689154 -0.812537 0)
(-0.00792197 -0.888844 -2.8902e-16)
(-0.00579502 -0.602225 -3.29412e-16)
(-0.00738103 -0.840473 2.86089e-16)
(-0.00726789 -0.924405 2.70468e-16)
(-0.0105169 -0.899929 -2.74625e-16)
(0.0453657 -0.736381 7.61725e-17)
(-0.00120111 -0.323846 5.53108e-16)
(-0.00140463 -0.999178 -2.55339e-16)
(0.00235946 -0.740334 0)
(-0.0298957 -0.780326 -1.90525e-17)
(0.010719 -0.754951 0)
(0.00804193 -0.860293 2.27433e-18)
(0.0111152 -0.800592 0)
(-0.000384043 -0.168013 4.8031e-16)
(0.0240509 -0.446243 0)
(-0.00879899 -0.888066 -2.80945e-16)
(-0.00175649 -0.571373 3.53614e-16)
(-0.0252007 -0.861387 0)
(-0.00656892 -0.839417 0)
(-0.0367577 -0.831981 2.90455e-16)
(-0.00825157 -0.84205 0)
(-0.00266434 -0.579178 -3.50187e-16)
(-0.0215318 -0.76092 -9.91717e-18)
(0.00231288 -0.7677 5.06507e-18)
(-0.000992758 -0.317337 -5.62315e-16)
(0.0439817 -0.555068 -4.41957e-16)
(-0.000497478 -0.172769 -4.83924e-16)
(0.0587852 -0.749997 1.89281e-17)
(-0.0301104 -0.840578 -2.66026e-16)
(-1.17412e-05 -0.99462 -8.16988e-18)
(-0.00405147 -0.959317 -2.61122e-16)
(0.00232451 -0.938962 -2.7034e-16)
(-0.0113195 -0.884807 0)
(-0.00635137 -0.889918 -2.85856e-16)
(-0.00326018 -0.980701 2.6605e-16)
(-0.0047623 -0.694771 0)
(0.012389 -0.858818 0)
(-0.00053075 -0.168739 -4.85824e-16)
(0.0273442 -0.382722 3.70852e-16)
(0.00808363 -0.181939 -4.76974e-16)
(-0.028388 -0.390869 3.61228e-16)
(0.00899586 -0.783124 0)
(0.0366629 -0.701933 0)
(-0.000551976 -0.171405 4.84176e-16)
(0.0227128 -0.317038 8.18604e-16)
(-0.0482513 -0.772034 3.05261e-16)
(-0.0035248 -0.98288 -2.59245e-16)
(0.00834488 -0.222743 -4.59566e-16)
(0.0165863 -0.449759 0)
(-0.00706504 -0.889202 0)
(-0.00953598 -0.723189 -1.23433e-19)
(-0.0138716 -0.77023 -3.20346e-16)
(0.0289196 -0.486707 -4.55132e-16)
(-0.00288238 -0.583406 3.50943e-16)
(0.00133841 -0.794578 0)
(0.0682551 -0.803314 0)
(-0.0122423 -0.8886 -1.51909e-20)
(0.00857568 -0.384016 1.03745e-15)
(0.00831892 -0.809492 -9.54489e-18)
(0.0255651 -0.79349 -2.94296e-16)
(0.0029063 -0.959152 2.97495e-16)
(-0.00588464 -0.838311 2.86384e-16)
(-0.000845514 -0.320937 5.45934e-19)
(0.0165003 -0.415651 5.23102e-16)
(0.0129878 -0.549771 0)
(0.00141106 -0.8214 0)
(-0.000642596 -0.995558 2.622e-16)
(-0.00298738 -0.676149 -3.56114e-16)
(-0.000771623 -0.986321 0)
(0.00699689 -0.83414 3.17104e-16)
(-0.00303162 -0.587383 -6.96509e-16)
(0.00238048 -0.203057 -1.70418e-19)
(0.00179154 -0.37765 -5.24975e-16)
(0.0125464 -0.268658 0)
(0.00066271 -0.980453 2.62236e-16)
(0.0139251 -0.641731 -3.57917e-16)
(0.00543964 -0.577161 -3.32715e-16)
(-0.000586506 -0.177402 -9.61446e-16)
(-0.00122231 -0.331552 -1.74179e-19)
(-0.00445554 -0.831768 2.9024e-16)
(-0.000991513 -0.326592 -1.65627e-19)
(0.0373242 -0.78211 7.95134e-17)
(-0.000860706 -0.329126 1.71934e-19)
(-0.00365298 -0.595769 3.46759e-16)
(0.000832944 -0.844115 -3.04819e-16)
(0.00580507 -0.856038 1.17399e-18)
(0.0032642 -0.934133 2.75639e-16)
(0.00451666 -0.596232 -4.1099e-17)
(0.0192177 -0.86517 -2.77995e-16)
(-0.00458448 -0.606243 -3.43211e-16)
(-0.00102789 -0.178241 0)
(-0.00357877 -0.335525 6.00208e-16)
(0.0045311 -0.309261 9.12863e-18)
(0.00343788 -0.32236 1.74491e-17)
(-0.00131256 -0.341256 0)
(-0.000629688 -0.183219 4.76756e-16)
(-0.000318099 -0.176143 9.62307e-16)
(-0.00122965 -0.334642 -1.07561e-18)
(-0.0231473 -0.764777 3.13699e-19)
(-0.00135004 -0.337875 -5.4915e-16)
(-0.00783369 -0.238566 8.78052e-16)
(-0.0221017 -0.683393 3.2699e-16)
(-0.0144755 -0.846493 -2.78384e-19)
(-0.0114991 -0.732655 3.25668e-19)
(0.0168014 -0.745015 3.26052e-16)
(-0.0249386 -0.843748 -2.76088e-19)
(0.0023846 -0.169891 4.96344e-16)
(-0.0178778 -0.753408 -3.25306e-16)
(-0.0161817 -0.667283 0)
(-0.00961758 -0.641185 0)
(-0.00693096 -0.387985 0)
(-0.0141645 -0.742255 -3.22451e-19)
(-0.00066282 -0.181068 0)
(-0.0106113 -0.406424 -8.04319e-18)
(-0.0031644 -0.209943 0)
(-0.00220047 -0.202153 4.63269e-16)
(-0.00337601 -0.365225 -5.30421e-16)
(-0.000642198 -0.174739 -4.82197e-16)
(0.00874443 -0.257185 -4.30134e-16)
(-0.000682235 -0.184788 0)
(-0.0166836 -0.293431 -4.09341e-16)
(-0.00310749 -0.19432 4.78391e-16)
(0.00237355 -0.212244 0)
(-0.000594136 -0.179331 4.79247e-16)
(0.00657937 -0.170258 -4.98813e-16)
(-0.00497132 -0.221105 -4.51143e-16)
(0.00443369 -0.178093 -2.16563e-19)
(-0.00168978 -0.196728 4.6722e-16)
(0.000329492 -0.191146 -4.70292e-16)
(-0.0046801 -0.374945 -5.2384e-16)
(-0.012292 -0.653262 3.3015e-16)
(-0.00930239 -0.884935 -5.54524e-16)
(0.000474298 -0.86491 -2.99532e-16)
(0.00505949 -0.875209 2.81405e-16)
(0.000239449 -0.88333 0)
(0.0130349 -0.906179 -1.31878e-16)
(0.00473833 -0.891726 8.79715e-18)
(0.000718903 -0.898715 2.89448e-16)
(0.00435886 -0.906127 -2.77815e-16)
(0.0102977 -0.895758 3.4153e-17)
(0.00720702 -0.912626 0)
(-0.00637296 -0.922016 2.67409e-16)
(0.0104232 -0.837131 -3.24956e-16)
(0.000451288 -0.913159 0)
(0.00961341 -0.903916 1.17434e-19)
(0.00882978 -0.920475 1.21753e-19)
(0.002855 -0.918141 -2.74369e-16)
(0.0138818 -0.840142 -2.84053e-16)
(-0.000328318 -0.924219 2.76635e-16)
(0.00714843 -0.926758 2.66307e-16)
(0.00993767 -0.900637 -2.8474e-16)
(0.0035345 -0.928266 0)
(0.000731507 -0.935484 0)
(0.00405695 -0.783191 7.53817e-20)
(0.00313725 -0.938716 8.43322e-18)
(0.0132299 -0.638105 0)
(0.00948668 -0.906713 0)
(0.0119656 -0.353826 0)
(0.00893624 -0.929521 2.58691e-16)
(0.00935236 -0.829879 6.01851e-16)
(-0.00490012 -0.947316 2.69613e-16)
(-0.00578282 -0.890099 -2.86031e-16)
(0.000517585 -0.945203 0)
(0.00207102 -0.947275 0)
(-0.0129677 -0.825236 0)
(0.0137117 -0.193733 4.86781e-16)
(-0.000729925 -0.953714 2.80244e-16)
(0.0080618 -0.943266 0)
(0.00196866 -0.956076 -2.74893e-16)
(-0.00388562 -0.959486 -5.3909e-16)
(0.000252487 -0.961356 -2.76576e-16)
(0.00214929 -0.923048 2.61052e-16)
(0.00247765 -0.962657 2.75847e-16)
(0.000974778 -0.951176 -5.40856e-16)
(0.000115307 -0.968822 5.36766e-19)
(-0.0394446 -0.777142 9.47136e-18)
(0.00431131 -0.771225 -1.89465e-16)
(0.00654067 -0.951285 -2.54382e-16)
(0.028047 -0.69213 2.89161e-16)
(0.00222647 -0.970699 0)
(-0.000297408 -0.981948 -2.59643e-16)
(0.00236349 -0.831487 -1.49158e-16)
(0.00163284 -0.965399 8.45589e-18)
(0.000594998 -0.975858 0)
(0.0018179 -0.975512 0)
(-0.00771689 -0.630515 3.35873e-16)
(-0.00138771 -0.191835 0)
(-0.00379271 -0.683051 -1.06212e-19)
(-0.00334178 -0.970077 -2.0859e-18)
(-0.0218644 -0.790332 2.03342e-19)
(-0.00274169 -0.357142 0)
(-0.0376809 -0.71959 3.16305e-16)
(0.0054521 -0.836163 -1.89082e-16)
(-0.00442629 -0.952688 2.6126e-16)
(-0.00224395 -0.349602 5.4599e-16)
(-0.00412095 -0.957616 0)
(-0.0386971 -0.807755 0)
(-0.00361867 -0.973745 -2.65656e-16)
(-0.00452273 -0.955161 -1.03758e-18)
(-0.00339562 -0.977144 2.07343e-18)
(-0.0201574 -0.817183 2.9856e-16)
(-0.0160494 -0.85967 -5.71764e-16)
(-0.00653257 -0.930984 -2.75703e-16)
(-0.00628853 -0.619528 -6.83762e-16)
(-0.00157896 -0.344447 0)
(-0.0053926 -0.698934 1.12047e-19)
(-0.00613291 -0.703845 3.43502e-16)
(-0.00493715 -0.888586 -2.88162e-16)
(0.00313311 -0.92552 3.01521e-16)
(0.000326127 -0.9853 2.44326e-16)
(0.00867554 -0.838569 -5.7927e-16)
(-0.00192232 -0.500288 3.92028e-16)
(0.0146726 -0.661577 -1.82745e-16)
(-0.00625156 -0.936028 2.74705e-16)
(-0.00525856 -0.940931 5.39607e-16)
(0.010633 -0.549731 -1.8215e-16)
(-0.00231965 -0.57551 7.05539e-16)
(-0.00323554 -0.591351 3.46772e-16)
(-0.0179952 -0.876268 2.85155e-16)
(-0.0139547 -0.799169 2.06544e-19)
(-0.00486613 -0.939642 0)
(0.000526311 -0.989609 -4.02511e-18)
(-0.00509339 -0.945201 5.37935e-16)
(-0.00435091 -0.949568 0)
(-0.00103501 -0.18713 -4.7511e-16)
(-0.00478225 -0.833088 0)
(-0.0158688 -0.71142 0)
(0.0027439 -0.961929 -2.73298e-16)
(0.0524157 -0.814027 -2.38551e-16)
(-0.00681683 -0.708941 1.33309e-18)
(-0.00342132 -0.679298 -3.51738e-16)
(-0.00415177 -0.600873 -3.44412e-16)
(-0.00112448 -0.990776 -5.3289e-16)
(-0.015851 -0.432919 2.66751e-19)
(-0.0228668 -0.468121 4.56254e-16)
(0.0030088 -0.933522 2.82893e-16)
(-0.0472558 -0.798561 0)
(-0.00520403 -0.889058 2.88894e-16)
(0.0250162 -0.854457 1.51815e-16)
(-0.00182006 -0.995161 2.57992e-16)
(0.00216664 -0.700627 1.46966e-16)
(-0.00405591 -0.953188 -5.38834e-16)
(-0.017084 -0.846877 2.77965e-19)
(-0.011889 -0.848373 2.89828e-16)
(0.0457635 -0.828455 2.35578e-16)
(-0.00168627 -0.700466 2.9232e-16)
(-0.00437458 -0.690539 -1.05736e-19)
(0.0267097 -0.820016 -3.11775e-16)
(-0.00576161 -0.701089 -1.48556e-16)
(-0.0032046 -0.89032 0)
(-0.00554218 -0.889668 4.47057e-18)
(-0.00513742 -0.834784 -2.87397e-16)
(-0.00331162 -0.964891 -2.6863e-16)
(-0.0369851 -0.743091 -1.63193e-16)
(-0.0110082 -0.262748 -8.49144e-16)
(-0.0106333 -0.843736 -2.84983e-16)
(-0.000336072 -0.702498 -3.11789e-16)
(-0.0152656 -0.880473 0)
(-0.0182957 -0.840322 9.10684e-18)
(-0.00721053 -0.704775 1.45036e-16)
(-0.0051443 -0.612153 0)
(-0.00785092 -0.714741 3.39927e-16)
(-0.0303595 -0.850047 2.82358e-16)
(-0.00445853 -0.273552 -6.31728e-16)
(0.0245639 -0.73109 0)
(0.00111027 -0.141286 5.02723e-16)
(-0.00339518 -0.459187 1.76868e-16)
(-0.00179005 -0.82255 0)
(0.0208751 -0.703641 1.76969e-16)
(-0.00400346 -1.00123 -2.52755e-16)
(0.0902364 -0.773113 -8.24364e-17)
(-0.00331635 -0.548668 0)
(-0.00278272 -0.776194 9.22118e-18)
(-0.0535555 -0.710513 -3.6176e-16)
(-0.0198154 -0.733035 0)
(0.0168209 -0.806856 0)
(-0.00144855 -0.274889 0)
(0.0592486 -0.793227 -1.56213e-16)
(-0.0178031 -0.702279 0)
(0.00744835 -0.2973 8.59558e-16)
(0.0003166 -0.800025 4.92833e-20)
(0.00348281 -0.63865 0)
(-0.00489971 -0.281886 -1.74267e-19)
(0.00829329 -0.727923 0)
(0.000304482 -0.798055 2.9495e-16)
(0.0281034 -0.748268 -4.70093e-16)
(0.00283002 -0.306254 1.11486e-15)
(0.0464006 -0.768425 -8.98849e-17)
(0.00965719 -0.277333 0)
(0.00592908 -0.666372 3.41286e-16)
(0.00489204 -0.665731 0)
(0.00422329 -0.931668 1.37315e-16)
(0.00472947 -0.922681 -4.38785e-20)
(0.00794609 -0.927376 0)
(0.00788545 -0.923639 1.37334e-16)
(0.0442423 -0.745626 1.63693e-16)
(0.000634031 -0.328252 0)
(-0.000564994 -0.300151 0)
(0.00939946 -0.802691 1.52529e-16)
(0.0141558 -0.797229 0)
(-0.0125759 -0.308997 -2.85436e-16)
(0.0156601 -0.292218 -9.99441e-16)
(0.0162036 -0.892041 1.35044e-16)
(0.0240773 -0.855303 2.81978e-16)
(0.0187771 -0.871691 0)
(0.0305108 -0.812061 6.54106e-16)
(0.0205892 -0.720363 0)
(0.00853512 -0.79066 2.97873e-16)
(-0.00381254 -0.89533 0)
(0.00462286 -0.70107 0)
(-0.00220257 -0.801258 0)
(-0.0171809 -0.701724 1.45866e-16)
(-0.0035205 -1.00941 -1.29128e-16)
(0.00179205 -0.961704 0)
(0.00121264 -0.147371 0)
(0.000683029 -0.440416 -3.75293e-16)
(-0.00404471 -0.281537 0)
(-0.0217677 -0.73078 3.64334e-16)
(-0.00120813 -0.954101 -6.53534e-17)
(-0.0438314 -0.738096 -1.68599e-16)
(0.0183254 -0.710183 0)
(0.0234624 -0.761557 -1.90534e-16)
(0.0166826 -0.715477 0)
(-0.00554851 -0.860198 0)
(-0.00414231 -0.122278 0)
(-0.0710576 -0.788576 -9.54887e-18)
(0.0262397 -0.709304 -1.5784e-16)
(-0.00183844 -0.967234 6.52194e-17)
(-0.0253057 -0.709271 -1.9137e-16)
(0.0070059 -0.704034 -1.86505e-16)
(-0.00135547 -0.862992 1.78386e-16)
(-0.00511472 -0.129939 -5.47167e-16)
(-0.00333589 -0.653872 -1.90564e-16)
(9.28428e-05 -0.86223 1.83031e-16)
(-0.00599071 -0.145372 -5.29316e-16)
(-0.00927451 -0.269192 3.29275e-16)
(0.0016763 -0.131943 -2.71807e-16)
(0.00627029 -0.29049 -6.12762e-16)
(0.0441014 -0.702686 -2.0531e-16)
(0.00165017 -0.957169 -1.67867e-16)
(0.00211765 -0.551245 -1.35718e-17)
(0.0567475 -0.777128 -3.68793e-16)
(0.00228225 -0.945092 -5.08833e-16)
(-0.00168562 -0.151453 0)
(0.00531985 -0.281712 -1.70164e-16)
(0.032455 -0.785081 1.51816e-16)
(-0.000313584 -0.13704 0)
(0.0462758 -0.707365 1.97883e-16)
(0.0084189 -0.856686 0)
(-0.00195108 -0.128026 2.77297e-16)
(0.00948496 -0.894513 -1.16764e-17)
(0.0134805 -0.884232 1.678e-16)
(0.02291 -0.81942 -4.78728e-16)
(0.0140844 -0.8807 9.82625e-18)
(0.0239971 -0.834417 1.73486e-16)
(0.0182727 -0.635234 2.08968e-16)
(0.0169981 -0.84056 -2.12668e-16)
(0.00892263 -0.714518 -1.61723e-16)
(0.000985522 -0.661065 0)
(-0.000211102 -0.995358 -1.37636e-16)
(0.0033938 -0.775018 2.61094e-16)
(0.0320274 -0.75746 0)
(0.00932967 -0.797603 3.2271e-16)
(0.0115467 -0.680155 0)
(0.00104841 -0.797916 -3.27549e-16)
(-0.092837 -0.790394 1.7723e-16)
(-0.0305251 -0.712871 -8.41072e-20)
(-0.076873 -0.770109 -5.67536e-20)
(-0.0806637 -0.765065 -2.78069e-16)
(0.00109262 -0.271585 0)
(-0.00634261 -0.522732 1.13696e-16)
(0.0515023 -0.781323 3.62093e-16)
)
;

boundaryField
{
    back
    {
        type            empty;
    }
    front
    {
        type            empty;
    }
    left
    {
        type            noSlip;
    }
    top
    {
        type            uniformFixedValue;
        uniformValue    
        {
            type            scale;
            scale           
            {
                type            squarePulse;
                start           0.3;
                duration        0.3;
            }
            xScale          
            {
                type            constant;
                value           1;
            }
            value           
            {
                type            constant;
                value           (0 -0.7 0);
            }
        }
        value           uniform (0 -0.7 0);
    }
    right
    {
        type            noSlip;
    }
    bottom
    {
        type            zeroGradient;
    }
}


// ************************************************************************* //
