/*--------------------------------*- C++ -*----------------------------------*\
  =========                 |
  \\      /  F ield         | OpenFOAM: The Open Source CFD Toolbox
   \\    /   O peration     | Website:  https://openfoam.org
    \\  /    A nd           | Version:  9
     \\/     M anipulation  |
\*---------------------------------------------------------------------------*/
FoamFile
{
    format      ascii;
    class       volVectorField;
    location    "0.84";
    object      U;
}
// * * * * * * * * * * * * * * * * * * * * * * * * * * * * * * * * * * * * * //

dimensions      [0 1 -1 0 0 0 0];

internalField   nonuniform List<vector> 
942
(
(0.0213826 -0.0700097 0)
(-0.0262848 0.0190148 2.62056e-17)
(0.0389971 0.103956 0)
(0.00925838 -0.0788753 -1.38568e-17)
(0.0407867 0.115988 8.31661e-18)
(0.0351406 -0.0320575 1.46577e-17)
(0.00655152 -0.0096205 3.85397e-17)
(0.0425497 -0.0433856 0)
(0.00403226 -0.0484888 -3.03488e-17)
(0.00486971 -0.053101 3.09348e-17)
(0.0686017 0.0487562 0)
(0.147929 -0.0412431 0)
(0.00882137 -0.0802388 1.29229e-17)
(0.0582431 0.0582514 0)
(0.160874 -0.026578 0)
(-0.0244681 0.0157062 -2.85119e-17)
(-0.00349825 -0.0422064 -1.12358e-17)
(0.0184251 -0.0698704 0)
(0.0136175 0.00219229 -3.36874e-18)
(-0.0323537 -0.0205848 5.13855e-18)
(0.00560031 -0.0372141 1.91241e-17)
(0.142933 -0.0577337 1.52976e-17)
(0.0148818 -0.0242575 0)
(-0.0166036 -0.0288409 -3.04368e-17)
(0.0787274 0.0502215 0)
(-0.022808 -0.041235 2.28635e-17)
(0.0460101 0.124901 0)
(0.0162613 -0.0331882 1.94291e-17)
(-0.0344303 -0.0369479 0)
(0.0141255 -0.0509949 1.22692e-17)
(-0.0298764 -0.0327544 1.54065e-17)
(0.039085 0.117328 0)
(-0.0288203 -0.0317232 1.45038e-17)
(-0.0266416 0.0616096 1.70351e-17)
(0.0537857 0.10676 -1.66906e-17)
(0.016143 -0.018882 3.20546e-17)
(0.0332078 -0.0508366 1.08263e-18)
(0.00503312 -0.0411778 0)
(0.0340961 -0.0521495 -5.52898e-19)
(-0.0169517 -0.0232888 2.17223e-17)
(-0.0806293 0.0479258 -3.03703e-17)
(0.0186379 -0.148955 0)
(-0.00775632 -0.00499201 -1.50222e-17)
(0.00884935 -0.017012 -1.28486e-17)
(0.00917878 -0.0148009 -3.25048e-17)
(-0.00607016 -0.0298866 7.33865e-18)
(0.0184519 0.00457466 -1.49099e-17)
(-0.0246116 0.0542975 -1.40602e-17)
(-0.10892 0.0439481 1.56136e-17)
(0.0691558 0.0667448 1.82749e-17)
(0.00159065 0.0118432 0)
(0.00772938 -0.0118466 0)
(0.00868084 -0.0134031 -2.16212e-17)
(0.0030992 -0.0303913 1.72423e-17)
(0.00498535 -0.0656421 0)
(-0.0830273 -0.0518852 -1.14176e-17)
(0.0310772 -0.00191143 -2.88828e-17)
(0.00627906 -0.0687667 -2.0726e-18)
(0.0392266 -0.00297057 3.69999e-17)
(0.110937 0.0835858 1.59541e-17)
(0.0105173 -0.0376455 -1.5252e-17)
(0.0499731 0.114892 -3.92721e-17)
(-0.000831965 0.0770149 1.83042e-17)
(0.0217205 -0.0637774 -1.49479e-17)
(0.00701701 -0.0418994 1.41751e-17)
(0.00888554 0.0344713 1.0902e-17)
(0.042644 0.107799 3.07073e-17)
(0.0451935 0.0205877 -1.40957e-17)
(-0.10035 -0.0155579 1.44454e-17)
(0.0216805 -0.0420276 3.98431e-18)
(-0.0350525 0.00798727 0)
(0.00589745 -0.0333916 0)
(-0.019719 0.00415909 -1.88982e-18)
(0.0135847 -0.0573334 3.67892e-18)
(-0.00267193 -0.0323635 -1.63379e-17)
(-0.034345 -0.0204642 5.56467e-22)
(-0.0534928 -0.0198674 1.89363e-18)
(0.0458036 0.0981592 1.69631e-17)
(-0.0193169 -0.0216946 -1.84368e-17)
(-0.0113989 0.027684 -3.73262e-18)
(0.0158727 -0.0160578 2.2113e-17)
(-0.0302286 -0.0388712 -7.95289e-18)
(0.0624553 0.0225375 -2.00583e-18)
(-0.0038698 0.0246128 8.2304e-18)
(0.0200178 0.026527 0)
(0.0336146 0.136588 0)
(0.0907396 0.0708469 -1.67399e-17)
(0.132229 -0.00695254 4.59547e-18)
(0.0634267 0.0676268 0)
(0.0686258 0.0157526 2.29337e-17)
(0.0203407 -0.141873 -1.16419e-17)
(0.0289571 0.0506985 5.29701e-19)
(0.0062469 -0.0749366 2.33229e-18)
(-0.0665656 -0.04025 0)
(-0.0638063 -0.0745447 -4.49699e-18)
(0.0171203 -0.0324827 8.34016e-18)
(-5.3869e-05 -0.12826 1.42768e-17)
(0.103726 -0.00788258 -1.33821e-17)
(0.0272531 -0.0276719 -1.99403e-17)
(0.00661331 -0.0328602 -2.84724e-17)
(0.0102051 -0.0324717 -8.55729e-18)
(0.00535195 -0.0769871 9.65659e-18)
(0.0223779 0.0103061 0)
(0.0196761 -0.0363379 1.09616e-17)
(-0.0382778 -0.109395 -1.72534e-17)
(0.00978981 -0.0303205 -2.79486e-17)
(-0.00442054 -0.0331971 -9.86474e-18)
(-0.0189169 -0.0332405 0)
(0.0239832 0.0476567 1.51924e-17)
(0.0362492 0.0135163 0)
(-0.0714116 -0.0234353 0)
(-0.111868 0.0136624 -1.52383e-17)
(0.0862029 0.0426026 3.04777e-17)
(0.00560943 -0.0376541 0)
(0.07587 0.0606944 0)
(0.016231 0.0284418 2.0661e-18)
(0.125225 0.0322564 -1.64136e-17)
(0.0121788 -0.0776758 1.7511e-17)
(0.00351247 -0.0155746 2.69425e-23)
(0.0752073 0.104584 -1.99955e-18)
(0.00528894 -0.0145444 6.66934e-18)
(-0.0206374 -0.0328877 -1.72226e-17)
(-0.00184432 0.00860928 0)
(-0.0387663 0.0066018 1.51499e-17)
(-0.0215289 0.00936111 1.2284e-17)
(-0.0167218 -0.036362 -3.27327e-17)
(0.00335391 -0.00481629 1.72923e-17)
(-0.014713 -0.0140362 -1.6521e-17)
(-0.0121766 -0.0190319 3.02168e-17)
(0.00292233 -0.0138996 1.57914e-17)
(0.0345675 0.015882 -8.12617e-18)
(0.028593 0.00763495 -1.88095e-17)
(0.0323542 0.0152257 0)
(-0.0660702 0.0320298 0)
(-0.00191611 0.0383668 -1.68853e-17)
(0.0122891 -0.00566931 -1.17621e-17)
(-0.0636603 0.00784784 1.02343e-18)
(0.0296906 0.0143204 0)
(-0.12206 0.0283865 2.08683e-17)
(-0.142449 0.0424834 -7.13717e-18)
(-0.115343 0.0381688 1.67974e-17)
(-0.00355603 -0.0142092 0)
(0.115345 0.0203786 -1.67858e-17)
(-0.00451789 -0.027514 1.81715e-17)
(0.0377306 -0.0386275 -4.23843e-18)
(-0.030705 -0.0311466 -7.68376e-18)
(0.0161231 -0.031856 0)
(0.00752445 -0.0386953 -1.01757e-17)
(0.0225401 -0.0365403 2.569e-17)
(0.0388332 0.140641 0)
(0.0475142 -0.0529958 4.58037e-18)
(0.112934 0.13303 5.01692e-18)
(0.048941 0.0793344 0)
(0.0237122 -0.0379217 9.53036e-18)
(0.0481072 0.0889594 -1.65999e-17)
(0.0313876 -0.0471498 0)
(0.0300574 0.0168652 1.87552e-17)
(0.00178448 -0.0160663 0)
(0.124656 0.0580378 0)
(-0.0135978 -0.0243887 6.93324e-18)
(0.0450804 0.0202235 -2.42052e-17)
(0.0267627 -0.0384405 0)
(0.00626141 -0.0768433 0)
(0.0873581 -0.0584239 8.50838e-18)
(0.0976541 0.129063 0)
(0.0495311 0.0595973 -2.53458e-17)
(0.012809 -0.0367761 0)
(0.0250882 -0.0458064 0)
(-0.01657 -0.0417135 1.49814e-17)
(0.0363866 0.00091212 1.78616e-17)
(0.0344975 0.0758653 -1.48256e-17)
(-0.107567 0.0156885 -1.961e-18)
(-0.0585401 -0.0351055 2.43771e-21)
(0.0145983 -0.0355189 9.58356e-18)
(0.0362989 0.151174 0)
(0.0230092 -0.0616483 -1.86002e-17)
(0.00938446 -0.022739 -1.76683e-17)
(0.0210065 -0.062878 0)
(-0.043318 -0.0649437 6.10196e-19)
(0.0280258 -0.0650281 0)
(0.0182949 -0.0312146 -1.11899e-17)
(-0.0318551 -0.0382286 0)
(0.0259367 -0.0423478 -2.19611e-17)
(0.0260171 -0.0665695 2.23025e-22)
(0.0156906 -0.0657624 -1.10786e-17)
(-0.0361877 -0.0418441 0)
(0.13171 -0.0219439 -8.70426e-18)
(0.0302084 0.0711996 1.7525e-17)
(0.0466269 0.151845 2.48482e-17)
(0.0312829 -0.0690583 8.37612e-18)
(0.0712708 0.130392 3.3552e-17)
(0.0330393 -0.0675551 -8.39457e-18)
(0.0180675 -0.0482321 -1.06394e-17)
(-0.0206699 -0.0151131 -1.61161e-17)
(0.0253595 0.056078 8.87468e-18)
(0.0109913 -0.0787721 -7.97434e-18)
(0.0288636 0.0583743 0)
(0.0175325 -0.0539138 2.8503e-17)
(-0.0709391 0.0620491 -2.0532e-17)
(0.00111164 0.0014511 1.55403e-17)
(0.000653415 -0.00961638 0)
(0.013916 -0.0786202 8.0953e-18)
(0.00934942 0.0187535 0)
(-0.0125872 -0.0413467 -1.88166e-17)
(0.0943441 0.00633147 1.77581e-17)
(-0.0713365 -0.00541626 0)
(-0.0535137 -0.0723518 1.76928e-17)
(0.0432179 0.106027 -3.86047e-17)
(0.00107146 0.00210117 -1.50106e-17)
(-0.00393935 -0.0216785 1.4848e-17)
(0.0330661 0.0739552 -8.60621e-18)
(0.015167 -0.0755877 3.4273e-22)
(0.00792262 -0.0587653 1.37426e-17)
(0.0603407 0.132809 8.16962e-18)
(-0.00133772 -0.00467863 0)
(0.0251052 -0.0771621 -8.7393e-23)
(0.0472828 0.155479 -2.04084e-17)
(0.0890843 0.120068 1.71505e-17)
(0.0401061 0.0793654 1.70476e-17)
(0.0371987 0.0667575 -1.6391e-22)
(0.0298277 -0.0757182 0)
(0.0234002 -0.0770481 -1.64664e-17)
(0.0360853 -0.0702679 0)
(0.0202098 -0.0771224 0)
(0.00184582 -0.00978845 -1.71927e-17)
(0.0147222 0.0516385 1.70776e-17)
(0.065906 0.133347 -1.20347e-17)
(0.0342357 -0.0731628 -1.69172e-17)
(0.0020847 -0.00673287 2.52036e-17)
(0.0274689 0.0417567 0)
(-0.031851 -0.0334927 -1.57119e-17)
(0.0499363 0.119009 -3.01902e-17)
(0.016174 0.0396413 1.65448e-17)
(0.00332652 -0.00849355 -9.06017e-18)
(0.0282362 -0.0768231 -8.5091e-18)
(0.0130569 -0.0723676 2.75186e-22)
(0.0862331 0.121163 -1.77933e-17)
(0.0329448 -0.0754233 1.69952e-17)
(0.00839113 0.0250103 -1.63397e-17)
(0.0510966 0.0871384 1.6855e-17)
(0.0487514 0.0760255 0)
(0.0249885 -0.042925 -4.14585e-18)
(0.0385067 -0.0734804 8.3812e-18)
(0.0218185 -0.053652 -9.47341e-18)
(0.0265973 -0.057269 -1.67627e-17)
(0.00392976 0.0135096 -1.70002e-17)
(0.0379865 -0.0698272 8.43464e-18)
(0.0233279 -0.0769861 -9.14028e-18)
(0.0372903 -0.072963 -1.69237e-17)
(0.00923587 0.0241001 4.18166e-18)
(0.0684255 0.135624 -4.23843e-18)
(-0.0479393 0.01021 -1.56241e-17)
(0.0758543 0.131385 0)
(-0.00549649 0.00939987 1.26285e-17)
(0.0313932 -0.0607736 1.66533e-17)
(0.0181461 -0.0752272 1.8511e-17)
(0.0365615 -0.0736536 0)
(0.0377111 -0.0683428 0)
(0.0906261 0.116938 -8.38627e-18)
(0.0225973 -0.050329 9.43687e-18)
(0.0276961 -0.0740998 -8.32672e-18)
(0.0956383 0.119537 8.24393e-18)
(0.0657862 0.125155 -2.06991e-17)
(0.0355175 -0.0628465 -4.40189e-18)
(0.0351764 -0.0658527 8.76248e-18)
(0.00677683 -0.0496626 0)
(0.0272245 -0.0548726 0)
(0.042089 -0.0677678 0)
(-0.0227761 -0.0185798 1.59783e-17)
(0.0414374 -0.0700257 8.52995e-18)
(0.0401945 -0.0667328 1.61431e-17)
(0.0546883 0.145661 -1.54446e-17)
(-0.0445019 0.0480775 1.82113e-17)
(0.0597348 0.140228 -8.14208e-18)
(0.0481842 0.10579 1.71406e-17)
(0.0899007 0.114706 -1.70728e-17)
(-0.00653228 -0.00681486 0)
(0.0497578 -0.0537166 0)
(0.0657295 0.119324 -8.44411e-18)
(0.0100837 -0.0112547 -1.75615e-17)
(0.0313353 -0.0584709 0)
(0.0079487 -0.0261277 -1.44383e-18)
(0.0167494 -0.02006 1.78274e-17)
(0.0501464 -0.0593681 0)
(0.0582166 -0.0115907 3.33451e-17)
(0.128481 0.0643802 -1.64418e-17)
(0.0437991 -0.061419 2.50434e-17)
(0.0467444 -0.0662615 1.66472e-17)
(0.0351604 -0.0596723 4.31225e-18)
(0.0393903 -0.0630756 4.28683e-18)
(0.0483203 -0.00158721 -1.69212e-17)
(-0.00531153 0.0600168 1.98198e-17)
(0.0848238 0.104401 -7.63915e-18)
(0.0328318 -0.071489 1.87513e-17)
(0.0426929 -0.0446954 4.74669e-18)
(0.0147745 -0.0423234 -1.52725e-17)
(0.122638 0.110565 0)
(0.123401 0.0884663 8.52476e-18)
(0.121699 0.125711 7.91662e-18)
(0.131633 0.0393313 0)
(0.142073 -0.0418453 0)
(0.0442441 -0.0564958 -8.56802e-18)
(0.139321 0.109007 -3.83049e-18)
(0.105111 -0.00730085 -2.67843e-17)
(0.122997 -0.0472586 -2.65409e-17)
(0.0411141 -0.0725022 8.3582e-18)
(0.0601516 -0.122994 -2.64876e-17)
(0.0459481 -0.00352181 0)
(-0.0267052 -0.0170611 -7.71535e-18)
(0.0157511 0.0234806 1.61605e-17)
(0.00211153 -0.00649436 1.31024e-17)
(0.0193514 0.00921069 1.64607e-22)
(0.0216012 -0.0193399 -2.31573e-18)
(-0.0324605 -0.00100153 -1.6123e-17)
(0.0350088 -0.103699 9.73028e-22)
(0.0152142 0.0167565 2.60009e-17)
(0.00657142 -0.00890096 -1.76995e-17)
(0.0243067 0.00280806 -4.28361e-22)
(0.00131635 -0.00395326 -4.58379e-18)
(0.0532838 -0.0237687 0)
(-0.0369781 -0.0129993 -4.72356e-18)
(0.0130403 0.0160089 0)
(0.00242717 -0.00457123 1.8572e-17)
(-0.00448716 0.00732773 -3.32304e-17)
(0.00350392 0.0839161 -2.08658e-17)
(0.0996873 0.115822 -1.69625e-17)
(0.0218431 0.017031 0)
(0.0396167 -0.0742539 -8.62993e-18)
(0.0392859 -0.140028 0)
(0.0081258 -0.0091463 0)
(0.0411674 -0.0334893 -3.34244e-17)
(0.0419891 -0.0658306 -1.4732e-17)
(0.0619243 -0.0763603 8.38566e-18)
(0.131678 0.0765659 -1.50755e-17)
(0.0581818 -0.0625933 0)
(0.0558546 -0.0357199 1.67098e-17)
(0.0868798 -0.0526109 9.56072e-18)
(0.0224855 -0.0250973 -4.93724e-19)
(0.0250895 -0.0370933 0)
(-0.0111302 -0.0100659 -1.65732e-17)
(0.100672 -0.0322764 2.44511e-17)
(0.0481348 -0.0407895 -1.67588e-17)
(0.048887 -0.148207 -4.33489e-18)
(0.0685816 -0.0386295 -4.16608e-17)
(0.121666 0.0396584 -1.6928e-17)
(0.020824 -0.0374613 0)
(0.131257 -0.00801527 1.72108e-17)
(0.0460914 -0.118415 1.66712e-17)
(0.0448075 -0.068966 1.6644e-17)
(0.119897 0.0839592 -8.30922e-18)
(0.046709 -0.0406865 1.67187e-17)
(0.127126 0.116776 4.31727e-23)
(0.0453779 -0.0831579 -4.24877e-17)
(0.141792 0.128749 -8.71315e-18)
(0.0317481 -0.0157951 -1.49413e-17)
(0.053151 -0.0526781 0)
(0.138859 -0.0465316 1.68968e-17)
(0.0462077 -0.068512 0)
(0.135339 -0.0603657 8.29301e-18)
(0.076016 -0.0443836 1.67555e-17)
(0.159024 0.108354 2.1222e-17)
(0.0913417 -0.111418 0)
(0.157912 0.0126663 -2.3476e-18)
(0.0439373 -0.0676346 1.42118e-17)
(0.134212 0.00526026 -1.68866e-17)
(0.147507 0.0469225 8.80399e-18)
(0.111772 -0.0894887 -8.48784e-18)
(0.0276209 0.0131446 3.85922e-17)
(0.0881433 -0.117209 2.51293e-17)
(0.0199512 -0.0298537 -4.37687e-18)
(0.0506736 0.101254 0)
(0.0685103 -0.0306624 1.65036e-17)
(0.0287914 0.0128117 -8.38671e-18)
(0.0565638 -0.150772 -1.61121e-17)
(0.0991504 -0.0501094 8.40563e-18)
(0.111871 0.0605582 8.33525e-18)
(0.125056 -0.0529072 8.40605e-18)
(0.119332 0.0156671 1.72982e-17)
(0.0462965 -0.0701552 8.21192e-18)
(0.114146 0.0986647 8.29003e-18)
(-0.00108425 0.00474591 1.89048e-17)
(0.00253363 -0.00620306 0)
(-0.0321115 0.016629 1.68887e-17)
(-0.0272882 -0.00957505 0)
(0.0173245 0.00460963 4.19784e-18)
(0.126055 0.121601 2.61543e-17)
(0.145243 0.0443569 3.32055e-17)
(0.172567 0.00399494 2.56359e-18)
(0.132897 -0.0282665 -3.44053e-17)
(0.145439 0.11858 -3.49853e-17)
(0.0282865 0.00571428 -8.5791e-18)
(-0.0938323 0.0321039 -4.2555e-18)
(0.0538629 -0.0593102 0)
(0.0876675 0.068225 1.72054e-17)
(-0.0724254 0.0200953 4.49046e-18)
(0.065728 -0.0937768 0)
(0.123852 -0.101339 1.64292e-17)
(0.0135504 0.00278329 4.40238e-18)
(0.0022588 -0.00335124 8.69509e-18)
(-0.0683151 0.0117793 -1.09158e-18)
(-0.0937785 0.0357719 -7.5008e-18)
(0.0549914 -0.105252 -2.48091e-17)
(0.14478 0.020181 0)
(0.0939233 -0.0989593 7.88582e-18)
(0.10582 -0.0803235 0)
(0.085047 -0.0365186 0)
(0.0256716 -0.0313134 0)
(0.142167 -0.0561453 0)
(0.0650463 -0.151991 8.26369e-18)
(0.00517196 -0.00611997 2.53377e-17)
(-0.00393713 -0.00690569 -1.81118e-17)
(0.16435 0.0527528 8.31771e-18)
(0.098111 -0.130805 0)
(0.163337 0.0825486 2.49154e-17)
(0.14637 -0.0279377 0)
(0.0499839 -0.0695276 -8.38059e-18)
(0.0495589 -0.0711249 8.38904e-18)
(0.0750268 -0.133667 8.26353e-18)
(0.084075 -0.0027726 1.67232e-17)
(0.0657797 -0.132157 8.26024e-18)
(0.0753172 -0.106481 1.73802e-17)
(0.102035 -0.131809 -3.32995e-17)
(0.0603132 -0.0740707 0)
(0.0608974 -0.0771732 -8.26944e-18)
(0.130886 -0.0670728 1.6626e-17)
(0.166356 0.0533788 -1.66333e-17)
(0.105718 -0.0433916 0)
(0.0394113 -0.038171 1.75073e-17)
(0.141938 0.0883947 1.67298e-17)
(0.0547685 0.0505827 -3.11283e-17)
(0.101705 0.00677697 0)
(0.139429 0.105747 1.6712e-17)
(0.119818 0.047022 0)
(0.0964409 -0.0458508 0)
(0.0201656 -0.0239616 0)
(0.074479 -0.110567 0)
(0.0994733 0.0858746 2.49373e-17)
(0.0652322 -0.0940033 0)
(0.0843683 -0.150726 8.33556e-18)
(0.117592 0.0675624 -1.75564e-17)
(0.062124 -0.111428 8.26259e-18)
(0.145762 -0.0785399 -1.52137e-17)
(0.0978362 0.0116432 -1.6772e-17)
(0.0897251 0.081751 0)
(0.0497788 -0.0679535 -1.66667e-17)
(0.164133 0.0818321 -2.49385e-17)
(0.140246 -0.0554828 0)
(0.135056 -0.0420162 0)
(0.0894934 -0.13878 0)
(0.0520013 -0.0809289 1.66436e-17)
(0.126557 -0.0565533 2.00951e-21)
(0.108278 -0.0225425 -8.90323e-22)
(0.0676938 -0.0392621 -1.72684e-17)
(0.0576872 -0.0847724 0)
(0.134907 -0.0550266 0)
(0.0976998 -0.0161032 0)
(0.126967 -0.0466097 0)
(0.00258553 0.0315342 0)
(0.0543263 -0.0722061 -8.34848e-18)
(0.114719 -0.0366591 -1.69561e-17)
(0.115191 0.105953 2.49846e-17)
(0.0929604 0.05163 -8.35049e-18)
(-0.0346153 -0.0397503 1.68114e-17)
(0.126714 -0.0567262 -8.29408e-18)
(0.0626647 0.040666 8.49289e-18)
(0.101571 -0.0522405 -8.33674e-18)
(0.0552776 -0.059161 0)
(0.114222 0.101136 -1.67194e-17)
(0.0938135 0.0923352 -3.32259e-17)
(0.125005 0.0580418 0)
(0.0825589 0.0660738 -1.66684e-17)
(0.0559146 0.0237327 -1.69882e-17)
(0.0812405 0.0313789 0)
(0.171876 0.0218789 0)
(0.0991399 0.0266413 -7.582e-23)
(0.0890406 0.104888 7.58022e-18)
(0.119985 -0.119936 0)
(0.0822002 -0.0398429 -2.50403e-17)
(0.164579 -0.0115201 0)
(0.067467 0.0286196 0)
(0.0426691 -0.071726 -1.6567e-17)
(0.0913503 0.0420327 -1.66998e-17)
(0.111677 -0.0289913 0)
(0.12261 0.0351931 -1.66598e-17)
(0.139875 -0.0908094 -8.30471e-18)
(0.123044 -0.0116539 1.66407e-17)
(0.17556 0.0315632 -1.70573e-17)
(0.0913027 -0.00735008 1.676e-17)
(0.119335 -0.11871 0)
(0.121078 0.0767105 -8.30721e-18)
(0.117154 0.068077 -2.93681e-17)
(0.137123 -0.0250085 0)
(0.129869 0.0600357 0)
(0.109378 -0.0416695 2.49552e-17)
(0.0452357 -0.0708146 -1.62829e-17)
(0.0967143 0.116273 0)
(0.129213 0.0138768 1.6649e-17)
(0.0878581 0.115307 3.49928e-17)
(0.133677 -0.0285843 -1.66091e-17)
(0.0556922 -0.0693763 0)
(0.120126 -0.00145267 3.54227e-17)
(0.104335 0.0700616 8.30729e-18)
(0.0585288 -0.0669426 0)
(0.0931808 0.102462 1.66127e-17)
(0.0304682 -0.0223553 -9.18991e-18)
(0.0833088 0.105682 0)
(0.0646866 -0.00961185 0)
(0.014487 0.0266744 0)
(0.0429792 0.0317401 1.47414e-17)
(0.0188912 0.0434194 -8.0919e-18)
(0.152367 -0.0716783 -2.02288e-17)
(0.100288 0.0840233 0)
(0.100811 0.112193 8.52948e-18)
(0.0817369 0.0711644 -1.66523e-17)
(0.113517 0.0829077 2.80285e-17)
(0.0528127 -0.0647973 0)
(0.0989166 0.103988 -7.20677e-18)
(0.104022 0.108945 0)
(0.0417098 0.0359511 0)
(0.0312617 0.0158625 0)
(0.167754 -0.0192719 0)
(0.055731 -0.0230039 8.40686e-18)
(0.0580289 0.0528388 0)
(0.106253 0.100207 0)
(0.048865 0.0597828 -8.44459e-18)
(0.0650188 0.0747167 -8.28301e-18)
(0.135982 0.0187118 0)
(0.0818376 0.0984243 0)
(0.134846 -0.00518887 0)
(0.0700819 0.0754496 3.32758e-17)
(0.043952 0.00626169 2.54376e-17)
(0.129282 0.0378508 0)
(0.164798 -0.0396087 1.43098e-17)
(0.0659271 0.110447 -1.6805e-17)
(0.0806756 0.0816087 1.66571e-17)
(0.0721091 0.0920367 -1.66811e-17)
(-0.00544003 -0.00703987 -2.07011e-22)
(0.103404 0.0989917 0)
(0.040684 -0.0699894 0)
(0.0716153 0.126436 1.61167e-17)
(0.0253195 -0.0648056 0)
(0.116394 0.0897855 0)
(0.0450062 0.022092 -1.48998e-17)
(0.0390244 -0.0590635 -2.11367e-17)
(0.0332886 0.027189 0)
(0.0272551 0.0353964 -1.67251e-17)
(0.114515 0.101788 0)
(0.0649337 0.0651 -1.66879e-17)
(0.0399044 0.0460876 -8.37168e-18)
(0.0422598 0.0560511 3.34938e-17)
(0.0665596 0.0743479 0)
(0.093029 0.109767 -1.65996e-17)
(0.0757142 0.112851 8.36864e-18)
(0.0521393 0.0574108 0)
(0.0636585 0.133192 2.09669e-17)
(0.0543643 0.0660654 -8.36747e-18)
(0.0632431 0.0934622 -1.67518e-17)
(0.108867 0.0121606 -1.56074e-17)
(0.0610321 0.139812 -8.43867e-18)
(0.112814 0.0351225 0)
(0.0903312 0.121154 -1.67842e-17)
(0.0339906 -0.074611 0)
(0.0243286 -0.0740011 2.48331e-17)
(0.0742613 0.0998497 2.50501e-17)
(0.078893 0.127376 1.67319e-17)
(-0.00182459 0.000687616 3.38549e-17)
(0.0187128 0.0118028 -8.94806e-18)
(-0.0251116 -0.0269744 -1.70132e-17)
(0.0821954 0.126587 0)
(0.0105951 -0.0582108 0)
(0.0755346 0.120327 -1.67708e-17)
(0.0571518 0.136412 3.49117e-17)
(0.015273 0.0102061 0)
(0.0611618 0.0847859 -2.50839e-17)
(0.0238352 -0.0733511 -3.13659e-22)
(0.0561911 0.107564 8.46985e-18)
(0.0850296 0.12402 0)
(0.0837101 0.120934 8.48618e-18)
(0.0758055 0.118761 -2.51845e-17)
(0.0562799 0.0971489 0)
(0.0183396 -0.0766278 1.92153e-17)
(0.0412341 0.119509 -3.61996e-17)
(0.00156605 -0.0729369 0)
(0.0837544 0.11512 0)
(0.0317009 -0.0737243 -1.67686e-17)
(0.0290744 -0.0746276 0)
(0.0701156 0.116907 1.677e-17)
(0.0244571 0.0567638 4.89208e-19)
(0.0135239 -0.0660418 -1.83685e-17)
(0.056889 0.118569 -1.70178e-17)
(-0.0194702 -0.118044 -1.37014e-17)
(0.0265527 -0.0724918 1.68404e-17)
(0.00185893 -0.079417 0)
(0.00404544 0.00180119 0)
(-0.00374797 -0.025659 5.81215e-17)
(0.00137147 -0.0600627 -3.73967e-17)
(0.00283648 -0.0405699 -3.68638e-17)
(0.114651 -0.0253319 0)
(0.0473358 0.159778 1.79375e-17)
(0.0182343 -0.0705022 -2.62845e-17)
(0.0209848 -0.0696037 2.64408e-17)
(0.000821507 -0.0405926 0)
(0.00876521 -0.0308027 -1.84939e-17)
(0.0416151 0.171928 -5.54423e-17)
(0.00108951 -0.0408266 -1.75216e-17)
(-0.00933075 -0.0223282 -1.86194e-22)
(0.0365649 0.104546 1.56525e-17)
(0.0157659 -0.0657631 -1.80408e-17)
(-0.0231787 -0.0323347 8.70116e-18)
(0.0205125 0.040014 0)
(0.0145106 -0.0205044 -1.99522e-17)
(0.0465969 0.148354 4.05459e-17)
(0.00275643 -0.0128371 -1.96091e-17)
(0.00260384 -0.0383889 5.15868e-22)
(0.109762 -0.0392415 2.72233e-17)
(0.0348729 0.0501926 5.64575e-22)
(0.0712888 0.076574 3.28639e-17)
(0.0153773 0.0447829 1.2029e-17)
(0.0284504 -0.0701747 0)
(0.00235765 -0.0511234 1.87826e-17)
(0.00373858 -0.0392173 0)
(-0.00521856 -0.0255892 -1.10853e-17)
(0.0449885 0.165813 -5.8035e-19)
(0.0024094 -0.0285681 0)
(0.0435264 0.160297 5.33957e-19)
(0.0455479 0.121649 1.8732e-17)
(0.00661486 -0.0167162 -2.18558e-17)
(0.00218183 -0.0302518 -5.29824e-18)
(0.00983593 -0.0534164 4.47174e-18)
(0.0464758 -0.00678273 2.59598e-17)
(-0.0196433 -0.0217462 1.95628e-17)
(0.085199 0.0116698 -2.06967e-17)
(-0.0718543 0.0498513 1.60913e-17)
(0.0321239 -0.0656768 0)
(0.061325 0.00104784 9.74856e-18)
(-0.0175955 0.00685174 0)
(-0.016315 -0.0419296 1.55802e-17)
(0.0175126 -0.0560226 0)
(-0.0280807 -0.0340593 -3.70696e-17)
(0.0709664 -0.00361908 -2.00277e-17)
(0.0363092 0.0573448 -1.63548e-17)
(0.00674218 -0.0143512 -1.4063e-17)
(0.149842 -0.00845321 0)
(0.0609032 0.0861703 9.15288e-19)
(-0.0377653 -0.0139361 0)
(0.1293 -0.0605667 -2.88744e-17)
(0.11026 -0.0441006 -1.36674e-17)
(0.130703 -0.0237712 -4.79672e-18)
(0.00161881 -0.00556677 3.57578e-17)
(0.0185322 -0.0337729 0)
(0.0152456 -0.057711 1.54074e-17)
(0.00690986 -0.0222831 0)
(0.0983984 -0.0633448 -2.61529e-17)
(0.00206363 -0.0678322 -1.99263e-17)
(0.136838 0.0088016 1.84709e-17)
(0.00129376 0.0102198 0)
(0.00760661 -0.0122833 -4.85407e-18)
(0.0546418 0.139893 0)
(-0.0247474 -0.0399236 1.83781e-17)
(0.00572807 -0.0675972 5.89105e-19)
(0.00130126 -0.0507469 3.93674e-17)
(0.0318175 -0.0703194 0)
(0.00330477 -0.0770184 1.70978e-17)
(0.00287738 -0.0674539 1.82663e-17)
(0.00543824 -0.0797286 9.64347e-18)
(0.0183133 -0.0379042 -5.27153e-23)
(0.0405814 0.10119 -2.53439e-17)
(0.0507471 0.140794 0)
(0.0132305 -0.0878423 0)
(0.0231018 0.0946159 -9.27511e-18)
(0.126948 -0.00550419 1.89199e-17)
(0.0255554 0.0855713 0)
(0.00476056 -0.0176711 9.16181e-18)
(0.0275237 0.0771689 -1.54621e-17)
(0.00547582 -0.0162922 0)
(0.00949364 -0.0766309 0)
(0.0137473 0.0593091 -2.44758e-22)
(0.0169893 0.0472408 1.60713e-17)
(0.00287464 -0.00948175 8.95072e-18)
(0.00850008 -0.0669733 -9.3895e-18)
(0.0538193 -0.0589224 0)
(0.0775976 0.110263 1.8208e-17)
(0.0388972 -0.0588231 -9.40139e-18)
(0.0273677 0.0304733 -9.16429e-18)
(0.0336554 0.0313979 0)
(0.0325234 0.0147959 0)
(-0.0110782 -0.0188829 8.21179e-18)
(0.0277912 0.0426157 -1.7601e-17)
(0.0160203 0.0157767 0)
(0.0368814 0.022727 1.53615e-17)
(0.0363169 -0.0322199 0)
(0.025759 0.0308983 9.0628e-18)
(0.0116431 -0.0165221 -1.75642e-17)
(0.022532 0.00314271 2.34606e-18)
(0.00806119 -0.00922548 1.41002e-17)
(0.0253719 0.035984 -1.86361e-17)
(0.0242631 0.0323064 -1.88319e-17)
(0.0096143 -0.0136624 0)
(0.0372622 0.028694 1.71747e-17)
(0.0190849 0.0183967 0)
(0.0131771 0.0024754 -2.215e-18)
(-0.0132924 -0.0110793 0)
(0.0137837 0.0181297 0)
(0.013254 0.0153762 -9.10599e-18)
(0.0118316 -0.0137018 -3.04585e-22)
(0.00461618 -0.00728616 0)
(0.0223479 0.0143764 -1.44814e-17)
(0.11224 0.129426 -9.71596e-18)
(0.0952916 0.0871073 -1.78936e-17)
(0.0747142 0.00177695 0)
(0.000620915 -0.0601187 -1.69406e-22)
(0.077437 0.102134 -2.91972e-17)
(-0.0234912 -0.0425 -2.12991e-17)
(0.0049937 -0.0521029 0)
(0.0217532 -0.0168556 -3.57138e-17)
(0.0722466 0.107716 -8.8918e-18)
(0.0534883 0.147304 0)
(0.103284 0.0591461 1.81077e-17)
(0.0149439 -0.0783671 -1.02209e-17)
(0.0570585 0.0876999 2.02811e-17)
(0.00755253 -0.00843794 1.80952e-17)
(0.0130786 -0.0288055 9.7825e-18)
(0.0282712 -0.00750627 2.85244e-17)
(0.00937655 -0.00972037 1.01995e-17)
(0.0574761 -0.0715185 0)
(0.0546717 -0.0389057 -3.54861e-17)
(0.0746086 -0.0390916 -4.33365e-18)
(0.0275759 -0.0371149 2.7264e-17)
(0.00148723 -0.0729576 -1.89896e-17)
(0.0977159 0.0615903 -3.06557e-17)
(0.0147354 -0.0108137 1.52149e-17)
(0.0301431 0.0720853 -2.49241e-17)
(0.0077994 -0.0721774 4.82435e-18)
(0.136568 0.0148733 1.84463e-17)
(0.139072 -0.0260511 -2.76624e-17)
(0.0807291 -0.0176312 3.86252e-17)
(-0.014878 -0.0346818 0)
(0.0203369 -0.0770719 -1.98773e-17)
(0.0294683 0.0590708 3.10567e-17)
(0.0307979 -0.0339779 -1.81265e-17)
(0.015965 -0.0789518 1.07624e-17)
(-0.00100687 -0.0380378 -4.82161e-18)
(0.0115883 0.0687168 0)
(0.0194928 0.00370633 -9.39051e-18)
(0.0364066 -0.0613951 -1.9833e-17)
(0.03744 -0.0432874 1.83852e-17)
(0.0183171 -0.0742448 1.19479e-17)
(0.0172164 0.0348943 -2.00618e-17)
(0.016422 -0.0488566 1.06609e-17)
(0.110127 0.10988 -1.48523e-17)
(0.00982105 -0.0512366 0)
(0.0579568 0.0690773 3.42817e-17)
(0.0808907 0.0118418 -1.88236e-17)
(0.0597086 0.0363115 2.39296e-17)
(0.0363645 -0.0246638 2.26522e-17)
(0.132353 0.12345 4.72542e-18)
(0.124729 0.136208 -1.01575e-17)
(0.0239379 0.00540943 -2.11508e-17)
(-0.0019217 0.00887061 2.01491e-17)
(0.00942081 -0.0146848 0)
(0.0296967 0.0305873 0)
(0.0023948 -0.0765763 -2.09069e-17)
(0.000947469 -0.00687027 -1.02101e-17)
(0.00279747 -0.0025915 -2.04251e-17)
(0.00303225 -0.0799624 1.08729e-22)
(0.0211986 -0.0313191 9.32978e-18)
(0.0248277 -0.0227752 -1.88099e-17)
(0.000711365 -0.0158718 0)
(0.00274527 -0.0117351 0)
(0.00190614 -0.051659 3.43019e-17)
(0.00383918 0.078409 -3.37442e-17)
(0.00670811 -0.00837667 -9.53649e-18)
(0.0539658 0.0670323 1.10338e-17)
(0.000352071 -0.00848582 1.928e-17)
(0.0338548 0.1237 2.19838e-17)
(0.0383706 -0.0233824 0)
(0.0996292 0.0791145 0)
(0.0310753 -0.0113735 -9.87782e-18)
(0.0192702 0.132051 1.15129e-17)
(0.0810151 0.0923221 -8.94835e-18)
(0.00659216 -0.0139962 -1.47645e-17)
(0.0105107 -0.0378464 9.83901e-18)
(-0.0498275 0.00139833 -2.43702e-18)
(-0.0491623 -0.00563229 -3.36105e-17)
(0.0481905 0.150839 -2.35737e-17)
(0.0383414 -0.0353882 5.71729e-18)
(0.0692933 0.0879905 2.42009e-17)
(0.0186335 -0.0049144 -7.87127e-24)
(0.0226743 -0.110817 1.69664e-17)
(0.0502733 -0.00849123 1.9842e-17)
(0.0764564 0.0337557 -9.54867e-18)
(0.0413664 0.130895 -3.20527e-17)
(0.00211193 -0.035814 2.08562e-17)
(0.0708343 -0.00771908 -9.78175e-18)
(0.0788939 -0.0280981 -1.95235e-17)
(0.0401691 -0.0398268 1.70273e-17)
(0.0473549 0.0694343 -2.32373e-18)
(0.0072798 -0.00796513 4.80406e-18)
(0.0284163 0.0671223 4.28093e-18)
(-0.0491012 0.00139447 0)
(-0.0581311 -0.00884269 6.5191e-18)
(0.0481592 0.141295 1.0508e-17)
(-0.0127492 -0.0567971 2.31172e-17)
(0.0042063 -0.00775284 0)
(0.0955628 -0.0096987 -4.062e-18)
(0.0378005 -0.0959356 2.32379e-17)
(0.0137025 0.0165717 1.30353e-17)
(-0.00456251 -0.0444285 0)
(0.000611903 -0.00775152 -2.02043e-17)
(0.0292646 -0.0600256 1.06399e-17)
(0.0123519 0.0076678 -2.70809e-18)
(0.00983529 0.0148152 -1.41192e-18)
(-0.0110011 -0.0358619 5.1548e-18)
(-4.69021e-05 -0.00667382 2.21571e-17)
(0.000679926 -0.0433222 0)
(-0.0100513 -0.0605009 0)
(0.00322704 -0.0833395 0)
(-0.0166684 -0.0375693 -1.14141e-17)
(0.0855329 0.0909743 0)
(0.00526169 -0.0405636 1.8855e-17)
(0.0105047 -0.0722704 -1.10213e-17)
(0.000122922 -0.0153714 -1.13107e-17)
(0.000929573 -0.0448761 0)
(0.0437092 0.00393209 -5.76161e-18)
(0.0576284 0.0490076 0)
(0.00865293 -0.0222061 6.44858e-19)
(0.00431611 -0.00188697 1.08944e-17)
(0.00122777 -0.016656 1.59571e-17)
(0.0218495 -0.0510606 0)
(0.0136939 -0.028315 2.06251e-17)
(-0.00302036 -0.0347716 0)
(0.00168293 -0.042203 0)
(0.00969426 -0.061683 1.37911e-18)
(0.0296773 0.0578947 -2.01392e-17)
(0.00657218 -0.0124219 -1.1778e-18)
(0.0465564 -0.0486141 0)
(0.0402947 0.000629999 3.95684e-17)
(-0.00743255 -0.0431757 1.12369e-18)
(0.0213788 0.106076 -9.96912e-18)
(0.0186692 -0.0164051 0)
(0.10224 0.0416155 -8.80204e-18)
(0.0209564 -0.0434579 -2.40292e-17)
(0.0580146 -0.0617739 2.20069e-17)
(0.0722201 0.0882683 1.05175e-17)
(0.0241855 -0.0442319 9.72755e-18)
(0.0336717 -0.00962075 -1.05526e-17)
(0.00256962 -0.0175003 -2.1241e-17)
(0.0673912 -0.0840927 -2.00163e-17)
(0.0612747 0.0325276 0)
(0.115267 -0.0781376 1.40474e-17)
(0.0253274 -0.0591884 4.87772e-18)
(0.0802526 0.0164598 1.89386e-17)
(0.04941 0.145631 5.08487e-18)
(0.0504548 0.148302 0)
(-0.0279929 -0.10899 1.8556e-17)
(-0.000302369 -0.121358 2.99529e-17)
(0.101015 0.122495 0)
(0.0314606 -0.053884 3.10322e-18)
(0.00295074 -0.00666748 -1.3916e-17)
(0.0565936 0.11139 0)
(0.00670221 -0.0602227 -1.31506e-18)
(0.105159 -0.0206261 -1.88679e-17)
(0.0605115 -0.0295234 -1.85595e-21)
(0.141583 -0.00826771 5.67062e-22)
(0.0285645 -0.0599554 -5.02548e-18)
(0.0326721 -0.0315728 -2.2674e-17)
(-0.0414537 -0.00638006 2.5098e-17)
(0.00762155 -0.0035076 4.49484e-17)
(0.0745511 -0.00694362 -2.296e-17)
(0.0413865 -0.0139124 3.32488e-17)
(0.0658128 0.10607 4.72988e-18)
(0.00660068 -0.0302489 1.11408e-17)
(0.0213338 0.0467997 2.22223e-17)
(0.0333178 -0.0504763 0)
(0.0668174 -0.0792331 -3.09326e-17)
(0.0251842 -0.0312245 -1.94398e-17)
(0.0481317 0.0525545 5.38046e-18)
(-0.0232184 -0.0976162 0)
(0.0140851 0.0298693 -2.38331e-17)
(0.0329267 -0.0459651 -2.27819e-17)
(0.104608 -0.00586545 0)
(0.0108553 -0.0272088 1.24142e-17)
(0.0128988 -0.0744186 1.39533e-17)
(0.0353775 -0.0610362 -1.14828e-17)
(0.0388411 -0.048748 1.39112e-18)
(0.0127029 -0.0505242 0)
(0.000927249 -0.0793709 2.13871e-22)
(0.0718376 0.0984617 0)
(0.0142943 -0.0158708 1.99948e-17)
(0.0291922 -0.0471443 -2.83706e-18)
(-0.0269353 -0.0379403 1.16129e-17)
(0.00177178 -0.0323558 0)
(0.00571785 -0.0241142 2.47198e-17)
(-0.0231993 0.0746797 2.29089e-17)
(0.0455808 -0.041191 -5.73813e-18)
(-0.0344659 -0.0743879 -1.87057e-17)
(0.0185374 -0.0263672 -3.9189e-17)
(0.0256168 0.0619682 0)
(0.08137 0.0306091 0)
(0.052088 0.0687196 -2.3932e-17)
(0.0449813 0.060671 3.10277e-17)
(0.0286067 -0.0341888 9.92097e-18)
(0.132895 0.134108 1.11521e-17)
(0.0305864 -0.0500309 8.12654e-18)
(0.000829545 -0.0316395 -1.23164e-17)
(0.0472454 0.157988 0)
(0.0553501 0.0777523 0)
(0.0230956 -0.052192 0)
(0.0193735 -0.0784083 -8.18986e-19)
(-0.0358435 -0.00491443 1.278e-17)