/*--------------------------------*- C++ -*----------------------------------*\
  =========                 |
  \\      /  F ield         | OpenFOAM: The Open Source CFD Toolbox
   \\    /   O peration     | Website:  https://openfoam.org
    \\  /    A nd           | Version:  9
     \\/     M anipulation  |
\*---------------------------------------------------------------------------*/
FoamFile
{
    format      ascii;
    class       volScalarField::Internal;
    location    "200";
    object      tmp<kEpsilon:G>;
}
// * * * * * * * * * * * * * * * * * * * * * * * * * * * * * * * * * * * * * //

dimensions      [0 2 -3 0 0 0 0];

value           nonuniform List<scalar> 
12225
(
0
0
0
0
0
0
0
0
0
0
0
0
0
0
0
0
0
0
947.066
499.276
262.426
277.617
379.803
495.343
604.963
715.415
802.499
888.85
950.184
1009.34
1048.97
1086.28
1113.96
1133.26
1171.32
1145.43
86.0782
123.082
55.4854
17.2167
5.17978
4.39491
8.79594
16.6834
26.6061
38.3826
50.8907
64.0877
77.5372
90.4453
104.112
115.591
130.137
136.58
5.16944
1.72721
0.642802
0.702592
0.465969
0.185615
0.027208
0.189497
0.791096
1.88215
3.44633
5.42527
7.84027
10.4331
13.5115
16.4286
19.9941
22.9193
0.228996
0.132279
0.147928
0.313817
0.425642
0.405547
0.288131
0.152136
0.0558005
0.0243686
0.0745174
0.214009
0.452252
0.773395
1.20568
1.68789
2.28264
2.865
0.178055
0.187881
0.265154
0.319934
0.32204
0.316544
0.288454
0.237169
0.180214
0.124853
0.0777652
0.0432477
0.0261165
0.0287907
0.0537858
0.10039
0.166565
0.246865
0.127219
0.210109
0.230411
0.212289
0.211437
0.229508
0.237129
0.22565
0.205873
0.181714
0.155706
0.128594
0.103618
0.0821483
0.0661051
0.0574386
0.0563998
0.0623507
0.0976963
0.147832
0.159055
0.156511
0.166781
0.18703
0.199169
0.198631
0.192833
0.184538
0.174392
0.162181
0.149724
0.137786
0.128048
0.121768
0.121004
0.123581
0.074224
0.104043
0.121592
0.129843
0.141251
0.15691
0.167918
0.171164
0.170931
0.169488
0.166998
0.163411
0.159516
0.156129
0.154311
0.154951
0.15966
0.16612
0.0562293
0.0772532
0.0968925
0.108343
0.118853
0.131655
0.141956
0.147074
0.149375
0.150847
0.151833
0.152296
0.152851
0.154029
0.156671
0.161061
0.168484
0.176316
0.0424715
0.0582992
0.0768611
0.089426
0.0998005
0.111108
0.120756
0.126667
0.130162
0.132879
0.135332
0.137579
0.140058
0.143165
0.14746
0.152967
0.160424
0.167688
0.032535
0.0451317
0.062015
0.0750406
0.0854242
0.0957288
0.104691
0.11081
0.11483
0.118046
0.121023
0.123891
0.126968
0.13055
0.134986
0.140183
0.146562
0.152403
0.0246431
0.034783
0.0499066
0.0630109
0.0734327
0.0830623
0.0914761
0.0976444
0.101959
0.105402
0.108531
0.111531
0.114631
0.118045
0.121979
0.126304
0.131251
0.135563
0.0176582
0.0257729
0.0389562
0.0515638
0.0618962
0.0710125
0.0789317
0.0850516
0.0895438
0.0930946
0.0962049
0.0990908
0.101921
0.104839
0.107952
0.111135
0.114529
0.11728
0.0117274
0.0182928
0.0296399
0.041383
0.0514037
0.0600538
0.0675068
0.0734687
0.0779988
0.0815435
0.0845141
0.0871296
0.0895234
0.0917873
0.0939847
0.0960163
0.0979969
0.0994086
0.00694931
0.0123464
0.022068
0.0327707
0.0422955
0.0504909
0.0574992
0.0632012
0.0676184
0.0710334
0.0737608
0.0760053
0.0778845
0.0794711
0.0808155
0.0818672
0.0827309
0.0831561
0.00340838
0.00796349
0.0163748
0.026055
0.0349836
0.0427127
0.0492816
0.0546424
0.0588111
0.0619734
0.0643707
0.0661874
0.0675401
0.0685043
0.0691383
0.0694405
0.0695007
0.0692729
0.00121669
0.0052284
0.0127273
0.0215749
0.0298998
0.0371226
0.0432106
0.0481394
0.0519267
0.0547138
0.0567006
0.0580585
0.058909
0.0593388
0.0594185
0.0591855
0.0587032
0.0580736
0.000668681
0.00447384
0.0116207
0.0200809
0.0279946
0.0347645
0.0403718
0.044811
0.0481031
0.0503875
0.051867
0.0527202
0.0530766
0.0530343
0.052673
0.0520595
0.0512188
0.0503668
0.00202671
0.00607955
0.0136876
0.0224276
0.0302292
0.0366746
0.0419101
0.0459257
0.0487148
0.0504529
0.051397
0.0517514
0.051651
0.0511982
0.050477
0.0495643
0.0484607
0.0474188
0.00470305
0.00941948
0.0181564
0.02754
0.0352199
0.041275
0.0461535
0.0497799
0.052086
0.0533167
0.0537979
0.0537416
0.0532712
0.0524939
0.0515005
0.0503743
0.0490981
0.0479303
0.00868856
0.0148621
0.025287
0.035245
0.0427789
0.0485567
0.0530627
0.0560627
0.0576044
0.058175
0.0581726
0.0577455
0.0569601
0.0559185
0.0547111
0.0534197
0.0520051
0.0507334
0.0139554
0.0239032
0.0362083
0.0444511
0.0509117
0.0572631
0.0624152
0.065064
0.0656213
0.0652496
0.0645219
0.0635048
0.0622049
0.060734
0.0591646
0.057569
0.0558729
0.0543139
0.0214243
0.0421782
0.0593278
0.0605771
0.059874
0.0639441
0.0699031
0.0737458
0.0750024
0.0749994
0.0742455
0.0727415
0.0705668
0.0679979
0.065172
0.0622448
0.059142
0.0562206
0.0431862
0.0754095
0.0937657
0.105021
0.0975148
0.0905396
0.0880024
0.0867346
0.0852396
0.0834412
0.0805404
0.0760911
0.0702639
0.063697
0.0568068
0.0500734
0.0436574
0.0380411
0.0800868
0.213426
0.0681536
0.0791202
0.167922
0.215375
0.21472
0.189874
0.158713
0.128087
0.0989497
0.0725871
0.0506693
0.0349082
0.0263835
0.0258635
0.0334594
0.0490864
0.667494
0.126972
0.315737
0.505508
0.37319
0.295622
0.229547
0.141664
0.0605519
0.0116415
0.0105984
0.0682077
0.189201
0.374977
0.62055
0.923985
1.27145
1.66083
32.2301
70.9022
43.2292
18.261
7.06666
2.67131
1.11391
1.00814
1.8168
3.28554
5.25821
7.63557
10.2756
13.1586
16.1301
19.2261
22.2428
25.2883
455.62
257.636
100.996
70.5625
91.6366
128.071
167.963
206.007
241.15
273.901
303.025
329.703
353.019
374.431
392.969
410.451
425.842
440.914
0
0
0
0
0
0
0
0
0
0
0
0
0
0
0
0
0
0
0
0
0
0
0
0
0
0
0
0
0
0
0
0
0
0
0
0
0
0
0
0
0
0
0
0
0
0
0
0
0
0
0
0
11.6332
12.3393
13.0741
14.5403
15.6946
17.179
18.6483
20.2433
21.9016
23.6527
25.4837
27.4019
29.4045
31.4951
33.6726
35.9406
38.2978
40.748
43.2897
45.9265
48.6564
51.4832
54.4041
57.4225
60.5352
63.7453
67.0485
70.4477
73.9376
77.5207
81.1907
84.9495
88.7897
92.7126
96.7096
100.781
104.918
109.12
113.376
117.686
122.036
126.426
130.842
135.281
139.729
144.183
148.626
153.054
157.452
161.81
166.113
170.351
174.505
178.564
182.505
186.315
189.973
193.461
196.758
199.858
202.767
205.479
207.998
210.311
212.413
214.291
215.937
217.341
218.494
219.389
220.018
220.375
220.455
220.252
219.765
218.988
217.924
216.569
214.928
213.001
210.794
208.31
205.56
202.549
199.291
195.796
192.069
188.068
183.908
179.524
174.995
170.323
165.49
160.527
155.454
150.286
145.043
139.74
134.398
129.031
123.659
118.296
112.959
107.66
102.417
97.2437
92.1538
87.1587
82.2665
77.484
72.8166
68.2693
63.8449
59.5458
55.3717
51.3223
47.3952
43.5875
39.8941
36.3096
32.8264
29.4366
26.1304
22.8981
19.7282
16.6091
13.5289
10.4755
7.4429
4.45508
1.77286
2.35449
5.193
8.24962
11.4626
14.833
18.3905
22.1638
26.1766
30.4426
34.9604
39.6914
44.6374
49.3355
54.3855
53.498
0
0.00749995
0.0321993
0.074178
0.1613
0.299129
0.478496
0.685602
0.906376
1.131
1.35512
1.57829
1.80236
2.03033
2.26545
2.51024
2.76625
3.03377
3.30978
3.58543
3.85026
4.09386
4.29467
4.43072
4.54917
4.85367
5.60542
5.98548
5.97485
5.90167
5.16704
4.49456
4.22278
4.59699
4.52572
4.82825
5.52221
5.58813
5.30919
5.15645
5.0644
4.9625
4.8529
4.73622
4.61455
4.48883
4.36006
4.22904
4.09665
3.96357
3.83049
3.69793
3.56654
3.43687
3.30963
3.18538
3.06488
2.94888
2.83827
2.73391
2.63679
2.54796
2.46859
2.39985
2.34305
2.29946
2.27046
2.25745
2.26184
2.2851
2.32869
2.39405
2.48263
2.59585
2.73506
2.90158
3.09659
3.32121
3.57644
3.86325
4.18232
4.53418
4.91904
5.33687
5.78701
6.26817
6.77806
7.31311
7.86809
8.43623
9.01002
9.58103
10.1387
10.6711
11.1577
11.6481
12.1374
12.6376
13.1507
13.6779
14.2188
14.7725
15.3376
15.9125
16.4953
17.0841
17.6765
18.2702
18.8627
19.4512
20.0329
20.6045
21.1631
21.7055
22.2283
22.7285
23.2029
23.6489
24.0642
24.4467
24.793
25.1014
25.3657
25.583
25.7543
25.8895
25.9819
26.0289
26.0324
25.9933
25.9125
25.7921
25.6335
25.4397
25.2133
24.9581
24.6779
24.3766
24.0576
23.7248
23.3829
23.0362
22.6896
22.3468
22.0117
21.6877
21.3791
21.0894
20.8227
20.5823
20.3723
20.196
20.0575
19.9603
19.9088
19.9068
19.9594
20.0714
20.2443
20.4821
20.7972
21.1982
21.6979
22.3234
23.1037
24.1117
25.4641
27.1131
28.9945
31.1207
33.4667
36.0056
38.7056
41.5291
44.4188
47.3631
50.193
53.832
57.4699
69.836
0
0.117274
0.26328
0.379826
0.50468
0.665201
0.875153
1.13008
1.41583
1.71749
2.0242
2.33014
2.63375
2.93595
3.23847
3.54239
3.84732
4.15083
4.44741
4.72698
4.97558
5.18265
5.34894
5.47568
5.59491
5.75905
5.93
5.97488
5.86393
5.66957
5.44295
5.28454
5.20533
5.1872
5.13517
5.18926
5.32972
5.4193
5.4323
5.45222
5.53101
5.64559
5.78858
5.95602
6.14651
6.35878
6.59177
6.8444
7.11585
7.40537
7.7124
8.03636
8.37675
8.73308
9.10499
9.49203
9.89383
10.3099
10.74
11.1836
11.6404
12.1099
12.5917
13.0855
13.5908
14.1074
14.6349
15.1729
15.721
16.2788
16.8462
17.4225
18.0077
18.6014
19.2033
19.8131
20.4306
21.0551
21.6865
22.3241
22.9677
23.6165
24.2701
24.9278
25.5891
26.2531
26.9195
27.5877
28.2584
28.9341
29.6216
30.3322
31.0846
31.8979
32.8054
33.7425
34.7036
35.6809
36.6711
37.6727
38.6837
39.702
40.7246
41.7482
42.7691
43.7836
44.7874
45.7762
46.7453
47.6898
48.6042
49.4835
50.3219
51.114
51.8542
52.5369
53.157
53.7105
54.194
54.6032
54.9324
55.1767
55.3374
55.4058
55.38
55.2765
55.0903
54.8207
54.4717
54.0464
53.5477
52.9808
52.3503
51.6626
50.9239
50.1424
49.3263
48.4836
47.6204
46.7428
45.8585
44.9776
44.11
43.2645
42.4478
41.6669
40.9282
40.2387
39.6042
39.0308
38.5239
38.0894
37.7323
37.4582
37.2718
37.1741
37.1715
37.2743
37.4888
37.8268
38.3002
38.933
39.7776
40.8372
42.0917
43.5233
45.074
46.7224
48.5091
50.455
52.546
54.7457
57.0283
59.3568
61.6875
64.0651
66.4673
70.0595
74.8608
86.9141
0
0.346544
0.638641
0.84987
1.00703
1.16093
1.34869
1.58146
1.85539
2.16
2.48353
2.81609
3.15071
3.48288
3.8094
4.12694
4.43112
4.7159
4.97331
5.19391
5.36887
5.49354
5.57042
5.61281
5.64709
5.71233
5.811
5.87334
5.86848
5.81413
5.73228
5.68834
5.76538
5.94372
6.12546
6.3724
6.69619
7.00995
7.28707
7.57212
7.88332
8.21959
8.57955
8.96239
9.36791
9.7959
10.246
10.7177
11.2104
11.7235
12.2562
12.8082
13.3788
13.9676
14.574
15.1976
15.8382
16.4951
17.1682
17.8572
18.5617
19.2814
20.0161
20.7657
21.5299
22.3087
23.102
23.9096
24.7316
25.5679
26.4184
27.2833
28.1624
29.056
29.964
30.8867
31.8241
32.776
33.7424
34.7236
35.7194
36.73
37.7554
38.796
39.8522
40.9247
42.0148
43.1245
44.2573
45.4186
46.6168
47.8592
49.1472
50.4754
51.8372
53.2234
54.6341
56.0647
57.5111
58.9698
60.4372
61.9097
63.383
64.8526
66.3133
67.7601
69.1873
70.5891
71.959
73.2906
74.5767
75.8103
76.9839
78.0903
79.1219
80.071
80.9311
81.6967
82.3626
82.9232
83.3709
83.698
83.9065
83.9924
83.9456
83.7834
83.5069
83.1155
82.6157
82.0112
81.3067
80.5081
79.6225
78.6578
77.623
76.5289
75.3866
74.2066
72.9968
71.7654
70.5221
69.2807
68.0549
66.8575
65.6978
64.5858
63.5299
62.5395
61.6221
60.7862
60.0385
59.3837
58.8267
58.3784
58.0447
57.8346
57.7579
57.8229
58.0481
58.4504
59.0275
59.7827
60.715
61.8216
63.1095
64.5627
66.1238
67.7597
69.4905
71.3328
73.2752
75.2912
77.3522
79.4352
81.5301
83.7468
86.1777
90.1475
95.7115
106.136
0
0.621668
1.06325
1.39325
1.60145
1.75844
1.92194
2.11501
2.34406
2.60634
2.89395
3.19725
3.50702
3.81535
4.11543
4.40098
4.66573
4.90318
5.1069
5.27138
5.39393
5.47748
5.53206
5.57411
5.62655
5.70826
5.82252
5.94689
6.05892
6.15662
6.25388
6.37955
6.56385
6.8071
7.09627
7.44322
7.84381
8.26532
8.692
9.13525
9.60422
10.1005
10.6238
11.1735
11.7493
12.3512
12.9789
13.6322
14.311
15.0147
15.7431
16.496
17.2731
18.074
18.8986
19.7466
20.6179
21.5124
22.43
23.3707
24.3346
25.3215
26.3318
27.3654
28.4225
29.5034
30.6083
31.7373
32.8908
34.0689
35.2718
36.4998
37.7532
39.0321
40.3369
41.6677
43.0247
44.4079
45.8173
47.2533
48.7157
50.2048
51.7209
53.2644
54.836
56.4366
58.0676
59.731
61.4295
63.1665
64.9459
66.7688
68.6301
70.5203
72.4329
74.3674
76.3245
78.3009
80.2923
82.2943
84.3023
86.3112
88.3153
90.3089
92.2857
94.2393
96.1629
98.0492
99.8906
101.679
103.406
105.062
106.64
108.129
109.52
110.805
111.976
113.024
113.944
114.728
115.367
115.85
116.179
116.353
116.361
116.21
115.913
115.466
114.881
114.16
113.31
112.337
111.249
110.056
108.768
107.399
105.961
104.466
102.926
101.349
99.7485
98.1398
96.5403
94.9644
93.4252
91.9346
90.5042
89.1421
87.8577
86.6629
85.5677
84.5802
83.7116
82.971
82.3668
81.916
81.6265
81.4965
81.5324
81.735
82.1086
82.6581
83.384
84.2804
85.3466
86.5633
87.8836
89.2714
90.7325
92.2747
93.8988
95.5857
97.3231
99.1087
100.969
103.072
105.598
109.869
115.692
124.578
0
0.879543
1.44104
1.88964
2.16011
2.33238
2.47901
2.63133
2.80377
3.00097
3.22054
3.456
3.69924
3.94215
4.17731
4.39819
4.59919
4.77578
4.92484
5.0453
5.139
5.21167
5.27302
5.33606
5.41557
5.5241
5.66602
5.835
6.02189
6.22336
6.4436
6.69304
6.98218
7.3166
7.69804
8.13034
8.61074
9.12771
9.67235
10.2446
10.8472
11.4814
12.1478
12.8461
13.5764
14.3383
15.1321
15.9575
16.8147
17.7037
18.6245
19.577
20.5614
21.5776
22.6259
23.7065
24.8196
25.9655
27.1446
28.3574
29.6043
30.8859
32.2026
33.5551
34.9439
36.3697
37.8331
39.3346
40.8749
42.4543
44.0735
45.7327
47.4325
49.1731
50.9548
52.7778
54.6422
56.548
58.495
60.4832
62.5125
64.5826
66.6936
68.8454
71.0381
73.272
75.5477
77.8656
80.2264
82.6306
85.0781
87.5659
90.0877
92.6351
95.203
97.7904
100.396
103.017
105.65
108.287
110.924
113.555
116.173
118.77
121.339
123.874
126.365
128.804
131.182
133.491
135.719
137.858
139.897
141.825
143.631
145.306
146.839
148.222
149.448
150.504
151.382
152.069
152.564
152.872
152.976
152.879
152.599
152.132
151.492
150.685
149.716
148.592
147.322
145.916
144.386
142.748
141.015
139.201
137.318
135.378
133.396
131.391
129.381
127.382
125.408
123.477
121.602
119.796
118.074
116.447
114.926
113.527
112.262
111.133
110.149
109.313
108.629
108.102
107.737
107.533
107.495
107.622
107.914
108.362
108.96
109.689
110.513
111.403
112.357
113.384
114.487
115.662
116.911
118.255
119.758
121.627
124.083
128.347
133.874
141.454
0
1.08775
1.7181
2.258
2.58462
2.77664
2.91322
3.03046
3.14822
3.27708
3.42005
3.57502
3.7371
3.90047
4.05948
4.20935
4.34646
4.46867
4.57545
4.6682
4.7504
4.82777
4.90803
5.00035
5.11421
5.25751
5.43453
5.64508
5.88652
6.15723
6.45831
6.79351
7.16747
7.58422
8.04721
8.55925
9.11987
9.72464
10.3688
11.0501
11.7686
12.5248
13.3191
14.1518
15.0231
15.9331
16.8821
17.8704
18.8983
19.9661
21.0744
22.2236
23.4144
24.6473
25.9231
27.2427
28.6068
30.0164
31.4726
32.9765
34.5291
36.1317
37.7853
39.4912
41.2506
43.0645
44.9341
46.8604
48.8443
50.8866
52.988
55.1493
57.3707
59.6527
61.9954
64.3988
66.8628
69.387
71.9709
74.6139
77.3151
80.0737
82.8887
85.7591
88.6838
91.6618
94.6918
97.7726
100.902
104.079
107.299
110.558
113.848
117.162
120.494
123.843
127.203
130.572
133.945
137.314
140.672
144.013
147.328
150.609
153.848
157.035
160.163
163.22
166.198
169.085
171.872
174.546
177.096
179.51
181.776
183.882
185.819
187.577
189.144
190.509
191.657
192.579
193.269
193.733
193.957
193.937
193.689
193.215
192.529
191.641
190.555
189.279
187.821
186.192
184.405
182.478
180.425
178.262
176.002
173.657
171.247
168.792
166.314
163.833
161.366
158.932
156.548
154.232
152.001
149.866
147.835
145.92
144.126
142.463
140.934
139.545
138.3
137.202
136.252
135.452
134.801
134.301
133.946
133.73
133.642
133.666
133.775
133.951
134.191
134.507
134.907
135.402
136.008
136.771
137.779
139.26
141.437
145.391
150.208
156.58
0
1.23168
1.86845
2.4575
2.81919
3.02591
3.15475
3.2436
3.31521
3.38419
3.45802
3.53885
3.62563
3.71582
3.80655
3.89544
3.98093
4.06268
4.14159
4.21988
4.30105
4.38976
4.49161
4.61277
4.75952
4.93731
5.14993
5.39916
5.68527
6.00829
6.36887
6.76865
7.20997
7.69555
8.22817
8.8101
9.44211
10.1231
10.851
11.6243
12.4425
13.3056
14.2139
15.1679
16.1681
17.2151
18.3095
19.4522
20.644
21.8858
23.1788
24.5241
25.9229
27.3767
28.8869
30.4552
32.0833
33.773
35.5262
37.3447
39.2306
41.1858
43.2123
45.3119
47.4866
49.7382
52.0682
54.4782
56.9696
59.5434
62.2006
64.942
67.7679
70.6785
73.6739
76.7536
79.9169
83.163
86.4904
89.8978
93.3832
96.9445
100.579
104.286
108.06
111.9
115.802
119.762
123.777
127.841
131.948
136.093
140.267
144.461
148.67
152.887
157.108
161.327
165.537
169.73
173.898
178.031
182.122
186.159
190.134
194.038
197.859
201.587
205.212
208.722
212.105
215.349
218.442
221.369
224.119
226.68
229.04
231.187
233.108
234.79
236.217
237.378
238.267
238.887
239.225
239.278
239.054
238.559
237.811
236.82
235.594
234.139
232.464
230.58
228.503
226.247
223.83
221.269
218.579
215.778
212.885
209.926
206.923
203.899
200.878
197.877
194.912
192.002
189.16
186.398
183.727
181.159
178.699
176.355
174.132
172.036
170.066
168.228
166.521
164.946
163.501
162.188
161
159.93
158.971
158.107
157.323
156.609
155.97
155.42
154.977
154.661
154.506
154.574
154.974
155.932
157.646
161.052
164.915
170.101
0
1.31185
1.89274
2.48295
2.85293
3.06255
3.1817
3.24744
3.28327
3.30604
3.32623
3.34939
3.37782
3.41201
3.45171
3.49663
3.54686
3.60316
3.66703
3.74073
3.82717
3.93
4.0531
4.20072
4.37718
4.58643
4.83172
5.11538
5.43891
5.80338
6.20984
6.65962
7.15443
7.69628
8.28736
8.92976
9.62458
10.3722
11.1725
12.025
12.9298
13.887
14.8974
15.9617
17.0808
18.2559
19.4884
20.7796
22.1313
23.5452
25.0232
26.5673
28.1797
29.8628
31.6191
33.4513
35.362
37.3543
39.431
41.5951
43.8496
46.1975
48.6416
51.1847
53.8295
56.5785
59.4339
62.3978
65.4719
68.6577
71.956
75.3678
78.8931
82.532
86.2839
90.1478
94.1221
98.2051
102.394
106.687
111.079
115.568
120.149
124.817
129.568
134.396
139.295
144.26
149.283
154.357
159.473
164.623
169.797
174.986
180.181
185.373
190.556
195.72
200.858
205.96
211.015
216.014
220.945
225.798
230.563
235.228
239.783
244.216
248.515
252.669
256.665
260.49
264.131
267.573
270.804
273.812
276.584
279.106
281.363
283.34
285.022
286.396
287.457
288.199
288.617
288.707
288.473
287.92
287.068
285.931
284.52
282.837
280.893
278.701
276.274
273.632
270.792
267.773
264.593
261.276
257.843
254.318
250.726
247.089
243.428
239.762
236.114
232.497
228.93
225.423
221.99
218.641
215.383
212.222
209.165
206.214
203.373
200.642
198.024
195.518
193.123
190.838
188.661
186.585
184.604
182.71
180.895
179.158
177.515
175.983
174.591
173.369
172.364
171.651
171.346
171.668
172.771
175.46
178.248
182.304
0
1.33692
1.80926
2.35737
2.70877
2.90702
3.01193
3.0578
3.06738
3.05813
3.04212
3.02696
3.01729
3.01582
3.02416
3.04365
3.07531
3.12043
3.18062
3.25788
3.35437
3.47294
3.61642
3.78794
3.99067
4.22768
4.50179
4.81541
5.17058
5.56898
6.01219
6.50177
7.03946
7.62719
8.26698
8.96087
9.71013
10.5164
11.3806
12.3034
13.2858
14.3286
15.4331
16.6007
17.8331
19.1324
20.5006
21.9404
23.4543
25.0451
26.7157
28.4695
30.3096
32.2398
34.2639
36.3856
38.6092
40.9388
43.3786
45.9328
48.6056
51.4011
54.3231
57.3755
60.5617
63.885
67.3481
70.9536
74.7034
78.5991
82.6417
86.8317
91.1688
95.6524
100.281
105.053
109.965
115.015
120.197
125.508
130.943
136.494
142.157
147.923
153.785
159.734
165.763
171.861
178.02
184.227
190.473
196.747
203.035
209.327
215.611
221.875
228.111
234.306
240.45
246.531
252.537
258.455
264.275
269.983
275.569
281.02
286.324
291.47
296.444
301.236
305.831
310.217
314.38
318.306
321.982
325.396
328.534
331.38
333.919
336.136
338.019
339.551
340.725
341.531
341.968
342.032
341.72
341.035
340.001
338.636
336.959
334.971
332.68
330.101
327.251
324.15
320.816
317.27
313.533
309.626
305.572
301.395
297.121
292.773
288.373
283.943
279.505
275.075
270.671
266.307
261.996
257.747
253.57
249.47
245.454
241.524
237.683
233.934
230.277
226.713
223.242
219.863
216.577
213.379
210.268
207.24
204.298
201.449
198.714
196.124
193.712
191.52
189.603
188.047
186.966
186.562
186.942
188.801
190.474
193.443
0
1.32045
1.64622
2.11917
2.42967
2.60325
2.68853
2.7159
2.70641
2.67702
2.64015
2.60441
2.5756
2.55752
2.55265
2.56305
2.59037
2.63617
2.70201
2.78954
2.90054
3.03704
3.20121
3.39543
3.6222
3.88409
4.18364
4.52333
4.90545
5.33214
5.80541
6.32729
6.89987
7.5254
8.20621
8.94487
9.74325
10.6038
11.5278
12.5172
13.5739
14.6997
15.8969
17.1681
18.5162
19.9442
21.4556
23.0543
24.744
26.5288
28.4132
30.4016
32.499
34.7104
37.0411
39.4967
42.0827
44.8048
47.6686
50.6798
53.8437
57.1655
60.6504
64.3028
68.1271
72.1271
76.3059
80.6663
85.2103
89.9393
94.8538
99.9537
105.238
110.705
116.352
122.175
128.171
134.334
140.657
147.134
153.757
160.517
167.405
174.411
181.523
188.73
196.02
203.381
210.798
218.259
225.75
233.255
240.76
248.251
255.712
263.129
270.49
277.781
284.988
292.096
299.091
305.96
312.689
319.264
325.673
331.902
337.94
343.773
349.39
354.777
359.925
364.819
369.444
373.788
377.839
381.584
385.007
388.094
390.825
393.188
395.167
396.752
397.929
398.692
399.038
398.967
398.468
397.539
396.217
394.517
392.471
390.079
387.349
384.296
380.935
377.284
373.364
369.195
364.801
360.204
355.428
350.499
345.442
340.281
335.04
329.742
324.409
319.062
313.717
308.391
303.095
297.843
292.641
287.498
282.417
277.405
272.464
267.596
262.803
258.087
253.449
248.892
244.415
240.02
235.709
231.487
227.36
223.347
219.477
215.787
212.318
209.122
206.259
203.82
201.914
200.72
200.303
201.265
201.834
203.771
0
1.27792
1.43514
1.81231
2.06637
2.20485
2.26542
2.27424
2.25037
2.20964
2.16387
2.12135
2.0883
2.06885
2.06592
2.08172
2.11766
2.1751
2.25524
2.35933
2.48874
2.64503
2.83005
3.04584
3.29459
3.57871
3.90073
4.26327
4.66893
5.12027
5.61984
6.17023
6.77412
7.43435
8.15366
8.9352
9.78166
10.697
11.6832
12.7434
13.8803
15.0971
16.3974
17.7853
19.2653
20.8422
22.5211
24.3073
26.2062
28.2235
30.3652
32.6376
35.0473
37.6012
40.3063
43.17
46.1996
49.4021
52.7849
56.3547
60.1182
64.0818
68.2512
72.6317
77.228
82.0441
87.0833
92.3479
97.8396
103.559
109.506
115.678
122.075
128.691
135.522
142.564
149.808
157.248
164.873
172.675
180.643
188.763
197.024
205.412
213.911
222.506
231.182
239.922
248.709
257.527
266.357
275.181
283.982
292.74
301.439
310.061
318.589
327.007
335.298
343.445
351.431
359.242
366.861
374.276
381.47
388.432
395.147
401.604
407.79
413.691
419.298
424.597
429.576
434.221
438.523
442.469
446.043
449.229
452.01
454.369
456.297
457.781
458.813
459.386
459.502
459.157
458.338
457.042
455.315
453.159
450.624
447.709
444.42
440.77
436.774
432.452
427.824
422.914
417.747
412.346
406.736
400.944
394.995
388.915
382.727
376.459
370.131
363.766
357.383
350.998
344.625
338.277
331.963
325.689
319.463
313.289
307.172
301.114
295.118
289.189
283.328
277.54
271.829
266.2
260.66
255.218
249.889
244.698
239.682
234.885
230.356
226.149
222.333
218.995
216.241
214.222
212.967
213.007
212.51
213.475
0
1.22319
1.20539
1.47825
1.66762
1.7643
1.7967
1.78662
1.75101
1.70442
1.6578
1.61913
1.59376
1.58527
1.59609
1.62777
1.6815
1.75815
1.85854
1.98355
2.13431
2.31218
2.51882
2.75614
3.02636
3.33197
3.6757
4.06048
4.48935
4.96539
5.49182
6.07207
6.70971
7.40847
8.17223
9.00517
9.91079
10.893
11.9562
13.1049
14.3436
15.6774
17.1116
18.6523
20.3058
22.079
23.9789
26.0127
28.1879
30.5118
32.9925
35.6383
38.4578
41.4599
44.6537
48.0482
51.6523
55.4747
59.5238
63.8075
68.3334
73.1081
78.1379
83.4281
88.9831
94.8064
100.9
107.267
113.905
120.815
127.995
135.44
143.146
151.107
159.315
167.762
176.437
185.33
194.428
203.718
213.184
222.811
232.582
242.478
252.482
262.574
272.732
282.939
293.172
303.412
313.636
323.824
333.952
344.001
353.948
363.773
373.457
382.98
392.322
401.465
410.39
419.079
427.516
435.684
443.57
451.159
458.437
465.393
472.015
478.289
484.206
489.753
494.918
499.694
504.07
508.034
511.572
514.669
517.31
519.485
521.186
522.398
523.121
523.336
523.066
522.284
520.988
519.165
516.872
514.099
510.915
507.322
503.321
498.925
494.149
489.012
483.539
477.754
471.684
465.354
458.789
452.017
445.064
437.955
430.718
423.377
415.958
408.483
400.973
393.445
385.915
378.395
370.896
363.425
355.992
348.6
341.256
333.963
326.727
319.551
312.443
305.406
298.451
291.584
284.819
278.168
271.653
265.304
259.165
253.285
247.72
242.53
237.785
233.565
229.967
227.119
225.019
224.142
222.64
222.7
0
1.1677
0.981194
1.15194
1.27554
1.32819
1.33032
1.30086
1.25547
1.20712
1.16555
1.13754
1.12749
1.13805
1.17064
1.22596
1.30437
1.40614
1.53167
1.68157
1.85682
2.05874
2.28905
2.54983
2.84355
3.17313
3.54178
3.95303
4.41073
4.91882
5.48219
6.10487
6.79152
7.54687
8.37581
9.28342
10.2753
11.3575
12.5365
13.819
15.212
16.7229
18.3593
20.1296
22.0424
24.107
26.3325
28.7286
31.3046
34.0701
37.0356
40.2114
43.6084
47.2375
51.1094
55.2345
59.623
64.2843
69.2274
74.4604
79.9905
85.8242
91.9666
98.422
105.193
112.282
119.689
127.413
135.451
143.801
152.455
161.408
170.652
180.176
189.969
200.019
210.311
220.83
231.56
242.483
253.58
264.831
276.215
287.709
299.291
310.936
322.622
334.325
346.02
357.683
369.288
380.811
392.227
403.511
414.64
425.589
436.339
446.865
457.146
467.16
476.889
486.312
495.41
504.169
512.571
520.604
528.256
535.514
542.366
548.802
554.816
560.395
565.534
570.223
574.455
578.218
581.5
584.291
586.576
588.35
589.604
590.332
590.516
590.18
589.305
587.884
585.91
583.369
580.319
576.745
572.725
568.276
563.39
558.08
552.361
546.253
539.784
532.98
525.871
518.481
510.838
502.968
494.898
486.655
478.267
469.761
461.162
452.494
443.78
435.038
426.285
417.534
408.797
400.083
391.401
382.758
374.161
365.614
357.124
348.698
340.344
332.07
323.887
315.809
307.853
300.04
292.393
284.945
277.742
270.841
264.297
258.166
252.519
247.44
243.012
239.348
236.416
234.655
232.22
231.459
0
1.11964
0.778969
0.857368
0.918893
0.928646
0.901662
0.854278
0.801229
0.754489
0.722624
0.711005
0.72254
0.758447
0.81891
0.903588
1.01202
1.14385
1.29915
1.47843
1.68274
1.91364
2.17331
2.46434
2.79034
3.15472
3.56162
4.01548
4.52121
5.08421
5.71012
6.40515
7.17574
8.02861
8.9712
10.0105
11.1553
12.4142
13.7966
15.3121
16.9707
18.7829
20.7594
22.9113
25.2497
27.7863
30.533
33.5014
36.7033
40.1506
43.8557
47.8312
52.0895
56.6427
61.5022
66.6787
72.1821
78.021
84.2031
90.7349
97.6217
104.867
112.474
120.443
128.774
137.465
146.511
155.908
165.65
175.727
186.13
196.848
207.867
219.172
230.749
242.579
254.644
266.924
279.398
292.045
304.841
317.763
330.785
343.882
357.029
370.198
383.362
396.493
409.563
422.543
435.406
448.127
460.677
473.029
485.157
497.037
508.644
519.956
530.948
541.599
551.889
561.796
571.301
580.387
589.041
597.25
605.003
612.289
619.097
625.42
631.253
636.589
641.421
645.746
649.554
652.84
655.587
657.798
659.453
660.56
661.109
661.071
660.491
659.338
657.615
655.319
652.443
648.969
644.952
640.372
635.311
629.811
623.854
617.451
610.617
603.376
595.756
587.788
579.501
570.923
562.08
552.999
543.707
534.233
524.605
514.851
504.998
495.071
485.092
475.083
465.06
455.039
445.031
435.049
425.101
415.196
405.341
395.545
385.817
376.168
366.605
357.138
347.781
338.551
329.469
320.552
311.819
303.318
295.1
287.223
279.746
272.73
266.251
260.375
255.174
250.742
247.029
244.447
241.178
239.703
0
1.08195
0.604105
0.60385
0.610717
0.581824
0.528677
0.467091
0.411177
0.371711
0.355675
0.366735
0.406131
0.473561
0.56793
0.687931
0.832491
1.00107
1.1939
1.41179
1.65633
1.92983
2.23541
2.57703
2.95932
3.38768
3.86799
4.40673
5.01114
5.68939
6.44996
7.30205
8.25524
9.31957
10.5056
11.8248
13.2902
14.9148
16.7118
18.695
20.8781
23.2755
25.9013
28.7695
31.8938
35.288
38.9651
42.9387
47.2222
51.829
56.7726
62.0656
67.7199
73.7459
80.1527
86.9479
94.1376
101.726
109.717
118.111
126.907
136.105
145.7
155.687
166.059
176.808
187.924
199.395
211.208
223.349
235.803
248.552
261.577
274.859
288.377
302.109
316.032
330.122
344.354
358.704
373.147
387.653
402.195
416.746
431.278
445.763
460.168
474.465
488.625
502.618
516.418
529.997
543.327
556.381
569.132
581.555
593.628
605.327
616.628
627.511
637.955
647.94
657.446
666.455
674.955
682.94
690.4
697.324
703.703
709.534
714.814
719.538
723.703
727.305
730.339
732.803
734.676
735.981
736.686
736.81
736.322
735.264
733.594
731.326
728.464
725.01
720.96
716.293
711.054
705.217
698.867
692.076
684.818
677.1
668.938
660.359
651.395
642.079
632.442
622.512
612.315
601.879
591.231
580.4
569.417
558.309
547.106
535.832
524.512
513.168
501.817
490.476
479.158
467.876
456.641
445.461
434.345
423.304
412.349
401.477
390.711
380.065
369.554
359.201
349.03
339.068
329.346
319.895
310.774
302.038
293.744
285.973
278.762
272.184
266.301
261.188
256.778
253.463
249.443
247.382
0
1.04644
0.463757
0.407097
0.374116
0.318369
0.249965
0.184541
0.135599
0.112505
0.120385
0.16106
0.234186
0.338327
0.471674
0.632626
0.820279
1.03471
1.27712
1.54973
1.85567
2.19912
2.58555
3.02177
3.51592
4.07655
4.71295
5.4353
6.255
7.18474
8.23816
9.43064
10.7772
12.2933
13.9962
15.9035
18.0339
20.4057
23.0366
25.9442
29.1455
32.6583
36.4988
40.6819
45.2214
50.1306
55.4225
61.107
67.1967
73.703
80.6358
88.0025
95.8082
104.055
112.745
121.877
131.447
141.45
151.881
162.73
173.989
185.646
197.69
210.105
222.877
235.989
249.425
263.167
277.196
291.491
306.031
320.795
335.761
350.905
366.204
381.632
397.164
412.776
428.442
444.136
459.83
475.498
491.11
506.639
522.054
537.328
552.434
567.342
582.026
596.458
610.612
624.462
637.984
651.15
663.937
676.321
688.279
699.791
710.834
721.392
731.448
740.98
749.97
758.403
766.274
773.579
780.31
786.454
792.003
796.954
801.308
805.062
808.216
810.762
812.7
814.034
814.727
814.827
814.266
813.141
811.382
809.004
806.008
802.395
798.176
793.362
787.951
781.926
775.307
768.069
760.283
752.066
743.381
734.231
724.633
714.616
704.217
693.471
682.41
671.06
659.448
647.601
635.547
623.315
610.938
598.444
585.864
573.223
560.546
547.854
535.168
522.504
509.879
497.305
484.795
472.356
459.999
447.736
435.584
423.561
411.673
399.936
388.371
377.005
365.864
354.992
344.391
334.114
324.218
314.755
305.782
297.34
289.506
282.335
275.876
270.189
265.19
261.267
256.63
254.186
0
1.00723
0.360584
0.27695
0.22627
0.161936
0.0945852
0.0397796
0.00984859
0.0123769
0.0506484
0.125089
0.234782
0.378412
0.554778
0.763363
1.00506
1.28268
1.6008
1.96531
2.38288
2.86173
3.41262
4.04879
4.78504
5.63723
6.62211
7.75722
9.06265
10.5614
12.2777
14.2361
16.4596
18.9704
21.7916
24.9473
28.4614
32.3565
36.6518
41.3628
46.5037
52.0884
58.1286
64.6348
71.6141
79.073
87.0114
95.4264
104.326
113.709
123.571
133.905
144.7
155.944
167.624
179.724
192.23
205.124
218.387
232.002
245.948
260.208
274.761
289.587
304.663
319.971
335.488
351.195
367.071
383.092
399.239
415.488
431.819
448.208
464.633
481.072
497.5
513.895
530.234
546.493
562.649
578.675