/*--------------------------------*- C++ -*----------------------------------*\
  =========                 |
  \\      /  F ield         | OpenFOAM: The Open Source CFD Toolbox
   \\    /   O peration     | Website:  https://openfoam.org
    \\  /    A nd           | Version:  9
     \\/     M anipulation  |
\*---------------------------------------------------------------------------*/
FoamFile
{
    format      ascii;
    class       volScalarField;
    location    "2.19";
    object      p;
}
// * * * * * * * * * * * * * * * * * * * * * * * * * * * * * * * * * * * * * //

dimensions      [0 2 -2 0 0 0 0];

internalField   nonuniform List<scalar> 
1655
(
14.5681
14.5637
14.4815
14.567
14.5667
14.5688
14.4769
14.54
14.517
14.5667
14.5674
14.567
14.5445
14.5518
14.4989
14.4481
14.4574
14.5104
14.5681
14.5519
14.4452
14.5158
14.558
14.5606
14.5674
14.4518
14.446
14.523
14.5258
14.4397
14.4663
14.4951
14.5317
14.4863
14.5081
14.4872
14.568
14.5634
14.5345
14.5635
14.4429
14.5637
14.5427
14.5666
14.5584
14.5672
14.5645
14.5587
14.567
14.5452
14.5684
14.4889
14.4965
14.5211
14.5197
14.4825
14.4427
14.568
14.5658
14.4804
14.4645
14.5689
14.5677
14.539
14.5631
14.4748
14.5596
14.5674
14.5082
14.5639
14.5686
14.4786
14.4455
14.5002
14.4671
14.5568
14.5288
14.5074
14.4431
14.4415
14.5621
14.5578
14.5178
14.5659
14.4465
14.4956
14.4707
14.4438
14.5649
14.4952
14.4988
14.4818
14.5675
14.569
14.5547
14.5676
14.5603
14.5672
14.4947
14.4919
14.4782
14.5613
14.5683
14.5612
14.5133
14.5682
14.5389
14.4388
14.4901
14.4871
14.5127
14.5689
14.4844
14.4505
14.5458
14.4992
14.5423
14.5659
14.5654
14.5133
14.4784
14.4709
14.4672
14.5554
14.5601
14.5507
14.5451
14.5546
14.4498
14.4579
14.5652
14.5079
14.5405
14.5528
14.4395
14.5632
14.5662
14.4954
14.4421
14.5594
14.4821
14.4457
14.4481
14.4664
14.4551
14.4637
14.4681
14.4757
14.4734
14.4591
14.4602
14.4581
14.4618
14.461
14.4983
14.5466
14.5643
14.4795
14.5426
14.5629
14.474
14.5624
14.5221
14.4781
14.4728
14.5669
14.5234
14.5485
14.5612
14.5078
14.4569
14.5248
14.4776
14.5329
14.4439
14.5363
14.5661
14.5073
14.4623
14.5536
14.4875
14.5243
14.5695
14.5571
14.5603
14.4727
14.5579
14.4693
14.5109
14.5265
14.5604
14.5686
14.5156
14.4903
14.4851
14.439
14.5141
14.4809
14.5662
14.5252
14.5609
14.5607
14.4714
14.4688
14.5054
14.4482
14.5345
14.5144
14.4636
14.4809
14.5099
14.4981
14.5627
14.5481
14.5534
14.559
14.4821
14.564
14.5072
14.5271
14.559
14.4459
14.5359
14.5338
14.5326
14.4983
14.4944
14.5027
14.5052
14.5082
14.5482
14.5039
14.5081
14.5074
14.5304
14.5458
14.4937
14.5164
14.4857
14.5065
14.4917
14.5607
14.5119
14.4399
14.5324
14.4417
14.4639
14.5258
14.481
14.5317
14.5664
14.4406
14.52
14.5032
14.5331
14.5116
14.4878
14.5343
14.5078
14.54
14.5573
14.4583
14.4996
14.5
14.5176
14.5487
14.5423
14.5509
14.5265
14.5501
14.5021
14.5085
14.5614
14.4613
14.5066
14.5094
14.4632
14.5328
14.5159
14.5461
14.5195
14.5508
14.5083
14.4908
14.4925
14.5111
14.5194
14.5119
14.5397
14.509
14.5117
14.4417
14.5482
14.528
14.5199
14.5188
14.5383
14.5095
14.4402
14.4719
14.5095
14.5704
14.5709
14.5188
14.4964
14.5165
14.5074
14.4726
14.5208
14.5021
14.512
14.4573
14.4685
14.5542
14.5458
14.5221
14.441
14.5208
14.4997
14.496
14.5211
14.5504
14.5143
14.5225
14.5123
14.5683
14.5688
14.5483
14.4822
14.5253
14.5387
14.5212
14.5538
14.4692
14.5178
14.4823
14.5268
14.5461
14.5082
14.5154
14.5019
14.5196
14.5066
14.5041
14.4862
14.5229
14.5513
14.511
14.4991
14.4582
14.5546
14.5107
14.5077
14.5197
14.5247
14.5059
14.5116
14.5134
14.5269
14.4891
14.4841
14.5415
14.524
14.5355
14.5566
14.4863
14.4743
14.5622
14.5256
14.5397
14.5606
14.5239
14.5587
14.5163
14.5667
14.5234
14.534
14.5448
14.5465
14.5069
14.5514
14.5412
14.5509
14.5355
14.5067
14.5279
14.5142
14.5284
14.5095
14.4877
14.4454
14.5133
14.5352
14.5309
14.5241
14.5201
14.5041
14.5129
14.5265
14.5531
14.5106
14.5518
14.5415
14.5502
14.5222
14.5297
14.5303
14.5111
14.5628
14.5298
14.5702
14.5368
14.5295
14.5267
14.5328
14.5324
14.5328
14.5047
14.5299
14.5186
14.5554
14.5361
14.4959
14.5106
14.5317
14.4652
14.5095
14.5214
14.474
14.5309
14.4982
14.5077
14.5247
14.5686
14.5312
14.5485
14.543
14.5021
14.5711
14.5387
14.4469
14.5155
14.5142
14.5095
14.5226
14.5434
14.5273
14.5281
14.5269
14.5181
14.5265
14.5462
14.522
14.5294
14.5267
14.5234
14.5492
14.5158
14.5311
14.5026
14.5506
14.5161
14.5462
14.5505
14.5583
14.5511
14.5227
14.5163
14.5179
14.5508
14.5548
14.5491
14.5298
14.5191
14.5448
14.555
14.5583
14.5535
14.5152
14.5004
14.4956
14.5285
14.5194
14.517
14.5559
14.5243
14.5069
14.5061
14.5206
14.5358
14.5419
14.5181
14.5267
14.5463
14.5566
14.5521
14.471
14.4998
14.5493
14.543
14.5547
14.5585
14.4945
14.5504
14.4712
14.5561
14.5117
14.5538
14.5531
14.5117
14.5554
14.5574
14.5493
14.5564
14.5059
14.5467
14.5517
14.5499
14.4749
14.4769
14.5186
14.5201
14.5576
14.5491
14.4727
14.5249
14.5587
14.5552
14.5538
14.5202
14.5573
14.5175
14.5692
14.5624
14.5712
14.5652
14.5709
14.5705
14.5631
14.5682
14.5695
14.4854
14.5707
14.5649
14.5676
14.571
14.57
14.561
14.5576
14.5661
14.5701
14.5581
14.4553
14.56
14.5547
14.4743
14.4608
14.5596
14.5496
14.5169
14.5431
14.5542
14.5228
14.5147
14.5573
14.4838
14.5447
14.5238
14.512
14.518
14.5607
14.5224
14.4635
14.5522
14.5205
14.5479
14.5587
14.5124
14.4821
14.5467
14.5605
14.5591
14.5498
14.488
14.5519
14.5578
14.5066
14.5272
14.5468
14.5292
14.56
14.5259
14.5252
14.5253
14.5318
14.4863
14.5606
14.4728
14.526
14.5177
14.5275
14.4581
14.5019
14.5122
14.4568
14.4555
14.4583
14.4763
14.4438
14.4576
14.5564
14.56
14.4491
14.4575
14.4655
14.5296
14.4813
14.5618
14.5283
14.4952
14.485
14.5315
14.4814
14.5073
14.5338
14.5563
14.5298
14.5287
14.5282
14.5483
14.5399
14.5435
14.5285
14.5598
14.5613
14.5294
14.5625
14.5654
14.5595
14.5466
14.5642
14.4928
14.5426
14.5638
14.5625
14.5605
14.5581
14.5599
14.5405
14.4591
14.531
14.5613
14.5398
14.552
14.5541
14.5645
14.5438
14.5272
14.5358
14.4924
14.5557
14.5248
14.55
14.5487
14.535
14.5184
14.5583
14.5628
14.5641
14.5625
14.5221
14.5337
14.5564
14.5355
14.5543
14.551
14.535
14.5633
14.5135
14.5591
14.531
14.5279
14.5487
14.5366
14.5448
14.4849
14.5648
14.5054
14.5323
14.5332
14.544
14.5524
14.5535
14.5374
14.561
14.5314
14.5579
14.5237
14.5625
14.5639
14.5425
14.5614
14.5629
14.5478
14.5322
14.5369
14.5563
14.5376
14.5355
14.5222
14.4857
14.5408
14.4744
14.5415
14.5396
14.5241
14.5598
14.5459
14.5454
14.4568
14.5354
14.5398
14.5137
14.5465
14.5524
14.4877
14.5351
14.5547
14.5521
14.558
14.4633
14.5608
14.5352
14.5385
14.5588
14.5521
14.5317
14.5523
14.5427
14.555
14.4934
14.56
14.5641
14.4851
14.536
14.5422
14.5389
14.5616
14.5593
14.5513
14.539
14.558
14.5112
14.4591
14.4661
14.5639
14.5575
14.5425
14.5516
14.5561
14.4756
14.4717
14.5364
14.562
14.499
14.5491
14.5528
14.4826
14.5395
14.522
14.4728
14.5548
14.5598
14.4968
14.538
14.5364
14.5631
14.5389
14.5411
14.543
14.546
14.5429
14.5398
14.5427
14.5342
14.5371
14.5626
14.551
14.5425
14.5364
14.5614
14.4665
14.5391
14.5237
14.5451
14.5229
14.5346
14.5158
14.5612
14.5572
14.5635
14.5549
14.5513
14.5596
14.5471
14.5338
14.5408
14.5629
14.4755
14.5591
14.5369
14.5546
14.4785
14.5568
14.507
14.4814
14.548
14.5436
14.5539
14.4643
14.5465
14.5504
14.5009
14.565
14.5479
14.4778
14.5319
14.5086
14.544
14.5566
14.5142
14.5458
14.5525
14.5467
14.5519
14.537
14.5495
14.5335
14.5647
14.5475
14.51
14.5519
14.469
14.5634
14.5654
14.5415
14.4671
14.5604
14.5598
14.5391
14.5459
14.4619
14.5049
14.5308
14.55
14.5621
14.5635
14.5383
14.5284
14.5559
14.5616
14.5166
14.5069
14.4798
14.536
14.5519
14.5645
14.5459
14.5343
14.5179
14.5228
14.5455
14.5553
14.549
14.5535
14.5621
14.5464
14.5617
14.5411
14.4556
14.5209
14.5558
14.4569
14.5134
14.5582
14.5493
14.558
14.549
14.5264
14.5481
14.5592
14.5261
14.4857
14.5543
14.5635
14.5292
14.5296
14.5437
14.5409
14.5275
14.5576
14.5491
14.562
14.5518
14.5652
14.5392
14.5587
14.5609
14.5619
14.56
14.5419
14.4729
14.4604
14.5532
14.5584
14.5325
14.5403
14.4521
14.5601
14.5635
14.5196
14.5621
14.5526
14.5431
14.5429
14.5528
14.535
14.5575
14.5377
14.5576
14.5416
14.5533
14.5408
14.5579
14.5601
14.56
14.5544
14.5569
14.5329
14.5036
14.5553
14.4718
14.5473
14.5099
14.547
14.5437
14.4909
14.5557
14.5476
14.5618
14.5595
14.5551
14.5231
14.5173
14.5102
14.5214
14.5206
14.5515
14.5291
14.5243
14.5433
14.5485
14.539
14.5254
14.4548
14.5108
14.5075
14.5526
14.4617
14.5411
14.4911
14.5604
14.5312
14.561
14.56
14.5631
14.5474
14.557
14.5589
14.5627
14.5575
14.529
14.5295
14.4658
14.5509
14.5591
14.4992
14.5364
14.5038
14.5424
14.5564
14.5324
14.5657
14.5143
14.5578
14.5379
14.4652
14.5353
14.5337
14.5579
14.5617
14.5585
14.5552
14.5601
14.537
14.558
14.5645
14.5334
14.53
14.5524
14.5412
14.5606
14.5566
14.5507
14.5311
14.5533
14.5343
14.5537
14.5447
14.5529
14.5457
14.5082
14.5048
14.5515
14.5431
14.5388
14.5533
14.5563
14.536
14.5557
14.4989
14.4601
14.4599
14.5353
14.5476
14.5457
14.5077
14.5134
14.5543
14.5664
14.5549
14.4941
14.564
14.5437
14.5467
14.5413
14.4942
14.5476
14.5165
14.5329
14.524
14.5385
14.5555
14.5338
14.4599
14.5035
14.5519
14.5397
14.5115
14.5196
14.5137
14.4895
14.5647
14.5419
14.4491
14.4928
14.5503
14.5535
14.5534
14.5411
14.5426
14.5491
14.5535
14.5528
14.5392
14.5512
14.5401
14.4554
14.5009
14.53
14.5059
14.4851
14.5538
14.5405
14.5306
14.4561
14.5383
14.5117
14.5124
14.5281
14.5194
14.4536
14.5463
14.5417
14.5253
14.5466
14.5302
14.5553
14.5122
14.5585
14.5134
14.5632
14.5366
14.5191
14.5052
14.5393
14.5588
14.4523
14.534
14.5569
14.5468
14.5576
14.5525
14.5375
14.5615
14.5511
14.5332
14.5492
14.5055
14.5371
14.5574
14.5263
14.5505
14.5149
14.5367
14.4909
14.5441
14.5153
14.5162
14.5522
14.548
14.452
14.5275
14.5499
14.534
14.5133
14.5455
14.5454
14.4978
14.522
14.5465
14.4965
14.4594
14.5229
14.5446
14.5563
14.5307
14.5537
14.5101
14.5158
14.5151
14.5542
14.5171
14.539
14.5237
14.5486
14.5427
14.5528
14.5187
14.4446
14.5451
14.4961
14.4968
14.5087
14.5316
14.5003
14.5196
14.5173
14.4932
14.5547
14.55
14.5452
14.5245
14.4985
14.5431
14.5403
14.4402
14.5499
14.491
14.5471
14.5477
14.5455
14.5259
14.5108
14.528
14.4713
14.5415
14.4517
14.5112
14.5486
14.4865
14.5513
14.5363
14.5401
14.4622
14.4768
14.5084
14.5402
14.5503
14.5567
14.5522
14.5542
14.5647
14.4478
14.5491
14.5014
14.5478
14.4782
14.4639
14.5519
14.5543
14.5052
14.4809
14.547
14.5014
14.4748
14.4673
14.5412
14.519
14.544
14.5542
14.5514
14.5474
14.4934
14.4476
14.5682
14.5642
14.5189
14.5093
14.4753
14.551
14.5435
14.5602
14.5646
14.4924
14.5622
14.5223
14.4507
14.4663
14.5483
14.5035
14.5003
14.5221
14.5574
14.5645
14.4929
14.5635
14.4417
14.5067
14.4721
14.5642
14.5007
14.4956
14.5523
14.56
14.5106
14.5131
14.4889
14.5383
14.4422
14.4796
14.5091
14.4857
14.5081
14.4858
14.5465
14.5518
14.537
14.5543
14.5427
14.5653
14.4717
14.5627
14.5611
14.4944
14.5523
14.5506
14.482
14.5613
14.5614
14.568
14.4511
14.4863
14.5581
14.5627
14.569
14.5622
14.5013
14.4931
14.4955
14.5603
14.5207
14.5161
14.5583
14.5172
14.5642
14.5113
14.4448
14.5096
14.5094
14.4517
14.5644
14.562
14.5655
14.5646
14.5646
14.5648
14.5677
14.5207
14.5592
14.4812
14.4483
14.568
14.5611
14.4541
14.5355
14.5576
14.521
14.5582
14.565
14.5241
14.5548
14.5145
14.5601
14.4621
14.5573
14.5545
14.5332
14.5061
14.5192
14.5337
14.5625
14.5151
14.5415
14.4603
14.5107
14.569
14.5668
14.5701
14.5711
14.5709
14.5639
14.57
14.5695
14.5704
14.5705
14.5704
14.5699
14.565
14.5685
14.5685
14.5675
14.5704
14.5708
14.5712
14.5646
14.5701
14.57
14.5701
14.4894
14.5607
14.4648
14.4525
14.5632
14.5648
14.5614
14.5581
14.4545
14.4504
14.549
14.4686
14.4666
14.4929
14.569
14.5697
14.5272
14.5425
14.5566
14.5642
14.5645
14.5644
14.5664
14.5557
14.5282
14.457
14.4781
14.5664
14.5661
14.5601
14.5156
14.5696
14.5643
14.4693
14.5165
14.4604
14.5532
14.5654
14.5047
14.5589
14.5526
14.5321
14.5585
14.5186
14.558
14.5677
14.5678
14.5696
14.5078
14.558
14.5167
14.5688
14.5346
14.4532
14.4498
14.4766
14.5673
14.5562
14.5546
14.5669
14.4587
14.5699
14.5556
14.5543
14.4996
14.55
14.5665
14.56
14.5587
14.568
14.5376
14.5656
14.5688
14.5672
14.5569
14.558
14.4796
14.5563
14.5624
14.5653
14.5145
14.5142
14.5661
14.5566
14.5538
14.5549
14.5554
14.5133
14.5313
14.453
14.4939
14.5609
14.4959
14.5623
14.4387
14.5477
14.509
14.5628
14.5625
14.5663
14.5618
14.4993
14.5564
14.5696
14.5505
14.5708
14.5027
14.4391
14.5105
14.5527
14.4748
14.5522
14.5729
14.5511
14.4829
14.5611
14.5605
14.5524
14.561
14.5689
14.5029
14.5622
14.5699
14.465
14.5162
14.5689
14.5047
14.5552
14.516
14.4526
14.4875
14.4948
14.5526
14.5667
14.5572
14.5709
14.5594
14.5696
14.5696
14.5714
14.5709
14.5695
14.5697
14.5613
14.5611
14.5062
14.5674
14.5644
14.5673
14.5629
14.5644
14.5272
14.5173
14.5694
14.5707
14.4643
14.5175
14.554
14.5614
14.5655
14.5621
14.5553
14.5678
14.4626
14.5658
14.5682
14.5595
14.5038
14.5222
14.5663
14.4833
14.4818
14.5661
14.5158
14.5575
14.4939
14.5098
14.5041
14.5638
14.5472
14.5196
14.569
14.5679
14.5623
14.4973
14.5669
14.5666
14.5683
14.5231
14.554
14.4915
14.562
14.5659
14.5666
14.5573
14.5556
14.4688
14.5339
14.5711
14.5531
14.5498
14.4856
14.5693
14.566
14.5194
14.5472
14.5537
14.5145
14.5641
14.569
14.5557
14.5525
14.4528
14.5642
14.5682
14.567
14.5303
14.5671
14.5185
14.5616
14.4847
14.5133
14.561
14.4668
14.5611
14.556
14.5492
14.5138
14.5641
14.5704
14.5661
14.4725
14.4879
14.5057
14.5596
14.5081
14.566
14.5598
14.4393
14.5359
14.5111
14.5346
14.5692
14.512
14.5689
14.4958
14.5286
14.4994
14.566
14.5699
14.5249
14.5011
14.5597
14.5665
14.5154
14.5024
14.5523
14.4951
14.5525
14.5703
14.4505
14.5607
14.5665
14.4851
14.5493
14.4988
14.5583
14.5656
14.5523
14.561
14.5636
14.5627
14.5609
14.5706
14.4885
14.5672
14.5646
14.568
14.5514
14.5687
14.5294
14.5506
14.5657
14.5039
14.5538
14.5659
14.5666
14.4903
14.5248
14.4794
14.513
14.4957
14.4873
14.5033
14.5677
14.5118
)
;

boundaryField
{
    back
    {
        type            empty;
    }
    front
    {
        type            empty;
    }
    top
    {
        type            zeroGradient;
    }
    outer_arc
    {
        type            zeroGradient;
    }
    bottom
    {
        type            uniformFixedValue;
        uniformValue    
        {
            type            table;
            format          csv;
            file            "outlet_p.csv";
            nHeaderLine     1;
            refColumn       0;
            componentColumns List<label> 1(1);
            separator       ",";
            mergeSeparators 0;
        }
        value           uniform 14.513;
    }
    inner_arc
    {
        type            zeroGradient;
    }
}


// ************************************************************************* //
