/*--------------------------------*- C++ -*----------------------------------*\
  =========                 |
  \\      /  F ield         | OpenFOAM: The Open Source CFD Toolbox
   \\    /   O peration     | Website:  https://openfoam.org
    \\  /    A nd           | Version:  9
     \\/     M anipulation  |
\*---------------------------------------------------------------------------*/
FoamFile
{
    format      ascii;
    class       surfaceScalarField;
    location    "0.37";
    object      phi;
}
// * * * * * * * * * * * * * * * * * * * * * * * * * * * * * * * * * * * * * //

dimensions      [0 3 -1 0 0 0 0];

internalField   nonuniform List<scalar> 
816
(
9.28e-13
2.2e-12
-3.12e-12
8.96e-13
9.41e-13
-1.84e-12
1.44e-12
-5.09e-13
-8.92e-13
1.17e-12
-2.76e-13
-4.3e-12
4.3e-12
8.9e-13
-2.09e-12
1.2e-12
-1.9e-12
1.9e-12
3.53e-12
-3.53e-12
-1.68e-12
4.6e-13
1.22e-12
2.42e-12
-1.52e-12
1.2e-12
-3.08e-13
8.03e-15
-6.52e-14
5.71e-14
-4.51e-13
5.36e-13
-8.43e-14
1.94e-12
-3.09e-12
1.15e-12
2.81e-12
-2.11e-12
-7.05e-13
-2.39e-12
-1.01e-12
3.4e-12
2.3e-12
-1.83e-12
-4.65e-13
-5.95e-13
-1.07e-12
1.67e-12
1.2e-12
-1.2e-12
-2.14e-12
4.62e-13
-1.07e-12
1.82e-13
-2.06e-12
-3.27e-13
-7.07e-13
-9.31e-14
8e-13
2.49e-12
7.66e-13
-3.25e-12
3.09e-12
-6e-13
7.36e-13
-2.9e-13
-4.47e-13
1.91e-12
-2.24e-12
3.36e-13
5.51e-13
-1.64e-12
1.09e-12
-6.79e-13
1.62e-12
-1.09e-12
7.13e-14
2e-12
-1.45e-12
2.41e-12
-4.5e-12
1.9e-12
-2.99e-12
2.54e-12
-1.98e-12
-5.56e-13
3.39e-13
2.47e-12
-4.47e-13
5.18e-13
-1.18e-12
3.13e-12
-5.68e-13
1.3e-12
-4.39e-12
-1.16e-12
5.55e-12
-3.01e-12
-1.29e-12
3.12e-12
4.73e-12
-4.1e-12
-1.53e-12
-5.84e-13
2.05e-12
1.15e-12
-3.2e-12
-1.57e-12
-3.34e-13
2.24e-12
1.83e-13
2.77e-13
-2.96e-12
1.07e-12
8.38e-13
6.08e-13
-2.52e-12
1.92e-12
-2.69e-13
-1.83e-13
-2.09e-12
1.39e-12
8.65e-13
1.67e-12
3.8e-15
-3.8e-15
3.67e-13
-1.15e-12
7.88e-13
-9.3e-14
2.05e-12
2.16e-12
1.4e-13
-1.48e-13
-2.99e-13
1.56e-12
9.3e-13
-2.76e-12
-3.84e-12
2.76e-12
-2.09e-12
-1e-12
1.91e-13
-7.33e-13
5.42e-13
-2.51e-12
9.9e-13
-1.92e-13
2.09e-12
8.59e-13
3.39e-13
-8.95e-13
1.83e-12
-9.4e-13
-5.96e-13
1.47e-12
-8.77e-13
1.11e-12
3.02e-12
2.89e-13
-9.79e-14
7.68e-13
1.03e-12
-1.8e-12
-5.94e-13
2.13e-12
-1.54e-12
-1.03e-12
1.03e-12
-2.43e-12
2.88e-13
-1.26e-12
-1.18e-12
8.25e-13
2.65e-12
-5.78e-12
3.12e-12
1.87e-12
-2.35e-12
4.76e-13
2.2e-12
-4.13e-12
4.13e-12
-2.36e-12
2.36e-12
3.6e-12
-3.08e-12
-5.13e-13
2.55e-12
1.13e-12
-2.52e-12
-2.64e-12
3.01e-12
2.93e-12
-5e-12
2.07e-12
-2.63e-12
2.23e-12
3.98e-13
-2.43e-13
1.24e-12
2.36e-12
1.49e-12
-4.4e-12
2.9e-12
-4.81e-13
6.1e-13
-1.29e-13
2.51e-12
-6.34e-12
5.27e-12
1.07e-12
-9.41e-14
-8.81e-14
2.42e-12
-1.75e-12
4.23e-12
-5.28e-13
-1.99e-12
-2.7e-12
2.1e-12
5.85e-14
1.03e-12
-1.09e-12
1.49e-12
1.29e-13
-1.29e-13
-8.48e-14
3.21e-12
6.06e-13
-3.12e-12
2.55e-12
1.97e-13
8.29e-13
-2.71e-13
7.89e-13
1.18e-12
3.84e-12
-3.01e-12
-8.29e-13
6.98e-13
-6.4e-13
6.68e-13
5e-13
-2.92e-12
-3.53e-14
2.96e-12
-3.85e-13
-2.24e-12
3.47e-14
9.41e-14
5.52e-13
-9.99e-13
2.59e-12
-4.95e-12
1.09e-13
-9.54e-13
-1.2e-13
-1.55e-12
2.03e-12
-5.42e-13
-1.49e-12
2.1e-12
-2.32e-13
-1.02e-12
1.17e-12
-1.52e-13
-2.55e-12
1.07e-12
-5.5e-13
7.33e-13
-1.83e-13
1.79e-12
2.47e-13
-1.7e-13
-3.11e-13
3.54e-12
-3.54e-12
1.85e-12
-2.4e-12
6.69e-13
-1.45e-12
7.81e-13
-8.47e-13
7.82e-13
1.67e-13
-3.17e-12
2.22e-14
7.1e-13
-6.21e-13
2.55e-12
-1.93e-12
-7.65e-13
-5.99e-13
-7.17e-13
-1.36e-12
2.08e-12
4.1e-12
9.07e-14
5.46e-12
-5.72e-13
1.48e-12
-9.13e-13
3.58e-13
-9.39e-13
5.82e-13
-1.15e-12
2.22e-12
-2.2e-12
1.3e-12
8.96e-13
2.09e-12
-2.09e-12
-1.48e-13
-9.11e-13
-2.63e-12
-6.88e-13
-8.46e-13
1.53e-12
-4.89e-13
1.56e-12
6.55e-13
-1.33e-12
-1.75e-13
-4.8e-13
6.55e-13
-5.78e-12
6.22e-13
-2.82e-12
-3.81e-13
2.55e-12
3.67e-13
9.33e-13
2.5e-12
-2.5e-12
-1.72e-12
1.78e-12
8.37e-14
-7.72e-13
1.32e-14
-1.88e-13
4.27e-13
1.01e-13
-5.28e-13
-9.41e-13
1.31e-12
-4.73e-12
3.88e-12
3.95e-12
-3.28e-12
-1.77e-13
1.51e-12
-1.33e-12
6.79e-13
-5.95e-13
1.13e-12
-5.87e-13
-2.32e-13
1.36e-12
-2.78e-12
1.79e-12
-2.73e-12
2.99e-13
1.99e-12
-2.29e-12
-2.34e-12
3.02e-12
-6.71e-13
-1.01e-13
7.71e-13
1.51e-12
-3.82e-13
5.93e-13
-4.46e-13
-1e-12
3.57e-13
-2.99e-13
5.06e-13
-1.53e-12
-2.08e-12
-5.21e-13
2.6e-12
2.64e-12
-2.34e-12
-2.04e-12
-4.22e-13
2.47e-12
8.65e-13
6.82e-14
-5.58e-13
-2.13e-13
1.52e-12
-1.8e-12
2.2e-12
-4e-13
1.88e-13
-3.38e-13
1.5e-13
9.39e-13
-1.43e-12
-1.56e-12
1.08e-12
4.81e-13
1.66e-12
-4.43e-13
-1.22e-12
1.32e-14
1.2e-12
3.39e-12
7.38e-13
-1.37e-12
1.38e-12
-2.1e-14
2.45e-12
-7.8e-13
3.33e-12
4.59e-13
1.03e-12
-2.78e-12
1.23e-12
6.13e-13
2.02e-12
-6.35e-13
6.33e-13
-1.13e-12
1.75e-13
-8.7e-13
1.33e-12
2.38e-12
-9.25e-13
3.3e-13
1.12e-13
-1.02e-12
-2.66e-12
2.73e-12
2.8e-12
-3.02e-12
-1.09e-12
-1.93e-12
2.9e-12
-9.75e-13
2.64e-12
3.39e-12
1.51e-12
1.81e-12
-1.86e-12
1.79e-12
-2.66e-12
2.8e-12
-3.98e-13
1.14e-12
-9.27e-14
-1.04e-12
-2.34e-12
2.69e-13
2.15e-13
-1.43e-12
-1.93e-12
2.34e-12
8.1e-14
3.95e-12
1.34e-14
3.69e-13
-3.83e-13
1.62e-12
1.75e-12
-2.29e-12
-8.7e-13
-3.63e-12
-9.8e-13
1.5e-12
-5.17e-13
1.92e-12
3.49e-12
-1.68e-12
1.42e-13
3.56e-12
-2.57e-12
-1.5e-12
2.63e-12
-3.38e-13
-6.14e-13
-1.94e-12
-8.87e-13
-2.09e-12
-4.62e-13
-1.48e-12
-2.18e-12
6.87e-13
2.22e-12
5.68e-13
-1.69e-12
2.38e-12
1.19e-12
-1.18e-12
-8.7e-13
3.28e-12
-4.18e-13
-4.82e-13
9e-13
-3.88e-12
-1.32e-12
-1.04e-12
3.26e-12
-6.59e-13
2.28e-12
1.96e-12
-4.26e-13
1.49e-12
-1.49e-12
2.6e-12
-3.69e-12
2.36e-12
1.05e-12
-9.5e-13
7.34e-13
-7.34e-13
6.14e-13
2.71e-12
1.37e-12
-1.78e-12
4.07e-13
-1.37e-12
6.39e-13
8.04e-13
2.6e-12
-9.89e-13
2.13e-12
-1.42e-13
-3.21e-12
7.88e-13
2.42e-12
-1.25e-12
-2.07e-12
-2.11e-12
4.22e-12
-2.1e-12
-3.7e-12
1.59e-12
1.83e-12
-1.43e-12
2.22e-12
8.78e-13
-1.92e-12
8.82e-13
-1.33e-12
-5.32e-13
-2.08e-13
2.01e-12
-6.73e-13
3.22e-13
3.51e-13
-1.39e-12
3.41e-12
-1.4e-12
4.83e-12
1.28e-12
2.13e-12
4.45e-13
-3.02e-12
-1.46e-12
5.55e-14
1.55e-12
-9.25e-13
2.66e-13
-5.77e-13
-2.27e-12
9.08e-13
-1.3e-12
-6.19e-13
1.67e-12
2.55e-12
3.13e-12
1.01e-12
-2.74e-12
1.73e-12
6.9e-13
-6.9e-13
9.11e-13
-9.11e-13
-7.14e-14
7.14e-14
-7.71e-14
7.71e-14
-3.01e-12
-1.57e-12
1.3e-12
-2.42e-12
1.12e-12
2.24e-12
2.13e-12
9.98e-13
-1.65e-12
1.65e-12
8.29e-13
-1.13e-12
1.13e-12
-4.07e-12
1.42e-12
2.65e-12
9.3e-13
-3.8e-12
3.05e-12
7.59e-13
1.61e-12
-1.61e-12
-3.83e-12
2.35e-12
1.48e-12
-1.02e-12
-2.18e-12
-3.57e-13
-3.84e-12
-1.07e-12
2.11e-12
-5.02e-13
-1.17e-12
-2.99e-12
-2.09e-12
-9.49e-13
6.18e-13
8.34e-13
-9.11e-13
4.46e-13
-4e-12
2.27e-12
1.73e-12
-2.58e-12
-1.56e-12
8.37e-13
6.95e-13
-8.81e-14
-3.08e-12
3.41e-13
-7.38e-13
-3.06e-12
3.49e-12
-1.83e-12
-1.14e-12
7.39e-14
1.07e-12
-4.58e-14
-1.48e-12
6.93e-13
7.86e-13
-8.03e-13
-2.09e-12
2.09e-12
-1.78e-13
1.63e-12
-7.1e-15
-1.28e-14
-1.16e-13
2.36e-12
-8.79e-13
-9.86e-13
-1.56e-12
2e-12
2.59e-12
-1.85e-12
6.8e-13
-1.97e-12
-1.87e-12
-7.76e-13
-5.11e-12
1.04e-13
-1.71e-12
-2.69e-12
-9.92e-13
-8.1e-13
3.1e-13
2.78e-13
8.96e-13
-9.35e-13
-1.21e-12
-5.88e-14
3.41e-12
-2.01e-12
-1.39e-12
2.57e-12
1.3e-12
5.77e-13
2.11e-13
2.57e-12
1.73e-12
3.62e-12
1.33e-12
-4.94e-12
2.89e-12
-1.39e-12
-1.81e-12
2.05e-14
-1.09e-13
-1.07e-12
1.07e-12
2.22e-12
-1.03e-12
9.98e-13
-1.32e-12
-5.58e-13
2.09e-12
-2.97e-12
4.48e-13
-6.5e-13
-1.51e-12
1.06e-12
4.43e-13
5.98e-13
3.62e-12
-9.66e-13
-1.1e-12
2.14e-12
-8.13e-13
1.14e-12
-1.64e-12
-3.34e-13
-1.28e-14
3.02e-12
2.05e-14
4.58e-15
2.63e-12
-9.58e-13
1.71e-12
-1.87e-12
3.6e-12
-5.42e-13
1.75e-12
1.21e-12
2.84e-12
-5.09e-12
-6.88e-13
9.13e-13
-2.25e-12
9.6e-13
-3.66e-12
1.6e-12
1.47e-12
-6.15e-13
4.67e-13
-2.06e-12
1.33e-12
-9.8e-13
-4.99e-13
1.09e-12
-5.09e-12
-5.39e-13
1.12e-12
-1.69e-12
-7.21e-13
2.02e-12
1.19e-12
-3.05e-12
-6.15e-13
-1.39e-12
1.09e-12
-4.78e-12
2.82e-12
1.02e-12
-1.95e-12
-3.22e-14
3.22e-14
-7.56e-13
-1.39e-12
-1.03e-13
1.03e-13
-5.45e-12
2.57e-13
-6.39e-13
-2.45e-12
-3.22e-14
-1.03e-13
5.92e-12
-3.89e-12
-9.91e-13
-1.71e-13
3.31e-12
4.11e-13
7.09e-13
-3.18e-12
3.8e-12
-3.45e-13
4.9e-13
5.73e-13
2.26e-12
7.55e-13
-3.39e-14
2.91e-13
-1.91e-13
-1.24e-12
1.94e-12
-5.91e-13
3.73e-15
5.59e-13
-2.82e-13
4.48e-13
2.08e-12
1.56e-12
-1.5e-12
3.9e-13
1.16e-13
7.87e-13
-1.83e-12
-1.17e-12
1.98e-12
9.46e-13
-1.81e-12
9.68e-13
4.28e-13
2.04e-12
3.81e-13
4.5e-14
8.24e-14
1.36e-12
-2.04e-13
1.47e-12
8.96e-15
)
;

boundaryField
{
    front
    {
        type            empty;
        value           nonuniform List<scalar> 0();
    }
    back
    {
        type            empty;
        value           nonuniform List<scalar> 0();
    }
    bottom
    {
        type            calculated;
        value           nonuniform List<scalar> 
12
(
-3.68e-12
1.48e-12
5.12e-14
7.45e-13
1.11e-12
-5.17e-13
4.62e-13
1.52e-12
7.84e-13
1.42e-12
4.97e-13
-3.87e-12
)
;
    }
    left
    {
        type            calculated;
        value           uniform 0;
    }
    top
    {
        type            calculated;
        value           uniform 0;
    }
    right
    {
        type            calculated;
        value           uniform 0;
    }
    inner_arc
    {
        type            calculated;
        value           uniform 0;
    }
}


// ************************************************************************* //
