/*--------------------------------*- C++ -*----------------------------------*\
  =========                 |
  \\      /  F ield         | OpenFOAM: The Open Source CFD Toolbox
   \\    /   O peration     | Website:  https://openfoam.org
    \\  /    A nd           | Version:  9
     \\/     M anipulation  |
\*---------------------------------------------------------------------------*/
FoamFile
{
    format      ascii;
    class       volVectorField;
    location    "0.37";
    object      U;
}
// * * * * * * * * * * * * * * * * * * * * * * * * * * * * * * * * * * * * * //

dimensions      [0 1 -1 0 0 0 0];

internalField   nonuniform List<vector> 
578
(
(-0.249846 -0.348277 0)
(-0.153556 -0.640032 2.3924e-16)
(-0.384864 -0.530622 0)
(0.0472905 -0.747551 2.81261e-16)
(0.102423 -0.205584 0)
(0.0376826 -0.823898 -2.70923e-16)
(-0.108009 -0.216975 -5.04844e-17)
(0.116353 -0.208284 5.03731e-16)
(0.574242 -0.779315 0)
(-0.106974 -0.429293 -4.46804e-16)
(0.0395794 -0.839044 1.19889e-16)
(0.353758 -0.662398 1.61659e-17)
(0.0169413 -0.712726 0)
(0.443928 -0.762155 -2.75219e-16)
(-0.448872 -0.77521 0)
(0.480014 -0.604011 6.85658e-17)
(-0.351015 -0.431552 -1.99818e-16)
(-0.608236 -0.611087 4.21872e-16)
(0.320449 -0.599754 -9.87639e-17)
(0.548892 -0.704306 -2.51835e-16)
(0.0482046 -0.807659 -2.83938e-16)
(0.380505 -0.562266 3.50675e-16)
(0.270259 -0.293212 -2.75722e-16)
(-0.0128536 -0.731306 -3.35008e-17)
(-0.0189256 -0.628445 0)
(0.31585 -0.627416 4.47448e-20)
(-0.046275 -0.729635 0)
(-0.0201291 -0.437723 2.93432e-17)
(-0.127628 -0.740253 -2.79108e-16)
(0.51201 -0.627894 0)
(-0.0331098 -0.675008 -3.87164e-16)
(0.0381041 -0.745419 2.37311e-19)
(0.601556 -0.707637 -5.92752e-17)
(-0.0316454 -0.792476 -6.59389e-17)
(-0.387335 -0.7018 -2.67777e-16)
(0.426472 -0.50464 1.57002e-16)
(0.379224 -0.683291 2.74941e-16)
(0.292923 -0.574928 0)
(-0.488664 -0.594086 -2.6947e-16)
(0.156399 -0.295344 0)
(0.177167 -0.364966 -4.60414e-16)
(0.195984 -0.340584 -2.28883e-16)
(0.164363 -0.329485 -5.64735e-16)
(-0.421746 -0.707983 -8.7212e-18)
(0.632513 -0.582944 0)
(-0.166618 -0.306688 -3.73681e-20)
(-0.182262 -0.381053 5.02584e-16)
(0.593749 -0.808343 -1.36222e-16)
(-0.485414 -0.604514 2.71131e-16)
(-0.0533139 -0.807803 0)
(0.0164403 -0.400167 1.57689e-17)
(0.0257685 -0.712371 -1.09368e-19)
(0.46508 -0.405229 3.60909e-16)
(-0.0341644 -0.786904 6.57186e-17)
(0.00203441 -0.70086 0)
(-0.0285825 -0.848418 1.50372e-16)
(0.131442 -0.0888723 -3.10213e-16)
(0.502837 -0.384921 0)
(-0.421959 -0.548942 -3.34063e-16)
(0.241197 -0.303278 1.10854e-16)
(-0.510378 -0.609115 -1.40938e-16)
(-0.416119 -0.336152 -1.91483e-16)
(-0.673715 -0.53008 -3.4284e-16)
(0.419425 -0.697568 1.36905e-16)
(-0.00911056 -0.716203 2.91534e-16)
(-0.513218 -0.801876 1.42077e-16)
(0.617157 -0.753419 2.61933e-16)
(0.069664 -0.826789 0)
(0.597176 -0.642778 3.20121e-17)
(0.381242 -0.775153 1.48161e-16)
(-0.0141383 -0.672167 0)
(0.0121673 -0.647637 -3.58336e-16)
(-0.000145203 -0.709927 -6.33988e-16)
(0.392251 -0.788409 3.10743e-16)
(0.00661656 -0.880048 0)
(0.141619 -0.245007 2.06249e-16)
(0.41893 -0.564881 4.90308e-16)
(0.313473 -0.428291 -2.99094e-16)
(0.0108008 -0.71804 2.86404e-16)
(-0.203898 -0.257492 2.56139e-16)
(0.252422 -0.68887 -4.0077e-16)
(-0.133945 -0.230403 8.70659e-16)
(0.0867122 -0.26928 -5.88206e-16)
(0.135327 -0.215866 0)
(-0.627319 -0.77903 1.76982e-16)
(-0.108434 -0.237816 -6.6453e-16)
(0.00662373 -0.23625 0)
(-0.0245415 -0.863558 1.48203e-16)
(0.252511 -0.542585 -3.37677e-16)
(-0.267913 -0.58936 2.97367e-18)
(-0.0460502 -0.779399 2.85403e-16)
(-0.643989 -0.783401 2.12755e-18)
(-0.25944 -0.555057 3.16014e-16)
(0.0423108 -0.755146 1.43676e-16)
(0.513508 -0.655456 -8.66254e-17)
(0.370338 -0.632183 0)
(0.000171883 -0.703238 3.15857e-16)
(0.00870756 -0.704967 0)
(-0.0318774 -0.27784 -1.03858e-16)
(-0.420048 -0.759628 -2.74135e-16)
(-0.491768 -0.736399 -1.67886e-17)
(0.341805 -0.72542 1.63899e-16)
(-0.036714 -0.735193 0)
(-0.36885 -0.427519 0)
(-0.00690795 -0.701247 1.48358e-16)
(0.41406 -0.74591 2.63776e-16)
(0.0084761 -0.847237 0)
(0.208727 -0.379003 2.30365e-16)
(-0.0567208 -0.13522 5.25703e-16)
(0.273201 -0.457995 -4.36832e-16)
(0.440523 -0.54064 1.21213e-16)
(0.364709 -0.73763 1.0993e-16)
(0.55355 -0.687388 -3.15985e-17)
(0.402913 -0.649065 3.74462e-17)
(0.438453 -0.654752 -4.20506e-17)
(-0.0276208 -0.718751 3.24143e-16)
(0.0552923 -0.797151 0)
(-0.331603 -0.683541 -8.23436e-17)
(-0.223186 -0.5011 0)
(-0.00924568 -0.704769 3.30601e-16)
(0.261906 -0.515176 -3.94912e-16)
(0.217019 -0.378306 0)
(0.353912 -0.691666 -3.71654e-17)
(0.0388558 -0.717334 3.60694e-16)
(0.174921 -0.379936 0)
(-0.329331 -0.712481 1.51698e-16)
(0.171333 -0.696554 2.79015e-16)
(0.629636 -0.713945 6.64207e-17)
(-0.404327 -0.799267 -3.22038e-16)
(-0.335392 -0.722765 0)
(-0.384069 -0.749054 3.6869e-16)
(-0.345191 -0.73939 0)
(0.0531945 -0.783908 1.61066e-16)
(0.0718882 -0.141151 4.96525e-16)
(-0.384862 -0.778634 -3.64287e-16)
(-0.336742 -0.506303 0)
(0.302978 -0.542981 -3.66902e-16)
(-0.0157314 -0.712132 -3.29746e-16)
(0.319542 -0.649798 -1.18219e-18)
(-0.320819 -0.613813 -3.66871e-16)
(-0.148459 -0.279785 0)
(-0.323447 -0.708474 0)
(-0.272343 -0.516875 0)
(0.00753992 -0.658948 0)
(0.139038 -0.275579 -5.48425e-16)
(-0.549302 -0.669704 0)
(-0.273127 -0.547646 7.51866e-16)
(-0.0477798 -0.638775 4.14357e-16)
(0.387843 -0.770165 0)
(-0.339468 -0.717988 0)
(0.47985 -0.750124 0)
(-0.284409 -0.36125 -1.87477e-16)
(0.110049 -0.130879 -6.19921e-16)
(0.125907 -0.246694 -5.7292e-16)
(-0.418799 -0.765763 -8.62408e-18)
(-0.0554893 -0.746351 3.27934e-16)
(-0.1352 -0.775068 3.03625e-16)
(0.0663078 -0.771618 3.00251e-16)
(-0.0831528 -0.0966645 2.71129e-16)
(0.517751 -0.776197 0)
(0.514641 -0.795841 0)
(0.494877 -0.730781 0)
(-0.0826593 -0.155174 0)
(0.391582 -0.612888 -5.46468e-18)
(2.64208e-05 -0.223963 0)
(-0.335644 -0.69226 -3.0902e-16)
(0.000449903 -0.397527 0)
(-0.349303 -0.63807 -2.70917e-18)
(0.0510648 -0.649156 0)
(-0.0419114 -0.805809 0)
(0.346252 -0.510505 -3.59468e-16)
(0.174339 -0.317911 0)
(-0.187097 -0.287918 0)
(-0.124884 -0.239138 -9.41152e-18)
(-0.294584 -0.545086 0)
(-0.0120656 -0.728445 0)
(-0.00101993 -0.735947 -3.02795e-16)
(-0.303482 -0.647007 4.31226e-17)
(0.195394 -0.299971 5.08358e-16)
(-0.0150122 -0.657334 0)
(-0.170444 -0.317194 4.22471e-18)
(-0.272294 -0.59113 -4.93928e-16)
(-0.215353 -0.494922 0)
(0.0110395 -0.729909 5.61215e-16)
(-0.401193 -0.577862 0)
(-0.0266573 -0.460787 -3.36068e-16)
(0.170537 -0.23432 -3.99746e-16)
(-0.415883 -0.791446 3.09526e-16)
(-0.448862 -0.769915 0)
(-0.0140882 -0.402819 0)
(0.448661 -0.763689 0)
(0.33251 -0.536827 -3.49393e-16)
(0.270393 -0.38746 -4.64988e-16)
(-0.314195 -0.552902 2.68981e-18)
(-0.202243 -0.386412 -4.76168e-16)
(-0.00737668 -0.780185 -5.00616e-16)
(0.0369527 -0.561341 -3.95226e-16)
(-0.0370352 -0.550619 4.37432e-16)
(-0.326737 -0.537952 0)
(0.316134 -0.549443 0)
(0.0295246 -0.471855 0)
(0.0259769 -0.746922 -2.91226e-16)
(0.126119 -0.450466 4.47425e-16)
(-0.0198695 -0.774816 5.15505e-16)
(-0.00333985 -0.750066 1.50792e-16)
(0.357867 -0.643511 6.87238e-16)
(-0.387856 -0.616422 0)
(-0.599042 -0.641889 -2.46892e-18)
(0.474421 -0.787163 0)
(-0.144437 -0.19182 -6.85586e-16)
(-0.222946 -0.4431 -3.88265e-16)
(-0.477012 -0.796406 0)
(-0.364727 -0.734415 0)
(0.00874362 -0.762564 -1.45861e-16)
(-0.307186 -0.600349 0)
(0.0368529 -0.766352 -3.24304e-16)
(-0.370414 -0.636846 0)
(0.374881 -0.635656 1.35017e-18)
(-0.444978 -0.799198 2.90269e-16)
(-0.110749 -0.218113 0)
(0.442655 -0.78883 -2.9562e-16)
(-0.333061 -0.628895 3.58194e-16)
(0.241941 -0.478569 7.4899e-16)
(0.187766 -0.317813 5.39821e-16)
(-0.181331 -0.325012 0)
(-0.240606 -0.469057 5.92856e-18)
(0.00222738 -0.805489 2.78254e-16)
(0.0280756 -0.372446 0)
(-0.024222 -0.36564 -3.84681e-16)
(-0.00210352 -0.220904 -4.51605e-16)
(-0.0750368 -0.240774 0)
(0.0352564 -0.255494 4.40178e-16)
(-0.0689026 -0.13165 8.07462e-18)
(0.243118 -0.547903 0)
(-0.250283 -0.557716 0)
(0.101651 -0.154596 4.48918e-16)
(0.101527 -0.175406 4.75541e-16)
(-0.102661 -0.177381 -4.69468e-16)
(0.0458246 -0.745986 -3.00514e-16)
(0.223689 -0.447112 0)
(-0.0910511 -0.170628 -4.71643e-16)
(0.0936312 -0.157567 4.80806e-16)
(-0.00970809 -0.794772 -7.14417e-17)
(-0.158113 -0.298727 -8.59341e-18)
(-0.0207632 -0.327873 -7.79336e-16)
(0.0777052 -0.163236 4.81265e-16)
(-0.0769293 -0.145479 0)
(-0.0467308 -0.444232 0)
(-0.0916638 -0.129311 0)
(-0.035195 -0.837344 1.38529e-16)
(0.00648519 -0.776216 0)
(-0.353599 -0.749561 4.89841e-18)
(0.0550334 -0.670385 3.02095e-16)
(0.0939763 -0.197446 0)
(0.00657198 -0.210973 0)
(0.31452 -0.696102 2.97992e-16)
(-0.00286898 -0.3983 5.29913e-16)
(-0.515715 -0.786907 -1.36646e-16)
(0.10305 -0.164492 4.7578e-16)
(0.0417071 -0.440592 -5.11452e-16)
(0.110795 -0.219122 -6.1192e-16)
(-0.0984742 -0.17764 -3.6842e-18)
(0.0160995 -0.326548 7.85901e-16)
(0.026348 -0.514235 -8.99246e-16)
(-0.240388 -0.672297 5.92825e-16)
(0.29197 -0.587147 -3.07349e-16)
(0.206045 -0.44813 0)
(0.0524416 -0.102878 5.46594e-16)
(-0.00837816 -0.227102 7.08769e-18)
(0.036805 -0.113113 0)
(-0.0375035 -0.114036 0)
(-0.356562 -0.739497 0)
(0.250133 -0.51867 0)
(-0.000146914 -0.818003 -1.39001e-16)
(0.0228147 -0.762623 -1.51903e-16)
(-0.0142597 -0.832142 2.73257e-16)
(-0.0407812 -0.81919 1.58128e-16)
(-0.0526004 -0.102652 -2.67198e-19)
(-0.187456 -0.318428 0)
(-0.0218709 -0.854395 2.7413e-16)
(0.180877 -0.322877 -4.24275e-18)
(-0.0246015 -0.832241 -1.3789e-16)
(0.0101551 -0.832519 0)
(0.0185421 -0.796152 1.41456e-16)
(-0.0143006 -0.844864 1.36243e-16)
(-0.136484 -0.260543 0)
(0.0615757 -0.121522 -4.12094e-18)
(-0.0617822 -0.119148 -5.30382e-16)
(-0.00530807 -0.189369 2.51618e-16)
(-0.0109007 -0.403494 2.24737e-16)
(0.316555 -0.679021 3.44657e-16)
(-0.369209 -0.757519 0)
(-0.0389592 -0.82335 -2.42145e-16)
(-0.102668 -0.163099 -4.76201e-16)
(0.0110685 -0.248918 2.20504e-16)
(0.0260957 -0.467394 -2.77292e-16)
(0.0982707 -0.177348 0)
(0.326414 -0.711116 -6.73349e-16)
(0.0113078 -0.426105 8.85158e-16)
(0.0115083 -0.453607 -1.10327e-16)
(-0.0293218 -0.845863 -2.80066e-16)
(-0.321405 -0.684 0)
(0.00657234 -0.269112 -4.08436e-16)
(0.00495769 -0.221177 -4.56576e-16)
(0.0165099 -0.303842 3.93667e-16)
(-0.00550687 -0.282906 -3.84334e-16)
(0.333554 -0.712229 -7.79604e-20)
(-0.0102786 -0.751061 0)
(-0.00540574 -0.85823 -6.71275e-17)
(-0.00485547 -0.848137 -2.01879e-16)
(0.27257 -0.551835 0)
(0.00152871 -0.875239 0)
(0.000225231 -0.871816 -1.37984e-16)
(-0.251028 -0.516968 -1.52262e-18)
(-0.0144967 -0.868504 -3.41189e-16)
(0.0213024 -0.83937 -2.8858e-16)
(-0.350384 -0.712053 0)
(-0.0947838 -0.197692 3.14979e-19)
(-0.206675 -0.447255 0)
(-0.0204789 -0.863177 4.07933e-16)
(-0.29002 -0.573597 0)
(0.00711018 -0.842869 -2.72158e-16)
(-0.0254011 -0.817442 2.77973e-16)
(-0.0121174 -0.867155 7.17885e-17)
(-0.0180038 -0.757436 -3.67017e-16)
(0.0150573 -0.855618 2.53018e-16)
(-0.48095 -0.759493 0)
(-0.281002 -0.528855 0)
(0.420592 -0.763506 -3.0566e-16)
(0.0117042 -0.865706 -3.81259e-16)
(-0.0259372 -0.736268 -7.62689e-17)
(-0.511233 -0.733712 0)
(0.00166566 -0.864662 1.3702e-16)
(0.02225 -0.856499 -7.05435e-17)
(-0.256043 -0.49562 0)
(-0.0115425 -0.876169 6.80375e-17)
(0.0371267 -0.807754 5.29458e-20)
(0.0256237 -0.845495 2.1649e-16)
(0.00512238 -0.760301 0)
(-0.0402521 -0.818281 0)
(0.024929 -0.826892 0)
(0.015244 -0.808097 -2.80771e-16)
(-0.00100278 -0.878289 3.9185e-16)
(0.000141193 -0.67519 -9.36357e-18)
(-0.00628351 -0.877146 1.95443e-20)
(0.363336 -0.580397 0)
(0.170732 -0.664824 -1.76293e-16)
(-0.0491413 -0.118976 -2.69427e-16)
(0.0491874 -0.112205 -2.7872e-16)
(-0.0526237 -0.124582 -2.64685e-16)
(0.0541512 -0.127241 3.99783e-16)
(0.0686517 -0.123174 0)
(-0.0734999 -0.126909 1.30874e-16)
(-0.00177321 -0.872262 0)
(0.0915976 -0.179485 0)
(-0.0911378 -0.18748 0)
(-0.00351738 -0.881126 -1.31537e-16)
(-0.134572 -0.234236 -1.5822e-16)
(0.206006 -0.313949 3.41228e-16)
(-0.200488 -0.307655 -9.74399e-17)
(-0.00735481 -0.859818 -7.29993e-17)
(-0.138399 -0.11093 0)
(-0.000494428 -0.877984 2.7211e-16)
(0.0462019 -0.117909 0)
(-0.00314453 -0.880037 1.37306e-16)
(0.00455249 -0.758277 0)
(-0.00791109 -0.872364 7.21641e-17)
(0.264704 -0.691135 6.3891e-16)
(0.042273 -0.790732 1.24605e-16)
(-0.479978 -0.389555 0)
(0.332081 -0.704521 -3.39448e-16)
(-0.386745 -0.261731 1.79672e-16)
(-0.628722 -0.594324 4.04874e-16)
(0.195064 -0.716726 -1.51278e-16)
(-0.623338 -0.742435 -1.4311e-16)
(0.375346 -0.249284 1.69856e-16)
(-0.0305028 -0.754403 3.78472e-16)
(-0.104648 -0.248872 0)
(0.105329 -0.240258 3.05009e-16)
(-0.178863 -0.473716 1.98166e-16)
(-0.00195078 -0.70074 -5.94505e-16)
(0.107426 -0.252315 -1.55746e-16)
(-0.111467 -0.25318 0)
(0.0234545 -0.831702 1.37233e-16)
(0.00804281 -0.855169 -2.69536e-16)
(-0.00665525 -0.804051 -4.47344e-16)
(-0.0318648 -0.225261 1.39168e-16)
(-0.20687 -0.386255 0)
(-0.265065 -0.445755 -5.70963e-17)
(0.0952441 -0.234294 0)
(0.00659885 -0.700762 0)
(0.0967618 -0.675038 0)
(0.0578497 -0.739901 -3.12344e-16)
(0.330837 -0.68858 0)
(-0.622962 -0.673479 -2.29244e-16)
(0.0689302 -0.495248 2.8157e-16)
(0.672467 -0.516204 0)
(0.018756 -0.857754 -1.58869e-16)
(0.0330353 -0.603852 -9.49964e-17)
(-0.0116988 -0.36646 0)
(-0.63969 -0.73389 1.01561e-18)
(0.00932359 -0.381606 0)
(-0.0511508 -0.358912 4.04614e-16)
(-0.0779944 -0.73869 0)
(-0.0201992 -0.703179 -1.64391e-16)
(-0.0504501 -0.716695 -8.28682e-17)
(0.580323 -0.587767 -2.01936e-16)
(-0.148736 -0.58739 1.94317e-16)
(0.0544102 -0.817894 7.12323e-17)
(0.144835 -0.759426 0)
(-0.0501874 -0.644306 8.30187e-17)
(-0.251585 -0.716066 -8.02769e-17)
(-0.0141862 -0.836387 0)
(-0.258566 -0.580746 -1.88032e-16)
(-0.215374 -0.653701 -1.67722e-16)
(0.0900677 -0.781929 3.55585e-16)
(0.305687 -0.628745 1.81703e-16)
(-0.315275 -0.645937 -1.7309e-16)
(0.402205 -0.785985 -1.97546e-16)
(-0.0544427 -0.809194 0)
(-0.361837 -0.755564 3.69206e-16)
(-0.00342089 -0.208426 0)
(0.3996 -0.778656 -8.5642e-20)
(-0.405106 -0.766529 1.84054e-16)
(-0.339212 -0.721278 0)
(0.317443 -0.694879 -1.37499e-16)
(0.105623 -0.236947 0)
(-0.0422652 -0.808234 0)
(0.0530465 -0.132077 3.29257e-17)
(0.335728 -0.726701 1.63464e-16)
(-0.538797 -0.6974 1.29106e-16)
(0.00437512 -0.878771 -2.72925e-16)
(0.614205 -0.636193 1.53479e-16)
(0.0165709 -0.699745 0)
(-0.0531276 -0.131377 0)
(0.364288 -0.753909 -2.56104e-16)
(0.275996 -0.589139 3.51261e-16)
(-0.189701 -0.751325 1.50142e-16)
(0.208052 -0.486409 1.48989e-18)
(-0.0952223 -0.751447 -3.09214e-16)
(-0.16367 -0.722127 1.67714e-16)
(0.0412851 -0.819557 0)
(0.0647897 -0.798766 -7.87843e-17)
(0.0271284 -0.783171 1.07865e-16)
(-0.55808 -0.767834 2.70954e-16)
(-0.0283564 -0.845313 -2.26178e-16)
(0.0128542 -0.669123 -3.72856e-16)
(-0.406932 -0.526452 1.79285e-16)
(-0.336274 -0.452875 -3.5433e-16)
(0.00390348 -0.227454 0)
(-0.400838 -0.780773 0)
(-0.0175304 -0.702326 0)
(-0.392021 -0.748963 -1.41334e-16)
(0.0149633 -0.700217 1.46745e-16)
(-0.420506 -0.793805 -2.68464e-16)
(-0.0320865 -0.706786 0)
(-0.0555523 -0.653163 -1.93076e-16)
(0.239229 -0.587519 1.7265e-16)
(-0.00611967 -0.88046 0)
(-0.38859 -0.669363 0)
(0.139538 -0.643787 -3.65916e-16)
(-0.147319 -0.166054 -9.34896e-16)
(-0.0961057 -0.812296 3.72771e-17)
(0.0997865 -0.252007 -3.53006e-16)
(-0.0114764 -0.876086 -2.12645e-16)
(0.420823 -0.599708 -1.69403e-16)
(-0.109227 -0.264012 3.02005e-16)
(0.14773 -0.162665 0)
(-0.0746512 -0.794769 3.09504e-16)
(0.346641 -0.711188 -1.87725e-17)
(0.0223623 -0.833336 -3.73803e-17)
(-0.0246932 -0.268201 -2.23329e-16)
(-0.0648621 -0.0776983 -5.39974e-16)
(-0.065666 -0.764048 -4.37532e-17)
(0.00764015 -0.863384 4.2961e-16)
(0.387437 -0.733324 -1.32489e-19)
(0.338784 -0.728282 2.94614e-16)
(0.0550169 -0.059292 5.67938e-16)
(0.291375 -0.366505 -1.92315e-16)
(0.341307 -0.409065 5.34806e-17)
(-0.0159284 -0.84507 0)
(0.0204058 -0.868058 4.13831e-16)
(-0.534984 -0.671715 0)
(0.0103927 -0.868365 4.08947e-16)
(-0.0616837 -0.796143 -3.00529e-16)
(0.246155 -0.563963 -1.91866e-16)
(0.0126957 -0.843463 -1.64835e-16)
(0.00145492 -0.441976 5.61011e-16)
(-0.0334579 -0.71797 1.64699e-16)
(-0.586873 -0.817527 -2.49501e-16)
(-0.00157072 -0.442087 0)
(-0.570254 -0.715123 -5.01031e-17)
(0.350437 -0.73325 1.87479e-17)
(0.074332 -0.793442 -3.11175e-16)
(-0.0520257 -0.790024 0)
(-0.102488 -0.254605 6.28702e-16)
(-0.0343688 -0.753774 -1.59476e-16)
(-0.366251 -0.764771 3.16151e-16)
(-0.0233599 -0.729708 -2.93425e-16)
(0.0225076 -0.730878 7.31438e-17)
(0.412441 -0.778665 1.49844e-16)
(-0.0350137 -0.818087 -7.60834e-17)
(0.200508 -0.468576 4.20164e-16)
(0.0360748 -0.832062 0)
(-0.47316 -0.654477 9.46905e-17)
(-0.0745967 -0.797866 1.27464e-16)
(-0.226883 -0.504859 -1.82645e-16)
(0.0547884 -0.796661 -7.89404e-17)
(-0.218538 -0.495204 -1.95272e-16)
(-0.0783258 -0.773203 -1.2575e-16)
(0.031205 -0.770898 3.5922e-17)
(0.282118 -0.619585 0)
(0.0320427 -0.695011 9.48976e-17)
(-0.265577 -0.562252 1.08426e-16)
(-0.293704 -0.627656 -4.02498e-16)
(-0.00184371 -0.445277 0)
(0.394471 -0.755232 -1.51177e-16)
(0.26833 -0.556693 -2.09955e-16)
(0.00701379 -0.71495 2.68902e-16)
(0.0791009 -0.77012 -1.5593e-16)
(-0.00627793 -0.867083 -7.14342e-17)
(0.196787 -0.498412 -3.38949e-16)
(-0.00432286 -0.876812 -3.55434e-16)
(0.197241 -0.45665 2.78121e-17)
(0.314276 -0.66882 -1.81342e-16)
(0.0334346 -0.81798 0)
(0.013308 -0.74197 4.47676e-17)
(0.056534 -0.745011 -2.29631e-17)
(0.584344 -0.753587 6.98159e-17)
(-0.0352411 -0.724151 1.81659e-16)
(0.385946 -0.548877 5.91602e-17)
(0.420127 -0.783279 1.56798e-16)
(-0.0373551 -0.481019 6.95168e-16)
(0.0236514 -0.842043 1.52045e-16)
(0.154843 -0.76652 1.65573e-16)
(-0.171214 -0.231663 0)
(0.00305079 -0.621857 -2.0671e-16)
(-0.272127 -0.592824 1.958e-16)
(-0.338826 -0.404639 2.00914e-16)
(-0.0504202 -0.701884 1.91676e-16)
(0.0518851 -0.70496 -1.87009e-16)
(0.100689 -0.785449 0)
(0.170255 -0.243276 -6.78241e-16)
(0.242762 -0.538455 -2.58403e-16)
(0.0916302 -0.722783 0)
(-0.0279172 -0.844941 -1.54694e-16)
(-0.00763956 -0.726971 3.58788e-17)
(-0.349578 -0.61694 1.65281e-16)
(0.654437 -0.764792 -2.25534e-16)
(0.243079 -0.551371 -1.26902e-17)
(0.488048 -0.566981 1.67412e-16)
(-0.392106 -0.747233 -3.80968e-16)
(0.317647 -0.687856 0)
(-0.571666 -0.761814 0)
(0.314532 -0.589671 0)
(-0.0392844 -0.854242 1.47927e-16)
(0.518104 -0.738073 0)
(0.00441745 -0.874038 -2.52754e-16)
(0.0294905 -0.831766 1.69185e-16)
(-0.0623564 -0.794954 -4.75194e-17)
(-0.058828 -0.777579 -1.89875e-16)
(-0.374926 -0.541513 1.17947e-16)
(0.207028 -0.461487 1.03984e-19)
(-0.0956885 -0.788756 -4.51131e-17)
(0.0939157 -0.784785 5.45231e-16)
(0.00317602 -0.803535 -8.3043e-17)
(0.031106 -0.713408 -9.02639e-20)
(-0.066288 -0.830951 -3.69301e-17)
(-0.0828098 -0.76565 4.65515e-17)
(0.0794986 -0.761503 -2.95199e-16)
(-0.348181 -0.732374 0)
(-0.403339 -0.618318 0)
(0.431701 -0.501341 -2.27503e-16)
(-0.0758171 -0.815913 0)
(-0.486098 -0.65449 -8.38654e-17)
(-0.00390672 -0.812437 0)
(-0.502983 -0.631105 2.40186e-17)
(-0.410506 -0.494617 2.08729e-16)
)
;

boundaryField
{
    front
    {
        type            empty;
    }
    back
    {
        type            empty;
    }
    bottom
    {
        type            zeroGradient;
    }
    left
    {
        type            noSlip;
    }
    top
    {
        type            uniformFixedValue;
        uniformValue    
        {
            type            scale;
            scale           
            {
                type            squarePulse;
                start           0.3;
                duration        0.3;
            }
            xScale          
            {
                type            constant;
                value           1;
            }
            value           
            {
                type            constant;
                value           (0 -0.7 0);
            }
        }
        value           uniform (0 -0.7 0);
    }
    right
    {
        type            noSlip;
    }
    inner_arc
    {
        type            noSlip;
    }
}


// ************************************************************************* //
