/*--------------------------------*- C++ -*----------------------------------*\
  =========                 |
  \\      /  F ield         | OpenFOAM: The Open Source CFD Toolbox
   \\    /   O peration     | Website:  https://openfoam.org
    \\  /    A nd           | Version:  9
     \\/     M anipulation  |
\*---------------------------------------------------------------------------*/
FoamFile
{
    format      ascii;
    class       volScalarField;
    location    "0.73";
    object      p;
}
// * * * * * * * * * * * * * * * * * * * * * * * * * * * * * * * * * * * * * //

dimensions      [0 2 -2 0 0 0 0];

internalField   nonuniform List<scalar> 
90
(
-1.03672e-22
-1.35862e-21
-1.5413e-21
-2.56429e-21
-1.66044e-21
-8.35325e-22
-1.10598e-22
-2.07753e-22
-8.63593e-22
-1.14044e-22
-4.13775e-22
-9.13679e-22
-1.50225e-22
-1.71503e-21
-7.9191e-22
1.82386e-21
-4.31073e-21
-3.83161e-22
-4.02101e-22
-1.18087e-21
-4.14294e-22
-8.92978e-22
-5.5103e-22
-1.38414e-21
-4.30321e-22
-9.03294e-22
-1.15263e-22
-1.06065e-21
-1.42176e-21
-1.27177e-22
-2.5167e-22
-9.09931e-22
-9.13396e-22
-7.90162e-22
-9.64642e-22
1.7309e-21
-6.48823e-22
-5.80022e-21
-1.06007e-21
-1.05675e-21
-7.66934e-22
-6.85431e-22
-1.31947e-21
-8.01746e-23
-2.95397e-23
-1.52783e-21
-9.47338e-22
2.43115e-22
-4.82494e-22
-2.02828e-21
-1.33769e-21
-1.43334e-21
-4.80569e-22
-1.28047e-21
-1.36211e-21
-4.17754e-24
-3.69698e-23
-8.48573e-22
-4.49193e-23
-1.12451e-21
-7.93645e-22
-1.42705e-21
-1.50064e-21
-9.51444e-22
-5.67056e-22
-6.5201e-22
-1.66033e-21
-1.73608e-21
-5.01276e-21
-1.08841e-21
5.82337e-22
-8.25432e-23
-1.35854e-21
4.64149e-22
1.89184e-21
-1.25809e-21
-4.45632e-24
-1.23244e-21
-7.08521e-22
-4.16648e-23
-5.70637e-21
-4.59795e-23
-8.95422e-22
1.71212e-21
-8.80593e-22
-2.0985e-21
-1.04228e-22
-1.0403e-22
9.32642e-22
-5.62244e-23
)
;

boundaryField
{
    back
    {
        type            empty;
    }
    front
    {
        type            empty;
    }
    bottom
    {
        type            zeroGradient;
    }
    outer_arc
    {
        type            zeroGradient;
    }
    right
    {
        type            uniformFixedValue;
        uniformValue    
        {
            type            scale;
            scale           
            {
                type            squarePulse;
                start           0.3;
                duration        0.3;
            }
            xScale          
            {
                type            constant;
                value           1;
            }
            value           
            {
                type            constant;
                value           15.1;
            }
        }
        value           uniform 0;
    }
    inner_arc
    {
        type            zeroGradient;
    }
}


// ************************************************************************* //
