/*--------------------------------*- C++ -*----------------------------------*\
  =========                 |
  \\      /  F ield         | OpenFOAM: The Open Source CFD Toolbox
   \\    /   O peration     | Website:  https://openfoam.org
    \\  /    A nd           | Version:  9
     \\/     M anipulation  |
\*---------------------------------------------------------------------------*/
FoamFile
{
    format      ascii;
    class       surfaceScalarField;
    location    "0.73";
    object      phi;
}
// * * * * * * * * * * * * * * * * * * * * * * * * * * * * * * * * * * * * * //

dimensions      [0 3 -1 0 0 0 0];

internalField   nonuniform List<scalar> 
122
(
-3.46552e-29
3.15012e-29
6.38854e-30
-3.38544e-29
2.06399e-29
7.0745e-30
9.4054e-29
-1.0877e-28
-2.36295e-29
2.39631e-29
-2.59006e-29
-1.53576e-28
1.39621e-28
-7.03442e-29
5.85485e-29
1.22353e-29
5.45196e-29
-7.02184e-29
4.37415e-29
-2.68037e-29
-4.70818e-29
-4.51771e-29
-9.49853e-30
5.48455e-29
6.4215e-29
-1.06033e-28
1.81673e-29
-1.07702e-28
6.9319e-29
8.55405e-29
-1.54295e-29
-3.42472e-29
-5.4774e-30
2.96791e-29
2.0415e-29
-1.87087e-32
-2.16017e-29
-6.90225e-29
7.1144e-29
-1.57319e-29
2.28577e-29
3.51237e-29
-7.22056e-29
5.37708e-29
1.83723e-29
1.83687e-30
-1.29918e-29
6.30223e-29
-1.96827e-29
5.01325e-29
-5.89797e-29
-5.03615e-29
4.2851e-30
7.44914e-29
-9.00082e-29
5.58105e-29
-4.60977e-29
5.08525e-29
9.85091e-30
5.19486e-29
5.04318e-29
3.31089e-30
8.47183e-29
8.15813e-30
-1.95445e-29
-2.19231e-29
6.25673e-29
-2.18881e-29
2.04346e-29
4.39525e-30
-4.74631e-29
2.30053e-29
3.5924e-29
4.97655e-29
-4.43216e-29
4.64474e-29
4.00087e-29
3.83808e-29
-3.1405e-29
1.59661e-29
9.72948e-30
-7.62171e-30
4.26447e-29
-3.08384e-29
-3.19043e-29
-6.35868e-30
2.21881e-30
-2.21864e-30
-2.32429e-29
1.06483e-28
-4.4982e-29
3.61168e-30
-2.69169e-30
-2.44141e-29
1.78922e-29
2.47035e-29
-9.13854e-30
6.70181e-29
-2.64989e-29
2.80579e-29
-2.99338e-29
-1.68117e-29
-3.50933e-31
-5.05283e-29
-4.85104e-30
-4.32657e-29
1.644e-29
-1.7406e-29
2.42076e-29
1.3173e-29
-9.80482e-29
1.04829e-28
2.65478e-29
-8.00095e-29
3.02631e-29
-4.72616e-31
5.24947e-29
-2.42498e-29
2.42073e-29
6.2108e-29
5.91311e-31
6.21419e-30
)
;

boundaryField
{
    back
    {
        type            empty;
        value           nonuniform List<scalar> 0();
    }
    front
    {
        type            empty;
        value           nonuniform List<scalar> 0();
    }
    bottom
    {
        type            calculated;
        value           uniform 0;
    }
    outer_arc
    {
        type            calculated;
        value           uniform 0;
    }
    right
    {
        type            calculated;
        value           nonuniform List<scalar> 4(-3.86393e-29 -8.27615e-29 -7.53271e-29 -6.81188e-29);
    }
    inner_arc
    {
        type            calculated;
        value           uniform 0;
    }
}


// ************************************************************************* //
