/*--------------------------------*- C++ -*----------------------------------*\
  =========                 |
  \\      /  F ield         | OpenFOAM: The Open Source CFD Toolbox
   \\    /   O peration     | Website:  https://openfoam.org
    \\  /    A nd           | Version:  9
     \\/     M anipulation  |
\*---------------------------------------------------------------------------*/
FoamFile
{
    format      ascii;
    class       volVectorField;
    location    "0.73";
    object      U;
}
// * * * * * * * * * * * * * * * * * * * * * * * * * * * * * * * * * * * * * //

dimensions      [0 1 -1 0 0 0 0];

internalField   nonuniform List<vector> 
90
(
(-1.14514e-21 -2.12066e-22 1.0458e-38)
(2.34038e-22 7.59593e-22 -1.07269e-37)
(-1.18726e-21 -2.00122e-21 -1.07706e-37)
(-1.76388e-21 -7.59174e-22 1.06668e-37)
(2.28652e-21 2.68399e-21 1.85154e-37)
(3.49715e-22 2.76664e-22 8.52225e-38)
(-8.84797e-22 -1.40906e-22 -1.26313e-38)
(-1.69539e-21 -7.27531e-22 -2.61117e-38)
(-3.29009e-22 -1.47151e-21 0)
(-1.81697e-21 -4.63121e-22 0)
(-1.47286e-21 -3.15178e-22 -1.81264e-38)
(-4.02232e-22 -2.43041e-21 6.46682e-38)
(-7.45275e-22 -3.14171e-22 -1.87657e-39)
(-7.74645e-22 -2.24797e-22 -4.06007e-38)
(-4.43679e-22 -2.96565e-21 0)
(7.30056e-22 -6.8412e-22 0)
(1.1338e-21 5.15195e-22 -2.86783e-37)
(3.254e-22 -1.41658e-21 5.35026e-40)
(-9.28042e-23 8.56169e-23 0)
(-1.72237e-22 -5.45272e-22 -8.13683e-38)
(-1.36707e-21 -7.07225e-22 -1.94126e-38)
(-4.52054e-22 -3.04651e-22 -3.77743e-38)
(-1.75337e-21 -8.00259e-22 -3.60087e-38)
(-3.82675e-22 -2.93342e-22 7.96531e-38)
(-1.84213e-21 -5.87049e-22 2.69527e-38)
(-1.56262e-21 -5.14735e-22 3.22219e-38)
(-1.73514e-21 -5.63939e-22 1.38935e-38)
(-8.16716e-22 -6.84758e-22 -2.21931e-38)
(-1.15497e-21 -1.37642e-21 0)
(-1.37309e-21 -4.5815e-22 1.12849e-38)
(-1.61911e-21 -8.24973e-22 -1.04315e-38)
(-1.08363e-21 -3.87618e-22 -5.34945e-38)
(-1.7942e-21 -1.03015e-21 -1.97362e-38)
(-1.71494e-21 -8.80569e-22 6.85038e-38)
(-2.1277e-21 -9.2833e-22 -1.88288e-38)
(-5.43397e-22 -2.74888e-21 -4.10523e-38)
(3.85835e-22 5.42517e-23 0)
(1.39113e-22 -6.77482e-22 0)
(-1.0741e-21 -7.21781e-22 2.32114e-38)
(-3.33293e-22 -4.37892e-22 -1.06482e-38)
(-4.53506e-22 -7.10461e-22 4.49722e-38)
(-3.41678e-22 -9.2456e-22 6.47989e-38)
(-2.38883e-21 -5.5758e-22 -8.15822e-39)
(-1.60801e-21 -2.34371e-22 2.65829e-39)
(-2.18284e-21 -2.99532e-22 1.70006e-39)
(-1.93746e-22 5.91293e-22 5.35297e-38)
(2.43859e-22 -5.0022e-23 -4.22496e-38)
(3.02305e-22 -1.2291e-21 -6.28184e-40)
(-7.8804e-22 -8.25275e-22 3.12069e-38)
(-2.41684e-22 -1.46123e-21 1.31077e-38)
(-2.32389e-22 -3.02305e-22 0)
(-1.94279e-23 3.62219e-24 4.83467e-38)
(-1.48232e-21 -2.0863e-21 5.68855e-40)
(-1.47223e-21 -8.87426e-22 0)
(6.60194e-23 2.12189e-23 -9.65755e-38)
(-9.18053e-22 -1.06285e-21 -1.11707e-40)
(-1.99513e-21 -1.84495e-22 -1.95292e-39)
(-4.62269e-22 1.77887e-22 0)
(-2.06962e-21 -2.98399e-22 0)
(-1.18163e-21 -6.65287e-22 6.31914e-38)
(3.1467e-22 -7.54865e-22 -3.90783e-38)
(-4.88951e-22 -4.29198e-22 0)
(-6.39419e-22 -4.6241e-22 7.0129e-38)
(-5.54629e-22 -7.11393e-22 1.30915e-38)
(-5.45273e-22 -3.04748e-22 -2.17662e-38)
(-5.83499e-22 -4.7124e-22 -2.98789e-38)
(-3.85631e-22 -8.1244e-22 0)
(-5.74013e-22 2.14497e-22 0)
(-1.83088e-21 -5.32438e-22 2.12187e-38)
(-3.22857e-21 9.37982e-22 1.28472e-38)
(1.1734e-21 -1.69184e-21 0)
(-1.88707e-21 -3.18414e-22 -2.3069e-39)
(-1.25417e-21 -1.42727e-21 0)
(-7.15514e-22 1.74069e-22 4.29406e-38)
(-1.0309e-21 -2.03334e-22 -1.29711e-38)
(1.76672e-22 9.51356e-23 4.37423e-38)
(-6.46159e-22 -5.7094e-23 5.30426e-40)
(-1.92442e-21 -6.21711e-22 0)
(-1.63491e-21 -1.16649e-21 -5.05683e-38)
(-1.6777e-21 -1.98977e-22 -1.24275e-39)
(-1.80789e-21 1.36625e-22 2.37626e-37)
(-2.05246e-21 -2.83946e-22 1.18845e-40)
(-1.88643e-22 1.38803e-22 6.5115e-38)
(2.00147e-21 -1.10803e-21 4.16638e-38)
(-1.32563e-21 -2.79863e-22 1.50669e-38)
(-5.37158e-22 7.52846e-22 -6.27053e-38)
(-1.80843e-21 -4.28833e-22 -3.41091e-39)
(-1.47985e-21 -4.58598e-22 3.60234e-40)
(-2.17631e-22 -3.31894e-23 -8.77225e-38)
(-1.48066e-21 -2.47015e-22 2.23407e-39)
)
;

boundaryField
{
    back
    {
        type            empty;
    }
    front
    {
        type            empty;
    }
    bottom
    {
        type            uniformFixedValue;
        uniformValue    
        {
            type            scale;
            scale           
            {
                type            squarePulse;
                start           0.3;
                duration        0.3;
            }
            xScale          
            {
                type            constant;
                value           1;
            }
            value           
            {
                type            constant;
                value           (0 0.7 0);
            }
        }
        value           uniform (0 0 0);
    }
    outer_arc
    {
        type            noSlip;
    }
    right
    {
        type            zeroGradient;
    }
    inner_arc
    {
        type            noSlip;
    }
}


// ************************************************************************* //
