/*--------------------------------*- C++ -*----------------------------------*\
  =========                 |
  \\      /  F ield         | OpenFOAM: The Open Source CFD Toolbox
   \\    /   O peration     | Website:  https://openfoam.org
    \\  /    A nd           | Version:  9
     \\/     M anipulation  |
\*---------------------------------------------------------------------------*/
FoamFile
{
    format      ascii;
    class       volVectorField;
    location    "1.08";
    object      U;
}
// * * * * * * * * * * * * * * * * * * * * * * * * * * * * * * * * * * * * * //

dimensions      [0 1 -1 0 0 0 0];

internalField   nonuniform List<vector> 
942
(
(0.134642 -0.283003 0)
(0.218564 0.0211319 2.89338e-17)
(0.0764827 0.229108 0)
(0.0526009 -0.349638 -1.5289e-17)
(0.0642762 0.254763 9.13477e-18)
(0.149354 -0.117425 1.62685e-17)
(0.0629282 -0.11061 4.28934e-17)
(0.158794 -0.117872 0)
(0.00646552 -0.217286 -3.37372e-17)
(0.0123673 -0.239811 3.43789e-17)
(0.0892987 0.0758292 0)
(0.204201 -0.0738193 0)
(0.0461687 -0.357411 1.42677e-17)
(0.0925947 0.0721683 0)
(0.212729 -0.0716124 0)
(0.204064 0.0143041 -3.147e-17)
(0.217709 0.269479 -1.22305e-17)
(0.119585 -0.290553 0)
(0.179511 0.107691 -3.70073e-18)
(0.117943 0.0281123 5.70584e-18)
(0.222504 0.276743 2.07793e-17)
(0.205104 -0.0794084 1.70647e-17)
(0.150721 -0.179744 0)
(0.131073 0.287168 -3.31361e-17)
(0.0911649 0.0851711 0)
(0.128814 0.261224 2.49964e-17)
(0.0801974 0.277043 0)
(0.151059 -0.181524 2.13975e-17)
(0.191511 0.285371 0)
(0.115695 -0.226603 1.35653e-17)
(0.148127 0.224644 1.68342e-17)
(0.0682284 0.277072 0)
(0.181954 0.298221 1.57769e-17)
(0.281952 -0.036003 1.86861e-17)
(0.110733 0.221857 -1.83804e-17)
(0.197397 -0.187922 3.53248e-17)
(0.200551 -0.201667 1.18497e-18)
(0.0462677 -0.189394 0)
(0.198177 -0.203417 -6.05195e-19)
(0.146102 0.295369 2.3671e-17)
(0.269274 -0.076889 -3.34764e-17)
(0.226875 -0.148972 0)
(0.137291 0.28695 -1.63801e-17)
(0.0923679 -0.161331 -1.43021e-17)
(0.0962358 -0.151767 -3.60641e-17)
(0.201975 0.222925 8.01263e-18)
(0.194394 0.0367861 -1.64146e-17)
(0.285756 -0.0241352 -1.54411e-17)
(0.26797 -0.0888837 1.72881e-17)
(0.0917311 0.0709768 2.03297e-17)
(0.188984 0.0975673 0)
(0.131951 -0.179734 0)
(0.201044 -0.203187 -2.38329e-17)
(0.065992 0.274856 1.86968e-17)
(0.0141115 -0.295658 0)
(0.245082 -0.136433 -1.26476e-17)
(0.113697 -0.023032 -3.2108e-17)
(0.0213222 -0.308071 -2.28802e-18)
(0.170107 -0.0250304 4.11172e-17)
(0.251344 -0.0471586 1.76784e-17)
(0.0975286 -0.180522 -1.69012e-17)
(0.0978369 0.249584 -4.32222e-17)
(0.269395 -0.0355477 2.01732e-17)
(0.147852 -0.260154 -1.65132e-17)
(0.0655573 -0.189716 1.57023e-17)
(0.211951 -0.00556397 1.20655e-17)
(0.084575 0.258807 3.38053e-17)
(0.246904 -0.0148986 -1.54851e-17)
(0.246717 -0.136976 1.601e-17)
(0.0960212 -0.185667 4.4228e-18)
(0.210935 0.0271002 0)
(0.0116228 -0.161686 0)
(0.112362 0.00350172 -2.09803e-18)
(0.104296 -0.249302 4.05775e-18)
(0.0844366 0.273857 -1.77431e-17)
(0.174114 0.0494898 -4.18467e-23)
(0.166208 0.0389804 2.10123e-18)
(0.0995383 0.2362 1.86754e-17)
(0.135268 0.212731 -2.01216e-17)
(0.21757 0.00755507 -4.12479e-18)
(0.120278 -0.114623 2.46383e-17)
(0.151199 0.251188 -8.6704e-18)
(0.113044 0.0915756 -2.22805e-18)
(0.201588 0.00184572 9.07527e-18)
(0.193639 -0.0097563 0)
(0.0448444 0.291276 0)
(0.249378 -0.0385568 -1.8471e-17)
(0.194924 -0.0543484 5.12359e-18)
(0.0995393 0.0738405 0)
(0.121088 0.0976721 2.54621e-17)
(0.234222 -0.14034 -1.28982e-17)
(0.106489 0.193528 5.83794e-19)
(0.0252767 -0.336418 2.56641e-18)
(0.250282 -0.124259 0)
(0.238494 -0.149325 -4.97832e-18)
(0.187031 0.0661673 9.20199e-18)
(0.225511 -0.155937 1.58887e-17)
(0.185878 -0.0513439 -1.48853e-17)
(0.131929 -0.127154 -2.21737e-17)
(0.0673822 -0.16436 -3.16101e-17)
(0.0344219 -0.174196 -9.52067e-18)
(0.0244082 -0.347318 1.05939e-17)
(0.188707 0.050616 0)
(0.100034 -0.176496 1.21817e-17)
(0.237464 -0.147734 -1.90977e-17)
(0.106968 -0.167106 -3.09834e-17)
(0.199609 0.219787 -1.06992e-17)
(0.207797 0.261145 0)
(0.265925 -0.0134942 1.66979e-17)
(0.227211 0.00350675 0)
(0.240821 -0.150248 0)
(0.257224 -0.12141 -1.68649e-17)
(0.236443 -0.0327295 3.36852e-17)
(0.00845251 -0.171497 0)
(0.0909338 0.0755786 0)
(0.0710966 0.132963 2.27725e-18)
(0.246456 -0.0236891 -1.81459e-17)
(0.0708805 -0.336933 1.92237e-17)
(0.0524965 -0.117841 1.87107e-21)
(0.262898 -0.0504752 -2.21078e-18)
(0.0915332 -0.150923 7.40573e-18)
(0.224833 -0.174606 -1.89208e-17)
(0.0838766 0.188841 0)
(0.169554 0.0146045 1.68382e-17)
(0.169509 0.00317251 1.36273e-17)
(0.117877 0.219244 -3.5805e-17)
(0.0889483 -0.128665 1.91044e-17)
(0.187239 0.298395 -1.79707e-17)
(0.212672 0.283581 3.28646e-17)
(0.142334 -0.139035 1.73622e-17)
(0.173 0.0910344 -8.96535e-18)
(0.185908 0.14445 -2.06505e-17)
(0.185617 0.048984 0)
(0.287569 -0.0268461 0)
(0.265196 -0.00297205 -1.85737e-17)
(0.211328 0.204367 -1.2871e-17)
(0.246196 -0.159942 1.13059e-18)
(0.222243 0.0195994 0)
(0.264351 -0.127679 2.31391e-17)
(0.282395 -0.0949929 -7.90608e-18)
(0.29167 -0.0600935 1.85897e-17)
(0.22144 0.247947 0)
(0.233086 -0.0221364 -1.84972e-17)
(0.108969 0.201773 1.9867e-17)
(0.152284 -0.106431 -4.70786e-18)
(0.168602 0.290922 -8.35055e-18)
(0.0843935 -0.177345 0)
(0.0154209 -0.176909 -1.13262e-17)
(0.202974 -0.192488 2.82864e-17)
(0.0510937 0.300201 0)
(0.162167 -0.106292 5.08638e-18)
(0.259725 -0.0401633 5.60006e-18)
(0.114761 0.18796 0)
(0.121377 -0.160347 1.05882e-17)
(0.109618 0.211847 -1.82993e-17)
(0.196868 -0.202422 0)
(0.192795 -0.0184933 2.06963e-17)
(0.00383886 -0.0990571 0)
(0.25708 -0.0391868 0)
(0.191189 0.0565042 7.66023e-18)
(0.203491 -0.0210486 -2.68159e-17)
(0.194254 -0.196666 0)
(0.0397619 -0.345901 0)
(0.171554 -0.0813195 9.48275e-18)
(0.263918 -0.0372785 0)
(0.107482 0.0978941 -2.81278e-17)
(0.0431818 -0.183157 0)
(0.111628 -0.182094 0)
(0.204761 0.251471 1.63062e-17)
(0.214328 0.0114381 1.958e-17)
(0.274202 -0.0258192 -1.63437e-17)
(0.25946 -0.108636 -2.16853e-18)
(0.229613 -0.16089 -3.4008e-21)
(0.134147 -0.184657 1.05545e-17)
(0.0413143 0.305487 0)
(0.0767776 -0.237605 -2.05797e-17)
(0.175578 0.0668071 -1.94882e-17)
(0.0695698 -0.248132 0)
(0.246972 -0.124787 6.76653e-19)
(0.101518 -0.233586 0)
(0.112183 -0.15889 -1.23968e-17)
(0.198483 0.284905 0)
(0.205218 -0.193458 -2.42157e-17)
(0.0937017 -0.246446 4.4321e-21)
(0.111767 -0.281214 -1.21988e-17)
(0.164382 0.267026 0)
(0.265962 0.0757074 -9.6029e-18)
(0.0990705 0.187931 1.92585e-17)
(0.0587052 0.304291 2.72438e-17)
(0.119499 -0.23771 9.27516e-18)
(0.133389 0.170359 3.71121e-17)
(0.125081 -0.225511 -9.29657e-18)
(0.147821 -0.214229 -1.167e-17)
(0.162622 0.212695 -1.75565e-17)
(0.11166 0.174226 9.75338e-18)
(0.0529436 -0.345004 -8.76243e-18)
(0.129109 0.170196 0)
(0.136528 -0.229789 3.15249e-17)
(0.273314 -0.0639014 -2.24511e-17)
(0.048557 0.183988 1.69537e-17)
(0.0137608 -0.0593292 0)
(0.066188 -0.338068 8.89541e-18)
(0.107993 0.175813 0)
(0.213228 0.273582 -2.04654e-17)
(0.218322 9.75687e-05 1.96013e-17)
(0.256828 -0.110022 0)
(0.232481 -0.159339 1.95002e-17)
(0.0977427 0.205088 -4.25464e-17)
(0.0847434 0.279237 -1.63886e-17)
(0.0980445 0.290363 1.61939e-17)
(0.120936 0.173705 -9.4545e-18)
(0.0647128 -0.321621 6.74348e-21)
(0.0218953 -0.257316 1.52367e-17)
(0.106765 0.234313 9.01752e-18)
(0.114944 0.181883 0)
(0.120964 -0.298559 -2.39341e-21)
(0.0549106 0.305132 -2.23883e-17)
(0.1444 0.118408 1.90456e-17)
(0.135872 0.168657 1.87409e-17)
(0.142637 0.170836 -1.10448e-22)
(0.148322 -0.275776 0)
(0.122425 -0.304262 -1.80957e-17)
(0.140064 -0.225065 0)
(0.0928256 -0.31444 0)
(0.00820228 -0.0809421 -1.9236e-17)
(0.0363815 0.1561 1.88174e-17)
(0.118812 0.209159 -1.32848e-17)
(0.170531 -0.249525 -1.86921e-17)
(0.0327455 -0.0790611 2.80583e-17)
(0.165126 0.178947 0)
(0.175995 0.256919 -1.70935e-17)
(0.108053 0.20315 -3.32887e-17)
(0.0565734 0.15428 1.82216e-17)
(0.0271442 -0.101553 -1.01115e-17)
(0.131121 -0.286087 -9.37451e-18)
(0.0495213 -0.311393 5.49626e-21)
(0.139886 0.130463 -1.97557e-17)
(0.156226 -0.261907 1.87446e-17)
(0.156971 0.191358 -1.78582e-17)
(0.148038 0.163961 1.85497e-17)
(0.157193 0.164489 0)
(0.113998 -0.175785 -4.59495e-18)
(0.164096 -0.231482 9.27716e-18)
(0.0733689 -0.215644 -1.05038e-17)
(0.0959295 -0.212968 -1.85966e-17)
(0.126704 0.182184 -1.85524e-17)
(0.183382 -0.226754 9.33164e-18)
(0.104182 -0.303811 -1.00626e-17)
(0.174212 -0.237155 -1.86918e-17)
(0.146026 0.184491 4.56388e-18)
(0.125364 0.190295 -4.68714e-18)
(0.258967 -0.0987501 -1.72262e-17)
(0.132912 0.167991 0)
(0.134536 0.192269 1.37952e-17)
(0.116854 -0.208334 1.84746e-17)
(0.0759276 -0.312389 2.03695e-17)
(0.150807 -0.238418 0)
(0.142551 -0.213218 0)
(0.160071 0.117286 -9.3078e-18)
(0.0818156 -0.204555 1.0461e-17)
(0.151179 -0.277197 -9.16939e-18)
(0.148442 0.104692 9.16444e-18)
(0.118634 0.204124 -2.28795e-17)
(0.132778 -0.20005 -4.88599e-18)
(0.189482 -0.224312 9.67453e-18)
(0.0135906 -0.220076 0)
(0.102453 -0.203593 0)
(0.155231 -0.199993 0)
(0.173623 0.227439 1.74095e-17)
(0.183449 -0.217255 9.43184e-18)
(0.190012 -0.209142 1.78314e-17)
(0.0868438 0.25681 -1.70264e-17)
(0.265056 -0.0822406 2.00205e-17)
(0.103001 0.24244 -8.97835e-18)
(0.120113 0.180946 1.89006e-17)
(0.137 0.100593 -1.89891e-17)
(0.14786 0.201261 0)
(0.163057 -0.155071 0)
(0.137415 0.164464 -9.33217e-18)
(0.163962 -0.199088 -1.93444e-17)
(0.119983 -0.19877 0)
(0.202872 -0.186025 -1.57808e-18)
(0.174314 -0.189717 1.96177e-17)
(0.165481 -0.165179 0)
(0.226052 0.258549 3.62643e-17)
(0.270574 -0.0338951 -1.81954e-17)
(0.155878 -0.177167 2.7807e-17)
(0.165499 -0.186887 1.84564e-17)
(0.133683 -0.189268 4.78779e-18)
(0.145493 -0.189165 4.76049e-18)
(0.220623 0.259987 -1.83847e-17)
(0.264778 -0.0700861 2.18066e-17)
(0.125193 0.0933453 -8.50614e-18)
(0.208578 -0.180913 2.06722e-17)
(0.15193 -0.144215 5.26833e-18)
(0.227719 0.252384 -1.66486e-17)
(0.263244 -0.045073 0)
(0.273625 -0.0387654 9.41976e-18)
(0.264361 -0.0400456 8.80278e-18)
(0.286367 -0.00978725 0)
(0.29339 0.124923 0)
(0.154925 -0.166618 -9.5142e-18)
(0.256725 -0.0523273 -4.2627e-18)
(0.250992 -0.0883261 -2.96305e-17)
(0.283729 0.160533 -2.91691e-17)
(0.164694 -0.21985 9.24866e-18)
(0.238789 -0.121772 -2.93788e-17)
(0.104806 -0.0341028 0)
(0.114263 0.0339138 -8.55403e-18)
(0.0740931 0.119328 1.78281e-17)
(0.0547712 -0.109036 1.45898e-17)
(0.0752777 0.050185 2.77137e-21)
(0.0915896 -0.0556523 -2.58074e-18)
(0.111163 0.0113513 -1.79245e-17)
(0.213972 -0.165937 5.70441e-21)
(0.0663632 0.063635 2.88168e-17)
(0.0726831 -0.0879074 -1.97078e-17)
(0.107352 -0.0145506 -1.70517e-21)
(0.101952 0.0498882 -5.07232e-18)
(0.102588 -0.0456338 0)
(0.0996064 0.0201201 -5.25768e-18)
(0.0727878 0.0895986 0)
(0.0597579 -0.0903248 2.06864e-17)
(0.107769 -0.00310363 -3.68551e-17)
(0.267464 -0.0549455 -2.29146e-17)
(0.137597 0.0955176 -1.88874e-17)
(0.0599032 0.0441422 0)
(0.205081 -0.180763 -9.53462e-18)
(0.221671 -0.149682 0)
(0.0829712 -0.0714854 0)
(0.236983 0.262258 -3.63129e-17)
(0.197109 -0.196245 -1.62564e-17)
(0.188057 -0.147038 9.29795e-18)
(0.254845 -0.0633411 -1.67316e-17)
(0.177455 -0.139077 0)
(0.244236 0.250826 1.81647e-17)
(0.247882 -0.100693 1.05672e-17)
(0.222873 0.196212 -5.36974e-19)
(0.233505 0.23365 0)
(0.227047 -0.18581 -1.8235e-17)
(0.263464 0.149345 2.67975e-17)
(0.227075 0.0886241 -1.84597e-17)
(0.233746 -0.131747 -4.8149e-18)
(0.257167 0.215773 -4.53828e-17)
(0.299869 0.00470152 -1.86755e-17)
(0.230001 0.26642 0)
(0.309127 0.0643194 1.90019e-17)
(0.214338 -0.158022 1.84789e-17)
(0.165469 -0.196816 1.84618e-17)
(0.282478 -0.0287508 -9.1961e-18)
(0.248674 0.238563 1.81856e-17)
(0.267167 -0.0355307 -4.3281e-21)
(0.206383 -0.173231 -4.69628e-17)
(0.258037 -0.036529 -9.69541e-18)
(0.227613 0.16738 -1.62835e-17)
(0.168623 -0.141244 0)
(0.30457 0.130016 1.86273e-17)
(0.197896 -0.187484 0)
(0.285412 0.181723 9.11145e-18)
(0.251472 0.106902 1.84518e-17)
(0.253909 -0.0482484 2.36602e-17)
(0.199589 -0.111928 0)
(0.218649 -0.0576515 -2.60664e-18)
(0.189413 -0.202245 1.57004e-17)
(0.249035 -0.0826973 -1.87124e-17)
(0.231834 -0.0480771 9.78017e-18)
(0.198626 -0.0934019 -9.44528e-18)
(0.118148 0.0646784 4.25227e-17)
(0.237414 -0.114636 2.78784e-17)
(0.230781 0.0742251 -4.80907e-18)
(0.266035 -0.0455918 0)
(0.253197 0.18287 1.80295e-17)
(0.115593 0.037963 -9.25792e-18)
(0.220663 -0.14163 -1.79182e-17)
(0.270645 0.215372 9.18873e-18)
(0.295546 -0.00965249 9.1982e-18)
(0.280756 0.188106 9.20515e-18)
(0.309086 0.0352345 1.90392e-17)
(0.182865 -0.198571 9.08921e-18)
(0.277839 -0.0274691 9.17861e-18)
(0.122762 0.1968 2.0562e-17)
(0.0638158 -0.107958 0)
(0.198004 -0.0160587 1.85452e-17)
(0.154354 -0.126901 0)
(0.134219 0.10298 4.60134e-18)
(0.264152 -0.0308253 2.90698e-17)
(0.251835 -0.0716329 3.68776e-17)
(0.228277 -0.0658991 2.85557e-18)
(0.309634 0.0961447 -3.78447e-17)
(0.256045 -0.0389357 -3.89755e-17)
(0.143374 0.0172253 -9.45768e-18)
(0.183402 -0.0873626 -4.71584e-18)
(0.171975 -0.129781 0)
(0.244723 -0.0249091 1.90768e-17)
(0.198587 -0.0367234 4.95339e-18)
(0.191857 -0.132933 0)
(0.210641 -0.0974439 1.83135e-17)
(0.175604 0.00125436 4.83756e-18)
(0.149384 0.142301 9.48352e-18)
(0.170263 -0.106847 -1.20591e-18)
(0.198287 -0.0625389 -8.29648e-18)
(0.207269 -0.155257 -2.75341e-17)
(0.220847 -0.0509885 0)
(0.193201 -0.100872 8.78068e-18)
(0.242569 -0.104397 0)
(0.247723 0.24136 0)
(0.196702 -0.19445 0)
(0.294322 0.152278 0)
(0.227486 -0.133143 9.19157e-18)
(0.114163 -0.145074 2.79269e-17)
(0.156649 0.171061 -1.97161e-17)
(0.23958 -0.0541622 9.2676e-18)
(0.210896 -0.114886 0)
(0.250762 -0.0554124 2.77683e-17)
(0.243317 -0.0874309 0)
(0.183238 -0.18961 -9.27593e-18)
(0.191694 -0.184285 9.28485e-18)
(0.209556 -0.130992 9.19387e-18)
(0.22229 0.244363 1.82573e-17)
(0.212926 -0.139822 9.18732e-18)
(0.193387 -0.117647 1.93354e-17)
(0.230676 -0.115951 -3.70064e-17)
(0.179993 -0.126291 0)
(0.190772 -0.156381 -9.16818e-18)
(0.239293 -0.0972559 1.84765e-17)
(0.248262 -0.0662928 -1.84859e-17)
(0.257503 0.22483 0)
(0.205868 0.0833648 1.93071e-17)
(0.248836 -0.0395807 1.86196e-17)
(0.232543 -0.0188139 -3.44082e-17)
(0.207228 -0.0410974 0)
(0.253609 -0.0350263 1.85881e-17)
(0.234109 -0.0384672 0)
(0.217875 0.121476 0)
(0.186116 -0.191698 0)
(0.199258 -0.127395 0)
(0.277792 -0.0162824 2.75864e-17)
(0.196331 -0.142308 0)
(0.224883 -0.124705 9.2791e-18)
(0.243178 -0.0338275 -1.94736e-17)
(0.205558 -0.14649 9.17031e-18)
(0.21554 -0.088947 -1.6967e-17)
(0.307949 0.0482617 -1.84661e-17)
(0.252325 -0.0208978 0)
(0.175102 -0.18345 -1.84768e-17)
(0.246187 -0.0496479 -2.77607e-17)
(0.265265 0.188533 0)
(0.225875 0.164444 0)
(0.216248 -0.123744 0)
(0.199943 -0.170071 1.84311e-17)
(0.286559 0.143227 -1.50565e-21)
(0.181428 0.135169 3.49484e-21)
(0.197147 0.0983179 -1.90679e-17)
(0.199311 -0.161382 0)
(0.253625 0.16859 0)
(0.229643 0.237594 0)
(0.254439 0.20885 0)
(0.245209 0.0175055 0)
(0.191768 -0.175653 -9.23775e-18)
(0.206896 0.13931 -1.87356e-17)
(0.262692 -0.0250156 2.77254e-17)
(0.296033 0.00580802 -9.20399e-18)
(0.185421 0.27106 1.82609e-17)
(0.263502 0.14717 -9.13844e-18)
(0.202556 0.230979 9.27242e-18)
(0.244484 0.12646 -9.19341e-18)
(0.172261 -0.153097 0)
(0.256587 -0.0259481 -1.8572e-17)
(0.268221 -0.0161063 -3.67955e-17)
(0.166376 0.180855 0)
(0.285127 -0.00266983 -1.83923e-17)
(0.288867 0.0362313 -1.86877e-17)
(0.300206 0.0263547 0)
(0.242875 -0.0708647 0)
(0.202995 0.228556 -1.98279e-21)
(0.12575 0.0874209 8.44005e-18)
(0.226875 -0.107692 0)
(0.274252 0.10562 -2.75602e-17)
(0.238866 -0.079939 0)
(0.206589 0.241196 0)
(0.174568 -0.213423 -1.83543e-17)
(0.198012 0.223868 -1.82996e-17)
(0.305731 0.0996458 0)
(0.190046 0.207713 -1.83227e-17)
(0.232071 -0.0992758 -9.24704e-18)
(0.220786 0.217932 1.82709e-17)
(0.237102 -0.064066 -1.89535e-17)
(0.304309 0.0706819 1.8417e-17)
(0.21693 -0.107163 0)
(0.16215 0.171099 -9.18686e-18)
(0.123337 0.125116 -3.26907e-17)
(0.215202 0.181542 0)
(0.147983 0.157507 0)
(0.29178 0.115475 2.74405e-17)
(0.174304 -0.203767 -1.80369e-17)
(0.1505 0.107979 0)
(0.196309 0.206065 1.83206e-17)
(0.135595 0.110756 3.89176e-17)
(0.229982 0.205225 -1.82646e-17)
(0.183756 -0.17011 0)
(0.16997 0.148348 3.91874e-17)
(0.177924 0.193327 9.16551e-18)
(0.182211 -0.160763 0)
(0.16706 0.1475 1.8397e-17)
(0.251532 0.0749786 -1.0101e-17)
(0.172329 0.136182 0)
(0.28949 0.0725576 0)
(0.258796 0.0275689 0)
(0.204755 0.234597 1.60537e-17)
(0.251327 0.00928161 -8.91348e-18)
(0.225796 -0.0903316 -2.25546e-17)
(0.174329 0.180057 0)
(0.136789 0.10233 9.49862e-18)
(0.186811 0.198936 -1.83176e-17)
(0.118794 0.113668 3.12033e-17)
(0.174662 -0.173843 0)
(0.119106 0.0864464 -8.0342e-18)
(0.153135 0.129259 0)
(0.2767 0.0215739 0)
(0.20566 0.245637 0)
(0.223061 -0.0746001 0)
(0.274502 0.0826863 9.23398e-18)
(0.277686 0.00857326 0)
(0.155249 0.143978 0)
(0.264827 0.00240014 -9.31118e-18)
(0.253291 -0.0112836 -9.16261e-18)
(0.179487 0.181849 0)
(0.175201 0.148689 0)
(0.187932 0.173628 0)
(0.263675 -0.0078585 3.67819e-17)
(0.282368 0.0507641 2.79259e-17)
(0.153159 0.162458 0)
(0.229824 -0.0814951 1.59475e-17)
(0.143105 0.158002 -1.85713e-17)
(0.183359 0.183064 1.83227e-17)
(0.177228 0.148651 -1.8411e-17)
(0.182221 0.216959 1.52102e-21)
(0.119819 0.0949656 0)
(0.154539 -0.210674 0)
(0.126885 0.180676 1.78187e-17)
(0.163872 -0.251456 0)
(0.139769 0.137076 0)
(0.207692 0.246899 -1.62254e-17)
(0.145069 -0.178166 -2.34669e-17)
(0.199135 0.227965 0)
(0.175813 0.187851 -1.82889e-17)
(0.138405 0.124211 0)
(0.191589 0.199842 -1.83176e-17)
(0.18682 0.190046 -9.16451e-18)
(0.179229 0.175335 3.66712e-17)
(0.18805 0.182414 0)
(0.164309 0.133086 -1.83826e-17)
(0.151786 0.146373 9.25871e-18)
(0.191157 0.195564 0)
(0.122629 0.193422 2.31594e-17)
(0.185895 0.177592 -9.17025e-18)
(0.160526 0.152677 -1.84624e-17)
(0.144309 0.135312 -1.73043e-17)
(0.110283 0.219797 -9.3204e-18)
(0.13336 0.136314 0)
(0.155908 0.119463 -1.86261e-17)
(0.146879 -0.252007 0)
(0.138509 -0.289209 2.73538e-17)
(0.170199 0.141275 2.76462e-17)
(0.138458 0.15403 1.85332e-17)
(0.190295 0.234583 3.67451e-17)
(0.199782 0.239422 -9.70303e-18)
(0.194255 0.262468 -1.84533e-17)
(0.137195 0.149712 0)
(0.0299789 -0.251604 0)
(0.144355 0.152508 -1.8556e-17)
(0.10387 0.224278 3.85166e-17)
(0.194568 0.223314 0)
(0.170564 0.153915 -2.76473e-17)
(0.0961385 -0.284173 -6.10814e-21)
(0.13483 0.166377 9.34678e-18)
(0.142979 0.137553 0)
(0.152155 0.13682 9.40082e-18)
(0.130086 0.158012 -2.78808e-17)
(0.118137 0.194405 0)
(0.104258 -0.315421 2.12163e-17)
(0.0463522 0.280669 -3.96339e-17)
(0.0059939 -0.326687 0)
(0.16019 0.130522 0)
(0.129439 -0.256755 -1.85245e-17)
(0.122728 -0.270989 0)
(0.124673 0.17787 1.85647e-17)
(0.0495274 0.223658 5.36377e-19)
(0.0458606 -0.281688 -2.02785e-17)
(0.126785 0.179401 -1.87827e-17)
(0.230438 -0.157338 -1.518e-17)
(0.103832 -0.270685 1.85915e-17)
(0.010943 -0.3559 0)
(0.0499387 0.182523 0)
(0.0485861 0.174612 6.34796e-17)
(0.0108748 -0.268683 -4.11621e-17)
(0.0431014 0.208962 -4.01649e-17)
(0.179858 -0.060215 0)
(0.0434276 0.318979 1.96465e-17)
(0.0689473 -0.288673 -2.90115e-17)
(0.0767021 -0.27642 2.91778e-17)
(0.00965815 -0.180486 0)
(0.029379 0.250558 -2.00658e-17)
(0.0400582 0.314352 -6.07865e-17)
(0.00131811 -0.18112 -1.95011e-17)
(0.206968 0.264585 3.02855e-21)
(0.0559811 0.253821 1.71876e-17)
(0.0526919 -0.274575 -1.99234e-17)
(0.201336 0.273696 9.43295e-18)
(0.0608457 0.198686 0)
(0.217842 0.274143 -2.14927e-17)
(0.0485077 0.304193 4.44344e-17)
(0.0599456 0.171063 -2.14406e-17)
(0.0561558 0.188798 -3.99553e-22)
(0.174842 -0.0696335 3.03596e-17)
(0.229193 -0.011357 -1.49176e-22)
(0.261906 -0.0624876 3.63882e-17)
(0.237526 0.00246156 1.32676e-17)
(0.165718 -0.260348 0)
(0.0228444 -0.228524 2.07412e-17)
(0.0491363 0.240642 0)
(0.205793 0.0607689 -1.22201e-17)
(0.0415577 0.321232 -6.36834e-19)
(0.000350412 -0.135187 0)
(0.0436387 0.31603 5.85657e-19)
(0.0840115 0.233124 2.06261e-17)
(0.0450601 0.272757 -2.37495e-17)
(0.0300991 -0.141664 -5.88489e-18)
(0.0809598 -0.23721 4.93611e-18)
(0.162873 -0.0329293 2.88137e-17)
(0.207963 0.0528693 2.1451e-17)
(0.13367 0.114828 -2.29037e-17)
(0.285765 -0.0497092 1.77425e-17)
(0.185336 -0.233651 0)
(0.196404 -0.0296937 1.07992e-17)
(0.225957 0.0381547 0)
(0.11435 0.244251 1.70141e-17)
(0.0519876 -0.230417 0)
(0.1976 0.280728 -4.03108e-17)
(0.222934 0.0964978 -2.19913e-17)
(0.241639 -0.00598904 -1.80656e-17)
(0.0790762 -0.160762 -1.56507e-17)
(0.208754 -0.0591044 0)
(0.261422 -0.0346777 1.01372e-18)
(0.192163 0.0445143 0)
(0.194995 -0.0797694 -3.21203e-17)
(0.180927 -0.0726813 -1.52086e-17)
(0.191755 -0.0613318 -5.34658e-18)
(0.0457698 -0.107104 3.98388e-17)
(0.110221 -0.167734 0)
(0.0446258 -0.241744 1.70813e-17)
(0.21676 0.276728 0)
(0.179562 -0.0803895 -2.90299e-17)
(0.00541279 -0.303487 -2.19354e-17)
(0.262227 0.00689938 2.03707e-17)
(0.25075 0.0367978 0)
(0.248116 0.0585347 -5.32118e-18)
(0.0893334 0.265385 0)
(0.206774 0.270921 1.98976e-17)
(0.041988 -0.304142 6.46965e-19)
(4.14178e-05 -0.227305 4.35884e-17)
(0.175221 -0.248147 0)
(0.0218579 -0.345174 1.87532e-17)
(0.0220383 -0.30235 2.00601e-17)
(0.0249071 -0.358528 1.05507e-17)
(0.0786131 -0.185693 -2.92445e-21)
(0.264354 -0.0357634 -2.79183e-17)
(0.0783776 0.260918 0)
(0.215742 -0.173129 0)
(0.0453325 0.242157 -1.02164e-17)
(0.251031 0.0330765 2.08975e-17)
(0.0581089 0.244006 0)
(0.0229984 -0.138965 1.02386e-17)
(0.0718996 0.242193 -1.70388e-17)
(0.0364413 -0.151808 0)
(0.0401183 -0.337845 0)
(0.0288669 0.156156 -1.90827e-21)
(0.0477335 0.160114 1.77027e-17)
(0.017109 -0.093386 1.00019e-17)
(0.028132 -0.295311 -1.03421e-17)
(0.248473 -0.106722 0)
(0.130944 0.137519 2.01749e-17)
(0.201278 -0.194739 -1.03552e-17)
(0.0951119 0.0904908 -1.0153e-17)
(0.0862497 0.0696584 0)
(0.112026 0.077494 0)
(0.164978 0.0603995 9.09531e-18)
(0.108818 0.171499 -1.94057e-17)
(0.0611259 0.0535784 0)
(0.0954745 0.071806 1.70592e-17)
(0.139542 -0.0864241 0)
(0.102219 0.108982 1.00335e-17)
(0.108782 -0.133583 -1.95606e-17)
(0.13355 0.0777881 2.59748e-18)
(0.152621 0.0711304 1.55856e-17)
(0.108934 0.149493 -2.05681e-17)
(0.106171 0.127786 -2.08107e-17)
(0.0978908 -0.135852 0)
(0.0873338 0.06793 1.90855e-17)
(0.0590118 0.0463435 0)
(0.0895658 0.0537498 -2.45542e-18)
(0.110843 0.0433105 0)
(0.0736547 0.104507 0)
(0.0689874 0.0763677 -1.00784e-17)
(0.0887305 -0.0611552 9.61197e-22)
(0.067172 -0.0902567 0)
(0.0641506 0.0457474 -1.60928e-17)
(0.260245 -0.0457768 -1.08138e-17)
(0.103159 0.0818642 -1.99575e-17)
(0.208824 0.0571093 0)
(0.0015066 -0.270138 -1.85511e-21)
(0.127788 0.117581 -3.23831e-17)
(0.208676 0.281697 -2.30865e-17)
(0.0438535 -0.234052 0)
(0.13054 -0.100691 -3.97301e-17)
(0.126752 0.154829 -9.85486e-18)
(0.080442 0.276996 0)
(0.106009 0.106064 2.01512e-17)
(0.0803135 -0.333401 -1.12521e-17)
(0.120428 0.169202 2.23757e-17)
(0.0844804 -0.064223 2.01468e-17)
(0.22708 0.271259 1.05574e-17)
(0.215298 0.266828 3.09766e-17)
(0.177081 0.152973 1.11564e-17)
(0.174925 -0.116635 0)
(0.144929 -0.0777724 -3.95818e-17)
(0.152109 -0.0693789 -4.83757e-18)
(0.129747 -0.149445 3.03038e-17)
(0.00996498 -0.327409 -2.08276e-17)
(0.25779 -0.0680866 -3.4028e-17)
(0.180047 0.143173 1.66118e-17)
(0.0770945 0.204946 -2.73435e-17)
(0.053093 -0.32175 5.30103e-18)
(0.282925 0.0140181 2.0363e-17)
(0.288039 0.086507 -3.05696e-17)
(0.166337 0.1118 4.27212e-17)
(0.215136 -0.180432 0)
(0.108174 -0.312461 -2.17487e-17)
(0.0991322 0.213665 3.41999e-17)
(0.135653 -0.13851 -2.01212e-17)
(0.0808571 -0.334742 1.18651e-17)
(0.214643 0.254533 -5.22013e-18)
(0.0210065 0.159275 0)
(0.262261 0.0525469 -1.03142e-17)
(0.196682 -0.208468 -2.18771e-17)
(0.143608 -0.14656 2.04028e-17)
(0.110647 -0.307886 1.31771e-17)
(0.0659687 0.14553 -2.21008e-17)
(0.0492755 -0.2086 1.18345e-17)
(0.260139 -0.0451688 -1.6442e-17)
(0.0230896 -0.222078 0)
(0.106407 0.0855134 3.80026e-17)
(0.209832 -0.0347958 -2.08041e-17)
(0.221407 -0.0232255 2.65183e-17)
(0.095889 -0.050679 2.52724e-17)
(0.258547 -0.0448785 5.28818e-18)
(0.258194 -0.0401972 -1.12328e-17)
(0.158279 -0.0147 -2.34505e-17)
(0.160247 -0.00506401 2.23175e-17)
(0.212355 0.266777 0)
(0.0896101 0.077075 0)
(0.0105157 -0.344168 -2.28872e-17)
(0.00795174 -0.0354935 -1.14158e-17)
(0.0311451 0.173701 -2.23219e-17)
(0.0158208 -0.357496 4.63504e-21)
(0.120313 -0.150347 1.03673e-17)
(0.133616 -0.0928432 -2.0937e-17)
(0.00676009 -0.072584 0)
(0.0172257 0.219571 0)
(0.214079 -0.181482 3.75819e-17)
(0.006778 0.16402 -3.71995e-17)
(0.0785162 -0.0753224 -1.06197e-17)
(0.113111 0.10385 1.22349e-17)
(0.000764251 -0.0639687 2.16054e-17)
(0.0518087 0.283813 2.41385e-17)
(0.168491 0.0799626 0)
(0.104461 0.0870463 0)
(0.15715 0.0804084 -1.09113e-17)
(0.0210467 0.246878 1.26231e-17)
(0.113164 0.0811443 -9.97297e-18)
(0.0518267 -0.157752 -1.64563e-17)
(0.0276188 -0.180582 1.09247e-17)
(0.189341 0.0261274 -2.69892e-18)
(0.185041 0.0323583 -3.71104e-17)
(0.0527513 0.299856 -2.57753e-17)
(0.150473 -0.12421 6.31047e-18)
(0.121454 0.113912 2.6855e-17)
(0.0975372 -0.0252022 7.61073e-22)
(0.218301 -0.166171 1.87538e-17)
(0.15736 -0.0432205 2.2072e-17)
(0.105564 0.0960256 -1.05795e-17)
(0.0632719 0.293292 -3.50703e-17)
(-0.0030514 -0.160317 2.32973e-17)
(0.153434 -0.0494597 -1.08859e-17)
(0.151737 -0.0592816 -2.17697e-17)
(0.150272 -0.136514 1.88969e-17)
(0.115626 0.164511 -2.56644e-18)
(0.07588 -0.0798625 5.34906e-18)
(0.0876587 0.229468 4.71321e-18)
(0.154568 0.0225003 0)
(0.147402 0.0269454 7.23817e-18)
(0.0610772 0.281424 1.15509e-17)
(0.219709 -0.175104 2.532e-17)
(0.0717926 0.173552 0)
(0.190555 -0.0412113 -4.52081e-18)
(0.243757 -0.117668 2.56925e-17)
(0.258447 -0.0874595 1.42577e-17)
(0.085124 0.22507 0)
(0.00079731 -0.0486363 -2.26769e-17)
(0.205711 -0.187385 1.17084e-17)
(0.0963159 -0.00799656 -3.00733e-18)
(0.0770482 0.176403 -1.54404e-18)
(0.215678 0.277588 5.56014e-18)
(-0.00417012 -0.0343178 2.48962e-17)
(0.0600252 0.247281 0)
(0.248357 -0.118963 0)
(0.219604 -0.174167 0)
(0.212997 0.28039 -1.22655e-17)
(0.11005 0.0742397 0)
(0.218057 0.246967 2.04675e-17)
(0.0396844 -0.315668 -1.20723e-17)
(-0.00122791 -0.0692249 -1.26743e-17)
(0.0707987 0.221005 0)
(0.255393 -0.0908208 -6.32464e-18)
(0.0868627 0.0701686 0)
(0.205592 0.189332 7.02613e-19)
(0.0478814 0.257674 1.18035e-17)
(0.0254758 -0.0935615 1.77734e-17)
(0.167614 -0.215689 0)
(0.0676415 -0.175431 2.29108e-17)
(0.0935336 0.199308 0)
(0.0669425 0.195759 0)
(0.073796 -0.272392 1.51672e-18)
(0.261331 -0.0733784 -2.21936e-17)
(0.0654838 -0.159769 -1.31114e-18)
(0.156718 -0.0975993 0)
(0.209937 0.12209 4.33155e-17)
(0.0941298 0.248319 1.2253e-18)
(0.0366622 0.243595 -1.09763e-17)
(0.124375 -0.107637 0)
(0.117045 0.113081 -9.794e-18)
(0.170192 -0.20132 -2.64141e-17)
(0.165513 -0.0966723 2.44542e-17)
(0.119892 0.0994061 1.16797e-17)
(0.18292 -0.201842 1.07113e-17)
(0.221259 0.268174 -1.14161e-17)
(0.00887442 -0.120919 -2.37264e-17)
(0.18208 -0.112349 -2.2217e-17)
(0.0939359 0.0824714 0)
(0.19154 -0.0891139 1.56526e-17)
(0.17378 -0.23419 5.36865e-18)
(0.25538 -0.0843274 2.08852e-17)
(0.0698553 0.292981 5.57676e-18)
(0.0677252 0.281515 0)
(0.239788 -0.140689 2.04866e-17)
(0.239854 -0.13502 3.32488e-17)
(0.26138 -0.0402053 0)
(0.193676 -0.211787 3.40427e-18)
(0.0369545 -0.10519 -1.55164e-17)
(0.265795 -0.0404281 0)
(0.0538068 -0.26979 -1.44768e-18)
(0.254069 0.106489 -2.07502e-17)
(0.179067 0.09625 3.2833e-21)
(0.295547 0.0518972 -4.54031e-21)
(0.18438 -0.226918 -5.54108e-18)
(0.141668 -0.127664 -2.51696e-17)
(0.200904 0.0402221 2.76579e-17)
(0.0952467 0.171754 4.91812e-17)
(0.153074 0.107946 -2.54461e-17)
(0.093319 -0.0354938 3.70979e-17)
(0.26297 -0.0358782 5.22803e-18)
(0.0194908 -0.159076 1.24109e-17)
(0.0706344 0.195962 2.42036e-17)
(0.134339 -0.16602 0)
(0.177421 -0.104529 -3.44206e-17)
(0.127347 -0.140322 -2.15645e-17)
(0.0982311 0.0832069 5.97407e-18)
(0.225633 -0.167262 0)
(0.0884391 0.177685 -2.60009e-17)
(0.134789 -0.157186 -2.53193e-17)
(0.224708 0.0285228 0)
(0.0509427 -0.170865 1.38049e-17)
(0.0804787 -0.321001 1.53059e-17)
(0.194109 -0.217031 -1.25993e-17)
(0.144289 -0.155337 1.5461e-18)
(0.0314002 -0.218474 0)
(0.00411111 -0.357548 4.35825e-21)
(0.125663 0.133653 0)
(0.112905 -0.124916 2.22303e-17)
(0.125108 -0.167642 -3.15114e-18)
(0.202521 0.283562 1.2561e-17)
(0.0200129 -0.146874 0)
(0.0295501 0.268947 2.67688e-17)
(0.27025 -0.0491602 2.5166e-17)
(0.157985 -0.13105 -6.36517e-18)
(0.226596 -0.166994 -2.06224e-17)
(0.169932 -0.185737 -4.30548e-17)
(0.089905 0.190581 0)
(0.223654 -0.0334042 0)
(0.116157 0.124341 -2.64143e-17)
(0.114562 0.141969 3.43143e-17)
(0.253251 -0.103408 1.08547e-17)
(0.258692 -0.0379584 1.24175e-17)
(0.12422 -0.175631 9.03224e-18)
(-0.00521349 -0.13988 -1.37278e-17)
(0.0495819 0.313895 0)
(0.119758 0.146053 0)
(0.209518 -0.187495 0)
(0.0958005 -0.323787 -8.97679e-19)
(0.0867343 0.0131387 1.42358e-17)
(0.224426 0.0531481 6.70209e-18)
(0.0399416 0.297331 3.49517e-17)
(0.0609014 -0.204262 -5.98134e-22)
(0.256766 -0.0972153 2.66507e-17)
(0.182411 -0.0957413 6.70213e-18)
(0.0281504 0.243394 -1.54002e-21)
(0.211175 0.27164 0)
(0.214869 -0.181794 -2.29559e-17)
(0.0769491 0.178094 0)
(0.0892618 0.182887 -2.33066e-17)
(0.220036 0.041729 0)
(0.160418 -0.0866361 1.99865e-17)
(0.132301 0.0862338 -6.52209e-18)
(0.0604212 -0.182573 -1.47656e-17)
(0.194068 0.191408 0)
(0.0350467 0.287558 1.95954e-17)
(0.171782 -0.0891922 6.57786e-18)
(0.109734 0.120595 2.68949e-17)
(0.0815728 -0.295583 0)
(0.190441 -0.213532 -2.62407e-17)
(0.147502 0.0906228 6.3747e-18)
(-0.00271978 -0.136442 -2.58888e-17)
(0.207856 -0.187303 -2.74539e-17)
(0.139002 -0.118523 0)
(0.0677001 -0.317063 -7.52311e-18)
(0.253346 -0.112529 -1.78736e-17)
(0.243836 -0.123682 -1.73692e-17)
(0.184784 -0.195558 3.34873e-17)
(0.00031425 -0.0807915 2.89574e-17)
(0.207524 0.215504 0)
(0.093588 -0.298065 -9.49628e-18)
(0.0925592 -0.311592 -2.91669e-17)
)
;

boundaryField
{
    back
    {
        type            empty;
    }
    front
    {
        type            empty;
    }
    top
    {
        type            codedFixedValue;
        value           nonuniform List<vector> 10((0 -0.329531 0) (0 -0.358501 0) (0 -0.271592 0) (0 -0.184682 0) (0 -0.184682 0) (0 -0.271592 0) (0 -0.329531 0) (0 -0.0688033 0) (0 -0.0688033 0) (0 -0.358501 0));