/*--------------------------------*- C++ -*----------------------------------*\
  =========                 |
  \\      /  F ield         | OpenFOAM: The Open Source CFD Toolbox
   \\    /   O peration     | Website:  https://openfoam.org
    \\  /    A nd           | Version:  9
     \\/     M anipulation  |
\*---------------------------------------------------------------------------*/
FoamFile
{
    format      ascii;
    class       volScalarField;
    location    "0.91";
    object      p;
}
// * * * * * * * * * * * * * * * * * * * * * * * * * * * * * * * * * * * * * //

dimensions      [0 2 -2 0 0 0 0];

internalField   nonuniform List<scalar> 
90
(
-8.47648e-23
2.20004e-23
4.46027e-22
1.37344e-21
4.40994e-22
-1.03463e-21
-9.78409e-25
-1.26385e-22
-2.42925e-22
-1.22884e-22
4.16825e-23
-1.96268e-22
-1.90571e-22
6.11096e-22
-4.22149e-22
-2.8137e-21
2.96796e-21
-5.77503e-22
-6.22695e-22
1.30657e-24
2.4428e-23
3.36569e-23
4.06822e-23
1.99425e-22
2.03276e-23
3.0908e-22
-2.52326e-22
2.12542e-22
3.64304e-22
-2.12883e-22
-1.32221e-22
5.08452e-22
4.15099e-22
2.67964e-22
3.72966e-22
-2.7617e-21
-1.15378e-22
4.34561e-21
4.57e-22
-6.62778e-23
-1.64648e-22
-2.75793e-22
6.34004e-22
-4.43214e-23
-5.19992e-24
6.55353e-22
-1.47276e-22
-1.04304e-21
-5.44103e-22
7.83693e-22
2.18472e-23
-7.22182e-23
-1.841e-22
5.46501e-22
-1.68113e-22
-7.15483e-22
3.73002e-25
7.92413e-23
-4.35351e-23
6.26965e-22
-1.77241e-22
6.67521e-22
9.22764e-22
6.22513e-23
-4.10249e-22
-2.74088e-22
5.87905e-22
7.00015e-22
3.65202e-21
9.36885e-23
-1.28706e-21
-1.19326e-22
5.53853e-22
-1.21098e-21
-2.65532e-21
-1.61755e-22
-1.16994e-22
4.87558e-22
1.19193e-22
1.68044e-23
4.31882e-21
-2.17859e-23
5.52066e-23
-2.3928e-21
1.04181e-22
9.53834e-22
-7.69177e-23
-1.31712e-22
-1.6066e-21
-2.2347e-22
)
;

boundaryField
{
    back
    {
        type            empty;
    }
    front
    {
        type            empty;
    }
    bottom
    {
        type            zeroGradient;
    }
    outer_arc
    {
        type            zeroGradient;
    }
    right
    {
        type            uniformFixedValue;
        uniformValue    
        {
            type            scale;
            scale           
            {
                type            squarePulse;
                start           0.3;
                duration        0.3;
            }
            xScale          
            {
                type            constant;
                value           1;
            }
            value           
            {
                type            constant;
                value           15.1;
            }
        }
        value           uniform 0;
    }
    inner_arc
    {
        type            zeroGradient;
    }
}


// ************************************************************************* //
