/*--------------------------------*- C++ -*----------------------------------*\
  =========                 |
  \\      /  F ield         | OpenFOAM: The Open Source CFD Toolbox
   \\    /   O peration     | Website:  https://openfoam.org
    \\  /    A nd           | Version:  9
     \\/     M anipulation  |
\*---------------------------------------------------------------------------*/
FoamFile
{
    format      ascii;
    class       surfaceScalarField;
    location    "0.91";
    object      phi;
}
// * * * * * * * * * * * * * * * * * * * * * * * * * * * * * * * * * * * * * //

dimensions      [0 3 -1 0 0 0 0];

internalField   nonuniform List<scalar> 
122
(
-1.89382e-29
5.51583e-30
-5.96006e-30
2.08828e-28
-3.62163e-29
-1.23251e-28
-1.90836e-28
1.9954e-28
1.63306e-28
-2.63406e-28
2.6058e-28
5.29565e-28
-5.49706e-28
2.87952e-30
-2.75559e-29
-7.57009e-30
3.39511e-29
7.95129e-29
-7.51736e-29
-3.5148e-30
-8.56032e-30
3.59561e-29
3.74921e-29
-8.37714e-29
-1.26692e-28
2.19214e-28
-9.67752e-29
2.25221e-28
-9.20953e-29
7.33797e-29
-2.98532e-28
-1.81224e-28
9.25328e-29
-3.37561e-29
-3.84507e-29
1.61189e-30
1.27529e-29
5.05221e-29
-5.94302e-29
-3.79705e-29
2.4643e-29
-5.43573e-29
3.34335e-29
-1.92233e-29
-5.19784e-29
2.22356e-29
1.68135e-29
-3.49281e-29
-5.12386e-29
2.87217e-29
4.72108e-30
-6.01657e-29
5.41731e-29
-4.83384e-28
2.45277e-28
-1.53157e-29
-4.17559e-30
-2.48592e-29
-1.05961e-30
-1.561e-29
-2.64251e-29
2.7908e-29
-1.91854e-29
-7.8702e-29
1.33721e-28
1.60652e-28
-2.24861e-30
1.32639e-29
-9.24885e-30
1.77943e-29
4.08098e-29
-1.03699e-29
6.456e-29
1.74623e-29
-1.38169e-29
1.25813e-29
9.81131e-30
6.31384e-30
6.34286e-29
-3.70158e-29
3.0145e-30
-4.18183e-29
-1.38507e-28
4.86426e-29
-1.36939e-29
-6.56276e-29
3.92087e-30
1.23896e-29
8.74811e-29
-9.45403e-29
-5.22222e-29
4.88056e-30
-6.19186e-30
-1.02772e-28
1.01156e-28
3.66684e-30
4.99682e-30
1.49211e-29
-7.54785e-30
-3.34236e-29
-4.71582e-29
5.62767e-29
4.21165e-29
-5.26409e-29
-8.93588e-30
9.75768e-29
-3.33964e-29
5.20466e-29
-2.63671e-29
-6.50283e-29
3.18508e-28
-3.21087e-28
-1.99576e-28
1.53751e-28
1.15303e-29
5.32861e-29
5.91411e-29
-1.42494e-29
5.85123e-30
1.16804e-29
-7.73275e-29
5.25472e-30
)
;

boundaryField
{
    back
    {
        type            empty;
        value           nonuniform List<scalar> 0();
    }
    front
    {
        type            empty;
        value           nonuniform List<scalar> 0();
    }
    bottom
    {
        type            calculated;
        value           uniform 0;
    }
    outer_arc
    {
        type            calculated;
        value           uniform 0;
    }
    right
    {
        type            calculated;
        value           nonuniform List<scalar> 4(-7.83142e-30 -9.83565e-30 -1.05829e-29 -5.79435e-30);
    }
    inner_arc
    {
        type            calculated;
        value           uniform 0;
    }
}


// ************************************************************************* //
