/*--------------------------------*- C++ -*----------------------------------*\
  =========                 |
  \\      /  F ield         | OpenFOAM: The Open Source CFD Toolbox
   \\    /   O peration     | Website:  https://openfoam.org
    \\  /    A nd           | Version:  9
     \\/     M anipulation  |
\*---------------------------------------------------------------------------*/
FoamFile
{
    format      ascii;
    class       volVectorField;
    location    "0.91";
    object      U;
}
// * * * * * * * * * * * * * * * * * * * * * * * * * * * * * * * * * * * * * //

dimensions      [0 1 -1 0 0 0 0];

internalField   nonuniform List<vector> 
90
(
(-4.74914e-22 1.08654e-23 3.73346e-39)
(-3.57658e-21 -3.31923e-21 -5.42807e-38)
(6.4572e-21 9.24622e-22 4.71359e-38)
(5.35324e-21 -6.72761e-21 -4.66816e-38)
(-7.1829e-21 -1.07908e-20 -1.24801e-37)
(-1.94905e-21 -1.81698e-21 4.31245e-38)
(-2.94801e-22 -1.22734e-22 -4.24366e-39)
(4.27106e-22 2.755e-22 -6.57219e-39)
(-3.29249e-22 2.61006e-21 0)
(-1.82466e-22 -5.20641e-23 0)
(1.87078e-21 -3.86106e-22 7.61804e-39)
(-1.36128e-21 7.31699e-21 -7.66184e-39)
(3.86028e-22 1.99925e-22 -2.38056e-39)
(3.39484e-22 1.41233e-21 9.90684e-40)
(-3.11281e-21 4.96998e-21 0)
(-7.01724e-21 -3.58154e-21 0)
(-2.6671e-21 -1.13313e-20 1.59465e-37)
(6.40734e-21 1.95608e-21 2.3497e-38)
(6.14334e-22 -2.5565e-21 0)
(3.80618e-22 6.17306e-22 5.62681e-39)
(1.16064e-21 5.82693e-22 -2.9407e-39)
(-6.50138e-22 -6.08341e-22 -3.35433e-39)
(9.98146e-22 -3.46213e-22 1.11131e-38)
(1.25948e-21 -1.27462e-22 -6.71575e-39)
(1.09007e-21 1.52043e-22 1.95297e-39)
(4.67336e-22 -1.67583e-21 -8.50219e-39)
(7.83715e-22 1.76535e-22 6.68218e-39)
(-1.70164e-21 -9.04216e-22 -3.71487e-39)
(1.37125e-20 2.21018e-21 0)
(4.94443e-22 -2.98099e-22 1.02111e-38)
(7.52578e-22 7.85022e-23 -7.04029e-39)
(1.4782e-21 -2.47873e-22 3.2001e-38)
(1.33292e-21 4.71673e-22 9.76897e-39)
(7.40018e-22 8.07846e-22 -2.05354e-38)
(1.00623e-21 5.51235e-22 6.19551e-39)
(-1.78601e-21 3.32845e-21 6.55001e-38)
(-1.78e-21 -2.34534e-21 0)
(2.4114e-21 -3.46578e-21 0)
(3.35377e-22 2.0535e-23 -1.02649e-38)
(-2.26031e-23 2.5837e-22 -1.37887e-39)
(-6.55853e-22 1.90917e-22 -3.57338e-40)
(-1.11746e-22 8.56479e-22 1.96703e-38)
(-6.08308e-22 4.00206e-22 3.58456e-39)
(-5.01758e-22 4.34349e-23 2.65316e-39)
(-3.07997e-22 -9.1865e-23 6.27855e-40)
(-1.39481e-21 -2.44062e-21 -2.38468e-38)
(5.08209e-22 -6.49379e-22 -1.18397e-39)
(-1.71557e-21 3.35546e-21 -2.75883e-38)
(1.78625e-21 -1.20179e-22 2.75935e-38)
(-1.14965e-21 4.88436e-21 -3.03545e-39)
(1.53356e-22 1.16775e-22 0)
(-1.23141e-22 -2.32118e-22 4.68096e-39)
(-2.29407e-21 2.51087e-21 2.5614e-41)
(-6.43775e-22 -7.02444e-22 0)
(-1.22175e-22 -2.82405e-22 -9.46835e-39)
(-3.44602e-21 -9.6275e-22 2.76539e-40)
(-3.57162e-22 4.01553e-23 -5.45304e-40)
(3.28249e-22 -1.20198e-21 0)
(-4.54831e-22 -1.31788e-22 0)
(1.23854e-21 -1.01381e-21 -3.52619e-38)
(-5.84019e-22 4.08393e-22 -1.34646e-38)
(-1.52724e-21 -2.47225e-21 0)
(1.36964e-22 -7.70501e-22 -4.31232e-38)
(-3.13656e-21 6.88213e-22 2.7084e-39)
(-1.71007e-21 -6.0553e-22 -2.91545e-38)
(3.447e-21 -5.59626e-22 -1.05957e-38)
(1.21204e-21 1.31605e-21 0)
(1.30576e-21 -7.86703e-22 0)
(1.11134e-20 -1.73199e-21 -1.58108e-38)
(1.29586e-20 -2.51841e-21 -4.25285e-38)
(-5.89635e-21 3.31816e-21 0)
(-4.38377e-22 -2.40764e-22 -5.61211e-39)
(-4.28247e-21 2.58369e-21 0)
(6.37083e-22 -3.39e-21 -8.93217e-38)
(9.11083e-21 -8.84177e-23 4.29385e-38)
(3.10537e-22 -8.11139e-22 5.51881e-39)
(-2.711e-22 -8.64293e-23 1.03703e-39)
(-1.42357e-21 -4.02646e-22 0)
(-5.2599e-22 1.08527e-21 1.27003e-38)
(-4.21152e-22 -1.8865e-22 -2.42969e-39)
(6.93491e-21 -6.05106e-22 -1.80021e-37)
(-3.3354e-22 -2.16704e-23 -8.7622e-41)
(9.96155e-22 -1.64769e-21 1.82474e-39)
(-2.395e-21 6.3729e-22 -6.29082e-38)
(-1.13198e-21 -3.02915e-21 -3.35842e-39)
(-6.74548e-23 2.82522e-22 2.79344e-38)
(-4.23774e-22 -1.24227e-23 -3.3857e-39)
(-4.14536e-22 -4.79558e-23 3.40159e-40)
(-2.86036e-21 -2.57443e-21 1.54404e-37)
(-2.02074e-22 -1.01363e-22 5.43493e-39)
)
;

boundaryField
{
    back
    {
        type            empty;
    }
    front
    {
        type            empty;
    }
    bottom
    {
        type            uniformFixedValue;
        uniformValue    
        {
            type            scale;
            scale           
            {
                type            squarePulse;
                start           0.3;
                duration        0.3;
            }
            xScale          
            {
                type            constant;
                value           1;
            }
            value           
            {
                type            constant;
                value           (0 0.7 0);
            }
        }
        value           uniform (0 0 0);
    }
    outer_arc
    {
        type            noSlip;
    }
    right
    {
        type            zeroGradient;
    }
    inner_arc
    {
        type            noSlip;
    }
}


// ************************************************************************* //
