/*--------------------------------*- C++ -*----------------------------------*\
  =========                 |
  \\      /  F ield         | OpenFOAM: The Open Source CFD Toolbox
   \\    /   O peration     | Website:  https://openfoam.org
    \\  /    A nd           | Version:  9
     \\/     M anipulation  |
\*---------------------------------------------------------------------------*/
FoamFile
{
    format      ascii;
    class       volScalarField;
    location    "0.31";
    object      p;
}
// * * * * * * * * * * * * * * * * * * * * * * * * * * * * * * * * * * * * * //

dimensions      [0 2 -2 0 0 0 0];

internalField   nonuniform List<scalar> 
464
(
15.0935
15.0776
15.5117
15.4613
15.086
15.5243
15.1064
15.4593
15.1486
15.1479
15.099
15.1287
15.1401
15.1201
15.1764
15.1838
15.2311
15.2379
15.459
15.3114
15.3185
15.3775
15.3689
15.4605
15.4672
15.457
15.1527
15.4405
15.1613
15.4166
15.4248
15.1974
15.1964
15.2133
15.22
15.2562
15.2673
15.4494
15.4242
15.1833
15.3079
15.3469
15.3591
15.1315
15.1191
15.1819
15.3842
15.3571
15.4098
15.4397
15.3009
15.3973
15.2856
15.326
15.3271
15.3925
15.3916
15.2769
15.2793
15.2832
15.4263
15.0927
15.2566
15.3012
15.1402
15.3363
15.243
15.3976
15.1091
15.3167
15.2708
15.0945
15.1533
15.3716
15.1648
15.4169
15.2509
15.0904
15.285
15.1646
15.0887
15.4838
15.1202
15.4699
15.1056
15.2628
15.1094
15.4614
15.4426
15.1618
15.1011
15.075
15.2212
15.0934
15.2117
15.2497
15.2921
15.4837
15.1595
15.1593
15.4431
15.3514
15.4346
15.1916
15.2001
15.1153
15.4872
15.2368
15.1162
15.345
15.1952
15.3704
15.2278
15.1456
15.432
15.4229
15.1332
15.4376
15.1545
15.4322
15.3505
15.1517
15.1554
15.1121
15.2649
15.1902
15.1739
15.1971
15.2139
15.1281
15.4556
15.1296
15.4382
15.4122
15.3848
15.1416
15.4202
15.4377
15.1595
15.3455
15.3811
15.2059
15.272
15.4217
15.407
15.1616
15.4012
15.4558
15.3088
15.3363
15.3905
15.4114
15.1514
15.1784
15.1464
15.355
15.2321
15.3781
15.1708
15.1151
15.1846
15.367
15.177
15.3268
15.3205
15.3916
15.1792
15.3247
15.196
15.1927
15.1981
15.1092
15.1727
15.3727
15.1855
15.2073
15.3569
15.3474
15.1439
15.2226
15.3453
15.2373
15.2112
15.2162
15.1949
15.2039
15.238
15.232
15.1802
15.2115
15.3354
15.225
15.3466
15.3408
15.2856
15.287
15.3155
15.334
15.1997
15.3181
15.3243
15.2935
15.3218
15.3024
15.2189
15.3381
15.3139
15.2987
15.2913
15.1677
15.3692
15.2443
15.3856
15.2715
15.3125
15.2056
15.1904
15.3299
15.1586
15.2842
15.2226
15.3062
15.3086
15.318
15.3376
15.3285
15.3188
15.2943
15.3102
15.3017
15.2941
15.2841
15.2802
15.2701
15.2824
15.2857
15.257
15.2667
15.2782
15.2527
15.271
15.2498
15.2735
15.2646
15.2564
15.2435
15.2485
15.301
15.2394
15.3004
15.2315
15.2419
15.2307
15.1747
15.2423
15.2345
15.3767
15.2964
15.2289
15.2038
15.2213
15.2102
15.218
15.1714
15.2097
15.1662
15.2068
15.4289
15.1795
15.1767
15.3563
15.1974
15.1911
15.1746
15.1196
15.1986
15.1887
15.2785
15.2698
15.1478
15.1949
15.4097
15.2767
15.377
15.17
15.1847
15.2627
15.1659
15.4068
15.1886
15.1756
15.1818
15.3864
15.3449
15.2367
15.264
15.2502
15.2135
15.2294
15.1258
15.1642
15.1718
15.1329
15.0984
15.2709
15.2244
15.2132
15.2872
15.1305
15.1918
15.3104
15.3989
15.2435
15.1638
15.2027
15.1933
15.2564
15.126
15.4654
15.1379
15.4055
15.244
15.1309
15.2226
15.1792
15.3554
15.3758
15.1296
15.4154
15.1421
15.3279
15.1235
15.4743
15.2205
15.3009
15.356
15.3959
15.4703
15.1808
15.3377
15.4783
15.0864
15.1589
15.1442
15.2022
15.4496
15.3647
15.257
15.4696
15.2944
15.3653
15.4698
15.2506
15.258
15.3637
15.0908
15.6427
15.0986
15.5858
15.0794
15.4943
15.1282
15.4818
15.1028
15.1003
15.4846
15.4514
15.2222
15.1174
15.4248
15.4823
15.135
15.1651
15.2204
15.1482
15.4539
15.1318
15.3494
15.1629
15.4022
15.1786
15.2047
15.2115
15.1996
15.2275
15.1849
15.2134
15.4653
15.2297
15.2535
15.2852
15.2595
15.2786
15.2791
15.3028
15.3553
15.3338
15.4003
15.337
15.1432
15.0949
15.4891
15.0867
15.4991
15.1354
15.0898
15.0946
15.5721
15.0922
15.6336
15.1243
15.4626
15.4753
15.4352
15.4677
15.0789
15.1046
15.4647
15.4824
15.1236
15.4668
15.4781
15.1205
15.1381
15.0969
15.1524
15.1672
15.1737
15.1745
15.1041
15.5024
15.1935
15.2042
15.4552
15.2219
15.2295
15.2381
15.4232
15.2453
15.4094
15.2761
15.2716
15.3134
15.3203
15.3894
15.328
15.3769
15.3403
15.3677
15.2979
15.1909
15.1082
15.1782
15.4443
15.2857
15.2346
15.2435
15.4842
15.4754
15.4798
15.5179
15.0994
15.1016
15.4402
)
;

boundaryField
{
    back
    {
        type            empty;
    }
    front
    {
        type            empty;
    }
    left
    {
        type            zeroGradient;
    }
    top
    {
        type            zeroGradient;
    }
    right
    {
        type            zeroGradient;
    }
    bottom
    {
        type            uniformFixedValue;
        uniformValue    
        {
            type            scale;
            scale           
            {
                type            squarePulse;
                start           0.3;
                duration        0.3;
            }
            xScale          
            {
                type            constant;
                value           1;
            }
            value           
            {
                type            constant;
                value           15.1;
            }
        }
        value           uniform 15.1;
    }
}


// ************************************************************************* //
