/*--------------------------------*- C++ -*----------------------------------*\
  =========                 |
  \\      /  F ield         | OpenFOAM: The Open Source CFD Toolbox
   \\    /   O peration     | Website:  https://openfoam.org
    \\  /    A nd           | Version:  9
     \\/     M anipulation  |
\*---------------------------------------------------------------------------*/
FoamFile
{
    format      ascii;
    class       surfaceScalarField;
    location    "0.31";
    object      phi;
}
// * * * * * * * * * * * * * * * * * * * * * * * * * * * * * * * * * * * * * //

dimensions      [0 3 -1 0 0 0 0];

internalField   nonuniform List<scalar> 
663
(
-3.23582e-08
-1.70103e-09
3.40593e-08
-1.58377e-08
-8.44919e-09
1.74001e-08
8.84987e-09
2.4815e-09
-2.22315e-08
1.975e-08
3.23758e-09
-1.90753e-08
-8.4601e-09
2.58602e-08
-9.09487e-10
-3.14487e-08
-2.27461e-08
2.52276e-08
-2.14413e-09
-3.39726e-08
3.61167e-08
-3.43642e-08
3.22201e-08
-2.92495e-08
2.75484e-08
1.44052e-08
-2.15885e-08
7.18326e-09
-3.4882e-08
1.78418e-08
-3.43654e-09
-1.66301e-08
1.87449e-08
-2.11474e-09
-1.7538e-08
9.07857e-10
-1.6662e-08
1.76199e-08
-9.57971e-10
-1.80591e-08
1.39711e-09
2.21429e-08
-2.21429e-08
-2.40475e-08
2.86871e-08
-4.63956e-09
2.97163e-09
-2.70191e-08
2.3868e-08
2.02306e-09
-2.58911e-08
2.7644e-08
-3.77604e-09
1.62187e-08
7.62675e-09
-2.38455e-08
-2.66836e-08
4.45211e-09
-7.76981e-09
2.39885e-08
-1.51162e-08
1.78484e-08
-2.73214e-09
2.70964e-08
-2.99282e-08
2.83175e-09
-2.23398e-08
7.2236e-09
-1.64336e-08
2.66041e-08
-1.01706e-08
9.10141e-09
-2.5535e-08
1.82611e-08
-2.84865e-08
1.02253e-08
-6.30149e-09
2.45626e-08
-2.0658e-08
2.77161e-08
-7.05802e-09
-2.8526e-08
7.86797e-09
-1.44533e-08
-3.60574e-09
-2.24923e-08
8.03899e-09
4.09138e-09
1.80516e-08
-1.93865e-09
2.90351e-08
1.92452e-08
-2.32991e-09
-1.69153e-08
1.70228e-08
1.16643e-08
-1.74464e-08
2.72003e-08
-9.75385e-09
1.01976e-08
1.48491e-08
2.99933e-09
-6.73942e-09
1.70724e-09
-3.05045e-08
2.95048e-08
9.99735e-10
-2.63123e-08
2.7326e-08
-1.01367e-09
-1.61129e-08
1.61129e-08
-2.58368e-08
-7.41701e-09
2.44398e-08
2.87064e-08
-2.28067e-09
-2.64257e-08
2.19596e-08
-3.5312e-09
-1.84284e-08
-1.18484e-09
-3.03402e-08
3.1525e-08
2.94809e-08
-3.06658e-08
3.40985e-09
2.52966e-08
-2.70947e-08
-5.91423e-10
-3.17615e-08
3.23529e-08
2.96892e-08
-3.02806e-08
1.97498e-08
2.20989e-09
-1.80516e-08
2.92933e-08
-2.89461e-08
-3.47231e-10
-3.241e-08
3.21569e-08
2.53073e-10
3.12881e-08
-3.13452e-08
5.71837e-11
-1.80026e-09
-3.2564e-08
6.1182e-11
-3.04013e-08
-2.97959e-08
3.00707e-08
-2.74856e-10
1.38323e-08
-2.20662e-08
-8.78669e-10
3.03596e-08
3.03894e-08
-7.00268e-10
2.7493e-08
-1.68826e-08
-5.45721e-09
1.66737e-10
-2.64791e-08
2.53939e-10
2.19682e-08
-2.22221e-08
2.60936e-09
4.25154e-10
-3.0221e-08
-2.97896e-10
3.43572e-08
-3.19593e-08
1.97837e-10
1.86224e-09
-2.17035e-08
4.20393e-09
1.74995e-08
2.48081e-08
-2.96338e-12
-2.48051e-08
2.76581e-10
8.27274e-09
-8.54932e-09
1.93169e-09
-1.8845e-08
1.69133e-08
-2.14269e-08
-4.19006e-10
-3.1991e-08
8.84357e-10
-2.98304e-08
2.67398e-08
-1.4592e-09
2.4816e-08
-2.33568e-08
-2.97733e-08
3.00273e-08
-2.17741e-08
3.1697e-08
2.98009e-08
-3.0308e-08
5.07072e-10
-1.58787e-08
3.91912e-10
1.54868e-08
3.00513e-08
-2.50412e-10
3.2582e-08
-6.71264e-10
2.62398e-08
-2.62428e-08
9.24664e-11
8.76375e-09
-8.85621e-09
-3.32989e-08
-1.58319e-09
2.59175e-08
-2.73767e-08
2.62753e-09
2.46985e-08
2.5267e-08
6.50522e-10
-2.12155e-08
-7.27098e-09
6.50058e-09
8.27274e-09
-1.8845e-08
3.00756e-08
-4.86141e-12
-1.66348e-10
-2.16078e-08
-3.07989e-08
2.96564e-08
1.1425e-09
3.00325e-08
-1.80541e-10
-2.9852e-08
2.96715e-08
-2.32387e-10
-2.18287e-08
2.19211e-08
2.64292e-08
-1.61321e-09
2.56554e-08
-3.88454e-10
8.54933e-09
-8.71569e-09
3.11802e-09
-1.69133e-08
1.37953e-08
8.76375e-09
-2.46649e-08
2.77829e-08
-2.81714e-08
-3.39628e-08
6.63921e-10
-3.32628e-08
3.41472e-08
-3.17253e-08
2.76524e-10
2.99704e-08
2.98385e-08
1.9396e-10
7.18689e-11
-3.33347e-08
-2.24812e-08
2.23006e-08
-1.90186e-08
-9.50737e-09
8.18107e-09
-8.18107e-09
2.59209e-08
-2.65504e-10
1.06548e-10
2.29051e-08
-2.30117e-08
-8.71568e-09
1.37953e-08
2.80069e-08
-2.51751e-08
1.04239e-08
-1.04239e-08
-1.20873e-08
1.21938e-08
1.99352e-10
-2.36189e-08
2.29187e-08
2.60407e-08
1.20873e-08
1.70804e-09
-4.4167e-11
2.20124e-08
2.62348e-08
-3.13825e-10
2.07491e-09
-3.06997e-08
-6.45575e-10
9.73376e-09
6.90113e-10
2.75305e-08
-1.29574e-09
2.84849e-08
-2.87504e-08
3.11237e-08
-3.03198e-08
-8.039e-10
3.00357e-08
-1.97135e-10
4.80725e-11
-1.21938e-08
1.76996e-09
1.46477e-08
2.97226e-09
2.80449e-08
-5.14412e-10
-3.38909e-08
2.02812e-10
-2.18106e-08
-3.38409e-08
-2.16189e-10
3.40571e-08
2.75352e-08
5.09755e-10
-3.332e-11
-2.21888e-08
9.73377e-09
-7.091e-10
1.04429e-08
6.69638e-11
-3.39079e-08
2.10346e-08
-2.17437e-08
-3.539e-10
-2.28629e-08
2.32168e-08
-8.93371e-09
8.93371e-09
-9.01902e-09
8.53152e-11
-2.96276e-08
-8.90038e-09
8.85621e-09
2.49282e-08
8.90038e-09
-8.126e-11
-2.23999e-08
2.7897e-08
-3.61825e-10
-5.27797e-10
2.84248e-08
3.14292e-08
-3.05416e-10
-1.03519e-09
2.28614e-08
-2.18262e-08
-3.11422e-08
3.06144e-08
-5.48445e-11
2.27839e-08
-2.2729e-08
-8.3865e-09
8.3865e-09
-9.42168e-09
-7.82761e-09
7.47371e-09
7.8276e-09
5.58898e-10
9.19915e-09
-9.25399e-09
9.19915e-09
-9.10028e-09
9.01903e-09
-2.54765e-08
1.0093e-09
2.44672e-08
9.10028e-09
9.88652e-11
1.16361e-08
-1.16361e-08
-7.78043e-10
-5.58315e-10
-2.97223e-08
-2.39266e-08
2.33683e-08
2.40062e-08
-2.49257e-08
2.4047e-08
-4.5851e-10
-2.3685e-08
-2.41572e-10
1.03995e-08
-1.0858e-08
-2.43646e-08
6.79549e-10
1.0858e-08
1.03995e-08
1.0082e-08
-1.0082e-08
9.84045e-09
-9.25398e-09
1.38323e-08
8.65807e-09
-8.65807e-09
1.04429e-08
7.47371e-09
7.91389e-09
-7.91389e-09
9.84045e-09
-9.42168e-09
3.17515e-10
8.25333e-10
2.8486e-08
2.95122e-08
-1.02622e-09
3.03375e-08
1.69285e-09
3.14722e-08
-3.31651e-08
2.98572e-08
4.80269e-10
2.99144e-08
3.16073e-08
2.99411e-08
1.53115e-09
7.50948e-11
2.9866e-08
3.61945e-10
2.81808e-08
-2.66497e-08
3.18051e-08
-2.96963e-08
-1.95958e-09
3.16559e-08
-2.98473e-08
1.50966e-10
3.18802e-08
2.79507e-08
-2.99103e-08
3.22421e-08
-1.97995e-10
3.18539e-08
1.86702e-11
3.23931e-08
3.26462e-08
2.69928e-08
3.24482e-08
-1.83922e-09
2.58455e-08
3.26495e-08
-7.95545e-10
8.60365e-09
-1.35991e-09
3.40094e-08
2.61972e-08
1.93874e-10
-3.23489e-08
3.2155e-08
2.62336e-10
3.26765e-08
-2.28296e-10
3.13166e-08
-2.8635e-08
2.81206e-08
8.60365e-09
3.15104e-08
1.84405e-10
3.21308e-08
-3.23152e-08
3.15652e-08
-5.47383e-11
7.85481e-11
-3.27138e-08
3.26352e-08
3.17129e-08
-1.47676e-10
3.24769e-08
-3.32568e-08
7.79864e-10
3.18973e-08
3.25439e-08
3.19758e-08
2.63937e-08
-2.70497e-08
2.4935e-08
1.51894e-09
-3.47757e-08
2.66982e-08
3.22853e-08
-3.09485e-10
-3.37435e-08
-1.64387e-10
-2.62699e-08
-3.10614e-08
3.22246e-08
6.07203e-11
-2.50672e-10
-9.58978e-09
9.58978e-09
1.83699e-10
3.29878e-08
-3.31522e-08
-1.90837e-09
2.79491e-08
-1.1825e-09
-2.22402e-09
2.7159e-08
3.33582e-08
-3.70348e-10
2.41343e-10
9.34843e-09
-3.31795e-08
-1.55213e-10
-2.9003e-08
3.3142e-08
3.33585e-08
-2.16456e-10
1.79001e-10
-2.76353e-08
-2.92588e-08
-3.23537e-08
2.316e-08
-9.34843e-09
9.44491e-11
-2.26503e-08
2.25515e-08
-2.97828e-08
3.32532e-08
9.08718e-11
2.85291e-08
-2.862e-08
1.96308e-09
-1.61642e-08
-6.32816e-09
3.26621e-08
-3.25144e-08
3.5856e-09
-2.17625e-08
2.2386e-08
2.9714e-08
-4.58676e-10
-3.34322e-08
3.28292e-08
-3.28899e-08
-1.58635e-10
-2.96242e-08
-2.92972e-08
6.55103e-09
3.09705e-08
2.29128e-08
3.69135e-09
-2.30039e-08
-1.26498e-08
1.26498e-08
-2.98406e-08
-2.3091e-08
-3.92814e-09
-1.66385e-08
-2.17674e-08
1.57137e-08
1.05363e-08
3.03936e-08
-2.96207e-08
-2.9783e-09
1.09698e-08
1.52802e-08
4.10927e-09
1.4017e-08
1.2233e-08
-1.64755e-08
-1.59231e-08
2.96569e-08
-1.87088e-09
-2.33042e-08
-2.50582e-10
-1.50009e-09
-2.29094e-08
-6.69702e-09
1.77899e-08
-6.69702e-09
1.77899e-08
2.02964e-08
-2.87456e-08
-1.4428e-08
2.32779e-08
3.58188e-08
1.05512e-09
-1.57572e-09
2.79403e-08
-1.59274e-08
-6.21558e-09
3.45123e-09
-2.24699e-08
4.74453e-09
1.76123e-08
-1.36586e-08
2.58916e-08
-5.18175e-09
2.17018e-08
1.8375e-08
-3.72735e-09
5.18175e-09
2.17897e-08
1.69443e-08
-6.05165e-09
-1.93203e-08
5.1438e-09
-1.63623e-08
1.58034e-08
2.48598e-08
2.4502e-08
-2.45504e-08
-2.44473e-08
1.847e-08
-6.44943e-09
5.05232e-09
2.18527e-08
-2.18713e-08
-5.07246e-09
5.07246e-09
-2.15008e-08
-2.09446e-08
2.66863e-08
2.55066e-08
-1.76344e-08
-2.13964e-08
-1.34041e-08
1.1822e-08
1.14649e-08
1.25914e-08
1.91803e-08
1.8434e-08
6.70761e-09
-6.70761e-09
-1.59274e-08
-3.22986e-09
1.03226e-08
-2.95135e-09
3.51714e-08
-2.21905e-09
-2.10852e-08
1.93933e-08
2.96491e-09
-2.23583e-08
1.9649e-08
-1.89985e-08
4.74453e-09
-2.80559e-08
-1.45342e-08
-1.22569e-08
-6.05165e-09
-5.1438e-09
2.05449e-08
-6.44943e-09
-5.05232e-09
-2.10205e-08
-2.56601e-08
2.42109e-08
2.04348e-08
4.99003e-09
1.66985e-08
-2.29141e-08
1.13574e-08
)
;

boundaryField
{
    back
    {
        type            empty;
        value           nonuniform List<scalar> 0();
    }
    front
    {
        type            empty;
        value           nonuniform List<scalar> 0();
    }
    left
    {
        type            calculated;
        value           uniform 0;
    }
    top
    {
        type            calculated;
        value           nonuniform List<scalar> 8(-2.625e-08 -2.625e-08 -2.625e-08 -2.625e-08 -2.625e-08 -2.625e-08 -2.625e-08 -2.625e-08);
    }
    right
    {
        type            calculated;
        value           uniform 0;
    }
    bottom
    {
        type            calculated;
        value           nonuniform List<scalar> 8(2.42869e-08 3.84058e-08 3.23986e-08 9.9346e-09 3.37005e-08 9.93747e-09 2.37217e-08 3.76144e-08);
    }
}


// ************************************************************************* //
