/*--------------------------------*- C++ -*----------------------------------*\
  =========                 |
  \\      /  F ield         | OpenFOAM: The Open Source CFD Toolbox
   \\    /   O peration     | Website:  https://openfoam.org
    \\  /    A nd           | Version:  9
     \\/     M anipulation  |
\*---------------------------------------------------------------------------*/
FoamFile
{
    format      ascii;
    class       volVectorField;
    location    "0.31";
    object      U;
}
// * * * * * * * * * * * * * * * * * * * * * * * * * * * * * * * * * * * * * //

dimensions      [0 1 -1 0 0 0 0];

internalField   nonuniform List<vector> 
464
(
(0.00222603 -0.934322 -1.60977e-17)
(-0.00884276 -0.662209 0)
(0.0154477 -0.698827 0)
(-0.00214638 -0.716037 -3.55195e-16)
(-0.00457062 -0.538298 0)
(0.0764354 -0.75477 8.09921e-17)
(0.00292506 -0.967723 2.71883e-16)
(-0.0105839 -0.717894 0)
(-0.00291695 -1.00979 -1.14836e-19)
(0.000828588 -0.98897 2.55157e-16)
(0.0143824 -0.828709 1.74759e-17)
(0.00779658 -0.633737 -1.07e-17)
(0.0124139 -0.999173 5.15038e-16)
(-0.0125067 -0.513954 0)
(0.0050464 -0.608438 2.34827e-16)
(0.00346575 -0.498802 -3.96251e-16)
(0.00379242 -0.624509 0)
(0.00560219 -0.521253 1.46934e-16)
(-0.0277599 -0.476977 3.18945e-16)
(0.0202384 -0.859777 -2.80745e-16)
(0.0242444 -0.834597 4.54888e-16)
(0.0414962 -0.829911 -7.80715e-17)
(0.0356263 -0.840848 3.85763e-17)
(0.0174675 -0.72502 0)
(0.00359767 -0.708195 3.19099e-16)
(0.029647 -0.738703 -1.65722e-16)
(-0.00673432 -0.523244 -1.85554e-16)
(-0.0613151 -0.804527 2.92397e-16)
(0.0123815 -0.640418 0)
(0.0519579 -0.809309 0)
(0.0472847 -0.795291 -1.98606e-17)
(0.0137003 -0.862493 -2.28488e-18)
(0.00142902 -0.80646 4.07728e-17)
(0.0052914 -0.803221 2.94412e-16)
(0.0130692 -0.866028 -2.89239e-16)
(-0.000167485 -0.557536 -4.30316e-16)
(0.0166365 -0.673016 3.4647e-16)
(-0.0493073 -0.663234 4.38567e-17)
(-0.0564339 -0.759361 -2.54002e-18)
(0.00319278 -0.522027 0)
(0.0219281 -0.86461 -4.53906e-16)
(0.0235822 -0.82531 0)
(0.031452 -0.8517 1.11611e-16)
(0.00637019 -0.509929 -3.89632e-16)
(0.00659118 -0.630933 3.54528e-16)
(0.00824905 -0.604394 2.43474e-17)
(-0.0346554 -0.830861 -2.83997e-16)
(-0.0285547 -0.704865 2.04802e-19)
(-0.0206172 -0.345772 0)
(-0.0643084 -0.776809 -3.56991e-17)
(0.0106414 -0.830418 3.28718e-16)
(-0.0468198 -0.743425 1.86309e-17)
(0.00836563 -0.56812 2.55394e-16)
(-0.0136984 -0.874489 2.6936e-16)
(-0.0218231 -0.869836 8.87625e-18)
(-0.0465421 -0.801037 -2.97835e-16)
(-0.0417852 -0.817825 0)
(-0.00859783 -0.908081 0)
(-0.0131184 -0.882584 2.8549e-16)
(0.00966487 -0.638794 0)
(-0.041753 -0.580668 -3.96418e-16)
(0.00303446 -0.835042 -5.75211e-16)
(-0.00540354 -0.929827 -5.44009e-16)
(-0.00867124 -0.897667 2.78862e-16)
(-0.00700384 -0.964818 9.76681e-20)
(-0.0104645 -0.866753 2.84723e-16)
(-0.00923234 -0.842772 2.85097e-16)
(-0.0322631 -0.521376 3.99318e-16)
(0.00155055 -0.778097 -1.45029e-16)
(-0.0206789 -0.845179 -2.85532e-16)
(-0.0123272 -0.843975 -2.84567e-16)
(-0.00933047 -0.892753 2.89488e-16)
(0.00636641 -0.638389 0)
(-0.0376504 -0.791875 -3.15361e-16)
(-0.00513098 -0.691844 3.45865e-16)
(-0.0561117 -0.809037 -2.96906e-16)
(-0.00979835 -0.885584 2.85418e-16)
(0.0139991 -0.961311 -2.59845e-16)
(-0.00764481 -0.910054 2.74955e-16)
(0.00951986 -0.528741 1.88512e-16)
(-0.0145324 -0.657529 0)
(0.080607 -0.78909 -8.19174e-17)
(-0.00101849 -0.319343 5.93057e-16)
(0.0483609 -0.636006 -3.95205e-16)
(0.0087924 -0.572209 0)
(-0.00734719 -0.916289 -1.2057e-19)
(-0.00780822 -0.890973 2.83549e-16)
(0.0733646 -0.768131 0)
(-0.0124433 -0.741048 0)
(-0.00190187 -0.840468 2.83597e-16)
(-0.00762039 -0.680152 -3.48282e-16)
(-0.000202616 -0.820242 0)
(-0.00798825 -0.888059 -2.88591e-16)
(-0.0010411 -0.58721 -3.33132e-16)
(-0.00639788 -0.841486 2.85296e-16)
(-0.00644105 -0.923896 2.70813e-16)
(-0.0100816 -0.89855 -2.75148e-16)
(0.0448916 -0.735964 7.65439e-17)
(-0.0037574 -0.330057 5.71835e-16)
(-0.00210605 -1.0015 -2.56183e-16)
(0.00301797 -0.739451 0)
(-0.0301176 -0.780399 -1.91031e-17)
(0.0108911 -0.75394 0)
(0.0124032 -0.859343 2.26835e-18)
(0.013288 -0.800477 0)
(-0.00911402 -0.174566 4.9347e-16)
(0.0228294 -0.447349 0)
(-0.00862609 -0.886942 -2.80855e-16)
(0.00858527 -0.575119 3.48426e-16)
(-0.0253879 -0.860821 0)
(-0.00491416 -0.841211 0)
(-0.0364803 -0.830985 2.91159e-16)
(-0.00765953 -0.842448 0)
(0.00554233 -0.581613 -3.46727e-16)
(-0.0208106 -0.760414 -9.95702e-18)
(0.00238444 -0.766785 5.0873e-18)
(-0.00396659 -0.325048 -5.82627e-16)
(0.0442597 -0.557837 -4.44447e-16)
(-0.00426083 -0.17869 -4.99005e-16)
(0.057017 -0.750153 1.90303e-17)
(-0.0300551 -0.839442 -2.66566e-16)
(0.0141232 -0.996157 -8.17116e-18)
(-0.00870145 -0.965848 -2.60353e-16)
(0.000111024 -0.935281 -2.71012e-16)
(-0.0111831 -0.883807 0)
(-0.00681056 -0.889806 -2.84495e-16)
(0.00213568 -0.981851 2.64708e-16)
(-0.00521297 -0.697747 0)
(0.0150873 -0.8563 0)
(-0.00777424 -0.174961 -5.00031e-16)
(0.0258993 -0.384577 3.72979e-16)
(0.00633548 -0.18353 -4.9326e-16)
(-0.0272396 -0.392688 3.62714e-16)
(0.00938208 -0.78176 0)
(0.035087 -0.702043 0)
(-0.00593931 -0.177439 4.99222e-16)
(0.0212512 -0.320029 8.23308e-16)
(-0.0473306 -0.771664 3.06503e-16)
(0.00172744 -0.984866 -2.58385e-16)
(0.00709409 -0.229426 -4.61579e-16)
(0.0163999 -0.455268 0)
(-0.00739031 -0.889002 0)
(-0.00904756 -0.723182 -1.60412e-19)
(-0.0133687 -0.768966 -3.21636e-16)
(0.0284202 -0.491118 -4.57753e-16)
(0.00360676 -0.585012 3.4799e-16)
(0.00101285 -0.793473 0)
(0.0677601 -0.803294 0)
(-0.011956 -0.887367 1.68279e-20)
(0.00778887 -0.392329 1.04197e-15)
(0.00832548 -0.807647 -9.58621e-18)
(0.0261055 -0.79141 -2.95625e-16)
(0.00339553 -0.956782 2.97917e-16)
(-0.00339833 -0.841117 2.84604e-16)
(-0.00353762 -0.328106 5.65129e-19)
(0.0162213 -0.422291 5.25388e-16)
(0.0135044 -0.550357 0)
(0.00114654 -0.819991 0)
(2.80899e-05 -0.996575 2.62248e-16)
(-0.00599969 -0.68445 -3.51713e-16)
(0.00111548 -0.985905 0)
(0.00697015 -0.832011 3.18222e-16)
(0.00193743 -0.588727 -6.91955e-16)
(0.00166039 -0.210728 -2.42506e-19)
(0.00154808 -0.386367 -5.28307e-16)
(0.0112413 -0.272776 0)
(0.00958611 -0.979691 2.62315e-16)
(0.0128038 -0.642703 -3.58382e-16)
(0.00626499 -0.572767 -3.33272e-16)
(-0.00227148 -0.182211 -9.83949e-16)
(-0.00268903 -0.336168 -2.39365e-19)
(0.00259712 -0.8389 2.86185e-16)
(-0.00263983 -0.331949 -2.34788e-19)
(0.0366357 -0.781443 7.98207e-17)
(-0.00225615 -0.334026 2.33802e-19)
(-0.00187121 -0.5963 3.45885e-16)
(0.000375655 -0.84231 -3.05902e-16)
(0.00541089 -0.853858 1.17887e-18)
(0.00215663 -0.933185 2.74853e-16)
(0.00590451 -0.597094 -4.10255e-17)
(0.0194674 -0.86183 -2.79353e-16)
(-0.00480096 -0.60661 -3.43341e-16)
(-0.00141108 -0.179333 0)
(-0.000993171 -0.335874 6.10942e-16)
(0.00621168 -0.305388 9.3494e-18)
(0.0050192 -0.320361 1.78158e-17)
(-0.00109096 -0.346075 0)
(-0.00155217 -0.188215 4.83635e-16)
(-0.00293014 -0.181274 9.88127e-16)
(-0.00210069 -0.339277 -1.0958e-18)
(-0.0233209 -0.764872 3.14775e-19)
(-0.0016486 -0.342492 -5.58077e-16)
(-0.007584 -0.243602 8.84702e-16)
(-0.0223186 -0.683142 3.28139e-16)
(-0.0144679 -0.845197 -2.78872e-19)
(-0.0109251 -0.732401 3.26927e-19)
(0.0160619 -0.744453 3.26379e-16)
(-0.0249989 -0.842741 -2.76591e-19)
(0.00168258 -0.169178 5.07201e-16)
(-0.0179284 -0.753347 -3.26494e-16)
(-0.0164554 -0.666866 0)
(-0.0102104 -0.640601 0)
(-0.00673075 -0.39268 0)
(-0.0139554 -0.741968 -3.23712e-19)
(-0.00140148 -0.185842 0)
(-0.010657 -0.411231 -8.13465e-18)
(-0.00307442 -0.214947 0)
(-0.00210612 -0.207463 4.68e-16)
(-0.0028343 -0.370371 -5.36256e-16)
(-0.00366301 -0.180371 -4.96519e-16)
(0.00737374 -0.262462 -4.32007e-16)
(-0.00157944 -0.189983 0)
(-0.0158127 -0.297428 -4.11365e-16)
(-0.00334717 -0.200766 4.81464e-16)
(0.00202634 -0.220278 0)
(-0.00157856 -0.183792 4.88706e-16)
(0.00526737 -0.16825 -5.11358e-16)
(-0.00497852 -0.2262 -4.55181e-16)
(0.00255452 -0.176213 -2.54434e-19)
(-0.00176468 -0.20213 4.72048e-16)
(0.000281647 -0.195191 -4.77789e-16)
(-0.00441583 -0.379791 -5.29369e-16)
(-0.0126469 -0.652699 3.31493e-16)
(-0.00970489 -0.883526 -5.55638e-16)
(-0.000160779 -0.862937 -3.00472e-16)
(0.00485487 -0.872555 2.82576e-16)
(0.000103471 -0.881251 0)
(0.0135092 -0.902021 -1.32385e-16)
(0.00471522 -0.889013 8.82551e-18)
(0.00052785 -0.896324 2.9036e-16)
(0.00388166 -0.903341 -2.78773e-16)
(0.0106383 -0.892501 3.42717e-17)
(0.00726912 -0.909304 0)
(-0.00668384 -0.920605 2.67879e-16)
(0.0119185 -0.835912 -3.25924e-16)
(0.000754133 -0.910564 0)
(0.0105801 -0.901101 1.54201e-19)
(0.00934375 -0.916986 1.55234e-19)
(0.00289247 -0.91509 -2.75072e-16)
(0.0152752 -0.837483 -2.83718e-16)
(0.000424288 -0.921641 2.77474e-16)
(0.00744216 -0.923211 2.67033e-16)
(0.0112603 -0.897132 -2.85644e-16)
(0.00372087 -0.925473 0)
(0.00155423 -0.932937 0)
(0.00455554 -0.78307 1.05099e-19)
(0.00438711 -0.936119 8.45293e-18)
(0.0126718 -0.63888 0)
(0.0120064 -0.903501 0)
(0.0122635 -0.362291 0)
(0.00994174 -0.926547 2.58927e-16)
(0.0090444 -0.827548 6.01283e-16)
(-0.00394435 -0.946304 2.69778e-16)
(-0.0061014 -0.890384 -2.84133e-16)
(0.00156158 -0.94288 0)
(0.00393355 -0.945479 0)
(-0.0126056 -0.823798 0)
(0.0140552 -0.201733 4.89619e-16)
(0.000575905 -0.951949 2.80658e-16)
(0.00928578 -0.94009 0)
(0.00459219 -0.954714 -2.74885e-16)
(-0.00188916 -0.959191 -5.38828e-16)
(0.00178616 -0.960051 -2.76788e-16)
(0.000555712 -0.920698 2.60752e-16)
(0.00577956 -0.962271 2.75578e-16)
(0.00157975 -0.948908 -5.42033e-16)
(0.0015559 -0.967655 5.371e-19)
(-0.0388032 -0.7761 9.51044e-18)
(0.00424755 -0.771101 -1.89368e-16)
(0.00637207 -0.948929 -2.53628e-16)
(0.0257692 -0.692067 2.90165e-16)
(0.00712735 -0.970094 0)
(0.00149061 -0.981067 -2.59722e-16)
(0.00651233 -0.832403 -1.49114e-16)
(0.00288356 -0.96168 8.4239e-18)
(0.00201798 -0.974971 0)
(0.00744307 -0.974709 0)
(-0.00844564 -0.629918 3.37052e-16)
(-0.00154652 -0.197238 0)
(-0.00531769 -0.688665 -1.83691e-19)
(5.56681e-05 -0.969944 -2.08283e-18)
(-0.0212322 -0.789533 2.26199e-19)
(-0.00219577 -0.362361 0)
(-0.0369681 -0.719485 3.17359e-16)
(0.00976703 -0.834732 -1.89499e-16)
(-0.00597501 -0.956328 2.60605e-16)
(-0.0017869 -0.354978 5.52258e-16)
(-0.00752734 -0.962884 0)
(-0.0381964 -0.806762 0)
(0.000501466 -0.973712 -2.64984e-16)
(-0.00697136 -0.959544 -1.03271e-18)
(0.00141454 -0.977156 2.06721e-18)
(-0.0199288 -0.816179 2.99516e-16)
(-0.0161012 -0.858453 -5.73054e-16)
(-0.00587482 -0.930813 -2.75873e-16)
(-0.00715301 -0.61922 -6.85664e-16)
(-0.00132485 -0.349674 0)
(-0.00569247 -0.701035 1.72752e-19)
(-0.00620121 -0.705082 3.43632e-16)
(-0.00687589 -0.89183 -2.84541e-16)
(0.00369407 -0.923841 3.02229e-16)
(0.0105923 -0.985234 2.44416e-16)
(0.0148111 -0.833519 -5.78543e-16)
(-0.00736141 -0.487465 3.98958e-16)
(0.0152798 -0.662632 -1.82696e-16)
(-0.0055476 -0.936718 2.74779e-16)
(-0.00517399 -0.942362 5.39346e-16)
(0.0118908 -0.55233 -1.82047e-16)
(0.00731444 -0.578592 6.96912e-16)
(0.000201647 -0.592378 3.45124e-16)
(-0.01829 -0.875771 2.85648e-16)
(-0.0133262 -0.797905 2.30302e-19)
(-0.00411552 -0.938341 0)
(0.0128018 -0.989731 -4.01639e-18)
(-0.00520912 -0.947234 5.37259e-16)
(-0.00550619 -0.952369 0)
(-0.00153189 -0.192372 -4.80419e-16)
(0.00135802 -0.838997 0)
(-0.0151995 -0.711201 0)
(0.00357693 -0.958228 -2.72509e-16)
(0.0509097 -0.812676 -2.3982e-16)
(-0.00651611 -0.709874 1.33529e-18)
(-0.00574573 -0.686564 -3.48095e-16)
(-0.00324674 -0.601399 -3.44044e-16)
(0.000377223 -0.991048 -5.33145e-16)
(-0.0160261 -0.43768 2.84785e-19)
(-0.0230063 -0.472787 4.58542e-16)
(0.000707427 -0.931032 2.81905e-16)
(-0.046349 -0.798029 0)
(-0.00633871 -0.891092 2.85871e-16)
(0.0250547 -0.851444 1.52389e-16)
(-0.00490083 -1.01721 2.59766e-16)
(0.00312258 -0.700549 1.4768e-16)
(-0.00276762 -0.952674 -5.38972e-16)
(-0.0170172 -0.845717 2.78467e-19)
(-0.0119065 -0.846923 2.90577e-16)
(0.0463545 -0.826322 2.36792e-16)
(-0.000440424 -0.700464 2.93677e-16)
(-0.00522774 -0.69448 -1.67577e-19)
(0.0246645 -0.817495 -3.1304e-16)
(-0.00470158 -0.701042 -1.49214e-16)
(0.0135913 -0.870572 0)
(-0.00572381 -0.891011 4.43687e-18)
(-0.000297329 -0.839264 -2.84393e-16)
(-0.000892584 -0.964999 -2.67946e-16)
(-0.0364355 -0.742227 -1.6385e-16)
(-0.0105191 -0.267442 -8.54331e-16)
(-0.0106463 -0.843124 -2.85157e-16)
(-0.000152728 -0.702252 -3.13273e-16)
(-0.0153097 -0.879771 0)
(-0.0183096 -0.839114 9.13136e-18)
(-0.00652274 -0.704626 1.45684e-16)
(-0.00586516 -0.612241 0)
(-0.00750625 -0.715122 3.40856e-16)
(-0.0302307 -0.849134 2.83016e-16)
(-0.00283283 -0.278388 -6.42924e-16)
(0.0250042 -0.731368 0)
(-0.00477742 -0.146653 5.17991e-16)
(-0.00446157 -0.459051 1.77778e-16)
(-0.00640553 -0.819077 0)
(0.0197698 -0.703413 1.77851e-16)
(0.0133863 -1.0064 -2.54443e-16)
(0.088972 -0.773774 -8.2852e-17)
(0.00291788 -0.551185 0)
(-0.00840728 -0.761612 9.28338e-18)
(-0.0534427 -0.711587 -3.63216e-16)
(-0.019183 -0.732738 0)
(0.0186419 -0.8057 0)
(-0.000918294 -0.274903 0)
(0.0593591 -0.793511 -1.57025e-16)
(-0.0167275 -0.702439 0)
(0.008509 -0.294622 8.94972e-16)
(-0.000211025 -0.796876 8.94562e-20)
(0.00621591 -0.637222 0)
(-0.00366467 -0.277777 -2.59377e-19)
(0.00871059 -0.727074 0)
(-0.00515869 -0.791773 2.95906e-16)
(0.0280774 -0.748462 -4.717e-16)
(0.00389238 -0.300099 1.14961e-15)
(0.0459952 -0.767146 -9.02876e-17)
(0.0109339 -0.271431 0)
(0.00819017 -0.665279 3.4257e-16)
(0.00827567 -0.664356 0)
(0.00455238 -0.929957 1.37158e-16)
(0.00632725 -0.920284 -8.27486e-20)
(0.00839669 -0.92595 0)
(0.00976061 -0.921197 1.36986e-16)
(0.0436983 -0.745268 1.64465e-16)
(0.00118158 -0.331568 0)
(0.00101131 -0.306725 0)
(0.00964082 -0.802333 1.52917e-16)
(0.0159602 -0.795388 0)
(-0.0127896 -0.315611 -2.8743e-16)
(0.014785 -0.300448 -1.0057e-15)
(0.0161764 -0.887544 1.35554e-16)
(0.023822 -0.851978 2.83366e-16)
(0.0181915 -0.869342 0)
(0.0301462 -0.811048 6.57134e-16)
(0.0198986 -0.719361 0)
(0.00765196 -0.785382 2.97463e-16)
(-0.0278821 -0.901738 0)
(0.00506178 -0.70104 0)
(-0.00086596 -0.78292 0)
(-0.0162719 -0.701704 1.46468e-16)
(0.00411029 -1.02734 -1.29473e-16)
(0.0127937 -0.950755 0)
(0.00116347 -0.151302 0)
(0.00134022 -0.440657 -3.76856e-16)
(-0.00498102 -0.276278 0)
(-0.0215624 -0.730907 3.65806e-16)
(-0.0128388 -0.966213 -6.50683e-17)
(-0.043193 -0.737719 -1.69347e-16)
(0.01796 -0.709931 0)
(0.0248533 -0.759695 -1.91484e-16)
(0.016431 -0.71472 0)
(-0.0159745 -0.868452 0)
(-0.00402637 -0.12872 0)
(-0.0705765 -0.788613 -9.58989e-18)
(0.0255596 -0.708008 -1.58671e-16)
(-0.0101298 -0.988156 6.49357e-17)
(-0.0245575 -0.708994 -1.92151e-16)
(0.00656272 -0.703553 -1.87376e-16)
(0.00444526 -0.856046 1.79358e-16)
(-0.00608207 -0.130599 -5.62927e-16)
(0.000302088 -0.633646 -1.94606e-16)
(0.00428648 -0.858744 1.82624e-16)
(-0.00715482 -0.142858 -5.40641e-16)
(-0.00928246 -0.262754 3.3799e-16)
(0.00105553 -0.129252 -2.77617e-16)
(0.00813452 -0.29491 -6.34305e-16)
(0.0446815 -0.703294 -2.06427e-16)
(0.00232938 -0.954568 -1.67438e-16)
(0.00394322 -0.54775 -1.35867e-17)
(0.0570221 -0.775961 -3.70587e-16)
(0.00318425 -0.942132 -5.09114e-16)
(-0.00201973 -0.157142 0)
(0.00544193 -0.287111 -1.72466e-16)
(0.0323773 -0.783256 1.52524e-16)
(0.000179578 -0.142574 0)
(0.0457144 -0.70698 1.98902e-16)
(0.00807612 -0.854358 0)
(-0.00178901 -0.134124 2.78533e-16)
(0.00884696 -0.890413 -1.17339e-17)
(0.0135912 -0.880041 1.68369e-16)
(0.0215284 -0.817667 -4.81189e-16)
(0.0127316 -0.877165 9.87139e-18)
(0.0235547 -0.831625 1.74297e-16)
(0.0179717 -0.636122 2.09294e-16)
(0.0166158 -0.837912 -2.13524e-16)
(0.00995528 -0.715297 -1.61843e-16)
(0.00405875 -0.659557 0)
(0.0237106 -1.00149 -1.3957e-16)
(0.00456605 -0.775095 2.61032e-16)
(0.0314991 -0.756147 0)
(0.00910609 -0.79526 3.23755e-16)
(0.0153562 -0.677472 0)
(0.00358763 -0.796403 -3.27969e-16)
(-0.0916855 -0.790893 1.77977e-16)
(-0.0298782 -0.712613 -6.81857e-20)
(-0.0757297 -0.770109 -4.52967e-20)
(-0.0796444 -0.765136 -2.79237e-16)
(0.0028151 -0.271561 0)
(-0.000812212 -0.50681 1.15579e-16)
(0.051026 -0.779823 3.63996e-16)
)
;

boundaryField
{
    back
    {
        type            empty;
    }
    front
    {
        type            empty;
    }
    left
    {
        type            noSlip;
    }
    top
    {
        type            uniformFixedValue;
        uniformValue    
        {
            type            scale;
            scale           
            {
                type            squarePulse;
                start           0.3;
                duration        0.3;
            }
            xScale          
            {
                type            constant;
                value           1;
            }
            value           
            {
                type            constant;
                value           (0 -0.7 0);
            }
        }
        value           uniform (0 -0.7 0);
    }
    right
    {
        type            noSlip;
    }
    bottom
    {
        type            zeroGradient;
    }
}


// ************************************************************************* //
