/*--------------------------------*- C++ -*----------------------------------*\
  =========                 |
  \\      /  F ield         | OpenFOAM: The Open Source CFD Toolbox
   \\    /   O peration     | Website:  https://openfoam.org
    \\  /    A nd           | Version:  9
     \\/     M anipulation  |
\*---------------------------------------------------------------------------*/
FoamFile
{
    format      ascii;
    class       volVectorField;
    location    "1.68";
    object      U;
}
// * * * * * * * * * * * * * * * * * * * * * * * * * * * * * * * * * * * * * //

dimensions      [0 1 -1 0 0 0 0];

internalField   nonuniform List<vector> 
942
(
(0.0312012 -0.0646751 0)
(0.0321691 -0.0184502 2.87823e-17)
(0.0543467 0.114764 0)
(0.0112505 -0.0786745 -1.52082e-17)
(0.0560469 0.128952 9.11077e-18)
(0.118057 -0.0884635 1.59375e-17)
(0.00348545 -0.0127542 4.22859e-17)
(0.141785 -0.0841321 0)
(0.00450253 -0.0479866 -3.3313e-17)
(0.00560109 -0.0529564 3.39543e-17)
(0.0428163 0.0251479 0)
(0.0659005 0.0252664 0)
(0.0106292 -0.0800109 1.41837e-17)
(0.0492566 0.0365077 0)
(0.0735376 0.0286998 0)
(0.000819362 -0.0170241 -3.13154e-17)
(-0.015768 -0.0310784 -1.2335e-17)
(0.0278938 -0.0667291 0)
(-0.0620857 -0.0185437 -3.68296e-18)
(-0.000648385 9.1882e-05 5.66131e-18)
(0.0107673 -0.00720375 2.10307e-17)
(0.0885152 0.0269683 1.69013e-17)
(0.0212457 -0.0445787 0)
(-0.0304871 -0.0438917 -3.33466e-17)
(0.0542138 0.0312201 0)
(-0.0338031 -0.053294 2.50649e-17)
(0.0500526 0.1301 0)
(0.0228172 -0.0436221 2.12997e-17)
(-0.0484954 -0.0512419 0)
(0.0267822 -0.049538 1.34638e-17)
(-0.0332161 -0.032483 1.69069e-17)
(0.0430467 0.12371 0)
(-0.0455417 -0.050589 1.58909e-17)
(-0.044793 0.0213155 1.87152e-17)
(0.0558408 0.111633 -1.83125e-17)
(-0.0777075 -0.0161249 3.50592e-17)
(-0.094394 -0.11152 1.182e-18)
(0.00716498 -0.0418791 0)
(-0.0725134 -0.103566 -6.059e-19)
(-0.0324217 -0.0423813 2.38009e-17)
(-0.0363958 0.0505577 -3.3384e-17)
(0.071268 -0.0291799 0)
(-0.0224648 -0.025398 -1.64634e-17)
(0.00707638 -0.0256897 -1.40968e-17)
(0.0113579 -0.02907 -3.56596e-17)
(-0.0448264 -0.0479404 8.03937e-18)
(-0.0765075 -0.0129929 -1.62955e-17)
(-0.0639327 0.0110695 -1.54208e-17)
(-0.0847816 0.0612671 1.71771e-17)
(0.0608282 0.042721 2.00908e-17)
(-0.0647234 -0.0143252 0)
(0.0188469 -0.0344485 0)
(-0.0494383 0.00584581 -2.36277e-17)
(-0.00401651 -0.0493657 1.88875e-17)
(0.00572686 -0.0655373 0)
(-0.0643553 0.058223 -1.25439e-17)
(-0.0340119 0.00596676 -3.16648e-17)
(0.00742249 -0.0686329 -2.27484e-18)
(-0.0510375 0.0142342 4.05562e-17)
(0.0895449 -0.0249591 1.75856e-17)
(0.0224409 -0.0380884 -1.67301e-17)
(0.0527718 0.11953 -4.30851e-17)
(0.0173985 0.0125338 2.01796e-17)
(0.0347177 -0.0578398 -1.6415e-17)
(0.0123614 -0.0418689 1.5558e-17)
(0.00175139 -0.0156056 1.19754e-17)
(0.0455625 0.112924 3.3689e-17)
(-0.0579783 -0.00871855 -1.54405e-17)
(-0.106799 0.0609038 1.58372e-17)
(0.0133949 -0.0479344 4.37081e-18)
(0.0164478 -0.0115088 0)
(0.00733136 -0.0319149 0)
(-0.0367382 -0.00783391 -2.07105e-18)
(0.0229442 -0.055652 4.0354e-18)
(-0.012992 -0.0491987 -1.78991e-17)
(0.000999868 -0.00134309 -6.23151e-23)
(-0.000495989 -0.00435091 2.08605e-18)
(0.0479625 0.103036 1.86114e-17)
(-0.0212126 -0.0221756 -2.02321e-17)
(0.0216639 -0.017636 -4.10009e-18)
(0.0618211 -0.0671248 2.41691e-17)
(-0.0380169 -0.0442817 -8.721e-18)
(0.0306778 0.0165328 -2.20694e-18)
(-0.0164364 -0.0121241 9.03562e-18)
(-0.0331405 -0.00596626 0)
(0.0388653 0.147917 0)
(0.0378857 -0.0138412 -1.84733e-17)
(0.00589731 0.0276523 5.08221e-18)
(0.0594778 0.0461775 0)
(0.04182 0.0213239 2.52517e-17)
(0.0958067 0.0024534 -1.28275e-17)
(0.0315511 0.0556921 5.81225e-19)
(0.00750872 -0.074829 2.55991e-18)
(-0.0131815 0.0570541 0)
(-0.061871 0.0338135 -4.95205e-18)
(0.0440626 0.0144046 9.15464e-18)
(0.0174132 -0.0386437 1.5778e-17)
(-0.0106726 0.0203092 -1.47759e-17)
(0.0698485 -0.0909087 -2.17518e-17)
(0.0146118 -0.0345632 -3.12433e-17)
(0.0136973 -0.0285932 -9.39258e-18)
(0.00628723 -0.0769079 1.0599e-17)
(-0.0642863 -0.0113093 0)
(0.0143729 -0.0463106 1.20259e-17)
(-0.0164786 0.0222911 -1.90497e-17)
(0.0241773 -0.0355688 -3.06493e-17)
(-0.0433981 -0.0425017 -1.08001e-17)
(-0.0431931 -0.0535713 0)
(-0.0685394 -0.00475746 1.66739e-17)
(-0.0744287 -0.0110483 0)
(-0.126198 0.067248 0)
(-0.109612 0.0744185 -1.67179e-17)
(0.00442481 -0.00803337 3.36763e-17)
(0.00657122 -0.0366849 0)
(0.0561464 0.0334157 0)
(0.0180582 0.0320926 2.26705e-18)
(0.0656794 -0.0146953 -1.80846e-17)
(0.0156961 -0.0770156 1.92185e-17)
(0.0104757 -0.0213979 -1.50207e-22)
(0.158577 0.0189646 -2.187e-18)
(0.0185759 -0.0296162 7.30956e-18)
(-0.1241 0.0343481 -1.87007e-17)
(-0.00467873 -0.00232941 0)
(-0.0361091 -0.010855 1.66233e-17)
(-0.0508484 -0.00634535 1.34512e-17)
(-0.0191353 -0.0418149 -3.59198e-17)
(0.00774009 -0.0243892 1.89542e-17)
(-0.0334222 -0.0396085 -1.80899e-17)
(-0.0374979 -0.0478133 3.30823e-17)
(-0.0585819 0.0146291 1.72481e-17)
(-0.0489977 -0.0122177 -8.90851e-18)
(-0.0359016 -0.0217225 -2.06322e-17)
(-0.0654455 -0.0137617 0)
(-0.0773166 0.0148466 0)
(-0.0718809 -0.00148129 -1.85133e-17)
(-0.0351107 -0.0324497 -1.28877e-17)
(-0.144499 0.0686115 1.11736e-18)
(-0.0709453 -0.0119962 0)
(-0.144572 0.0719306 2.28702e-17)
(-0.123508 0.0567616 -7.84154e-18)
(-0.0963076 0.0369273 1.84732e-17)
(-0.0361037 -0.0422301 0)
(0.0112345 -0.0133555 -1.85224e-17)
(-0.0011697 -0.0323898 1.99308e-17)
(0.12305 -0.0629191 -4.61526e-18)
(-0.044798 -0.0458276 -8.41796e-18)
(0.0108081 -0.0366321 0)
(0.0102058 -0.0375758 -1.11689e-17)
(-0.10706 -0.0626829 2.79308e-17)
(0.044757 0.149853 0)
(0.138598 -0.0556778 4.98573e-18)
(0.157844 -0.0154339 5.53589e-18)
(0.051667 0.084416 0)
(0.0245633 -0.0679149 1.04314e-17)
(0.0501799 0.0940867 -1.82132e-17)
(-0.0550225 -0.0794908 0)
(-0.0352552 0.00509973 2.05537e-17)
(0.00230389 -0.016198 0)
(0.0981787 -0.0221115 0)
(0.0315291 0.00685115 7.60061e-18)
(-0.0204215 0.0110245 -2.65994e-17)
(-0.0482011 -0.0684913 0)
(0.00769667 -0.0768181 0)
(0.0619493 -0.0107639 9.36668e-18)
(0.136095 -0.0125793 0)
(0.051426 0.0505071 -2.78328e-17)
(0.0161288 -0.0345228 0)
(0.0155276 -0.0562125 0)
(-0.0423959 -0.0535538 1.64106e-17)
(-0.0628206 -0.010838 1.95394e-17)
(-0.0465885 0.000258385 -1.63216e-17)
(-0.0754894 0.0630869 -2.15273e-18)
(-0.129082 0.0423089 7.70949e-21)
(0.0308785 -0.0406466 1.05064e-17)
(0.0425393 0.163446 0)
(0.0233726 -0.0631587 -2.04138e-17)
(0.0274526 0.0104603 -1.93703e-17)
(0.0235416 -0.0626785 0)
(0.0208995 0.046188 6.71622e-19)
(0.0231093 -0.0650662 0)
(0.0221462 -0.0550621 -1.22608e-17)
(-0.0482645 -0.054306 0)
(-0.109131 -0.0858485 -2.38383e-17)
(0.0242758 -0.0655612 2.03376e-22)
(0.0249413 -0.0639123 -1.21557e-17)
(-0.0462161 -0.0490911 0)
(0.0655345 0.0111482 -9.6176e-18)
(0.0462175 0.0795688 1.9207e-17)
(0.0538584 0.160198 2.72502e-17)
(0.0242697 -0.0644813 9.19844e-18)
(0.0737093 0.136525 3.681e-17)
(0.0226668 -0.0640328 -9.21901e-18)
(0.0330933 -0.0469716 -1.16637e-17)
(-0.0214126 -0.0135894 -1.76913e-17)
(0.0392345 0.0627614 9.72661e-18)
(0.013313 -0.0784465 -8.75271e-18)
(0.0363825 0.0657597 0)
(0.0324662 -0.0504514 3.12965e-17)
(-0.0462312 0.0439844 -2.264e-17)
(-7.40516e-05 -0.001988 1.70498e-17)
(0.00261464 -0.00869864 0)
(0.0169741 -0.0778418 8.88547e-18)
(0.0224474 0.0239445 0)
(-0.0265434 -0.0388823 -2.06553e-17)
(-0.0147678 -0.00215389 1.96448e-17)
(-0.0228617 0.0657727 0)
(-0.10087 0.0255952 1.9339e-17)
(0.055776 0.113642 -4.23119e-17)
(-0.0106244 -0.0132415 -1.64656e-17)
(-0.0157038 -0.0400846 1.62722e-17)
(0.0428717 0.0818793 -9.43681e-18)
(0.0183491 -0.074469 3.85763e-22)
(0.00919046 -0.0577454 1.50851e-17)
(0.0633172 0.13761 8.96291e-18)
(0.00599323 -0.000167221 0)
(0.0293071 -0.0720161 -8.80415e-23)
(0.0559803 0.165038 -2.23748e-17)
(0.0980143 0.119559 1.88153e-17)
(0.0447454 0.0880262 1.8698e-17)
(0.0403913 0.0761492 -4.35145e-22)
(0.0321034 -0.0663118 0)
(0.0295663 -0.0721969 -1.8078e-17)
(0.0197976 -0.0651301 0)
(0.0244144 -0.0744941 0)
(0.0030677 -0.00899266 -1.88735e-17)
(0.0171233 0.0577705 1.87322e-17)
(0.0685341 0.138405 -1.32036e-17)
(0.0271858 -0.0634762 -1.85819e-17)
(0.00659107 -0.0123114 2.76442e-17)
(0.0307936 0.053542 0)
(-0.0395803 -0.0351832 -1.72328e-17)
(0.0595303 0.126339 -3.31038e-17)
(0.0179045 0.0434577 1.81529e-17)
(0.00168898 -0.000941092 -9.95228e-18)
(0.0299901 -0.0701119 -9.3442e-18)
(0.015351 -0.0714859 3.00364e-22)
(0.0926235 0.12284 -1.95205e-17)
(0.0309408 -0.0654829 1.86709e-17)
(0.0116504 0.0337961 -1.79191e-17)
(0.0540648 0.0960086 1.84868e-17)
(0.0524607 0.0863947 0)
(0.0167412 -0.0581286 -4.54623e-18)
(0.0127279 -0.0737728 9.19762e-18)
(0.0212016 -0.0558328 -1.03952e-17)
(0.0203756 -0.0600213 -1.83946e-17)
(0.011032 0.0216738 -1.86444e-17)
(-0.00641226 -0.084562 9.24454e-18)
(0.0266809 -0.0731952 -1.00348e-17)
(0.0141715 -0.0737573 -1.85886e-17)
(0.0143926 0.0362748 4.58554e-18)
(0.0712146 0.141219 -4.65004e-18)
(0.0356764 0.0574989 -1.71113e-17)
(0.0777591 0.137033 0)
(-0.000857883 0.0181258 1.38499e-17)
(0.0197795 -0.0614188 1.82789e-17)
(0.0213275 -0.0733684 2.03197e-17)
(0.0234685 -0.0668301 0)
(0.0148256 -0.0701659 0)
(0.106799 0.114367 -9.19722e-18)
(0.0190983 -0.0551492 1.03552e-17)
(0.0338489 -0.065598 -9.14482e-18)
(0.111397 0.111666 9.04323e-18)
(0.0675645 0.130213 -2.27108e-17)
(0.0139538 -0.0677699 -4.82913e-18)
(-0.00604518 -0.0820457 9.61508e-18)
(0.00765557 -0.0485705 0)
(0.0191898 -0.0600763 0)
(0.00105195 -0.098491 0)
(-0.0242547 -0.0128047 1.754e-17)
(-0.0232826 -0.108225 9.34806e-18)
(-0.0579012 -0.12353 1.76493e-17)
(0.0633778 0.152819 -1.69447e-17)
(0.016866 0.0486642 2.00397e-17)
(0.0643844 0.14528 -8.93126e-18)
(0.0564019 0.112436 1.8795e-17)
(0.10122 0.107567 -1.87339e-17)
(-0.0225784 -0.0277506 0)
(0.0625763 -0.14818 0)
(0.0685632 0.126399 -9.26309e-18)
(0.00639878 -0.0246554 -1.92518e-17)
(0.0172783 -0.0631303 0)
(-0.118269 -0.0116766 -1.57178e-18)
(-0.0106007 -0.0397504 1.95607e-17)
(0.0380098 -0.150087 0)
(0.0939802 0.0479188 3.64557e-17)
(0.134815 -0.0281792 -1.80578e-17)
(0.0093651 -0.126142 2.73245e-17)
(-0.00268928 -0.139989 1.81784e-17)
(0.0135236 -0.0733492 4.73085e-18)
(0.00624423 -0.0904794 4.69306e-18)
(0.0899281 0.046374 -1.84875e-17)
(0.0912491 0.0452588 2.16999e-17)
(0.0938268 0.0939196 -8.38664e-18)
(-0.0524166 -0.107961 2.04627e-17)
(0.0711209 -0.128197 5.17149e-18)
(-0.00161451 -0.010384 -1.6801e-17)
(0.151346 -0.0339646 0)
(0.156908 -0.0341451 9.34373e-18)
(0.16764 -0.0326643 8.70409e-18)
(0.143617 -0.0211111 0)
(0.119053 0.0226699 0)
(0.0277652 -0.132301 -9.34686e-18)
(0.18209 0.00925966 -4.21051e-18)
(0.201176 0.0521287 -2.91862e-17)
(0.100911 0.0271911 -2.92289e-17)
(0.00130547 -0.0885429 9.17191e-18)
(0.173207 0.0339059 -2.90362e-17)
(-0.00844477 0.00818521 0)
(-0.000823258 0.000221082 -8.48913e-18)
(0.0178269 0.0268924 1.77329e-17)
(-0.00346866 -0.00155638 1.43852e-17)
(-0.00334828 -0.00449512 -2.96509e-23)
(0.0278295 -0.0108247 -2.54199e-18)
(-0.0267987 -0.00932513 -1.77128e-17)
(0.0295873 -0.0921676 3.96569e-21)
(0.0107053 0.00894055 2.85611e-17)
(0.0181958 -0.0308796 -1.93801e-17)
(-0.0440226 0.00713668 2.5815e-22)
(-0.00472264 -0.00228995 -5.03138e-18)
(0.021974 -0.00357608 0)
(-0.00652366 -0.00614658 -5.20371e-18)
(0.0141062 0.0159724 0)
(0.0035654 -0.0119829 2.03678e-17)
(-0.0422011 -0.00656341 -3.63287e-17)
(0.0802945 0.0313649 -2.28702e-17)
(0.114113 0.0998805 -1.86185e-17)
(0.000826908 -0.00120776 0)
(-0.0311471 -0.128334 -9.42515e-18)
(0.102788 -0.0502895 0)
(0.0509245 -0.0418889 0)
(0.0677662 0.031822 -3.66205e-17)
(-0.0723625 -0.144699 -1.60738e-17)
(0.133462 -0.123504 9.12304e-18)
(0.190325 0.0271922 -1.65194e-17)
(0.142934 -0.120195 0)
(0.0755178 0.036581 1.83187e-17)
(0.200902 0.0583273 1.03928e-17)
(-0.0290897 -0.00897808 -5.42474e-19)
(0.0188513 0.0104328 0)
(-0.10924 0.0395474 -1.80608e-17)
(0.0563426 0.0229212 2.6974e-17)
(0.102111 0.0252934 -1.83462e-17)
(0.155466 0.0115585 -4.75739e-18)
(0.0643331 0.0286204 -4.5789e-17)
(0.155987 -0.023211 -1.85385e-17)
(0.0364076 0.0102412 0)
(0.148662 0.00019348 1.88803e-17)
(0.0778189 -0.0834016 1.82861e-17)
(-0.0152839 -0.124651 1.81761e-17)
(0.161256 -0.0383571 -9.11075e-18)
(0.0499457 0.0230373 1.83507e-17)
(0.162991 -0.0386353 1.01567e-21)
(0.0111364 -0.123215 -4.64019e-17)
(0.163392 -0.0236746 -9.59274e-18)
(-0.00922553 0.00312329 -1.64123e-17)
(0.11371 -0.131774 0)
(0.140602 0.0229751 1.85919e-17)
(-0.0426931 -0.150484 0)
(0.135534 0.0406618 9.11552e-18)
(0.126939 0.028907 1.83411e-17)
(0.162239 -0.000160123 2.33905e-17)
(0.18882 -0.0193711 0)
(0.0511912 0.0285147 -2.59955e-18)
(-0.0571214 -0.142498 1.55343e-17)
(0.200768 0.0465038 -1.84437e-17)
(0.0606426 0.0112816 9.73318e-18)
(0.134551 0.0037327 -9.30231e-18)
(-0.0196043 -0.0111984 4.23458e-17)
(0.208102 0.041656 2.74437e-17)
(0.089697 0.0145811 -4.78086e-18)
(0.11965 0.015415 0)
(0.0354847 0.0156249 1.81573e-17)
(-0.0333144 -0.00723209 -9.19276e-18)
(0.152403 -0.0372684 -1.76529e-17)
(0.100381 0.0393552 9.22998e-18)
(0.161955 -0.0322986 9.11773e-18)
(0.112947 0.0378907 9.24533e-18)
(0.157496 -0.0123285 1.89037e-17)
(-0.0438589 -0.147592 8.95284e-18)
(0.162434 -0.0400849 9.08677e-18)
(-0.0120745 -0.0147057 2.07084e-17)
(0.0122254 -0.0225302 0)
(-0.0481312 -0.00216068 1.84885e-17)
(-0.0886596 0.0469664 0)
(-0.0195802 -0.0180244 4.60014e-18)
(0.157995 -0.0322189 2.87481e-17)
(0.190628 0.0336306 3.64047e-17)
(0.095156 0.0279693 2.82787e-18)
(0.150253 0.0122859 -3.77417e-17)
(0.153528 -0.0134654 -3.85472e-17)
(-0.0424278 -0.00888999 -9.39186e-18)
(-0.0942884 0.0452295 -4.66748e-18)
(0.154637 -0.100315 0)
(0.0664704 -0.0166159 1.89578e-17)
(-0.0579609 0.00735327 4.93421e-18)
(0.180895 -0.0799638 0)
(0.163299 0.0190406 1.80661e-17)
(-0.0453072 -0.00795448 4.81409e-18)
(-0.0218191 -0.0256108 9.51233e-18)
(-0.100447 0.0559943 -1.19139e-18)
(-0.0770367 0.027367 -8.24859e-18)
(0.10422 -0.100079 -2.71733e-17)
(0.0335567 0.0213163 0)
(0.151902 -0.00915669 8.64338e-18)
(0.210079 0.0497191 0)
(0.107545 0.0488165 0)
(-0.0693835 -0.0620322 0)
(0.143069 0.0335453 0)
(0.174892 -0.00780439 9.06181e-18)
(-0.0161871 -0.0230291 2.78299e-17)
(-0.0223968 -0.0293504 -1.98233e-17)
(0.0998803 0.013966 9.19237e-18)
(0.204723 -0.00183632 0)
(0.151411 0.0106467 2.74636e-17)
(0.196547 0.0450174 0)
(-0.0235175 -0.16134 -9.13553e-18)
(-0.0227602 -0.159731 9.13399e-18)
(0.198702 -0.0398244 9.01477e-18)
(0.11775 0.0607307 1.828e-17)
(0.172786 -0.0557711 9.02853e-18)
(0.190751 -0.0383691 1.89559e-17)
(0.214735 0.0255119 -3.6379e-17)
(0.175591 -0.0828505 0)
(0.100984 -0.137674 -9.0186e-18)
(0.208259 0.0488001 1.81899e-17)
(0.164576 0.0241324 -1.82829e-17)
(0.115006 0.0496545 0)
(0.0837617 0.0241713 1.91643e-17)
(0.109401 -0.00711973 1.84594e-17)
(0.0377083 -0.0111557 -3.42461e-17)
(-0.00150037 0.0138223 0)
(0.127822 -0.017 1.84156e-17)
(0.0492217 0.00218553 0)
(0.121459 0.0416952 0)
(-0.0519732 -0.0298106 0)
(0.19919 -0.0550967 0)
(0.145558 -0.0398 2.7337e-17)
(0.16239 -0.0986879 0)
(0.20739 0.00545412 9.1239e-18)
(0.0759495 -0.00842889 -1.93582e-17)
(0.146576 -0.0866369 9.0114e-18)
(0.140144 0.0281108 -1.66845e-17)
(0.153203 -0.0115601 -1.83233e-17)
(0.0904101 -0.0260468 0)
(-0.00721376 -0.157809 -1.81473e-17)
(0.120854 0.00519102 -2.75199e-17)
(0.139503 0.0494783 0)
(0.139312 0.0546109 0)
(0.211451 -0.0136282 0)
(0.0349972 -0.138156 1.81596e-17)
(0.147992 0.0333286 1.07199e-22)
(0.112725 0.0482611 3.09718e-23)
(0.0946539 0.0338636 -1.89286e-17)
(0.0782764 -0.129153 0)
(0.144694 0.0500184 0)
(0.121747 0.0588757 0)
(0.134795 0.0542157 0)
(0.0663077 -0.0222079 0)
(0.0151952 -0.160354 -9.09014e-18)
(0.128401 0.0506851 -1.85935e-17)
(0.136463 -0.0341189 2.74638e-17)
(0.151401 -0.0312506 -9.13192e-18)
(-0.0441698 -0.0426705 1.84379e-17)
(0.143982 0.0414065 -9.10272e-18)
(0.106354 0.0665354 9.28004e-18)
(0.134548 0.0397493 -9.14106e-18)
(0.0879898 -0.146746 0)
(0.119326 -0.0256059 -1.83994e-17)
(0.131339 -0.0370017 -3.64507e-17)
(0.133532 0.0752737 0)
(0.142043 -0.0358861 -1.82297e-17)
(0.130548 -0.0190157 -1.85422e-17)
(0.148636 -0.022135 0)
(0.151388 0.0299019 0)
(0.127671 0.0700527 2.38964e-22)
(0.0997589 0.0901868 8.32181e-18)
(0.210413 0.0317966 0)
(0.137332 0.022542 -2.74289e-17)
(0.166804 0.0394755 0)
(0.108845 0.0622265 0)
(-0.0209065 -0.109094 -1.8124e-17)
(0.126023 0.0735565 -1.82545e-17)
(0.15136 0.0120267 0)
(0.136948 0.074486 -1.8224e-17)
(0.200131 0.0381863 -9.09839e-18)
(0.136098 0.0651541 1.82209e-17)
(0.116299 0.0243286 -1.87945e-17)
(0.150161 -0.000299334 1.83102e-17)
(0.198122 0.0140834 0)
(0.133932 0.0810671 -9.10729e-18)
(0.108559 0.061301 -3.22704e-17)
(0.141023 0.0615017 0)
(0.126651 0.0709911 0)
(0.147807 0.0224908 2.7353e-17)
(-0.0236963 -0.130703 -1.78137e-17)
(0.11547 0.105266 0)
(0.137276 0.069813 1.82219e-17)
(0.0970752 0.111922 3.8397e-17)
(0.138083 0.0610213 -1.82146e-17)
(0.0367892 -0.161756 0)
(0.119518 0.0554526 3.88304e-17)
(0.131286 0.0805413 9.0982e-18)
(0.0737291 -0.155884 0)
(0.12149 0.096024 1.82084e-17)
(0.106745 0.0111671 -1.00428e-17)
(0.104455 0.107162 0)
(0.1363 0.0014376 0)
(0.0891602 -0.0201669 0)
(0.0789374 0.0517953 1.61204e-17)
(0.0743036 -0.0272667 -8.85897e-18)
(0.161579 0.037241 -2.22578e-17)
(0.129912 0.0868198 0)
(0.116057 0.0937717 9.36208e-18)
(0.118798 0.0802337 -1.82265e-17)
(0.107661 0.0667893 3.07969e-17)
(0.0215548 -0.163955 0)
(0.105019 0.0810427 -7.91819e-18)
(0.125797 0.0958305 0)
(0.114877 -0.0254447 0)
(0.0552634 0.0335937 0)
(0.108665 0.0301925 0)
(0.128586 0.0107673 9.18234e-18)
(0.1199 -0.0325304 0)
(0.127644 0.0889055 0)
(0.100639 -0.032343 -9.24262e-18)
(0.0832368 -0.0286818 -9.10094e-18)
(0.135986 0.0680792 0)
(0.107577 0.0986682 0)
(0.133316 0.0618992 0)
(0.106101 -0.0345467 3.64999e-17)
(0.12475 -0.00922017 2.77252e-17)
(0.123165 0.0649021 0)
(0.146266 0.0362956 1.57542e-17)
(0.0687996 0.118169 -1.84349e-17)
(0.116737 0.0871556 1.82316e-17)
(0.0899232 0.0977722 -1.82834e-17)
(-0.00415406 -8.07508e-05 3.47676e-23)
(0.108651 0.0756373 0)
(0.0025608 -0.0839076 0)
(0.0734241 0.131833 1.76832e-17)
(0.0344283 -0.0566421 0)
(0.123647 0.078659 0)
(0.0821568 0.0480562 -1.62937e-17)
(0.0138473 -0.0992055 -2.31405e-17)
(0.054888 0.042405 0)
(0.0316913 0.045593 -1.83412e-17)
(0.124226 0.0849806 0)
(0.0999312 0.0747102 -1.8267e-17)
(0.0520476 0.0573791 -9.17616e-18)
(0.0506894 0.0673824 3.67127e-17)
(0.0975899 0.0828406 0)
(0.118596 0.103921 -1.8194e-17)
(0.080631 0.119908 9.17947e-18)
(0.0767288 0.0683719 0)
(0.0684299 0.138976 2.29982e-17)
(0.0739762 0.0761753 -9.16453e-18)
(0.0691438 0.102355 -1.83685e-17)
(0.0981698 0.0470471 -1.71201e-17)
(0.0666688 0.145649 -9.25628e-18)
(0.100694 0.053053 0)
(0.102667 0.120949 -1.84072e-17)
(0.0274714 -0.0645428 0)
(0.0324494 -0.0676596 2.72728e-17)
(0.0874225 0.106569 2.74561e-17)
(0.0814644 0.133347 1.83572e-17)
(0.00105469 0.00890119 3.71443e-17)
(0.031071 0.0216546 -9.80637e-18)
(-0.0297066 -0.0257275 -1.86696e-17)
(0.085561 0.131288 0)
(0.0123268 -0.0569531 0)
(0.0786064 0.127199 -1.83965e-17)
(0.0653497 0.142781 3.82822e-17)
(0.0257264 0.0222249 0)
(0.0703406 0.0941122 -2.75038e-17)
(0.0257399 -0.0698828 -3.01465e-22)
(0.0606572 0.114811 9.29026e-18)
(0.09023 0.127954 0)
(0.0906733 0.125666 9.30705e-18)
(0.0785096 0.123691 -2.76321e-17)
(0.0584549 0.1023 0)
(0.0248149 -0.0740899 2.11011e-17)
(0.0540486 0.13445 -3.96718e-17)
(0.00182112 -0.0729436 0)
(0.0940791 0.118924 0)
(0.0274818 -0.0665493 -1.84174e-17)
(0.0276386 -0.0682721 0)
(0.072104 0.122026 1.83998e-17)
(0.0362009 0.0644014 5.36473e-19)
(0.0158273 -0.064662 -2.01632e-17)
(0.0625348 0.125229 -1.8666e-17)
(-0.0166698 -0.0203661 -1.51254e-17)
(0.0259133 -0.0686366 1.84899e-17)
(0.00220727 -0.0794242 0)
(0.00546795 -0.0052054 0)
(-0.00572784 -0.0378875 6.3788e-17)
(0.00163939 -0.0601015 -4.10467e-17)
(0.0011133 -0.0773625 -4.0459e-17)
(0.0155941 0.0189719 0)
(0.0582125 0.17589 1.96565e-17)
(0.0210627 -0.0685917 -2.8854e-17)
(0.0229642 -0.0677003 2.90255e-17)
(0.000852611 -0.0406764 0)
(0.00669035 -0.0456223 -2.0297e-17)
(0.0494039 0.189052 -6.07459e-17)
(0.00120312 -0.0408139 -1.92319e-17)
(-0.00581273 -0.0178403 -8.15603e-23)
(0.0502909 0.117679 1.71588e-17)
(0.018185 -0.0644796 -1.98034e-17)
(-0.0268136 -0.0297148 9.54826e-18)
(0.0303599 0.0485771 0)
(0.0295111 0.00303274 -2.19121e-17)
(0.0587758 0.162527 4.44414e-17)
(0.000693009 -0.0188275 -2.15089e-17)
(0.00390722 -0.0661979 1.83145e-21)
(0.0288426 0.00753766 3.01153e-17)
(0.02743 -0.0131029 -1.23308e-21)
(0.162322 0.0358801 3.59712e-17)
(0.0484706 -0.023367 1.31865e-17)
(0.0347069 -0.0601884 0)
(0.00251997 -0.0514192 2.06151e-17)
(-0.00141392 -0.0674925 0)
(0.0490426 0.00868375 -1.21565e-17)
(0.0537727 0.179905 -6.35996e-19)
(0.00253936 -0.0276787 0)
(0.0519169 0.172749 5.85347e-19)
(0.0587567 0.131115 2.05279e-17)
(0.00334607 -0.0261011 -2.39729e-17)
(0.00325157 -0.0307098 -5.81528e-18)
(0.0165651 -0.0534021 4.90903e-18)
(-0.0426878 0.0149686 2.84594e-17)
(0.0426537 0.00179616 2.14392e-17)
(0.0695744 0.0349568 -2.26973e-17)
(-0.0780597 0.0375846 1.76857e-17)
(0.0193423 -0.0667734 0)
(-0.0300913 0.013554 1.0716e-17)
(0.0525263 -0.00948109 0)
(-0.0227852 -0.0534563 1.70793e-17)
(0.0214117 -0.0569355 0)
(-0.0487321 -0.0564613 -4.06017e-17)
(-0.0110956 0.00359034 -2.20916e-17)
(0.0557994 -0.0240353 -1.79604e-17)
(0.00226074 -0.0153487 -1.54394e-17)
(0.0364529 0.032969 0)
(0.0368293 -0.00185421 1.01154e-18)
(0.0141971 -0.00135759 0)
(0.0802592 0.0148247 -3.17733e-17)
(0.0413869 0.0150171 -1.51131e-17)
(0.0215901 0.0218139 -5.30843e-18)
(-0.00735917 0.00450476 3.92798e-17)
(0.0171451 -0.0516126 0)
(0.0193677 -0.0570522 1.69095e-17)
(0.0198915 -0.00246928 0)
(0.0640836 0.000100393 -2.87813e-17)
(0.00248075 -0.0677877 -2.18717e-17)
(0.0815476 -0.00621983 2.03372e-17)
(0.0819612 -0.0132123 0)
(0.0914793 0.00094581 -5.29154e-18)
(0.0596255 0.145252 0)
(-0.0447645 -0.0576239 2.0112e-17)
(0.00708783 -0.0676848 6.46598e-19)
(0.00158343 -0.0507207 4.321e-17)
(0.02862 -0.0630766 0)
(0.00393741 -0.0770477 1.87664e-17)
(0.00339823 -0.0675267 2.0049e-17)
(0.00639068 -0.0796355 1.05842e-17)
(0.0131907 -0.0402018 3.0448e-24)
(0.0687614 0.000214164 -2.79632e-17)
(0.0614948 0.14939 0)
(-0.0429505 -0.0776028 0)
(0.0268881 0.105493 -1.01711e-17)
(0.0528573 0.00121426 2.0921e-17)
(0.0291169 0.0937371 0)
(0.00657642 -0.0120512 1.00576e-17)
(0.030387 0.0835222 -1.69634e-17)
(0.00519708 -0.00608002 0)
(0.0114145 -0.0763605 0)
(0.0162353 0.0674433 -3.35683e-22)
(0.0190657 0.0518369 1.76315e-17)
(0.00324916 -0.00537008 9.82894e-18)
(0.00993396 -0.0664524 -1.03065e-17)
(0.170103 0.0560488 0)
(0.0825239 0.113032 1.99766e-17)
(-0.0838256 -0.126795 -1.02105e-17)
(0.0213482 0.0183821 -1.0067e-17)
(0.0120466 0.0103357 0)
(0.00237219 -0.000961238 0)
(0.000268993 0.000580416 9.03426e-18)
(0.0307708 0.0467776 -1.93132e-17)
(0.00639631 0.0032177 0)
(0.00337029 0.00346462 1.69047e-17)
(0.0528591 -0.0253104 0)
(0.0246935 0.0244728 9.95321e-18)
(0.0292748 -0.0489983 -1.92315e-17)
(-0.00290066 0.000674116 2.57819e-18)
(-0.00122955 -8.87574e-05 1.54917e-17)
(0.0283101 0.0379701 -2.04513e-17)
(0.0257593 0.0308081 -2.06704e-17)
(0.01835 -0.0351554 0)
(0.0120227 0.00342656 1.88945e-17)
(0.00424416 0.0012861 0)
(-0.00295211 -0.00477913 -2.43396e-18)
(-0.00245788 -0.000165011 0)
(0.0156898 0.0203707 0)
(0.0119418 0.0120482 -9.99812e-18)
(0.0412936 -0.0190053 3.37304e-22)
(0.0100599 -0.0205897 0)
(-0.000136874 -0.0055409 -1.59354e-17)
(0.16889 0.00195253 -1.06912e-17)
(0.0920791 0.062496 -1.96723e-17)
(-0.0299312 0.00323567 0)
(0.00073319 -0.0600937 -1.96679e-22)
(0.0847899 0.100881 -3.20344e-17)
(-0.0362962 -0.0493155 -2.33468e-17)
(0.00624074 -0.0524969 0)
(0.0848351 -0.0507332 -3.89894e-17)
(0.0758598 0.111766 -9.75573e-18)
(0.0602627 0.153525 0)
(0.0859794 0.0485483 1.99016e-17)
(0.0191972 -0.0772503 -1.1222e-17)
(0.0602241 0.0923183 2.22515e-17)
(0.0503713 -0.027818 1.97821e-17)
(0.0299794 0.00678472 1.07357e-17)
(0.0607686 0.0262159 3.12169e-17)
(-0.0537766 -0.0349208 1.11543e-17)
(0.166292 -0.0631991 0)
(0.0401227 -0.0193936 -3.9011e-17)
(0.0322367 -0.0114932 -4.77199e-18)
(0.0374305 -0.0858997 2.97925e-17)
(0.00177686 -0.0729655 -2.0843e-17)
(0.18584 0.0367598 -3.35765e-17)
(-0.0567822 -0.0249415 1.66109e-17)
(0.0471008 0.0843754 -2.73016e-17)
(0.00975983 -0.0721972 5.2951e-18)
(0.122878 -0.0105457 2.02579e-17)
(0.110472 0.0104095 -3.04841e-17)
(0.0848463 0.0375818 4.23811e-17)
(-0.126017 0.013178 0)
(0.0267792 -0.0738057 -2.18237e-17)
(0.0317516 0.0642343 3.40766e-17)
(0.0593775 -0.0981687 -1.97958e-17)
(0.0199855 -0.0779248 1.18147e-17)
(-0.024527 -0.0327158 -5.29079e-18)
(0.0138495 0.0793027 0)
(0.102449 -0.00534065 -1.02399e-17)
(-0.0568899 -0.107549 -2.16021e-17)
(0.0532418 -0.116832 2.00688e-17)
(0.0252983 -0.071759 1.31161e-17)
(0.0188969 0.038488 -2.20128e-17)
(0.0198717 -0.0490554 1.16996e-17)
(0.125999 -0.0281325 -1.63262e-17)
(0.0125203 -0.0501937 0)
(0.0606556 0.05569 3.76372e-17)
(-0.013474 0.00861442 -2.07874e-17)
(0.00813509 0.00293061 2.64021e-17)
(0.027252 -0.00933015 2.49093e-17)
(0.177986 -0.000529004 5.20661e-18)
(0.16695 -0.0242447 -1.11319e-17)
(-0.0593277 0.00997958 -2.31414e-17)
(-0.0631423 0.00196962 2.2029e-17)
(0.0253714 -0.000671631 0)
(0.0178354 0.0112412 0)
(0.00282039 -0.0765829 -2.29473e-17)
(0.00103118 -0.00643652 -1.12069e-17)
(0.00069454 -0.0048088 -2.24062e-17)
(0.00360797 -0.0798853 1.19342e-22)
(0.0316166 -0.0678059 1.02134e-17)
(0.0703162 -0.0342919 -2.05738e-17)
(0.000469253 -0.0158898 0)
(0.000545736 -0.0176415 0)
(-0.114509 -0.038485 3.72814e-17)
(0.00472962 0.0927987 -3.69853e-17)
(0.0400081 -0.042855 -1.04196e-17)
(0.0578228 0.0599928 1.2122e-17)
(0.000905249 -0.00890077 2.1162e-17)
(0.0381191 0.132477 2.41069e-17)
(0.0389805 0.0163868 0)
(0.0917787 0.056617 0)
(0.02373 0.0114555 -1.08494e-17)
(0.0220867 0.15237 1.26045e-17)
(0.08785 0.0757415 -9.82933e-18)
(0.00339837 -0.00105003 -1.62179e-17)
(0.0150455 -0.0361392 1.08032e-17)
(0.00380885 -0.014072 -2.68191e-18)
(-0.00127485 -0.008305 -3.70839e-17)
(0.0598721 0.163614 -2.58336e-17)
(0.118416 -0.102926 6.19419e-18)
(0.0766219 0.0850576 2.65599e-17)
(-0.0234116 0.00860535 4.47312e-22)
(0.00335595 -0.0721289 1.86408e-17)
(-0.0220102 0.0183938 2.18207e-17)
(0.0456149 0.0224171 -1.05043e-17)
(0.0463526 0.137765 -3.51573e-17)
(0.00183277 -0.0351557 2.28933e-17)
(-0.00521129 0.011826 -1.07655e-17)
(0.0209631 0.00482386 -2.15179e-17)
(0.0868744 -0.121645 1.85137e-17)
(0.0511209 0.0733862 -2.54952e-18)
(0.029176 -0.0367508 5.25462e-18)
(0.0308603 0.0724932 4.69701e-18)
(-0.0190709 -0.0155903 0)
(-0.0121021 -0.00443169 7.18935e-18)
(0.0606342 0.152651 1.15121e-17)
(-0.115837 -0.0112719 2.51315e-17)
(0.0126435 -0.0122599 0)
(-0.0193766 0.0201502 -4.48353e-18)
(0.153092 0.0447544 2.53518e-17)
(0.128886 0.056368 1.41507e-17)
(-0.00589366 -0.0644845 0)
(0.000623437 -0.00817106 -2.21756e-17)
(-0.0823499 -0.109403 1.1601e-17)
(-0.0480719 0.00329333 -2.95977e-18)
(0.0231449 0.0195546 -1.54743e-18)
(-0.0163195 -0.0305908 5.65651e-18)
(-0.000132434 -0.00671128 2.43198e-17)
(-0.00641626 -0.0711307 0)
(0.0738597 0.0527045 0)
(-0.0658801 -0.0546626 0)
(-0.0233832 -0.0387187 -1.25244e-17)
(0.090025 0.0698381 0)
(-0.0223536 -0.0187966 2.07252e-17)
(0.0125156 -0.0717676 -1.20975e-17)
(0.000124325 -0.0153426 -1.24147e-17)
(-0.000726685 -0.0708995 0)
(0.158806 0.0567863 -6.25786e-18)
(0.0378289 0.0227901 0)
(-0.0445024 -0.0178428 7.06609e-19)
(0.00296823 -0.0122566 1.19527e-17)
(0.00241509 -0.0170663 1.75128e-17)
(0.0299671 -0.0503344 0)
(0.0109104 -0.0261524 2.26432e-17)
(0.00252291 -0.0457513 0)
(0.0049319 -0.0695197 0)
(0.0136979 -0.0617631 1.51367e-18)
(0.128272 0.048143 -2.20071e-17)
(0.00143564 -0.00435666 -1.29381e-18)
(0.108371 -0.0429688 0)
(-0.0351514 -0.0015289 4.34799e-17)
(-0.0150675 -0.0603387 1.23165e-18)
(0.0252547 0.120313 -1.09291e-17)
(0.0773468 -0.0665382 0)
(0.0840942 0.0435574 -9.67417e-18)
(0.0241953 -0.0500935 -2.6351e-17)
(0.109342 -0.0352349 2.40398e-17)
(0.0796308 0.0813403 1.15431e-17)
(0.00652942 -0.0565871 1.06691e-17)
(0.067269 0.0325517 -1.15421e-17)
(0.00375079 -0.0158816 -2.33185e-17)
(0.171177 -0.0476339 -2.17565e-17)
(0.0271582 0.0128868 0)
(0.0985877 0.00451272 1.55198e-17)
(0.0324917 -0.0538749 5.35547e-18)
(0.186018 0.0546921 2.05957e-17)
(0.0562858 0.152615 5.57646e-18)
(0.0613225 0.158176 0)
(0.0262963 0.0361863 2.04983e-17)
(0.0746699 0.0229752 3.29545e-17)
(0.114747 -0.0206234 0)
(-0.020336 -0.0757516 3.40131e-18)
(-0.00422385 0.00313011 -1.52866e-17)
(0.110453 0.00583352 0)
(0.00869286 -0.060573 -1.44338e-18)
(0.0377455 0.0134128 -2.0838e-17)
(0.0767529 0.0293649 2.76458e-22)
(0.131729 0.00134801 -2.41806e-22)
(0.0178181 -0.0614168 -5.51775e-18)
(0.0890603 -0.103096 -2.46866e-17)
(0.0222093 -0.00790517 2.76176e-17)
(0.0244243 -0.00394586 4.92583e-17)
(0.0689725 0.0309501 -2.52356e-17)
(0.00838423 0.00327602 3.66377e-17)
(0.060108 -0.0119301 5.23011e-18)
(0.00978731 -0.0268204 1.2227e-17)
(0.0343042 0.0559742 2.43557e-17)
(0.0200097 -0.089096 0)
(0.145793 -0.0342951 -3.38197e-17)
(0.0461123 -0.0833761 -2.12395e-17)
(0.0439688 0.0357381 5.91083e-18)
(-0.0658362 -0.0252421 0)
(0.0337825 0.034928 -2.61332e-17)
(0.0297016 -0.0942805 -2.48996e-17)
(-0.0057984 -0.00030239 0)
(0.0114294 -0.0215524 1.36288e-17)
(0.0169292 -0.0736845 1.5312e-17)
(-0.0234812 -0.0920938 -1.25907e-17)
(0.0359974 -0.116117 1.51607e-18)
(0.0170672 -0.0496805 0)
(0.00106852 -0.0793562 2.44505e-22)
(0.0775785 0.0997534 0)
(0.0435759 -0.0592021 2.18681e-17)
(0.020258 -0.0737278 -3.10757e-18)
(-0.0367655 -0.045181 1.27283e-17)
(0.00155559 -0.0321959 0)
(0.00525197 -0.0342423 2.71007e-17)
(0.0464794 0.0322039 2.51915e-17)
(0.114801 -0.114703 -6.25166e-18)
(-0.0990291 -0.00205763 -2.04572e-17)
(-0.00282748 -0.0453319 -4.29442e-17)
(0.0429264 0.0719281 0)
(0.0252289 0.00558341 0)
(0.057088 0.067546 -2.62588e-17)
(0.0492552 0.0618388 3.40474e-17)
(0.148879 0.0585815 1.07221e-17)
(0.177306 -0.0165824 1.22742e-17)
(0.0163569 -0.068558 8.90214e-18)
(0.000911917 -0.0313609 -1.35189e-17)
(0.0565347 0.169089 0)
(0.0598232 0.0802923 0)
(-0.0961476 -0.0828173 0)
(0.0238985 -0.0762372 -8.99094e-19)
(-0.0182869 -0.00129937 1.40654e-17)