/*--------------------------------*- C++ -*----------------------------------*\
  =========                 |
  \\      /  F ield         | OpenFOAM: The Open Source CFD Toolbox
   \\    /   O peration     | Website:  https://openfoam.org
    \\  /    A nd           | Version:  9
     \\/     M anipulation  |
\*---------------------------------------------------------------------------*/
FoamFile
{
    format      ascii;
    class       volScalarField;
    location    "2.2";
    object      p;
}
// * * * * * * * * * * * * * * * * * * * * * * * * * * * * * * * * * * * * * //

dimensions      [0 2 -2 0 0 0 0];

internalField   nonuniform List<scalar> 
1655
(
14.6591
14.6512
14.5766
14.6618
14.6659
14.6669
14.572
14.6438
14.6197
14.6657
14.6598
14.6591
14.6486
14.6368
14.6006
14.5377
14.5489
14.6144
14.6643
14.6369
14.5342
14.618
14.6596
14.662
14.6587
14.5435
14.5357
14.6257
14.6287
14.5286
14.5615
14.5896
14.6166
14.5829
14.6135
14.5844
14.6662
14.6507
14.6192
14.6511
14.5322
14.6643
14.6273
14.662
14.645
14.6616
14.6595
14.6451
14.6657
14.6299
14.6663
14.5834
14.5987
14.6241
14.622
14.586
14.5322
14.6606
14.6597
14.5845
14.5604
14.6659
14.6585
14.6427
14.6578
14.5689
14.655
14.6603
14.6132
14.6649
14.6613
14.573
14.5342
14.6023
14.5649
14.6427
14.6321
14.6129
14.5325
14.5304
14.6567
14.6438
14.6202
14.6611
14.535
14.5977
14.568
14.5327
14.6535
14.5974
14.6008
14.5775
14.6635
14.6676
14.64
14.6641
14.6555
14.661
14.5896
14.578
14.5743
14.656
14.667
14.6557
14.6149
14.6655
14.6422
14.5277
14.5761
14.5904
14.5974
14.6609
14.5875
14.5388
14.6483
14.6014
14.6453
14.6603
14.6542
14.6151
14.5822
14.5691
14.5638
14.6511
14.6551
14.6539
14.6299
14.6399
14.5397
14.5454
14.6638
14.5927
14.6441
14.6555
14.5285
14.6511
14.6657
14.5981
14.5316
14.655
14.5862
14.5355
14.5385
14.5664
14.5484
14.5631
14.5693
14.5796
14.5757
14.5546
14.5569
14.5523
14.5605
14.5588
14.6003
14.6313
14.659
14.5792
14.6453
14.6574
14.575
14.6517
14.6253
14.5771
14.5718
14.6604
14.6263
14.6511
14.656
14.6123
14.5483
14.6272
14.5797
14.6361
14.5326
14.6395
14.6647
14.6112
14.5501
14.6384
14.5903
14.6268
14.6672
14.6529
14.6474
14.5603
14.6441
14.5569
14.6155
14.6286
14.6472
14.6654
14.6201
14.5843
14.5724
14.528
14.6184
14.5682
14.6545
14.6276
14.6567
14.6565
14.5679
14.5647
14.6069
14.5372
14.6198
14.6193
14.5509
14.5776
14.6039
14.5919
14.6505
14.6511
14.6382
14.6548
14.58
14.6532
14.6006
14.6293
14.6453
14.5348
14.6209
14.6353
14.6178
14.5854
14.5818
14.6048
14.5981
14.6008
14.6343
14.5955
14.5996
14.6128
14.616
14.6319
14.5808
14.6212
14.5733
14.597
14.5945
14.6477
14.6022
14.529
14.6341
14.5307
14.5581
14.6291
14.5685
14.6336
14.662
14.5295
14.6211
14.5972
14.6188
14.6054
14.5744
14.636
14.6112
14.625
14.6461
14.5464
14.5869
14.5935
14.6189
14.6504
14.6274
14.6356
14.6118
14.6349
14.6043
14.6137
14.6482
14.5494
14.611
14.6144
14.5569
14.6346
14.6185
14.6347
14.6222
14.6517
14.6123
14.5936
14.5945
14.6161
14.623
14.5974
14.625
14.6143
14.617
14.5308
14.6332
14.6307
14.6238
14.6051
14.6421
14.6027
14.5294
14.559
14.5954
14.669
14.6694
14.6053
14.5839
14.6197
14.5937
14.5604
14.6244
14.5897
14.6158
14.5501
14.5563
14.643
14.6479
14.6259
14.5303
14.6231
14.5874
14.5824
14.6239
14.6354
14.5999
14.6088
14.5983
14.6621
14.6624
14.6498
14.5692
14.6257
14.6244
14.625
14.6389
14.5572
14.6216
14.5701
14.6275
14.6313
14.5954
14.6199
14.5879
14.6064
14.6105
14.5964
14.5899
14.6095
14.6362
14.5975
14.5856
14.5464
14.658
14.6122
14.5997
14.6056
14.6277
14.5936
14.5986
14.6006
14.6296
14.5771
14.5878
14.627
14.6271
14.6242
14.6422
14.5889
14.5615
14.6643
14.6283
14.6263
14.6472
14.6095
14.6447
14.6037
14.6673
14.6264
14.6336
14.648
14.6329
14.5938
14.6375
14.6301
14.6528
14.624
14.5933
14.6308
14.6018
14.6312
14.6131
14.5754
14.5348
14.6144
14.6351
14.6332
14.6111
14.6078
14.5919
14.6174
14.6297
14.6519
14.598
14.6375
14.6306
14.6508
14.6223
14.6156
14.6326
14.612
14.6499
14.6296
14.6693
14.6261
14.6178
14.6267
14.6188
14.622
14.6346
14.5957
14.6181
14.6064
14.6541
14.6252
14.5934
14.5985
14.6195
14.5576
14.6004
14.6084
14.562
14.6276
14.585
14.6051
14.6126
14.6674
14.6206
14.6386
14.6297
14.6037
14.6698
14.6285
14.5372
14.6041
14.6146
14.5975
14.611
14.6333
14.6248
14.6284
14.624
14.619
14.6229
14.6394
14.6178
14.618
14.6227
14.6123
14.6479
14.604
14.628
14.6003
14.6397
14.6049
14.635
14.6438
14.6569
14.6534
14.6112
14.6044
14.6071
14.6401
14.6443
14.6356
14.6187
14.6195
14.6385
14.6448
14.6483
14.6442
14.605
14.5971
14.5836
14.6281
14.6088
14.6127
14.6463
14.6134
14.6038
14.6021
14.6205
14.6232
14.6357
14.6155
14.6164
14.6416
14.6498
14.6422
14.5635
14.596
14.6397
14.6385
14.6494
14.6488
14.5915
14.6446
14.5628
14.6501
14.6071
14.6482
14.6463
14.608
14.6546
14.6509
14.6462
14.647
14.6014
14.6419
14.6453
14.6419
14.5677
14.5704
14.6112
14.6116
14.6472
14.6429
14.5661
14.6153
14.6529
14.649
14.6461
14.6139
14.6521
14.6146
14.6585
14.6583
14.6686
14.6529
14.6695
14.6622
14.6576
14.6623
14.6653
14.5793
14.6674
14.6602
14.6562
14.6692
14.6603
14.6564
14.6488
14.6608
14.6626
14.6507
14.548
14.6537
14.6473
14.5663
14.5613
14.6504
14.6447
14.6131
14.6364
14.6492
14.6128
14.6089
14.6556
14.577
14.6374
14.6118
14.6071
14.612
14.6507
14.6178
14.5646
14.6489
14.615
14.6405
14.6516
14.6125
14.5745
14.636
14.6545
14.6537
14.6487
14.5814
14.647
14.653
14.6014
14.619
14.6421
14.6205
14.6511
14.6183
14.6182
14.6188
14.6226
14.579
14.6503
14.5757
14.6201
14.6128
14.6219
14.5547
14.5962
14.6089
14.5521
14.5494
14.5581
14.5803
14.5336
14.5567
14.6485
14.6525
14.54
14.5553
14.5678
14.6245
14.5729
14.6552
14.6183
14.5884
14.577
14.6232
14.5723
14.6018
14.6249
14.6511
14.622
14.6215
14.6217
14.6436
14.6301
14.6387
14.6224
14.6554
14.6544
14.6238
14.6566
14.6587
14.6517
14.6387
14.6566
14.5889
14.6322
14.6574
14.6551
14.659
14.6497
14.6551
14.6357
14.55
14.6257
14.6517
14.6313
14.6435
14.6452
14.6557
14.6352
14.6226
14.6285
14.5843
14.6474
14.6194
14.6452
14.6404
14.6253
14.6132
14.6537
14.6556
14.6579
14.6538
14.6164
14.628
14.6514
14.6329
14.6493
14.6465
14.6314
14.6588
14.6081
14.654
14.6269
14.623
14.6441
14.6272
14.64
14.5761
14.6579
14.6065
14.6275
14.6283
14.6392
14.6475
14.6514
14.6325
14.6526
14.627
14.653
14.6186
14.6541
14.6561
14.6334
14.6535
14.6533
14.643
14.6301
14.6352
14.6512
14.6296
14.6311
14.6191
14.5763
14.6356
14.5655
14.6334
14.632
14.6236
14.6544
14.6424
14.6359
14.5474
14.6303
14.6352
14.6169
14.6373
14.6526
14.5778
14.6312
14.6506
14.6448
14.6527
14.5539
14.6581
14.6323
14.6335
14.6565
14.6485
14.6293
14.6478
14.6383
14.6502
14.584
14.6583
14.655
14.5749
14.6314
14.6373
14.6355
14.6523
14.654
14.6467
14.6359
14.6527
14.61
14.5494
14.557
14.6597
14.6537
14.6389
14.6414
14.6538
14.566
14.5625
14.6344
14.658
14.5991
14.6454
14.6481
14.5729
14.637
14.6185
14.5629
14.651
14.6558
14.5964
14.6311
14.631
14.6533
14.6349
14.6362
14.638
14.6428
14.6402
14.6376
14.6397
14.6288
14.632
14.6597
14.6422
14.6386
14.6305
14.6568
14.5567
14.6349
14.6218
14.6436
14.6089
14.6278
14.6156
14.6587
14.6528
14.661
14.6533
14.6496
14.6552
14.6367
14.6276
14.6391
14.6614
14.5651
14.657
14.6306
14.6428
14.5673
14.6549
14.6062
14.5707
14.6463
14.6414
14.652
14.5543
14.6418
14.6483
14.6001
14.6633
14.6423
14.5676
14.6311
14.6082
14.6421
14.6515
14.6137
14.6445
14.6475
14.6444
14.6477
14.6364
14.6467
14.632
14.6618
14.6456
14.6154
14.647
14.5587
14.6612
14.6628
14.64
14.5566
14.6552
14.6483
14.6381
14.6418
14.5501
14.6048
14.6299
14.6477
14.6602
14.652
14.6371
14.6266
14.6512
14.6596
14.6155
14.6072
14.5689
14.6352
14.6474
14.6626
14.6416
14.633
14.6172
14.622
14.6449
14.6557
14.645
14.6487
14.6508
14.6438
14.6499
14.6355
14.5451
14.6215
14.6565
14.5469
14.611
14.6555
14.644
14.6551
14.6445
14.6254
14.6473
14.6582
14.629
14.5727
14.6495
14.6624
14.6166
14.6318
14.638
14.6402
14.6303
14.6541
14.6445
14.65
14.6503
14.664
14.6389
14.6537
14.6599
14.6582
14.6483
14.6414
14.562
14.5497
14.6544
14.6575
14.6331
14.6402
14.5427
14.6567
14.6518
14.6179
14.6611
14.6498
14.6378
14.6418
14.6503
14.6368
14.6457
14.6378
14.6576
14.642
14.6395
14.6413
14.657
14.6592
14.648
14.6498
14.6523
14.6205
14.6044
14.6523
14.5608
14.6463
14.6082
14.6419
14.6428
14.5889
14.6533
14.6343
14.6609
14.6586
14.6519
14.6208
14.6191
14.5993
14.6069
14.6192
14.6468
14.6276
14.6252
14.6435
14.6436
14.6392
14.6241
14.544
14.5975
14.6096
14.6481
14.5512
14.6269
14.5789
14.6573
14.618
14.6562
14.6602
14.6621
14.6327
14.6563
14.6541
14.6596
14.6566
14.6306
14.6157
14.5548
14.6381
14.6582
14.5978
14.6369
14.6021
14.643
14.6438
14.6324
14.6647
14.6125
14.6458
14.6384
14.5541
14.6363
14.634
14.6587
14.6617
14.6577
14.6431
14.6606
14.6379
14.6576
14.6525
14.6351
14.6165
14.6388
14.628
14.6603
14.6564
14.6365
14.6315
14.6549
14.6357
14.641
14.6316
14.6405
14.6461
14.5967
14.6069
14.6514
14.6303
14.6251
14.653
14.6428
14.6374
14.6433
14.5885
14.5478
14.5488
14.6222
14.6334
14.6311
14.6106
14.6154
14.6408
14.6652
14.6419
14.5831
14.6603
14.6471
14.634
14.6273
14.5809
14.6477
14.62
14.6193
14.6114
14.6245
14.6423
14.6204
14.5488
14.6052
14.6389
14.6404
14.6138
14.6226
14.6159
14.5747
14.6614
14.6283
14.5392
14.5914
14.637
14.6558
14.6527
14.6419
14.6444
14.636
14.6402
14.6521
14.6401
14.6364
14.6408
14.5443
14.5892
14.631
14.6082
14.5729
14.6533
14.6414
14.6336
14.5448
14.6397
14.6146
14.6148
14.6122
14.621
14.5422
14.6463
14.6425
14.6268
14.6465
14.6334
14.6545
14.6139
14.6455
14.616
14.6617
14.6387
14.6212
14.6078
14.6407
14.6575
14.5411
14.6366
14.6441
14.6472
14.6468
14.6518
14.6247
14.6602
14.6366
14.6203
14.6489
14.6078
14.6393
14.646
14.6134
14.6391
14.6173
14.6396
14.5931
14.6441
14.6081
14.6097
14.6517
14.648
14.5394
14.6151
14.6352
14.6368
14.6148
14.633
14.6465
14.5906
14.6249
14.646
14.5887
14.5478
14.625
14.6456
14.6554
14.6322
14.6527
14.6117
14.6074
14.6073
14.6535
14.6195
14.6267
14.625
14.6485
14.6428
14.6382
14.6215
14.5327
14.6292
14.5877
14.5877
14.6114
14.6326
14.5953
14.6101
14.6083
14.5887
14.654
14.6496
14.645
14.6267
14.5889
14.6451
14.6278
14.5288
14.6493
14.5805
14.6469
14.6475
14.6312
14.627
14.6132
14.6302
14.5595
14.6297
14.5432
14.613
14.6483
14.5754
14.6394
14.6244
14.6425
14.5507
14.5648
14.6105
14.6429
14.6359
14.6556
14.6515
14.6433
14.6563
14.537
14.6367
14.5895
14.6518
14.5668
14.5523
14.6364
14.6428
14.5947
14.569
14.6351
14.5901
14.5631
14.5558
14.6296
14.6122
14.6438
14.6535
14.6505
14.6329
14.5859
14.5355
14.6668
14.6532
14.611
14.5993
14.5613
14.6504
14.6313
14.6591
14.6634
14.5836
14.661
14.625
14.5399
14.5549
14.6361
14.5926
14.5957
14.613
14.6564
14.6634
14.5814
14.6624
14.5302
14.6085
14.5606
14.6586
14.5892
14.5856
14.6382
14.6492
14.614
14.6027
14.5782
14.6417
14.5308
14.568
14.5979
14.5744
14.5964
14.5742
14.6348
14.6397
14.625
14.6402
14.6306
14.6573
14.5604
14.6571
14.6562
14.5826
14.637
14.6391
14.5678
14.6569
14.6491
14.6613
14.5405
14.5746
14.6539
14.6616
14.6679
14.6518
14.5911
14.5817
14.5846
14.648
14.6234
14.6188
14.6458
14.6191
14.6599
14.6143
14.5333
14.6133
14.6133
14.542
14.6596
14.6509
14.6632
14.6637
14.6639
14.6548
14.667
14.6237
14.6614
14.5832
14.5364
14.6676
14.6557
14.5448
14.6393
14.6533
14.6234
14.6539
14.6555
14.6268
14.6504
14.6169
14.649
14.557
14.6529
14.6501
14.6368
14.6099
14.6216
14.618
14.6574
14.6174
14.6258
14.5532
14.6125
14.6646
14.6616
14.6616
14.6684
14.6686
14.6584
14.662
14.6655
14.6673
14.6686
14.6669
14.6604
14.6596
14.6609
14.6639
14.6625
14.6616
14.6679
14.6691
14.6591
14.6609
14.6622
14.6663
14.5892
14.6558
14.5595
14.5408
14.6649
14.6659
14.6563
14.6458
14.5424
14.5391
14.6338
14.555
14.5585
14.595
14.6586
14.6598
14.6304
14.6274
14.6429
14.66
14.6526
14.6658
14.6554
14.6417
14.6315
14.5442
14.5648
14.6577
14.6641
14.6473
14.6181
14.6593
14.654
14.5562
14.6008
14.5539
14.6382
14.6615
14.6068
14.6613
14.6374
14.6355
14.6453
14.6214
14.6446
14.6574
14.663
14.6607
14.61
14.6592
14.6019
14.6594
14.638
14.5432
14.5383
14.5632
14.6648
14.6581
14.6403
14.6652
14.5507
14.6627
14.6413
14.6395
14.5855
14.6535
14.6654
14.6464
14.6449
14.6675
14.6217
14.6563
14.6579
14.6561
14.6426
14.6439
14.5762
14.652
14.6578
14.6531
14.6164
14.6164
14.6589
14.6424
14.6393
14.6404
14.6509
14.6159
14.635
14.5409
14.5955
14.6555
14.5967
14.6571
14.5276
14.632
14.6105
14.6619
14.657
14.6633
14.6613
14.6011
14.6592
14.6679
14.635
14.6691
14.6046
14.5279
14.613
14.6379
14.573
14.6369
14.6726
14.6546
14.5691
14.6571
14.6562
14.637
14.6476
14.6623
14.6047
14.6491
14.6684
14.5523
14.6183
14.6675
14.6071
14.6406
14.6181
14.5411
14.5869
14.5967
14.6375
14.6635
14.6603
14.6702
14.6617
14.6684
14.6681
14.67
14.6698
14.6681
14.6684
14.6572
14.6568
14.6088
14.6557
14.6646
14.6568
14.6588
14.6599
14.6301
14.6197
14.6625
14.6692
14.5557
14.6025
14.6391
14.6561
14.655
14.6579
14.6415
14.6665
14.5492
14.654
14.6572
14.6457
14.5885
14.625
14.6566
14.5859
14.5779
14.6539
14.6175
14.6434
14.5962
14.6143
14.6061
14.6589
14.6321
14.622
14.6674
14.6636
14.6496
14.5991
14.6657
14.6651
14.6599
14.6076
14.6392
14.5925
14.6566
14.6617
14.6664
14.6441
14.6412
14.5627
14.6374
14.6694
14.6382
14.6536
14.572
14.6659
14.6576
14.6222
14.6509
14.6393
14.6163
14.6589
14.6605
14.6575
14.6373
14.5425
14.6643
14.6585
14.6646
14.6337
14.6674
14.6209
14.6483
14.5829
14.6158
14.6485
14.5596
14.6571
14.6415
14.6335
14.617
14.6591
14.6704
14.6542
14.5701
14.5833
14.5913
14.6555
14.6098
14.6585
14.6558
14.5282
14.6396
14.6132
14.6383
14.6667
14.6136
14.6681
14.5809
14.6136
14.6013
14.6609
14.6673
14.61
14.6027
14.6471
14.6566
14.6171
14.6046
14.6371
14.5965
14.6376
14.669
14.5414
14.6553
14.6547
14.5858
14.6341
14.5997
14.6609
14.6645
14.637
14.6603
14.6594
14.6578
14.6567
14.669
14.5838
14.6571
14.6595
14.6572
14.6361
14.6588
14.6327
14.6353
14.655
14.6062
14.6389
14.6662
14.6557
14.5919
14.6096
14.5804
14.6153
14.5813
14.5883
14.5886
14.6676
14.614
)
;

boundaryField
{
    back
    {
        type            empty;
    }
    front
    {
        type            empty;
    }
    top
    {
        type            zeroGradient;
    }
    outer_arc
    {
        type            zeroGradient;
    }
    bottom
    {
        type            uniformFixedValue;
        uniformValue    
        {
            type            table;
            format          csv;
            file            "outlet_p.csv";
            nHeaderLine     1;
            refColumn       0;
            componentColumns List<label> 1(1);
            separator       ",";
            mergeSeparators 0;
        }
        value           uniform 14.6149;
    }
    inner_arc
    {
        type            zeroGradient;
    }
}


// ************************************************************************* //
