/*--------------------------------*- C++ -*----------------------------------*\
  =========                 |
  \\      /  F ield         | OpenFOAM: The Open Source CFD Toolbox
   \\    /   O peration     | Website:  https://openfoam.org
    \\  /    A nd           | Version:  9
     \\/     M anipulation  |
\*---------------------------------------------------------------------------*/
FoamFile
{
    format      ascii;
    class       volScalarField;
    location    "0.85";
    object      p;
}
// * * * * * * * * * * * * * * * * * * * * * * * * * * * * * * * * * * * * * //

dimensions      [0 2 -2 0 0 0 0];

internalField   nonuniform List<scalar> 
90
(
7.59631e-23
-4.35979e-23
-5.0563e-22
-1.45246e-21
-4.66333e-22
1.0349e-21
-6.10394e-24
1.48737e-22
2.28262e-22
1.28004e-22
-5.18466e-23
1.47246e-22
1.78708e-22
-6.77244e-22
3.88272e-22
2.85685e-21
-3.0696e-21
5.68511e-22
6.21379e-22
3.00843e-24
1.75299e-23
-1.60823e-23
-2.98935e-23
-1.98463e-22
1.28846e-23
-3.15898e-22
2.89456e-22
-2.14228e-22
-3.91473e-22
2.09875e-22
1.38002e-22
-5.23732e-22
-4.06975e-22
-2.48087e-22
-3.61022e-22
2.81497e-21
1.19753e-22
-4.46981e-21
-4.56177e-22
8.57514e-23
1.95308e-22
2.86299e-22
-6.5571e-22
3.91049e-23
6.3916e-24
-6.50967e-22
1.80478e-22
1.03764e-21
5.27022e-22
-8.23443e-22
-1.25311e-23
8.14557e-23
1.91494e-22
-5.4997e-22
1.82502e-22
7.12572e-22
-2.87465e-24
-2.83285e-23
4.98204e-23
-6.38199e-22
1.86065e-22
-6.85281e-22
-9.35634e-22
-7.93304e-23
4.09654e-22
2.53257e-22
-6.3732e-22
-7.30983e-22
-3.75736e-21
-1.13828e-22
1.31645e-21
1.29765e-22
-5.87651e-22
1.24202e-21
2.64041e-21
1.84769e-22
1.35296e-22
-4.92429e-22
-9.69696e-23
-1.38342e-23
-4.42372e-21
1.88781e-23
-2.17018e-23
2.42184e-21
-1.16361e-22
-9.90144e-22
7.21945e-23
1.25828e-22
1.64006e-21
2.50969e-22
)
;

boundaryField
{
    back
    {
        type            empty;
    }
    front
    {
        type            empty;
    }
    bottom
    {
        type            zeroGradient;
    }
    outer_arc
    {
        type            zeroGradient;
    }
    right
    {
        type            uniformFixedValue;
        uniformValue    
        {
            type            scale;
            scale           
            {
                type            squarePulse;
                start           0.3;
                duration        0.3;
            }
            xScale          
            {
                type            constant;
                value           1;
            }
            value           
            {
                type            constant;
                value           15.1;
            }
        }
        value           uniform 0;
    }
    inner_arc
    {
        type            zeroGradient;
    }
}


// ************************************************************************* //
