/*--------------------------------*- C++ -*----------------------------------*\
  =========                 |
  \\      /  F ield         | OpenFOAM: The Open Source CFD Toolbox
   \\    /   O peration     | Website:  https://openfoam.org
    \\  /    A nd           | Version:  9
     \\/     M anipulation  |
\*---------------------------------------------------------------------------*/
FoamFile
{
    format      ascii;
    class       surfaceScalarField;
    location    "0.85";
    object      phi;
}
// * * * * * * * * * * * * * * * * * * * * * * * * * * * * * * * * * * * * * //

dimensions      [0 3 -1 0 0 0 0];

internalField   nonuniform List<scalar> 
122
(
1.36431e-29
-4.39461e-30
5.12821e-30
-1.77881e-28
4.17954e-29
9.60299e-29
1.52263e-28
-1.76417e-28
-1.24721e-28
1.83668e-28
-2.06655e-28
-4.51937e-28
4.6612e-28
8.39993e-31
1.77536e-29
5.90006e-30
-2.35272e-30
-7.20521e-29
6.21355e-29
1.81704e-30
6.9911e-30
-2.88549e-29
-2.91074e-29
6.5532e-29
1.14059e-28
-1.94042e-28
6.88385e-29
-1.92094e-28
8.31673e-29
-3.13062e-29
2.19073e-28
1.15195e-28
-5.42488e-29
3.38834e-29
3.22598e-29
-3.04651e-30
-8.72606e-30
-4.04335e-29
5.14135e-29
3.34487e-29
-1.83294e-29
4.48277e-29
-2.33226e-29
1.70989e-29
4.93169e-29
-1.94858e-29
-1.59687e-29
2.62866e-29
3.711e-29
-1.67563e-29
5.98574e-31
4.39557e-29
-4.11408e-29
3.69302e-28
-1.97351e-28
1.08465e-29
6.12431e-30
2.1511e-29
4.39522e-30
1.25475e-29
1.60351e-29
-1.8853e-29
2.84779e-29
6.5655e-29
-1.09892e-28
-1.20022e-28
8.25553e-30
-1.18253e-29
9.93926e-30
-1.01004e-29
-3.67922e-29
6.74245e-30
-2.84141e-29
-1.8948e-29
6.29863e-30
-8.51345e-30
-5.91456e-30
-1.22093e-30
-6.23184e-29
3.81621e-29
-7.65611e-31
3.29865e-29
1.13668e-28
-3.46162e-29
1.06772e-29
3.87186e-29
-3.23586e-30
-1.20629e-29
-6.56622e-29
9.07874e-29
3.42027e-29
4.53065e-30
1.64264e-30
7.57903e-29
-6.92912e-29
-8.78936e-31
-6.15535e-30
-9.98921e-30
5.59028e-30
2.55614e-29
3.13116e-29
-4.63627e-29
-4.47308e-29
3.15374e-29
2.12994e-30
-8.71551e-29
2.18462e-29
-4.95675e-29
2.75084e-29
5.13871e-29
-2.63173e-28
2.67148e-28
1.60427e-28
-1.32559e-28
-1.23816e-29
-4.50495e-29
-2.74436e-29
1.23829e-29
-5.94669e-30
-4.74451e-30
6.57908e-29
-4.22447e-30
)
;

boundaryField
{
    back
    {
        type            empty;
        value           nonuniform List<scalar> 0();
    }
    front
    {
        type            empty;
        value           nonuniform List<scalar> 0();
    }
    bottom
    {
        type            calculated;
        value           uniform 0;
    }
    outer_arc
    {
        type            calculated;
        value           uniform 0;
    }
    right
    {
        type            calculated;
        value           nonuniform List<scalar> 4(2.91174e-30 9.22186e-31 -6.58554e-31 1.09385e-30);
    }
    inner_arc
    {
        type            calculated;
        value           uniform 0;
    }
}


// ************************************************************************* //
