/*--------------------------------*- C++ -*----------------------------------*\
  =========                 |
  \\      /  F ield         | OpenFOAM: The Open Source CFD Toolbox
   \\    /   O peration     | Website:  https://openfoam.org
    \\  /    A nd           | Version:  9
     \\/     M anipulation  |
\*---------------------------------------------------------------------------*/
FoamFile
{
    format      ascii;
    class       volVectorField;
    location    "0.85";
    object      U;
}
// * * * * * * * * * * * * * * * * * * * * * * * * * * * * * * * * * * * * * //

dimensions      [0 1 -1 0 0 0 0];

internalField   nonuniform List<vector> 
90
(
(3.22482e-22 -2.00315e-23 -2.96985e-39)
(2.72024e-21 3.00644e-21 5.32993e-38)
(-4.78499e-21 -1.07864e-21 -5.07917e-38)
(-4.2036e-21 4.68554e-21 5.03021e-38)
(6.23419e-21 8.97118e-21 1.29114e-37)
(1.67632e-21 1.59186e-21 -4.23448e-38)
(1.70681e-22 1.0801e-22 3.32821e-39)
(-2.47681e-22 -1.37484e-22 8.659e-39)
(1.79366e-22 -2.1445e-21 0)
(1.66145e-22 8.58173e-23 0)
(-1.41319e-21 2.77134e-22 -7.96502e-39)
(5.90273e-22 -5.98131e-21 1.07171e-38)
(-2.95153e-22 -1.92792e-22 2.23238e-39)
(-5.39746e-22 -1.0282e-21 -2.91255e-39)
(2.00098e-21 -4.1945e-21 0)
(5.44163e-21 2.6595e-21 0)
(2.61564e-21 8.59155e-21 -1.6548e-37)
(-4.2679e-21 -1.91256e-21 -2.33057e-38)
(-5.03085e-22 2.21867e-21 0)
(-3.78486e-22 -4.44008e-22 -5.43599e-39)
(-9.78818e-22 -4.73119e-22 5.01005e-39)
(4.58439e-22 5.32365e-22 4.48201e-39)
(-7.54755e-22 2.68758e-22 -1.11623e-38)
(-1.07533e-21 1.22055e-22 6.56185e-39)
(-8.02283e-22 1.81881e-24 -4.05953e-39)
(-5.14207e-22 1.27774e-21 8.27777e-39)
(-5.78255e-22 -7.88997e-23 -8.8262e-39)
(1.18277e-21 7.29948e-22 3.68436e-39)
(-9.90016e-21 -1.76241e-21 0)
(-2.87793e-22 2.51617e-22 -1.02965e-38)
(-5.22359e-22 -7.29219e-23 6.82429e-39)
(-1.18739e-21 1.42961e-22 -3.26613e-38)
(-1.10875e-21 -3.69694e-22 -9.99455e-39)
(-5.43002e-22 -5.02914e-22 1.89463e-38)
(-1.05454e-21 -3.13536e-22 -5.65255e-39)
(1.19419e-21 -3.33587e-21 -6.67636e-38)
(1.49453e-21 1.83648e-21 0)
(-1.5441e-21 2.4079e-21 0)
(-3.48735e-22 -4.6389e-23 1.0157e-38)
(-4.05248e-23 -2.26321e-22 1.67592e-39)
(4.07204e-22 -1.64549e-22 -9.70675e-40)
(4.3908e-23 -6.32913e-22 -2.08456e-38)
(3.47192e-23 -5.81611e-24 -3.61572e-39)
(2.6416e-22 -4.68447e-23 -2.49431e-39)
(6.73007e-23 5.82066e-23 -5.8214e-40)
(1.01138e-21 2.13688e-21 2.43914e-38)
(-3.41398e-22 5.01894e-22 2.72351e-39)
(1.73968e-21 -2.51444e-21 2.73637e-38)
(-1.41242e-21 -3.34314e-23 -2.7138e-38)
(7.49456e-22 -3.8918e-21 3.40728e-39)
(-1.65141e-22 -1.25083e-22 0)
(1.23383e-22 2.02774e-22 -5.11915e-39)
(1.52756e-21 -2.15564e-21 -3.99406e-41)
(3.59761e-22 5.44978e-22 0)
(1.75166e-22 2.24578e-22 1.04721e-38)
(2.31167e-21 5.9153e-22 -2.80226e-40)
(5.87138e-23 -4.4002e-23 4.18322e-40)
(-4.64845e-22 1.00465e-21 0)
(2.69628e-22 1.11487e-22 0)
(-9.03104e-22 6.51315e-22 3.60569e-38)
(5.88494e-22 -3.06475e-22 1.40206e-38)
(1.17752e-21 1.82422e-21 0)
(-1.50187e-22 4.86322e-22 4.37247e-38)
(2.31621e-21 -4.06327e-22 -2.54977e-39)
(1.31709e-21 7.12681e-22 2.853e-38)
(-2.8419e-21 3.24147e-22 9.61848e-39)
(-1.11225e-21 -9.10204e-22 0)
(-1.06744e-21 8.60388e-22 0)
(-8.64155e-21 1.00745e-21 1.6224e-38)
(-1.03329e-20 2.11077e-21 4.19367e-38)
(4.77632e-21 -2.71505e-21 0)
(3.37787e-22 2.43859e-22 6.23038e-39)
(2.89146e-21 -2.01742e-21 0)
(-6.07405e-22 2.64728e-21 9.13078e-38)
(-7.12547e-21 1.61637e-22 -4.2341e-38)
(-1.74857e-22 6.8239e-22 -6.16105e-39)
(2.54413e-22 8.60697e-23 -1.26424e-39)
(6.26183e-22 5.72043e-22 0)
(1.75894e-22 -8.7639e-22 -1.12752e-38)
(3.1084e-22 1.48303e-22 2.96203e-39)
(-5.67247e-21 5.13923e-22 1.84373e-37)
(7.72807e-23 1.47924e-23 1.46483e-40)
(-8.33371e-22 1.47302e-21 -4.19748e-39)
(2.57661e-21 -5.88236e-22 6.38872e-38)
(7.1292e-22 2.3387e-21 3.52259e-39)
(-2.11553e-22 4.11233e-22 -2.85723e-38)
(2.49748e-22 1.46086e-23 3.21264e-39)
(3.53503e-22 1.84722e-23 -3.50656e-40)
(1.97575e-21 2.14751e-21 -1.5746e-37)
(2.7333e-22 1.6417e-22 -6.03368e-39)
)
;

boundaryField
{
    back
    {
        type            empty;
    }
    front
    {
        type            empty;
    }
    bottom
    {
        type            uniformFixedValue;
        uniformValue    
        {
            type            scale;
            scale           
            {
                type            squarePulse;
                start           0.3;
                duration        0.3;
            }
            xScale          
            {
                type            constant;
                value           1;
            }
            value           
            {
                type            constant;
                value           (0 0.7 0);
            }
        }
        value           uniform (0 0 0);
    }
    outer_arc
    {
        type            noSlip;
    }
    right
    {
        type            zeroGradient;
    }
    inner_arc
    {
        type            noSlip;
    }
}


// ************************************************************************* //
