/*--------------------------------*- C++ -*----------------------------------*\
  =========                 |
  \\      /  F ield         | OpenFOAM: The Open Source CFD Toolbox
   \\    /   O peration     | Website:  https://openfoam.org
    \\  /    A nd           | Version:  9
     \\/     M anipulation  |
\*---------------------------------------------------------------------------*/
FoamFile
{
    format      ascii;
    class       volVectorField;
    location    "0.48";
    object      U;
}
// * * * * * * * * * * * * * * * * * * * * * * * * * * * * * * * * * * * * * //

dimensions      [0 1 -1 0 0 0 0];

internalField   nonuniform List<vector> 
578
(
(-0.0534 -0.0635 0)
(-0.0283 -0.1 3.07e-16)
(-0.0808 -0.0954 -1.1e-16)
(0.00663 -0.113 -2.54e-17)
(0.0175 -0.0389 -5.04e-17)
(0.00679 -0.144 -9.37e-17)
(-0.0182 -0.04 5.01e-17)
(0.0203 -0.0377 -3.1e-20)
(0.0959 -0.139 -2.06e-16)
(-0.017 -0.0622 4.71e-16)
(0.00835 -0.156 -1.36e-16)
(0.0596 -0.118 0)
(0.0115 -0.133 1.04e-16)
(0.0615 -0.127 -7.98e-16)
(-0.0627 -0.128 4.01e-16)
(0.106 -0.112 -9.6e-17)
(-0.0727 -0.0686 4.43e-16)
(-0.118 -0.0991 0)
(0.0546 -0.107 0)
(0.104 -0.135 1.45e-16)
(0.00643 -0.127 0)
(0.0826 -0.102 0)
(0.0508 -0.0462 -5.26e-16)
(-0.000154 -0.115 0)
(-0.00183 -0.0911 0)
(0.0525 -0.107 4.09e-16)
(-0.00622 -0.108 -5.16e-17)
(-0.000632 -0.0536 2.97e-17)
(-0.0248 -0.121 -4.95e-16)
(0.11 -0.118 3.91e-16)
(-0.0022 -0.0927 -4.91e-16)
(0.00629 -0.118 1.04e-16)
(0.122 -0.127 -3.69e-16)
(-0.00271 -0.124 1.99e-16)
(-0.0543 -0.115 -3.97e-16)
(0.0936 -0.098 -6.02e-16)
(0.0531 -0.112 7.82e-16)
(0.0502 -0.0986 0)
(-0.106 -0.114 -3.87e-16)
(0.0281 -0.0603 0)
(0.0287 -0.0657 -4.09e-16)
(0.0342 -0.0622 4.88e-16)
(0.0296 -0.0582 0)
(-0.0561 -0.112 0)
(0.0894 -0.0841 5.13e-17)
(-0.0289 -0.062 0)
(-0.0296 -0.0676 4.09e-16)
(0.0872 -0.128 -5.11e-17)
(-0.105 -0.113 5.77e-16)
(-0.00998 -0.129 -1.09e-16)
(0.00126 -0.0547 1.61e-17)
(0.018 -0.138 -4.38e-16)
(0.0772 -0.0559 -2.17e-16)
(-0.00305 -0.126 0)
(0.00162 -0.125 3.62e-16)
(-0.00631 -0.151 8.55e-16)
(0.0203 -0.0173 8.95e-16)
(0.0622 -0.0497 -4.29e-16)
(-0.0927 -0.0944 -7.44e-16)
(0.0584 -0.0629 2.29e-16)
(-0.11 -0.106 3.93e-16)
(-0.065 -0.0457 0)
(-0.0981 -0.0731 5.82e-17)
(0.0555 -0.112 3.72e-16)
(-0.00575 -0.135 9.9e-17)
(-0.0709 -0.129 2.19e-16)
(0.117 -0.133 -4.46e-17)
(0.0148 -0.152 3.2e-16)
(0.124 -0.114 -1.86e-16)
(0.0612 -0.131 4.35e-16)
(0.000217 -0.0976 0)
(0.00198 -0.0973 -1.46e-17)
(0.000164 -0.131 -1.08e-16)
(0.062 -0.134 0)
(0.00228 -0.168 1.96e-16)
(0.0178 -0.0367 0)
(0.0832 -0.117 2.64e-16)
(0.0674 -0.0937 -2.22e-16)
(0.00725 -0.136 0)
(-0.0526 -0.0566 -1.21e-16)
(0.0527 -0.114 -3.75e-16)
(-0.0259 -0.0377 -4.28e-16)
(0.0155 -0.0375 -1.95e-16)
(0.026 -0.037 1.97e-16)
(-0.113 -0.135 -5.26e-17)
(-0.0224 -0.0596 0)
(0.000936 -0.0317 0)
(-0.00599 -0.165 -3.11e-16)
(0.043 -0.097 1.48e-20)
(-0.0474 -0.108 3.62e-18)
(-0.00501 -0.118 0)
(-0.0985 -0.123 1.07e-16)
(-0.0438 -0.0991 0)
(0.0191 -0.149 1.91e-16)
(0.113 -0.116 5.89e-16)
(0.0786 -0.105 -5.14e-16)
(0.000111 -0.126 1.06e-16)
(0.00595 -0.127 -7.61e-16)
(-0.00564 -0.0376 -8.45e-16)
(-0.0616 -0.129 0)
(-0.0671 -0.116 0)
(0.0571 -0.126 -6.95e-16)
(-0.0194 -0.145 0)
(-0.0823 -0.0859 0)
(-0.00499 -0.126 0)
(0.0603 -0.127 -5.93e-16)
(0.00314 -0.152 -2.07e-16)
(0.0297 -0.0636 0)
(-0.0129 -0.0339 0)
(0.0345 -0.0675 -5.1e-16)
(0.0946 -0.108 -1.61e-16)
(0.0588 -0.125 0)
(0.11 -0.13 4.32e-16)
(0.0914 -0.112 -3.55e-16)
(0.0956 -0.114 3.77e-16)
(-0.018 -0.138 4.3e-16)
(0.0104 -0.128 2.23e-16)
(-0.0738 -0.119 -3.3e-16)
(-0.0412 -0.0932 5.81e-17)
(-0.00588 -0.127 3.75e-16)
(0.0435 -0.087 -3.94e-16)
(0.0413 -0.0622 2.74e-21)
(0.0592 -0.12 -4.21e-16)
(0.00354 -0.104 -5.74e-17)
(0.0344 -0.0601 0)
(-0.0523 -0.127 4.38e-16)
(0.0351 -0.115 -4.14e-16)
(0.12 -0.119 -2.07e-16)
(-0.063 -0.135 2.2e-16)
(-0.0453 -0.127 0)
(-0.0626 -0.128 0)
(-0.0522 -0.129 0)
(0.0175 -0.146 0)
(0.0124 -0.0247 4.42e-16)
(-0.0619 -0.132 -4.08e-16)
(-0.0641 -0.107 0)
(0.0526 -0.0996 0)
(-0.0102 -0.132 -3.69e-16)
(0.0736 -0.114 4.12e-16)
(-0.0544 -0.107 0)
(-0.0279 -0.0527 5.33e-16)
(-0.0464 -0.127 0)
(-0.0468 -0.091 0)
(-0.000171 -0.0969 0)
(0.0244 -0.0474 0)
(-0.114 -0.126 1.08e-20)
(-0.0404 -0.0899 4.72e-16)
(-0.0106 -0.0839 0)
(0.0627 -0.131 4.39e-16)
(-0.0451 -0.12 0)
(0.0776 -0.14 0)
(-0.0306 -0.042 0)
(0.0266 -0.0262 0)
(0.0218 -0.0434 5.26e-16)
(-0.0683 -0.138 -4.06e-16)
(-0.00985 -0.113 -2.29e-16)
(-0.0287 -0.137 4.39e-16)
(0.0183 -0.126 -1.02e-16)
(-0.0228 -0.0224 -1.07e-16)
(0.082 -0.141 -3.46e-16)
(0.0703 -0.128 4.93e-16)
(0.0663 -0.113 5.13e-16)
(-0.0151 -0.0288 -6.72e-18)
(0.0706 -0.124 0)
(-0.000154 -0.0294 3.4e-20)
(-0.0479 -0.114 5.88e-21)
(-0.000272 -0.054 -5.27e-16)
(-0.061 -0.119 0)
(0.0123 -0.086 -1.15e-16)
(-0.01 -0.158 -1.77e-16)
(0.0678 -0.109 0)
(0.0314 -0.0573 0)
(-0.0381 -0.0642 0)
(-0.0219 -0.0436 -5.29e-16)
(-0.0531 -0.101 0)
(-0.007 -0.143 -1.01e-16)
(-0.000372 -0.147 -1.02e-16)
(-0.0715 -0.115 3.82e-16)
(0.0417 -0.0695 5.83e-17)
(-0.00319 -0.0986 2.38e-16)
(-0.0324 -0.0584 0)
(-0.0537 -0.0969 0)
(-0.0351 -0.0994 0)
(0.00718 -0.144 7.62e-16)
(-0.0768 -0.12 2.78e-16)
(-0.00776 -0.0622 -3.85e-16)
(0.0365 -0.0443 -1.97e-16)
(-0.0644 -0.135 1e-16)
(-0.0724 -0.141 4.23e-16)
(-0.00168 -0.0559 -5.31e-16)
(0.0707 -0.139 -4.2e-16)
(0.0599 -0.11 0)
(0.0562 -0.0728 4.93e-16)
(-0.0565 -0.107 0)
(-0.0356 -0.0622 0)
(-0.00251 -0.167 1.93e-16)
(0.00499 -0.0684 9.92e-16)
(-0.00492 -0.0674 -7.91e-16)
(-0.06 -0.111 0)
(0.0556 -0.106 0)
(0.00914 -0.0648 -3.79e-16)
(0.0132 -0.15 -9.61e-16)
(0.0201 -0.0641 -2.47e-16)
(-0.00698 -0.162 0)
(-0.00148 -0.154 -3.08e-16)
(0.0608 -0.118 0)
(-0.07 -0.125 0)
(-0.0744 -0.0854 0)
(0.0728 -0.141 4.31e-16)
(-0.0327 -0.0374 0)
(-0.0325 -0.0721 4.79e-16)
(-0.0744 -0.143 -4.14e-16)
(-0.0587 -0.125 -1.36e-17)
(0.00398 -0.159 1e-16)
(-0.0511 -0.104 -2.37e-16)
(0.00306 -0.115 0)
(-0.0655 -0.125 -4.45e-16)
(0.0645 -0.124 4.46e-16)
(-0.0699 -0.142 4.28e-16)
(-0.018 -0.0374 -5.45e-16)
(0.0682 -0.14 2.18e-16)
(-0.0579 -0.113 0)
(0.0379 -0.0783 -4.7e-16)
(0.0358 -0.0669 0)
(-0.0345 -0.0647 0)
(-0.0383 -0.0785 9.47e-16)
(0.000235 -0.174 -9.68e-17)
(0.00446 -0.0419 6.23e-20)
(-0.00355 -0.0412 2.07e-16)
(-0.000485 -0.0295 4.22e-16)
(-0.0137 -0.0346 -4.27e-16)
(0.0067 -0.0343 -2.15e-16)
(-0.0124 -0.0248 -4.39e-16)
(0.0381 -0.109 0)
(-0.0388 -0.111 0)
(0.0253 -0.0398 1.5e-16)
(0.0195 -0.0372 0)
(-0.0199 -0.0373 0)
(0.0223 -0.144 1.58e-16)
(0.0321 -0.0715 0)
(-0.0173 -0.0316 0)
(0.0172 -0.0301 0)
(-0.00266 -0.171 -3.94e-16)
(-0.0293 -0.0551 0)
(-0.00242 -0.0356 8.16e-16)
(0.0136 -0.0274 0)
(-0.0147 -0.0277 -4.24e-16)
(-0.00541 -0.0621 9.82e-16)
(-0.021 -0.0331 0)
(-0.00424 -0.155 -9.91e-17)
(0.00249 -0.165 9.82e-17)
(-0.0568 -0.13 0)
(0.0097 -0.103 0)
(0.0119 -0.0327 -4.26e-18)
(0.000963 -0.0281 0)
(0.0453 -0.125 4.35e-16)
(-0.000634 -0.0552 5.25e-16)
(-0.0827 -0.143 -6.59e-16)
(0.0209 -0.0374 0)
(0.00601 -0.0611 5.28e-16)
(0.0179 -0.0371 5.41e-16)
(-0.0183 -0.033 4.28e-16)
(0.00144 -0.0355 -8.33e-16)
(0.00213 -0.0629 5.57e-16)
(-0.0483 -0.11 3.42e-16)
(0.0464 -0.098 8.45e-16)
(0.0239 -0.0656 0)
(0.00811 -0.0183 -4.39e-16)
(-0.00137 -0.0309 -4.31e-16)
(0.00376 -0.0152 0)
(-0.00383 -0.0154 0)
(-0.0529 -0.124 -4.23e-16)
(0.0321 -0.0828 0)
(-0.000326 -0.177 -2.85e-16)
(0.00997 -0.157 -2.11e-16)
(-0.00232 -0.176 -5.73e-16)
(-0.00499 -0.139 2.26e-16)
(-0.00817 -0.0184 0)
(-0.0359 -0.0657 0)
(-0.00235 -0.166 -5.03e-16)
(0.0337 -0.0641 0)
(-0.00413 -0.169 8.68e-16)
(0.00108 -0.177 0)
(0.00532 -0.167 -9.75e-17)
(-0.00195 -0.177 1.94e-16)
(-0.0247 -0.0479 -5.14e-16)
(0.0106 -0.021 -8.68e-16)
(-0.0107 -0.0211 4.38e-16)
(-0.000789 -0.0232 0)
(0.000121 -0.0537 -5.2e-16)
(0.0389 -0.108 0)
(-0.0582 -0.129 1.35e-17)
(-0.00771 -0.158 1.77e-16)
(-0.0208 -0.0357 0)
(0.000739 -0.0285 0)
(0.00182 -0.0578 6.44e-17)
(0.0179 -0.0328 -4.28e-16)
(0.0445 -0.125 -1.04e-15)
(-4.68e-05 -0.0568 1.19e-16)
(0.000675 -0.058 -4.67e-16)
(-0.00305 -0.152 5.19e-16)
(-0.0398 -0.11 0)
(0.000147 -0.0332 4.17e-16)
(9.43e-06 -0.0279 0)
(0.0012 -0.0337 0)
(-0.000191 -0.0348 7.9e-16)
(0.0443 -0.118 4.29e-16)
(-0.00271 -0.118 -1.03e-15)
(-0.000917 -0.182 -3.76e-16)
(-0.00089 -0.181 0)
(0.0399 -0.0892 2.38e-16)
(-0.00109 -0.179 2.83e-16)
(-0.000584 -0.183 -5.96e-16)
(-0.0326 -0.0836 0)
(-0.00151 -0.175 3.9e-16)
(0.00299 -0.17 4.04e-16)
(-0.0545 -0.12 0)
(-0.0121 -0.033 0)
(-0.0242 -0.0663 0)
(-0.00216 -0.165 -4.85e-16)
(-0.0465 -0.0972 -4.74e-16)
(0.000459 -0.179 7.78e-16)
(-0.00528 -0.168 1e-16)
(0.000232 -0.159 -3.15e-16)
(-0.00793 -0.157 4.01e-16)
(0.00129 -0.173 -1.84e-16)
(-0.0786 -0.142 3.96e-16)
(-0.0496 -0.0953 0)
(0.067 -0.136 0)
(0.000735 -0.177 7.22e-16)
(-0.0141 -0.147 1.04e-16)
(-0.0893 -0.14 -1.57e-16)
(-0.000304 -0.182 1.91e-16)
(0.00211 -0.161 -3.97e-16)
(-0.0432 -0.0861 7.06e-16)
(-0.000689 -0.174 1.97e-16)
(0.00935 -0.16 -1.82e-16)
(0.00256 -0.159 -4.12e-16)
(-0.000392 -0.119 0)
(-0.00522 -0.142 0)
(0.00433 -0.166 -2e-16)
(0.00369 -0.171 2.95e-16)
(-0.0012 -0.18 2.82e-16)
(-0.000996 -0.102 4.21e-16)
(-0.00057 -0.18 2.86e-16)
(0.0741 -0.099 -1.2e-16)
(0.0403 -0.123 2.33e-16)
(-0.0122 -0.0281 -4.34e-16)
(0.0116 -0.0267 1.1e-16)
(-0.0133 -0.0303 4.28e-16)
(0.0134 -0.0301 0)
(0.0136 -0.0285 4.37e-16)
(-0.0138 -0.0289 2.18e-16)
(-0.00222 -0.16 -1.98e-16)
(0.0145 -0.0327 0)
(-0.015 -0.0344 0)
(-0.000164 -0.18 -2.85e-16)
(-0.0178 -0.0363 -4.19e-16)
(0.0226 -0.0401 0)
(-0.0228 -0.041 0)
(-0.00201 -0.176 -3.1e-16)
(-0.0204 -0.0188 0)
(-0.000197 -0.181 9.64e-17)
(0.012 -0.029 4.86e-16)
(-0.000623 -0.182 -9.93e-17)
(0.000706 -0.151 -4.22e-16)
(-0.00202 -0.179 9.99e-17)
(0.0579 -0.121 4.3e-16)
(0.0122 -0.156 1.76e-16)
(-0.0561 -0.0494 0)
(0.0551 -0.122 0)
(-0.0569 -0.0365 -5.16e-17)
(-0.0867 -0.086 4.17e-16)
(0.0442 -0.13 -2.14e-16)
(-0.122 -0.132 -2.16e-16)
(0.0561 -0.0338 3.93e-16)
(-0.0134 -0.153 -1.02e-16)
(-0.0234 -0.0541 -5.45e-16)
(0.0233 -0.0524 3.91e-16)
(-0.04 -0.0824 -4.8e-16)
(-0.00138 -0.125 -3.72e-16)
(0.0238 -0.0546 -2.72e-16)
(-0.0242 -0.0552 0)
(0.00496 -0.167 -4.87e-16)
(0.00203 -0.173 2.88e-16)
(-0.00163 -0.162 6e-16)
(-0.00298 -0.0334 -5.5e-16)
(-0.0302 -0.0652 5.03e-16)
(-0.035 -0.0675 0)
(0.0215 -0.0508 -3.36e-16)
(0.00466 -0.125 1.85e-16)
(0.0222 -0.129 0)
(0.0141 -0.144 4.24e-16)
(0.0469 -0.113 -2.09e-16)
(-0.127 -0.12 3.66e-16)
(0.0159 -0.0882 2.23e-16)
(0.104 -0.0731 3.76e-18)
(0.000219 -0.153 5.42e-16)
(0.00809 -0.115 4.63e-16)
(-0.00175 -0.0486 5.48e-16)
(-0.12 -0.124 -7.23e-16)
(0.00182 -0.0518 -4.99e-16)
(-0.00969 -0.0615 2.58e-16)
(-0.0153 -0.121 3.31e-16)
(-0.0156 -0.13 0)
(-0.012 -0.141 0)
(0.116 -0.0954 0)
(-0.0352 -0.109 6.89e-16)
(0.0124 -0.158 -5.08e-16)
(0.0319 -0.139 -4.19e-16)
(-0.0121 -0.124 -8.6e-16)
(-0.0544 -0.123 1.08e-16)
(-0.00408 -0.146 5.91e-21)
(-0.0438 -0.111 -9.05e-16)
(-0.0499 -0.121 -1.08e-16)
(0.0207 -0.149 1.02e-16)
(0.0486 -0.108 -4.77e-16)
(-0.0496 -0.11 -2.38e-16)
(0.063 -0.135 0)
(-0.0133 -0.149 1.02e-16)
(-0.058 -0.129 5.57e-17)
(0.00014 -0.0272 -2.82e-20)
(0.0638 -0.133 0)
(-0.0613 -0.127 5.89e-16)
(-0.0559 -0.126 0)
(0.0506 -0.124 -2.23e-16)
(0.0217 -0.0587 6.56e-16)
(-0.00913 -0.138 -4.82e-16)
(0.0122 -0.033 -4.02e-16)
(0.0506 -0.127 0)
(-0.103 -0.134 0)
(0.00176 -0.175 -1.94e-16)
(0.0775 -0.0839 -1.13e-16)
(0.0138 -0.129 0)
(-0.0133 -0.031 -2.11e-16)
(0.0575 -0.127 -2.16e-16)
(0.0478 -0.106 0)
(-0.0411 -0.134 -4.22e-16)
(0.0342 -0.0975 0)
(-0.0225 -0.146 4.26e-16)
(-0.0375 -0.136 -3.31e-16)
(0.00712 -0.149 0)
(0.0161 -0.133 2.29e-16)
(0.0012 -0.121 0)
(-0.0965 -0.141 0)
(-0.00663 -0.17 4.11e-16)
(-0.000446 -0.097 -3.65e-16)
(-0.0846 -0.109 -4.24e-16)
(-0.0696 -0.0993 6.03e-16)
(0.00108 -0.0272 0)
(-0.0651 -0.134 1.13e-16)
(-0.0136 -0.127 0)
(-0.0569 -0.125 1.03e-21)
(0.0119 -0.126 1.8e-16)
(-0.0672 -0.14 -4.06e-16)
(-0.00286 -0.101 0)
(-0.00833 -0.0986 -7.59e-18)
(0.0544 -0.104 2.15e-16)
(0.000429 -0.17 6.22e-16)
(-0.0869 -0.116 0)
(0.025 -0.0983 4.71e-16)
(-0.0376 -0.0416 2.51e-16)
(-0.0208 -0.151 -1.6e-16)
(0.0221 -0.0577 -3.04e-16)
(-0.00321 -0.175 1.01e-16)
(0.0806 -0.123 -2.32e-20)
(-0.0238 -0.0602 0)
(0.0373 -0.0395 -2.56e-16)
(-0.0171 -0.155 2.13e-16)
(0.0537 -0.119 -6.64e-16)
(0.0015 -0.142 -4.73e-16)
(-0.00202 -0.0288 0)
(-0.0187 -0.0243 0)
(-0.0158 -0.121 2.27e-16)
(-0.000522 -0.158 -4.3e-16)
(0.0555 -0.122 2.1e-16)
(0.0551 -0.127 4.46e-16)
(0.0157 -0.0196 2.12e-16)
(0.0321 -0.0416 1.03e-16)
(0.0745 -0.0851 1.92e-16)
(-3.56e-05 -0.145 0)
(0.00455 -0.171 2.02e-16)
(-0.116 -0.12 -3.18e-16)
(-0.000597 -0.17 -9.77e-16)
(-0.0148 -0.13 1.81e-16)
(0.042 -0.109 2.34e-16)
(0.000373 -0.144 3.35e-16)
(-0.00267 -0.0652 0)
(-0.0216 -0.136 0)
(-0.0859 -0.131 -2.11e-16)
(0.00282 -0.0657 -1.91e-16)
(-0.111 -0.134 5.06e-17)
(0.0517 -0.123 2.65e-17)
(0.026 -0.143 5.49e-17)
(-0.0161 -0.152 -2.11e-16)
(-0.0229 -0.0538 5.3e-16)
(-0.00315 -0.113 2.37e-16)
(-0.06 -0.131 2.15e-16)
(-0.009 -0.123 1.78e-16)
(0.00858 -0.124 0)
(0.0621 -0.133 -2.24e-16)
(-0.00839 -0.164 -4.16e-16)
(0.0375 -0.0926 0)
(0.00552 -0.154 6.21e-16)
(-0.105 -0.114 1.22e-16)
(-0.0239 -0.142 0)
(-0.0404 -0.0918 2.53e-16)
(0.0151 -0.147 0)
(-0.0397 -0.096 4.71e-16)
(-0.029 -0.14 0)
(0.00247 -0.12 4.28e-16)
(0.0573 -0.0985 0)
(0.00268 -0.0973 -4.81e-16)
(-0.042 -0.0987 -2.63e-16)
(-0.0498 -0.111 -5.99e-17)
(0.00016 -0.0571 -4.92e-16)
(0.0605 -0.128 2.28e-16)
(0.0416 -0.097 0)
(0.00129 -0.11 0)
(0.0304 -0.14 4.37e-16)
(0.000517 -0.157 -3.09e-16)
(0.0424 -0.0821 -3.82e-16)
(-0.002 -0.173 1.01e-16)
(0.0379 -0.0875 0)
(0.0536 -0.118 2.46e-16)
(0.0034 -0.14 -5.95e-16)
(0.000392 -0.113 3.11e-16)
(0.00961 -0.111 -2.44e-16)
(0.0858 -0.115 1.09e-16)
(-0.00707 -0.114 2.47e-16)
(0.0504 -0.0735 0)
(0.0662 -0.137 0)
(-0.0039 -0.058 -4.81e-16)
(0.00132 -0.146 0)
(0.0312 -0.134 5.07e-16)
(-0.0382 -0.0564 -2.68e-16)
(0.00147 -0.0898 0)
(-0.0473 -0.106 -3.06e-16)
(-0.0747 -0.0864 -2.95e-17)
(-0.0176 -0.106 5.04e-16)
(0.0189 -0.108 1.32e-19)
(0.0213 -0.137 -2.82e-17)
(0.0396 -0.0578 0)
(0.0435 -0.0985 2.62e-16)
(0.0182 -0.115 0)
(-0.00226 -0.148 -2.23e-16)
(0.000423 -0.112 0)
(-0.0759 -0.107 0)
(0.102 -0.119 -1.09e-16)
(0.0441 -0.103 2.43e-16)
(0.105 -0.0964 3.04e-17)
(-0.0644 -0.13 -1.24e-16)
(0.0534 -0.122 -2.14e-16)
(-0.0832 -0.118 1.11e-16)
(0.0728 -0.101 -1.23e-16)
(-0.00919 -0.165 -1.04e-16)
(0.0883 -0.139 -2.8e-16)
(-0.000971 -0.172 1.19e-16)
(0.00278 -0.143 1.18e-16)
(-0.019 -0.146 6.22e-17)
(-0.0222 -0.147 0)
(-0.049 -0.0753 0)
(0.0378 -0.0856 -5.56e-16)
(-0.0306 -0.135 0)
(0.0315 -0.136 -2.32e-16)
(0.00118 -0.135 0)
(0.0208 -0.134 2.34e-16)
(-0.0146 -0.153 1.56e-16)
(-0.032 -0.136 -2.52e-16)
(0.031 -0.136 -2.52e-16)
(-0.0576 -0.126 2.32e-16)
(-0.0866 -0.108 0)
(0.0901 -0.0812 -1.74e-16)
(-0.0146 -0.141 -4.94e-16)
(-0.107 -0.116 1.21e-16)
(0.000863 -0.138 0)
(-0.105 -0.122 2.52e-16)
(-0.0886 -0.0986 0)
)
;

boundaryField
{
    front
    {
        type            empty;
    }
    back
    {
        type            empty;
    }
    bottom
    {
        type            zeroGradient;
    }
    left
    {
        type            noSlip;
    }
    top
    {
        type            uniformFixedValue;
        uniformValue    
        {
            type            table;
            format          csv;
            file            "inlet_v.csv";
            nHeaderLine     1;
            refColumn       0;
            componentColumns List<label> 3(1 2 3);
            separator       ",";
            mergeSeparators 0;
        }
        value           uniform (0 -0.124 0);
    }
    right
    {
        type            noSlip;
    }
    inner_arc
    {
        type            noSlip;
    }
}


// ************************************************************************* //
