/*--------------------------------*- C++ -*----------------------------------*\
  =========                 |
  \\      /  F ield         | OpenFOAM: The Open Source CFD Toolbox
   \\    /   O peration     | Website:  https://openfoam.org
    \\  /    A nd           | Version:  9
     \\/     M anipulation  |
\*---------------------------------------------------------------------------*/
FoamFile
{
    format      ascii;
    class       volScalarField;
    location    "0.49";
    object      p;
}
// * * * * * * * * * * * * * * * * * * * * * * * * * * * * * * * * * * * * * //

dimensions      [0 2 -2 0 0 0 0];

internalField   nonuniform List<scalar> 
942
(
13.1601
13.1556
13.1454
13.1627
13.1452
13.1514
13.1593
13.151
13.1629
13.163
13.158
13.1517
13.1626
13.1579
13.1517
13.1552
13.1558
13.1608
13.1537
13.1568
13.1553
13.1508
13.1489
13.1456
13.1579
13.146
13.1521
13.1506
13.1529
13.1594
13.1479
13.1518
13.1512
13.1472
13.1546
13.1337
13.1294
13.1613
13.1289
13.1472
13.1463
13.1415
13.1463
13.16
13.1584
13.1539
13.1514
13.1466
13.1446
13.1579
13.1544
13.1527
13.135
13.1462
13.1629
13.1426
13.1527
13.1628
13.1529
13.1487
13.1591
13.1535
13.1472
13.1562
13.1608
13.1545
13.1533
13.1495
13.1414
13.1601
13.1562
13.1621
13.1551
13.1611
13.1429
13.1567
13.157
13.1544
13.1465
13.1549
13.1532
13.1476
13.1576
13.1548
13.1538
13.1484
13.1486
13.1527
13.1578
13.1574
13.1432
13.1566
13.1628
13.1439
13.1403
13.1565
13.1402
13.153
13.1533
13.16
13.1608
13.1628
13.1521
13.1599
13.1414
13.1574
13.1547
13.1537
13.1484
13.1502
13.139
13.1422
13.1496
13.1626
13.1578
13.1562
13.1503
13.1626
13.1593
13.1478
13.158
13.1361
13.1415
13.1552
13.1551
13.145
13.1482
13.1497
13.1513
13.1313
13.1517
13.1524
13.1501
13.1451
13.1465
13.1524
13.1363
13.1486
13.1397
13.1424
13.144
13.1522
13.1504
13.1448
13.1515
13.1497
13.1604
13.162
13.1317
13.1492
13.1508
13.1479
13.1562
13.1559
13.1554
13.1301
13.1542
13.1627
13.1495
13.1566
13.1536
13.1327
13.1626
13.1511
13.1478
13.1579
13.1606
13.1586
13.1547
13.1516
13.148
13.1446
13.1383
13.1564
13.1471
13.1604
13.1565
13.161
13.1437
13.159
13.1564
13.1529
13.13
13.16
13.1609
13.1506
13.1527
13.1462
13.1486
13.1576
13.1522
13.1563
13.1538
13.1506
13.1462
13.1625
13.1476
13.1575
13.1468
13.1398
13.16
13.1626
13.1456
13.1558
13.1517
13.1451
13.1386
13.1471
13.1428
13.1432
13.1473
13.1624
13.1625
13.1526
13.1453
13.1594
13.1476
13.1558
13.1491
13.1498
13.1536
13.161
13.1533
13.1616
13.1618
13.1521
13.1528
13.1445
13.1589
13.1518
13.1528
13.1483
13.1545
13.1606
13.1578
13.1626
13.1557
13.1503
13.1504
13.1512
13.1519
13.1582
13.1446
13.1603
13.1598
13.1468
13.1357
13.1616
13.141
13.1492
13.1519
13.1459
13.1533
13.1473
13.1581
13.1622
13.1499
13.1526
13.1554
13.1603
13.1533
13.1564
13.1539
13.1555
13.1345
13.1626
13.1594
13.149
13.1522
13.1346
13.1305
13.1489
13.1472
13.1514
13.1484
13.1567
13.1497
13.1504
13.1513
13.1429
13.1575
13.1332
13.1404
13.1496
13.1548
13.1498
13.1504
13.147
13.1552
13.1524
13.1552
13.1473
13.1574
13.1344
13.152
13.1551
13.1488
13.1496
13.1491
13.1508
13.153
13.1513
13.1486
13.1475
13.1534
13.1439
13.1453
13.152
13.1567
13.1569
13.1604
13.1576
13.1508
13.1557
13.1398
13.158
13.155
13.1536
13.157
13.151
13.157
13.1576
13.1576
13.1545
13.1482
13.1568
13.1579
13.136
13.143
13.1519
13.155
13.1317
13.1481
13.148
13.1499
13.1545
13.1467
13.1544
13.1541
13.1337
13.1532
13.1564
13.1443
13.154
13.1515
13.1548
13.1525
13.1419
13.1457
13.1505
13.1544
13.1501
13.1386
13.1498
13.1542
13.1502
13.1535
13.1352
13.1543
13.1561
13.1497
13.1497
13.1522
13.1318
13.1482
13.1526
13.1506
13.1518
13.1464
13.1566
13.1464
13.154
13.1496
13.1446
13.1543
13.1515
13.1539
13.1525
13.1374
13.1509
13.1463
13.1562
13.1438
13.1317
13.152
13.1507
13.1489
13.1516
13.1534
13.1504
13.148
13.1377
13.1504
13.1532
13.1424
13.1487
13.1502
13.1459
13.152
13.1353
13.1403
13.1442
13.1529
13.1501
13.1474
13.1548
13.1319
13.1541
13.1456
13.1363
13.1506
13.1522
13.149
13.1505
13.1491
13.1402
13.139
13.1475
13.1553
13.1463
13.1495
13.1475
13.15
13.1466
13.1482
13.1498
13.1544
13.1565
13.152
13.1535
13.1524
13.1514
13.1529
13.1563
13.1372
13.1488
13.152
13.1477
13.1466
13.1526
13.1459
13.1503
13.1535
13.1531
13.1446
13.1514
13.1548
13.1559
13.148
13.1417
13.1548
13.1567
13.1565
13.144
13.1555
13.155
13.155
13.1555
13.1419
13.1564
13.1517
13.1527
13.1539
13.1554
13.1555
13.156
13.1494
13.1522
13.1525
13.1566
13.153
13.1547
13.1537
13.1503
13.1556
13.1571
13.1484
13.1557
13.1497
13.1553
13.139
13.1559
13.1542
13.1563
13.1491
13.1557
13.1511
13.1543
13.1496
13.1569
13.1573
13.1561
13.1571
13.1549
13.1403
13.1563
13.156
13.1564
13.1554
13.1453
13.1569
13.156
13.1472
13.1558
13.1565
13.1552
13.1552
13.1556
13.1548
13.1549
13.1499
13.1562
13.157
13.1555
13.1578
13.1467
13.1577
13.1567
13.1549
13.1546
13.1516
13.1558
13.1541
13.1565
13.1543
13.1539
13.1568
13.1551
13.1565
13.1535
13.1554
13.1571
13.1509
13.1517
13.1557
13.1544
13.1539
13.1572
13.1487
13.1541
13.1504
13.1571
13.1547
13.1525
13.1548
13.1528
13.157
13.155
13.1539
13.1538
13.1549
13.1559
13.1533
13.1543
13.1507
13.1545
13.153
13.1571
13.1505
13.1575
13.1554
13.1519
13.1574
13.1543
13.1536
13.1539
13.1542
13.1547
13.1546
13.1623
13.1529
13.1492
13.1544
13.1533
13.1608
13.15
13.1548
13.1543
13.1552
13.1556
13.1617
13.1437
13.1629
13.1545
13.1561
13.1579
13.155
13.1426
13.1623
13.1497
13.1396
13.1598
13.1627
13.1425
13.1422
13.1619
13.1434
13.1514
13.1442
13.1619
13.1614
13.1612
13.1415
13.1442
13.1632
13.155
13.1442
13.162
13.1546
13.1444
13.1559
13.1444
13.1443
13.1436
13.1513
13.1541
13.1474
13.1548
13.1491
13.1617
13.1427
13.1569
13.1447
13.1625
13.1464
13.1468
13.1421
13.1608
13.1612
13.1528
13.1566
13.1572
13.1464
13.1392
13.1533
13.1565
13.1446
13.1612
13.1516
13.1533
13.1544
13.1607
13.152
13.1479
13.157
13.1506
13.1514
13.1515
13.1604
13.1586
13.1614
13.1556
13.1506
13.163
13.1511
13.1564
13.1564
13.1512
13.1535
13.1623
13.163
13.1444
13.1626
13.1623
13.1627
13.1604
13.1467
13.1476
13.1361
13.1512
13.152
13.1525
13.1614
13.1538
13.1609
13.1627
13.1504
13.1532
13.1611
13.1629
13.1462
13.1562
13.13
13.158
13.158
13.1576
13.1565
13.1571
13.158
13.1578
13.1508
13.1579
13.1556
13.1572
13.1567
13.1575
13.1578
13.157
13.158
13.1579
13.1573
13.1567
13.1573
13.1578
13.1512
13.1562
13.1578
13.1474
13.1576
13.1532
13.1631
13.1567
13.1546
13.1617
13.1514
13.156
13.1499
13.1575
13.1626
13.1564
13.1514
13.1555
13.1549
13.1534
13.1505
13.1507
13.1508
13.155
13.1625
13.1477
13.1536
13.1452
13.1625
13.1512
13.1524
13.1568
13.1361
13.1612
13.1558
13.1536
13.1625
13.1554
13.1483
13.156
13.1289
13.1528
13.1618
13.1554
13.1607
13.1482
13.1618
13.1579
13.1529
13.1534
13.1509
13.1483
13.1484
13.1534
13.1545
13.1542
13.158
13.1629
13.1607
13.1415
13.1628
13.1556
13.1511
13.1608
13.1498
13.134
13.1453
13.1527
13.1575
13.1624
13.1506
13.1566
13.1581
13.1568
13.1425
13.1575
13.1604
13.1611
13.1566
13.1567
13.1457
13.1516
13.1572
13.1528
13.1385
13.1522
13.1575
13.1507
13.1632
13.1517
13.1511
13.1523
13.1569
13.1538
13.1549
13.1558
13.157
13.1462
13.1352
13.1437
13.1524
13.145
13.1469
13.1448
13.1629
13.1321
13.1542
13.1448
13.1555
13.1632
13.1454
13.1445
13.1356
13.1547
13.158
13.155
13.1626
13.1632
13.1446
13.1465
13.1578
13.1543
13.1381
13.1604
13.1481
13.1604
13.1448
13.1453
13.1621
13.1476
13.1606
13.151
13.1536
13.1442
13.1493
13.1523
13.1579
13.1454
13.1506
13.1576
13.1411
13.1552
13.1622
13.1501
13.1577
13.1515
13.147
13.1471
13.1497
13.1474
13.1422
13.143
13.1475
13.1332
13.1604
13.1474
13.162
13.1535
13.1567
13.152
13.141
13.1527
13.1569
13.145
13.1571
13.1517
13.1482
13.1611
13.1445
13.1543
13.1507
13.1545
13.158
13.1378
13.1449
13.1542
13.1522
13.1601
13.1626
13.1316
13.153
13.1614
13.1629
13.1567
13.1543
13.1553
13.1544
13.1609
13.1446
13.147
13.1512
13.1372
13.1436
13.1457
13.1533
13.1576
13.1574
13.1459
13.1491
13.1564
13.1632
13.1468
13.1571
13.1326
13.1622
13.1567
13.1567
13.1452
13.1604
13.146
13.1504
13.1468
13.154
13.1338
13.145
13.1456
13.1567
13.1503
13.157
13.1603
13.1539
13.1464
13.1507
13.1577
13.1622
13.1376
13.1568
13.163
13.1328
13.1519
13.1626
13.1455
13.1442
13.1377
13.1631
13.1545
13.1625
13.1623
)
;

boundaryField
{
    back
    {
        type            empty;
    }
    front
    {
        type            empty;
    }
    top
    {
        type            zeroGradient;
    }
    outer_arc
    {
        type            zeroGradient;
    }
    bottom
    {
        type            uniformFixedValue;
        uniformValue    
        {
            type            table;
            format          csv;
            file            "outlet_p.csv";
            nHeaderLine     1;
            refColumn       0;
            componentColumns List<label> 1(1);
            separator       ",";
            mergeSeparators 0;
        }
        value           uniform 13.1436;
    }
    inner_arc
    {
        type            zeroGradient;
    }
}


// ************************************************************************* //
