/*--------------------------------*- C++ -*----------------------------------*\
  =========                 |
  \\      /  F ield         | OpenFOAM: The Open Source CFD Toolbox
   \\    /   O peration     | Website:  https://openfoam.org
    \\  /    A nd           | Version:  9
     \\/     M anipulation  |
\*---------------------------------------------------------------------------*/
FoamFile
{
    format      ascii;
    class       volScalarField;
    location    "1";
    object      p;
}
// * * * * * * * * * * * * * * * * * * * * * * * * * * * * * * * * * * * * * //

dimensions      [0 2 -2 0 0 0 0];

internalField   nonuniform List<scalar> 
90
(
-6.13766e-23
1.67354e-23
4.81121e-22
1.37154e-21
4.7218e-22
-1.01895e-21
1.09308e-23
-1.47463e-22
-2.10999e-22
-1.18861e-22
5.90508e-23
-1.20618e-22
-1.50974e-22
6.37545e-22
-3.47616e-22
-2.64571e-21
2.894e-21
-5.1806e-22
-5.83355e-22
-5.47078e-23
-5.25483e-23
-5.10721e-23
1.76371e-23
1.45952e-22
-3.0932e-23
2.86998e-22
-2.88432e-22
1.33988e-22
3.88777e-22
-1.87104e-22
-1.2753e-22
4.92968e-22
3.34755e-22
2.07162e-22
3.02455e-22
-2.60842e-21
-1.18413e-22
4.20591e-21
3.60215e-22
-1.44572e-22
-2.32477e-22
-3.04231e-22
5.60303e-22
-2.9761e-23
-5.97168e-24
5.93355e-22
-2.10443e-22
-9.77786e-22
-5.12246e-22
7.69298e-22
-4.71673e-23
-1.39481e-22
-2.12847e-22
4.39305e-22
-2.31068e-22
-6.9276e-22
4.36582e-24
-4e-24
-4.85895e-23
5.94287e-22
-2.05065e-22
6.27551e-22
8.664e-22
3.22335e-23
-4.16892e-22
-2.18545e-22
5.71657e-22
6.66084e-22
3.53681e-21
1.33911e-22
-1.24682e-21
-1.26971e-22
5.14854e-22
-1.15342e-21
-2.44344e-21
-2.21902e-22
-1.34017e-22
3.93045e-22
6.8921e-23
1.35103e-23
4.15636e-21
-1.5629e-23
-1.40789e-23
-2.26073e-21
9.03303e-23
9.17851e-22
-6.25382e-23
-1.0756e-22
-1.54293e-21
-2.46885e-22
)
;

boundaryField
{
    back
    {
        type            empty;
    }
    front
    {
        type            empty;
    }
    bottom
    {
        type            zeroGradient;
    }
    outer_arc
    {
        type            zeroGradient;
    }
    right
    {
        type            uniformFixedValue;
        uniformValue    
        {
            type            scale;
            scale           
            {
                type            squarePulse;
                start           0.3;
                duration        0.3;
            }
            xScale          
            {
                type            constant;
                value           1;
            }
            value           
            {
                type            constant;
                value           15.1;
            }
        }
        value           uniform 0;
    }
    inner_arc
    {
        type            zeroGradient;
    }
}


// ************************************************************************* //
