/*--------------------------------*- C++ -*----------------------------------*\
  =========                 |
  \\      /  F ield         | OpenFOAM: The Open Source CFD Toolbox
   \\    /   O peration     | Website:  https://openfoam.org
    \\  /    A nd           | Version:  9
     \\/     M anipulation  |
\*---------------------------------------------------------------------------*/
FoamFile
{
    format      ascii;
    class       surfaceScalarField;
    location    "1";
    object      phi;
}
// * * * * * * * * * * * * * * * * * * * * * * * * * * * * * * * * * * * * * //

dimensions      [0 3 -1 0 0 0 0];

internalField   nonuniform List<scalar> 
122
(
-1.55782e-29
-2.91668e-30
-2.97587e-30
2.39129e-28
-3.4562e-29
-1.44643e-28
-2.50884e-28
2.22282e-28
2.54062e-28
-3.65564e-28
3.31066e-28
6.08868e-28
-6.19062e-28
7.9206e-30
-3.20268e-29
-2.31246e-29
6.20343e-29
8.0217e-29
-7.4172e-29
1.71671e-31
-1.05241e-29
4.09765e-29
5.3574e-29
-1.02309e-28
-1.15244e-28
2.31552e-28
-1.30044e-28
2.42208e-28
-7.82463e-29
1.34968e-28
-4.0508e-28
-3.0419e-28
1.8621e-28
4.6211e-30
-6.04315e-29
1.98189e-29
3.8393e-30
5.31474e-29
-6.5172e-29
-4.6455e-29
2.78976e-29
-7.48136e-29
3.86389e-29
-9.21591e-30
-7.60155e-29
2.70193e-29
1.8189e-29
-3.96239e-29
-7.90824e-29
5.16747e-29
9.72511e-30
-7.79827e-29
5.32508e-29
-6.49957e-28
2.88975e-28
-1.45369e-29
1.03105e-29
-1.79885e-29
8.32109e-30
-1.5279e-29
-3.39637e-29
3.74609e-29
6.21022e-30
-8.94446e-29
1.55728e-28
2.35282e-28
1.57665e-29
9.82088e-30
-1.6821e-29
-1.45271e-30
2.22111e-29
-2.79621e-29
1.1108e-28
2.15341e-29
-1.13374e-29
9.85763e-30
1.54766e-29
6.06588e-30
7.09145e-29
-4.841e-29
9.09184e-30
-5.64748e-29
-1.4021e-28
8.24844e-29
5.76148e-30
-9.53675e-29
4.84256e-30
1.00547e-29
1.0352e-28
-8.92712e-29
-8.3605e-29
2.09701e-29
-1.81656e-29
-1.42788e-28
1.23995e-28
5.38141e-30
2.86804e-30
1.92069e-29
-8.72696e-30
-3.90822e-29
-7.11477e-29
6.78713e-29
3.10693e-29
-6.31933e-29
-1.93999e-29
1.21175e-28
-4.34035e-29
6.35796e-29
-2.31622e-29
-8.25e-29
3.81532e-28
-3.8205e-28
-2.19901e-28
1.48214e-28
1.45078e-29
7.48645e-29
1.5687e-28
-1.87255e-29
4.93668e-30
1.10664e-29
-7.58079e-29
-5.87999e-31
)
;

boundaryField
{
    back
    {
        type            empty;
        value           nonuniform List<scalar> 0();
    }
    front
    {
        type            empty;
        value           nonuniform List<scalar> 0();
    }
    bottom
    {
        type            calculated;
        value           uniform 0;
    }
    outer_arc
    {
        type            calculated;
        value           uniform 0;
    }
    right
    {
        type            calculated;
        value           nonuniform List<scalar> 4(-4.33638e-30 -1.56397e-29 -1.04055e-29 -1.33098e-29);
    }
    inner_arc
    {
        type            calculated;
        value           uniform 0;
    }
}


// ************************************************************************* //
