/*--------------------------------*- C++ -*----------------------------------*\
  =========                 |
  \\      /  F ield         | OpenFOAM: The Open Source CFD Toolbox
   \\    /   O peration     | Website:  https://openfoam.org
    \\  /    A nd           | Version:  9
     \\/     M anipulation  |
\*---------------------------------------------------------------------------*/
FoamFile
{
    format      ascii;
    class       volVectorField;
    location    "1";
    object      U;
}
// * * * * * * * * * * * * * * * * * * * * * * * * * * * * * * * * * * * * * //

dimensions      [0 1 -1 0 0 0 0];

internalField   nonuniform List<vector> 
90
(
(-3.21924e-22 -1.83379e-23 2.07651e-39)
(-4.11395e-21 -3.83252e-21 -5.36854e-38)
(9.54471e-21 -4.8195e-22 4.80635e-38)
(6.91986e-21 -9.43865e-21 -4.76003e-38)
(-7.83191e-21 -1.27306e-20 -1.21852e-37)
(-2.2672e-21 -2.09447e-21 4.26516e-38)
(-2.04555e-22 -1.16671e-22 -2.2811e-39)
(7.10794e-22 1.06652e-22 -9.03221e-39)
(-3.89646e-22 2.68564e-21 0)
(-1.16308e-22 -1.88644e-22 0)
(2.30716e-21 -6.07706e-22 7.63293e-39)
(-2.29848e-21 8.07516e-21 -1.06351e-38)
(6.0595e-22 1.04121e-22 -1.88593e-39)
(-3.21731e-22 1.72662e-21 3.20658e-39)
(-4.32472e-21 4.88041e-21 0)
(-8.72387e-21 -4.81115e-21 0)
(-1.93098e-21 -1.48025e-20 1.57773e-37)
(1.09848e-20 2.12808e-21 2.17563e-38)
(1.60146e-21 -3.51405e-21 0)
(1.06612e-21 5.34968e-22 2.18311e-39)
(1.32693e-21 5.59371e-22 -6.35929e-39)
(-8.60177e-22 -7.68472e-22 -6.81652e-39)
(9.73586e-22 -8.83628e-22 9.98015e-39)
(1.98739e-21 -1.83759e-22 -3.34547e-39)
(1.39175e-21 2.5101e-22 4.91633e-39)
(4.65669e-22 -2.57819e-21 -7.38047e-39)
(1.0145e-21 1.61296e-22 9.68889e-39)
(-2.07084e-21 -1.14146e-21 -4.80771e-39)
(1.90289e-20 1.74549e-21 0)
(9.91512e-22 -5.63154e-22 9.31447e-39)
(1.12922e-21 -3.09743e-22 -6.02752e-39)
(1.75584e-21 -5.54626e-22 3.04574e-38)
(1.41449e-21 5.66822e-22 8.26926e-39)
(6.54341e-22 1.02333e-21 -1.55288e-38)
(7.39243e-22 8.9483e-22 4.68237e-39)
(-2.72245e-21 3.06441e-21 6.18648e-38)
(-1.84072e-21 -2.98361e-21 0)
(3.97216e-21 -5.09505e-21 0)
(1.9905e-22 -6.32646e-23 -8.18257e-39)
(7.89407e-23 2.5255e-22 -2.23494e-39)
(-4.74239e-22 5.72016e-23 4.16207e-39)
(6.71486e-22 4.75316e-22 2.27416e-38)
(-1.94092e-21 8.20628e-22 3.06726e-39)
(-4.03529e-22 -1.5249e-23 2.0865e-39)
(-4.56247e-22 -1.93172e-22 4.95685e-40)
(-1.85145e-21 -3.09778e-21 -2.24856e-38)
(7.16567e-22 -9.37969e-22 -4.26643e-39)
(-5.70945e-22 4.05244e-21 -2.55445e-38)
(3.20881e-21 -5.74049e-22 2.70046e-38)
(-2.12964e-21 5.89243e-21 -3.24584e-39)
(4.83486e-22 1.62782e-22 0)
(-2.13005e-23 -2.59536e-22 6.92797e-39)
(-3.83814e-21 2.47185e-21 6.35263e-41)
(-1.28788e-21 -8.35299e-22 0)
(6.17636e-24 -3.74574e-22 -1.39826e-38)
(-4.68659e-21 -1.68912e-21 2.66236e-40)
(-3.45103e-22 1.86724e-24 -3.04139e-40)
(2.3788e-22 -1.62022e-21 0)
(-6.41529e-22 -2.61389e-22 0)
(1.39513e-21 -1.68272e-21 -3.37154e-38)
(2.20362e-22 9.60058e-23 -1.491e-38)
(-1.97401e-21 -3.46033e-21 0)
(8.2085e-23 -1.20586e-21 -4.04892e-38)
(-3.1782e-21 1.29849e-21 3.0318e-39)
(-1.53245e-21 -6.81767e-22 -2.7537e-38)
(4.70138e-21 -9.52293e-22 -8.18609e-39)
(1.81717e-21 1.24359e-21 0)
(1.53889e-21 -8.86587e-22 0)
(1.49908e-20 -2.5308e-21 -1.52549e-38)
(1.56826e-20 -2.55315e-21 -3.832e-38)
(-5.74066e-21 4.05198e-21 0)
(-4.72802e-22 -3.68323e-22 -6.11736e-39)
(-5.75073e-21 3.18221e-21 0)
(7.87061e-22 -4.11458e-21 -8.54011e-38)
(1.34317e-20 -8.77063e-23 3.86895e-38)
(7.56265e-22 -1.06617e-21 7.57758e-39)
(-3.2041e-22 -1.26564e-22 1.25453e-39)
(-2.46296e-21 -1.1397e-22 0)
(-9.44802e-22 1.11756e-21 8.96319e-39)
(-6.32189e-22 -2.954e-22 -2.93926e-39)
(8.68023e-21 -8.41403e-22 -1.73221e-37)
(-3.83568e-22 -1.01036e-22 -1.63641e-40)
(1.21969e-21 -2.18699e-21 6.57542e-39)
(-9.2578e-22 7.06293e-22 -5.98221e-38)
(-2.06789e-21 -4.07691e-21 -3.06007e-39)
(-4.33791e-22 5.6664e-22 2.63399e-38)
(-3.33575e-22 -1.3152e-22 -2.76021e-39)
(-1.53871e-22 -1.84844e-22 3.69135e-40)
(-3.02447e-21 -3.14217e-21 1.47392e-37)
(-1.55794e-22 -1.71882e-22 5.92423e-39)
)
;

boundaryField
{
    back
    {
        type            empty;
    }
    front
    {
        type            empty;
    }
    bottom
    {
        type            uniformFixedValue;
        uniformValue    
        {
            type            scale;
            scale           
            {
                type            squarePulse;
                start           0.3;
                duration        0.3;
            }
            xScale          
            {
                type            constant;
                value           1;
            }
            value           
            {
                type            constant;
                value           (0 0.7 0);
            }
        }
        value           uniform (0 0 0);
    }
    outer_arc
    {
        type            noSlip;
    }
    right
    {
        type            zeroGradient;
    }
    inner_arc
    {
        type            noSlip;
    }
}


// ************************************************************************* //
