/*--------------------------------*- C++ -*----------------------------------*\
  =========                 |
  \\      /  F ield         | OpenFOAM: The Open Source CFD Toolbox
   \\    /   O peration     | Website:  https://openfoam.org
    \\  /    A nd           | Version:  9
     \\/     M anipulation  |
\*---------------------------------------------------------------------------*/
FoamFile
{
    format      ascii;
    class       volScalarField;
    location    "0.83";
    object      p;
}
// * * * * * * * * * * * * * * * * * * * * * * * * * * * * * * * * * * * * * //

dimensions      [0 2 -2 0 0 0 0];

internalField   nonuniform List<scalar> 
578
(
-3.18787e-16
-7.82211e-16
-2.40471e-16
5.23313e-17
-7.81355e-16
5.05018e-16
6.78686e-16
-6.50852e-16
-5.66229e-16
-1.18532e-15
2.74044e-16
-6.51238e-16
2.22752e-17
-7.43403e-16
6.33657e-16
-4.29391e-17
-3.78147e-16
-3.48662e-16
-5.12039e-16
-3.90769e-16
5.69089e-17
9.27542e-19
1.47534e-16
2.19491e-16
2.12522e-16
-4.79474e-16
-1.81764e-17
-7.18285e-17
-5.54134e-16
-2.30951e-17
-3.36262e-17
5.66457e-16
-2.63388e-16
7.7938e-17
5.66087e-16
-2.85055e-16
-6.67869e-16
-6.20007e-16
-3.23861e-17
-9.03258e-16
-7.17355e-16
-5.76379e-16
-7.13828e-16
6.67041e-16
-2.11345e-16
8.35006e-16
6.30688e-16
-6.11617e-16
-3.79965e-17
-3.25537e-17
7.69352e-16
2.10744e-17
7.10063e-16
7.16321e-17
9.49871e-18
-2.9145e-16
1.37366e-16
7.95814e-17
-1.89424e-16
-4.19813e-16
-3.68686e-16
-5.18556e-16
-5.11462e-16
-8.19347e-16
4.9541e-18
6.14736e-16
-1.66049e-16
3.60777e-16
2.07351e-16
-4.68824e-16
1.00672e-16
5.45437e-16
7.77548e-18
-5.50112e-16
2.69437e-16
-8.69041e-16
-7.05437e-16
-5.84676e-16
1.04437e-17
4.65222e-16
5.98843e-16
-6.06449e-16
8.93269e-16
8.2185e-16
1.25922e-16
4.58485e-16
8.87825e-16
-1.88453e-16
-5.31268e-16
4.29785e-16
-1.62482e-17
2.95507e-16
5.40899e-16
3.39721e-17
2.69713e-16
5.13066e-16
7.02607e-18
9.27981e-18
-1.11197e-15
6.29597e-16
5.93653e-16
-5.30068e-16
-1.60088e-17
3.74081e-16
-3.34021e-18
-7.49368e-16
2.97866e-16
-8.79454e-16
5.46977e-16
-7.79712e-16
-2.65139e-16
-5.01388e-16
-4.29191e-16
3.98141e-16
4.42665e-16
-6.80443e-18
4.4213e-17
-3.87894e-16
4.1913e-16
2.35669e-18
-4.23715e-16
1.14639e-15
-5.88628e-16
4.52076e-17
6.7647e-16
2.84737e-16
5.00608e-16
-3.95597e-17
5.18549e-16
7.60245e-17
5.29993e-16
2.5264e-16
3.54257e-17
-4.62578e-16
4.72879e-16
4.95264e-16
-7.65867e-16
-5.58293e-18
2.6188e-16
5.33907e-16
5.79444e-16
1.59871e-16
5.15078e-16
-1.54497e-16
-5.30414e-16
1.76465e-16
1.97165e-16
-4.85009e-17
-5.90321e-16
-2.14068e-18
-6.48321e-16
2.31117e-16
-7.6316e-16
-4.26227e-16
6.16688e-16
-3.20526e-17
-4.22476e-16
4.22437e-17
6.79354e-16
-6.57498e-16
-6.87506e-16
-6.70298e-16
6.1263e-16
-6.31928e-16
-2.77007e-16
1.70661e-16
-1.75833e-16
6.24568e-16
6.11681e-17
5.93225e-18
-5.79259e-16
-7.86062e-16
5.09225e-16
3.88948e-16
6.07868e-16
-1.01577e-18
1.13125e-17
-3.62419e-16
-6.29572e-16
-4.65739e-16
6.69328e-16
-6.22412e-16
3.66874e-16
1.15696e-17
5.19333e-16
-3.52339e-17
-5.55403e-17
6.90636e-16
6.10441e-16
-6.78689e-16
-6.98632e-16
-6.7847e-16
2.20223e-16
6.13491e-16
-9.33204e-16
1.42313e-17
8.92309e-17
-6.50859e-17
5.89023e-16
-6.99455e-16
5.00676e-17
2.01391e-17
1.23216e-15
-5.47842e-18
5.09615e-18
-7.12146e-16
5.71324e-16
-4.80359e-17
-6.76795e-16
8.32354e-17
1.07324e-16
5.70737e-16
4.50526e-16
1.85799e-17
4.64935e-16
3.68243e-17
6.08186e-16
-6.93717e-16
6.09761e-16
2.41577e-16
-6.87832e-16
6.0355e-16
-3.07076e-16
-7.00794e-16
6.7113e-16
2.83015e-16
2.05051e-17
7.15814e-17
-5.21347e-17
-5.23266e-16
-1.06099e-15
1.17831e-15
4.3815e-16
-2.77223e-16
2.71119e-16
-5.25693e-16
-7.18448e-16
6.43733e-16
2.82774e-17
-1.14599e-16
6.48516e-16
-7.89983e-16
6.53226e-18
6.5356e-16
-6.16378e-17
-5.34259e-16
5.38239e-16
-1.03143e-15
4.35011e-16
2.97394e-17
1.51213e-17
3.81505e-16
6.44216e-16
7.89442e-17
5.85152e-16
-1.67765e-16
-3.999e-16
5.79535e-16
-5.92617e-16
1.05635e-15
-2.58165e-16
6.70301e-16
9.0191e-17
1.01552e-16
-6.17303e-16
-3.69846e-16
1.87326e-16
-1.30735e-16
-8.37863e-16
2.24655e-16
-2.27599e-16
2.22605e-16
9.97435e-17
1.65755e-17
2.51522e-17
3.05225e-17
-4.13162e-18
1.20911e-16
6.24361e-16
5.50539e-17
-7.39526e-16
1.36609e-17
1.78241e-17
2.17161e-17
3.21448e-17
5.08963e-16
-3.18904e-16
2.97458e-16
1.18679e-16
8.76271e-17
9.0224e-17
3.61349e-16
-1.0312e-17
5.64662e-16
8.08233e-17
9.54403e-17
-7.35894e-16
-7.90532e-17
-2.34697e-17
7.71413e-17
3.79226e-17
-9.5047e-17
1.62051e-17
-9.28205e-17
9.44921e-17
3.29724e-17
-1.36009e-18
-3.67539e-16
4.50256e-17
3.51012e-17
-2.02951e-16
-2.23782e-17
2.92995e-17
-1.06671e-16
7.37445e-17
2.00812e-17
3.31163e-16
-8.63027e-17
-1.91328e-16
7.32188e-17
3.48053e-16
1.66357e-17
1.78241e-17
1.51866e-16
5.69443e-18
-7.05369e-18
5.66548e-16
5.99194e-16
-6.9327e-16
-1.53563e-17
-1.6668e-18
4.93e-16
1.15462e-17
-1.51445e-18
4.23458e-16
1.07894e-16
3.14773e-17
4.63035e-18
-2.01752e-16
-9.8785e-18
2.0199e-17
2.11611e-17
-2.62574e-17
-2.90716e-16
6.33862e-17
5.64253e-16
3.16432e-16
4.89377e-16
-5.41843e-16
5.63982e-16
-6.04714e-16
-6.71184e-16
6.01017e-16
-1.85492e-16
-8.46945e-16
7.81401e-16
1.1216e-16
7.43138e-16
-8.85309e-16
7.88097e-16
4.27972e-18
-2.81478e-16
7.98466e-17
-4.28161e-16
2.49668e-17
3.43316e-17
-3.47842e-17
5.00112e-16
2.75425e-17
-6.91502e-17
-6.34093e-16
-5.61015e-16
2.13145e-16
3.36373e-16
2.16368e-16
8.41509e-16
-1.42489e-17
5.54482e-16
-6.34648e-16
-1.44054e-16
2.39304e-18
-6.49441e-16
6.05553e-16
1.35947e-16
8.60026e-17
-4.3623e-18
-1.75768e-18
7.44388e-16
6.95501e-16
-4.96156e-16
1.64594e-17
1.27989e-16
1.54151e-16
-1.76443e-16
-7.97601e-17
6.02142e-17
5.30921e-16
-8.37412e-17
9.82172e-17
2.22121e-16
-2.14976e-17
4.63034e-16
-1.86172e-18
-3.86847e-16
-5.46385e-18
-8.00601e-17
3.48822e-16
-1.67654e-16
2.14382e-16
3.89157e-16
-5.194e-17
-5.22303e-16
-2.56646e-16
3.17827e-16
-1.90423e-16
2.4868e-16
-5.66417e-16
4.89809e-16
-7.37482e-16
-2.70193e-17
5.46444e-16
3.426e-16
-6.03544e-16
6.54579e-16
4.24317e-16
-2.85417e-16
-4.47614e-16
-3.9856e-16
-5.57764e-16
-2.67265e-16
3.8844e-16
1.40459e-16
1.12756e-16
1.76106e-17
3.75683e-16
-3.7246e-16
-6.45901e-16
-3.47676e-16
-3.74632e-16
-1.56458e-16
-2.88502e-16
3.93897e-17
4.7716e-17
-2.68768e-17
4.85296e-16
-1.16222e-16
-4.36644e-17
4.21375e-16
4.13734e-16
-1.55792e-17
5.61676e-16
-1.33909e-17
4.28156e-16
2.74776e-17
5.5482e-16
1.7901e-17
-7.37787e-16
1.7349e-16
1.59934e-16
-4.27891e-16
9.25536e-16
4.98754e-16
-3.39915e-16
-3.81601e-16
-1.05096e-16
-4.97817e-16
3.81044e-16
-7.40071e-16
-2.14256e-16
-3.58928e-16
-7.51571e-17
-8.19214e-17
3.6751e-16
-3.10427e-17
-1.14311e-16
-5.7942e-16
-4.16041e-16
-4.73505e-16
-2.65446e-16
-4.15709e-16
1.57888e-16
2.26861e-16
-1.92114e-16
-6.23504e-17
-2.778e-17
-3.36648e-16
-1.74669e-16
-2.46071e-17
-1.53691e-17
5.33854e-16
4.00761e-17
3.87894e-16
-2.24318e-16
3.88793e-17
-8.84929e-18
4.41505e-16
6.81905e-18
5.05082e-16
-2.1585e-17
3.70441e-17
-7.17428e-16
-9.07828e-17
-3.70179e-16
3.60914e-17
-3.62564e-16
-2.29612e-17
4.95311e-16
5.7254e-17
3.41975e-16
-1.55584e-17
-2.88825e-17
6.37002e-16
4.14675e-17
8.13806e-16
5.57738e-16
-1.84362e-17
-6.41612e-16
-8.6691e-16
4.20721e-16
3.27119e-17
2.23968e-16
2.70743e-16
-1.38189e-16
-5.03918e-16
-5.50988e-16
2.68647e-17
-9.22979e-17
6.0922e-17
-6.06742e-16
-5.21603e-16
-6.36679e-16
-6.30419e-16
-6.86997e-17
-3.258e-17
5.43832e-16
4.02422e-16
3.80621e-16
4.69327e-16
4.04528e-16
-3.13877e-17
4.5647e-17
5.21191e-16
-3.52093e-16
-4.79866e-16
6.47373e-16
9.73902e-17
2.64737e-16
-3.68416e-16
-3.23064e-16
-4.44016e-16
3.22193e-16
6.02662e-16
-4.32927e-16
5.58855e-16
3.61795e-16
-2.08988e-16
-6.64762e-16
-5.5771e-17
2.29785e-17
-2.46216e-17
-1.64644e-17
6.00803e-16
-5.78421e-16
-2.43612e-17
3.98544e-17
3.74231e-16
2.6081e-17
-3.27731e-16
-1.67144e-17
3.2385e-17
5.20895e-16
-3.87217e-16
3.69524e-16
-5.09656e-16
-2.23003e-16
2.54961e-16
2.7951e-16
1.92348e-16
)
;

boundaryField
{
    front
    {
        type            empty;
    }
    back
    {
        type            empty;
    }
    bottom
    {
        type            uniformFixedValue;
        uniformValue    
        {
            type            scale;
            scale           
            {
                type            squarePulse;
                start           0.3;
                duration        0.3;
            }
            xScale          
            {
                type            constant;
                value           1;
            }
            value           
            {
                type            constant;
                value           15.1;
            }
        }
        value           uniform 0;
    }
    left
    {
        type            zeroGradient;
    }
    top
    {
        type            zeroGradient;
    }
    right
    {
        type            zeroGradient;
    }
    inner_arc
    {
        type            zeroGradient;
    }
}


// ************************************************************************* //
