/*--------------------------------*- C++ -*----------------------------------*\
  =========                 |
  \\      /  F ield         | OpenFOAM: The Open Source CFD Toolbox
   \\    /   O peration     | Website:  https://openfoam.org
    \\  /    A nd           | Version:  9
     \\/     M anipulation  |
\*---------------------------------------------------------------------------*/
FoamFile
{
    format      ascii;
    class       volVectorField;
    location    "0.83";
    object      U;
}
// * * * * * * * * * * * * * * * * * * * * * * * * * * * * * * * * * * * * * //

dimensions      [0 1 -1 0 0 0 0];

internalField   nonuniform List<vector> 
578
(
(1.39847e-14 1.72167e-14 0)
(1.1037e-14 1.3763e-14 -4.36773e-32)
(2.15716e-14 2.58802e-14 0)
(-6.99108e-16 -1.58054e-15 3.04671e-33)
(4.01167e-15 -8.57761e-15 0)
(9.0856e-15 -1.26261e-15 -2.07538e-32)
(4.14248e-15 8.82611e-15 -3.84973e-33)
(4.15242e-15 -7.56997e-15 -3.63882e-32)
(2.12621e-14 -3.47242e-14 0)
(5.6107e-15 8.3341e-15 5.42737e-32)
(1.43671e-14 -3.68006e-15 1.43478e-32)
(1.45565e-14 -2.79618e-14 -2.28991e-33)
(-4.55984e-16 -1.32689e-16 0)
(1.51086e-14 -3.09175e-14 4.59297e-32)
(1.52166e-14 3.09079e-14 0)
(2.71098e-14 -3.0963e-14 1.84724e-33)
(2.01143e-14 9.59991e-15 1.07878e-32)
(2.33065e-14 2.12021e-14 -3.45927e-32)
(1.30364e-14 -2.50683e-14 1.10366e-32)
(2.31924e-14 -3.41491e-14 2.41292e-32)
(-1.13053e-15 -2.25393e-15 -3.13699e-33)
(2.2649e-14 -2.82945e-14 6.07787e-33)
(1.24397e-14 -5.62019e-15 -1.46703e-32)
(-4.87865e-17 5.83113e-15 -1.55086e-33)
(-2.34116e-16 5.17582e-15 0)
(1.2722e-14 -2.57702e-14 2.33188e-33)
(-6.21553e-16 1.61635e-15 0)
(-2.93093e-16 1.4492e-15 -1.68046e-34)
(1.3138e-14 1.10783e-14 2.68317e-32)
(2.69941e-14 -3.15028e-14 0)
(-6.0827e-16 2.40456e-15 1.56722e-33)
(6.19863e-15 -1.19993e-15 -2.84353e-33)
(2.71872e-14 -3.24313e-14 2.08105e-33)
(-1.14189e-15 5.40268e-15 -1.06747e-33)
(1.32468e-14 2.7397e-14 -3.47855e-32)
(2.31963e-14 -2.64459e-14 -7.77249e-33)
(1.31475e-14 -2.71826e-14 -4.06254e-32)
(1.21488e-14 -2.33768e-14 0)
(2.58729e-14 2.99397e-14 2.02727e-33)
(6.62228e-15 -1.38792e-14 0)
(6.94279e-15 -1.52899e-14 3.90923e-32)
(7.47604e-15 -1.30454e-14 1.99057e-32)
(6.6663e-15 -1.29212e-14 4.53957e-32)
(1.30359e-14 2.67642e-14 -1.22021e-33)
(1.60311e-14 -1.74627e-14 0)
(6.7712e-15 1.4249e-14 1.55234e-33)
(7.02548e-15 1.5619e-14 3.84709e-32)
(1.86575e-14 -3.09052e-14 1.77008e-32)
(2.62726e-14 3.04636e-14 -2.06854e-33)
(-8.39308e-16 1.42797e-15 0)
(8.4641e-16 1.99161e-15 1.20228e-33)
(-4.12924e-16 -1.98268e-16 2.66012e-35)
(1.39763e-14 -7.80752e-15 2.59665e-32)
(-1.3614e-15 4.89836e-15 1.05573e-33)
(-1.17097e-16 -1.25613e-17 0)
(8.38135e-15 -3.833e-16 -7.48737e-33)
(5.48902e-15 -1.70361e-15 -1.55177e-33)
(9.08975e-15 -8.55834e-15 0)
(2.53898e-14 1.77865e-14 1.81369e-32)
(1.48806e-14 -1.67065e-14 -8.48923e-33)
(2.61398e-14 2.27056e-14 1.01701e-32)
(1.11476e-14 5.58694e-15 1.83185e-32)
(1.41995e-14 1.2628e-14 2.53699e-32)
(1.31078e-14 -2.70996e-14 -2.16149e-32)
(-6.95637e-16 9.65918e-17 3.66683e-34)
(1.62112e-14 3.12378e-14 1.91924e-32)
(2.55211e-14 -3.27282e-14 -1.61458e-32)
(1.78498e-14 -6.83924e-15 0)
(2.73088e-14 -2.78281e-14 1.93817e-33)
(1.53716e-14 -3.23266e-14 -1.51052e-32)
(-6.67852e-16 5.04831e-15 0)
(2.62346e-15 1.93568e-15 -3.46419e-32)
(-5.75722e-16 -1.38594e-17 -9.34044e-34)
(1.59346e-14 -3.24684e-14 -4.01909e-32)
(7.33352e-15 1.6608e-15 0)
(3.89883e-15 -8.21574e-15 -2.13198e-32)
(1.89316e-14 -2.9107e-14 -5.62826e-32)
(1.51422e-14 -2.32176e-14 3.12059e-32)
(-7.28408e-16 -1.51307e-16 5.32502e-34)
(1.2973e-14 1.43753e-14 8.27096e-33)
(2.10565e-14 -2.07094e-14 -4.19907e-32)
(7.19989e-15 9.65667e-15 -6.69545e-32)
(5.09887e-15 -7.29538e-15 -6.93849e-32)
(7.01115e-15 -9.62382e-15 0)
(2.40431e-14 3.21992e-14 7.22276e-33)
(4.89977e-15 1.20436e-14 -4.02543e-32)
(8.43728e-16 4.98568e-16 0)
(1.17932e-14 6.13955e-16 -1.71798e-33)
(1.07103e-14 -2.27379e-14 3.29729e-32)
(1.10238e-14 2.51299e-14 1.81305e-34)
(-9.4482e-16 2.21174e-15 -1.49612e-33)
(1.99637e-14 2.82994e-14 6.50419e-35)
(1.07038e-14 2.30981e-14 2.96792e-32)
(-8.55528e-16 -5.41148e-16 8.45371e-34)
(2.82555e-14 -2.99103e-14 -2.15186e-33)
(2.33322e-14 -2.6736e-14 0)
(-2.58915e-16 1.04925e-19 2.77084e-34)
(-1.95505e-16 -4.36442e-17 0)
(2.35217e-15 2.7942e-15 1.33648e-32)
(1.53807e-14 3.12827e-14 -3.48366e-32)
(1.44946e-14 2.71704e-14 -2.16828e-33)
(1.41557e-14 -3.08472e-14 -1.68485e-32)
(-6.85759e-16 3.83814e-16 0)
(2.02778e-14 2.24267e-14 0)
(-5.74902e-17 2.42347e-17 -1.08457e-34)
(1.53093e-14 -3.13499e-14 -4.00979e-32)
(6.56051e-15 1.73875e-15 0)
(6.98885e-15 -1.48638e-14 -2.56431e-32)
(2.28124e-15 6.23505e-15 2.49825e-32)
(7.65605e-15 -1.54331e-14 5.02984e-32)
(2.25832e-14 -2.83745e-14 -1.00055e-32)
(1.464e-14 -3.09115e-14 -1.19467e-32)
(2.51828e-14 -3.3634e-14 -1.62198e-33)
(2.73138e-14 -2.44922e-14 3.11241e-33)
(2.69976e-14 -2.80784e-14 -3.09432e-33)
(-4.39886e-16 2.03905e-16 -3.8659e-34)
(-7.91188e-16 -1.32902e-15 0)
(2.6641e-14 2.35782e-14 6.96723e-33)
(9.45027e-15 2.09956e-14 0)
(-1.91709e-16 4.13532e-17 1.37306e-34)
(1.01788e-14 -2.05198e-14 3.04918e-32)
(1.16667e-14 -1.60171e-14 0)
(1.47244e-14 -2.90347e-14 4.11329e-33)
(-7.89407e-16 -2.54497e-15 2.98747e-33)
(1.06395e-14 -1.39595e-14 0)
(1.24111e-14 3.06918e-14 8.90143e-33)
(1.71457e-14 -1.70137e-14 4.32037e-32)
(2.50939e-14 -2.79342e-14 -2.27722e-33)
(1.59445e-14 3.24791e-14 -3.26048e-32)
(1.118e-14 3.14026e-14 0)
(1.55273e-14 3.09907e-14 3.90977e-32)
(1.24227e-14 3.16797e-14 0)
(-8.37775e-16 -7.85831e-16 1.43055e-33)
(2.52115e-15 -5.08722e-15 -2.37447e-32)
(1.54687e-14 3.20423e-14 -3.52355e-32)
(1.42664e-14 2.52292e-14 0)
(1.24089e-14 -2.29112e-14 4.85912e-32)
(-4.32764e-16 1.11733e-16 3.7866e-34)
(2.74507e-14 -2.19558e-14 -8.72705e-35)
(1.30396e-14 2.5154e-14 -3.2645e-32)
(5.87072e-15 1.08959e-14 0)
(1.11918e-14 3.09262e-14 0)
(1.08897e-14 2.0824e-14 0)
(-1.55541e-16 -5.38583e-15 0)
(5.49006e-15 -1.07934e-14 2.9836e-32)
(2.64646e-14 3.26399e-14 0)
(9.25281e-15 2.1066e-14 2.02131e-32)
(-7.57464e-17 1.30089e-16 -3.14618e-33)
(1.59783e-14 -3.22604e-14 0)
(1.07116e-14 2.90968e-14 0)
(1.82517e-14 -3.43476e-14 0)
(5.27895e-15 7.69255e-15 -2.23751e-33)
(6.11668e-15 -6.56103e-15 4.31837e-32)
(4.65432e-15 -9.41856e-15 2.16059e-32)
(1.67521e-14 3.29464e-14 -1.07258e-33)
(-4.33625e-16 8.44821e-16 -1.82351e-33)
(1.99729e-14 1.31256e-14 -3.02228e-32)
(-2.29317e-16 -3.17256e-16 2.27506e-33)
(5.069e-15 5.45363e-15 1.41304e-32)
(1.8923e-14 -3.48567e-14 0)
(1.61872e-14 -3.12886e-14 0)
(1.45358e-14 -2.71279e-14 0)
(3.05538e-15 5.67923e-15 0)
(1.61633e-14 -2.94365e-14 5.83406e-34)
(3.51923e-17 -2.13217e-15 0)
(1.12436e-14 2.74913e-14 -1.1201e-32)
(-1.64099e-16 -3.62309e-15 0)
(1.43656e-14 2.75391e-14 -2.99538e-34)
(-7.17783e-17 -1.14301e-16 0)
(-1.90325e-15 1.69206e-15 0)
(1.50564e-14 -2.57919e-14 3.63839e-32)
(6.77625e-15 -1.23407e-14 0)
(7.8758e-15 1.37399e-14 0)
(4.5799e-15 9.12316e-15 -3.92691e-34)
(1.20968e-14 2.2788e-14 0)
(-1.06921e-15 1.96117e-16 0)
(-1.38079e-15 2.06916e-17 -6.9941e-34)
(2.7439e-14 1.93769e-14 -2.16316e-33)
(8.6841e-15 -1.50194e-14 -3.43212e-32)
(2.49211e-15 -2.01967e-15 0)
(6.71416e-15 1.23428e-14 3.16573e-34)
(1.69711e-14 2.25076e-14 4.58388e-32)
(8.13995e-15 2.23194e-14 0)
(-1.12358e-15 -2.27519e-16 1.5088e-33)
(1.72476e-14 2.92551e-14 0)
(-2.744e-17 7.48971e-18 1.52249e-33)
(9.16182e-15 -1.1323e-14 2.59036e-33)
(1.59972e-14 3.27613e-14 3.415e-32)
(1.73932e-14 3.37678e-14 0)
(8.4557e-16 -1.99855e-15 0)
(1.73146e-14 -3.37126e-14 0)
(1.36303e-14 -2.51031e-14 4.22406e-32)
(1.47958e-14 -1.97297e-14 -6.54264e-33)
(1.28464e-14 2.40791e-14 2.93823e-34)
(9.97086e-15 1.45317e-14 4.37158e-32)
(-2.6221e-15 4.76418e-16 -3.71426e-34)
(-1.49239e-16 -4.0266e-16 -4.97033e-33)
(-1.52394e-16 4.19636e-16 -3.94245e-33)
(1.3477e-14 2.4905e-14 0)
(1.29346e-14 -2.41145e-14 0)
(-2.73547e-17 -7.93094e-18 0)
(-1.21451e-15 -5.13796e-16 -8.7818e-34)
(6.41558e-15 -8.81043e-15 6.26865e-32)
(-2.21132e-15 9.55019e-16 5.34105e-34)
(-1.80828e-15 9.35192e-17 1.63476e-34)
(1.47818e-14 -2.77891e-14 -8.758e-32)
(1.5987e-14 2.94891e-14 0)
(1.32629e-14 1.72903e-14 8.48322e-34)
(1.75741e-14 -3.45715e-14 0)
(8.17053e-15 9.51605e-15 -1.08573e-32)
(7.12136e-15 1.60366e-14 -9.26448e-33)
(1.76699e-14 3.45972e-14 0)
(1.44684e-14 3.01046e-14 0)
(-2.05094e-15 -3.63234e-16 -6.5831e-34)
(1.21881e-14 2.43316e-14 0)
(-1.10163e-15 -3.32897e-15 -2.54606e-33)
(1.51588e-14 2.87468e-14 0)
(1.52059e-14 -2.87778e-14 -1.63909e-34)
(1.71694e-14 3.40587e-14 3.86654e-32)
(3.70391e-15 7.81754e-15 0)
(1.70798e-14 -3.3938e-14 4.60886e-32)
(1.36761e-14 2.62098e-14 3.58582e-32)
(8.70367e-15 -1.84023e-14 -4.28747e-32)
(7.52512e-15 -1.39594e-14 -4.16218e-32)
(7.08985e-15 1.3009e-14 0)
(8.63419e-15 1.80743e-14 2.28928e-34)
(-3.13784e-15 -1.91091e-16 1.24688e-33)
(-6.0389e-17 -9.75602e-17 0)
(-6.11783e-17 1.11143e-16 2.40059e-33)
(3.14158e-16 -1.74317e-15 2.19656e-32)
(4.27741e-15 6.42693e-15 0)
(2.24523e-15 -2.56177e-15 5.36216e-32)
(2.4522e-15 4.83068e-15 3.13581e-34)
(9.62225e-15 -2.65037e-14 0)
(9.65511e-15 2.65215e-14 0)
(5.0714e-15 -8.30922e-15 -1.9779e-32)
(3.76576e-15 -6.95649e-15 -3.51562e-32)
(3.77737e-15 6.90951e-15 -3.11597e-32)
(-5.39197e-16 -3.36824e-16 -1.75075e-33)
(7.14228e-15 -1.61668e-14 0)
(3.32993e-15 6.18067e-15 -3.09268e-32)
(3.46382e-15 -5.85718e-15 -3.87991e-32)
(-2.94326e-15 7.82774e-16 -1.55822e-34)
(6.27762e-15 1.16167e-14 -6.13968e-34)
(-9.70407e-17 3.24551e-16 5.97951e-33)
(2.78886e-15 -5.72579e-15 -3.02666e-32)
(2.8387e-15 5.36991e-15 0)
(2.44534e-15 1.80738e-15 0)
(4.16045e-15 6.87338e-15 0)
(-2.24908e-15 3.70479e-15 6.47004e-34)
(-2.49613e-15 -3.76077e-16 0)
(1.38152e-14 3.16952e-14 3.19965e-34)
(6.18206e-15 -4.19688e-15 3.32321e-32)
(2.48232e-15 -6.62784e-15 0)
(2.664e-16 1.75796e-15 0)
(1.10889e-14 -3.09075e-14 -7.22743e-33)
(2.19266e-16 -3.42338e-15 -2.86333e-32)
(1.88263e-14 3.49731e-14 -1.8325e-32)
(4.02409e-15 -7.3931e-15 -2.9004e-32)
(2.38283e-15 -1.69516e-15 -6.98114e-32)
(3.717e-15 -7.89182e-15 1.16769e-32)
(3.54906e-15 6.51463e-15 -2.53588e-34)
(-1.10712e-16 -3.2409e-16 8.80865e-33)
(-2.57139e-16 -8.99063e-16 -1.2052e-32)
(1.77421e-14 2.03906e-14 -6.73888e-32)
(1.09683e-14 -2.35694e-14 1.76846e-32)
(5.26135e-15 -1.45679e-14 0)
(1.43482e-15 -3.35604e-15 -9.42678e-33)
(8.79207e-16 -4.65925e-16 -6.32031e-34)
(6.16732e-16 -3.03552e-15 0)
(6.25578e-16 3.04299e-15 0)
(1.25851e-14 3.03291e-14 0)
(7.35014e-15 -1.92285e-14 0)
(-3.25672e-15 1.1916e-17 -7.05341e-34)
(-1.69976e-15 -7.52234e-16 -9.67747e-34)
(-3.07686e-15 1.70944e-15 1.64807e-33)
(-1.71215e-15 3.48653e-15 3.9157e-35)
(1.44125e-15 3.34058e-15 -4.09464e-37)
(7.4703e-15 1.36255e-14 0)
(-2.30984e-15 3.93278e-15 2.81162e-33)
(7.09029e-15 -1.30728e-14 3.47718e-34)
(-2.79776e-15 2.58674e-15 -6.51939e-34)
(-3.07539e-15 -1.47548e-15 0)
(-2.55763e-15 -1.18166e-15 8.02121e-34)
(-2.81306e-15 2.22734e-15 1.07202e-33)
(5.30996e-15 1.01508e-14 0)
(2.0155e-15 -4.27954e-15 1.09414e-34)
(2.01792e-15 4.21814e-15 -1.44331e-32)
(-4.61997e-17 1.54368e-15 2.47962e-33)
(-3.14606e-16 3.09868e-15 6.96453e-34)
(9.27121e-15 -2.61262e-14 3.55477e-33)
(1.42165e-14 3.12575e-14 0)
(-2.0874e-15 2.24357e-15 -2.67453e-34)
(4.03661e-15 7.18116e-15 -2.72383e-32)
(-1.69063e-16 -1.00543e-15 2.13181e-33)
(-3.06502e-16 -1.54721e-15 -3.12141e-33)
(3.56537e-15 -6.60508e-15 0)
(1.10828e-14 -3.13947e-14 1.35175e-32)
(-3.62094e-16 -3.24843e-15 -3.52407e-33)
(-3.8044e-16 -2.43322e-15 -7.73453e-34)
(-2.11346e-15 4.38882e-15 -2.86481e-33)
(9.31329e-15 2.60641e-14 0)
(-2.11454e-16 -1.72002e-15 1.71795e-34)
(-1.19815e-16 -1.897e-15 2.90535e-33)
(-1.53058e-16 -6.73693e-16 4.59949e-33)
(-2.3773e-16 1.80647e-15 -2.8671e-33)
(1.06193e-14 -2.91547e-14 -5.15972e-33)
(2.58388e-15 -3.77828e-15 0)
(-1.73371e-15 1.08139e-15 -5.9678e-34)
(-2.58146e-15 7.00586e-16 -1.41566e-33)
(9.24711e-15 -2.12483e-14 0)
(2.32167e-15 -2.089e-15 0)
(9.30536e-16 -3.84585e-16 -1.41787e-33)
(7.36347e-15 1.91402e-14 -6.7783e-38)
(-1.18762e-15 3.22537e-15 -5.86018e-33)
(-2.83343e-15 -2.77569e-15 -7.54058e-34)
(1.30401e-14 2.90341e-14 0)
(2.49271e-15 6.61142e-15 5.13832e-37)
(5.2741e-15 1.45421e-14 0)
(-1.68715e-15 4.46482e-15 6.88621e-33)
(1.08636e-14 2.29013e-14 0)
(-2.80772e-15 -1.39315e-15 -3.31275e-34)
(-2.7184e-15 1.96115e-15 3.04714e-34)
(5.3925e-16 4.93851e-15 2.8961e-33)
(-1.84233e-15 6.15483e-16 1.03885e-34)
(-2.14542e-15 -3.21566e-15 3.05242e-34)
(1.82482e-14 3.4418e-14 0)
(1.14924e-14 2.16034e-14 0)
(1.68261e-14 -3.26887e-14 4.26105e-32)
(-1.26444e-15 -3.05009e-15 2.44458e-33)
(-1.05603e-15 4.42236e-16 1.20244e-34)
(1.99282e-14 3.44534e-14 0)
(-8.47054e-16 -7.57667e-16 -4.30633e-35)
(-2.10221e-15 -4.45267e-15 -2.51435e-35)
(9.91744e-15 1.96447e-14 0)
(1.51868e-16 3.48812e-15 1.37162e-33)
(-2.01502e-15 -1.71765e-15 9.20653e-35)
(-2.34627e-15 -4.00016e-15 3.18171e-34)
(4.72001e-16 -5.70382e-15 0)
(-1.63022e-15 2.70256e-15 0)
(-2.69718e-15 -2.44698e-15 0)
(-2.91062e-15 -1.3506e-15 -1.24379e-33)
(4.95151e-15 -1.55451e-15 -4.92563e-33)
(9.62779e-16 -4.84655e-15 6.17954e-34)
(1.60748e-15 1.72607e-15 -1.24523e-33)
(2.06466e-14 -2.65101e-14 0)
(2.8121e-14 -1.29886e-14 -1.03336e-32)
(2.42529e-15 5.46782e-15 -1.07392e-32)
(2.37753e-15 -5.24684e-15 1.33176e-32)
(2.69724e-15 5.82696e-15 -1.37049e-32)
(2.76429e-15 -5.89461e-15 -2.25025e-32)
(2.94167e-15 -5.89668e-15 0)
(3.00351e-15 5.96517e-15 8.81208e-33)
(4.22038e-15 -3.60333e-15 0)
(3.27173e-15 -7.23527e-15 0)
(3.26253e-15 7.49023e-15 0)
(4.02073e-15 1.66367e-15 -1.39271e-33)
(3.71501e-15 7.8106e-15 -1.37771e-32)
(4.49974e-15 -8.43062e-15 -3.5787e-32)
(4.42197e-15 8.30439e-15 -7.98379e-33)
(1.72195e-14 2.47164e-16 2.32887e-34)
(4.97436e-15 1.16028e-15 0)
(9.98476e-15 5.32382e-17 6.58689e-33)
(2.18003e-15 -5.4738e-15 0)
(6.33287e-15 1.09193e-16 4.16968e-33)
(2.84159e-14 -5.68864e-16 0)
(1.27082e-14 -9.06162e-17 -2.24273e-34)
(2.58443e-14 -2.12864e-14 5.7405e-32)
(-1.60907e-15 -1.3331e-15 6.21002e-34)
(7.9215e-15 8.19651e-15 0)
(1.3992e-14 -2.93603e-14 3.52243e-32)
(7.51714e-15 5.29569e-15 -1.28814e-32)
(1.4937e-14 1.7388e-14 7.75818e-33)
(2.6954e-14 -1.66392e-14 -1.5654e-32)
(2.6236e-14 3.22192e-14 -5.44041e-33)
(7.80554e-15 -4.85113e-15 2.04706e-32)
(-1.39054e-15 7.21904e-16 -3.79768e-34)
(5.0395e-15 1.11436e-14 0)
(5.0381e-15 -1.09571e-14 -1.78614e-32)
(2.23307e-14 6.40579e-15 -1.34402e-32)
(-1.04798e-16 1.39616e-17 -3.46077e-34)
(5.44893e-15 -1.18639e-14 9.94528e-33)
(5.51429e-15 1.18728e-14 0)
(2.29949e-14 -2.65844e-15 -1.36707e-33)
(1.88224e-14 -1.37659e-15 -9.17687e-33)
(2.56208e-14 8.3732e-17 -2.45856e-33)
(9.92024e-15 -1.53122e-16 2.0738e-33)
(6.84331e-15 1.48304e-14 0)
(7.49395e-15 1.49594e-14 -5.76356e-33)
(4.5237e-15 -1.04322e-14 0)
(-5.29359e-17 -2.44342e-17 0)
(2.88204e-14 -7.40993e-15 0)
(2.84826e-14 -5.93698e-15 -1.22136e-32)
(1.11364e-14 -2.75939e-14 0)
(2.68326e-14 2.90655e-14 2.85758e-33)
(2.31591e-14 -3.11598e-15 6.31773e-33)
(1.62607e-14 -1.30124e-14 0)
(-3.65465e-16 -5.46766e-15 3.91283e-33)
(2.76648e-14 -2.42376e-15 -1.23152e-33)
(-1.17343e-16 3.32109e-15 0)
(2.44565e-14 2.86882e-14 -8.31807e-33)
(9.07518e-17 3.36174e-15 0)
(1.88112e-14 1.12121e-15 -2.23489e-33)
(1.01857e-14 7.41739e-15 0)
(-7.51634e-17 4.31022e-17 1.38786e-34)
(2.904e-14 4.08704e-15 1.00977e-33)
(2.42312e-14 -2.05731e-14 -1.26514e-32)
(2.71485e-14 8.35292e-15 -5.36833e-33)
(2.28948e-14 -6.33732e-15 1.83819e-33)
(2.46976e-14 -1.40616e-14 0)
(2.86281e-14 3.48047e-15 -1.01503e-33)
(2.33594e-14 2.12025e-14 1.01034e-32)
(4.86771e-15 -2.89715e-15 0)
(9.97256e-15 2.58293e-14 -9.0622e-33)
(2.80789e-14 1.44263e-14 5.43669e-33)
(2.59758e-14 -9.03488e-15 1.57979e-32)
(1.24347e-14 -2.59853e-14 -1.94563e-32)
(1.2343e-14 2.61246e-14 -1.88334e-32)
(1.6351e-14 -3.29471e-14 3.20253e-32)
(-1.30124e-15 1.47345e-15 0)
(1.48438e-14 3.0889e-14 3.76886e-32)
(-8.82362e-18 2.0795e-15 0)
(1.60455e-14 -3.19785e-14 -1.78194e-33)
(1.51491e-14 3.0813e-14 1.76377e-32)
(1.36588e-14 3.04224e-14 0)
(1.20642e-14 -3.04722e-14 7.2497e-33)
(4.84814e-15 -1.19867e-14 0)
(8.50283e-15 1.418e-15 0)
(2.18294e-15 -6.19371e-15 -1.4308e-33)
(1.22127e-14 -3.16497e-14 -8.94695e-33)
(2.27746e-14 3.36637e-14 1.16778e-32)
(1.09451e-14 1.08558e-16 -6.59687e-33)
(1.3883e-14 -1.70564e-14 -3.18096e-33)
(-6.27022e-17 -4.21723e-17 0)
(2.40618e-15 5.87579e-15 0)
(1.40626e-14 -3.15336e-14 2.08577e-32)
(1.18038e-14 -2.4772e-14 -3.8378e-32)
(2.41185e-14 1.67545e-14 -9.45697e-33)
(8.10342e-15 -2.23367e-14 -8.64479e-35)
(2.76914e-14 8.86617e-15 1.36163e-32)
(2.73791e-14 1.39243e-14 -3.83974e-33)
(-1.76971e-15 -2.36622e-15 0)
(-4.48502e-16 -6.12222e-16 -6.82237e-34)
(-1.17885e-15 -5.09382e-15 -1.02813e-33)
(2.12146e-14 3.47919e-14 2.96438e-32)
(1.94212e-14 2.18787e-15 6.59419e-33)
(-6.69297e-16 -4.84707e-15 2.16245e-33)
(1.89936e-14 2.73249e-14 1.35241e-32)
(1.5346e-14 2.40873e-14 -2.55399e-32)
(-2.25675e-16 9.99667e-16 0)
(1.62233e-14 3.22414e-14 0)
(-3.16142e-18 1.54811e-17 0)
(1.38824e-14 2.97728e-14 -1.95207e-32)
(4.02092e-18 -1.16897e-17 7.15945e-34)
(1.65692e-14 3.33493e-14 -3.61616e-32)
(-8.37861e-16 3.87718e-15 0)
(4.80065e-15 3.57217e-15 1.93203e-32)
(2.62488e-14 -1.30109e-14 6.53336e-33)
(4.37082e-15 2.90748e-15 0)
(2.65798e-14 2.64819e-14 0)
(1.03458e-14 -1.22965e-14 -4.36211e-32)
(8.35963e-15 1.01677e-14 -4.34524e-32)
(2.08263e-14 9.13182e-15 -2.58889e-33)
(4.24239e-15 -1.15694e-14 1.3749e-32)
(1.04487e-14 -5.23254e-16 7.13385e-33)
(1.80254e-14 -3.01159e-14 1.96752e-32)
(4.5657e-15 1.20227e-14 1.09728e-32)
(8.52578e-15 -1.00362e-14 0)
(2.46113e-14 7.44693e-15 -9.44868e-33)
(1.29659e-14 -2.93715e-14 1.1199e-33)
(-8.60604e-16 -5.76119e-15 6.38942e-34)
(-1.02688e-16 5.63487e-16 1.8017e-33)
(3.84504e-15 5.43166e-15 -1.75978e-32)
(-2.25752e-16 3.46634e-16 2.92978e-34)
(2.11338e-15 -4.48473e-15 -1.20345e-32)
(1.39669e-14 -2.9768e-14 -2.37716e-33)
(1.33729e-14 -3.1407e-14 -2.32168e-32)
(3.19596e-15 -4.46685e-15 -2.2708e-32)
(5.44519e-15 -7.62805e-15 2.06256e-33)
(1.72546e-14 -2.17981e-14 -3.02087e-33)
(-4.41894e-16 5.7244e-15 0)
(1.50565e-14 -1.5885e-15 1.74799e-32)
(2.79022e-14 3.10572e-14 0)
(-3.07665e-16 -4.18853e-15 -3.57621e-33)
(-4.86583e-16 6.89703e-16 1.72477e-33)
(9.64607e-15 -2.55456e-14 1.10556e-32)
(6.93134e-16 -5.42045e-15 4.78433e-33)
(5.78181e-19 -1.04982e-17 -1.67414e-33)
(-2.14051e-16 1.24537e-16 -4.87189e-34)
(1.8355e-14 3.11855e-14 -2.79903e-32)
(1.34086e-18 9.67441e-18 0)
(2.48295e-14 3.37871e-14 -3.46723e-33)
(1.24149e-14 -3.04524e-14 -1.11538e-33)
(-2.63503e-16 -2.46726e-16 -2.53432e-33)
(-1.15903e-15 1.00598e-15 0)
(4.79865e-15 1.10253e-14 2.93405e-32)
(-1.05159e-15 3.50336e-15 -3.85895e-35)
(1.4945e-14 3.17742e-14 2.82384e-32)
(9.58335e-18 -1.98269e-18 1.07566e-33)
(9.48986e-18 3.56193e-18 4.01553e-34)
(1.60512e-14 -3.2489e-14 -1.96034e-32)
(2.37427e-14 3.31872e-15 6.38466e-33)
(8.18165e-15 -2.09399e-14 -2.39586e-32)
(-2.14394e-15 -2.94162e-15 0)
(2.77756e-14 2.73408e-14 -4.8255e-33)
(-2.87052e-16 2.89509e-16 -5.1448e-34)
(9.55106e-15 2.0664e-14 -1.35749e-32)
(-1.13668e-15 -1.22368e-15 -7.06462e-34)
(8.70983e-15 2.16477e-14 -1.13307e-32)
(-1.59464e-16 1.52654e-16 3.78587e-34)
(-1.23702e-15 -4.6782e-15 -2.12925e-34)
(1.90904e-14 -2.1341e-14 0)
(-7.38956e-16 -3.64355e-15 8.76264e-34)
(1.01832e-14 2.33787e-14 7.24419e-33)
(1.2256e-14 2.597e-14 -4.26011e-32)
(-4.46465e-16 2.44909e-15 0)
(1.55552e-14 -3.11576e-14 1.85607e-32)
(1.03472e-14 -2.32128e-14 2.4626e-32)
(2.21404e-15 3.6808e-15 1.96037e-32)
(-1.28741e-16 -1.20314e-16 -1.36433e-33)
(2.16604e-15 4.51522e-15 -2.84966e-33)
(2.16803e-14 -7.50498e-15 -9.25507e-33)
(6.57673e-15 -1.99997e-15 6.98435e-33)
(8.53086e-15 -1.96743e-14 -1.96015e-33)
(1.3292e-14 -2.82987e-14 1.8098e-32)
(-1.78654e-15 -3.59807e-15 0)
(-5.96077e-16 -5.70407e-15 -7.06919e-34)
(-3.73106e-16 -7.88708e-16 -2.93912e-34)
(1.75655e-14 -2.68504e-14 -1.19637e-32)
(4.95397e-15 4.10709e-16 -2.05761e-32)
(9.85463e-15 -1.54974e-14 -6.64647e-33)
(1.66536e-14 -3.31825e-14 -2.02673e-32)
(-1.84986e-16 8.21344e-16 -6.7577e-33)
(-1.52283e-15 -5.37169e-15 -9.50317e-34)
(2.0336e-14 -1.41196e-14 1.77737e-32)
(8.12031e-15 1.26173e-14 0)
(6.12878e-16 4.51044e-15 -1.26471e-32)
(1.15002e-14 2.45741e-14 1.57944e-32)
(1.73574e-14 2.20362e-14 1.92301e-32)
(-8.25487e-18 -1.35309e-18 -1.19618e-33)
(-1.09688e-17 4.32342e-18 -1.38525e-33)
(1.6244e-14 -9.6348e-15 0)
(8.24829e-15 -1.29685e-14 3.45971e-32)
(1.02829e-14 -2.25422e-14 2.02911e-32)
(1.08565e-14 -8.40861e-15 0)
(-1.19205e-15 5.50663e-15 -2.79663e-33)
(5.9888e-16 5.52799e-15 1.91707e-33)
(2.28157e-14 2.68523e-14 -1.44007e-32)
(2.06923e-14 -2.761e-14 9.00551e-33)
(1.00189e-14 -2.38555e-14 8.01586e-34)
(2.53044e-14 -2.02213e-14 1.15998e-32)
(1.58146e-14 3.09933e-14 -4.12107e-32)
(1.28965e-14 -2.95362e-14 0)
(1.6927e-14 2.7071e-14 0)
(2.61624e-14 -1.64883e-14 0)
(1.61904e-14 2.91546e-15 -4.99914e-33)
(1.99818e-14 -3.46558e-14 0)
(1.33326e-15 -3.62601e-15 3.88043e-33)
(-1.91716e-15 -4.2611e-15 4.94248e-34)
(-7.65564e-16 7.63202e-16 2.26325e-34)
(-5.91329e-16 4.78456e-16 6.65693e-34)
(9.54817e-15 1.56671e-14 1.21113e-32)
(8.88099e-15 -1.93177e-14 2.45186e-33)
(-3.85675e-17 5.31524e-17 1.63178e-34)
(-3.24367e-17 -3.93443e-17 3.78514e-33)
(3.54014e-15 3.62835e-15 -6.42892e-33)
(-1.79773e-16 -1.02765e-16 -1.85224e-34)
(1.64581e-14 5.98032e-15 2.51345e-33)
(4.34704e-18 7.0895e-18 -1.78437e-34)
(9.46902e-18 -2.16435e-18 -1.82992e-33)
(1.44118e-14 3.02563e-14 0)
(2.40651e-14 2.81836e-14 0)
(2.27388e-14 -1.46642e-14 -1.7915e-32)
(1.2374e-14 5.21906e-15 0)
(2.75969e-14 2.99825e-14 5.20483e-33)
(2.01578e-15 4.93493e-15 0)
(2.43926e-14 3.14116e-14 1.50592e-33)
(2.10464e-14 2.56159e-14 9.75264e-33)
)
;

boundaryField
{
    front
    {
        type            empty;
    }
    back
    {
        type            empty;
    }
    bottom
    {
        type            zeroGradient;
    }
    left
    {
        type            noSlip;
    }
    top
    {
        type            uniformFixedValue;
        uniformValue    
        {
            type            scale;
            scale           
            {
                type            squarePulse;
                start           0.3;
                duration        0.3;
            }
            xScale          
            {
                type            constant;
                value           1;
            }
            value           
            {
                type            constant;
                value           (0 -0.7 0);
            }
        }
        value           uniform (0 -0 0);
    }
    right
    {
        type            noSlip;
    }
    inner_arc
    {
        type            noSlip;
    }
}


// ************************************************************************* //
