/*--------------------------------*- C++ -*----------------------------------*\
  =========                 |
  \\      /  F ield         | OpenFOAM: The Open Source CFD Toolbox
   \\    /   O peration     | Website:  https://openfoam.org
    \\  /    A nd           | Version:  9
     \\/     M anipulation  |
\*---------------------------------------------------------------------------*/
FoamFile
{
    format      ascii;
    class       volVectorField;
    location    "0.83";
    object      U;
}
// * * * * * * * * * * * * * * * * * * * * * * * * * * * * * * * * * * * * * //

dimensions      [0 1 -1 0 0 0 0];

internalField   nonuniform List<vector> 
578
(
(-0.0363 -0.0432 0)
(-0.0193 -0.0652 2.82e-16)
(-0.0543 -0.0639 -1e-16)
(0.00361 -0.0708 -2.39e-17)
(0.0118 -0.0263 -4.49e-17)
(0.00456 -0.0928 -8.86e-17)
(-0.0123 -0.027 4.47e-17)
(0.0133 -0.0245 -2.1e-20)
(0.0596 -0.0898 -1.95e-16)
(-0.0114 -0.0409 4.19e-16)
(0.00578 -0.101 -1.32e-16)
(0.0384 -0.0749 0)
(0.00934 -0.0872 9.74e-17)
(0.0395 -0.0821 -7.56e-16)
(-0.0401 -0.0831 3.8e-16)
(0.0699 -0.075 -9.14e-17)
(-0.0456 -0.0415 4.08e-16)
(-0.0732 -0.0623 0)
(0.0352 -0.0685 0)
(0.0652 -0.0878 1.4e-16)
(0.00326 -0.0799 0)
(0.0557 -0.0688 0)
(0.0308 -0.0274 -4.84e-16)
(0.000215 -0.0738 0)
(-0.00104 -0.0586 0)
(0.0337 -0.0683 3.85e-16)
(-0.00331 -0.0677 -4.86e-17)
(-0.00024 -0.0336 2.62e-17)
(-0.0169 -0.0781 -4.66e-16)
(0.0722 -0.078 3.73e-16)
(-0.00101 -0.0581 -4.48e-16)
(0.00429 -0.0765 9.61e-17)
(0.077 -0.0829 -3.59e-16)
(-0.0012 -0.0795 1.89e-16)
(-0.0351 -0.0747 -3.76e-16)
(0.0617 -0.0652 -5.66e-16)
(0.0345 -0.0733 7.4e-16)
(0.0324 -0.0631 0)
(-0.0695 -0.0755 -3.71e-16)
(0.019 -0.0403 0)
(0.0194 -0.0438 -3.67e-16)
(0.0221 -0.04 4.4e-16)
(0.0195 -0.0378 0)
(-0.0356 -0.0731 0)
(0.0543 -0.0528 4.82e-17)
(-0.0195 -0.0414 0)
(-0.0198 -0.045 3.67e-16)
(0.054 -0.0825 -4.84e-17)
(-0.0692 -0.0754 5.53e-16)
(-0.00567 -0.0806 -1.02e-16)
(0.000743 -0.0353 1.43e-17)
(0.0138 -0.0901 -4.11e-16)
(0.046 -0.033 -2e-16)
(-0.0014 -0.0805 0)
(0.0015 -0.0811 3.35e-16)
(-0.00429 -0.0975 8.12e-16)
(0.012 -0.0105 7.76e-16)
(0.0364 -0.0301 -3.94e-16)
(-0.0598 -0.0594 -7.09e-16)
(0.0398 -0.0426 2.07e-16)
(-0.0706 -0.0674 3.74e-16)
(-0.0381 -0.0267 0)
(-0.0578 -0.0442 5.38e-17)
(0.0354 -0.0731 3.52e-16)
(-0.00461 -0.0892 9.36e-17)
(-0.0444 -0.0836 2.07e-16)
(0.0733 -0.0856 -4.32e-17)
(0.0103 -0.0979 3.1e-16)
(0.0786 -0.0736 -1.78e-16)
(0.0393 -0.0839 4.14e-16)
(0.000463 -0.0623 0)
(0.00133 -0.0629 -1.34e-17)
(0.000151 -0.0862 -1.02e-16)
(0.0402 -0.0854 0)
(0.00161 -0.108 1.88e-16)
(0.0117 -0.0248 0)
(0.0526 -0.0762 2.49e-16)
(0.0433 -0.0619 -2.04e-16)
(0.00572 -0.0901 0)
(-0.0359 -0.0385 -1.09e-16)
(0.0362 -0.074 -3.51e-16)
(-0.0179 -0.0257 -3.79e-16)
(0.0108 -0.0252 -1.73e-16)
(0.0178 -0.0252 1.75e-16)
(-0.0702 -0.0864 -5.02e-17)
(-0.0142 -0.0411 0)
(0.000666 -0.0206 0)
(-0.00412 -0.107 -2.98e-16)
(0.0286 -0.0633 9.41e-21)
(-0.0305 -0.0702 3.34e-18)
(-0.00242 -0.0739 0)
(-0.0608 -0.0784 1.02e-16)
(-0.029 -0.0648 0)
(0.013 -0.0971 1.82e-16)
(0.0735 -0.0757 5.53e-16)
(0.0528 -0.0699 -4.74e-16)
(0.000128 -0.0822 1e-16)
(0.00525 -0.0827 -7.17e-16)
(-0.00392 -0.0246 -7.49e-16)
(-0.0399 -0.0833 0)
(-0.0418 -0.0747 0)
(0.0369 -0.0813 -6.53e-16)
(-0.0138 -0.0946 0)
(-0.0546 -0.0575 0)
(-0.00447 -0.0815 0)
(0.0392 -0.0824 -5.63e-16)
(0.00224 -0.0977 -1.98e-16)
(0.0198 -0.0426 0)
(-0.00842 -0.0231 0)
(0.0222 -0.0445 -4.57e-16)
(0.0615 -0.0711 -1.52e-16)
(0.0376 -0.08 0)
(0.0697 -0.0846 4.19e-16)
(0.0606 -0.0721 -3.38e-16)
(0.0633 -0.0744 3.51e-16)
(-0.0138 -0.0905 4.06e-16)
(0.00602 -0.0801 2.11e-16)
(-0.0499 -0.0771 -3.1e-16)
(-0.0269 -0.0608 5.38e-17)
(-0.00516 -0.0827 3.55e-16)
(0.0278 -0.056 -3.66e-16)
(0.0279 -0.0422 -1.01e-21)
(0.0382 -0.0767 -3.99e-16)
(0.00168 -0.065 -5.36e-17)
(0.0235 -0.0406 0)
(-0.0324 -0.0819 4.13e-16)
(0.0244 -0.0751 -3.92e-16)
(0.0752 -0.0765 -2e-16)
(-0.0407 -0.0863 2.07e-16)
(-0.0266 -0.0819 0)
(-0.0402 -0.0819 0)
(-0.0317 -0.0833 0)
(0.0111 -0.0937 0)
(0.00808 -0.0163 3.88e-16)
(-0.0397 -0.0843 -3.86e-16)
(-0.0406 -0.0695 0)
(0.0338 -0.0634 0)
(-0.00836 -0.0866 -3.48e-16)
(0.0496 -0.0732 3.93e-16)
(-0.035 -0.0686 0)
(-0.0182 -0.0343 4.74e-16)
(-0.0276 -0.0822 0)
(-0.0302 -0.0584 0)
(-0.000256 -0.0623 0)
(0.0159 -0.0311 0)
(-0.0733 -0.0827 1.1e-20)
(-0.0247 -0.0573 4.34e-16)
(-0.00656 -0.0514 0)
(0.0405 -0.0838 4.18e-16)
(-0.0264 -0.0762 0)
(0.0486 -0.0902 0)
(-0.0186 -0.0263 0)
(0.0181 -0.0178 0)
(0.014 -0.0283 4.64e-16)
(-0.0438 -0.0878 -3.88e-16)
(-0.00578 -0.0704 -2.15e-16)
(-0.0197 -0.0884 4.18e-16)
(0.0116 -0.0792 -9.58e-17)
(-0.0155 -0.0154 -9.35e-17)
(0.0512 -0.0909 -3.3e-16)
(0.044 -0.083 4.65e-16)
(0.0413 -0.0734 4.83e-16)
(-0.00993 -0.0188 -5.93e-18)
(0.0445 -0.0799 0)
(-0.00012 -0.019 2.33e-20)
(-0.0287 -0.0725 5.8e-21)
(-0.000206 -0.0348 -4.67e-16)
(-0.0391 -0.0755 0)
(0.00765 -0.0527 -1.05e-16)
(-0.00558 -0.103 -1.72e-16)
(0.0428 -0.0708 0)
(0.0203 -0.0367 0)
(-0.0244 -0.0417 0)
(-0.0141 -0.0284 -4.67e-16)
(-0.0341 -0.0644 0)
(-0.0052 -0.095 -9.61e-17)
(-0.000272 -0.0985 -9.73e-17)
(-0.048 -0.0729 3.58e-16)
(0.0267 -0.0452 5.26e-17)
(-0.00218 -0.0637 2.2e-16)
(-0.021 -0.0375 0)
(-0.0367 -0.0642 0)
(-0.0215 -0.0661 0)
(0.00528 -0.0958 7.21e-16)
(-0.0486 -0.0782 2.62e-16)
(-0.00497 -0.038 -3.48e-16)
(0.025 -0.0301 -1.76e-16)
(-0.0417 -0.0865 9.35e-17)
(-0.0459 -0.0902 4.05e-16)
(-0.00105 -0.0362 -4.71e-16)
(0.0449 -0.0889 -4.01e-16)
(0.0379 -0.0706 0)
(0.0382 -0.0492 4.47e-16)
(-0.0361 -0.0682 0)
(-0.0242 -0.0417 0)
(-0.00144 -0.111 1.86e-16)
(0.00286 -0.0419 8.91e-16)
(-0.00282 -0.0414 -7.12e-16)
(-0.0381 -0.0709 0)
(0.0355 -0.0674 0)
(0.00589 -0.0396 -3.43e-16)
(0.00902 -0.0993 -9.11e-16)
(0.0136 -0.0422 -2.21e-16)
(-0.0041 -0.108 0)
(-0.000975 -0.104 -2.93e-16)
(0.039 -0.075 0)
(-0.0442 -0.0802 0)
(-0.0451 -0.0537 0)
(0.046 -0.0906 4.13e-16)
(-0.0225 -0.0256 0)
(-0.0196 -0.0456 4.4e-16)
(-0.0469 -0.0921 -3.98e-16)
(-0.0374 -0.0796 -1.29e-17)
(0.00246 -0.107 9.58e-17)
(-0.0328 -0.0664 -2.2e-16)
(0.00136 -0.0726 0)
(-0.0416 -0.0799 -4.19e-16)
(0.0409 -0.0789 4.2e-16)
(-0.0446 -0.0905 4.1e-16)
(-0.0111 -0.0239 -4.8e-16)
(0.0437 -0.0892 2.09e-16)
(-0.0372 -0.0722 0)
(0.0237 -0.0502 -4.33e-16)
(0.0228 -0.0428 0)
(-0.0222 -0.0413 0)
(-0.024 -0.0504 8.72e-16)
(4.03e-05 -0.115 -9.38e-17)
(0.00264 -0.0253 4.01e-20)
(-0.00208 -0.025 1.84e-16)
(-0.000322 -0.0191 3.71e-16)
(-0.00945 -0.0231 -3.76e-16)
(0.00465 -0.0225 -1.9e-16)
(-0.00807 -0.0163 -3.86e-16)
(0.023 -0.0726 0)
(-0.0234 -0.0738 0)
(0.0165 -0.0264 1.34e-16)
(0.0125 -0.0237 0)
(-0.0128 -0.0239 0)
(0.0158 -0.0938 1.52e-16)
(0.0194 -0.0453 0)
(-0.0113 -0.0205 0)
(0.0112 -0.0195 0)
(-0.00141 -0.113 -3.8e-16)
(-0.0191 -0.0357 0)
(-0.00137 -0.0218 7.23e-16)
(0.00899 -0.0179 0)
(-0.00962 -0.0181 -3.74e-16)
(-0.00358 -0.0403 8.74e-16)
(-0.0135 -0.0219 0)
(-0.00185 -0.0998 -9.48e-17)
(0.00142 -0.11 9.39e-17)
(-0.0359 -0.0834 0)
(0.00678 -0.0667 0)
(0.00702 -0.0203 -3.74e-18)
(0.00059 -0.0182 0)
(0.0269 -0.0809 4.12e-16)
(-0.000405 -0.0357 4.65e-16)
(-0.0516 -0.0921 -6.35e-16)
(0.0133 -0.0241 0)
(0.00405 -0.0396 4.69e-16)
(0.0111 -0.0238 4.76e-16)
(-0.0118 -0.0211 3.79e-16)
(0.000772 -0.0217 -7.39e-16)
(0.00109 -0.039 4.98e-16)
(-0.0329 -0.0718 3.18e-16)
(0.0292 -0.0629 7.87e-16)
(0.0138 -0.0404 0)
(0.00487 -0.0116 -3.84e-16)
(-0.000919 -0.0201 -3.79e-16)
(0.00209 -0.00917 0)
(-0.00214 -0.00927 0)
(-0.0323 -0.0795 -4.01e-16)
(0.0188 -0.052 0)
(-0.000241 -0.117 -2.75e-16)
(0.00635 -0.104 -2.02e-16)
(-0.00104 -0.115 -5.55e-16)
(-0.0024 -0.089 2.15e-16)
(-0.00492 -0.0117 0)
(-0.0229 -0.042 0)
(-0.000933 -0.107 -4.86e-16)
(0.0217 -0.0409 0)
(-0.0019 -0.11 8.37e-16)
(0.00032 -0.116 0)
(0.00288 -0.11 -9.4e-17)
(-0.00082 -0.115 1.88e-16)
(-0.0161 -0.0313 -4.56e-16)
(0.00674 -0.0137 -7.6e-16)
(-0.00678 -0.0137 3.83e-16)
(-0.00049 -0.0149 0)
(0.000194 -0.0345 -4.65e-16)
(0.0225 -0.0676 0)
(-0.0367 -0.0822 1.27e-17)
(-0.00394 -0.102 1.72e-16)
(-0.0133 -0.0231 0)
(0.000398 -0.018 0)
(0.000953 -0.0363 5.75e-17)
(0.0115 -0.0209 -3.79e-16)
(0.0261 -0.0806 -1.01e-15)
(-0.000163 -0.0364 1.06e-16)
(0.000312 -0.0368 -4.15e-16)
(-0.00126 -0.0979 4.99e-16)
(-0.023 -0.0689 0)
(3.19e-08 -0.0212 3.69e-16)
(-4.39e-05 -0.018 0)
(0.000641 -0.0209 0)
(6.75e-06 -0.0222 6.99e-16)
(0.0259 -0.0751 4.05e-16)
(-0.00186 -0.0763 -9.61e-16)
(-0.000439 -0.118 -3.65e-16)
(-0.000427 -0.118 0)
(0.0243 -0.0568 2.19e-16)
(-0.000856 -0.116 2.75e-16)
(-0.000394 -0.119 -5.81e-16)
(-0.0191 -0.0525 0)
(-0.000572 -0.114 3.78e-16)
(0.00119 -0.11 3.89e-16)
(-0.034 -0.0766 0)
(-0.00711 -0.0205 0)
(-0.014 -0.0408 0)
(-0.00088 -0.106 -4.66e-16)
(-0.0294 -0.0623 -4.39e-16)
(4.63e-05 -0.117 7.58e-16)
(-0.00264 -0.11 9.69e-17)
(0.000558 -0.103 -3.02e-16)
(-0.00501 -0.105 3.84e-16)
(0.000404 -0.113 -1.79e-16)
(-0.0493 -0.0914 3.81e-16)
(-0.032 -0.0609 0)
(0.043 -0.0865 0)
(9.77e-05 -0.114 6.99e-16)
(-0.00989 -0.0975 9.86e-17)
(-0.0556 -0.0905 -1.52e-16)
(-0.000249 -0.118 1.85e-16)
(0.000743 -0.104 -3.79e-16)
(-0.0277 -0.0554 6.53e-16)
(-6.2e-05 -0.113 1.91e-16)
(0.00516 -0.104 -1.76e-16)
(0.000888 -0.103 -3.95e-16)
(-0.00046 -0.0763 0)
(-0.00234 -0.0903 0)
(0.00197 -0.108 -1.93e-16)
(0.00181 -0.112 2.85e-16)
(-0.000844 -0.116 2.75e-16)
(-0.000787 -0.0659 3.93e-16)
(-0.000157 -0.117 2.78e-16)
(0.0497 -0.0662 -1.12e-16)
(0.0275 -0.0774 2.2e-16)
(-0.00813 -0.0186 -3.82e-16)
(0.00772 -0.0177 9.68e-17)
(-0.00898 -0.0202 3.77e-16)
(0.00905 -0.02 0)
(0.0092 -0.0191 3.84e-16)
(-0.00937 -0.0195 1.92e-16)
(-0.00169 -0.103 -1.89e-16)
(0.0099 -0.0224 0)
(-0.0102 -0.0234 0)
(5.02e-05 -0.116 -2.78e-16)
(-0.0117 -0.0244 -3.72e-16)
(0.0142 -0.0262 0)
(-0.0143 -0.0267 0)
(-0.00135 -0.113 -3e-16)
(-0.0119 -0.0111 0)
(-8.6e-05 -0.116 9.35e-17)
(0.00788 -0.0193 4.27e-16)
(-0.000347 -0.117 -9.67e-17)
(0.000529 -0.0961 -4.07e-16)
(-0.00135 -0.115 9.64e-17)
(0.0396 -0.0781 4.04e-16)
(0.00727 -0.101 1.7e-16)
(-0.0326 -0.0299 0)
(0.0361 -0.0786 0)
(-0.0332 -0.0218 -4.7e-17)
(-0.0525 -0.0539 3.92e-16)
(0.0303 -0.0828 -2.04e-16)
(-0.0764 -0.085 -2.1e-16)
(0.033 -0.0202 3.6e-16)
(-0.00873 -0.101 -9.74e-17)
(-0.0156 -0.0357 -4.84e-16)
(0.0154 -0.0346 3.46e-16)
(-0.0257 -0.05 -4.47e-16)
(-0.00127 -0.081 -3.46e-16)
(0.0161 -0.0363 -2.41e-16)
(-0.0164 -0.0367 0)
(0.00343 -0.107 -4.73e-16)
(0.00146 -0.111 2.79e-16)
(-0.000986 -0.104 5.75e-16)
(-0.00159 -0.0194 -4.94e-16)
(-0.02 -0.0435 4.5e-16)
(-0.0225 -0.0444 0)
(0.0142 -0.0334 -2.97e-16)
(0.00421 -0.0812 1.71e-16)
(0.0151 -0.0813 0)
(0.00976 -0.0916 4.05e-16)
(0.0282 -0.0718 -1.97e-16)
(-0.0797 -0.0774 3.55e-16)
(0.0102 -0.0535 2.08e-16)
(0.0619 -0.0447 3.52e-18)
(-0.000301 -0.0987 5.1e-16)
(0.00542 -0.0716 4.34e-16)
(-0.00102 -0.0314 4.84e-16)
(-0.0748 -0.0793 -7.01e-16)
(0.00111 -0.0335 -4.4e-16)
(-0.0062 -0.0369 2.31e-16)
(-0.0106 -0.0784 3.15e-16)
(-0.0126 -0.0847 0)
(-0.00815 -0.0896 0)
(0.0729 -0.0603 0)
(-0.0236 -0.0679 6.36e-16)
(0.00872 -0.101 -4.89e-16)
(0.0221 -0.0889 -3.99e-16)
(-0.00833 -0.0778 -8.17e-16)
(-0.0373 -0.0799 1.01e-16)
(-0.00284 -0.094 6.37e-21)
(-0.0273 -0.0729 -8.38e-16)
(-0.0338 -0.0765 -1.02e-16)
(0.0143 -0.0953 9.8e-17)
(0.0322 -0.0704 -4.45e-16)
(-0.0326 -0.0718 -2.24e-16)
(0.0409 -0.0861 0)
(-0.00776 -0.0955 9.67e-17)
(-0.0378 -0.0828 5.23e-17)
(0.000129 -0.0177 -2.02e-20)
(0.0412 -0.0842 0)
(-0.0398 -0.082 5.43e-16)
(-0.0358 -0.0811 0)
(0.0313 -0.0804 -2.1e-16)
(0.0138 -0.0405 5.94e-16)
(-0.00622 -0.0889 -4.51e-16)
(0.00792 -0.0224 -3.55e-16)
(0.0307 -0.082 0)
(-0.065 -0.0874 0)
(0.00128 -0.113 -1.88e-16)
(0.047 -0.0525 -1.07e-16)
(0.0114 -0.0837 0)
(-0.0088 -0.0206 -1.86e-16)
(0.0362 -0.0816 -2.05e-16)
(0.0316 -0.0688 0)
(-0.0281 -0.0862 -4e-16)
(0.021 -0.0648 0)
(-0.0155 -0.0929 4.08e-16)
(-0.0258 -0.0864 -3.13e-16)
(0.00358 -0.0958 0)
(0.00993 -0.0829 2.19e-16)
(0.000262 -0.0774 0)
(-0.0601 -0.0912 0)
(-0.00446 -0.109 3.95e-16)
(-0.000526 -0.0619 -3.35e-16)
(-0.0541 -0.0718 -4e-16)
(-0.0444 -0.0655 5.67e-16)
(0.000726 -0.0173 0)
(-0.0419 -0.0852 1.07e-16)
(-0.0109 -0.082 0)
(-0.0369 -0.0806 1.48e-21)
(0.00967 -0.0814 1.66e-16)
(-0.0431 -0.0889 -3.88e-16)
(-0.00145 -0.0642 0)
(-0.00556 -0.0639 -6.95e-18)
(0.0362 -0.0649 2.02e-16)
(0.000516 -0.109 6.01e-16)
(-0.0584 -0.0755 0)
(0.0172 -0.0641 4.33e-16)
(-0.0251 -0.0282 2.23e-16)
(-0.0142 -0.0968 -1.53e-16)
(0.0143 -0.0383 -2.71e-16)
(-0.00222 -0.113 9.7e-17)
(0.0508 -0.0796 -1.33e-20)
(-0.0154 -0.04 0)
(0.025 -0.0269 -2.28e-16)
(-0.0117 -0.0992 2.04e-16)
(0.0335 -0.0761 -6.3e-16)
(0.000527 -0.0912 -4.48e-16)
(-0.00114 -0.0179 0)
(-0.0125 -0.0167 0)
(-0.00989 -0.0756 2.12e-16)
(-0.000601 -0.102 -4.14e-16)
(0.0361 -0.0793 2e-16)
(0.0348 -0.0819 4.21e-16)
(0.0105 -0.0136 1.86e-16)
(0.0194 -0.0258 9.14e-17)
(0.0484 -0.0565 1.79e-16)
(0.000487 -0.0932 0)
(0.00308 -0.11 1.96e-16)
(-0.0757 -0.079 -3.01e-16)
(-0.00081 -0.11 -9.27e-16)
(-0.00912 -0.0815 1.7e-16)
(0.0262 -0.0712 2.17e-16)
(-3.58e-05 -0.0929 3.15e-16)
(-0.00213 -0.0407 0)
(-0.0164 -0.0885 0)
(-0.0531 -0.084 -1.99e-16)
(0.00223 -0.041 -1.71e-16)
(-0.0698 -0.0869 4.95e-17)
(0.0315 -0.0785 2.51e-17)
(0.0174 -0.0906 5.23e-17)
(-0.00994 -0.0982 -2.01e-16)
(-0.0151 -0.0353 4.71e-16)
(-0.00153 -0.0713 2.22e-16)
(-0.0387 -0.084 2.01e-16)
(-0.00671 -0.0782 1.65e-16)
(0.00638 -0.0788 0)
(0.0405 -0.0853 -2.12e-16)
(-0.00567 -0.105 -3.99e-16)
(0.0239 -0.0609 0)
(0.00258 -0.0991 5.95e-16)
(-0.0691 -0.0739 1.14e-16)
(-0.0157 -0.0897 0)
(-0.0266 -0.0598 2.32e-16)
(0.00917 -0.0936 0)
(-0.0254 -0.063 4.36e-16)
(-0.02 -0.0895 0)
(0.00106 -0.0769 4.05e-16)
(0.0392 -0.0647 0)
(0.00135 -0.0616 -4.41e-16)
(-0.0278 -0.0646 -2.41e-16)
(-0.0328 -0.0719 -5.62e-17)
(0.000262 -0.0362 -4.39e-16)
(0.0395 -0.0824 2.16e-16)
(0.0277 -0.0635 0)
(0.000862 -0.0709 0)
(0.0212 -0.0895 4.16e-16)
(0.000561 -0.101 -2.95e-16)
(0.027 -0.0494 -3.51e-16)
(-0.00144 -0.112 9.76e-17)
(0.0247 -0.0571 0)
(0.0349 -0.0763 2.3e-16)
(0.00131 -0.0896 -5.63e-16)
(-1.9e-05 -0.0723 2.89e-16)
(0.00561 -0.0687 -2.27e-16)
(0.053 -0.0742 1.04e-16)
(-0.0047 -0.0735 2.29e-16)
(0.0313 -0.0472 0)
(0.0427 -0.0873 0)
(-0.00217 -0.036 -4.32e-16)
(0.000287 -0.0938 0)
(0.0214 -0.0863 4.82e-16)
(-0.0248 -0.0374 -2.39e-16)
(0.00093 -0.0578 0)
(-0.031 -0.0687 -2.84e-16)
(-0.0489 -0.0576 -2.74e-17)
(-0.0119 -0.0661 4.62e-16)
(0.013 -0.0672 8.71e-20)
(0.0147 -0.0883 -2.66e-17)
(0.0257 -0.0383 0)
(0.0284 -0.0639 2.41e-16)
(0.0125 -0.0749 0)
(-0.000869 -0.0952 -2.13e-16)
(0.000418 -0.0721 0)
(-0.0515 -0.0712 0)
(0.0629 -0.0761 -1.03e-16)
(0.0284 -0.0672 2.24e-16)
(0.0673 -0.061 2.91e-17)
(-0.0414 -0.0829 -1.16e-16)
(0.0341 -0.0787 -2.01e-16)
(-0.0514 -0.0753 1.06e-16)
(0.048 -0.0632 -1.15e-16)
(-0.00624 -0.106 -9.93e-17)
(0.055 -0.0898 -2.71e-16)
(-0.000826 -0.111 1.14e-16)
(0.00105 -0.0918 1.12e-16)
(-0.0121 -0.0929 5.86e-17)
(-0.0148 -0.0942 0)
(-0.0305 -0.0483 0)
(0.0249 -0.0559 -5.05e-16)
(-0.0208 -0.0857 0)
(0.0217 -0.0863 -2.18e-16)
(0.000847 -0.0872 0)
(0.016 -0.0873 2.22e-16)
(-0.00993 -0.0986 1.49e-16)
(-0.023 -0.0871 -2.38e-16)
(0.0225 -0.087 -2.38e-16)
(-0.0374 -0.0812 2.19e-16)
(-0.0583 -0.0717 0)
(0.057 -0.0503 -1.62e-16)
(-0.00978 -0.0908 -4.65e-16)
(-0.0706 -0.0767 1.16e-16)
(0.000705 -0.089 0)
(-0.0676 -0.0801 2.4e-16)
(-0.0579 -0.0655 0)
)
;

boundaryField
{
    front
    {
        type            empty;
    }
    back
    {
        type            empty;
    }
    bottom
    {
        type            zeroGradient;
    }
    left
    {
        type            noSlip;
    }
    top
    {
        type            uniformFixedValue;
        uniformValue    
        {
            type            table;
            format          csv;
            file            "inlet_v.csv";
            nHeaderLine     1;
            refColumn       0;
            componentColumns List<label> 3(1 2 3);
            separator       ",";
            mergeSeparators 0;
        }
        value           uniform (0 -0.08 0);
    }
    right
    {
        type            noSlip;
    }
    inner_arc
    {
        type            noSlip;
    }
}


// ************************************************************************* //
