/*--------------------------------*- C++ -*----------------------------------*\
  =========                 |
  \\      /  F ield         | OpenFOAM: The Open Source CFD Toolbox
   \\    /   O peration     | Website:  https://openfoam.org
    \\  /    A nd           | Version:  9
     \\/     M anipulation  |
\*---------------------------------------------------------------------------*/
FoamFile
{
    format      ascii;
    class       volScalarField;
    location    "0.66";
    object      p;
}
// * * * * * * * * * * * * * * * * * * * * * * * * * * * * * * * * * * * * * //

dimensions      [0 2 -2 0 0 0 0];

internalField   nonuniform List<scalar> 
464
(
1.61734e-07
-2.00657e-07
-1.22839e-07
-7.25007e-08
-2.73746e-07
-1.23418e-07
6.26612e-08
-6.51123e-08
-7.82183e-08
-3.01562e-08
1.43287e-07
3.94518e-07
4.34188e-08
3.72714e-07
2.03586e-07
2.10832e-07
1.00581e-07
9.48425e-08
1.12861e-08
-6.26254e-08
-7.67081e-08
-1.50886e-07
-1.19772e-07
-8.88102e-08
-8.18497e-08
-9.7895e-08
3.14695e-07
2.09821e-09
3.10747e-07
-1.53262e-07
-1.46329e-07
9.32694e-08
1.1511e-07
8.45081e-08
5.71114e-08
6.82024e-08
4.0843e-08
3.60603e-08
1.53791e-08
1.6613e-07
-5.38815e-08
-1.28004e-07
-1.29329e-07
3.03341e-07
2.34744e-07
1.7179e-07
-3.09243e-08
2.42585e-10
7.05513e-08
-5.80395e-09
-3.21528e-08
2.06104e-08
2.23366e-08
-6.38327e-08
-6.33297e-08
1.96503e-08
-9.34491e-09
-1.01211e-07
-1.11674e-07
9.76444e-09
7.1166e-08
-2.28028e-07
-7.56772e-08
-7.55862e-08
-1.39028e-07
-7.16131e-08
-1.5012e-07
8.52233e-08
1.84333e-07
-7.45105e-08
-1.33407e-07
-1.94328e-07
1.86212e-07
8.1647e-09
-2.26576e-07
1.64788e-08
-1.2644e-07
8.12104e-08
-7.54213e-08
2.28037e-07
-3.25457e-07
-1.43832e-07
-4.84589e-07
-1.94907e-07
-3.252e-07
-1.06645e-07
-1.77168e-07
-1.54017e-07
-6.53881e-08
-1.78202e-07
-3.01864e-07
-2.27036e-07
-1.31248e-07
2.61674e-07
-1.57365e-07
-1.10318e-07
-9.00983e-08
-1.19685e-07
-3.62691e-07
-5.55068e-08
-6.83215e-08
-1.12254e-08
-9.92336e-08
6.97193e-08
9.7852e-08
-4.69769e-07
-1.71824e-07
-1.29782e-07
-3.13587e-07
-5.01943e-08
-1.6147e-07
-1.41723e-08
-1.53421e-07
-2.6617e-07
-4.0203e-08
-6.72797e-08
-4.55025e-07
-2.24634e-07
-3.7137e-07
-1.67022e-07
-3.14456e-08
3.21122e-08
-1.31883e-07
1.44975e-07
-1.20546e-07
-1.37936e-07
-5.9086e-08
-2.01074e-07
5.6973e-08
-4.60579e-07
-2.03379e-07
4.04987e-07
4.83763e-08
-9.25186e-08
-1.77257e-07
-4.16649e-07
-2.32464e-07
-2.19303e-08
-6.15075e-08
-1.87144e-07
-2.40028e-07
-1.33751e-07
-1.59325e-07
-6.61877e-08
-2.49742e-07
-2.43846e-07
-6.75217e-08
-1.68197e-07
-8.15859e-08
-1.64173e-07
-1.01918e-07
-9.01768e-08
3.55841e-08
-1.68253e-07
-4.07609e-07
-2.03455e-07
1.0581e-07
-6.65062e-08
-4.45475e-08
-2.89663e-07
-4.71939e-08
-8.98328e-08
-2.26193e-07
-1.2419e-07
-1.03348e-07
-2.33824e-07
1.14691e-08
-9.09736e-08
1.21541e-07
-2.79801e-07
-2.79455e-07
-2.22144e-07
-3.26395e-07
-1.68562e-07
-2.99017e-07
-2.03472e-07
-6.92973e-08
-8.10498e-08
1.09703e-07
9.04927e-08
-7.55758e-08
-1.91691e-07
1.61428e-07
1.62082e-07
2.00622e-07
1.86817e-07
-2.54796e-07
-2.49692e-07
-3.01818e-07
-2.68139e-07
-4.06932e-08
-2.61054e-07
2.83264e-08
-2.14062e-08
-1.17537e-07
-1.37144e-07
-7.37765e-08
-4.97267e-08
1.83929e-07
-7.51679e-08
-5.73144e-08
-1.2526e-07
-4.73292e-08
-1.08163e-07
-2.52546e-07
9.62893e-09
-7.65064e-08
-1.29669e-07
-1.58955e-07
-3.33286e-07
-2.1242e-07
-2.42786e-07
7.89327e-08
7.26557e-08
-6.46207e-08
-2.64793e-07
2.1038e-07
-2.06231e-08
3.11688e-07
-1.74743e-07
1.46762e-07
-1.05873e-07
-9.23126e-08
-6.9221e-08
-7.09622e-08
-8.72506e-08
-7.02296e-08
-5.69993e-08
-5.74523e-08
-7.24459e-08
-5.9569e-08
-2.65112e-08
-4.0801e-08
-7.60752e-08
-1.00514e-08
-7.24101e-08
-1.60563e-09
-3.04215e-08
-4.55527e-08
1.44936e-08
-7.33042e-08
-2.30011e-08
-1.1326e-08
-3.89599e-08
-7.13074e-08
4.68315e-08
-3.16606e-08
-4.52368e-08
1.4823e-08
-3.55778e-08
-2.19859e-08
3.36595e-08
-7.35716e-08
-1.4356e-07
-6.9223e-08
-2.69842e-08
-6.56784e-08
-3.37583e-08
-6.49294e-08
-1.40377e-08
-1.71336e-08
-7.04735e-08
-6.07773e-08
7.32606e-08
-1.83844e-08
3.01895e-08
-5.70224e-08
-3.13395e-08
1.56829e-07
1.32769e-08
-1.45644e-07
-3.79047e-09
-5.15556e-08
1.10365e-07
5.05463e-08
-5.3084e-08
2.2554e-09
-1.52052e-07
-2.08824e-07
-2.45405e-07
-6.76634e-08
-3.62677e-08
-2.01164e-07
2.26886e-08
1.19094e-07
-1.20491e-07
-2.30256e-07
-1.3546e-07
-2.5445e-08
-6.52446e-08
-1.26711e-07
-6.64251e-08
-3.88433e-08
-5.50679e-08
-1.11659e-07
-1.72529e-07
-2.46347e-07
-1.94398e-07
-1.88964e-07
-1.70519e-07
8.31836e-08
1.65724e-08
1.32811e-07
3.01979e-07
4.4615e-08
-1.11512e-07
-1.11086e-07
9.01694e-09
-2.91604e-07
-2.12331e-07
-8.3595e-08
-6.64053e-08
-7.48817e-08
3.16202e-08
-1.13663e-07
-1.15554e-07
-2.3088e-07
-2.07163e-07
-5.30681e-08
5.16752e-08
-1.58584e-07
-1.83655e-07
-2.67722e-07
-1.97288e-07
-5.1428e-08
5.32781e-08
8.33724e-08
1.11883e-07
-1.06915e-08
-1.60763e-07
-8.78638e-08
-9.08113e-08
-8.44013e-08
-7.18175e-08
-9.68247e-08
-6.81583e-08
-1.43628e-07
-7.19032e-08
-2.11481e-07
-1.07635e-07
-6.2235e-08
1.43651e-07
-1.5189e-07
-1.91838e-07
-6.77577e-08
-3.9889e-08
6.12165e-08
-1.4362e-07
-6.86709e-08
-9.73219e-08
-4.34388e-08
-7.90857e-08
-1.84274e-07
-1.74782e-07
-3.33809e-08
-1.04022e-07
-1.40959e-07
-3.62765e-07
-1.46953e-07
-2.54401e-07
-1.03383e-07
-1.62508e-08
-1.40663e-07
-3.36601e-07
1.71722e-07
4.17055e-09
-4.4476e-08
6.89611e-08
4.16907e-07
-1.72522e-07
-5.85587e-08
4.43541e-07
1.55904e-07
1.033e-07
3.35818e-07
-9.68614e-08
1.99461e-07
-1.36282e-07
3.12847e-07
-1.747e-07
2.26483e-07
1.16166e-07
9.92517e-08
2.67256e-08
1.39197e-08
4.40265e-08
1.80883e-08
-1.24352e-07
1.46558e-07
1.19874e-07
-1.1482e-08
2.64062e-08
4.50931e-08
5.1155e-08
-6.26238e-08
-1.02633e-07
-8.33322e-08
-1.2318e-07
-1.12914e-07
1.59869e-07
-1.27727e-07
-8.72137e-08
2.81064e-07
-3.81502e-08
5.00586e-08
9.64481e-08
2.83131e-07
-9.70844e-09
9.79758e-08
-1.77738e-08
-3.6085e-08
-3.106e-08
-1.17347e-07
-1.10482e-07
-9.5477e-08
-1.54196e-07
5.22739e-07
-1.63523e-08
-1.0396e-07
-2.31649e-07
-4.52008e-08
-8.26319e-08
1.72667e-07
4.00232e-07
1.1653e-07
1.4753e-07
2.73337e-07
2.73068e-07
2.51554e-07
-4.55536e-07
-1.63091e-07
7.97257e-09
1.31152e-07
-1.54932e-07
-7.69678e-09
1.45722e-07
1.289e-07
-1.20917e-07
1.22994e-07
-1.996e-07
7.77062e-09
6.3072e-08
-5.03675e-08
-6.36399e-08
-1.05914e-07
-8.83253e-08
-1.02964e-07
-1.37766e-07
-8.77266e-08
-3.92354e-08
1.37637e-07
2.79326e-08
1.15799e-07
-1.17237e-07
-1.02208e-08
7.37595e-08
3.82322e-08
-9.75602e-09
-3.89785e-08
-2.74089e-08
-2.95512e-08
5.0151e-07
2.72406e-07
-1.18069e-07
)
;

boundaryField
{
    back
    {
        type            empty;
    }
    front
    {
        type            empty;
    }
    left
    {
        type            zeroGradient;
    }
    top
    {
        type            zeroGradient;
    }
    right
    {
        type            zeroGradient;
    }
    bottom
    {
        type            uniformFixedValue;
        uniformValue    
        {
            type            scale;
            scale           
            {
                type            squarePulse;
                start           0.3;
                duration        0.3;
            }
            xScale          
            {
                type            constant;
                value           1;
            }
            value           
            {
                type            constant;
                value           15.1;
            }
        }
        value           uniform 0;
    }
}


// ************************************************************************* //
