/*--------------------------------*- C++ -*----------------------------------*\
  =========                 |
  \\      /  F ield         | OpenFOAM: The Open Source CFD Toolbox
   \\    /   O peration     | Website:  https://openfoam.org
    \\  /    A nd           | Version:  9
     \\/     M anipulation  |
\*---------------------------------------------------------------------------*/
FoamFile
{
    format      ascii;
    class       surfaceScalarField;
    location    "0.66";
    object      phi;
}
// * * * * * * * * * * * * * * * * * * * * * * * * * * * * * * * * * * * * * //

dimensions      [0 3 -1 0 0 0 0];

internalField   nonuniform List<scalar> 
663
(
-5.7778e-13
3.28624e-13
2.49156e-13
3.43554e-13
5.09697e-13
-4.32673e-15
4.32673e-15
7.2788e-14
-3.60532e-14
-3.67348e-14
-2.28458e-13
5.72012e-13
3.14886e-16
-4.6416e-15
-3.81159e-13
-1.96621e-13
2.42216e-14
4.85665e-14
-4.3024e-13
1.54544e-13
2.75696e-13
2.09538e-13
-6.39778e-13
-5.12504e-13
8.41128e-13
4.55989e-13
-4.46281e-13
-9.70889e-15
-2.26615e-13
4.95578e-13
-3.95885e-14
-9.75802e-14
1.81603e-13
-8.40228e-14
-1.15773e-13
1.81927e-14
1.06052e-13
-6.44646e-14
-4.15869e-14
1.03799e-13
2.25284e-15
3.16032e-15
-3.16032e-15
2.16303e-13
-2.47035e-13
3.07313e-14
-3.90847e-14
2.55388e-13
-8.92647e-14
-9.69062e-14
1.86171e-13
-2.05083e-13
1.15818e-13
-9.19311e-14
7.59111e-14
1.602e-14
7.7474e-15
-4.38006e-14
-5.13304e-14
-4.06006e-14
-2.69783e-13
2.83601e-13
-1.38174e-14
7.80125e-14
-2.77763e-14
-5.02362e-14
-2.70254e-13
4.7099e-16
1.41959e-13
-1.2013e-13
-2.18287e-14
6.68343e-14
7.51242e-14
1.40018e-13
-7.03892e-14
-6.96286e-14
2.39941e-14
1.16024e-13
-7.92924e-14
2.62109e-14
5.30815e-14
1.83978e-14
-9.76902e-14
6.82131e-14
3.55856e-14
1.69965e-13
-1.01752e-13
-1.21147e-14
1.5275e-14
1.96438e-14
5.83686e-14
8.1657e-14
3.34122e-15
-8.49982e-14
-1.29265e-13
-1.1777e-13
2.1309e-13
-2.4821e-13
3.51205e-14
8.00652e-15
1.95965e-13
8.76354e-14
-2.50315e-13
-3.4116e-14
-1.16412e-13
2.34328e-13
-1.17917e-13
-2.19441e-13
2.02895e-13
1.65455e-14
-3.49189e-14
3.49189e-14
-3.9891e-14
8.72996e-14
-2.16565e-13
1.0511e-13
2.00332e-14
-1.25143e-13
-2.17425e-13
3.8741e-14
1.78684e-13
1.3807e-14
-1.61051e-13
1.47244e-13
2.66658e-13
-2.52851e-13
-6.36337e-14
1.68743e-13
-1.80045e-13
-9.21222e-14
-7.43812e-14
1.66503e-13
1.59497e-13
-2.51619e-13
-1.77036e-13
-4.03887e-14
-1.52751e-14
-3.89687e-13
5.44267e-13
-1.5458e-13
-1.47611e-13
1.02754e-14
1.37336e-13
1.08355e-13
-1.65262e-13
5.69065e-14
-2.72285e-13
4.81823e-13
-4.75825e-14
-1.13468e-13
-6.23043e-14
1.25276e-13
-6.29715e-14
5.49521e-14
-5.22213e-13
-3.33842e-15
2.69997e-13
2.1885e-13
-5.93533e-14
-6.61973e-13
-1.40297e-13
-1.29958e-13
-7.28132e-14
-1.46627e-13
7.18167e-14
-1.738e-13
1.01983e-13
-6.67742e-14
1.11849e-13
-1.74153e-13
-3.38152e-13
5.87307e-13
-1.72641e-13
9.82597e-14
4.13064e-14
4.63336e-13
1.21935e-13
-5.85271e-13
-3.00533e-14
2.87003e-14
1.35295e-15
5.1377e-14
-2.21022e-13
1.69645e-13
1.11849e-14
2.97377e-15
-1.41587e-14
5.14713e-13
-1.06636e-13
-4.09755e-14
2.35632e-13
3.08635e-13
-1.88684e-14
-1.15179e-13
8.85346e-14
2.66442e-14
1.9094e-13
-1.19123e-13
3.60133e-13
-5.40038e-13
-3.26117e-14
-7.52144e-14
1.07826e-13
-3.8951e-13
-1.56192e-13
5.45701e-13
2.76839e-14
-6.02956e-14
1.22124e-13
-6.42858e-14
-7.45964e-15
3.616e-14
2.50352e-14
-9.78873e-14
7.2852e-14
1.25164e-13
-3.51778e-13
-7.60026e-14
-3.91762e-14
-3.44933e-14
2.37388e-13
5.54893e-14
-1.31492e-13
4.14731e-14
-1.11862e-13
6.7684e-14
-2.21022e-13
2.97376e-15
1.37898e-14
1.11486e-13
-4.00988e-14
4.00232e-13
-2.18278e-13
2.76189e-13
-5.79117e-14
-1.94447e-14
-6.13357e-14
8.07804e-14
1.61515e-13
-6.14246e-14
2.3521e-13
-2.10175e-13
-1.40331e-14
1.02568e-13
-8.25161e-14
1.38005e-13
-1.69645e-13
1.29546e-13
1.46221e-14
1.41587e-14
-2.87808e-14
-9.78872e-14
7.45832e-14
-5.99611e-14
-2.52771e-13
-1.81993e-13
3.07157e-13
3.65677e-13
-1.30045e-13
-4.65905e-13
2.69284e-13
1.12214e-13
-1.32931e-13
1.13487e-13
2.7167e-13
9.40071e-14
1.22787e-14
-7.36144e-14
9.81757e-14
-7.97778e-14
1.64139e-13
-1.64139e-13
5.37482e-14
-1.36264e-13
-2.63247e-14
-1.11331e-13
1.37655e-13
1.29546e-13
-2.87808e-14
2.65983e-14
-7.68345e-14
-8.37936e-14
8.37936e-14
4.81468e-14
-7.44715e-14
1.08464e-13
-2.04625e-13
1.45272e-13
1.23972e-13
-4.81468e-14
1.9366e-14
-2.13286e-14
-1.52472e-13
-9.32355e-14
1.46984e-13
5.57149e-14
-1.38666e-13
-2.65959e-14
-9.29459e-14
9.15236e-15
3.9866e-14
-1.33101e-13
-1.69474e-13
3.32092e-14
2.78714e-13
-7.83733e-14
-2.00341e-13
-6.82465e-14
-6.4685e-14
3.16585e-14
7.44715e-14
9.32209e-15
-7.07851e-14
6.32048e-15
-9.114e-14
1.31006e-13
8.96769e-14
1.22626e-13
2.77605e-13
6.44591e-14
-1.87648e-13
1.23188e-13
2.31334e-14
-1.14273e-13
-1.90066e-14
1.2099e-13
-9.29459e-14
1.2888e-14
-1.05834e-13
1.67483e-13
-1.03024e-13
-2.07887e-13
2.20775e-13
1.36529e-14
-7.4657e-14
6.10041e-14
3.25169e-14
-3.25169e-14
1.52075e-14
1.73094e-14
4.31261e-13
5.15235e-14
-7.28521e-14
-2.08237e-13
-5.15235e-14
-1.69018e-14
2.91804e-14
-7.31104e-14
9.62438e-14
-7.03941e-14
-2.71637e-15
1.25427e-13
1.53287e-13
1.77625e-14
-3.02249e-14
1.24625e-14
1.51751e-13
-2.22145e-13
-1.78358e-14
7.53123e-14
-5.74765e-14
2.05568e-15
-2.05568e-15
1.98181e-14
-1.38278e-14
2.74807e-14
1.38278e-14
-1.58835e-14
1.89216e-14
-3.67574e-14
1.89216e-14
-1.69424e-15
-1.52075e-14
-2.27488e-13
-2.3338e-14
2.50826e-13
1.69421e-15
1.72274e-14
9.36135e-14
-9.36135e-14
9.90008e-15
-4.57223e-14
-2.05897e-13
-2.33824e-13
1.88102e-13
-2.46971e-13
-2.47804e-13
2.44466e-13
3.02208e-15
-2.22374e-13
-1.14502e-14
1.06536e-13
-1.03514e-13
-2.49156e-13
2.67815e-14
1.03514e-13
1.06536e-13
1.01846e-13
-1.01846e-13
9.03954e-14
-3.67574e-14
5.49521e-14
-6.39771e-14
6.39771e-14
-1.05834e-13
2.74807e-14
9.0321e-14
-9.0321e-14
9.03954e-14
1.98181e-14
4.69001e-15
8.5779e-15
-5.02989e-14
-3.53309e-14
-1.4968e-14
-2.6753e-14
-8.07857e-14
-1.41941e-13
2.22727e-13
-5.48669e-14
2.81139e-14
2.0396e-15
-7.87461e-14
-2.01259e-13
5.93175e-14
-1.07232e-13
-9.40263e-14
1.25528e-13
-1.97636e-13
2.56953e-13
1.95137e-14
5.48813e-14
1.03091e-13
-1.57973e-13
1.80653e-13
-1.25771e-13
-8.77187e-14
-1.00845e-13
2.03936e-13
3.78093e-14
-1.32376e-13
-2.55965e-14
8.66265e-14
-8.79622e-14
4.93736e-14
-1.42432e-13
-8.30027e-14
1.90124e-14
-2.65984e-13
-1.28175e-13
1.02578e-13
-8.68215e-14
-1.31443e-13
3.26827e-15
-3.98531e-14
1.36869e-13
-9.38478e-14
-4.30214e-14
1.22693e-13
5.67598e-14
-1.39762e-13
-7.46834e-14
-3.53858e-14
1.66392e-13
-8.68215e-14
6.21858e-14
-1.32882e-13
8.84324e-14
4.44498e-14
-6.75642e-14
1.2975e-13
1.38956e-13
-3.7391e-14
-1.01565e-13
6.83137e-14
-1.35878e-13
6.50887e-14
-1.90419e-13
1.25331e-13
-6.45686e-14
2.32571e-13
7.43877e-14
1.29166e-13
-2.07238e-13
1.23216e-13
-1.47043e-13
-4.33766e-14
-1.98915e-13
-6.20474e-14
1.36435e-13
6.11224e-14
-1.64146e-13
-8.19076e-14
-1.58748e-13
8.59205e-14
-1.47968e-13
-1.65232e-14
-7.38722e-14
7.38722e-14
8.27387e-14
-1.77499e-13
1.33532e-14
1.17654e-13
6.31876e-15
2.21159e-14
-1.54198e-13
2.77414e-13
-3.95837e-14
-1.37915e-13
1.87443e-14
5.51279e-14
2.89226e-13
-1.95219e-13
-6.23919e-14
-2.27231e-13
-6.63995e-14
-1.60832e-13
2.22827e-13
-1.53302e-13
-1.7138e-13
1.76381e-14
1.64016e-13
-5.51279e-14
1.83705e-14
-3.11151e-14
1.38877e-14
2.36042e-13
-7.71522e-14
-2.0203e-13
5.03245e-13
-3.01214e-13
1.06068e-13
1.6114e-13
8.82545e-15
6.48047e-14
7.10732e-14
-1.58966e-14
3.09264e-13
-5.6305e-14
2.43401e-13
2.35351e-13
-1.45674e-13
1.19216e-14
1.36046e-13
-9.9089e-14
3.35131e-13
-1.28853e-14
3.71069e-14
3.60778e-13
-4.48983e-14
-7.52316e-14
-1.20448e-13
-7.7068e-14
7.7068e-14
1.743e-13
1.82077e-13
7.33107e-14
4.17026e-13
-1.06926e-13
1.27061e-14
-1.27061e-14
2.70182e-13
-7.51361e-14
1.41273e-13
-2.04536e-14
2.04536e-14
-6.61329e-14
-7.56826e-15
7.56826e-15
-1.63133e-13
-6.25784e-13
-2.57038e-13
-7.52106e-14
-1.62386e-15
-6.19389e-14
9.12556e-14
-1.02078e-13
2.3428e-13
3.14887e-16
2.3428e-13
3.14887e-16
-2.55355e-13
7.65051e-13
6.71103e-15
-2.38429e-15
-6.24552e-14
-3.28865e-15
-1.32585e-14
6.84936e-13
4.57632e-16
-3.61794e-15
3.41478e-14
6.40279e-14
1.24551e-13
-8.17898e-14
1.28194e-15
6.28633e-15
-7.65036e-14
1.47456e-13
-4.66103e-14
-2.41748e-14
7.65036e-14
2.52929e-13
-1.63794e-13
-4.90146e-14
6.24238e-14
3.08219e-14
-6.973e-15
2.28565e-14
-2.34298e-14
-7.65096e-14
-1.13005e-13
-5.32404e-14
-5.87901e-14
2.61386e-14
-2.83914e-14
-1.8881e-13
1.02184e-13
4.80805e-14
-4.80805e-14
1.04957e-13
1.59757e-13
-1.48834e-13
-2.82009e-14
1.54642e-13
-3.00743e-13
5.21691e-13
6.71103e-15
5.21804e-13
1.28194e-15
3.54571e-13
-3.84769e-14
2.30619e-13
-2.30619e-13
4.57638e-16
-2.28977e-13
4.57638e-16
-2.25013e-13
-4.14765e-13
2.70067e-14
-2.86306e-14
2.77806e-14
-3.37757e-14
5.9951e-15
-1.00044e-13
-3.14483e-14
1.24551e-13
-1.28843e-14
8.47632e-15
-3.16725e-13
-4.90146e-14
-3.08219e-14
-3.07521e-15
2.61386e-14
2.83914e-14
1.33071e-13
1.63802e-13
-1.61302e-13
-4.54839e-14
-7.2049e-14
-1.87836e-15
-1.73958e-15
1.47626e-14
)
;

boundaryField
{
    back
    {
        type            empty;
        value           nonuniform List<scalar> 0();
    }
    front
    {
        type            empty;
        value           nonuniform List<scalar> 0();
    }
    left
    {
        type            calculated;
        value           uniform 0;
    }
    top
    {
        type            calculated;
        value           uniform 0;
    }
    right
    {
        type            calculated;
        value           uniform 0;
    }
    bottom
    {
        type            calculated;
        value           nonuniform List<scalar> 8(-8.53251e-13 -3.101e-13 7.88917e-13 -4.62738e-13 -7.77046e-13 4.59596e-13 8.38528e-13 3.16094e-13);
    }
}


// ************************************************************************* //
