/*--------------------------------*- C++ -*----------------------------------*\
  =========                 |
  \\      /  F ield         | OpenFOAM: The Open Source CFD Toolbox
   \\    /   O peration     | Website:  https://openfoam.org
    \\  /    A nd           | Version:  9
     \\/     M anipulation  |
\*---------------------------------------------------------------------------*/
FoamFile
{
    format      ascii;
    class       volVectorField;
    location    "0.66";
    object      U;
}
// * * * * * * * * * * * * * * * * * * * * * * * * * * * * * * * * * * * * * //

dimensions      [0 1 -1 0 0 0 0];

internalField   nonuniform List<vector> 
464
(
(-8.73393e-06 -1.42623e-05 -1.50887e-25)
(-5.90159e-06 2.25581e-05 0)
(4.4059e-08 6.63941e-08 0)
(1.71489e-06 -7.29721e-08 4.64664e-24)
(-4.17198e-06 1.85705e-05 0)
(3.66762e-08 6.01683e-08 -1.98923e-24)
(-8.56428e-06 -1.00672e-05 6.66167e-24)
(1.62612e-06 -3.36049e-07 0)
(-1.03723e-05 1.12241e-06 -1.56635e-24)
(-9.89619e-06 9.42612e-06 -4.89165e-24)
(-7.00307e-06 -1.81948e-05 5.21016e-25)
(-2.97433e-06 -1.41993e-05 -5.4435e-25)
(-9.3523e-06 -3.08859e-06 -1.27229e-24)
(-2.28047e-06 -1.27819e-05 0)
(-1.05271e-06 -4.97711e-06 6.86484e-24)
(-6.11611e-07 -3.53028e-06 -1.21317e-23)
(-8.25901e-07 2.8606e-06 0)
(-5.27568e-07 2.78327e-06 2.25995e-24)
(7.83888e-08 -5.11039e-08 3.2444e-25)
(-3.22705e-07 7.47298e-06 4.0201e-24)
(3.44516e-08 7.91341e-06 -6.22118e-24)
(1.86513e-06 5.53933e-06 2.23135e-24)
(2.0809e-06 5.7959e-06 -9.54724e-25)
(1.9641e-06 5.93344e-07 0)
(1.2269e-06 4.57289e-08 -4.77237e-24)
(1.95731e-06 9.76171e-07 3.17002e-24)
(-1.16528e-06 -7.46762e-06 -8.78288e-24)
(1.02557e-06 -1.44682e-06 5.16874e-25)
(-1.58998e-06 -8.35623e-06 0)
(1.80277e-06 3.10095e-06 0)
(2.20579e-06 2.62691e-06 4.6004e-25)
(-2.26794e-06 -2.57739e-06 -3.70831e-26)
(-1.83048e-06 -3.07034e-06 8.70138e-25)
(-1.71564e-06 -2.30258e-07 3.91544e-24)
(-2.15379e-06 1.85911e-07 -3.94611e-24)
(-4.99404e-07 3.5272e-06 -3.58681e-24)
(-9.57853e-07 4.69247e-06 3.09713e-24)
(1.88743e-07 -3.33664e-07 1.0768e-25)
(7.94272e-07 -1.75351e-06 4.11517e-25)
(-6.10648e-07 -2.54263e-06 0)
(-7.20079e-07 7.38421e-06 4.22002e-24)
(1.21135e-06 7.11931e-06 0)
(1.71211e-06 6.50591e-06 -2.33244e-24)
(-1.18793e-06 -9.01121e-06 -1.53225e-23)
(-2.49176e-06 -1.19284e-05 1.56214e-23)
(-9.27449e-07 -3.49467e-06 5.6203e-25)
(2.5708e-06 -4.7061e-06 1.30488e-24)
(7.31837e-07 -5.50947e-06 5.76362e-25)
(1.77695e-07 -6.59094e-07 0)
(5.42494e-07 -7.95827e-07 -1.04254e-25)
(-7.13502e-07 7.55952e-06 -2.51288e-24)
(9.23881e-07 -3.00104e-06 1.95929e-25)
(-3.08223e-07 5.51009e-06 2.17248e-25)
(4.53297e-07 -4.96308e-06 -3.8282e-24)
(3.80526e-07 -7.28449e-06 -1.18618e-25)
(1.3519e-06 -4.10639e-06 -1.25266e-24)
(2.22225e-06 -4.31721e-06 0)
(-2.50795e-06 -4.01257e-06 0)
(-1.98123e-06 -5.81623e-06 -7.30878e-24)
(-6.0371e-07 5.93069e-06 0)
(2.94611e-07 -9.10547e-07 -3.5149e-24)
(-4.99699e-06 1.42285e-05 2.50799e-23)
(-3.27194e-06 -1.92738e-06 1.0976e-23)
(-1.37053e-06 -3.35478e-06 -4.65813e-24)
(-8.27113e-06 1.12298e-05 -8.93026e-25)
(1.12744e-06 -3.31702e-06 -3.72351e-24)
(-1.99893e-06 -2.8336e-06 -8.34008e-24)
(3.38346e-07 -1.66798e-06 4.6834e-24)
(-5.05921e-06 -1.65376e-05 -5.4171e-24)
(-8.65526e-08 -7.85657e-06 4.70608e-24)
(-1.80672e-06 -5.60888e-06 7.29365e-24)
(-6.56047e-06 1.52398e-05 -1.30666e-23)
(-1.51751e-06 -7.11577e-06 0)
(1.22384e-06 -5.53132e-06 -2.56421e-25)
(-1.31662e-06 4.22446e-06 -1.34882e-23)
(1.31342e-06 -2.69201e-06 -9.48032e-25)
(-2.41792e-06 -3.32893e-06 -8.05888e-24)
(-9.706e-06 -1.21715e-05 -7.13714e-24)
(-2.34384e-06 -3.00791e-06 -4.9162e-24)
(-7.68232e-07 -5.32695e-06 6.13329e-24)
(-3.90877e-06 1.68812e-05 0)
(4.5636e-07 4.59701e-07 1.92035e-24)
(-9.44599e-07 7.45797e-06 -2.89871e-23)
(1.62509e-07 3.12733e-07 1.21391e-23)
(-2.44669e-06 1.32695e-05 0)
(-2.93239e-06 -3.20798e-06 1.73041e-26)
(-5.30871e-06 1.19716e-05 -1.21522e-23)
(4.86632e-07 7.31785e-07 0)
(2.68176e-06 -7.15867e-07 0)
(-2.301e-06 4.59958e-06 -9.58064e-24)
(-3.05892e-06 1.33507e-05 1.83969e-23)
(-5.95434e-06 1.81568e-05 0)
(-2.34066e-06 -6.26006e-07 8.74579e-24)
(-4.08841e-06 -1.81478e-05 -1.37285e-23)
(-1.91624e-06 2.50622e-08 -8.60637e-24)
(-3.08026e-06 -2.30254e-06 -5.53795e-24)
(-1.76212e-06 -4.6266e-06 4.92761e-24)
(8.38767e-07 5.71002e-07 -1.76122e-24)
(-3.51886e-07 3.24914e-06 -2.17892e-23)
(-8.5708e-06 3.97977e-07 3.26026e-25)
(2.78867e-06 8.79679e-08 0)
(8.90104e-07 -6.66941e-06 7.22349e-25)
(3.13327e-06 6.4846e-07 0)
(-2.22026e-06 -1.64809e-06 3.62866e-26)
(-1.74291e-06 -1.22306e-06 0)
(-6.37793e-07 4.61536e-06 -2.12727e-23)
(6.02383e-08 4.41637e-08 0)
(-2.39552e-06 -1.96843e-06 8.18372e-24)
(-1.78457e-06 1.03646e-05 -1.84168e-23)
(1.32174e-06 -6.82334e-06 0)
(-1.95214e-06 1.46117e-06 0)
(2.00094e-06 -5.71502e-06 -1.33208e-24)
(-1.95651e-06 -1.38953e-06 0)
(-1.09827e-06 6.03288e-06 1.51909e-23)
(2.90717e-06 -1.39768e-06 6.82562e-26)
(3.52738e-06 1.35033e-07 -6.40242e-26)
(-6.18581e-07 5.67857e-06 2.62084e-23)
(2.42008e-07 8.47331e-07 1.45624e-23)
(-2.34732e-07 1.91625e-06 1.75309e-23)
(7.2521e-07 1.71325e-06 -7.16915e-25)
(1.46073e-06 -6.8798e-06 1.8673e-24)
(-7.63246e-06 -2.75106e-06 -7.73059e-26)
(-6.74672e-06 8.57171e-06 5.67466e-24)
(-7.061e-06 -1.13762e-05 -5.60688e-24)
(-2.30769e-06 -4.64277e-06 0)
(-2.4349e-06 2.09609e-06 9.12813e-24)
(-6.54008e-06 5.40154e-06 -5.72411e-24)
(-1.12019e-06 1.30936e-06 0)
(-2.14596e-06 1.08125e-06 0)
(-4.26742e-07 3.40161e-06 2.24563e-23)
(1.19656e-07 2.6928e-07 -9.42757e-24)
(-4.5929e-07 -3.51186e-06 -1.96525e-23)
(1.31686e-07 -2.72804e-07 2.86933e-24)
(3.65132e-06 9.48737e-07 0)
(8.06123e-07 4.03756e-06 0)
(-3.05612e-07 2.55102e-06 -2.07849e-23)
(1.48941e-07 5.88035e-07 -2.2431e-23)
(1.72682e-06 -1.60132e-06 -1.8936e-24)
(-8.10108e-06 7.08745e-06 5.91112e-24)
(9.59605e-08 1.75191e-06 8.39523e-24)
(3.07325e-07 2.37277e-06 0)
(-2.33405e-06 7.13045e-07 0)
(-1.07995e-06 -5.39166e-06 -6.12584e-25)
(3.37441e-06 -1.23012e-06 3.14637e-24)
(2.95727e-07 1.53762e-06 1.40589e-23)
(-9.30518e-07 4.4106e-06 -1.46592e-23)
(3.71315e-06 1.37431e-07 0)
(9.44932e-07 1.40215e-06 0)
(-7.27768e-07 -4.99279e-06 1.90875e-25)
(1.54374e-07 3.52184e-06 -1.86755e-23)
(3.51854e-06 1.32553e-06 1.93324e-25)
(3.25209e-06 2.51491e-06 6.13792e-24)
(-4.54546e-06 -4.89835e-06 3.69112e-24)
(-2.07889e-06 2.96382e-06 -9.16862e-24)
(-4.50585e-07 4.31691e-06 -2.04114e-26)
(2.29197e-07 3.08787e-06 -1.32169e-23)
(-6.22398e-07 1.83386e-06 0)
(3.31547e-06 2.42535e-07 0)
(-6.94492e-06 1.10126e-07 -3.82146e-25)
(-2.32608e-06 1.03847e-05 1.75539e-23)
(-4.7638e-06 2.02925e-08 0)
(2.89352e-06 1.62806e-06 -4.91884e-24)
(-8.22173e-07 3.00033e-06 2.65295e-23)
(6.88553e-08 1.96429e-06 1.44506e-24)
(5.14117e-08 3.87145e-06 6.77981e-24)
(1.7375e-07 1.01387e-06 0)
(-4.36085e-06 -1.31723e-06 -1.1967e-24)
(1.25065e-07 6.52709e-06 5.08024e-24)
(-7.33817e-07 -1.69862e-06 -6.68208e-24)
(-1.5005e-07 6.321e-07 2.7186e-23)
(-2.40849e-07 9.13643e-07 -4.48167e-25)
(-3.94238e-06 1.11634e-05 -1.18906e-23)
(-2.96575e-07 2.36638e-06 -9.3871e-25)
(1.1926e-06 5.36523e-06 -2.21688e-24)
(-2.62402e-07 1.60233e-06 6.57479e-25)
(-7.32683e-07 5.36896e-07 -1.1897e-23)
(2.44105e-06 1.79218e-07 4.85204e-24)
(1.82907e-06 1.77822e-06 -1.86825e-26)
(-4.52816e-06 -6.9916e-06 4.79154e-24)
(-7.17838e-07 6.69892e-07 -8.53903e-25)
(1.62139e-06 4.9147e-06 5.21122e-24)
(-7.69302e-07 -1.82293e-06 1.13511e-23)
(-1.39542e-07 5.06194e-08 0)
(-2.15202e-07 3.80667e-07 9.89397e-24)
(-1.80313e-07 -8.60344e-07 9.76269e-25)
(-2.26224e-07 -2.47331e-07 2.86521e-25)
(-2.59317e-07 -1.05165e-06 0)
(-1.4901e-07 -3.81701e-07 -1.21953e-23)
(-1.67317e-07 1.00233e-06 -2.93483e-23)
(-2.42466e-07 2.57043e-07 2.74936e-26)
(4.36586e-07 -7.37406e-06 -2.63274e-27)
(-2.50446e-07 -3.7643e-07 1.52552e-23)
(1.17792e-07 -1.86269e-06 2.85164e-24)
(4.48952e-07 -6.31009e-06 -9.84941e-25)
(-1.42721e-06 -6.75068e-06 7.40756e-27)
(-8.60639e-07 -6.50708e-06 -7.43104e-27)
(-1.33322e-08 7.51689e-06 -4.67114e-24)
(7.20152e-07 -7.62646e-06 2.60473e-27)
(-1.26982e-07 -2.85375e-07 9.15303e-24)
(-5.34093e-08 -7.59299e-06 4.9983e-24)
(1.27963e-07 -6.75134e-06 0)
(-4.70425e-07 -6.19909e-06 0)
(4.53494e-08 -3.97507e-06 0)
(-5.05575e-07 -7.2762e-06 5.99369e-27)
(-1.50781e-07 -4.07164e-08 0)
(1.67817e-07 -3.71674e-06 -1.45359e-24)
(-7.63684e-09 -2.14239e-06 0)
(-6.92755e-08 -2.04663e-06 -5.62331e-24)
(-1.74154e-07 -3.63455e-06 9.9593e-24)
(-1.91443e-07 1.42113e-06 1.57519e-23)
(1.61499e-07 1.51136e-06 9.87521e-24)
(-1.53582e-07 -7.40876e-07 0)
(1.81753e-07 -1.07366e-06 -3.92519e-24)
(-1.27879e-07 1.46665e-06 2.69447e-24)
(-1.50402e-08 2.14859e-06 0)
(-1.43917e-07 2.91106e-07 -1.29971e-23)
(-1.04414e-07 -5.88387e-07 -9.67336e-24)
(5.77631e-08 -2.07873e-06 2.62696e-25)
(-2.55281e-07 -1.91771e-06 5.80046e-25)
(-1.18044e-07 -1.8167e-06 -7.9687e-24)
(-1.45174e-07 3.82704e-07 -7.33984e-24)
(-7.21753e-08 -3.94095e-06 7.03294e-24)
(-1.94708e-07 -6.69854e-06 -5.00431e-24)
(-1.68332e-07 -3.45363e-06 8.40369e-24)
(1.17109e-06 1.77324e-07 4.80439e-24)
(4.64346e-07 1.96072e-06 -4.54336e-24)
(-2.00034e-07 2.50065e-07 0)
(-1.74263e-06 4.8958e-06 1.71664e-24)
(-8.19538e-07 1.8777e-06 -9.55857e-26)
(-1.44657e-06 9.44692e-08 -4.02748e-24)
(-1.99079e-06 1.7774e-06 3.9919e-24)
(-1.90809e-06 5.589e-06 -1.30414e-25)
(-2.49679e-06 4.13602e-06 0)
(-2.97305e-06 -2.52175e-06 -5.35209e-24)
(-1.43745e-06 6.6956e-06 6.69203e-25)
(-2.48214e-06 1.83262e-07 0)
(-2.74967e-06 3.46334e-06 -2.46579e-25)
(-2.93908e-06 3.25784e-06 -2.90952e-25)
(-2.80295e-06 1.57889e-06 3.52326e-24)
(-1.98718e-06 4.24502e-06 -1.77629e-24)
(-3.13523e-06 1.15311e-07 -3.60344e-24)
(-3.08417e-06 2.36903e-06 -6.78099e-25)
(-2.49463e-06 4.54526e-06 1.21923e-24)
(-3.28032e-06 1.23064e-06 0)
(-3.45697e-06 7.45495e-08 0)
(-1.51286e-06 3.5365e-06 -5.55646e-25)
(-3.4563e-06 8.68866e-07 -5.09616e-26)
(-1.70937e-07 6.66762e-06 0)
(-2.74135e-06 2.27993e-06 0)
(-1.33484e-07 3.77239e-06 0)
(-3.05341e-06 1.37672e-06 -1.31451e-25)
(-1.97956e-06 2.72188e-06 4.30461e-24)
(-3.25729e-06 -6.09846e-07 -5.48144e-24)
(-2.64453e-06 3.56871e-06 9.61026e-24)
(-3.518e-06 4.31842e-08 0)
(-3.4408e-06 4.91008e-07 0)
(3.17498e-06 -2.4443e-06 0)
(-1.60244e-07 1.93463e-06 4.94809e-25)
(-3.43783e-06 1.77518e-08 -2.52896e-24)
(-3.0599e-06 -5.20429e-07 0)
(-3.36273e-06 1.34909e-07 2.40373e-24)
(-3.29944e-06 7.27823e-07 1.08983e-23)
(-3.42144e-06 -7.93723e-09 2.4039e-24)
(-3.17987e-06 -3.81833e-06 2.39947e-24)
(-3.4311e-06 -1.77704e-07 -2.40395e-24)
(-3.86375e-06 -3.73247e-06 -6.85174e-24)
(-3.50315e-06 3.51258e-08 -7.54224e-27)
(2.34777e-06 -2.03918e-06 -6.67149e-26)
(-1.97027e-06 -5.60793e-06 -5.19089e-24)
(-3.41106e-06 -2.55018e-06 -2.43199e-24)
(7.23025e-07 5.43697e-06 -7.52185e-24)
(-3.53946e-06 -4.90732e-07 0)
(-4.14969e-06 -1.79269e-09 1.16035e-24)
(-2.28224e-06 -4.54314e-06 -2.5902e-24)
(-6.91207e-06 -8.13471e-06 1.00291e-24)
(-3.72343e-06 2.24578e-08 0)
(-3.86766e-06 -8.8921e-07 0)
(-6.64159e-07 -5.33643e-06 -9.28469e-24)
(-1.46645e-07 -1.48849e-06 0)
(-1.52066e-06 5.94048e-06 -6.66001e-25)
(-3.90521e-06 2.22031e-06 2.79268e-26)
(3.3017e-06 -2.26694e-06 -7.89944e-27)
(-2.42056e-07 -3.10952e-06 0)
(8.72709e-07 -4.27971e-06 1.28815e-24)
(-2.76537e-06 -6.54636e-06 -4.8354e-24)
(-3.85034e-06 3.74495e-06 -5.41253e-24)
(-2.72739e-07 -2.44723e-06 -1.38887e-23)
(-5.44943e-06 6.68601e-06 0)
(2.66483e-06 -3.32544e-06 0)
(-4.48061e-06 3.1248e-06 5.55726e-24)
(-4.50234e-06 5.09392e-06 3.36361e-26)
(-5.33639e-06 4.17527e-06 -2.74932e-26)
(3.21449e-06 -3.17125e-06 -3.15773e-24)
(1.64072e-06 -4.64597e-06 7.49176e-24)
(-3.05692e-06 -1.35141e-06 5.60724e-24)
(-7.60528e-07 -4.22866e-06 2.04398e-23)
(-2.72736e-07 -1.74356e-06 0)
(-1.10754e-06 -3.09389e-08 1.84415e-25)
(-1.13715e-06 -1.36568e-06 -1.13766e-23)
(-4.25901e-06 9.31602e-06 1.17817e-23)
(-3.74332e-06 -5.32247e-06 3.9461e-24)
(-5.0951e-06 -1.71761e-06 -1.15372e-24)
(-4.17872e-06 -1.11642e-05 -1.79864e-23)
(-2.42069e-06 -1.44828e-05 1.71518e-23)
(-9.51698e-07 5.44033e-06 -5.25874e-25)
(-2.99876e-06 -4.1145e-07 -5.63145e-24)
(-3.00615e-06 5.33624e-07 -1.09155e-23)
(-5.74056e-07 4.77457e-06 -7.79546e-25)
(-1.36556e-06 7.97487e-06 -3.40747e-23)
(-7.5687e-07 1.73295e-06 -1.26348e-23)
(-5.77625e-07 -7.24872e-06 -4.70721e-24)
(3.55148e-06 -1.87138e-06 8.16114e-26)
(-3.32483e-06 -1.27967e-06 0)
(-6.17748e-06 -2.20229e-06 -2.54156e-25)
(-3.13395e-06 1.51736e-06 -1.09372e-23)
(-3.41267e-06 2.56066e-06 0)
(-1.55853e-07 -1.11283e-06 1.10113e-23)
(-3.17001e-06 8.60252e-06 0)
(1.03957e-06 -2.64011e-07 0)
(-5.5728e-06 -6.44312e-06 -4.86664e-24)
(1.82737e-06 3.96643e-06 6.90026e-24)
(-1.17474e-06 -2.72712e-06 -3.88996e-26)
(-1.83617e-06 7.95189e-06 1.67365e-23)
(-7.42422e-07 -6.31361e-07 1.16837e-23)
(-5.65775e-06 1.20795e-07 1.7031e-24)
(2.65791e-07 -3.19765e-06 9.83446e-25)
(3.32398e-07 -2.47016e-06 4.26999e-24)
(-5.67664e-06 -9.02716e-06 5.09064e-24)
(2.14364e-06 -2.84034e-06 0)
(-3.49451e-06 7.10245e-06 -1.06088e-23)
(5.94655e-07 7.59432e-06 -3.28235e-24)
(-1.0231e-05 8.15136e-06 -9.65747e-25)
(2.63878e-07 2.6232e-08 -2.01824e-24)
(-3.22843e-06 3.97551e-08 1.08794e-23)
(-8.38389e-07 -7.5301e-06 -5.96405e-27)
(2.32249e-06 -2.99282e-06 -3.64636e-24)
(2.27501e-06 4.48319e-06 -6.79878e-24)
(3.65131e-07 -3.62833e-08 -3.35327e-24)
(-1.18855e-06 2.70367e-06 -4.13183e-25)
(7.31161e-07 7.61603e-06 6.17511e-24)
(1.57597e-07 -6.03529e-08 1.73203e-24)
(-8.52217e-06 -2.08875e-05 0)
(-2.98259e-06 5.21865e-06 -1.2718e-25)
(-2.64611e-06 6.45494e-06 1.0532e-23)
(-3.5124e-06 1.43512e-06 5.40757e-24)
(1.67726e-06 -1.0636e-06 8.27378e-25)
(1.67639e-07 -1.52228e-06 -6.17994e-24)
(-1.97587e-06 -4.26364e-06 8.03543e-24)
(6.54974e-07 2.4389e-09 4.10461e-24)
(-1.39003e-06 -6.72477e-06 0)
(2.61174e-06 -4.00481e-06 -7.20615e-26)
(5.4137e-07 -1.00371e-07 -1.97003e-24)
(-7.86904e-07 -3.03411e-06 0)
(-1.16875e-06 -4.0886e-06 -1.03575e-23)
(2.11322e-06 -5.87892e-06 -1.88437e-24)
(-1.93289e-06 1.25866e-05 1.92178e-23)
(-2.04912e-08 4.4395e-09 0)
(-5.649e-07 5.54306e-06 -1.03771e-23)
(1.91854e-09 -1.87012e-08 -3.50425e-24)
(-7.47632e-06 2.17889e-05 0)
(2.46363e-07 1.42109e-07 -3.37225e-24)
(-1.05319e-05 -2.91305e-06 2.691e-24)
(1.7381e-07 1.80169e-07 2.12684e-24)
(-3.24208e-06 1.63375e-05 0)
(-6.36627e-06 -2.01366e-05 4.12569e-25)
(4.22469e-08 -2.03672e-08 -4.45107e-25)
(2.07143e-06 -7.50981e-07 0)
(-1.749e-06 1.49523e-06 0)
(-8.80399e-07 -6.46002e-06 0)
(1.06736e-06 2.48764e-06 6.02049e-24)
(1.99805e-07 -1.04496e-07 0)
(-4.7029e-07 -4.98457e-06 3.88988e-23)
(-2.65088e-06 -7.60344e-06 -3.93176e-25)
(-9.29298e-07 1.71378e-06 0)
(-4.71884e-07 -3.71875e-06 1.46413e-24)
(2.30139e-06 2.37248e-07 0)
(-4.04759e-06 -1.26212e-05 1.0215e-23)
(8.11184e-07 6.35548e-06 1.2718e-23)
(-2.87259e-07 -2.89579e-06 3.47262e-23)
(1.09484e-06 3.75468e-06 2.8225e-24)
(-1.48048e-07 -1.34126e-06 0)
(-1.04223e-06 -1.29621e-06 7.12283e-24)
(-1.01631e-06 8.02908e-08 0)
(-2.82971e-06 -1.11575e-06 5.16119e-25)
(-2.75791e-06 1.07184e-06 2.89132e-25)
(-2.97782e-06 -2.37996e-06 0)
(-2.77113e-06 -1.11602e-07 1.35612e-25)
(1.3683e-06 9.80401e-07 -3.66143e-24)
(-2.2743e-07 9.73038e-07 0)
(-1.99526e-07 2.03909e-06 0)
(-1.43996e-06 6.21725e-06 4.85646e-25)
(-1.68166e-06 4.91498e-06 0)
(-1.55795e-07 2.56448e-06 -2.6861e-24)
(-2.03053e-07 3.00979e-06 -2.93618e-24)
(-1.19668e-06 5.84485e-06 -1.93995e-24)
(1.92133e-06 5.42431e-06 -4.86828e-24)
(9.3785e-07 6.11049e-06 0)
(2.97578e-06 3.5644e-06 -1.39013e-23)
(3.82302e-07 6.9641e-06 0)
(-2.98492e-06 -1.00424e-05 9.24446e-24)
(-9.09609e-06 2.06875e-05 0)
(1.3637e-07 3.57908e-08 0)
(-7.36406e-06 -2.20954e-05 0)
(2.00948e-08 -4.10254e-08 -7.82321e-25)
(-1.07128e-05 -2.428e-07 2.0527e-24)
(-9.72166e-06 -1.5179e-05 0)
(-7.7052e-07 -5.76554e-06 0)
(3.5023e-09 1.69582e-08 6.27396e-25)
(-2.27837e-06 -1.24106e-05 0)
(-1.71219e-08 2.25745e-09 -9.25355e-25)
(-9.51235e-06 1.37487e-05 2.12571e-24)
(1.11679e-06 -7.47449e-07 1.14327e-24)
(9.30186e-07 2.37933e-07 0)
(2.8761e-06 1.46923e-06 3.5119e-24)
(1.35319e-06 3.37386e-07 0)
(-7.4488e-06 1.89459e-05 0)
(-3.48189e-07 -3.26675e-06 0)
(6.30824e-07 -6.12551e-07 4.61026e-26)
(7.25757e-07 3.26897e-07 3.03388e-24)
(-1.00337e-05 1.39419e-05 -2.11002e-24)
(8.77074e-07 -4.106e-07 1.42227e-24)
(4.42594e-07 4.90014e-08 2.92816e-24)
(-5.60049e-06 -1.3973e-05 5.80532e-24)
(-2.04467e-07 -1.87649e-06 -1.85613e-23)
(-5.77897e-06 -2.24543e-05 -9.70955e-24)
(-3.48903e-06 -8.46525e-06 5.03706e-24)
(-1.67869e-07 -1.19056e-06 -1.38037e-23)
(-2.04226e-07 -1.85412e-06 8.46412e-24)
(-9.86963e-08 -7.64686e-07 -6.10982e-24)
(-1.38591e-06 9.45589e-06 3.09791e-23)
(3.68872e-08 2.70271e-08 5.22134e-24)
(-3.21037e-06 -1.3406e-06 -5.54981e-25)
(-6.23454e-07 -4.926e-07 -3.22924e-25)
(1.40968e-06 1.56866e-06 7.98991e-24)
(-3.05445e-06 3.68284e-07 -3.03797e-25)
(-1.03101e-07 6.04901e-07 0)
(-1.77722e-07 1.35901e-06 -1.94101e-24)
(2.85984e-06 2.43067e-06 -3.67636e-24)
(-9.49666e-08 7.75107e-07 0)
(7.0332e-07 2.65077e-06 -6.07585e-24)
(-1.96088e-06 5.45609e-06 0)
(-6.5031e-08 1.26436e-06 1.34087e-24)
(-7.75524e-07 4.61763e-06 1.54538e-25)
(-1.81172e-07 5.89442e-06 -2.00082e-24)
(3.18965e-06 3.33763e-06 1.011e-23)
(4.14416e-07 4.9801e-06 -1.70112e-25)
(2.732e-06 4.44668e-06 -3.53035e-24)
(3.76709e-07 5.77403e-06 -4.50569e-24)
(2.61443e-06 3.90715e-06 3.50687e-24)
(-3.9417e-07 7.14753e-06 3.35672e-25)
(-1.10776e-06 -2.51172e-06 0)
(-1.0692e-05 -8.46107e-06 -1.95407e-24)
(-1.75886e-06 -3.89279e-06 5.84133e-24)
(2.40216e-06 1.42822e-06 0)
(-9.61249e-07 7.09349e-06 -6.79115e-25)
(-1.08206e-06 1.22379e-06 0)
(-1.59624e-06 2.20316e-06 -2.49985e-24)
(1.04806e-07 -1.26789e-07 -5.89983e-25)
(4.61561e-07 -2.51695e-07 -2.88722e-25)
(3.37973e-07 -3.24574e-07 -4.75821e-25)
(1.94002e-09 -1.83584e-08 1.61312e-24)
(-9.72853e-07 -8.24418e-06 0)
(-4.11698e-06 -1.82526e-05 2.29741e-24)
(1.98757e-06 2.00338e-06 -1.00395e-23)
)
;

boundaryField
{
    back
    {
        type            empty;
    }
    front
    {
        type            empty;
    }
    left
    {
        type            noSlip;
    }
    top
    {
        type            uniformFixedValue;
        uniformValue    
        {
            type            scale;
            scale           
            {
                type            squarePulse;
                start           0.3;
                duration        0.3;
            }
            xScale          
            {
                type            constant;
                value           1;
            }
            value           
            {
                type            constant;
                value           (0 -0.7 0);
            }
        }
        value           uniform (0 -0 0);
    }
    right
    {
        type            noSlip;
    }
    bottom
    {
        type            zeroGradient;
    }
}


// ************************************************************************* //
