/*--------------------------------*- C++ -*----------------------------------*\
  =========                 |
  \\      /  F ield         | OpenFOAM: The Open Source CFD Toolbox
   \\    /   O peration     | Website:  https://openfoam.org
    \\  /    A nd           | Version:  9
     \\/     M anipulation  |
\*---------------------------------------------------------------------------*/
FoamFile
{
    format      ascii;
    class       volScalarField;
    location    "0.6";
    object      p;
}
// * * * * * * * * * * * * * * * * * * * * * * * * * * * * * * * * * * * * * //

dimensions      [0 2 -2 0 0 0 0];

internalField   nonuniform List<scalar> 
578
(
-1.99254
-2.67391
-2.03386
-4.85654
-1.118
-3.51587
-1.21617
-0.479699
-1.56092
-2.68444
-3.36421
-0.605374
-5.71974
-1.16786
-1.24601
-2.19601
-2.09837
-2.02305
-0.469862
-1.64429
-4.74847
-2.31029
-2.01886
-4.2478
-4.3725
-0.464128
-5.06539
-4.8342
-2.78086
-1.98679
-4.85032
-3.53454
-2.03202
-4.41765
-1.16079
-1.8568
-1.05026
-0.533618
-1.77664
-1.13581
-1.14555
-0.549556
-0.466309
-1.31908
-2.14332
-1.2085
-1.2521
-1.67288
-1.87688
-5.08224
-3.80874
-5.67596
-2.02228
-4.47851
-5.95426
-3.30656
-1.97073
-2.1869
-2.09998
-1.82658
-2.0934
-2.03089
-2.03008
-1.3146
-5.67219
-1.36416
-1.85403
-3.24771
-2.32311
-0.55239
-4.4846
-3.74523
-5.73588
-0.697255
-3.64825
-1.40649
-1.48
-1.48788
-5.64794
-1.72648
-2.89238
-2.13848
-2.90021
-2.43466
-1.59574
-0.124083
-3.6755
-3.25423
-0.959382
-0.516785
-4.99682
-1.6523
-0.938679
-5.45532
-2.4015
-2.72654
-5.91648
-5.90396
-2.83673
-1.14398
-1.41535
-0.577681
-5.51546
-1.76653
-5.9066
-1.01866
-3.64438
-1.31156
-0.264274
-1.53576
-1.70809
-0.476906
-1.7665
-2.56915
-2.5491
-5.65325
-5.01323
-2.29897
-0.663476
-5.90294
-0.40714
-2.64524
-0.503937
-4.61931
-2.85116
-0.369419
-3.12219
-2.15224
-0.808225
-0.0843554
-0.630571
-0.279153
-5.30133
-0.345426
-0.567084
-1.33681
-0.7039
-5.73366
-2.65432
-0.620413
-0.494086
-0.166344
-0.505917
-3.63191
-0.408039
-1.77958
-0.168565
-5.41448
-0.567131
-0.11603
-1.19167
-1.86406
-1.63416
-0.260929
-1.03186
-5.15328
-2.71145
-5.45292
-1.58573
-1.35072
-1.40841
-1.51199
-0.581119
-1.1579
-3.58327
-0.183747
-3.67237
-0.99028
-5.43473
-5.016
-1.27086
-0.705631
-1.37533
-0.202588
-0.902938
-5.51514
-5.43169
-2.24401
-1.25217
-3.30364
-0.923836
-2.36624
-0.204677
-5.50914
-1.38287
-5.52602
-2.02198
-0.901832
-1.13938
-3.27867
-1.01349
-1.0825
-2.19593
-1.06103
-2.28976
-4.97036
-5.1133
-5.1987
-1.20322
-0.901976
-5.5537
-5.4045
-3.07714
-5.06187
-5.28039
-0.806123
-1.272
-1.80957
-1.1206
-1.82199
-0.0840681
-1.20276
-0.447934
-5.18032
-0.433891
-4.44798
-1.12667
-0.994558
-1.08422
-0.0748996
-0.941703
-0.802534
-0.253223
-1.07621
-1.0644
-0.219527
-4.68943
-5.27765
-5.29105
-3.3883
-2.47457
-3.28674
-0.274208
-0.0583373
-0.118363
-1.34274
-0.990978
-1.13634
-5.5625
-0.111197
-0.819621
-0.613202
-4.81288
-0.695235
-5.11744
-0.453501
-0.417574
-2.98539
-1.45414
-4.58826
-5.02219
-0.415866
-3.42427
-0.023278
-3.92953
-0.0753735
-3.48872
-1.35781
-1.17562
-3.48953
-0.10907
-1.00557
-4.94092
-4.79323
-2.50311
-0.33962
-0.0073655
-0.0549087
-3.15412
0.00348952
0.0172608
-0.271551
-0.0695911
-4.51211
-5.2408
-4.48974
-4.72807
-0.0145141
-1.21447
-4.32868
-0.901074
-4.63579
-4.35851
-4.91097
-4.32529
-0.347537
-0.177383
-0.122667
-4.44666
-4.52128
-0.0365435
-0.405221
-4.88999
-1.30086
-4.33302
-4.49784
-0.804641
-0.0406134
-3.90398
-4.15437
-4.45873
-0.0349491
-4.01476
-3.77804
-4.64184
-4.52153
-0.0789579
-3.40576
-4.01935
-4.16732
-0.169974
-3.60829
-3.74452
-0.0417659
-4.04468
-4.40596
-0.31292
0.0021982
0.00757328
-4.2227
-0.298017
-4.17263
-4.7862
-4.01935
-5.21677
-3.98669
-1.28462
-0.710224
-0.843233
-3.8449
-5.45227
-1.37657
-3.86116
-4.02032
-0.348796
-3.94993
-4.92982
-4.21863
-3.52605
-4.88007
-4.59586
-4.74284
-3.51372
-3.4763
-3.78341
-2.55817
-2.55822
-0.733309
-0.666494
-0.949599
-0.943618
-1.10051
-1.12587
-3.4821
-1.22391
-1.29951
-3.68871
-1.42365
-1.69403
-1.63868
-3.29007
-2.04163
-3.49711
-0.384131
-3.55007
-2.80178
-3.35131
-2.76389
-5.10238
-1.98494
-0.803272
-2.06022
-1.93714
-2.76966
-1.76725
-2.10006
-5.29154
-0.838506
-0.821758
-2.12554
-5.94363
-1.03487
-1.0252
-3.14312
-3.27194
-2.98491
-2.01076
-1.34755
-1.49122
-0.526387
-5.91715
-2.56698
-2.79384
-0.159228
-1.95666
-2.18459
-2.18259
-3.67042
-2.36958
-4.26046
-1.80086
-4.05043
-2.0854
-2.97433
-5.86296
-2.60837
-2.35371
-2.26579
-3.1676
-2.97025
-2.41008
-2.45576
-3.36614
-0.301551
-2.3211
-2.98877
-1.04532
-1.03922
-0.75159
-5.06666
-0.792198
-4.16323
-0.621956
-1.0324
-0.544373
-0.280847
-0.0677262
-3.18031
-0.15443
-0.210075
-1.44958
-3.47148
-2.05313
-5.88399
-0.504082
-0.402272
-0.906954
-2.56633
-0.107778
-2.64406
-2.49253
-4.81353
-5.30544
-3.95153
-1.39214
-3.11862
-3.8868
-1.45657
-1.42351
-4.65607
-0.726875
-5.86666
-1.09514
-5.88561
-0.961258
-4.50304
-3.06199
-2.37031
-3.73211
-2.25849
-3.20615
-1.55424
-2.82368
-0.260162
-3.3845
-1.31512
-0.38451
-1.58247
-2.80933
-0.328083
-3.7731
-5.00305
-1.56246
-5.38076
-3.52569
-0.966515
-0.391152
-1.55796
-2.02935
-1.60674
-4.27872
-3.39313
-1.93439
-3.71701
-5.26016
-0.224913
-3.57283
-5.76888
-5.69519
-1.46057
-5.80215
-1.59997
-0.236997
-5.55661
-5.20768
-0.609024
-4.65202
-0.587948
-5.77675
-5.80659
-0.952964
-2.9906
-0.311154
-4.64803
-2.12871
-5.4832
-0.878619
-5.13046
-0.447283
-5.61151
-4.12916
-2.83837
-4.23576
-1.19012
-0.879377
-4.56812
-0.817213
-1.10361
-3.88406
-5.6686
-3.94058
-2.15025
-3.40703
-0.554227
-0.72001
-4.49012
-3.7445
-5.13957
-1.80566
-3.22208
-1.86267
-0.763339
-5.05528
-3.8936
-3.12263
-1.50828
-4.00173
-0.7454
-1.51373
-5.64554
-5.67765
-3.27512
-1.43801
-0.694486
-3.30938
-4.2883
-4.06184
-2.25134
-1.95289
-0.441928
-2.40853
-0.817756
-0.479423
-1.53808
-2.37641
-3.14964
-1.4822
-3.62816
-4.27357
-5.28324
-5.42819
-1.72791
-0.836804
-5.67388
-5.71403
-3.85339
-5.72957
-2.97948
-5.8299
-5.86361
-0.76271
-2.12469
-2.29677
-3.04379
-2.12208
-3.98406
-1.66651
-1.64111
)
;

boundaryField
{
    front
    {
        type            empty;
    }
    back
    {
        type            empty;
    }
    bottom
    {
        type            uniformFixedValue;
        uniformValue    
        {
            type            scale;
            scale           
            {
                type            squarePulse;
                start           0.3;
                duration        0.3;
            }
            xScale          
            {
                type            constant;
                value           1;
            }
            value           
            {
                type            constant;
                value           15.1;
            }
        }
        value           uniform 0;
    }
    left
    {
        type            zeroGradient;
    }
    top
    {
        type            zeroGradient;
    }
    right
    {
        type            zeroGradient;
    }
    inner_arc
    {
        type            zeroGradient;
    }
}


// ************************************************************************* //
