/*--------------------------------*- C++ -*----------------------------------*\
  =========                 |
  \\      /  F ield         | OpenFOAM: The Open Source CFD Toolbox
   \\    /   O peration     | Website:  https://openfoam.org
    \\  /    A nd           | Version:  9
     \\/     M anipulation  |
\*---------------------------------------------------------------------------*/
FoamFile
{
    format      ascii;
    class       surfaceScalarField;
    location    "0.6";
    object      phi;
}
// * * * * * * * * * * * * * * * * * * * * * * * * * * * * * * * * * * * * * //

dimensions      [0 3 -1 0 0 0 0];

internalField   nonuniform List<scalar> 
816
(
-6.33491e-10
2.11347e-08
-2.05012e-08
1.99641e-09
-6.55215e-10
-1.34119e-09
1.21285e-09
-1.8463e-09
5.35398e-09
-2.52756e-09
-2.82641e-09
-1.62855e-08
1.62855e-08
6.70873e-09
5.15508e-10
-7.22424e-09
-1.66049e-08
1.66049e-08
1.57307e-08
-1.57307e-08
-5.61848e-09
-6.56687e-09
1.21854e-08
2.18087e-08
-1.98123e-08
1.01702e-08
-3.46149e-09
6.00658e-09
-2.50603e-09
-3.50056e-09
-2.00095e-10
-1.02669e-11
2.10371e-10
9.99265e-09
-1.18245e-08
1.83188e-09
1.05053e-08
-1.24822e-08
1.97689e-09
-5.97458e-11
5.55444e-09
-5.49468e-09
3.57647e-09
2.07317e-09
-5.64965e-09
-8.93831e-09
-1.29747e-11
8.95129e-09
-2.75998e-09
8.76656e-09
5.8168e-09
-1.14353e-08
1.1016e-09
4.25231e-09
-1.59829e-09
1.53842e-09
3.29839e-09
3.22063e-10
-3.62044e-09
1.26902e-09
-1.54887e-09
2.79864e-10
4.1116e-09
-2.84249e-09
-4.43374e-09
5.81456e-11
4.37559e-09
-1.63684e-09
2.65278e-09
-1.01593e-09
3.69729e-09
-1.30845e-08
9.38722e-09
2.3772e-09
-3.03247e-09
3.01852e-09
2.53594e-09
1.47012e-09
2.22732e-09
1.40861e-09
-8.93165e-10
1.22713e-08
-9.25284e-09
-4.54158e-09
-1.23237e-09
5.77395e-09
-3.18061e-09
1.36859e-08
2.98465e-09
-4.48778e-10
-2.51374e-09
1.25064e-08
2.94513e-09
-7.37894e-09
-5.82775e-09
7.28655e-10
5.09911e-09
-1.63379e-08
5.25989e-11
1.3772e-08
1.29706e-08
-1.27856e-08
-1.00555e-08
-2.42664e-09
-4.13574e-09
-2.30454e-09
6.44029e-09
-1.73294e-08
7.24589e-10
1.34245e-08
8.2153e-09
-1.47822e-08
-4.61482e-09
-3.71909e-09
2.08216e-09
1.97589e-10
-1.93147e-08
1.91171e-08
6.02279e-12
-2.06134e-10
3.13306e-09
1.65308e-10
-3.80733e-10
-4.16077e-09
-7.74859e-12
7.74776e-12
2.43355e-09
-7.71706e-09
5.28351e-09
3.22081e-10
-4.13572e-09
9.69725e-09
-6.12073e-09
-1.93763e-08
2.23611e-08
7.58884e-10
-1.65314e-09
3.7263e-09
3.71329e-09
-3.72619e-09
-2.25405e-09
-9.57033e-09
2.48487e-11
4.05581e-10
-4.30426e-10
-1.41764e-08
4.12105e-09
1.05554e-08
1.71576e-09
4.39309e-09
5.77711e-09
-2.54943e-09
1.15575e-08
-9.00803e-09
1.19632e-09
1.30696e-08
-1.42659e-08
2.87932e-09
1.60617e-09
-1.85689e-10
2.10518e-10
1.28783e-08
5.71118e-09
-1.85895e-08
1.35892e-09
7.31676e-09
-8.67568e-09
-1.15177e-08
1.15177e-08
1.30853e-09
4.50831e-09
4.86808e-09
-3.55956e-09
-1.96103e-10
-2.78679e-09
-1.77143e-08
2.05011e-08
-2.54368e-09
1.42024e-09
1.12344e-09
2.11348e-08
-2.05814e-08
2.05814e-08
2.07629e-08
-2.07629e-08
3.61715e-09
-1.12588e-08
7.64166e-09
1.70477e-08
5.87849e-09
-1.93148e-08
-6.62465e-09
9.05822e-09
-6.7948e-10
-3.59919e-09
4.27867e-09
-1.22057e-09
9.48839e-10
2.71739e-10
4.12294e-09
-7.27037e-09
1.08876e-08
2.28446e-10
-5.63921e-09
5.41078e-09
1.81752e-10
2.02831e-09
-2.21006e-09
-8.04426e-09
2.84317e-09
-5.28516e-10
-2.31468e-09
2.0271e-10
2.17977e-10
2.18087e-08
4.08145e-10
1.32778e-08
-3.19509e-09
-1.09814e-08
-8.64647e-09
9.84283e-09
-4.44962e-10
1.0481e-09
-6.03132e-10
-2.05806e-09
-3.26022e-10
3.26024e-10
-2.83252e-10
1.27897e-08
-5.86535e-09
-1.3772e-08
1.70478e-08
4.89124e-09
6.62645e-09
8.7984e-10
-1.32864e-09
1.31278e-08
5.2011e-09
-8.93502e-09
3.73392e-09
-2.82157e-10
-1.62701e-10
1.30229e-09
-3.82993e-09
-1.67185e-09
-6.68821e-09
8.36007e-09
1.65917e-10
-1.3864e-09
-1.23353e-10
-2.02635e-10
6.6789e-10
3.70763e-09
2.17727e-08
-1.00976e-09
1.38761e-09
3.06667e-09
-1.96512e-09
1.19132e-09
1.37917e-08
-1.05988e-08
-3.19296e-09
3.20302e-10
-2.86392e-09
-1.37797e-08
8.97701e-09
4.80271e-09
-1.55046e-08
3.89032e-09
1.30988e-08
1.10753e-09
-1.42063e-08
1.1144e-08
2.64779e-09
-3.36107e-09
3.54274e-09
1.21175e-08
-1.21176e-08
1.3457e-08
-3.58216e-10
1.50813e-09
-2.50605e-09
9.97913e-10
6.2985e-10
-3.13584e-09
-8.146e-09
-7.89126e-10
3.63577e-09
-2.52831e-09
-7.46079e-10
1.29078e-08
-1.21617e-08
-4.36051e-09
2.88957e-09
-1.0481e-09
3.51707e-10
6.96396e-10
1.27856e-08
-9.0995e-10
6.00914e-09
-2.72465e-09
5.72015e-09
-2.99549e-09
2.64417e-09
-5.85557e-09
3.2114e-09
-1.22537e-08
1.61441e-08
-1.45079e-08
2.01508e-09
1.24928e-08
3.65244e-09
-3.65244e-09
-1.93763e-08
-1.76597e-09
-1.03513e-08
-7.25093e-10
-1.41518e-08
1.48769e-08
-2.51596e-09
-1.20317e-09
7.9916e-09
-5.61445e-09
-3.4492e-09
3.90042e-09
-4.51219e-10
-1.77142e-08
-3.53605e-09
-1.09717e-08
-1.31064e-08
1.29077e-08
-2.19991e-09
4.21493e-09
1.93464e-08
-1.93464e-08
-1.49784e-08
1.82982e-08
2.94953e-09
-3.67473e-09
2.64344e-09
-6.09259e-09
7.32416e-10
4.35248e-09
-5.08489e-09
3.522e-09
-5.72189e-09
-1.29707e-08
1.36005e-08
1.60427e-08
-1.45345e-08
-1.56923e-09
1.07376e-08
-9.16832e-09
-2.40683e-10
3.19017e-09
1.92535e-11
-4.49741e-10
-6.86182e-10
7.05474e-10
-7.79268e-09
1.93964e-08
-1.58745e-08
-6.35765e-10
1.56066e-09
-9.24894e-10
-1.36258e-08
1.33851e-08
-1.32245e-09
8.58298e-10
4.64145e-10
4.08986e-09
1.78875e-09
-8.82294e-10
-3.31891e-09
8.12868e-10
2.64421e-09
2.23611e-08
-8.36289e-09
-5.41679e-09
-1.50285e-08
1.28494e-09
1.37436e-08
1.95465e-08
-2.01822e-08
-1.43247e-08
1.14853e-09
1.31762e-08
2.36035e-09
1.8545e-09
-3.77615e-09
1.01485e-10
1.98124e-08
-2.37772e-09
3.14493e-09
-7.67207e-10
6.09268e-09
-9.38341e-09
3.29074e-09
5.85548e-09
-8.37133e-09
-3.53933e-09
2.49125e-09
1.04808e-09
3.08969e-09
-3.50893e-09
4.1924e-10
2.64339e-09
1.14602e-09
1.9667e-08
9.14334e-10
-1.64532e-09
8.6895e-10
-1.63495e-10
-4.61616e-11
-2.54152e-09
-3.6179e-09
2.25861e-09
3.46126e-09
-1.30517e-08
1.4051e-09
1.20518e-08
2.24776e-09
-1.37879e-09
4.29464e-09
1.70678e-11
3.04963e-09
-6.91003e-09
9.16856e-09
1.2893e-08
3.24642e-09
-5.62632e-11
-4.8022e-09
3.03607e-09
-1.40197e-08
1.58743e-08
1.34865e-08
-1.33852e-08
-4.5648e-09
-2.66731e-09
4.43194e-09
-1.76463e-09
1.95464e-08
1.96669e-08
1.07375e-08
3.7284e-09
-2.11476e-09
1.93965e-08
-1.40197e-08
1.34865e-08
-2.20416e-09
2.6231e-09
2.58169e-09
-5.20479e-09
-1.36259e-08
4.77646e-10
-7.18158e-10
-8.37138e-09
-1.21618e-08
2.01822e-08
1.6265e-09
1.60428e-08
-6.30107e-09
-3.56586e-10
6.65766e-09
1.48053e-09
1.97319e-09
-1.2572e-08
-3.52216e-10
-5.41034e-10
-3.68514e-09
7.72806e-09
-4.04292e-09
1.91171e-08
1.49801e-08
-1.12516e-08
2.00084e-10
1.55933e-08
-1.14722e-08
-7.72822e-09
1.03512e-08
-9.38351e-09
-1.221e-08
-4.82999e-10
-1.0945e-09
-6.67846e-09
3.84485e-09
-1.23306e-08
-4.09679e-09
1.52486e-09
2.90703e-09
-2.32792e-10
-4.25303e-09
5.77792e-09
-4.34361e-09
-1.95744e-09
-6.90989e-09
1.45345e-08
-1.31703e-09
-6.27695e-09
7.59398e-09
-1.36005e-08
-4.60956e-09
-2.99569e-09
5.90275e-09
-2.74324e-09
4.22377e-09
4.46092e-09
-1.42434e-09
1.40959e-08
-1.40959e-08
1.69753e-08
-1.55483e-08
1.40251e-08
4.13199e-09
2.20541e-10
1.4175e-08
-1.4175e-08
1.221e-08
3.91088e-09
1.81837e-08
-1.8298e-08
1.14367e-10
-1.81839e-08
4.00884e-09
3.69802e-09
1.69753e-08
-1.16374e-08
1.58134e-10
1.40252e-09
-7.06363e-09
2.09514e-09
4.96849e-09
-2.60274e-09
-2.16868e-09
-5.1872e-09
9.4189e-09
-4.2317e-09
-7.66267e-09
2.47548e-09
7.15935e-09
-6.1564e-09
8.25141e-09
2.92463e-09
-5.92021e-09
1.6945e-09
-3.06505e-09
1.4376e-09
-2.8703e-09
3.29989e-09
-2.45576e-09
-5.66262e-09
8.11839e-09
-1.80882e-09
8.38151e-09
-5.08162e-09
1.28469e-08
2.69425e-09
5.68726e-09
5.9845e-10
-1.4791e-08
-7.52299e-09
2.44134e-09
5.79571e-09
-4.61217e-09
1.86894e-09
-4.59838e-09
-3.58208e-10
7.09936e-10
-2.45916e-09
-3.46111e-09
3.70391e-09
5.71498e-09
8.27113e-09
-2.20099e-09
-5.06223e-09
7.26321e-09
1.60812e-08
-1.60812e-08
1.57346e-08
-1.57346e-08
-1.71011e-08
1.71011e-08
-1.70174e-08
1.70174e-08
-1.63379e-08
-1.73295e-08
6.31451e-09
-1.05546e-08
4.2401e-09
1.34245e-08
5.9135e-09
2.35763e-09
-1.09979e-08
1.09979e-08
6.62638e-09
-7.80294e-09
7.80294e-09
-1.00746e-08
3.74704e-09
6.32756e-09
-1.65312e-09
-9.61748e-09
6.74412e-09
2.87335e-09
1.56588e-08
-1.56588e-08
-9.20398e-09
4.21284e-09
4.99115e-09
-3.33042e-09
-6.72576e-09
-4.845e-09
3.71333e-09
-2.9965e-09
8.70767e-09
9.54193e-11
-8.92679e-09
-1.21688e-08
3.133e-09
-1.21037e-09
-1.01984e-09
-1.2829e-09
-8.56381e-10
-4.79333e-09
-1.04756e-08
5.5857e-09
4.88993e-09
-6.72862e-09
-3.61825e-09
-1.33104e-09
-7.59901e-11
2.17979e-10
-8.17609e-09
3.11378e-09
-3.96319e-09
-1.38061e-08
1.20732e-08
-3.12194e-09
-5.44513e-09
2.18722e-09
3.25791e-09
-1.00271e-09
-8.38932e-09
2.00159e-09
6.38773e-09
-2.33123e-09
-1.69383e-08
1.69382e-08
2.17887e-09
-1.26987e-10
-2.90547e-09
4.21901e-10
-9.59015e-11
7.50937e-09
-2.51823e-09
-1.00107e-08
-5.17822e-09
3.84828e-10
9.28301e-09
-5.3199e-09
-3.60689e-09
-7.17112e-09
-1.40422e-09
-7.40779e-09
-2.25647e-10
-3.37352e-09
-2.64074e-09
-2.99865e-09
-7.85208e-09
-1.07375e-08
-3.00266e-09
-3.31261e-09
1.22896e-08
-1.13526e-08
-1.10037e-08
-1.16231e-08
1.26886e-08
-1.02368e-08
-2.4518e-09
1.76045e-08
3.36583e-09
-5.74453e-10
5.85793e-09
1.76047e-08
1.43701e-09
1.07342e-08
2.40467e-09
-1.31389e-08
1.01901e-08
-1.50064e-09
7.9409e-09
3.77972e-10
-1.59987e-10
-1.59154e-08
1.59154e-08
1.34635e-08
-3.35754e-10
1.28226e-09
8.20414e-10
1.25119e-09
6.58735e-09
-9.10553e-09
6.12123e-09
5.39296e-10
7.7751e-10
-5.13716e-09
4.35965e-09
-4.0568e-09
9.3995e-09
-3.07193e-09
8.91891e-10
4.70809e-10
1.9339e-09
1.28364e-09
-1.30844e-08
-9.40365e-09
4.21855e-10
2.27403e-09
3.77945e-10
9.45997e-09
-2.69909e-10
-3.89091e-09
1.49936e-09
3.62579e-10
6.90064e-09
-6.31801e-09
6.3647e-09
1.99528e-09
1.23464e-09
-1.73263e-08
-3.87882e-10
3.32441e-09
-8.93883e-09
1.94568e-09
-9.95516e-09
-1.21361e-09
1.13234e-09
-1.58369e-08
-3.53939e-09
-5.78115e-09
1.23691e-08
-1.58833e-09
-6.80098e-09
9.38725e-09
-1.73264e-08
3.05308e-09
1.5831e-10
-7.09755e-09
-3.45702e-09
9.46883e-09
3.32091e-09
-1.05726e-08
-1.58369e-08
-1.50068e-09
-7.2116e-09
-7.7368e-09
7.68873e-09
1.85001e-09
-1.20071e-09
1.45473e-09
-1.45472e-09
-2.58532e-10
-1.5038e-08
1.44763e-09
-1.44762e-09
-5.49716e-09
-2.65536e-09
-4.21303e-09
-1.19813e-08
1.45476e-09
1.44766e-09
1.09631e-08
-1.49425e-09
7.44971e-10
2.66011e-09
7.1236e-09
-2.8077e-09
2.96609e-09
-2.09831e-09
1.07846e-09
-3.06617e-09
-4.0258e-09
-1.11141e-09
5.5706e-11
1.55045e-09
-3.02147e-09
3.66114e-10
1.8004e-09
-6.06368e-11
-1.53559e-11
6.11769e-11
5.70976e-09
-5.12562e-09
-9.65659e-09
-6.47084e-09
2.23452e-09
-3.08163e-10
1.54605e-09
1.18954e-09
1.19588e-09
-6.93691e-10
6.54125e-13
2.51447e-09
2.45947e-09
7.29706e-10
-6.27685e-09
-4.15051e-09
6.11158e-09
5.98634e-09
-2.36301e-09
-1.87662e-09
-1.82561e-09
-4.31487e-09
-2.95246e-09
6.1321e-10
5.12012e-10
)
;

boundaryField
{
    front
    {
        type            empty;
        value           nonuniform List<scalar> 0();
    }
    back
    {
        type            empty;
        value           nonuniform List<scalar> 0();
    }
    bottom
    {
        type            calculated;
        value           nonuniform List<scalar> 
12
(
-2.29261e-08
1.16143e-08
-1.61369e-09
-2.70994e-10
2.99314e-09
-4.04282e-09
-3.84485e-09
1.14515e-08
1.1069e-08
1.24459e-08
4.09432e-09
-2.09704e-08
)
;
    }
    left
    {
        type            calculated;
        value           uniform 0;
    }
    top
    {
        type            calculated;
        value           uniform 0;
    }
    right
    {
        type            calculated;
        value           uniform 0;
    }
    inner_arc
    {
        type            calculated;
        value           uniform 0;
    }
}


// ************************************************************************* //
