/*--------------------------------*- C++ -*----------------------------------*\
  =========                 |
  \\      /  F ield         | OpenFOAM: The Open Source CFD Toolbox
   \\    /   O peration     | Website:  https://openfoam.org
    \\  /    A nd           | Version:  9
     \\/     M anipulation  |
\*---------------------------------------------------------------------------*/
FoamFile
{
    format      ascii;
    class       volVectorField;
    location    "0.6";
    object      U;
}
// * * * * * * * * * * * * * * * * * * * * * * * * * * * * * * * * * * * * * //

dimensions      [0 1 -1 0 0 0 0];

internalField   nonuniform List<vector> 
578
(
(-0.0361 -0.043 0)
(-0.0193 -0.0652 3.08e-16)
(-0.0542 -0.0639 -1.09e-16)
(0.0036 -0.0708 -2.6e-17)
(0.0119 -0.0262 -4.89e-17)
(0.00454 -0.0929 -9.64e-17)
(-0.0123 -0.0269 4.87e-17)
(0.0132 -0.0243 -2.13e-20)
(0.0597 -0.09 -2.12e-16)
(-0.0114 -0.0407 4.56e-16)
(0.00577 -0.101 -1.43e-16)
(0.0385 -0.075 0)
(0.00934 -0.0872 1.06e-16)
(0.0394 -0.0822 -8.24e-16)
(-0.0401 -0.0832 4.15e-16)
(0.07 -0.0751 -9.96e-17)
(-0.0455 -0.0414 4.44e-16)
(-0.0732 -0.0622 0)
(0.0353 -0.0685 0)
(0.0653 -0.0879 1.53e-16)
(0.00326 -0.0799 0)
(0.0557 -0.0689 0)
(0.0308 -0.0274 -5.27e-16)
(0.000206 -0.0738 0)
(-0.00105 -0.0586 0)
(0.0336 -0.0682 4.19e-16)
(-0.00331 -0.0677 -5.29e-17)
(-0.000252 -0.0336 2.85e-17)
(-0.0169 -0.0781 -5.07e-16)
(0.0722 -0.0781 4.07e-16)
(-0.00102 -0.0581 -4.88e-16)
(0.00428 -0.0764 1.05e-16)
(0.0771 -0.083 -3.92e-16)
(-0.00121 -0.0795 2.06e-16)
(-0.0352 -0.0749 -4.1e-16)
(0.0617 -0.0652 -6.17e-16)
(0.0345 -0.0734 8.06e-16)
(0.0325 -0.0631 0)
(-0.0696 -0.0757 -4.05e-16)
(0.0189 -0.0403 0)
(0.0193 -0.0438 -4e-16)
(0.0221 -0.0398 4.8e-16)
(0.0193 -0.0376 0)
(-0.0357 -0.0732 0)
(0.0542 -0.0528 5.24e-17)
(-0.0195 -0.0413 0)
(-0.0198 -0.045 4e-16)
(0.054 -0.0826 -5.27e-17)
(-0.0693 -0.0756 6.03e-16)
(-0.00569 -0.0806 -1.11e-16)
(0.000755 -0.0352 1.56e-17)
(0.0139 -0.0901 -4.47e-16)
(0.046 -0.033 -2.18e-16)
(-0.00142 -0.0805 0)
(0.0015 -0.0811 3.65e-16)
(-0.00428 -0.0976 8.85e-16)
(0.0119 -0.0104 8.45e-16)
(0.0363 -0.0301 -4.29e-16)
(-0.0599 -0.0594 -7.73e-16)
(0.0395 -0.0425 2.25e-16)
(-0.0707 -0.0674 4.08e-16)
(-0.0381 -0.0267 0)
(-0.0576 -0.0443 5.85e-17)
(0.0354 -0.0732 3.84e-16)
(-0.00461 -0.0892 1.02e-16)
(-0.0444 -0.0838 2.26e-16)
(0.0733 -0.0857 -4.71e-17)
(0.0102 -0.0979 3.37e-16)
(0.0787 -0.0737 -1.93e-16)
(0.0394 -0.084 4.51e-16)
(0.000431 -0.0623 0)
(0.0013 -0.0629 -1.46e-17)
(0.000149 -0.0862 -1.11e-16)
(0.0403 -0.0856 0)
(0.00159 -0.108 2.05e-16)
(0.0117 -0.0246 0)
(0.0526 -0.0763 2.72e-16)
(0.0433 -0.062 -2.23e-16)
(0.00572 -0.0901 0)
(-0.0357 -0.0384 -1.18e-16)
(0.0362 -0.0741 -3.82e-16)
(-0.0177 -0.0255 -4.13e-16)
(0.0107 -0.025 -1.88e-16)
(0.0176 -0.0251 1.91e-16)
(-0.0702 -0.0867 -5.47e-17)
(-0.0142 -0.041 0)
(0.000627 -0.0204 0)
(-0.00412 -0.107 -3.25e-16)
(0.0286 -0.0634 1e-20)
(-0.0306 -0.0703 3.64e-18)
(-0.00242 -0.0739 0)
(-0.0608 -0.0786 1.11e-16)
(-0.0291 -0.0648 0)
(0.013 -0.0971 1.98e-16)
(0.0736 -0.0758 6.02e-16)
(0.0528 -0.0699 -5.16e-16)
(0.000125 -0.0822 1.09e-16)
(0.00525 -0.0826 -7.81e-16)
(-0.00388 -0.0244 -8.15e-16)
(-0.04 -0.0835 0)
(-0.0418 -0.0748 0)
(0.0369 -0.0815 -7.12e-16)
(-0.0138 -0.0946 0)
(-0.0545 -0.0575 0)
(-0.00448 -0.0815 0)
(0.0393 -0.0826 -6.13e-16)
(0.00222 -0.0978 -2.15e-16)
(0.0196 -0.0425 0)
(-0.00832 -0.0229 0)
(0.0221 -0.0443 -4.98e-16)
(0.0615 -0.0712 -1.66e-16)
(0.0377 -0.08 0)
(0.0698 -0.0847 4.57e-16)
(0.0607 -0.0722 -3.68e-16)
(0.0634 -0.0745 3.83e-16)
(-0.0138 -0.0905 4.43e-16)
(0.00604 -0.0801 2.3e-16)
(-0.05 -0.0772 -3.37e-16)
(-0.0269 -0.0607 5.86e-17)
(-0.00516 -0.0827 3.86e-16)
(0.0278 -0.0559 -3.99e-16)
(0.0278 -0.0419 -1e-21)
(0.0382 -0.0769 -4.35e-16)
(0.00169 -0.065 -5.84e-17)
(0.0234 -0.0404 0)
(-0.0325 -0.082 4.5e-16)
(0.0244 -0.0752 -4.27e-16)
(0.0752 -0.0765 -2.18e-16)
(-0.0408 -0.0865 2.25e-16)
(-0.0267 -0.082 0)
(-0.0403 -0.082 0)
(-0.0318 -0.0834 0)
(0.0111 -0.0937 0)
(0.00806 -0.0161 4.23e-16)
(-0.0397 -0.0844 -4.2e-16)
(-0.0407 -0.0695 0)
(0.0338 -0.0634 0)
(-0.00836 -0.0866 -3.78e-16)
(0.0497 -0.0733 4.28e-16)
(-0.035 -0.0686 0)
(-0.0181 -0.0341 5.16e-16)
(-0.0276 -0.0824 0)
(-0.0302 -0.0584 0)
(-0.000224 -0.0623 0)
(0.0158 -0.0309 0)
(-0.0733 -0.083 9.9e-21)
(-0.0247 -0.0573 4.73e-16)
(-0.00657 -0.0514 0)
(0.0406 -0.0839 4.55e-16)
(-0.0265 -0.0763 0)
(0.0487 -0.0903 0)
(-0.0186 -0.0262 0)
(0.018 -0.0177 0)
(0.0139 -0.0281 5.06e-16)
(-0.0438 -0.0879 -4.23e-16)
(-0.00577 -0.0704 -2.34e-16)
(-0.0197 -0.0885 4.55e-16)
(0.0116 -0.0792 -1.04e-16)
(-0.0154 -0.0152 -1.02e-16)
(0.0512 -0.0911 -3.6e-16)
(0.044 -0.0832 5.06e-16)
(0.0413 -0.0734 5.26e-16)
(-0.00988 -0.0187 -6.46e-18)
(0.0445 -0.08 0)
(-9.1e-05 -0.019 2.07e-20)
(-0.0288 -0.0726 5.36e-21)
(-0.000207 -0.0348 -5.09e-16)
(-0.0391 -0.0756 0)
(0.00766 -0.0527 -1.14e-16)
(-0.00559 -0.103 -1.87e-16)
(0.0428 -0.0708 0)
(0.0202 -0.0365 0)
(-0.0243 -0.0416 0)
(-0.014 -0.0282 -5.09e-16)
(-0.0341 -0.0644 0)
(-0.00521 -0.095 -1.05e-16)
(-0.00028 -0.0985 -1.06e-16)
(-0.0481 -0.0729 3.9e-16)
(0.0266 -0.0451 5.72e-17)
(-0.00214 -0.0637 2.4e-16)
(-0.0208 -0.0373 0)
(-0.0367 -0.0642 0)
(-0.0215 -0.066 0)
(0.00528 -0.0958 7.85e-16)
(-0.0487 -0.0783 2.86e-16)
(-0.00496 -0.038 -3.79e-16)
(0.0248 -0.0299 -1.92e-16)
(-0.0417 -0.0868 1.02e-16)
(-0.0459 -0.0904 4.41e-16)
(-0.00106 -0.036 -5.13e-16)
(0.0449 -0.0891 -4.37e-16)
(0.0379 -0.0706 0)
(0.038 -0.049 4.87e-16)
(-0.0361 -0.0682 0)
(-0.0241 -0.0415 0)
(-0.00144 -0.111 2.02e-16)
(0.00287 -0.0419 9.7e-16)
(-0.00283 -0.0414 -7.76e-16)
(-0.0381 -0.071 0)
(0.0354 -0.0674 0)
(0.00588 -0.0396 -3.73e-16)
(0.00903 -0.0993 -9.92e-16)
(0.0136 -0.042 -2.4e-16)
(-0.0041 -0.108 0)
(-0.000976 -0.104 -3.19e-16)
(0.0389 -0.0751 0)
(-0.0442 -0.0804 0)
(-0.045 -0.0535 0)
(0.046 -0.0908 4.5e-16)
(-0.0223 -0.0254 0)
(-0.0197 -0.0456 4.79e-16)
(-0.0469 -0.0923 -4.33e-16)
(-0.0376 -0.0796 -1.41e-17)
(0.00245 -0.107 1.04e-16)
(-0.0328 -0.0664 -2.4e-16)
(0.00136 -0.0726 0)
(-0.0417 -0.08 -4.57e-16)
(0.0409 -0.079 4.58e-16)
(-0.0447 -0.0907 4.47e-16)
(-0.0111 -0.0238 -5.22e-16)
(0.0437 -0.0895 2.28e-16)
(-0.0372 -0.0723 0)
(0.0238 -0.0501 -4.72e-16)
(0.0227 -0.0427 0)
(-0.0221 -0.0411 0)
(-0.0241 -0.0503 9.5e-16)
(3.16e-05 -0.115 -1.02e-16)
(0.00263 -0.0253 3.92e-20)
(-0.00207 -0.025 2e-16)
(-0.00029 -0.019 4.04e-16)
(-0.00935 -0.0229 -4.1e-16)
(0.00456 -0.0223 -2.07e-16)
(-0.00804 -0.0162 -4.2e-16)
(0.0231 -0.0727 0)
(-0.0235 -0.0738 0)
(0.0164 -0.0263 1.46e-16)
(0.0124 -0.0236 0)
(-0.0127 -0.0238 0)
(0.0158 -0.0938 1.66e-16)
(0.0195 -0.0452 0)
(-0.0112 -0.0203 0)
(0.0111 -0.0194 0)
(-0.00141 -0.113 -4.14e-16)
(-0.019 -0.0355 0)
(-0.00136 -0.0218 7.87e-16)
(0.00899 -0.0178 0)
(-0.00958 -0.018 -4.07e-16)
(-0.00358 -0.0401 9.52e-16)
(-0.0135 -0.0217 0)
(-0.00188 -0.0998 -1.03e-16)
(0.00142 -0.11 1.02e-16)
(-0.036 -0.0836 0)
(0.00672 -0.0666 0)
(0.00694 -0.0202 -4.08e-18)
(0.000564 -0.0181 0)
(0.027 -0.0811 4.49e-16)
(-0.000417 -0.0356 5.07e-16)
(-0.0517 -0.0924 -6.92e-16)
(0.0132 -0.024 0)
(0.00405 -0.0395 5.11e-16)
(0.011 -0.0236 5.18e-16)
(-0.0117 -0.021 4.13e-16)
(0.000764 -0.0217 -8.05e-16)
(0.0011 -0.039 5.42e-16)
(-0.0329 -0.0718 3.46e-16)
(0.0292 -0.0629 8.57e-16)
(0.0139 -0.0403 0)
(0.0049 -0.0115 -4.18e-16)
(-0.000895 -0.02 -4.13e-16)
(0.00212 -0.00911 0)
(-0.00216 -0.00923 0)
(-0.0323 -0.0796 -4.37e-16)
(0.0188 -0.052 0)
(-0.000239 -0.117 -3e-16)
(0.00635 -0.104 -2.2e-16)
(-0.00106 -0.115 -6.04e-16)
(-0.00239 -0.089 2.34e-16)
(-0.00495 -0.0116 0)
(-0.0228 -0.0419 0)
(-0.000956 -0.107 -5.29e-16)
(0.0215 -0.0407 0)
(-0.0019 -0.11 9.12e-16)
(0.000315 -0.116 0)
(0.00287 -0.11 -1.02e-16)
(-0.000822 -0.115 2.05e-16)
(-0.016 -0.0311 -4.96e-16)
(0.00673 -0.0135 -8.28e-16)
(-0.00677 -0.0136 4.17e-16)
(-0.000496 -0.0148 0)
(0.000201 -0.0344 -5.07e-16)
(0.0226 -0.0677 0)
(-0.0368 -0.0823 1.39e-17)
(-0.00394 -0.102 1.87e-16)
(-0.0132 -0.0229 0)
(0.000399 -0.018 0)
(0.000954 -0.0363 6.27e-17)
(0.0114 -0.0208 -4.13e-16)
(0.0262 -0.0808 -1.11e-15)
(-0.000163 -0.0363 1.16e-16)
(0.000319 -0.0367 -4.52e-16)
(-0.00126 -0.0979 5.43e-16)
(-0.0231 -0.069 0)
(1.2e-05 -0.0211 4.02e-16)
(-1.79e-05 -0.0179 0)
(0.000638 -0.0209 0)
(-3.03e-06 -0.0222 7.62e-16)
(0.0259 -0.0752 4.41e-16)
(-0.00186 -0.0763 -1.05e-15)
(-0.000445 -0.118 -3.97e-16)
(-0.000439 -0.118 0)
(0.0243 -0.0569 2.39e-16)
(-0.000847 -0.116 3e-16)
(-0.000404 -0.119 -6.32e-16)
(-0.0191 -0.0526 0)
(-0.000586 -0.114 4.11e-16)
(0.00119 -0.11 4.24e-16)
(-0.0341 -0.0766 0)
(-0.00706 -0.0204 0)
(-0.0141 -0.0408 0)
(-0.000888 -0.106 -5.08e-16)
(-0.0294 -0.0624 -4.78e-16)
(4.33e-05 -0.117 8.25e-16)
(-0.00266 -0.11 1.05e-16)
(0.000547 -0.103 -3.29e-16)
(-0.00502 -0.105 4.19e-16)
(0.000404 -0.113 -1.94e-16)
(-0.0494 -0.0916 4.15e-16)
(-0.032 -0.0609 0)
(0.043 -0.0866 0)
(9.83e-05 -0.114 7.61e-16)
(-0.0099 -0.0975 1.07e-16)
(-0.0558 -0.0907 -1.65e-16)
(-0.000254 -0.118 2.01e-16)
(0.000742 -0.104 -4.13e-16)
(-0.0277 -0.0553 7.12e-16)
(-7.69e-05 -0.113 2.08e-16)
(0.00516 -0.104 -1.92e-16)
(0.000898 -0.103 -4.3e-16)
(-0.00043 -0.0763 0)
(-0.00237 -0.0903 0)
(0.00197 -0.108 -2.1e-16)
(0.00181 -0.112 3.1e-16)
(-0.000843 -0.116 2.99e-16)
(-0.000745 -0.0658 4.27e-16)
(-0.000163 -0.117 3.03e-16)
(0.0497 -0.0662 -1.21e-16)
(0.0276 -0.0775 2.4e-16)
(-0.008 -0.0184 -4.16e-16)
(0.00762 -0.0175 1.05e-16)
(-0.00883 -0.02 4.11e-16)
(0.0089 -0.0198 0)
(0.00915 -0.0191 4.19e-16)
(-0.00928 -0.0193 2.09e-16)
(-0.00168 -0.103 -2.05e-16)
(0.00992 -0.0223 0)
(-0.0101 -0.0233 0)
(3.2e-05 -0.116 -3.02e-16)
(-0.0116 -0.0243 -4.05e-16)
(0.0141 -0.026 0)
(-0.0143 -0.0265 0)
(-0.00136 -0.113 -3.27e-16)
(-0.0118 -0.011 0)
(-9.85e-05 -0.117 1.02e-16)
(0.0078 -0.0191 4.65e-16)
(-0.000344 -0.117 -1.05e-16)
(0.000547 -0.0962 -4.43e-16)
(-0.00135 -0.115 1.05e-16)
(0.0396 -0.0783 4.41e-16)
(0.00727 -0.101 1.85e-16)
(-0.0326 -0.0298 0)
(0.036 -0.0788 0)
(-0.0332 -0.0217 -5.12e-17)
(-0.0523 -0.054 4.27e-16)
(0.0304 -0.0829 -2.22e-16)
(-0.0765 -0.0851 -2.28e-16)
(0.0329 -0.0202 3.92e-16)
(-0.00873 -0.101 -1.06e-16)
(-0.0155 -0.0354 -5.27e-16)
(0.0154 -0.0343 3.76e-16)
(-0.0258 -0.05 -4.87e-16)
(-0.00128 -0.081 -3.76e-16)
(0.016 -0.036 -2.62e-16)
(-0.0162 -0.0365 0)
(0.00344 -0.107 -5.15e-16)
(0.00145 -0.111 3.04e-16)
(-0.000977 -0.104 6.26e-16)
(-0.00163 -0.0194 -5.38e-16)
(-0.0199 -0.0434 4.9e-16)
(-0.0223 -0.0443 0)
(0.0141 -0.0332 -3.24e-16)
(0.00421 -0.0812 1.87e-16)
(0.0152 -0.0813 0)
(0.00979 -0.0917 4.41e-16)
(0.0283 -0.0719 -2.14e-16)
(-0.0798 -0.0775 3.87e-16)
(0.0102 -0.0535 2.27e-16)
(0.0618 -0.0446 3.84e-18)
(-0.000291 -0.0987 5.55e-16)
(0.00545 -0.0716 4.72e-16)
(-0.00104 -0.0313 5.27e-16)
(-0.0748 -0.0793 -7.64e-16)
(0.00111 -0.0334 -4.8e-16)
(-0.00618 -0.0368 2.52e-16)
(-0.0105 -0.0785 3.43e-16)
(-0.0126 -0.0847 0)
(-0.00814 -0.0896 0)
(0.073 -0.0602 0)
(-0.0236 -0.0679 6.92e-16)
(0.00871 -0.101 -5.32e-16)
(0.0221 -0.089 -4.35e-16)
(-0.00834 -0.0778 -8.9e-16)
(-0.0373 -0.0799 1.09e-16)
(-0.00282 -0.094 5.22e-21)
(-0.0274 -0.0731 -9.13e-16)
(-0.0339 -0.0765 -1.11e-16)
(0.0143 -0.0953 1.07e-16)
(0.0321 -0.0708 -4.85e-16)
(-0.0326 -0.072 -2.44e-16)
(0.0411 -0.0866 0)
(-0.00776 -0.0955 1.05e-16)
(-0.0379 -0.083 5.7e-17)
(0.000113 -0.0176 -1.75e-20)
(0.0412 -0.0843 0)
(-0.04 -0.0822 5.92e-16)
(-0.0359 -0.0812 0)
(0.0314 -0.0805 -2.29e-16)
(0.0138 -0.0404 6.47e-16)
(-0.0062 -0.089 -4.92e-16)
(0.00783 -0.0222 -3.86e-16)
(0.0308 -0.0821 0)
(-0.065 -0.0876 0)
(0.00127 -0.113 -2.04e-16)
(0.0469 -0.0524 -1.16e-16)
(0.0114 -0.0837 0)
(-0.00869 -0.0204 -2.03e-16)
(0.0363 -0.0817 -2.24e-16)
(0.0316 -0.0689 0)
(-0.0282 -0.0863 -4.36e-16)
(0.021 -0.0648 0)
(-0.0155 -0.093 4.45e-16)
(-0.0258 -0.0864 -3.41e-16)
(0.00358 -0.0958 0)
(0.00993 -0.0829 2.38e-16)
(0.000276 -0.0774 0)
(-0.0602 -0.0914 0)
(-0.00446 -0.109 4.3e-16)
(-0.000503 -0.0619 -3.65e-16)
(-0.0543 -0.0719 -4.36e-16)
(-0.0445 -0.0655 6.18e-16)
(0.000727 -0.0172 0)
(-0.042 -0.0853 1.17e-16)
(-0.0109 -0.082 0)
(-0.0369 -0.0809 1.34e-21)
(0.00967 -0.0814 1.81e-16)
(-0.0432 -0.089 -4.23e-16)
(-0.00145 -0.0642 0)
(-0.00552 -0.0639 -7.57e-18)
(0.0363 -0.0649 2.19e-16)
(0.000511 -0.109 6.55e-16)
(-0.0585 -0.0756 0)
(0.0171 -0.0641 4.72e-16)
(-0.025 -0.0281 2.42e-16)
(-0.0142 -0.0969 -1.67e-16)
(0.0142 -0.0382 -2.95e-16)
(-0.00222 -0.113 1.06e-16)
(0.0509 -0.0798 -1.47e-20)
(-0.0153 -0.0398 0)
(0.0248 -0.0269 -2.48e-16)
(-0.0117 -0.0992 2.22e-16)
(0.0336 -0.0761 -6.86e-16)
(0.000532 -0.0912 -4.87e-16)
(-0.00114 -0.0179 0)
(-0.0125 -0.0165 0)
(-0.00989 -0.0756 2.3e-16)
(-0.000576 -0.102 -4.51e-16)
(0.0361 -0.0796 2.18e-16)
(0.0348 -0.0821 4.58e-16)
(0.0104 -0.0135 2.02e-16)
(0.0194 -0.0257 9.96e-17)
(0.0485 -0.0565 1.95e-16)
(0.000472 -0.0932 0)
(0.00308 -0.11 2.14e-16)
(-0.0757 -0.0791 -3.28e-16)
(-0.000784 -0.11 -1.01e-15)
(-0.00912 -0.0814 1.85e-16)
(0.0263 -0.0714 2.36e-16)
(-1.71e-05 -0.0929 3.43e-16)
(-0.00212 -0.0407 0)
(-0.0164 -0.0885 0)
(-0.0532 -0.0842 -2.17e-16)
(0.00222 -0.041 -1.86e-16)
(-0.0701 -0.0872 5.39e-17)
(0.0315 -0.0787 2.74e-17)
(0.0174 -0.0906 5.7e-17)
(-0.00996 -0.0982 -2.19e-16)
(-0.015 -0.0351 5.13e-16)
(-0.00154 -0.0713 2.42e-16)
(-0.0387 -0.0841 2.19e-16)
(-0.00672 -0.0782 1.79e-16)
(0.00638 -0.0788 0)
(0.0406 -0.0855 -2.31e-16)
(-0.00567 -0.105 -4.35e-16)
(0.0239 -0.0608 0)
(0.00257 -0.0991 6.48e-16)
(-0.0692 -0.074 1.24e-16)
(-0.0157 -0.0897 0)
(-0.0266 -0.0598 2.53e-16)
(0.00915 -0.0937 0)
(-0.0254 -0.0629 4.75e-16)
(-0.02 -0.0895 0)
(0.00107 -0.0769 4.41e-16)
(0.0392 -0.0648 0)
(0.00137 -0.0616 -4.8e-16)
(-0.0279 -0.0645 -2.63e-16)
(-0.0329 -0.0721 -6.13e-17)
(0.000245 -0.0362 -4.79e-16)
(0.0396 -0.0827 2.36e-16)
(0.0277 -0.0636 0)
(0.00084 -0.0709 0)
(0.0212 -0.0895 4.52e-16)
(0.00054 -0.101 -3.22e-16)
(0.0271 -0.0493 -3.82e-16)
(-0.00143 -0.112 1.06e-16)
(0.0247 -0.057 0)
(0.035 -0.0765 2.51e-16)
(0.00132 -0.0896 -6.13e-16)
(1.25e-05 -0.0723 3.14e-16)
(0.0056 -0.0687 -2.47e-16)
(0.0531 -0.0742 1.13e-16)
(-0.00469 -0.0735 2.5e-16)
(0.0312 -0.047 0)
(0.0426 -0.0877 0)
(-0.00218 -0.036 -4.7e-16)
(0.000314 -0.0939 0)
(0.0214 -0.0864 5.25e-16)
(-0.0248 -0.0372 -2.61e-16)
(0.000911 -0.0578 0)
(-0.031 -0.0689 -3.1e-16)
(-0.0488 -0.0577 -2.99e-17)
(-0.0119 -0.066 5.03e-16)
(0.013 -0.0672 8.72e-20)
(0.0147 -0.0884 -2.9e-17)
(0.0256 -0.0382 0)
(0.0284 -0.0641 2.62e-16)
(0.0125 -0.0749 0)
(-0.000894 -0.0952 -2.32e-16)
(0.000394 -0.0721 0)
(-0.0515 -0.0713 0)
(0.063 -0.0761 -1.12e-16)
(0.0284 -0.0673 2.44e-16)
(0.0674 -0.0612 3.17e-17)
(-0.0414 -0.083 -1.27e-16)
(0.0343 -0.0789 -2.19e-16)
(-0.0514 -0.0754 1.15e-16)
(0.0481 -0.0633 -1.26e-16)
(-0.00624 -0.106 -1.08e-16)
(0.0551 -0.09 -2.96e-16)
(-0.000831 -0.111 1.24e-16)
(0.00105 -0.0918 1.22e-16)
(-0.0121 -0.0929 6.38e-17)
(-0.0148 -0.0942 0)
(-0.0304 -0.0482 0)
(0.0249 -0.0558 -5.51e-16)
(-0.0208 -0.0857 0)
(0.0217 -0.0863 -2.37e-16)
(0.000825 -0.0872 0)
(0.016 -0.0873 2.42e-16)
(-0.00992 -0.0987 1.62e-16)
(-0.023 -0.0871 -2.59e-16)
(0.0225 -0.087 -2.59e-16)
(-0.0376 -0.0814 2.39e-16)
(-0.0584 -0.0719 0)
(0.0572 -0.0504 -1.77e-16)
(-0.0098 -0.0909 -5.06e-16)
(-0.0708 -0.0769 1.27e-16)
(0.00068 -0.0891 0)
(-0.0677 -0.0804 2.61e-16)
(-0.0581 -0.0656 0)
)
;

boundaryField
{
    front
    {
        type            empty;
    }
    back
    {
        type            empty;
    }
    bottom
    {
        type            zeroGradient;
    }
    left
    {
        type            noSlip;
    }
    top
    {
        type            uniformFixedValue;
        uniformValue    
        {
            type            table;
            format          csv;
            file            "inlet_v.csv";
            nHeaderLine     1;
            refColumn       0;
            componentColumns List<label> 3(1 2 3);
            separator       ",";
            mergeSeparators 0;
        }
        value           uniform (0 -0.08 0);
    }
    right
    {
        type            noSlip;
    }
    inner_arc
    {
        type            noSlip;
    }
}


// ************************************************************************* //
