/*--------------------------------*- C++ -*----------------------------------*\
  =========                 |
  \\      /  F ield         | OpenFOAM: The Open Source CFD Toolbox
   \\    /   O peration     | Website:  https://openfoam.org
    \\  /    A nd           | Version:  9
     \\/     M anipulation  |
\*---------------------------------------------------------------------------*/
FoamFile
{
    format      ascii;
    class       volScalarField;
    location    "0.74";
    object      p;
}
// * * * * * * * * * * * * * * * * * * * * * * * * * * * * * * * * * * * * * //

dimensions      [0 2 -2 0 0 0 0];

internalField   nonuniform List<scalar> 
578
(
-1.49068e-11
-3.66242e-11
-1.12424e-11
2.44183e-12
-3.66085e-11
2.36728e-11
3.18022e-11
-3.04935e-11
-2.65331e-11
-5.54931e-11
1.28412e-11
-3.05134e-11
1.04598e-12
-3.48318e-11
2.96932e-11
-2.02685e-12
-1.77321e-11
-1.63503e-11
-2.39893e-11
-1.83098e-11
2.65334e-12
2.17758e-14
6.93077e-12
1.03222e-11
1.00086e-11
-2.24635e-11
-8.39416e-13
-3.32883e-12
-2.59576e-11
-1.08406e-12
-1.54658e-12
2.65491e-11
-1.23555e-11
3.68969e-12
2.65268e-11
-1.33658e-11
-3.12917e-11
-2.90486e-11
-1.51055e-12
-4.23213e-11
-3.36107e-11
-2.70036e-11
-3.34456e-11
3.12582e-11
-9.90799e-12
3.9128e-11
2.95541e-11
-2.86585e-11
-1.76471e-12
-1.51858e-12
3.60812e-11
9.86457e-13
3.32935e-11
3.38868e-12
4.43413e-13
-1.36676e-11
6.46405e-12
3.73899e-12
-8.87559e-12
-1.96821e-11
-1.72715e-11
-2.433e-11
-2.39908e-11
-3.83913e-11
2.38466e-13
2.88074e-11
-7.77792e-12
1.6904e-11
9.71557e-12
-2.19645e-11
4.7705e-12
2.55737e-11
3.68366e-13
-2.57718e-11
1.26344e-11
-4.07202e-11
-3.30579e-11
-2.73983e-11
4.89036e-13
2.18088e-11
2.80514e-11
-2.83736e-11
4.17983e-11
3.84648e-11
5.90193e-12
2.14881e-11
4.16173e-11
-8.83765e-12
-2.48899e-11
2.01374e-11
-7.40399e-13
1.38502e-11
2.53461e-11
1.59439e-12
1.26356e-11
2.40232e-11
3.32633e-13
4.25278e-13
-5.20734e-11
2.95071e-11
2.78198e-11
-2.48351e-11
-7.47165e-13
1.75382e-11
-1.41527e-13
-3.51139e-11
1.39659e-11
-4.12079e-11
2.56264e-11
-3.6535e-11
-1.24268e-11
-2.34914e-11
-2.01183e-11
1.86483e-11
2.07243e-11
-3.11111e-13
2.06871e-12
-1.81697e-11
1.96386e-11
1.2474e-13
-1.98508e-11
5.36959e-11
-2.75787e-11
2.09656e-12
3.16299e-11
1.33413e-11
2.34361e-11
-1.85356e-12
2.42979e-11
3.56246e-12
2.48336e-11
1.18374e-11
1.66058e-12
-2.16716e-11
2.2157e-11
2.32091e-11
-3.58841e-11
-2.56166e-13
1.2273e-11
2.50169e-11
2.71499e-11
7.48871e-12
2.41342e-11
-7.28378e-12
-2.48504e-11
8.27626e-12
9.23772e-12
-2.28558e-12
-2.76582e-11
-1.00571e-13
-3.03776e-11
1.08286e-11
-3.57636e-11
-1.99687e-11
2.88985e-11
-1.49769e-12
-1.97879e-11
1.98341e-12
3.18375e-11
-3.08086e-11
-3.2214e-11
-3.14083e-11
2.87053e-11
-2.96097e-11
-1.30467e-11
7.99651e-12
-8.31704e-12
2.92672e-11
2.88332e-12
2.87287e-13
-2.71423e-11
-3.683e-11
2.3863e-11
1.82233e-11
2.84841e-11
-4.40193e-14
5.32505e-13
-1.6979e-11
-2.94998e-11
-2.18432e-11
3.13638e-11
-2.91341e-11
1.71858e-11
5.41474e-13
2.4338e-11
-1.65688e-12
-2.62127e-12
3.23626e-11
2.8605e-11
-3.18343e-11
-3.27337e-11
-3.17896e-11
1.02899e-11
2.87479e-11
-4.36762e-11
6.70527e-13
4.19519e-12
-3.05655e-12
2.76019e-11
-3.27722e-11
2.35679e-12
9.45315e-13
5.76897e-11
-2.49564e-13
2.40791e-13
-3.33668e-11
2.67729e-11
-2.26139e-12
-3.17109e-11
3.91887e-12
5.02828e-12
2.67446e-11
2.11093e-11
8.71659e-13
2.17844e-11
1.69785e-12
2.84996e-11
-3.25037e-11
2.85743e-11
1.13184e-11
-3.22281e-11
2.82812e-11
-1.43859e-11
-3.28355e-11
3.14486e-11
1.32598e-11
9.60928e-13
3.36953e-12
-2.4513e-12
-2.45651e-11
-4.96613e-11
5.51756e-11
2.05285e-11
-1.2992e-11
1.27063e-11
-2.46342e-11
-3.36624e-11
3.01649e-11
1.32265e-12
-5.36836e-12
3.0388e-11
-3.70136e-11
3.11494e-13
3.06237e-11
-2.88597e-12
-2.50296e-11
2.52188e-11
-4.83207e-11
2.03862e-11
1.41256e-12
7.09254e-13
1.78751e-11
3.01813e-11
3.69646e-12
2.7463e-11
-7.85861e-12
-1.88003e-11
2.71583e-11
-2.77665e-11
4.94882e-11
-1.20948e-11
3.14095e-11
4.2271e-12
4.75289e-12
-2.89016e-11
-1.73272e-11
8.78057e-12
-6.125e-12
-3.92701e-11
1.05278e-11
-1.06656e-11
1.04301e-11
4.67344e-12
7.79355e-13
1.17843e-12
1.43634e-12
-1.68495e-13
5.66537e-12
2.92574e-11
2.59678e-12
-3.46499e-11
6.54465e-13
8.30268e-13
1.01579e-12
1.51857e-12
2.38468e-11
-1.49396e-11
1.39361e-11
5.643e-12
4.1796e-12
4.22775e-12
1.69306e-11
-4.71249e-13
2.64603e-11
3.74263e-12
4.44143e-12
-3.44794e-11
-3.70427e-12
-1.17973e-12
3.55499e-12
1.80372e-12
-4.45363e-12
6.94909e-13
-4.42466e-12
4.40984e-12
1.60421e-12
-6.31652e-14
-1.72477e-11
2.11728e-12
1.64569e-12
-9.50787e-12
-1.06121e-12
1.37363e-12
-4.99768e-12
3.46715e-12
9.3008e-13
1.55163e-11
-4.04094e-12
-8.96787e-12
3.45535e-12
1.63074e-11
7.76905e-13
8.42665e-13
7.13687e-12
2.71674e-13
-3.4551e-13
2.65489e-11
2.80764e-11
-3.24824e-11
-7.25279e-13
-7.21024e-14
2.31034e-11
5.38475e-13
-1.00045e-13
1.98407e-11
5.07238e-12
1.46961e-12
1.95411e-13
-9.49421e-12
-4.47056e-13
9.37678e-13
9.88346e-13
-1.23319e-12
-1.3654e-11
2.97426e-12
2.6414e-11
1.48235e-11
2.29304e-11
-2.53868e-11
2.64267e-11
-2.83318e-11
-3.14451e-11
2.8162e-11
-8.70145e-12
-3.96842e-11
3.66171e-11
5.26525e-12
3.48241e-11
-4.14842e-11
3.69315e-11
1.99649e-13
-1.32051e-11
3.74074e-12
-2.00617e-11
1.17001e-12
1.60696e-12
-1.63217e-12
2.34242e-11
1.28752e-12
-3.25188e-12
-2.97089e-11
-2.63155e-11
9.99585e-12
1.57575e-11
1.0144e-11
3.94519e-11
-6.63261e-13
2.59811e-11
-2.97348e-11
-6.75651e-12
1.18526e-13
-3.04274e-11
2.83749e-11
6.3667e-12
4.03077e-12
-2.02791e-13
-8.751e-14
3.48827e-11
3.25923e-11
-2.32468e-11
7.62853e-13
5.99432e-12
7.22174e-12
-8.26678e-12
-3.73292e-12
2.81975e-12
2.48985e-11
-3.94923e-12
4.60288e-12
1.04874e-11
-1.01197e-12
2.17621e-11
-8.77807e-14
-1.81157e-11
-2.37566e-13
-3.75021e-12
1.63518e-11
-7.85563e-12
1.00433e-11
1.8225e-11
-2.43618e-12
-2.44589e-11
-1.20474e-11
1.48905e-11
-8.91979e-12
1.16487e-11
-2.65375e-11
2.29517e-11
-3.45545e-11
-1.25819e-12
2.5605e-11
1.61197e-11
-2.82772e-11
3.06725e-11
1.98814e-11
-1.33724e-11
-2.09777e-11
-1.86846e-11
-2.61319e-11
-1.25224e-11
1.82044e-11
6.58124e-12
5.30344e-12
8.10852e-13
1.76035e-11
-1.74498e-11
-3.02619e-11
-1.62828e-11
-1.75498e-11
-7.33014e-12
-1.35123e-11
1.83638e-12
2.23871e-12
-1.28931e-12
2.27431e-11
-5.44509e-12
-2.09972e-12
1.97488e-11
1.93901e-11
-6.76281e-13
2.63187e-11
-6.14818e-13
2.00591e-11
1.27994e-12
2.5998e-11
8.80998e-13
-3.45656e-11
8.12756e-12
7.50592e-12
-2.00362e-11
4.33409e-11
2.33744e-11
-1.59246e-11
-1.7879e-11
-4.92904e-12
-2.33257e-11
1.78535e-11
-3.46824e-11
-1.00378e-11
-1.68163e-11
-3.55191e-12
-3.82146e-12
1.72249e-11
-1.45648e-12
-5.37063e-12
-2.71435e-11
-1.94928e-11
-2.21891e-11
-1.24344e-11
-1.94805e-11
7.42933e-12
1.06338e-11
-8.99642e-12
-2.93875e-12
-1.29934e-12
-1.57722e-11
-8.21957e-12
-1.15126e-12
-7.13565e-13
2.50173e-11
1.88216e-12
1.81804e-11
-1.05095e-11
1.82471e-12
-4.07952e-13
2.06873e-11
3.47635e-13
2.36659e-11
-1.0064e-12
1.73665e-12
-3.36135e-11
-4.2531e-12
-1.7344e-11
1.67788e-12
-1.69849e-11
-1.07124e-12
2.32086e-11
2.68236e-12
1.6023e-11
-7.20506e-13
-1.37778e-12
2.98189e-11
1.90098e-12
3.81366e-11
2.61344e-11
-8.02152e-13
-3.00616e-11
-4.06188e-11
1.97407e-11
1.53188e-12
1.05188e-11
1.26912e-11
-6.48007e-12
-2.36101e-11
-2.58153e-11
1.23878e-12
-4.36707e-12
2.85898e-12
-2.84328e-11
-2.44467e-11
-2.98351e-11
-2.95365e-11
-3.20993e-12
-1.5554e-12
2.54694e-11
1.88596e-11
1.78826e-11
2.19907e-11
1.89608e-11
-1.47675e-12
2.14955e-12
2.44124e-11
-1.64969e-11
-2.24824e-11
3.03233e-11
4.59526e-12
1.2439e-11
-1.72439e-11
-1.51399e-11
-2.08032e-11
1.50991e-11
2.82396e-11
-2.02837e-11
2.61901e-11
1.69435e-11
-9.79287e-12
-3.11495e-11
-2.63542e-12
1.04572e-12
-1.14925e-12
-7.69323e-13
2.81558e-11
-2.71e-11
-1.14077e-12
1.87282e-12
1.75557e-11
1.21798e-12
-1.53541e-11
-7.7215e-13
1.51241e-12
2.44074e-11
-1.81316e-11
1.73277e-11
-2.38769e-11
-1.04375e-11
1.19794e-11
1.31037e-11
9.01953e-12
)
;

boundaryField
{
    front
    {
        type            empty;
    }
    back
    {
        type            empty;
    }
    bottom
    {
        type            uniformFixedValue;
        uniformValue    
        {
            type            scale;
            scale           
            {
                type            squarePulse;
                start           0.3;
                duration        0.3;
            }
            xScale          
            {
                type            constant;
                value           1;
            }
            value           
            {
                type            constant;
                value           15.1;
            }
        }
        value           uniform 0;
    }
    left
    {
        type            zeroGradient;
    }
    top
    {
        type            zeroGradient;
    }
    right
    {
        type            zeroGradient;
    }
    inner_arc
    {
        type            zeroGradient;
    }
}


// ************************************************************************* //
