/*--------------------------------*- C++ -*----------------------------------*\
  =========                 |
  \\      /  F ield         | OpenFOAM: The Open Source CFD Toolbox
   \\    /   O peration     | Website:  https://openfoam.org
    \\  /    A nd           | Version:  9
     \\/     M anipulation  |
\*---------------------------------------------------------------------------*/
FoamFile
{
    format      ascii;
    class       surfaceScalarField;
    location    "0.74";
    object      phi;
}
// * * * * * * * * * * * * * * * * * * * * * * * * * * * * * * * * * * * * * //

dimensions      [0 3 -1 0 0 0 0];

internalField   nonuniform List<scalar> 
816
(
7.73171e-19
2.56662e-17
-2.64394e-17
-8.93909e-18
3.59467e-17
-2.70076e-17
-4.46738e-17
4.5447e-17
2.33968e-18
-3.16617e-18
8.26491e-19
2.51579e-17
-2.51579e-17
-1.39849e-17
1.74858e-17
-3.50087e-18
-2.62971e-17
2.62971e-17
-2.36132e-17
2.36132e-17
-5.34931e-17
1.58337e-19
5.33348e-17
6.53283e-18
-1.54719e-17
1.33588e-17
-2.73437e-17
6.26061e-17
-4.53313e-17
-1.72749e-17
9.58467e-19
-7.6245e-19
-1.96017e-19
6.05131e-17
-5.48258e-17
-5.68729e-18
-5.97676e-17
5.27525e-17
7.01511e-18
-4.59223e-17
7.56136e-17
-2.96914e-17
-2.8678e-17
-8.15208e-18
3.68301e-17
5.47155e-17
-4.43427e-18
-5.02812e-17
7.34155e-18
5.52646e-17
2.51263e-17
-7.86194e-17
4.42341e-18
-2.08373e-18
5.68089e-18
-5.16032e-17
2.99958e-17
-1.25979e-17
-1.73979e-17
7.68761e-18
3.52556e-18
-1.12132e-17
8.90365e-18
-1.21604e-18
-5.14583e-17
1.25901e-17
3.88683e-17
3.55532e-18
-3.20454e-18
-3.50783e-19
1.07717e-18
-2.22522e-18
1.14805e-18
1.71628e-17
1.87838e-17
2.63301e-17
4.92836e-17
3.91815e-18
-2.84098e-18
5.20726e-18
1.22785e-17
7.99285e-17
-5.35984e-17
1.0681e-17
-7.42552e-18
-3.25553e-18
-5.90907e-18
-5.38585e-17
-1.2953e-17
6.22365e-17
5.54879e-18
5.49643e-17
-7.52658e-18
-4.39318e-17
7.78286e-17
-2.83355e-17
-4.94931e-17
1.56373e-17
9.5206e-18
-1.96091e-17
-1.62717e-17
1.60866e-17
5.31177e-17
-3.65212e-19
-2.70712e-17
-1.29632e-17
4.00344e-17
-1.57997e-17
-1.04974e-17
2.03881e-17
4.95202e-17
-4.93619e-17
3.31549e-17
1.15901e-18
2.3963e-18
-2.93121e-18
-7.40414e-19
3.67162e-18
8.02799e-19
1.55669e-19
2.18951e-17
8.10062e-18
6.25731e-18
4.42374e-18
-3.39987e-19
3.39987e-19
1.70076e-17
-5.13544e-18
-1.18722e-17
-1.25979e-17
-2.70712e-17
-6.2069e-17
3.33909e-17
2.13617e-17
-3.43147e-17
-7.35346e-18
1.01583e-17
-1.83103e-17
-2.27446e-17
1.83103e-17
-1.774e-18
-5.30518e-17
1.21135e-18
-7.74182e-19
-4.37164e-19
5.35984e-17
-4.80693e-19
5.11978e-17
2.87306e-17
-2.21061e-17
3.54649e-17
-2.27637e-17
6.65616e-17
-4.37979e-17
1.21074e-17
4.44151e-17
-5.65225e-17
1.47813e-18
2.27605e-18
1.15981e-18
5.15379e-20
4.51897e-17
2.17878e-17
-6.69775e-17
1.25404e-17
-1.46301e-17
2.08968e-18
2.13831e-17
-2.13831e-17
-3.17448e-17
5.68711e-17
-4.29195e-17
1.11746e-17
3.97361e-19
-9.73152e-18
-1.67078e-17
2.64394e-17
-4.31863e-17
-1.70744e-17
6.02608e-17
2.56662e-17
1.94383e-17
-1.94383e-17
-2.86338e-17
2.86338e-17
-3.08649e-17
6.01537e-17
-2.92888e-17
1.53989e-17
4.73225e-18
-7.40416e-19
1.58006e-17
1.20698e-18
-1.3445e-18
-4.20685e-17
4.3413e-17
3.68348e-17
1.59145e-18
-3.84263e-17
7.13605e-19
2.20201e-17
-5.2885e-17
1.46972e-18
4.5311e-17
-4.67807e-17
2.08051e-18
-1.78842e-18
-2.9209e-19
-5.24551e-17
-5.37883e-19
4.76863e-17
-4.71484e-17
-2.88449e-19
1.43971e-19
6.53283e-18
4.22246e-18
-5.8081e-17
-6.65457e-19
5.42638e-17
-3.74877e-17
4.95951e-17
5.93109e-19
7.8417e-19
-1.37728e-18
-3.8067e-17
1.53156e-19
-1.53156e-19
-7.48527e-18
6.24496e-17
9.03956e-18
1.96091e-17
1.53989e-17
-1.97998e-18
-1.94031e-17
2.74215e-17
3.4815e-17
5.70052e-17
5.2993e-17
-6.56504e-17
1.26575e-17
9.09472e-19
-3.16364e-19
-2.34754e-18
-8.18628e-19
2.4113e-17
3.48525e-17
-5.89655e-17
-7.15923e-19
3.75507e-17
-1.35292e-19
2.88448e-19
-2.44225e-18
4.13105e-17
-3.25508e-17
3.91693e-18
1.13328e-17
3.76827e-18
6.55141e-19
-1.31124e-17
-4.84482e-17
5.26086e-17
-4.16038e-18
-8.16591e-18
-3.50204e-17
4.79856e-17
-3.37041e-17
-1.42815e-17
4.6102e-17
1.0054e-17
-5.48883e-17
3.14679e-19
5.45736e-17
-5.64782e-17
8.02999e-18
7.8712e-19
1.29339e-18
-1.36444e-17
1.36444e-17
-4.96427e-17
-5.24559e-18
-3.92688e-19
4.99764e-17
-4.95837e-17
-7.6023e-19
-4.4571e-17
-4.00965e-17
-2.55539e-17
-3.90824e-17
3.93971e-17
-6.76817e-19
1.47755e-17
-1.40987e-17
-1.03762e-17
-3.97592e-17
4.7586e-19
8.41561e-18
-8.89147e-18
-1.60866e-17
-5.73034e-19
-4.89201e-17
-5.66799e-18
-2.93653e-17
3.50333e-17
4.34691e-20
-3.03977e-19
2.60508e-19
5.02719e-17
-4.02179e-17
-6.12533e-17
-1.62337e-18
6.28767e-17
1.76923e-17
-1.76923e-17
2.13617e-17
2.3912e-18
1.12532e-17
5.91215e-18
5.60326e-17
-6.19447e-17
-4.93286e-19
1.6523e-18
-2.31517e-17
4.03146e-17
2.20873e-19
5.55516e-19
-7.76389e-19
-1.67078e-17
5.5116e-18
-6.67649e-17
-4.75402e-17
1.47755e-17
-4.80239e-17
4.64005e-17
-4.79445e-18
4.79445e-18
4.46039e-17
-4.31859e-18
-4.02653e-17
4.61774e-17
-3.39631e-20
2.54838e-19
4.5924e-18
-4.8946e-18
3.02193e-19
-4.58286e-18
-4.3441e-17
1.62717e-17
-1.70319e-17
1.83065e-17
-1.86992e-17
-1.64435e-18
1.26437e-17
-1.09993e-17
8.63674e-19
-4.11289e-17
1.69869e-18
-2.13585e-18
2.21337e-18
-5.14674e-19
5.75039e-17
-2.44319e-17
1.9849e-17
-2.80865e-18
-1.07197e-18
3.88062e-18
-1.61093e-17
1.6973e-17
-1.01943e-17
4.87444e-17
-3.85501e-17
-3.63152e-17
4.10474e-17
2.61073e-18
1.82871e-18
4.81477e-17
4.34684e-20
-3.43147e-17
2.32674e-17
2.47182e-17
5.75226e-17
2.7325e-18
-6.0255e-17
-3.75886e-18
9.50211e-19
-5.71894e-17
-2.74678e-18
5.99361e-17
4.82254e-17
-1.82488e-18
4.52118e-17
9.65578e-19
1.54719e-17
-2.61078e-18
-1.87578e-18
4.48656e-18
-2.54839e-19
7.78849e-19
-5.2401e-19
3.03979e-19
-7.97266e-19
4.71837e-17
-4.79443e-17
7.60605e-19
4.64708e-17
-4.54786e-17
-9.92251e-19
-3.39623e-20
8.22309e-19
-5.90831e-18
-1.353e-17
1.98162e-18
2.92323e-18
-3.43791e-18
1.8998e-18
-2.39997e-18
3.97124e-17
2.08209e-18
-3.14474e-17
6.45377e-17
3.1796e-18
-5.28223e-17
7.51152e-20
2.84812e-18
-3.65797e-17
5.24068e-18
-1.47241e-18
-8.91725e-18
1.09993e-17
5.24509e-17
-3.80633e-17
-3.0656e-18
-3.33264e-17
3.57176e-17
1.80241e-17
-1.9849e-17
1.79386e-17
-1.6973e-17
3.3389e-17
-4.02524e-18
-6.73128e-19
4.69836e-18
-3.75886e-18
-5.90831e-18
1.26437e-17
-9.77067e-18
-3.68594e-17
-2.44319e-17
1.80242e-17
1.79386e-17
5.10709e-19
-2.27947e-18
3.17867e-17
-2.95072e-17
-1.61093e-17
-5.90101e-18
-1.33377e-18
-7.97266e-19
-1.40987e-17
-9.50215e-19
7.48305e-18
1.83065e-17
1.23823e-18
6.59077e-18
-7.82901e-18
4.56167e-18
4.83416e-18
4.77744e-17
6.64872e-18
5.62981e-18
2.76871e-18
-8.97372e-18
6.20501e-18
3.67162e-18
4.60376e-17
-5.58083e-17
1.03559e-18
-6.21377e-17
6.1657e-17
8.97372e-18
-1.12532e-17
7.78849e-19
1.60534e-18
2.17368e-17
7.98411e-18
-2.43661e-17
6.22024e-18
5.26339e-17
7.4206e-18
-6.08529e-18
5.41216e-18
3.67042e-18
-1.69716e-18
-4.38813e-18
5.18839e-18
-3.95016e-18
-8.91725e-18
1.86992e-17
6.5408e-18
1.5717e-18
-8.1125e-18
1.70319e-17
4.89361e-18
3.56715e-18
1.84501e-18
2.97552e-18
1.58615e-18
2.15267e-18
-1.45502e-18
3.11449e-18
-3.11449e-18
4.59262e-18
-3.99488e-17
-4.79882e-17
1.0074e-18
-5.902e-18
-2.26048e-18
2.26048e-18
-1.60534e-18
-1.01067e-17
-4.13265e-18
4.31859e-18
-1.85936e-19
4.13265e-18
-1.87217e-18
7.05416e-18
4.59262e-18
-5.00555e-17
-9.6796e-18
8.60763e-18
2.22969e-18
-3.89107e-18
1.66138e-18
4.38236e-18
6.21041e-18
9.24858e-19
4.3335e-18
-5.25835e-18
-9.8254e-19
1.9074e-18
-2.43933e-17
2.22428e-18
-6.11535e-18
7.15834e-18
-3.59118e-18
4.6457e-18
-2.69701e-18
-5.88823e-18
3.80347e-17
6.22737e-18
1.90973e-18
5.61819e-18
-7.52791e-18
-1.45629e-18
5.15493e-18
1.07244e-18
5.43507e-17
-6.78842e-19
5.83377e-18
-1.35169e-18
6.34857e-17
-6.39389e-18
7.46633e-18
-4.20562e-18
-2.61627e-18
5.59179e-18
7.64445e-19
8.64401e-18
-2.28406e-19
-6.28452e-18
2.69333e-18
1.03038e-17
-5.9703e-18
-2.29822e-18
2.40743e-17
-5.39008e-17
2.98265e-17
1.31438e-17
-1.31438e-17
-1.20337e-17
1.20337e-17
-1.433e-17
1.433e-17
1.42928e-17
-1.42928e-17
1.56373e-17
-1.57997e-17
-3.47219e-18
-7.59788e-18
1.10701e-17
2.03881e-17
-8.29291e-18
5.99469e-18
-2.00229e-17
2.00229e-17
-1.94031e-17
-1.93574e-17
1.93574e-17
-4.25176e-18
3.11685e-17
-2.69167e-17
1.01583e-17
-2.01088e-18
-1.66486e-17
1.86595e-17
-1.22925e-17
1.22925e-17
-7.98392e-18
4.96784e-17
-4.16945e-17
-2.09004e-17
-5.7171e-17
1.05416e-18
-2.27446e-17
-2.16966e-17
4.34844e-17
1.69678e-17
-3.30966e-17
5.95807e-17
2.18951e-17
-2.80798e-18
-1.18621e-18
2.25903e-18
3.18181e-17
5.01203e-18
-7.85413e-18
-3.27351e-17
4.05892e-17
2.33143e-17
-4.0719e-17
-2.43964e-18
-2.588e-19
1.43971e-19
-1.94432e-17
-3.44576e-17
3.02352e-17
-4.38451e-17
-7.65485e-17
2.62673e-17
-1.19626e-17
-2.93784e-17
4.13411e-17
-5.17603e-18
-7.25087e-18
-2.55839e-19
7.50671e-18
-4.64202e-17
-4.33053e-18
4.33053e-18
-6.58905e-19
-9.60658e-19
1.97445e-17
-2.02569e-20
-1.32898e-19
1.4162e-18
-4.31107e-17
-4.89739e-17
4.5004e-17
-3.9992e-17
1.84831e-17
-4.87183e-17
1.56217e-17
5.65893e-17
3.6887e-17
1.75119e-17
-8.35528e-18
-3.37132e-17
1.40044e-17
3.13066e-17
-2.44121e-17
-4.25654e-17
2.6985e-18
1.42422e-17
-4.79464e-17
-4.1687e-17
3.72718e-17
4.93659e-17
4.52841e-17
-5.37092e-17
8.42514e-18
-1.51379e-17
-4.93967e-18
-1.0403e-17
-1.46916e-18
-1.51379e-17
-1.05242e-17
-6.65296e-17
-5.9423e-18
7.24719e-17
4.02941e-18
1.69888e-17
2.30456e-17
6.15571e-21
1.37815e-19
-1.38597e-17
1.38597e-17
4.63852e-17
1.062e-17
2.17164e-17
3.34376e-17
-4.17991e-17
-5.09495e-17
7.83882e-18
3.50806e-18
1.34264e-18
6.93156e-18
-8.86193e-18
1.93037e-18
-3.0439e-18
2.14354e-18
-2.90602e-17
6.74563e-18
-5.02081e-17
4.42658e-17
-2.0604e-18
-2.22522e-18
4.02921e-17
-2.02565e-20
-2.08092e-17
6.15594e-21
-3.72265e-17
6.79114e-18
-2.3674e-18
6.52239e-18
-2.39432e-17
5.37697e-17
8.08437e-18
-4.088e-17
-1.80855e-17
-2.16959e-17
-1.62461e-17
-4.61774e-19
3.07366e-17
9.57793e-18
-2.84531e-18
-5.09977e-18
1.34301e-17
1.53924e-18
1.32573e-17
8.10444e-18
3.85755e-17
5.43693e-17
2.14584e-18
-9.39671e-18
1.14805e-18
-1.62461e-17
-5.14687e-19
7.75194e-19
-7.2783e-18
-3.19578e-19
3.8257e-17
2.41926e-17
-4.30892e-17
1.32573e-17
1.69888e-17
9.14375e-18
5.94221e-17
5.57793e-18
1.13761e-18
-3.3374e-17
-1.37592e-20
1.37592e-20
-4.4926e-19
5.122e-17
1.49761e-20
-1.49761e-20
4.31831e-17
-2.65679e-19
-1.09478e-19
4.41203e-17
-1.37591e-20
1.4977e-20
5.09207e-17
-1.26637e-17
-3.62193e-17
6.20139e-18
-4.82335e-17
4.26048e-19
3.49145e-19
3.25385e-17
-3.37247e-17
-2.32124e-20
-3.36851e-18
-5.49342e-18
6.01204e-18
-3.73599e-18
2.78051e-20
-2.93484e-19
5.56461e-19
-2.99722e-17
2.97134e-17
5.99679e-18
4.72898e-18
2.41436e-18
-5.17762e-17
-1.93988e-17
5.35314e-18
3.82606e-18
4.3804e-17
5.72279e-20
-4.89383e-20
1.60661e-17
-2.39754e-17
-5.86004e-18
-5.66356e-17
-6.50586e-18
-3.63164e-17
-1.66505e-18
2.82158e-17
-2.78533e-17
1.02813e-18
3.40155e-20
-2.11329e-20
5.30357e-18
-1.82753e-17
-1.11886e-17
-5.73698e-18
)
;

boundaryField
{
    front
    {
        type            empty;
        value           nonuniform List<scalar> 0();
    }
    back
    {
        type            empty;
        value           nonuniform List<scalar> 0();
    }
    bottom
    {
        type            calculated;
        value           nonuniform List<scalar> 
12
(
-2.01312e-17
-5.6156e-17
4.66301e-17
-4.66913e-17
2.71348e-17
6.20501e-18
-6.22024e-18
4.73694e-17
5.61443e-17
-4.7272e-17
-2.70903e-17
2.00775e-17
)
;
    }
    left
    {
        type            calculated;
        value           uniform 0;
    }
    top
    {
        type            calculated;
        value           uniform 0;
    }
    right
    {
        type            calculated;
        value           uniform 0;
    }
    inner_arc
    {
        type            calculated;
        value           uniform 0;
    }
}


// ************************************************************************* //
