/*--------------------------------*- C++ -*----------------------------------*\
  =========                 |
  \\      /  F ield         | OpenFOAM: The Open Source CFD Toolbox
   \\    /   O peration     | Website:  https://openfoam.org
    \\  /    A nd           | Version:  9
     \\/     M anipulation  |
\*---------------------------------------------------------------------------*/
FoamFile
{
    format      ascii;
    class       volVectorField;
    location    "0.74";
    object      U;
}
// * * * * * * * * * * * * * * * * * * * * * * * * * * * * * * * * * * * * * //

dimensions      [0 1 -1 0 0 0 0];

internalField   nonuniform List<vector> 
578
(
(6.55157e-10 8.06637e-10 0)
(5.16943e-10 6.4623e-10 -2.0449e-27)
(1.01061e-09 1.21261e-09 0)
(-3.28536e-11 -7.50643e-11 1.42104e-28)
(1.87958e-10 -4.01878e-10 0)
(4.25856e-10 -6.13343e-11 -9.72707e-28)
(1.94089e-10 4.1352e-10 -1.80396e-28)
(1.9455e-10 -3.54671e-10 -1.70484e-27)
(9.96199e-10 -1.62689e-09 0)
(2.62838e-10 3.91366e-10 2.54102e-27)
(6.7302e-10 -1.74365e-10 6.72489e-28)
(6.81999e-10 -1.31006e-09 -1.07292e-28)
(-2.2018e-11 -6.38552e-12 0)
(7.07873e-10 -1.44854e-09 2.15205e-27)
(7.12936e-10 1.4481e-09 0)
(1.27007e-09 -1.45072e-09 8.64462e-29)
(9.4147e-10 4.49928e-10 5.06304e-28)
(1.09174e-09 9.93461e-10 -1.62213e-27)
(6.10777e-10 -1.1745e-09 5.17063e-28)
(1.08664e-09 -1.59992e-09 1.13082e-27)
(-5.29743e-11 -1.06709e-10 -1.46315e-28)
(1.06106e-09 -1.32574e-09 2.83343e-28)
(5.82035e-10 -2.63353e-10 -6.8808e-28)
(-1.56833e-12 2.72244e-10 -7.28927e-29)
(-1.05638e-11 2.41907e-10 0)
(5.96056e-10 -1.20739e-09 1.09299e-28)
(-2.92096e-11 7.67234e-11 0)
(-1.36975e-11 6.84641e-11 -7.76732e-30)
(6.15248e-10 5.20927e-10 1.25682e-27)
(1.26468e-09 -1.47597e-09 0)
(-2.84063e-11 1.13521e-10 7.19253e-29)
(2.9054e-10 -5.83751e-11 -1.32627e-28)
(1.27377e-09 -1.51949e-09 9.7605e-29)
(-5.27194e-11 2.53163e-10 -5.05182e-29)
(6.20652e-10 1.2836e-09 -1.63005e-27)
(1.08679e-09 -1.23899e-09 -3.6436e-28)
(6.15996e-10 -1.27356e-09 -1.90344e-27)
(5.69202e-10 -1.09525e-09 0)
(1.21217e-09 1.4027e-09 9.43473e-29)
(3.1027e-10 -6.50268e-10 0)
(3.25285e-10 -7.1636e-10 1.83161e-27)
(3.50267e-10 -6.11197e-10 9.32609e-28)
(3.12328e-10 -6.05383e-10 2.12688e-27)
(6.10762e-10 1.25396e-09 -5.71806e-29)
(7.51088e-10 -8.18168e-10 0)
(3.17252e-10 6.67594e-10 7.27695e-29)
(3.2916e-10 7.31779e-10 1.80274e-27)
(8.74173e-10 -1.44797e-09 8.29448e-28)
(1.23087e-09 1.42728e-09 -9.62678e-29)
(-3.95503e-11 6.79184e-11 0)
(3.97221e-11 9.21991e-11 5.63788e-29)
(-1.99276e-11 -9.56188e-12 1.27783e-30)
(6.54226e-10 -3.65879e-10 1.21772e-27)
(-6.30797e-11 2.29892e-10 4.99626e-29)
(-5.73943e-12 -6.06766e-13 0)
(3.93078e-10 -1.58944e-11 -3.51123e-28)
(2.56733e-10 -7.97964e-11 -7.29615e-29)
(4.25877e-10 -4.01012e-10 0)
(1.18873e-09 8.33696e-10 8.50201e-28)
(6.97156e-10 -7.82675e-10 -3.97884e-28)
(1.22419e-09 1.06406e-09 4.76664e-28)
(5.21731e-10 2.61818e-10 8.59423e-28)
(6.65162e-10 5.91722e-10 1.18989e-27)
(6.14134e-10 -1.26967e-09 -1.01275e-27)
(-3.3427e-11 4.6501e-12 1.74756e-29)
(7.5954e-10 1.46356e-09 8.99391e-28)
(1.19575e-09 -1.53336e-09 -7.56569e-28)
(8.35828e-10 -3.22348e-10 0)
(1.27931e-09 -1.30395e-09 9.08428e-29)
(7.202e-10 -1.51457e-09 -7.077e-28)
(-3.08367e-11 2.36385e-10 0)
(1.23092e-10 8.88637e-11 -1.62397e-27)
(-2.77506e-11 -6.56792e-13 -4.41925e-29)
(7.4657e-10 -1.52121e-09 -1.883e-27)
(3.44461e-10 7.63019e-11 0)
(1.82671e-10 -3.84926e-10 -9.9897e-28)
(8.86998e-10 -1.36369e-09 -2.63743e-27)
(7.0944e-10 -1.08777e-09 1.46237e-27)
(-3.4975e-11 -7.25201e-12 2.50642e-29)
(6.0778e-10 6.73455e-10 3.87964e-28)
(9.86084e-10 -9.71427e-10 -1.96669e-27)
(3.37289e-10 4.525e-10 -3.13292e-27)
(2.38867e-10 -3.42164e-10 -3.2475e-27)
(3.28487e-10 -4.50951e-10 0)
(1.12652e-09 1.5086e-09 3.38571e-28)
(2.2957e-10 5.64244e-10 -1.88625e-27)
(3.95519e-11 2.26871e-11 0)
(5.52863e-10 3.04494e-11 -8.0583e-29)
(5.01797e-10 -1.06532e-09 1.54483e-27)
(5.16495e-10 1.17738e-09 8.49492e-30)
(-4.42574e-11 1.04703e-10 -6.85988e-29)
(9.354e-10 1.3259e-09 3.04621e-30)
(5.01494e-10 1.0822e-09 1.39072e-27)
(-4.07771e-11 -2.59323e-11 3.96048e-29)
(1.32364e-09 -1.40155e-09 -1.00702e-28)
(1.09287e-09 -1.25316e-09 0)
(-1.25941e-11 1.01841e-14 1.32781e-29)
(-9.54436e-12 -2.1111e-12 0)
(1.10205e-10 1.31595e-10 6.25868e-28)
(7.20616e-10 1.46564e-09 -1.63258e-27)
(6.79117e-10 1.27299e-09 -1.01609e-28)
(6.63233e-10 -1.44525e-09 -7.89397e-28)
(-3.27967e-11 1.84355e-11 0)
(9.50038e-10 1.05068e-09 0)
(-2.84424e-12 1.17405e-12 -4.67171e-30)
(7.17269e-10 -1.46879e-09 -1.87883e-27)
(3.07964e-10 7.94919e-11 0)
(3.27444e-10 -6.96401e-10 -1.20153e-27)
(1.06893e-10 2.92117e-10 1.17064e-27)
(3.58709e-10 -7.23077e-10 2.35687e-27)
(1.05807e-09 -1.32936e-09 -4.68956e-28)
(6.85927e-10 -1.44827e-09 -5.59724e-28)
(1.1799e-09 -1.57578e-09 -7.58638e-29)
(1.2791e-09 -1.14806e-09 1.45747e-28)
(1.26451e-09 -1.31597e-09 -1.449e-28)
(-2.11946e-11 9.82918e-12 -1.77021e-29)
(-3.73144e-11 -6.32667e-11 0)
(1.24743e-09 1.10554e-09 3.26309e-28)
(4.42767e-10 9.83681e-10 0)
(-9.35021e-12 2.00081e-12 7.09385e-30)
(4.76909e-10 -9.61398e-10 1.42853e-27)
(5.46522e-10 -7.5063e-10 0)
(6.89871e-10 -1.36034e-09 1.92714e-28)
(-3.68851e-11 -1.20191e-10 1.3828e-28)
(4.98391e-10 -6.5439e-10 0)
(5.81507e-10 1.43796e-09 4.17057e-28)
(8.02902e-10 -7.98606e-10 2.023e-27)
(1.17566e-09 -1.30885e-09 -1.06806e-28)
(7.47035e-10 1.52172e-09 -1.52778e-27)
(5.23843e-10 1.47129e-09 0)
(7.27487e-10 1.45198e-09 1.83198e-27)
(5.82056e-10 1.48426e-09 0)
(-3.97681e-11 -3.75927e-11 6.70627e-29)
(1.18123e-10 -2.38348e-10 -1.11245e-27)
(7.24748e-10 1.50125e-09 -1.65098e-27)
(6.68412e-10 1.18203e-09 0)
(5.81382e-10 -1.07344e-09 2.2767e-27)
(-2.09055e-11 5.38448e-12 1.7308e-29)
(1.28524e-09 -1.02943e-09 -4.08849e-30)
(6.10933e-10 1.17851e-09 -1.52963e-27)
(2.75055e-10 5.10492e-10 0)
(5.24385e-10 1.44896e-09 0)
(5.10208e-10 9.75644e-10 0)
(-6.79557e-12 -2.51603e-10 0)
(2.57223e-10 -5.05693e-10 1.39783e-27)
(1.23992e-09 1.52923e-09 0)
(4.33533e-10 9.86999e-10 9.47052e-28)
(-3.65388e-12 6.34342e-12 -1.48074e-28)
(7.48625e-10 -1.51146e-09 0)
(5.0189e-10 1.36326e-09 0)
(8.55138e-10 -1.60925e-09 0)
(2.47341e-10 3.60435e-10 -1.04721e-28)
(2.86564e-10 -3.07376e-10 2.02375e-27)
(2.18071e-10 -4.41283e-10 1.01222e-27)
(7.84864e-10 1.54361e-09 -5.02609e-29)
(-2.05194e-11 4.03564e-11 -8.5249e-29)
(9.35075e-10 6.16741e-10 -1.41566e-27)
(-1.09904e-11 -1.53153e-11 1.06795e-28)
(2.37478e-10 2.55492e-10 6.62217e-28)
(8.86596e-10 -1.6331e-09 0)
(7.58418e-10 -1.46594e-09 0)
(6.8105e-10 -1.271e-09 0)
(1.43149e-10 2.66081e-10 0)
(7.57289e-10 -1.37916e-09 2.73364e-29)
(1.74787e-12 -9.95325e-11 0)
(5.26814e-10 1.28803e-09 -5.24814e-28)
(-7.49728e-12 -1.69309e-10 0)
(6.73051e-10 1.29026e-09 -1.40363e-29)
(-3.46796e-12 -5.60102e-12 0)
(-8.94109e-11 8.02267e-11 0)
(7.05435e-10 -1.20839e-09 1.70484e-27)
(3.1748e-10 -5.78188e-10 0)
(3.68998e-10 6.43734e-10 0)
(2.14584e-10 4.27442e-10 -1.83986e-29)
(5.66755e-10 1.06766e-09 0)
(-5.10312e-11 9.40097e-12 0)
(-6.56575e-11 9.92672e-13 -3.28346e-29)
(1.28452e-09 9.08547e-10 -1.01346e-28)
(4.06872e-10 -7.0368e-10 -1.60818e-27)
(1.16982e-10 -9.27896e-11 0)
(3.14569e-10 5.78285e-10 1.48342e-29)
(7.94951e-10 1.05514e-09 2.14581e-27)
(3.81383e-10 1.0457e-09 0)
(-5.35822e-11 -1.08938e-11 7.07823e-29)
(8.08093e-10 1.37064e-09 0)
(-1.33294e-12 4.21644e-13 7.16153e-29)
(4.29209e-10 -5.30472e-10 1.22254e-28)
(7.49505e-10 1.53494e-09 1.60023e-27)
(8.14909e-10 1.5821e-09 0)
(3.97118e-11 -9.24816e-11 0)
(8.11224e-10 -1.5795e-09 0)
(6.38612e-10 -1.17613e-09 1.97917e-27)
(6.93156e-10 -9.24374e-10 -3.05009e-28)
(6.01877e-10 1.12816e-09 1.37685e-29)
(4.67096e-10 6.81157e-10 2.04572e-27)
(-1.23028e-10 2.25645e-11 -1.79855e-29)
(-7.08776e-12 -1.93372e-11 -2.33308e-28)
(-7.22941e-12 2.01284e-11 -1.84891e-28)
(6.31429e-10 1.16685e-09 0)
(6.0601e-10 -1.12982e-09 0)
(-1.33232e-12 -4.46629e-13 0)
(-5.773e-11 -2.4564e-11 -4.11773e-29)
(3.00563e-10 -4.13717e-10 2.93428e-27)
(-1.04012e-10 4.53229e-11 2.55963e-29)
(-8.55494e-11 4.46617e-12 7.76368e-30)
(6.92555e-10 -1.30198e-09 -4.10347e-27)
(7.49027e-10 1.38162e-09 0)
(6.21423e-10 8.10097e-10 3.96548e-29)
(8.23387e-10 -1.61974e-09 0)
(3.82767e-10 4.45814e-10 -5.09982e-28)
(3.3367e-10 7.51361e-10 -4.34062e-28)
(8.27876e-10 1.62095e-09 0)
(6.77883e-10 1.41046e-09 0)
(-9.67473e-11 -1.7264e-11 -3.08604e-29)
(5.71046e-10 1.13998e-09 0)
(-5.13481e-11 -1.56878e-10 -1.17742e-28)
(7.10224e-10 1.34685e-09 0)
(7.12428e-10 -1.3483e-09 -7.67988e-30)
(8.04414e-10 1.59572e-09 1.81202e-27)
(1.73548e-10 3.66278e-10 0)
(8.00215e-10 -1.59007e-09 2.15954e-27)
(6.40751e-10 1.22798e-09 1.68025e-27)
(4.07801e-10 -8.62196e-10 -2.00864e-27)
(3.52568e-10 -6.54028e-10 -1.95018e-27)
(3.32173e-10 6.095e-10 0)
(4.04543e-10 8.46826e-10 1.07258e-29)
(-1.46435e-10 -9.0175e-12 5.83329e-29)
(-2.87958e-12 -4.75545e-12 0)
(-2.91802e-12 5.39463e-12 1.12991e-28)
(1.47879e-11 -8.11057e-11 1.03183e-27)
(2.00387e-10 3.01433e-10 0)
(1.05214e-10 -1.20636e-10 2.51146e-27)
(1.14892e-10 2.26328e-10 1.46921e-29)
(4.50847e-10 -1.24174e-09 0)
(4.52385e-10 1.24258e-09 0)
(2.37613e-10 -3.89301e-10 -9.26791e-28)
(1.76434e-10 -3.25927e-10 -1.64723e-27)
(1.76977e-10 3.23724e-10 -1.46012e-27)
(-2.58474e-11 -1.62134e-11 -8.19737e-29)
(3.34653e-10 -7.57462e-10 0)
(1.56012e-10 2.89574e-10 -1.44916e-27)
(1.62287e-10 -2.74417e-10 -1.81788e-27)
(-1.37633e-10 3.69773e-11 -7.36956e-30)
(2.94117e-10 5.44261e-10 -2.87689e-29)
(-4.57886e-12 1.55132e-11 2.80022e-28)
(1.3066e-10 -2.68264e-10 -1.41805e-27)
(1.32999e-10 2.5159e-10 0)
(1.14588e-10 8.59486e-11 0)
(1.94925e-10 3.22026e-10 0)
(-1.04633e-10 1.7432e-10 3.08132e-29)
(-1.1728e-10 -1.78236e-11 0)
(6.47289e-10 1.48498e-09 1.49918e-29)
(2.89626e-10 -1.98583e-10 1.5572e-27)
(1.16318e-10 -3.10534e-10 0)
(1.25508e-11 8.18251e-11 0)
(5.19564e-10 -1.44808e-09 -3.38587e-28)
(1.04357e-11 -1.59524e-10 -1.34505e-27)
(8.82064e-10 1.63855e-09 -8.58744e-28)
(1.88536e-10 -3.46381e-10 -1.35895e-27)
(1.11666e-10 -8.06488e-11 -3.26973e-27)
(1.74163e-10 -3.6976e-10 5.47056e-28)
(1.6628e-10 3.05223e-10 -1.18828e-29)
(-5.22628e-12 -1.5499e-11 4.12997e-28)
(-1.20861e-11 -4.27602e-11 -5.63872e-28)
(8.30905e-10 9.56471e-10 -3.15498e-27)
(5.13902e-10 -1.10428e-09 8.28504e-28)
(2.46535e-10 -6.82557e-10 0)
(6.72327e-11 -1.57246e-10 -4.4164e-28)
(4.12235e-11 -2.11538e-11 -2.96228e-29)
(2.8893e-11 -1.42227e-10 0)
(2.93072e-11 1.42576e-10 0)
(5.89662e-10 1.42099e-09 0)
(3.44395e-10 -9.00913e-10 0)
(-1.51538e-10 5.59124e-13 -3.31823e-29)
(-8.03329e-11 -3.58153e-11 -4.52391e-29)
(-1.42998e-10 8.03831e-11 7.76338e-29)
(-7.97986e-11 1.64294e-10 2.70067e-30)
(6.75333e-11 1.56521e-10 -1.92193e-32)
(3.5e-10 6.38379e-10 0)
(-1.06831e-10 1.84464e-10 1.33074e-28)
(3.32195e-10 -6.1249e-10 1.62921e-29)
(-1.30296e-10 1.21812e-10 -3.10482e-29)
(-1.42814e-10 -6.93488e-11 0)
(-1.19897e-10 -5.59308e-11 3.74804e-29)
(-1.30293e-10 1.04542e-10 5.03528e-29)
(2.48785e-10 4.75586e-10 0)
(9.44345e-11 -2.0051e-10 5.12582e-30)
(9.45477e-11 1.97633e-10 -6.76199e-28)
(-2.09309e-12 7.22515e-11 1.18048e-28)
(-1.45493e-11 1.45198e-10 3.43557e-29)
(4.3441e-10 -1.22409e-09 1.66594e-28)
(6.66089e-10 1.46448e-09 0)
(-9.77287e-11 1.06107e-10 -1.30428e-29)
(1.89124e-10 3.3645e-10 -1.2764e-27)
(-7.87213e-12 -4.73967e-11 9.89798e-29)
(-1.43149e-11 -7.31137e-11 -1.44954e-28)
(1.67044e-10 -3.09462e-10 0)
(5.19288e-10 -1.47092e-09 6.33273e-28)
(-1.67682e-11 -1.52218e-10 -1.73391e-28)
(-1.76923e-11 -1.14422e-10 -3.55648e-29)
(-9.80376e-11 2.06109e-10 -1.35591e-28)
(4.3638e-10 1.22118e-09 0)
(-9.80643e-12 -8.07397e-11 1.14829e-29)
(-5.51114e-12 -8.8773e-11 1.39876e-28)
(-7.1646e-12 -3.19393e-11 2.14986e-28)
(-1.10249e-11 8.47869e-11 -1.37382e-28)
(4.97571e-10 -1.36597e-09 -2.41775e-28)
(1.21547e-10 -1.75162e-10 0)
(-7.92562e-11 5.06118e-11 -2.80264e-29)
(-1.19161e-10 3.2845e-11 -6.66693e-29)
(4.33269e-10 -9.95541e-10 0)
(1.10526e-10 -9.73183e-11 0)
(4.55557e-11 -1.79523e-11 -6.65116e-29)
(3.45017e-10 8.96772e-10 -3.1765e-33)
(-5.38083e-11 1.50854e-10 -2.75909e-28)
(-1.3176e-10 -1.30573e-10 -3.43257e-29)
(6.10973e-10 1.36031e-09 0)
(1.16804e-10 3.09763e-10 2.41181e-32)
(2.47131e-10 6.81348e-10 0)
(-7.75206e-11 2.09072e-10 3.24576e-28)
(5.08994e-10 1.07298e-09 0)
(-1.29905e-10 -6.53531e-11 -1.50103e-29)
(-1.26971e-10 9.25631e-11 1.48598e-29)
(2.67019e-11 2.30454e-10 1.36051e-28)
(-8.70191e-11 2.93041e-11 4.57651e-30)
(-9.88509e-11 -1.50651e-10 1.38307e-29)
(8.54971e-10 1.61255e-09 0)
(5.38444e-10 1.01216e-09 0)
(7.88334e-10 -1.53153e-09 1.99647e-27)
(-5.73783e-11 -1.4267e-10 1.15362e-28)
(-5.03004e-11 2.11834e-11 5.55467e-30)
(9.33691e-10 1.6142e-09 0)
(-3.76586e-11 -3.5425e-11 -2.14068e-30)
(-9.71524e-11 -2.0877e-10 -8.22598e-31)
(4.6466e-10 9.20394e-10 0)
(8.89153e-12 1.62865e-10 6.4485e-29)
(-9.46001e-11 -8.14081e-11 4.29232e-30)
(-1.0889e-10 -1.87922e-10 1.435e-29)
(2.28522e-11 -2.66004e-10 0)
(-7.6244e-11 1.27706e-10 0)
(-1.25786e-10 -1.1536e-10 0)
(-1.36002e-10 -6.37707e-11 -5.81882e-29)
(2.33497e-10 -7.22275e-11 -2.3107e-28)
(4.5556e-11 -2.25618e-10 2.90403e-29)
(7.7163e-11 8.04714e-11 -5.84831e-29)
(9.6716e-10 -1.24236e-09 0)
(1.31609e-09 -6.09308e-10 -4.84082e-28)
(1.1363e-10 2.56177e-10 -5.03198e-28)
(1.11393e-10 -2.45825e-10 6.23964e-28)
(1.26372e-10 2.73005e-10 -6.42174e-28)
(1.29514e-10 -2.76175e-10 -1.05427e-27)
(1.37826e-10 -2.76268e-10 0)
(1.40725e-10 2.79476e-10 4.12921e-28)
(1.98799e-10 -1.67267e-10 0)
(1.53286e-10 -3.38985e-10 0)
(1.52855e-10 3.50931e-10 0)
(1.89954e-10 7.73257e-11 -6.53381e-29)
(1.74058e-10 3.65944e-10 -6.45604e-28)
(2.10832e-10 -3.95e-10 -1.67689e-27)
(2.07187e-10 3.89085e-10 -3.74142e-28)
(8.06757e-10 1.1869e-11 1.09371e-29)
(2.32634e-10 5.43799e-11 0)
(4.68739e-10 2.23052e-12 3.08616e-28)
(1.02139e-10 -2.56453e-10 0)
(2.98106e-10 4.99941e-12 1.95718e-28)
(1.32986e-09 -2.67312e-11 0)
(5.95972e-10 -3.83715e-12 -1.05325e-29)
(1.20999e-09 -9.98358e-10 2.68888e-27)
(-7.58405e-11 -6.33557e-11 2.91329e-29)
(3.71152e-10 3.8407e-10 0)
(6.55552e-10 -1.37559e-09 1.65029e-27)
(3.52002e-10 2.48157e-10 -6.04377e-28)
(6.99844e-10 8.14688e-10 3.63593e-28)
(1.26169e-09 -7.80725e-10 -7.332e-28)
(1.22924e-09 1.50955e-09 -2.55035e-28)
(3.65513e-10 -2.27322e-10 9.59711e-28)
(-6.58854e-11 3.44517e-11 -1.74405e-29)
(2.36111e-10 5.22098e-10 0)
(2.36046e-10 -5.13362e-10 -8.3684e-28)
(1.04484e-09 3.00327e-10 -6.30258e-28)
(-5.13624e-12 6.75525e-13 -1.69687e-29)
(2.55294e-10 -5.55847e-10 4.65952e-28)
(2.58359e-10 5.56266e-10 0)
(1.07659e-09 -1.25219e-10 -6.40279e-29)
(8.81622e-10 -6.50732e-11 -4.30139e-28)
(1.1993e-09 3.94592e-12 -1.15183e-28)
(4.63902e-10 -7.14747e-12 9.75484e-29)
(3.20625e-10 6.94835e-10 0)
(3.51114e-10 7.00885e-10 -2.70088e-28)
(2.11945e-10 -4.88769e-10 0)
(-2.63147e-12 -1.18651e-12 0)
(1.34865e-09 -3.47718e-10 0)
(1.33296e-09 -2.78803e-10 -5.72138e-28)
(5.21793e-10 -1.29284e-09 0)
(1.25707e-09 1.36186e-09 1.339e-28)
(1.08349e-09 -1.46091e-10 2.96077e-28)
(7.61707e-10 -6.09735e-10 0)
(-1.57772e-11 -2.55489e-10 1.84262e-28)
(1.29442e-09 -1.13701e-10 -5.76979e-29)
(-5.34262e-12 1.5522e-10 0)
(1.14582e-09 1.34416e-09 -3.89883e-28)
(4.41391e-12 1.56689e-10 0)
(8.79991e-10 5.25741e-11 -1.04872e-28)
(4.77074e-10 3.49587e-10 0)
(-3.71347e-12 2.0975e-12 5.97808e-30)
(1.35897e-09 1.91879e-10 4.73243e-29)
(1.13499e-09 -9.64049e-10 -5.92967e-28)
(1.27039e-09 3.91763e-10 -2.51499e-28)
(1.07181e-09 -2.98235e-10 8.60939e-29)
(1.1561e-09 -6.60249e-10 0)
(1.33955e-09 1.633e-10 -4.75709e-29)
(1.09374e-09 9.94572e-10 4.73004e-28)
(2.28742e-10 -1.33821e-10 0)
(4.67249e-10 1.21013e-09 -4.2459e-28)
(1.31417e-09 6.76669e-10 2.54702e-28)
(1.21583e-09 -4.24505e-10 7.40045e-28)
(5.82587e-10 -1.21746e-09 -9.11576e-28)
(5.78291e-10 1.22399e-09 -8.82506e-28)
(7.66075e-10 -1.54364e-09 1.50049e-27)
(-6.13107e-11 7.00448e-11 0)
(6.95464e-10 1.44721e-09 1.76599e-27)
(-3.15797e-13 9.70926e-11 0)
(7.51763e-10 -1.49826e-09 -8.35188e-29)
(7.09769e-10 1.44366e-09 8.26476e-28)
(6.39953e-10 1.42535e-09 0)
(5.65254e-10 -1.42767e-09 3.39671e-28)
(2.27153e-10 -5.61573e-10 0)
(3.98536e-10 6.86493e-11 0)
(1.02287e-10 -2.9018e-10 -6.70354e-29)
(5.72217e-10 -1.48285e-09 -4.1919e-28)
(1.06706e-09 1.57719e-09 5.47296e-28)
(5.13448e-10 4.02536e-12 -3.09084e-28)
(6.50474e-10 -7.99138e-10 -1.4866e-28)
(-3.12399e-12 -2.05199e-12 0)
(1.12734e-10 2.75286e-10 0)
(6.58881e-10 -1.47741e-09 9.77222e-28)
(5.53031e-10 -1.16062e-09 -1.79806e-27)
(1.12907e-09 7.86431e-10 -4.42913e-28)
(3.79675e-10 -1.04651e-09 -4.04991e-30)
(1.29601e-09 4.16364e-10 6.37805e-28)
(1.28147e-09 6.53497e-10 -1.79922e-28)
(-8.28867e-11 -1.11947e-10 0)
(-2.13408e-11 -2.93624e-11 -3.19966e-29)
(-5.45548e-11 -2.38882e-10 -4.96198e-29)
(9.93973e-10 1.63006e-09 1.3892e-27)
(9.09551e-10 1.03428e-10 3.08967e-28)
(-3.09218e-11 -2.27055e-10 1.03889e-28)
(8.89896e-10 1.28019e-09 6.33836e-28)
(7.18994e-10 1.12852e-09 -1.19697e-27)
(-1.05402e-11 4.71052e-11 0)
(7.60096e-10 1.51058e-09 0)
(-1.97434e-13 7.57627e-13 0)
(6.50415e-10 1.39492e-09 -9.14699e-28)
(1.44523e-13 -5.76345e-13 3.34012e-29)
(7.76301e-10 1.56248e-09 -1.69449e-27)
(-3.88996e-11 1.82238e-10 0)
(2.24927e-10 1.69248e-10 9.05315e-28)
(1.22851e-09 -6.10089e-10 3.06183e-28)
(2.06055e-10 1.34991e-10 0)
(1.24482e-09 1.24133e-09 0)
(4.84564e-10 -5.77598e-10 -2.04249e-27)
(3.91654e-10 4.76351e-10 -2.03649e-27)
(9.75022e-10 4.29569e-10 -1.21288e-28)
(1.9877e-10 -5.42032e-10 6.44176e-28)
(4.90255e-10 -2.33771e-11 3.3456e-28)
(8.44534e-10 -1.41097e-09 9.21963e-28)
(2.13917e-10 5.63273e-10 5.14121e-28)
(3.99442e-10 -4.70185e-10 0)
(1.15203e-09 3.50109e-10 -4.42665e-28)
(6.07501e-10 -1.37612e-09 5.24687e-29)
(-3.91981e-11 -2.69498e-10 3.02164e-29)
(-4.79629e-12 2.67236e-11 8.41111e-29)
(1.80143e-10 2.54472e-10 -8.24793e-28)
(-1.07994e-11 1.66968e-11 1.37796e-29)
(1.00289e-10 -2.08808e-10 -5.66079e-28)
(6.54369e-10 -1.39469e-09 -1.11402e-28)
(6.26568e-10 -1.47147e-09 -1.08775e-27)
(1.4973e-10 -2.09265e-10 -1.06413e-27)
(2.55133e-10 -3.57422e-10 9.63821e-29)
(8.08417e-10 -1.02125e-09 -1.41569e-28)
(-1.95122e-11 2.67467e-10 0)
(7.05534e-10 -7.56563e-11 8.19269e-28)
(1.30716e-09 1.4552e-09 0)
(-1.27317e-11 -1.95693e-10 -1.68655e-28)
(-2.31117e-11 3.30326e-11 8.06383e-29)
(4.51954e-10 -1.19684e-09 5.17978e-28)
(3.35803e-11 -2.52782e-10 2.24728e-28)
(1.85231e-14 -4.91728e-13 -7.8341e-29)
(-1.03922e-11 6.0256e-12 -2.25913e-29)
(8.6e-10 1.46111e-09 -1.31171e-27)
(5.37642e-14 4.51933e-13 0)
(1.16334e-09 1.58297e-09 -1.62514e-28)
(5.81692e-10 -1.42676e-09 -5.22569e-29)
(-1.26865e-11 -1.19308e-11 -1.18965e-28)
(-5.48561e-11 4.79811e-11 0)
(2.24827e-10 5.16554e-10 1.37479e-27)
(-4.89645e-11 1.64988e-10 -2.66153e-30)
(7.0021e-10 1.48869e-09 1.32312e-27)
(4.49649e-13 -8.75683e-14 5.0243e-29)
(4.45034e-13 1.62231e-13 1.87883e-29)
(7.52033e-10 -1.52218e-09 -9.18412e-28)
(1.11151e-09 1.5625e-10 2.9914e-28)
(3.83336e-10 -9.8106e-10 -1.12252e-27)
(-1.00086e-10 -1.38797e-10 0)
(1.30093e-09 1.28134e-09 -2.25972e-28)
(-1.37864e-11 1.39686e-11 -2.40325e-29)
(4.47487e-10 9.68149e-10 -6.36066e-28)
(-5.36748e-11 -5.82824e-11 -3.31048e-29)
(4.08081e-10 1.01422e-09 -5.3089e-28)
(-7.73183e-12 7.40539e-12 1.75444e-29)
(-5.7377e-11 -2.19651e-10 -1.01843e-29)
(8.94208e-10 -1.00063e-09 0)
(-3.43484e-11 -1.71312e-10 4.02922e-29)
(4.77093e-10 1.09534e-09 3.39406e-28)
(5.74217e-10 1.21675e-09 -1.99621e-27)
(-2.077e-11 1.1513e-10 0)
(7.28792e-10 -1.4598e-09 8.69615e-28)
(4.84777e-10 -1.08757e-09 1.15376e-27)
(1.04103e-10 1.70645e-10 9.20172e-28)
(-6.26973e-12 -5.85132e-12 -6.41531e-29)
(1.02704e-10 2.10241e-10 -1.33869e-28)
(1.01446e-09 -3.51815e-10 -4.33606e-28)
(3.09272e-10 -9.25317e-11 3.27579e-28)
(3.99691e-10 -9.21777e-10 -9.18373e-29)
(6.22761e-10 -1.32585e-09 8.47943e-28)
(-8.32427e-11 -1.69501e-10 0)
(-2.72568e-11 -2.66792e-10 -3.34311e-29)
(-1.76783e-11 -3.76953e-11 -1.38067e-29)
(8.23027e-10 -1.25801e-09 -5.6059e-28)
(2.32256e-10 2.13447e-11 -9.64161e-28)
(4.61746e-10 -7.26113e-10 -3.1145e-28)
(7.80252e-10 -1.55467e-09 -9.49567e-28)
(-8.69558e-12 3.9069e-11 -3.15827e-28)
(-7.02034e-11 -2.51642e-10 -4.54672e-29)
(9.52104e-10 -6.63248e-10 8.32261e-28)
(3.8045e-10 5.9113e-10 0)
(2.90353e-11 2.10014e-10 -5.93776e-28)
(5.38813e-10 1.15135e-09 7.40068e-28)
(8.13224e-10 1.0324e-09 9.01188e-28)
(-4.37838e-13 -9.00993e-15 -5.63572e-29)
(-5.68451e-13 1.4843e-13 -6.51673e-29)
(7.6062e-10 -4.53401e-10 0)
(3.86448e-10 -6.07589e-10 1.62113e-27)
(4.81778e-10 -1.05615e-09 9.50669e-28)
(5.08442e-10 -3.9593e-10 0)
(-5.4626e-11 2.57713e-10 -1.31965e-28)
(2.86746e-11 2.5771e-10 9.01051e-29)
(1.0687e-09 1.25855e-09 -6.74054e-28)
(9.69554e-10 -1.2936e-09 4.21904e-28)
(4.69414e-10 -1.11767e-09 3.75564e-29)
(1.18501e-09 -9.47705e-10 5.4368e-28)
(7.40945e-10 1.4521e-09 -1.93105e-27)
(6.04239e-10 -1.38382e-09 0)
(7.93103e-10 1.26835e-09 0)
(1.22471e-09 -7.72995e-10 0)
(7.58413e-10 1.38189e-10 -2.34239e-28)
(9.36202e-10 -1.62368e-09 0)
(6.4109e-11 -1.69068e-10 1.82805e-28)
(-8.9078e-11 -2.00305e-10 2.22674e-29)
(-3.6355e-11 3.65126e-11 1.0575e-29)
(-2.82389e-11 2.29782e-11 3.10804e-29)
(4.47378e-10 7.3406e-10 5.67567e-28)
(4.16093e-10 -9.05072e-10 1.14882e-28)
(-1.91664e-12 2.60792e-12 7.59569e-30)
(-1.62926e-12 -1.94692e-12 1.77756e-28)
(1.66489e-10 1.68097e-10 -3.01623e-28)
(-8.75963e-12 -4.97952e-12 -8.68405e-30)
(7.70753e-10 2.82117e-10 1.17753e-28)
(1.63339e-13 3.68567e-13 -8.30595e-30)
(4.06194e-13 -1.30475e-13 -8.54855e-29)
(6.75227e-10 1.41757e-09 0)
(1.12733e-09 1.32074e-09 0)
(1.06461e-09 -6.87295e-10 -8.40032e-28)
(5.79619e-10 2.46691e-10 0)
(1.29273e-09 1.405e-09 2.43736e-28)
(9.53281e-11 2.29652e-10 0)
(1.14285e-09 1.47166e-09 7.05898e-29)
(9.86058e-10 1.2001e-09 4.57197e-28)
)
;

boundaryField
{
    front
    {
        type            empty;
    }
    back
    {
        type            empty;
    }
    bottom
    {
        type            zeroGradient;
    }
    left
    {
        type            noSlip;
    }
    top
    {
        type            uniformFixedValue;
        uniformValue    
        {
            type            scale;
            scale           
            {
                type            squarePulse;
                start           0.3;
                duration        0.3;
            }
            xScale          
            {
                type            constant;
                value           1;
            }
            value           
            {
                type            constant;
                value           (0 -0.7 0);
            }
        }
        value           uniform (0 -0 0);
    }
    right
    {
        type            noSlip;
    }
    inner_arc
    {
        type            noSlip;
    }
}


// ************************************************************************* //
