/*--------------------------------*- C++ -*----------------------------------*\
  =========                 |
  \\      /  F ield         | OpenFOAM: The Open Source CFD Toolbox
   \\    /   O peration     | Website:  https://openfoam.org
    \\  /    A nd           | Version:  9
     \\/     M anipulation  |
\*---------------------------------------------------------------------------*/
FoamFile
{
    format      ascii;
    class       surfaceScalarField;
    location    "2.17";
    object      phi;
}
// * * * * * * * * * * * * * * * * * * * * * * * * * * * * * * * * * * * * * //

dimensions      [0 3 -1 0 0 0 0];

internalField   nonuniform List<scalar> 
2420
(
1.50693e-06
-1.48254e-06
-2.43932e-08
-1.10578e-06
1.10578e-06
-1.93629e-06
-8.67907e-07
2.80419e-06
-8.85368e-07
8.85368e-07
-2.232e-06
1.068e-06
1.16399e-06
1.64455e-06
-1.59732e-06
-4.72269e-08
-2.3465e-06
4.10216e-07
-1.14489e-06
1.64606e-07
9.80283e-07
1.73293e-06
-1.92045e-06
1.87515e-07
-1.41712e-06
-8.14874e-07
-1.55209e-06
6.42808e-07
9.09279e-07
-1.1137e-06
-4.38385e-07
-1.14489e-06
-5.88409e-07
-4.86351e-07
1.07476e-06
-2.55586e-07
-1.09248e-06
1.34807e-06
-8.97416e-07
1.44372e-06
-5.463e-07
-1.36378e-06
4.02539e-07
9.61236e-07
-2.14878e-06
2.57373e-06
-4.2495e-07
-1.49172e-06
1.56071e-06
-6.89902e-08
-7.77943e-07
1.89534e-07
4.87268e-08
1.2454e-06
-1.29413e-06
6.47843e-08
-1.33394e-06
1.38123e-06
-4.72913e-08
-1.53874e-06
2.04802e-07
4.88715e-07
1.01822e-06
-6.31437e-07
-7.32338e-07
2.19012e-07
-1.11643e-06
-6.52889e-07
-1.15593e-06
1.80882e-06
-1.53774e-06
8.84851e-07
1.20772e-06
-5.00173e-07
-7.07549e-07
2.23958e-06
5.30263e-09
-2.24488e-06
-1.78977e-06
2.36274e-06
-5.72969e-07
-2.59182e-06
2.61759e-06
-2.57651e-08
2.85524e-06
-1.73284e-06
-1.1224e-06
5.78479e-07
-2.72726e-06
1.56144e-06
1.29381e-06
5.19902e-07
1.12465e-06
-6.72162e-07
-4.33619e-07
-1.74553e-07
-2.41727e-06
2.65855e-07
8.39927e-07
8.75916e-07
-8.27189e-07
1.26521e-06
5.46473e-07
-1.81169e-06
2.04491e-06
-2.21947e-06
-1.3766e-06
1.34151e-06
3.50869e-08
-7.48118e-07
1.12374e-06
-3.75625e-07
-1.10068e-07
-7.753e-07
4.11428e-07
4.73939e-07
-9.65756e-07
2.17638e-07
-1.42592e-06
1.82655e-06
-4.0063e-07
-2.3894e-07
2.28385e-06
-1.31255e-06
-2.84778e-07
-2.65768e-06
-7.92953e-07
5.37367e-07
-1.18746e-06
-7.32986e-07
2.40107e-06
-1.06931e-06
-1.33175e-06
-1.00974e-07
-1.47443e-06
1.5754e-06
-3.74887e-08
-4.18266e-07
4.55755e-07
1.10724e-06
-4.64433e-07
-1.10706e-06
1.14703e-06
-3.99664e-08
1.12165e-06
-1.22262e-06
9.36986e-08
2.14588e-06
1.54588e-06
-1.48575e-06
-6.01249e-08
-1.15276e-06
-3.29783e-07
-1.18442e-06
1.34903e-06
-1.33655e-06
1.03996e-06
2.96591e-07
2.18815e-06
-2.18284e-06
9.49146e-07
-1.08558e-06
1.36438e-07
-9.9109e-07
1.1171e-06
-1.26011e-07
-1.71432e-06
2.2928e-06
-2.73532e-07
1.16151e-07
-1.58356e-07
1.30292e-06
-1.46136e-06
1.58439e-07
5.23503e-08
-1.14483e-06
-1.66442e-06
-2.85253e-07
1.94967e-06
9.36375e-07
-8.51092e-08
-8.51266e-07
-1.46105e-06
-7.66875e-08
7.25684e-07
-2.44001e-06
8.38427e-07
2.98418e-07
9.09304e-07
-6.52758e-07
-6.83788e-07
9.1173e-07
2.46451e-08
1.40412e-06
9.96941e-07
-4.92039e-07
-8.84556e-07
4.88438e-07
1.16294e-06
-1.65138e-06
-1.12343e-06
2.00566e-06
-8.82224e-07
-2.16499e-06
5.00569e-07
1.32721e-06
-2.42926e-08
1.59715e-06
-6.43046e-07
-9.54107e-07
1.49315e-06
6.74512e-07
-2.16767e-06
1.81369e-06
-3.2054e-07
1.55032e-06
1.25387e-06
-4.41227e-07
-1.05049e-06
1.72477e-07
-1.5984e-06
-3.26204e-08
-3.1689e-07
3.4951e-07
4.01057e-07
1.15965e-06
9.5489e-07
-5.74394e-09
-1.15319e-06
4.61252e-08
1.59759e-06
7.65147e-07
-2.78053e-06
1.04962e-06
1.7309e-06
-9.96983e-08
1.65002e-06
7.55676e-07
-9.25472e-07
1.69796e-07
1.08317e-06
7.43375e-07
9.47841e-07
-1.92165e-07
-2.60114e-06
1.2442e-06
1.35694e-06
4.50129e-07
1.09575e-06
-1.6821e-06
6.96353e-07
9.85742e-07
1.46328e-07
-6.46501e-07
-1.14745e-06
-1.63308e-06
-2.27771e-06
8.03286e-07
-8.36689e-08
-1.97406e-06
2.05773e-06
2.00744e-07
-1.31445e-06
-1.80812e-06
-4.6959e-07
1.83446e-06
-1.34602e-06
1.81543e-06
-7.35882e-07
-1.07955e-06
6.90261e-07
-1.1059e-06
-5.76196e-07
1.03696e-06
5.01307e-07
1.09585e-06
-1.20354e-06
-1.3976e-06
5.38145e-09
-1.8135e-06
-8.24874e-08
2.50233e-06
-2.41984e-06
2.91409e-07
2.26468e-06
-2.55609e-06
-1.13848e-07
-1.34279e-06
1.45664e-06
7.97215e-07
1.57676e-07
-1.58121e-06
5.99281e-07
9.8193e-07
-1.92755e-06
1.68861e-06
7.18454e-07
-7.51075e-07
8.50064e-07
5.93652e-07
9.90371e-07
-2.22456e-06
1.23418e-06
1.6425e-06
-4.36008e-07
-1.20649e-06
-2.04638e-06
1.96271e-06
-1.67175e-06
4.87327e-07
-8.17138e-07
-7.64073e-07
-3.60444e-07
3.60444e-07
-1.34385e-06
2.99749e-07
1.0441e-06
-8.79688e-07
-8.66609e-07
1.7463e-06
-7.92953e-07
-4.18266e-07
-7.4758e-07
-3.38005e-07
1.12165e-06
6.74767e-07
-4.55755e-07
-6.74767e-07
6.08859e-07
6.59083e-08
-1.83695e-07
-1.38661e-06
1.5703e-06
5.84694e-08
-9.61236e-07
9.02767e-07
1.38661e-06
-1.4691e-06
4.88354e-07
-1.5703e-06
1.08195e-06
-1.21724e-06
1.22262e-06
-1.35294e-07
1.21724e-06
-1.08195e-06
1.36924e-06
-1.23292e-06
-1.36326e-07
-1.36924e-06
1.46294e-06
1.23292e-06
-9.02767e-07
-3.30148e-07
1.4691e-06
-1.75435e-06
1.75435e-06
-1.46294e-06
9.63838e-07
1.04182e-06
-1.42292e-07
-1.78526e-06
-1.58983e-07
1.19894e-06
1.63099e-06
-2.70086e-06
1.06987e-06
7.09534e-07
2.95083e-07
2.11934e-06
-6.18201e-07
-1.01844e-06
1.63664e-06
-1.72198e-06
5.34518e-07
-1.70273e-06
-9.98133e-07
-1.88642e-06
-8.21024e-08
-1.07108e-06
-1.88892e-06
9.40518e-07
-1.6764e-06
-1.28258e-07
-1.27999e-06
2.00568e-06
-1.20425e-06
1.60679e-06
-1.36876e-06
-1.03841e-06
2.40717e-06
1.51232e-06
-1.64762e-06
-1.76168e-06
6.63613e-07
1.09806e-06
-1.06532e-06
3.0971e-07
1.33279e-06
4.26461e-07
-1.70645e-06
4.59341e-07
1.692e-06
-2.15134e-06
-6.72132e-07
-1.05811e-07
2.24991e-06
-2.5723e-06
1.20354e-06
6.11629e-08
-1.37371e-06
-1.12032e-06
1.00647e-06
-7.80757e-07
-2.46465e-07
1.02722e-06
-2.44726e-06
3.44881e-07
2.10238e-06
8.62627e-07
4.91032e-08
-1.98792e-06
-1.45432e-06
-1.47134e-06
2.92566e-06
-1.44525e-06
-1.12705e-06
8.22323e-07
3.0142e-07
-3.95188e-07
-1.09057e-06
2.85615e-06
-1.53025e-06
-1.32591e-06
-3.91826e-07
-2.26585e-06
-2.52832e-06
2.12261e-07
2.31606e-06
-2.14116e-07
1.40184e-06
-2.18344e-06
4.15802e-07
-1.05885e-06
-2.6902e-06
1.24494e-06
1.95107e-07
-9.09493e-07
7.14386e-07
-5.45884e-07
7.40991e-07
1.9645e-06
3.72927e-07
-2.33742e-06
-2.25276e-07
1.47067e-06
-2.55544e-06
1.94466e-06
6.10776e-07
-2.80439e-06
1.27415e-06
-1.35936e-06
2.34973e-06
-2.20302e-06
4.70172e-07
4.5346e-07
-2.35655e-06
1.90309e-06
2.00635e-06
-2.39817e-06
-1.07799e-06
1.5398e-06
4.99417e-08
-7.22074e-07
2.40282e-07
-9.87862e-07
-6.15908e-07
2.17735e-06
-1.56522e-06
9.47019e-07
2.03343e-06
3.27177e-07
-2.3606e-06
-1.13775e-06
-1.55244e-06
-1.0313e-07
3.30849e-08
1.86658e-06
7.51014e-07
-1.55525e-06
2.56498e-06
-1.00974e-06
-6.8886e-07
2.4537e-06
-2.56118e-06
1.07483e-07
1.02809e-08
2.44342e-06
1.64396e-06
-2.32956e-06
2.13425e-06
1.9531e-07
-2.24197e-06
-8.75818e-08
-2.02417e-06
1.85949e-06
1.64681e-07
-2.18169e-06
2.32718e-06
-1.45489e-07
-2.41003e-06
2.28336e-07
-1.00648e-06
-1.43352e-06
2.56006e-06
-6.15402e-07
-1.77353e-06
-2.5064e-07
-2.34892e-06
-1.17113e-06
-1.63326e-06
-2.40681e-06
2.41709e-06
-1.94757e-06
2.47348e-06
-5.25906e-07
1.36769e-06
-9.99831e-07
2.19074e-07
5.86071e-07
-2.53364e-06
2.35848e-08
3.3686e-07
-2.65269e-06
1.09745e-06
-9.32889e-07
9.08596e-07
-2.15356e-06
1.08748e-06
1.06608e-06
-1.11912e-06
-6.02863e-07
-9.07564e-08
1.42723e-06
1.11613e-06
2.25378e-07
1.52225e-06
-2.03431e-06
5.12062e-07
2.45981e-06
4.76933e-07
2.08313e-06
-3.23125e-07
7.70933e-07
2.07252e-06
-2.84345e-06
-1.70971e-06
-9.42979e-07
1.45106e-06
-1.0246e-06
2.30035e-06
-1.54933e-06
7.0275e-07
-1.88912e-06
1.18637e-06
2.06097e-06
-3.6897e-07
2.54356e-06
-1.00143e-07
-2.071e-06
1.95127e-06
-4.29024e-07
1.86323e-06
-1.20643e-06
-6.56794e-07
1.71986e-06
5.80483e-07
1.09615e-06
-1.23844e-06
1.94262e-06
-2.63148e-06
1.53747e-06
-5.04014e-07
-1.03345e-06
5.37367e-07
-2.42941e-06
1.42293e-06
-1.77508e-07
1.9624e-07
1.86473e-06
-2.01526e-06
5.81734e-07
-1.41403e-06
-1.01538e-06
-1.04354e-06
-1.11002e-06
9.34629e-07
-2.64434e-06
-2.68151e-06
1.37002e-06
1.3115e-06
2.32431e-06
-8.40937e-07
-1.48337e-06
1.27968e-06
1.48657e-06
-2.76624e-06
1.95232e-06
-1.33708e-06
-6.15243e-07
6.8876e-07
-2.10279e-06
-3.23727e-08
-7.6058e-07
-1.34015e-06
1.30778e-06
1.50152e-06
-2.5169e-06
1.5213e-06
-2.84721e-06
2.75544e-06
-1.82248e-06
-9.32964e-07
2.33064e-06
-1.30433e-06
2.77567e-06
8.14066e-08
4.97174e-07
1.42194e-06
-1.91912e-06
1.21578e-06
-2.25419e-06
-2.79648e-06
1.62535e-06
2.61604e-06
-3.8625e-07
-2.22979e-06
9.80283e-07
-2.26357e-07
3.3686e-07
2.5233e-06
-1.61735e-06
-9.05947e-07
-1.96901e-06
2.7652e-06
-7.96189e-07
-8.7527e-07
1.04775e-06
-8.7527e-07
-2.32923e-06
2.5371e-06
-2.07879e-07
2.30275e-06
2.40812e-07
-2.20896e-06
2.70661e-06
-4.97649e-07
-2.29862e-06
2.20786e-06
1.72793e-06
8.61669e-07
-2.5896e-06
2.6194e-06
-3.16649e-07
5.87973e-07
1.57419e-06
-2.16216e-06
1.42869e-06
-1.37022e-06
-1.33459e-06
2.03734e-06
7.83676e-07
-1.06855e-06
2.69011e-06
2.16077e-06
4.58621e-07
-1.96473e-06
2.73566e-06
-1.05111e-06
1.54829e-06
7.86426e-07
2.86816e-07
5.56247e-07
-7.29175e-07
7.753e-07
-7.29175e-07
7.45888e-07
-5.35376e-07
2.6079e-06
2.04322e-06
-1.4717e-06
-5.71522e-07
-1.85294e-06
2.32987e-06
-1.22186e-06
-4.00966e-07
4.00966e-07
2.14708e-06
6.0779e-08
2.57598e-06
-1.71431e-06
2.26148e-06
1.55614e-07
1.4792e-06
5.64023e-07
2.00243e-06
-2.51414e-06
2.414e-06
9.42714e-07
-2.76092e-06
-2.41871e-06
-1.93685e-08
2.43808e-06
-1.3265e-06
-2.27847e-06
3.64967e-08
-7.6058e-07
1.1839e-07
2.32036e-06
2.23801e-06
1.92907e-06
-6.43399e-08
8.71106e-07
-8.71106e-07
-1.64172e-06
2.01464e-06
4.87097e-08
-2.11364e-06
2.66989e-06
1.17976e-06
-2.04681e-06
8.67055e-07
-5.16089e-07
2.67686e-06
-2.53351e-06
2.58902e-06
-1.75023e-07
7.58603e-07
1.81078e-06
-2.56938e-06
1.97611e-06
-2.5813e-06
6.05194e-07
3.61071e-07
4.77703e-07
-6.88634e-07
1.86839e-06
1.41177e-06
-2.53301e-06
1.12124e-06
4.38405e-07
-4.38405e-07
1.72876e-06
-9.02667e-07
9.02667e-07
-2.7743e-06
2.1748e-06
-4.92145e-08
-2.12559e-06
-6.30596e-07
6.30596e-07
-2.72904e-06
5.16088e-07
-5.16088e-07
2.63924e-06
-2.27238e-06
-3.66865e-07
9.71397e-07
-9.71397e-07
-1.83099e-06
2.09162e-06
-6.66771e-07
-1.42485e-06
9.63603e-07
1.9872e-06
-1.27712e-07
-2.42603e-06
1.65907e-06
-1.49439e-06
2.42697e-06
-1.0152e-06
1.03202e-06
-1.68882e-06
-1.59414e-06
-9.38871e-07
-3.13554e-07
2.63391e-06
-8.3103e-07
2.12315e-06
2.74541e-06
-1.51482e-06
2.50229e-06
-2.78001e-07
-2.13052e-06
4.88805e-07
6.51234e-07
1.44039e-06
-1.30754e-06
-9.46651e-07
2.48974e-06
-5.16555e-08
2.6578e-06
-5.34652e-07
2.00554e-06
6.71329e-07
-1.80775e-06
-1.36183e-06
-6.42062e-07
2.00389e-06
1.38963e-06
-1.64977e-06
2.60139e-07
1.19703e-06
1.22995e-06
-2.04435e-06
7.07272e-07
6.24904e-07
1.53877e-06
-2.16367e-06
2.52322e-06
-4.40094e-07
-2.43459e-06
-1.61342e-06
-5.17104e-07
-6.72162e-07
1.47118e-06
-2.13795e-06
-1.092e-06
1.092e-06
-2.48985e-06
1.38109e-06
1.10876e-06
-2.60249e-06
1.00836e-06
2.09608e-06
2.17976e-06
3.4346e-07
-2.51892e-06
9.62125e-07
1.5568e-06
-1.00736e-06
-2.07966e-06
-3.30369e-07
-1.78323e-06
-8.19265e-07
7.00409e-07
1.95739e-06
6.11566e-07
-1.97339e-06
-1.29283e-06
1.22116e-06
-2.40129e-06
1.18013e-06
2.70594e-06
6.91671e-07
-2.54721e-06
1.85554e-06
-5.49967e-08
-1.50358e-06
1.55858e-06
3.93821e-07
2.31472e-06
2.3027e-06
-1.40655e-06
2.16393e-06
-7.57387e-07
-2.66247e-06
1.11578e-06
-2.32765e-06
1.21187e-06
2.64907e-06
9.41632e-07
3.91887e-07
-1.33352e-06
-1.13783e-06
-9.30228e-07
-1.25168e-06
2.18191e-06
4.325e-09
2.17048e-06
-1.86842e-06
-4.69002e-07
-9.6524e-07
9.6524e-07
-1.41244e-06
2.37457e-06
2.67745e-06
-1.19312e-06
-1.48432e-06
5.78259e-07
-2.19168e-06
1.83573e-06
8.70213e-07
-1.66348e-06
2.67184e-06
-2.34267e-06
-2.1933e-06
1.18794e-06
1.00536e-06
6.24381e-07
-8.80315e-07
-1.31298e-06
-1.5455e-06
-2.19986e-06
7.9331e-07
1.49759e-07
1.88098e-06
-2.03074e-06
1.52999e-06
7.04379e-07
-2.23437e-06
-1.47871e-06
2.59995e-06
-6.69862e-07
-1.31867e-06
-1.30713e-06
2.62579e-06
2.03114e-06
-7.13025e-07
-1.31811e-06
-2.70157e-06
1.03809e-06
1.28362e-06
2.33694e-06
-1.3091e-06
2.18476e-06
-8.75659e-07
1.35878e-06
-1.69565e-06
1.84541e-06
-1.30621e-06
1.91778e-06
-6.44378e-07
-8.65836e-07
2.61259e-06
-1.48797e-06
-1.12463e-06
1.13324e-06
1.05152e-06
2.04238e-06
-9.09136e-07
1.90594e-06
8.12588e-08
2.11703e-06
1.94978e-06
5.19268e-08
-2.00171e-06
9.64258e-07
1.07812e-06
1.91423e-06
-9.49969e-07
-7.61493e-07
-1.26385e-06
2.02534e-06
7.68247e-07
1.80976e-06
-2.57801e-06
1.3652e-06
-2.47268e-06
1.10749e-06
2.64744e-06
-7.07019e-07
-1.43093e-06
9.63747e-07
1.64885e-06
-1.56646e-06
2.27083e-06
-8.73999e-07
-1.10518e-06
1.97918e-06
-9.62456e-07
8.74594e-07
1.46523e-06
-2.33982e-06
-1.47864e-06
-6.85028e-07
3.81224e-07
-2.39898e-06
2.01776e-06
-1.64434e-08
1.96622e-06
-2.25393e-06
1.04951e-06
1.20443e-06
2.52054e-06
4.07899e-07
-1.94968e-06
1.54178e-06
-1.67171e-07
1.63902e-06
-1.47185e-06
-2.12568e-06
2.25746e-06
-1.8089e-06
-4.4856e-07
-1.59809e-06
1.42041e-06
-1.61645e-06
2.02435e-06
-1.63811e-06
-7.37613e-08
1.71187e-06
8.09047e-07
-1.21754e-08
-1.82846e-06
1.84063e-06
1.99288e-06
-1.74313e-06
-2.49753e-07
1.65028e-06
-1.54941e-08
-1.63479e-06
7.42047e-07
-2.3085e-06
-1.86282e-06
-8.31094e-07
2.29632e-06
2.67294e-07
1.73445e-06
-2.00175e-06
1.56591e-06
7.31101e-08
-7.90993e-07
-1.2053e-06
1.9963e-06
7.15329e-07
-1.59778e-06
-3.05382e-07
-1.6443e-06
1.77653e-06
6.88773e-08
3.76705e-07
1.68329e-06
-2.06e-06
2.2699e-06
-1.24337e-08
-2.04225e-06
-1.40589e-07
-2.88834e-09
2.24672e-06
-2.24383e-06
2.90014e-07
2.10217e-06
-2.39218e-06
1.02025e-06
-1.92938e-06
2.27644e-07
-2.49092e-06
6.23065e-07
1.86785e-06
-1.44674e-06
1.43125e-06
1.87577e-06
-1.49907e-06
2.27239e-06
-2.18349e-07
-2.05404e-06
-1.51093e-06
1.43717e-06
-1.33387e-06
-9.20068e-07
7.39868e-07
-7.39868e-07
3.97328e-07
-3.97328e-07
-8.42601e-07
8.42601e-07
8.39927e-07
1.04775e-06
-8.30696e-07
8.30696e-07
5.59854e-07
-5.59854e-07
-8.38629e-07
8.38629e-07
-2.42421e-06
8.38722e-07
-8.38722e-07
4.11428e-07
8.65329e-07
-8.65329e-07
-8.56537e-07
8.56537e-07
7.63238e-07
-7.63238e-07
5.24059e-07
-5.24059e-07
-1.25705e-06
1.8659e-06
-6.08847e-07
6.95954e-07
-6.95954e-07
-5.67007e-07
5.67007e-07
-2.72761e-07
1.65191e-06
-1.37915e-06
1.43699e-06
-1.36388e-06
1.60301e-06
1.83978e-07
1.83665e-06
-1.12132e-06
1.54312e-06
-1.8485e-06
1.43974e-06
-1.20727e-07
2.78032e-07
1.40012e-06
-1.67815e-06
-1.72267e-06
-4.21453e-07
2.32454e-06
6.56921e-07
1.28486e-06
-1.94178e-06
2.12346e-06
-2.26405e-06
-1.79167e-06
-2.39065e-07
-1.68974e-06
-6.18767e-07
1.94926e-06
-1.82293e-06
8.72956e-07
-1.65105e-06
-5.83322e-07
-1.94223e-06
1.15124e-06
1.83545e-06
-2.2569e-06
-2.05148e-06
2.59806e-07
1.80056e-07
-1.52677e-06
-6.64907e-07
2.14085e-06
-2.15329e-06
2.28146e-06
-9.74762e-09
-7.96867e-08
1.38907e-06
-3.00744e-07
1.82115e-06
-9.92143e-08
1.53639e-06
-2.44382e-06
7.5408e-07
-1.98321e-06
2.27323e-06
-1.89418e-06
1.91462e-07
1.70272e-06
2.32407e-06
-1.8685e-06
-4.55563e-07
5.79595e-07
-2.07403e-06
2.20942e-06
-1.35385e-07
-2.1384e-06
2.13552e-06
-2.17601e-06
2.05475e-06
1.21259e-07
2.35948e-06
-1.73641e-06
-1.232e-07
-8.0268e-07
-2.18855e-06
1.9702e-06
-2.26982e-06
-2.18541e-06
1.87777e-06
3.0764e-07
1.88684e-06
3.78711e-07
-1.87778e-06
-1.66627e-06
2.87122e-07
6.08859e-07
-2.16748e-06
3.88389e-07
1.77909e-06
2.21672e-06
-2.03274e-06
-1.4473e-06
8.34119e-08
7.97869e-07
-2.37174e-06
6.3433e-08
3.40855e-07
2.28959e-06
-1.91295e-06
-3.7664e-07
-5.56978e-07
4.90974e-07
-2.54691e-07
1.65481e-06
1.99195e-07
7.10131e-08
-4.04945e-08
-1.38711e-07
-1.75547e-06
1.58196e-06
7.92608e-07
2.00442e-06
-1.81296e-06
-1.33796e-07
-1.11028e-06
-2.90851e-08
1.13936e-06
-1.26724e-06
-2.15215e-07
-1.25839e-06
1.24864e-06
1.21494e-06
-1.29704e-06
-1.28756e-06
-3.68186e-07
1.11487e-06
-1.49389e-06
3.7902e-07
-2.72049e-06
-1.23391e-06
1.29835e-06
1.402e-06
-1.88351e-06
5.77293e-07
1.38335e-06
4.82548e-07
-1.20949e-06
-3.35138e-07
-1.7208e-06
2.05594e-06
-1.77695e-06
5.72704e-07
-2.89708e-07
-9.87517e-07
1.79656e-06
-1.71851e-06
2.20948e-06
4.94427e-07
1.55751e-06
-2.05194e-06
1.4165e-06
1.05866e-06
-1.94556e-06
8.86897e-07
5.02488e-07
-2.22099e-06
-2.19074e-06
1.60742e-06
-1.94308e-06
2.14228e-06
2.26313e-06
-2.1997e-06
2.22384e-06
-2.17269e-07
-1.63123e-06
2.37983e-06
-1.76757e-06
-5.02252e-07
1.23177e-06
-1.09533e-06
1.34757e-07
1.63825e-06
1.97188e-06
-2.10568e-06
-1.31539e-07
1.47116e-06
-1.33963e-06
-2.12799e-06
9.68859e-07
1.15913e-06
-1.48735e-06
-1.908e-07
1.60861e-06
-1.74732e-06
-2.12647e-06
1.36908e-06
1.80774e-06
-1.09061e-06
-7.17127e-07
-1.10023e-06
1.25791e-06
-2.15925e-06
1.48939e-06
-4.69153e-07
-1.72159e-06
1.87513e-06
-1.72415e-07
6.43414e-07
1.97943e-06
-2.43903e-07
-1.73553e-06
2.56849e-07
-1.16229e-06
-2.38553e-06
-2.14248e-06
1.67333e-06
-3.63392e-07
-1.70462e-06
-1.11628e-06
1.9817e-06
-8.65421e-07
-2.08419e-06
-1.19326e-06
1.67581e-06
-5.51829e-07
4.44992e-07
-3.88253e-07
-1.10564e-06
-1.57758e-06
-1.64593e-06
6.58409e-07
-2.1568e-06
1.05647e-06
1.10033e-06
-2.12928e-06
9.1858e-07
1.2107e-06
1.28036e-06
-1.84129e-06
2.18215e-06
-2.11282e-06
1.56099e-06
-2.23305e-06
4.56942e-07
-2.36989e-06
1.42098e-07
1.87569e-06
-2.01779e-06
-2.11977e-06
-2.18566e-06
-1.13964e-06
1.40763e-06
-2.67985e-07
-1.32526e-06
-6.9459e-07
2.01985e-06
2.21302e-06
-1.3164e-06
-4.60553e-07
1.8153e-06
-2.10501e-06
4.39487e-07
-4.92788e-07
-1.66937e-06
6.35441e-07
-5.71112e-07
-1.47324e-06
-2.44608e-06
1.79182e-06
6.5426e-07
-6.3708e-07
1.87193e-06
-5.54965e-07
-1.31697e-06
-1.39433e-06
1.96098e-06
-1.38828e-06
-9.59858e-07
1.86506e-06
-9.05201e-07
-8.44374e-07
-2.68894e-07
-8.32127e-07
-1.07848e-06
1.9106e-06
-1.27094e-06
-6.71288e-07
1.71798e-06
-1.09373e-07
5.19857e-07
1.50449e-06
1.5906e-07
-1.49869e-06
2.41871e-06
-1.96177e-06
-1.22659e-06
-6.75245e-07
-1.27031e-06
-7.8491e-07
-1.66117e-06
2.09275e-06
-7.23674e-07
1.1397e-07
1.14394e-06
1.54556e-06
1.24838e-06
1.31466e-06
9.51933e-07
-2.26659e-06
7.66216e-07
-2.08262e-06
4.44219e-07
1.51677e-06
5.99135e-07
1.2086e-06
-1.20064e-06
-6.52517e-07
1.85316e-06
-2.04893e-06
-1.04755e-06
-1.94841e-06
1.67555e-06
5.78074e-07
-2.25362e-06
-1.07281e-06
-1.10397e-06
1.7031e-06
-2.37547e-06
7.10181e-07
1.66529e-06
-1.96553e-06
-9.39726e-07
2.09886e-06
-6.84667e-07
-1.56896e-06
-1.75648e-06
-1.37657e-06
-9.98892e-07
2.02155e-06
2.11398e-06
-7.7297e-07
1.44377e-06
-2.08085e-06
-2.01921e-06
2.06247e-07
-1.43518e-07
8.14546e-07
-2.06292e-06
1.1232e-06
1.02605e-06
1.89876e-06
8.10397e-07
-1.77025e-06
-6.05167e-07
-2.03563e-06
-7.00499e-08
5.36618e-07
-1.62723e-06
-2.07295e-06
1.07751e-06
1.13228e-06
-2.20979e-06
-1.26228e-06
2.06103e-06
-7.9875e-07
2.09256e-06
-2.2118e-06
7.86581e-07
1.21987e-06
-1.77483e-06
1.75068e-06
-9.64097e-07
-6.88532e-07
-7.78749e-07
-1.22789e-06
2.00664e-06
-2.07612e-06
-1.17977e-06
2.09835e-06
-1.18863e-06
1.76593e-06
-1.44356e-06
2.35387e-06
-9.10302e-07
1.18797e-06
7.22632e-07
-4.86209e-07
-1.50643e-06
1.99264e-06
1.10062e-06
-2.46788e-06
1.36726e-06
-7.53809e-07
-9.59693e-07
2.27435e-06
-2.45606e-06
1.0125e-06
-2.04103e-06
2.07284e-06
-1.04679e-06
-1.30673e-06
-1.89899e-06
1.14796e-06
-2.01338e-06
-2.33627e-06
-2.05799e-06
8.6936e-07
1.81148e-06
2.91522e-08
-2.15565e-06
7.2472e-07
8.10771e-07
1.46358e-06
8.93069e-07
3.53881e-07
1.30093e-06
-1.40103e-06
1.34801e-06
1.64121e-06
7.06594e-08
9.92144e-07
-2.03893e-06
-1.89409e-06
5.77126e-07
-2.1098e-06
6.84944e-07
9.15734e-07
1.08056e-06
2.15086e-06
-9.40164e-07
1.95198e-06
-1.14158e-06
1.44249e-06
3.78662e-07
-2.21703e-06
1.14337e-06
6.07309e-07
9.87883e-07
1.2996e-06
-1.21297e-06
-1.00406e-06
3.12772e-07
1.09486e-06
1.17092e-06
-1.72004e-06
5.49115e-07
-2.11198e-06
1.38508e-06
7.269e-07
-1.99357e-06
1.38841e-06
1.98985e-06
2.17376e-06
-1.33848e-06
-8.1717e-07
-1.02124e-06
-1.866e-06
6.39415e-07
4.92758e-07
-1.44686e-06
-8.12379e-07
2.17784e-06
8.7076e-08
1.44931e-06
2.21617e-06
-1.26424e-06
1.50886e-06
-1.14115e-06
-1.31491e-06
-1.43136e-06
-4.62729e-07
-1.41858e-06
-4.89079e-07
8.15142e-07
-1.37052e-06
-1.45462e-06
-6.43797e-07
2.09842e-06
1.307e-06
-1.87811e-06
1.72829e-06
1.66368e-06
-1.4886e-06
4.17379e-07
1.07122e-06
-1.99538e-06
1.92533e-06
1.07317e-06
-1.83518e-06
7.62009e-07
1.77389e-06
-4.66892e-07
-1.02645e-06
-1.05616e-06
2.26138e-06
-1.90002e-06
9.9482e-07
1.88214e-06
-1.02853e-06
-8.71487e-07
-1.92044e-06
-2.18769e-06
-2.0616e-06
6.06983e-07
-1.47955e-06
1.86634e-06
-3.86794e-07
1.67685e-06
4.24459e-07
1.79637e-06
-1.40739e-06
-3.79581e-07
1.78697e-06
-2.16839e-06
2.54962e-06
-6.4283e-07
-1.92655e-06
2.08732e-06
-1.40238e-06
1.0816e-06
7.71562e-07
-1.18885e-06
-1.80802e-06
-1.44353e-06
2.09476e-06
1.6137e-06
-1.85913e-06
7.36056e-07
9.67046e-07
-1.30266e-06
-2.35412e-06
2.03051e-06
-9.57348e-07
1.15865e-06
-1.58693e-06
1.85422e-06
4.19206e-07
-2.04679e-06
1.62758e-06
1.52059e-06
5.74172e-07
-1.21547e-06
1.19289e-06
2.25789e-08
1.81765e-06
-3.75647e-07
2.21425e-06
-1.08197e-06
-1.63101e-07
1.62502e-06
-1.46192e-06
1.97483e-06
-8.94266e-07
-9.24623e-08
2.07491e-06
9.5359e-07
-1.86121e-06
-7.83133e-07
-1.78887e-06
2.1026e-06
-5.82008e-07
-4.45243e-07
-1.43287e-06
2.09965e-06
-1.62539e-07
-1.93711e-06
1.54165e-06
1.17419e-07
-2.18055e-06
2.00692e-06
1.73625e-07
-1.69112e-06
1.79768e-06
-1.06558e-07
2.79415e-07
3.61683e-07
-1.55053e-06
1.33364e-06
-4.41192e-07
-2.01496e-06
-5.32248e-07
-8.76669e-07
-1.9228e-06
-1.2535e-06
-6.72528e-07
-1.08719e-06
-1.1794e-06
1.78968e-06
2.35935e-06
-1.17921e-06
1.91026e-06
-1.77979e-06
-8.94477e-08
1.86924e-06
-2.89307e-07
-1.58467e-06
1.87398e-06
1.53018e-06
-2.65481e-06
9.50013e-07
1.09312e-07
1.61897e-06
1.23768e-06
1.99126e-06
-8.09016e-08
1.68551e-06
4.17082e-07
-7.08627e-07
-1.12655e-06
-2.02844e-06
1.79941e-07
1.8485e-06
-1.28343e-07
1.96404e-06
3.65831e-07
-2.12268e-06
9.46166e-07
2.28766e-06
-2.33931e-06
-1.17251e-06
-4.54718e-07
-1.75591e-06
1.31067e-06
-1.54771e-07
1.56389e-06
4.38532e-07
-1.79733e-06
1.4625e-06
3.3483e-07
-8.24088e-07
-1.70823e-06
1.58696e-06
1.2127e-07
-9.7899e-08
1.99644e-06
-1.89854e-06
2.46658e-06
-2.21085e-06
1.7055e-06
2.28452e-07
-1.93396e-06
-1.24975e-06
-1.08652e-06
2.10472e-06
2.38178e-06
-3.74863e-07
1.90591e-07
-1.52138e-06
1.33079e-06
2.06477e-06
-1.57189e-06
-1.42718e-06
1.94218e-06
-1.34517e-06
-8.65684e-07
2.07489e-06
-1.32705e-07
1.48276e-06
-1.85714e-06
1.39025e-06
-1.40331e-06
-3.52599e-07
-2.10364e-07
-1.84537e-06
4.1819e-07
2.24851e-06
-4.43876e-07
1.90637e-06
1.22682e-06
-1.82722e-07
-2.50404e-06
-2.27014e-06
2.38853e-06
1.62291e-06
2.07651e-06
9.397e-08
-1.84719e-06
4.73501e-07
-2.6747e-07
1.6571e-06
-5.30165e-07
1.98951e-06
2.59001e-07
1.8961e-06
2.19084e-06
-1.14335e-07
1.56591e-06
3.30188e-07
-2.29525e-06
7.81645e-07
1.51361e-06
1.2115e-06
-2.69582e-06
-1.33818e-06
-2.09514e-06
6.21906e-07
1.95295e-06
2.37892e-07
-2.05686e-06
-1.96439e-07
2.2533e-06
-1.62164e-06
-6.06092e-08
-1.34077e-06
1.40137e-06
-5.14529e-07
-2.79466e-07
-8.70245e-07
-1.68705e-06
2.55729e-06
-7.07552e-07
-1.44379e-06
-2.05379e-06
2.38163e-06
-2.041e-06
2.0416e-06
2.21027e-07
-1.73584e-06
1.60209e-06
-1.8914e-06
1.5623e-06
-4.6973e-07
1.5529e-06
-1.5652e-06
1.27267e-07
1.43793e-06
-1.23612e-06
-1.36883e-06
2.60495e-06
1.9598e-06
-9.92756e-07
-7.08147e-07
2.1814e-06
-2.3075e-06
-1.67335e-06
-2.20709e-06
-2.53526e-06
-1.55154e-06
-1.36615e-08
-1.4308e-06
-6.22995e-07
-4.45278e-07
1.75048e-06
-1.3052e-06
-1.80669e-06
1.70559e-06
-2.48872e-06
1.78203e-06
1.81733e-06
-1.28281e-06
-7.5236e-07
-1.46396e-06
1.34391e-06
1.48296e-06
1.13571e-06
9.15972e-07
1.27283e-06
1.92102e-06
-1.07597e-08
-1.46152e-06
1.96832e-06
-2.3387e-07
2.48723e-06
8.79192e-07
-2.11015e-06
1.23096e-06
-8.77824e-09
1.87054e-06
-1.86177e-06
1.54425e-06
1.14214e-06
4.06151e-07
1.86726e-06
-1.91097e-06
4.80175e-07
-2.68764e-06
1.02991e-06
1.65773e-06
2.03125e-06
-4.03666e-07
1.77178e-06
-1.55075e-06
3.7961e-07
-1.75033e-06
2.08516e-06
2.40087e-06
-8.56616e-07
1.14414e-06
-1.97517e-06
-1.51459e-06
-3.96377e-07
1.39113e-06
-1.80311e-06
1.33737e-07
-1.54559e-06
-1.08253e-06
1.10421e-06
1.56917e-06
3.666e-07
1.73987e-06
-1.47197e-07
-1.59267e-06
6.21467e-07
-2.29482e-06
1.8563e-06
-1.9542e-06
1.8313e-06
-2.20617e-06
1.98417e-06
-5.04258e-07
-1.47991e-06
-1.02814e-06
-1.47579e-06
8.34479e-08
1.23006e-06
-1.31351e-06
-2.10776e-08
1.32992e-06
-2.27033e-06
1.26297e-06
5.09268e-08
1.82305e-06
5.32176e-07
1.3856e-06
-2.12296e-06
1.1763e-06
2.22088e-06
-1.16168e-06
-7.67698e-07
-1.99181e-06
2.41488e-07
-2.16109e-06
1.86209e-06
-1.58067e-06
2.97332e-07
1.28334e-06
2.20542e-07
2.04558e-06
-2.05436e-06
1.60211e-06
2.46388e-07
-8.59986e-07
-1.34e-06
-2.17553e-06
-1.46928e-06
7.98862e-07
-1.86419e-06
3.88606e-07
-2.13044e-06
1.93331e-07
2.15914e-06
-2.2804e-06
4.63513e-07
1.03298e-06
1.02642e-06
1.58562e-06
3.70693e-07
1.81071e-06
-1.36427e-06
-2.17643e-06
4.05122e-07
-2.23612e-06
5.47527e-07
1.55089e-06
2.29963e-06
1.84265e-06
1.90723e-06
1.59738e-06
2.25544e-06
5.66578e-07
1.43731e-06
-1.1169e-06
-6.43621e-07
2.33051e-06
-2.19512e-06
1.80197e-06
-2.38845e-06
1.8562e-06
-1.5876e-06
-1.96468e-06
-1.71336e-06
1.11125e-06
-8.13913e-07
8.079e-07
7.91012e-07
1.11498e-06
9.44422e-07
-2.34519e-06
2.08834e-06
2.35167e-06
2.45393e-06
-1.99836e-06
-7.53897e-07
-1.96659e-06
1.86103e-06
-2.0949e-06
4.11705e-07
-2.12506e-06
-3.28891e-07
-2.48767e-06
2.01464e-06
5.46425e-07
4.8967e-07
-1.54004e-06
2.08756e-06
-2.53142e-06
-1.67517e-06
2.01655e-06
2.8615e-07
-1.67331e-06
2.42224e-06
-7.48927e-07
-6.31437e-07
-3.05779e-07
-1.68319e-06
-2.55103e-06
5.68436e-07
-2.07487e-06
-2.49258e-06
1.15465e-06
-2.1288e-06
1.73242e-06
2.39616e-06
-3.34154e-07
-9.48925e-07
-3.6643e-07
1.95218e-06
-2.04429e-06
1.54403e-06
-1.09904e-06
1.19267e-06
2.1409e-06
-1.81743e-06
-6.61802e-07
-4.83087e-07
-9.7627e-07
-1.49161e-06
4.80364e-07
5.55731e-07
6.52639e-07
-2.61621e-06
9.29164e-07
-1.88565e-06
2.49084e-06
2.27182e-06
-1.70338e-06
-2.66487e-06
1.29604e-06
5.10509e-07
2.24293e-06
-4.04371e-07
1.84088e-06
-1.28869e-06
-1.06391e-06
-7.2388e-07
1.39879e-06
1.27459e-06
-4.84218e-07
2.34042e-06
-1.38686e-06
-4.7227e-07
-4.75234e-07
1.33786e-06
1.67285e-06
1.61994e-06
1.65668e-06
-1.08603e-06
1.31724e-06
-1.60723e-06
2.63714e-06
-1.59666e-06
1.34738e-07
1.33744e-06
-7.37355e-07
2.35729e-06
-5.14914e-08
1.08845e-06
-1.45337e-06
-1.83341e-06
1.62712e-07
-1.78613e-06
-1.51892e-06
1.47307e-06
6.29888e-07
1.75349e-06
-1.18377e-06
-2.5835e-06
1.52289e-06
-6.37036e-07
1.25935e-06
-1.09664e-06
1.19715e-06
-1.11746e-06
-9.2029e-08
8.3001e-07
9.8351e-07
1.12639e-07
2.7427e-06
-9.38578e-07
3.0151e-07
-1.3795e-06
4.60167e-08
-1.11754e-06
-2.77859e-09
1.31034e-06
-3.68712e-07
8.33956e-07
-1.24902e-06
1.75577e-06
-8.70922e-07
3.48044e-07
1.52849e-06
-1.97698e-07
-9.16964e-07
9.81749e-07
5.31784e-07
2.86136e-07
-8.17919e-07
-1.92989e-06
1.50494e-06
-1.02149e-06
8.17015e-07
1.36205e-06
-2.99497e-07
-1.20917e-06
5.99766e-07
1.70336e-06
-1.09605e-06
1.58436e-06
-5.16356e-07
7.04668e-07
-1.70233e-06
9.29358e-07
1.44321e-06
-2.79216e-07
5.85581e-07
7.32512e-07
6.48722e-07
1.90667e-06
-3.94347e-07
8.19388e-07
-5.76601e-07
1.38938e-06
-8.12782e-07
9.4761e-07
3.26731e-08
1.24676e-06
8.91858e-07
2.18187e-08
1.60009e-06
-9.41684e-07
7.35486e-07
1.02029e-06
-1.47113e-06
-1.44474e-06
9.51156e-07
1.51422e-07
1.34726e-06
9.4761e-07
-1.12472e-06
1.35835e-06
-1.31306e-06
-1.39145e-06
9.3673e-07
1.50776e-06
-2.26012e-06
-1.10449e-06
1.37369e-06
-7.72987e-07
-6.56412e-08
7.379e-07
-4.19464e-08
-8.50348e-07
1.96521e-08
-7.78597e-07
-6.40046e-08
9.03764e-07
8.54937e-07
1.03144e-06
7.69638e-07
7.78597e-07
-9.03764e-07
-7.69638e-07
-6.90833e-08
8.74741e-07
-1.11503e-07
-8.54937e-07
-1.03144e-06
-7.72987e-07
7.379e-07
-8.50348e-07
8.74741e-07
-2.3427e-06
1.34381e-06
5.18316e-07
-1.29372e-06
1.46549e-06
-6.97865e-07
6.97865e-07
5.18316e-07
-2.05357e-06
-1.55959e-06
1.18459e-06
2.49401e-06
-1.21942e-06
-1.75333e-06
-2.30297e-06
1.83338e-06
7.39355e-07
5.13085e-10
-7.39355e-07
-2.38833e-08
-1.0414e-06
-8.47518e-07
7.34521e-07
-1.29166e-06
-1.40299e-07
6.72083e-07
8.51171e-07
-1.8756e-07
1.28341e-06
1.17424e-06
-1.64426e-06
-1.19814e-06
-2.7299e-06
1.11255e-06
1.37561e-06
9.83595e-07
-1.9345e-06
4.89761e-07
-8.68372e-07
1.13464e-06
8.52818e-07
-2.11432e-07
-1.43398e-06
9.8907e-07
-8.54295e-07
-1.34775e-07
1.10928e-06
-3.76768e-07
3.17243e-07
-3.17243e-07
-5.46201e-07
-1.01209e-06
-1.34892e-06
1.02575e-06
-1.29996e-06
1.30047e-06
-9.49358e-08
1.08401e-06
1.34296e-06
-2.69976e-06
8.77288e-07
-1.26426e-06
9.26868e-07
-1.35566e-06
1.62393e-06
-1.59525e-06
1.43801e-06
-8.12794e-07
1.20979e-07
-1.21762e-06
1.38926e-06
2.36567e-07
6.83158e-07
9.04303e-07
-7.83324e-07
-3.1689e-07
-1.7113e-06
-2.09304e-07
1.19123e-06
-1.18e-06
-4.12958e-07
4.12958e-07
-6.77769e-07
-6.2099e-08
6.77769e-07
-5.30372e-08
4.91442e-07
-4.91442e-07
-1.70245e-06
-6.52442e-07
6.57205e-07
-2.52177e-06
1.05782e-06
-1.2883e-06
1.53765e-07
9.5748e-07
8.72219e-07
-1.33208e-06
-4.2619e-07
-1.03486e-06
-8.1742e-07
-1.48555e-06
9.51773e-07
-2.88028e-08
1.69409e-06
-2.14116e-07
-8.40835e-07
4.02592e-07
-4.02592e-07
1.35289e-06
-3.90058e-07
-1.53677e-06
-1.14252e-06
2.62542e-07
-1.35244e-06
1.0899e-06
3.45206e-07
-2.891e-08
1.15356e-06
-7.58077e-07
8.27627e-07
-1.28821e-06
1.56831e-07
-1.35081e-07
1.29496e-07
-9.43408e-07
-2.08298e-07
2.08298e-07
7.12974e-07
6.76409e-07
6.61802e-07
6.29826e-07
-1.6509e-07
-4.64736e-07
2.91821e-07
1.6265e-07
4.53088e-07
-6.83158e-07
4.93774e-07
-4.53088e-07
-1.23458e-06
4.08701e-07
8.25882e-07
2.72837e-06
-4.91208e-07
6.2576e-07
3.4951e-07
-1.62734e-06
9.27248e-07
7.00096e-07
-2.11432e-07
-5.259e-07
-8.12782e-07
5.259e-07
4.95471e-07
4.76431e-08
-1.33633e-06
-5.56539e-07
-5.96527e-07
5.56539e-07
5.96527e-07
2.32239e-07
-2.32239e-07
-1.11953e-06
-4.49528e-07
-1.02202e-06
-7.89668e-07
-3.83901e-07
-9.16055e-07
-1.262e-07
-2.71129e-07
2.71129e-07
-8.70922e-07
-8.55996e-07
-8.27627e-07
-6.42037e-07
8.40762e-08
3.90058e-07
-1.25227e-06
-5.07637e-07
-2.07677e-07
8.31663e-07
2.20492e-06
3.52693e-07
-1.29438e-06
9.31664e-08
-5.24286e-08
6.57205e-07
-1.52483e-06
-1.36438e-06