/*--------------------------------*- C++ -*----------------------------------*\
  =========                 |
  \\      /  F ield         | OpenFOAM: The Open Source CFD Toolbox
   \\    /   O peration     | Website:  https://openfoam.org
    \\  /    A nd           | Version:  9
     \\/     M anipulation  |
\*---------------------------------------------------------------------------*/
FoamFile
{
    format      ascii;
    class       surfaceScalarField;
    location    "0.23";
    object      phi;
}
// * * * * * * * * * * * * * * * * * * * * * * * * * * * * * * * * * * * * * //

dimensions      [0 3 -1 0 0 0 0];

internalField   nonuniform List<scalar> 
816
(
1.15e-10
-6.05e-09
5.94e-09
-1.04e-09
-1.15e-08
1.26e-08
9.87e-09
-9.75e-09
1.63e-08
-1.62e-08
-1.79e-10
6.43e-09
-6.43e-09
1.47e-08
2.7e-09
-1.74e-08
6.78e-09
-6.78e-09
-7.54e-09
7.54e-09
-1.3e-08
-2.61e-09
1.56e-08
-6.31e-09
5.27e-09
2.12e-08
-6.52e-09
1.81e-08
-1.27e-08
-5.42e-09
4.28e-09
1.02e-08
-1.45e-08
1.72e-08
-1.64e-08
-7.9e-10
1.73e-08
-1.57e-08
-1.67e-09
-1.09e-08
1.74e-08
-6.49e-09
3.56e-09
6.82e-09
-1.04e-08
-1.7e-08
1.54e-09
1.55e-08
2.13e-09
1.6e-08
7.23e-09
-2.02e-08
1.22e-08
4.18e-09
1.03e-09
-1.19e-08
1.13e-08
-2.15e-09
-9.1e-09
-1.13e-08
-4.74e-09
1.61e-08
-1.22e-08
9.08e-10
-1.53e-08
3.37e-09
1.19e-08
-1.45e-08
1.63e-08
-1.8e-09
2.83e-10
4.86e-09
-5.14e-09
4.69e-09
-1.62e-08
5.99e-09
1.14e-08
-9.96e-09
1.02e-08
-1.12e-08
1.39e-08
2.2e-08
-1.6e-08
-1.79e-08
8.94e-09
8.99e-09
1.1e-09
1.62e-08
-3.08e-09
1.45e-08
1.12e-09
1.61e-08
-2.72e-09
-1.25e-08
-1.83e-08
6.31e-09
1.2e-08
3.87e-09
2.56e-09
-5.32e-09
-5.4e-09
4.82e-09
-1.5e-08
-6.76e-10
-1.34e-08
-3.25e-09
1.67e-08
3.97e-09
2.81e-09
-5.68e-09
1.47e-08
-1.73e-08
-8.42e-09
-1.38e-08
-7.57e-10
-4.66e-10
5.32e-09
-4.86e-09
1.36e-08
-9.32e-09
1.16e-08
-3.85e-10
-6.1e-09
-1.18e-08
7.54e-09
7.01e-09
4.78e-09
-1.59e-08
1.12e-08
-2.15e-09
-1.34e-08
1.68e-08
-1.32e-08
4.48e-09
-7.56e-09
-2.26e-10
-3.71e-09
1.05e-08
1.21e-08
-1.05e-08
-1.15e-09
-1.53e-08
-7.81e-09
-8.72e-09
1.65e-08
-1.68e-08
1.77e-09
1.46e-08
7.45e-09
9.63e-09
1.16e-08
-6.39e-09
1.93e-08
-1.29e-08
3.31e-09
1.24e-08
-1.57e-08
-3.31e-09
-1.16e-08
6.97e-09
-1.48e-08
1.23e-08
6.47e-09
-1.88e-08
6.47e-09
1.18e-08
-1.83e-08
6.47e-09
-6.47e-09
-6.78e-09
1.4e-08
-1.01e-08
3.36e-09
1.72e-08
2.39e-09
3.55e-09
-5.94e-09
-1.65e-08
2.82e-09
1.37e-08
-6.05e-09
6.88e-09
-6.88e-09
-6.53e-09
6.53e-09
7.61e-09
-1.67e-08
9.12e-09
-4.57e-09
-6.76e-10
5.32e-09
-1.22e-08
1.7e-08
3.61e-11
-1.15e-08
1.14e-08
-1e-08
-2.01e-10
1.02e-08
6.37e-09
-9.27e-09
1.69e-08
6.27e-11
-1.26e-08
1.25e-08
1.11e-08
5.98e-09
-1.7e-08
-1.29e-08
2.12e-09
1.04e-08
-1.26e-08
-7.24e-09
-7.48e-09
-6.31e-09
-5.56e-10
1.68e-08
-6.81e-10
-1.61e-08
-9.92e-09
1.32e-08
-1.48e-08
9.61e-09
5.19e-09
8.7e-09
7.96e-09
6.59e-09
-1e-09
1.71e-08
-1.09e-08
5.32e-09
-4.57e-09
3.72e-10
-6.84e-09
5.64e-09
8.85e-09
1.58e-08
1.08e-08
-1.63e-08
5.56e-09
-6.47e-09
-8.33e-09
-4.31e-09
-1.19e-08
-6.24e-11
-1.35e-08
1.36e-08
5.28e-10
-1.06e-08
1.52e-08
-7.23e-09
-7.05e-10
1.26e-08
-8.02e-09
1.49e-09
3.44e-09
1.36e-08
-1.4e-09
-1.15e-09
1.32e-08
-1.43e-08
1.06e-09
-9.45e-09
-7.08e-09
-1.4e-08
1.01e-08
3.89e-09
-1.37e-08
-1.32e-09
1.59e-08
-3.31e-10
-1.55e-08
1.52e-08
-2.02e-09
-4.41e-09
1.55e-08
-4.12e-09
4.12e-09
1.48e-08
1.12e-09
6.62e-10
-1.33e-08
1.26e-08
9.9e-11
-1.28e-08
-1.45e-08
-1.86e-09
1.11e-08
-1.15e-08
1.17e-10
-4.81e-09
4.7e-09
1.55e-09
1.13e-08
2.33e-10
1.17e-08
-1.19e-08
-4.82e-09
-9.03e-10
1.29e-08
7.39e-10
9.74e-09
-1.05e-08
-1.03e-08
7.58e-09
2.71e-09
-1.45e-08
1.32e-08
-1.72e-08
5.28e-10
1.66e-08
-7.32e-09
7.32e-09
4.48e-09
5.99e-10
3.52e-09
-1.23e-09
-1.63e-08
1.75e-08
-6.32e-10
-1.31e-08
1.58e-08
-1.11e-08
-3.35e-09
1.55e-08
-1.22e-08
3.55e-09
2.08e-10
-1.74e-08
-1.5e-08
-4.81e-09
-1.28e-08
1.33e-08
-5.31e-09
5.31e-09
-1.37e-08
-5.08e-09
1.2e-08
-1.32e-08
-1.11e-08
7.71e-09
-5.76e-09
2.16e-08
-1.58e-08
-5.97e-10
-1.22e-08
5.4e-09
-5.3e-09
-4.86e-09
5.52e-09
5.83e-10
-4.08e-09
3.5e-09
1.11e-10
1.19e-08
9.89e-09
6.65e-09
-6.49e-09
1.64e-08
-1.33e-08
-6.55e-09
5.95e-09
3.1e-11
-1.15e-08
1.15e-08
5.46e-09
-5.35e-09
7.84e-10
-1.23e-08
1.15e-08
1.03e-08
-1.1e-08
1.07e-08
-1.19e-09
-1.21e-08
-1.03e-08
-7.56e-09
-7.06e-09
-6.93e-09
-1.6e-08
-7.91e-10
1.68e-08
-5.18e-09
5.21e-09
-1.58e-08
-7.81e-10
1.66e-08
1.34e-08
-1.35e-11
-1.26e-08
-6.36e-10
-5.27e-09
-1.15e-08
1.81e-08
-6.57e-09
-7.71e-09
6.99e-09
7.18e-10
-7.58e-09
6.95e-09
-1.39e-08
1.34e-08
4.65e-10
1.32e-08
-1.26e-08
-6.32e-10
-1.11e-08
1.67e-08
-5.53e-09
-1.35e-09
-1.73e-08
1.06e-08
5.81e-09
4.17e-10
-1.26e-09
-1.66e-08
-2.24e-10
9.96e-09
-1.77e-08
-6.25e-10
1.54e-08
1.74e-08
-6.85e-09
1.06e-08
1.04e-08
3.12e-09
3.27e-09
-3.5e-09
1.56e-08
1.08e-08
1.08e-09
-1.01e-08
1.07e-08
5.94e-09
-5.95e-09
-5.99e-09
5.35e-09
-9.89e-09
-1.17e-08
1.9e-08
-7.26e-09
-5.18e-09
-5.53e-09
-4.08e-09
-1.79e-09
-9.84e-09
-6.55e-09
5.94e-09
-5.99e-09
-3.44e-09
-2.36e-10
9.94e-09
-9.7e-09
5.46e-09
6.37e-09
6.48e-10
6.95e-09
4.7e-09
-5.21e-09
-1.1e-09
-4.86e-09
-1.17e-08
-6.47e-09
1.82e-08
1.08e-08
-9.96e-10
-1.33e-08
2.08e-10
1.37e-08
8.48e-10
-3.28e-09
2.43e-09
-4.86e-09
1.31e-08
-1.49e-08
1.36e-10
1.9e-08
-1.72e-08
3.28e-09
-3.52e-09
6.99e-09
6.81e-09
2.46e-10
2.5e-09
-8.28e-09
-2.44e-09
-1.58e-08
1.66e-09
6.96e-09
1.2e-08
9.82e-09
-1.24e-08
1.94e-08
-1.54e-08
3.73e-09
3.27e-09
-5.52e-09
-6.77e-09
-1.2e-08
1.88e-08
5.3e-09
-1.89e-08
-7.6e-09
1.96e-08
-7.71e-09
1.86e-08
1.26e-08
6.16e-10
-3.7e-09
3.7e-09
-7.01e-09
-1.21e-08
1.44e-08
1.25e-08
9.03e-09
-5.42e-09
5.42e-09
-6.81e-09
-2.33e-09
-6.49e-09
5.08e-09
1.41e-09
6.49e-09
-1.07e-09
-1.62e-09
-7.01e-09
-1.45e-08
-1.44e-08
2.85e-09
-2e-08
7.16e-09
1.28e-08
-7.37e-09
9.82e-10
-1.21e-08
2.05e-08
-8.38e-09
-1.95e-08
7.41e-09
8.34e-09
-1.22e-08
1.93e-08
1.03e-08
-1.79e-08
-1.36e-09
8.3e-10
6.66e-09
-1.13e-08
1.22e-08
-6.41e-09
-1.09e-08
1.73e-08
-1.15e-08
2.08e-08
-8.53e-09
1.6e-08
6.68e-09
1.41e-08
1.63e-08
-1.84e-08
-1.75e-08
8.94e-09
1.29e-08
-2.1e-08
1.33e-08
-7.13e-09
1.42e-08
-2.53e-09
-1.13e-08
-6.65e-09
6.87e-09
1.36e-08
2.03e-08
-4.7e-09
-8.69e-09
1.34e-08
-3.7e-09
3.7e-09
-3.32e-09
3.32e-09
4.03e-09
-4.03e-09
3.91e-09
-3.91e-09
3.87e-09
3.97e-09
1.31e-08
-1.78e-08
4.66e-09
-5.68e-09
1.27e-08
7.65e-09
6.35e-09
-6.35e-09
-6.84e-09
7.04e-09
-7.04e-09
-1.82e-08
6.89e-09
1.13e-08
-3.71e-09
-1.95e-08
1.21e-08
7.42e-09
-3.75e-09
3.75e-09
-1.73e-08
6.86e-09
1.04e-08
-6.08e-09
-1.16e-08
-1.12e-08
1.21e-08
-5.31e-09
1.18e-08
-4.54e-09
-1.63e-08
-1.76e-08
1.16e-08
4.79e-09
3.26e-10
5.84e-10
7.51e-10
-1.11e-08
-1.96e-08
1.11e-08
8.46e-09
-1.27e-08
-6.16e-09
-5.86e-09
-4.3e-10
7e-09
-1.6e-08
7.28e-09
-9.11e-09
-1.35e-08
2.22e-08
-6.72e-09
-1.22e-08
5.11e-09
7.06e-09
-1.79e-09
-1.46e-08
7.27e-10
1.38e-08
-4.89e-09
4.61e-09
-4.61e-09
-2.48e-10
-8.91e-09
-7.31e-09
-7.94e-09
1.45e-08
1.51e-08
-4.64e-09
-1.47e-08
-1.02e-08
-9.49e-10
1.81e-08
-8.97e-09
-7.36e-09
-1.33e-08
-9.9e-09
-1.42e-08
-2.47e-09
-9.01e-09
-3.84e-09
-8.71e-09
-6.69e-09
-1.21e-08
-1.65e-08
-3.6e-09
1.37e-08
-1.21e-08
-1.09e-08
-1.35e-08
1.25e-08
-1.41e-08
1.62e-09
-4.37e-09
-8.37e-10
-1.48e-09
1.26e-08
-4.37e-09
-2.42e-09
1.73e-08
2.98e-09
-2.03e-08
1.92e-08
7.23e-09
9.44e-09
-7.31e-09
1.43e-08
4.23e-09
-4.23e-09
1.34e-08
2.41e-09
6.14e-09
2.52e-09
-1.07e-08
1.17e-08
-1.63e-08
1.75e-08
1.11e-08
9.19e-09
-1.62e-08
6.97e-09
-1.09e-09
1.7e-08
-5.7e-09
1.06e-08
1.3e-08
-9.98e-09
8.77e-10
4.86e-09
-1.17e-08
6.54e-09
5.9e-09
7.24e-09
1.06e-08
-1.4e-08
2.14e-09
-1e-08
2.04e-09
1.13e-08
-1.06e-08
1.14e-08
2.15e-09
-1.08e-08
3.98e-09
-4.33e-10
5.5e-09
-1.66e-08
-6.14e-10
-1.83e-08
1.79e-09
-3.34e-10
3.18e-09
1.29e-09
-1.08e-08
1.59e-08
1.35e-09
-1.59e-08
-5.14e-09
3.98e-09
1.26e-08
-9.84e-09
-1.13e-08
-6.44e-09
1.06e-08
6.45e-09
-1.17e-08
3.18e-09
7.23e-09
-1.56e-08
-1.51e-08
1.48e-08
-5.83e-10
-9.05e-09
-8.53e-09
8.53e-09
6.19e-09
-1.72e-08
-8.62e-09
8.62e-09
-1.12e-08
-1.56e-08
-1.18e-08
-1.24e-08
6.02e-09
5.85e-09
1.46e-08
-3.93e-09
-9.67e-09
1.08e-08
1.12e-08
-1.7e-08
7.15e-09
-8.89e-09
9.21e-09
-1.08e-08
-9.36e-09
-6.8e-09
-8.78e-09
-2.86e-09
-1.07e-08
-4.99e-09
6.72e-09
-8.58e-09
8.15e-09
1.86e-09
1.39e-08
-3.93e-10
-1.69e-08
-1.44e-08
-9.02e-09
-1.35e-09
-1.04e-08
-1.76e-09
-2.43e-09
-2.86e-09
-6.72e-09
7.06e-09
1.37e-08
-1.51e-09
-9.1e-09
-2.88e-10
9.48e-09
1.13e-08
-1.23e-08
-1.26e-08
-1.31e-08
-1.38e-08
-5.33e-09
3.94e-09
1.71e-09
)
;

boundaryField
{
    front
    {
        type            empty;
        value           nonuniform List<scalar> 0();
    }
    back
    {
        type            empty;
        value           nonuniform List<scalar> 0();
    }
    bottom
    {
        type            calculated;
        value           nonuniform List<scalar> 
12
(
5.24e-09
1.5e-08
1.16e-08
1.18e-08
9.13e-09
2.43e-09
2.44e-09
1.38e-08
1.55e-08
1.48e-08
9.17e-09
5.2e-09
)
;
    }
    left
    {
        type            calculated;
        value           uniform 0;
    }
    top
    {
        type            calculated;
        value           nonuniform List<scalar> 8(-1.46e-08 -1.46e-08 -1.45e-08 -1.45e-08 -1.45e-08 -1.46e-08 -1.46e-08 -1.45e-08);
    }
    right
    {
        type            calculated;
        value           uniform 0;
    }
    inner_arc
    {
        type            calculated;
        value           uniform 0;
    }
}


// ************************************************************************* //
