/*--------------------------------*- C++ -*----------------------------------*\
  =========                 |
  \\      /  F ield         | OpenFOAM: The Open Source CFD Toolbox
   \\    /   O peration     | Website:  https://openfoam.org
    \\  /    A nd           | Version:  9
     \\/     M anipulation  |
\*---------------------------------------------------------------------------*/
FoamFile
{
    format      ascii;
    class       volVectorField;
    location    "0.23";
    object      U;
}
// * * * * * * * * * * * * * * * * * * * * * * * * * * * * * * * * * * * * * //

dimensions      [0 1 -1 0 0 0 0];

internalField   nonuniform List<vector> 
578
(
(-0.143 -0.184 0)
(-0.0813 -0.328 2.4e-16)
(-0.219 -0.282 -9.17e-17)
(0.027 -0.398 -1.81e-17)
(0.0498 -0.106 -4.7e-17)
(0.0193 -0.453 -6.82e-17)
(-0.0527 -0.111 4.63e-17)
(0.0653 -0.121 -4.96e-20)
(0.325 -0.433 -1.49e-16)
(-0.0529 -0.209 4.21e-16)
(0.0215 -0.476 -9.34e-17)
(0.195 -0.379 0)
(0.0149 -0.398 7.83e-17)
(0.222 -0.405 -5.64e-16)
(-0.226 -0.412 2.82e-16)
(0.286 -0.329 -7.02e-17)
(-0.216 -0.241 3.62e-16)
(-0.366 -0.336 0)
(0.178 -0.344 0)
(0.327 -0.401 9.85e-17)
(0.0276 -0.436 0)
(0.22 -0.301 0)
(0.162 -0.165 -4.24e-16)
(-0.00564 -0.384 0)
(-0.00867 -0.318 0)
(0.172 -0.348 2.98e-16)
(-0.0262 -0.385 -3.64e-17)
(-0.00636 -0.205 2.74e-17)
(-0.0705 -0.391 -3.6e-16)
(0.304 -0.346 2.84e-16)
(-0.014 -0.342 -3.9e-16)
(0.0189 -0.39 7.8e-17)
(0.363 -0.391 -2.46e-16)
(-0.0154 -0.419 1.39e-16)
(-0.19 -0.366 -2.8e-16)
(0.253 -0.279 -4.62e-16)
(0.185 -0.356 5.56e-16)
(0.162 -0.321 0)
(-0.288 -0.328 -2.77e-16)
(0.0787 -0.162 0)
(0.0861 -0.189 -3.71e-16)
(0.11 -0.199 4.17e-16)
(0.0915 -0.185 0)
(-0.209 -0.367 0)
(0.332 -0.303 3.54e-17)
(-0.083 -0.169 0)
(-0.0897 -0.198 3.66e-16)
(0.318 -0.426 -3.51e-17)
(-0.286 -0.331 4.14e-16)
(-0.0337 -0.44 -7.9e-17)
(0.00667 -0.194 1.47e-17)
(0.0249 -0.404 -3.32e-16)
(0.267 -0.215 -1.7e-16)
(-0.0165 -0.421 0)
(0.00191 -0.388 2.84e-16)
(-0.0157 -0.472 6.12e-16)
(0.0724 -0.0539 9.46e-16)
(0.259 -0.198 -3.28e-16)
(-0.26 -0.308 -5.44e-16)
(0.145 -0.17 2.03e-16)
(-0.312 -0.341 2.86e-16)
(-0.235 -0.18 0)
(-0.374 -0.279 4.33e-17)
(0.206 -0.362 2.59e-16)
(-0.00771 -0.401 7.3e-17)
(-0.265 -0.424 1.48e-16)
(0.367 -0.416 -3.02e-17)
(0.0393 -0.467 2.19e-16)
(0.362 -0.356 -1.3e-16)
(0.199 -0.422 3.07e-16)
(-0.00468 -0.343 0)
(0.00596 -0.329 -1.11e-17)
(4.04e-05 -0.396 -7.97e-17)
(0.201 -0.426 0)
(0.00358 -0.507 1.39e-16)
(0.0634 -0.115 0)
(0.252 -0.331 2e-16)
(0.191 -0.254 -1.84e-16)
(0.00959 -0.402 0)
(-0.129 -0.15 -1.12e-16)
(0.143 -0.364 -2.77e-16)
(-0.0715 -0.115 -3.98e-16)
(0.044 -0.126 -1.79e-16)
(0.0726 -0.11 1.84e-16)
(-0.371 -0.433 -3.69e-17)
(-0.0655 -0.149 0)
(0.00285 -0.113 0)
(-0.0141 -0.498 -2.22e-16)
(0.128 -0.29 3.76e-20)
(-0.144 -0.323 2.92e-18)
(-0.0248 -0.414 0)
(-0.354 -0.417 7.32e-17)
(-0.133 -0.297 0)
(0.0362 -0.436 1.42e-16)
(0.309 -0.357 4.41e-16)
(0.214 -0.331 -4.04e-16)
(0.000176 -0.39 7.9e-17)
(0.00736 -0.391 -5.65e-16)
(-0.0158 -0.132 -7.73e-16)
(-0.211 -0.404 0)
(-0.254 -0.386 0)
(0.179 -0.395 -5.17e-16)
(-0.0325 -0.422 0)
(-0.22 -0.24 0)
(-0.00572 -0.388 0)
(0.206 -0.398 -4.22e-16)
(0.00505 -0.472 -1.45e-16)
(0.0993 -0.191 0)
(-0.0368 -0.0891 0)
(0.128 -0.223 -4.38e-16)
(0.262 -0.304 -1.21e-16)
(0.193 -0.404 0)
(0.332 -0.386 2.95e-16)
(0.243 -0.356 -2.6e-16)
(0.26 -0.355 2.91e-16)
(-0.0256 -0.407 3.2e-16)
(0.0352 -0.435 1.54e-16)
(-0.197 -0.376 -2.51e-16)
(-0.121 -0.276 4.64e-17)
(-0.00738 -0.391 2.76e-16)
(0.143 -0.284 -2.96e-16)
(0.118 -0.191 6.26e-20)
(0.194 -0.391 -2.99e-16)
(0.0192 -0.372 -4.17e-17)
(0.0962 -0.189 0)
(-0.172 -0.39 3.21e-16)
(0.0947 -0.368 -2.95e-16)
(0.375 -0.388 -1.39e-16)
(-0.208 -0.432 1.62e-16)
(-0.17 -0.397 0)
(-0.205 -0.414 0)
(-0.18 -0.405 0)
(0.0415 -0.448 0)
(0.0385 -0.0761 4.32e-16)
(-0.203 -0.427 -2.94e-16)
(-0.197 -0.3 0)
(0.17 -0.315 0)
(-0.0133 -0.397 -2.72e-16)
(0.192 -0.36 3e-16)
(-0.176 -0.346 0)
(-0.0864 -0.164 4.95e-16)
(-0.167 -0.39 0)
(-0.151 -0.293 0)
(0.00199 -0.335 0)
(0.0759 -0.148 0)
(-0.328 -0.372 -3.84e-22)
(-0.144 -0.297 3.71e-16)
(-0.0323 -0.319 0)
(0.204 -0.422 3.09e-16)
(-0.173 -0.391 0)
(0.268 -0.43 0)
(-0.133 -0.169 0)
(0.0655 -0.0698 0)
(0.0694 -0.136 4.99e-16)
(-0.228 -0.433 -2.83e-16)
(-0.0344 -0.398 -1.67e-16)
(-0.0775 -0.429 3.12e-16)
(0.048 -0.421 -7.44e-17)
(-0.0541 -0.0565 -1.08e-16)
(0.286 -0.437 -2.46e-16)
(0.263 -0.42 3.5e-16)
(0.252 -0.377 3.58e-16)
(-0.0465 -0.0889 -6.45e-18)
(0.229 -0.365 0)
(-0.000252 -0.106 1.21e-19)
(-0.174 -0.376 -7.02e-21)
(-0.000604 -0.193 -4.77e-16)
(-0.197 -0.37 0)
(0.0356 -0.326 -8.88e-17)
(-0.0299 -0.467 -1.23e-16)
(0.21 -0.309 0)
(0.0998 -0.181 0)
(-0.112 -0.177 0)
(-0.0689 -0.136 -5.03e-16)
(-0.169 -0.318 0)
(-0.0103 -0.412 -7.42e-17)
(-0.000579 -0.418 -7.55e-17)
(-0.186 -0.366 2.93e-16)
(0.121 -0.188 5.33e-17)
(-0.00811 -0.335 1.82e-16)
(-0.101 -0.182 0)
(-0.149 -0.306 0)
(-0.116 -0.284 0)
(0.0102 -0.413 5.62e-16)
(-0.236 -0.339 2.11e-16)
(-0.0198 -0.234 -3.22e-16)
(0.0961 -0.127 -1.8e-16)
(-0.213 -0.429 7.6e-17)
(-0.247 -0.439 2.96e-16)
(-0.00624 -0.196 -4.83e-16)
(0.244 -0.434 -2.96e-16)
(0.193 -0.324 0)
(0.152 -0.21 4.3e-16)
(-0.18 -0.327 0)
(-0.106 -0.196 0)
(-0.00602 -0.458 1.41e-16)
(0.0209 -0.269 8.29e-16)
(-0.0205 -0.264 -6.53e-16)
(-0.19 -0.324 0)
(0.18 -0.325 0)
(0.0228 -0.242 -3.12e-16)
(0.0229 -0.429 -7.19e-16)
(0.0637 -0.219 -2.16e-16)
(-0.0162 -0.453 0)
(-0.00265 -0.43 -2.27e-16)
(0.199 -0.371 0)
(-0.224 -0.363 0)
(-0.299 -0.318 0)
(0.256 -0.442 3.01e-16)
(-0.084 -0.104 0)
(-0.118 -0.241 3.79e-16)
(-0.259 -0.448 -2.87e-16)
(-0.194 -0.404 -9.68e-18)
(0.00797 -0.441 7.3e-17)
(-0.168 -0.336 -1.82e-16)
(0.018 -0.402 0)
(-0.212 -0.378 -3.35e-16)
(0.212 -0.376 3.35e-16)
(-0.239 -0.446 2.98e-16)
(-0.0612 -0.12 -5.29e-16)
(0.235 -0.44 1.51e-16)
(-0.187 -0.362 0)
(0.129 -0.258 -3.67e-16)
(0.111 -0.195 0)
(-0.107 -0.198 0)
(-0.129 -0.256 7.43e-16)
(0.00157 -0.477 -6.93e-17)
(0.0169 -0.175 2.07e-19)
(-0.014 -0.171 1.82e-16)
(-0.0015 -0.106 4e-16)
(-0.0389 -0.115 -4.04e-16)
(0.0196 -0.121 -2.01e-16)
(-0.0381 -0.0762 -4.3e-16)
(0.129 -0.312 0)
(-0.132 -0.317 0)
(0.0668 -0.1 1.41e-16)
(0.0607 -0.111 0)
(-0.0616 -0.112 0)
(0.0398 -0.427 1.13e-16)
(0.118 -0.241 0)
(-0.0536 -0.0982 0)
(0.0538 -0.0929 0)
(-0.0075 -0.469 -2.86e-16)
(-0.0906 -0.172 0)
(-0.0112 -0.149 7.32e-16)
(0.0419 -0.087 0)
(-0.0454 -0.0858 -4.09e-16)
(-0.0198 -0.217 8.73e-16)
(-0.0569 -0.0838 0)
(-0.0205 -0.477 -6.97e-17)
(0.0058 -0.453 7.21e-17)
(-0.184 -0.407 0)
(0.0278 -0.343 0)
(0.0479 -0.111 -4.15e-18)
(0.00371 -0.1 0)
(0.162 -0.382 3.15e-16)
(-0.00195 -0.195 4.76e-16)
(-0.286 -0.441 -4.45e-16)
(0.0627 -0.103 0)
(0.0199 -0.215 4.74e-16)
(0.0614 -0.119 5.24e-16)
(-0.0576 -0.103 4.04e-16)
(0.00805 -0.148 -7.43e-16)
(0.0123 -0.244 4.7e-16)
(-0.135 -0.351 2.61e-16)
(0.157 -0.322 6.36e-16)
(0.1 -0.235 0)
(0.029 -0.0591 -4.39e-16)
(-0.00411 -0.109 -4.07e-16)
(0.017 -0.0578 0)
(-0.0172 -0.0581 0)
(-0.186 -0.403 -3.01e-16)
(0.128 -0.28 0)
(-0.000263 -0.487 -2.05e-16)
(0.0196 -0.442 -1.52e-16)
(-0.00966 -0.493 -4.06e-16)
(-0.0231 -0.453 1.6e-16)
(-0.029 -0.0591 0)
(-0.111 -0.193 0)
(-0.0131 -0.495 -3.49e-16)
(0.105 -0.197 0)
(-0.0166 -0.488 6.17e-16)
(0.00647 -0.494 0)
(0.0148 -0.467 -6.99e-17)
(-0.00936 -0.501 1.37e-16)
(-0.0768 -0.149 -4.81e-16)
(0.034 -0.0652 -8.65e-16)
(-0.034 -0.0653 4.37e-16)
(-0.00272 -0.0868 0)
(-0.00331 -0.194 -4.42e-16)
(0.157 -0.362 0)
(-0.194 -0.415 9.6e-18)
(-0.0266 -0.477 1.23e-16)
(-0.0618 -0.0995 0)
(0.00421 -0.111 0)
(0.0108 -0.219 5.5e-17)
(0.0569 -0.103 -4.05e-16)
(0.166 -0.39 -6.94e-16)
(0.00298 -0.205 1.06e-16)
(0.00386 -0.217 -4.15e-16)
(-0.0166 -0.477 3.59e-16)
(-0.16 -0.369 0)
(0.00186 -0.125 3.79e-16)
(0.00108 -0.102 0)
(0.00695 -0.137 0)
(-0.00231 -0.132 7.15e-16)
(0.17 -0.385 3.09e-16)
(-0.00604 -0.393 -7.67e-16)
(-0.00388 -0.513 -2.65e-16)
(-0.00347 -0.506 0)
(0.143 -0.297 1.85e-16)
(0.000201 -0.519 1.96e-16)
(-0.000545 -0.522 -4.14e-16)
(-0.128 -0.281 0)
(-0.00893 -0.511 2.72e-16)
(0.0139 -0.492 2.87e-16)
(-0.185 -0.39 0)
(-0.0481 -0.112 0)
(-0.101 -0.236 0)
(-0.0122 -0.497 -3.41e-16)
(-0.156 -0.317 -3.66e-16)
(0.00418 -0.502 5.46e-16)
(-0.0181 -0.48 7.02e-17)
(-0.00568 -0.49 -2.21e-16)
(-0.0156 -0.439 2.93e-16)
(0.00894 -0.502 -1.28e-16)
(-0.269 -0.433 2.7e-16)
(-0.159 -0.304 0)
(0.226 -0.429 0)
(0.00679 -0.51 5.06e-16)
(-0.0233 -0.422 7.6e-17)
(-0.295 -0.42 -1.06e-16)
(0.00048 -0.516 1.35e-16)
(0.013 -0.49 -2.84e-16)
(-0.141 -0.279 5.46e-16)
(-0.0069 -0.513 1.37e-16)
(0.0274 -0.471 -1.27e-16)
(0.0149 -0.484 -2.91e-16)
(0.00185 -0.398 0)
(-0.0237 -0.457 0)
(0.0169 -0.483 -1.43e-16)
(0.0118 -0.477 2.11e-16)
(-0.00113 -0.522 1.96e-16)
(-0.000815 -0.347 3.11e-16)
(-0.00412 -0.521 1.98e-16)
(0.206 -0.303 -9.2e-17)
(0.103 -0.383 1.73e-16)
(-0.0306 -0.0738 -4.35e-16)
(0.0297 -0.0697 1.12e-16)
(-0.0325 -0.0786 4.25e-16)
(0.0329 -0.0782 0)
(0.035 -0.0707 4.36e-16)
(-0.0365 -0.0726 2.17e-16)
(-0.0016 -0.492 -1.4e-16)
(0.0433 -0.0902 0)
(-0.0448 -0.0963 0)
(-0.00274 -0.523 -1.98e-16)
(-0.0629 -0.114 -3.83e-16)
(0.0941 -0.146 0)
(-0.0936 -0.148 0)
(-0.00486 -0.515 -2.17e-16)
(-0.0761 -0.0666 0)
(-0.00101 -0.525 6.75e-17)
(0.0312 -0.0767 4.86e-16)
(-0.00233 -0.525 -6.87e-17)
(0.00167 -0.453 -2.98e-16)
(-0.00499 -0.521 7.08e-17)
(0.154 -0.381 3.18e-16)
(0.0319 -0.458 1.24e-16)
(-0.242 -0.2 0)
(0.171 -0.38 0)
(-0.215 -0.138 -4.18e-17)
(-0.328 -0.309 2.87e-16)
(0.115 -0.405 -1.53e-16)
(-0.376 -0.411 -1.48e-16)
(0.209 -0.13 3.15e-16)
(-0.026 -0.437 -7.54e-17)
(-0.062 -0.148 -5.25e-16)
(0.0616 -0.142 3.8e-16)
(-0.11 -0.275 -3.74e-16)
(-0.00173 -0.388 -2.9e-16)
(0.0596 -0.147 -2.63e-16)
(-0.0619 -0.149 0)
(0.0131 -0.494 -3.38e-16)
(0.00426 -0.508 2.01e-16)
(-0.00486 -0.48 4.32e-16)
(-0.0144 -0.125 -4.89e-16)
(-0.101 -0.198 4.43e-16)
(-0.128 -0.223 0)
(0.0573 -0.14 -3.27e-16)
(0.00547 -0.388 1.44e-16)
(0.0583 -0.398 0)
(0.0352 -0.436 3.07e-16)
(0.171 -0.371 -1.5e-16)
(-0.377 -0.376 2.43e-16)
(0.0435 -0.291 1.74e-16)
(0.38 -0.273 2.67e-18)
(0.00878 -0.479 3.97e-16)
(0.0201 -0.36 3.56e-16)
(-0.00653 -0.176 5.06e-16)
(-0.379 -0.401 -4.83e-16)
(0.00583 -0.185 -4.65e-16)
(-0.0289 -0.208 2.32e-16)
(-0.0423 -0.391 2.31e-16)
(-0.0201 -0.394 0)
(-0.0314 -0.428 0)
(0.35 -0.321 0)
(-0.092 -0.346 5.43e-16)
(0.0312 -0.475 -3.56e-16)
(0.0835 -0.429 -3.01e-16)
(-0.0309 -0.385 -6.33e-16)
(-0.146 -0.39 8.21e-17)
(-0.00824 -0.461 -1.71e-20)
(-0.14 -0.328 -7.23e-16)
(-0.131 -0.379 -8.06e-17)
(0.0539 -0.453 7.13e-17)
(0.152 -0.332 -3.68e-16)
(-0.158 -0.341 -1.78e-16)
(0.207 -0.428 0)
(-0.0385 -0.463 7.37e-17)
(-0.186 -0.406 4.11e-17)
(-0.000773 -0.0983 -8.57e-20)
(0.212 -0.433 0)
(-0.203 -0.403 4.58e-16)
(-0.177 -0.391 0)
(0.166 -0.381 -1.63e-16)
(0.0634 -0.148 5.89e-16)
(-0.0237 -0.44 -3.58e-16)
(0.0344 -0.0864 -3.95e-16)
(0.174 -0.397 0)
(-0.32 -0.397 0)
(0.00238 -0.517 -1.36e-16)
(0.307 -0.315 -7.48e-17)
(0.0165 -0.391 0)
(-0.035 -0.0829 -2.08e-16)
(0.191 -0.411 -1.53e-16)
(0.142 -0.317 0)
(-0.11 -0.419 -3.05e-16)
(0.112 -0.277 0)
(-0.0578 -0.442 3.06e-16)
(-0.0977 -0.417 -2.45e-16)
(0.0265 -0.466 0)
(0.046 -0.441 1.61e-16)
(0.0119 -0.413 0)
(-0.32 -0.433 0)
(-0.017 -0.502 2.95e-16)
(0.00346 -0.342 -2.83e-16)
(-0.246 -0.305 -3.24e-16)
(-0.203 -0.27 4.65e-16)
(0.0031 -0.103 0)
(-0.213 -0.431 7.87e-17)
(-0.018 -0.391 0)
(-0.194 -0.394 -4.15e-20)
(0.015 -0.389 1.42e-16)
(-0.225 -0.445 -2.83e-16)
(-0.0144 -0.36 0)
(-0.0269 -0.331 -6.02e-18)
(0.145 -0.337 1.64e-16)
(-0.00331 -0.509 4.31e-16)
(-0.231 -0.363 0)
(0.0734 -0.327 3.7e-16)
(-0.0947 -0.102 2.47e-16)
(-0.0561 -0.462 -1.14e-16)
(0.0631 -0.158 -2.9e-16)
(-0.0066 -0.516 7.07e-17)
(0.252 -0.354 -5.91e-20)
(-0.0682 -0.165 0)
(0.0938 -0.0967 -2.47e-16)
(-0.0445 -0.466 1.52e-16)
(0.182 -0.386 -4.7e-16)
(0.0113 -0.456 -3.4e-16)
(-0.0102 -0.118 0)
(-0.0446 -0.0544 0)
(-0.0452 -0.413 1.72e-16)
(0.00363 -0.487 -2.95e-16)
(0.188 -0.385 1.46e-16)
(0.178 -0.397 3.26e-16)
(0.0375 -0.042 2.18e-16)
(0.14 -0.171 9.07e-17)
(0.206 -0.234 1.53e-16)
(-0.00736 -0.464 0)
(0.0113 -0.509 1.39e-16)
(-0.322 -0.367 -2.34e-16)
(0.0049 -0.504 -7.21e-16)
(-0.0426 -0.438 1.31e-16)
(0.133 -0.318 1.87e-16)
(0.00636 -0.462 2.48e-16)
(-0.00142 -0.228 0)
(-0.0317 -0.407 0)
(-0.315 -0.435 -1.43e-16)
(0.00213 -0.231 -1.69e-16)
(-0.339 -0.402 3.37e-17)
(0.182 -0.397 1.88e-17)
(0.0571 -0.447 3.94e-17)
(-0.0397 -0.457 -1.51e-16)
(-0.0613 -0.151 5.07e-16)
(-0.0161 -0.395 1.69e-16)
(-0.191 -0.415 1.61e-16)
(-0.017 -0.397 1.41e-16)
(0.0164 -0.399 0)
(0.207 -0.42 -1.61e-16)
(-0.0218 -0.487 -2.97e-16)
(0.112 -0.267 0)
(0.0227 -0.476 4.36e-16)
(-0.287 -0.358 9.48e-17)
(-0.0558 -0.449 0)
(-0.119 -0.274 2.05e-16)
(0.0404 -0.455 0)
(-0.12 -0.279 3.78e-16)
(-0.0604 -0.435 0)
(0.015 -0.409 3.01e-16)
(0.157 -0.32 0)
(0.0144 -0.352 -3.76e-16)
(-0.132 -0.301 -2.13e-16)
(-0.151 -0.337 -4.48e-17)
(-0.00016 -0.214 -4.24e-16)
(0.198 -0.403 1.63e-16)
(0.13 -0.293 0)
(0.00343 -0.369 0)
(0.0611 -0.432 3.14e-16)
(-0.00316 -0.487 -2.18e-16)
(0.12 -0.284 -3.09e-16)
(-0.00258 -0.512 7.1e-17)
(0.109 -0.255 0)
(0.164 -0.363 1.85e-16)
(0.0185 -0.454 -4.29e-16)
(0.00518 -0.386 2.3e-16)
(0.035 -0.394 -1.83e-16)
(0.314 -0.391 7.32e-17)
(-0.02 -0.376 1.86e-16)
(0.196 -0.268 0)
(0.222 -0.437 0)
(-0.0188 -0.226 -4.02e-16)
(0.0117 -0.466 0)
(0.0862 -0.421 3.62e-16)
(-0.105 -0.145 -2.51e-16)
(0.00333 -0.312 0)
(-0.142 -0.32 -2.4e-16)
(-0.203 -0.233 -2.39e-17)
(-0.0381 -0.369 3.88e-16)
(0.0404 -0.373 3.46e-19)
(0.0566 -0.431 -2.05e-17)
(0.107 -0.151 0)
(0.128 -0.293 2.15e-16)
(0.05 -0.377 0)
(-0.0144 -0.468 -1.58e-16)
(-0.0027 -0.378 0)
(-0.203 -0.328 0)
(0.36 -0.402 -7.38e-17)
(0.132 -0.306 1.97e-16)
(0.298 -0.314 2.15e-17)
(-0.213 -0.42 -9.32e-17)
(0.167 -0.375 -1.59e-16)
(-0.307 -0.4 7.41e-17)
(0.193 -0.332 -9.6e-17)
(-0.0232 -0.496 -7.39e-17)
(0.297 -0.421 -1.9e-16)
(0.00189 -0.509 8.49e-17)
(0.0161 -0.462 8.54e-17)
(-0.0469 -0.453 4.65e-17)
(-0.047 -0.446 0)
(-0.19 -0.27 0)
(0.109 -0.252 -4.78e-16)
(-0.0691 -0.436 0)
(0.0681 -0.434 -1.74e-16)
(0.00119 -0.434 0)
(0.0297 -0.402 1.7e-16)
(-0.0384 -0.47 1.11e-16)
(-0.0624 -0.427 -1.86e-16)
(0.0595 -0.424 -1.83e-16)
(-0.181 -0.395 1.69e-16)
(-0.233 -0.327 0)
(0.262 -0.277 -1.37e-16)
(-0.0423 -0.446 -3.64e-16)
(-0.29 -0.355 8.49e-17)
(-0.00132 -0.442 0)
(-0.3 -0.354 1.85e-16)
(-0.243 -0.277 0)
)
;

boundaryField
{
    front
    {
        type            empty;
    }
    back
    {
        type            empty;
    }
    bottom
    {
        type            zeroGradient;
    }
    left
    {
        type            noSlip;
    }
    top
    {
        type            uniformFixedValue;
        uniformValue    
        {
            type            table;
            format          csv;
            file            "inlet_v.csv";
            nHeaderLine     1;
            refColumn       0;
            componentColumns List<label> 3(1 2 3);
            separator       ",";
            mergeSeparators 0;
        }
        value           uniform (0 -0.387 0);
    }
    right
    {
        type            noSlip;
    }
    inner_arc
    {
        type            noSlip;
    }
}


// ************************************************************************* //
