/*--------------------------------*- C++ -*----------------------------------*\
  =========                 |
  \\      /  F ield         | OpenFOAM: The Open Source CFD Toolbox
   \\    /   O peration     | Website:  https://openfoam.org
    \\  /    A nd           | Version:  9
     \\/     M anipulation  |
\*---------------------------------------------------------------------------*/
FoamFile
{
    format      ascii;
    class       volScalarField;
    location    "0.68";
    object      p;
}
// * * * * * * * * * * * * * * * * * * * * * * * * * * * * * * * * * * * * * //

dimensions      [0 2 -2 0 0 0 0];

internalField   nonuniform List<scalar> 
464
(
1.02959e-08
-1.58486e-08
-7.2033e-09
-4.9331e-09
-1.99976e-08
-7.24585e-09
4.15099e-09
-4.60127e-09
-4.45837e-09
-2.18187e-09
9.7193e-09
2.45027e-08
2.99884e-09
2.38544e-08
1.01423e-08
1.00239e-08
3.58185e-09
3.32983e-09
-1.24937e-09
-3.8396e-09
-4.62968e-09
-8.1019e-09
-6.61554e-09
-5.65269e-09
-5.37257e-09
-6.01862e-09
1.79747e-08
-1.56961e-09
1.72195e-08
-8.27572e-09
-8.00993e-09
3.83191e-09
4.9852e-09
3.25784e-09
1.9479e-09
1.93886e-09
7.44753e-10
-1.99887e-10
-9.34441e-10
7.44008e-09
-3.47246e-09
-6.98435e-09
-7.0272e-09
1.9709e-08
1.57867e-08
7.85502e-09
-2.63818e-09
-9.82996e-10
1.52442e-09
-1.95304e-09
-2.58802e-09
-5.40792e-10
-2.01576e-10
-3.54765e-09
-3.48172e-09
-4.86701e-10
-1.77383e-09
-4.79853e-09
-5.19504e-09
-7.32839e-10
1.44847e-09
-1.42049e-08
-3.66418e-09
-3.9602e-09
-8.84203e-09
-4.06693e-09
-6.58251e-09
2.2694e-09
1.29003e-08
-3.82188e-09
-6.03109e-09
-1.21469e-08
1.08555e-08
-7.55716e-10
-1.06745e-08
-8.12927e-10
-5.65446e-09
4.95115e-09
-3.83249e-09
1.23876e-08
-2.0794e-08
-8.05945e-09
-3.17421e-08
-1.01969e-08
-2.06971e-08
-4.94247e-09
-1.06029e-08
-8.49493e-09
-4.5315e-09
-8.4897e-09
-1.88685e-08
-1.4705e-08
-5.74546e-09
1.83688e-08
-6.79731e-09
-4.9932e-09
-4.41923e-09
-7.04034e-09
-1.88391e-08
-3.21351e-09
-4.67479e-09
-1.37009e-09
-5.96647e-09
2.69359e-09
3.58192e-09
-3.11392e-08
-9.25605e-09
-5.74756e-09
-1.91916e-08
-3.09181e-09
-7.05353e-09
-1.7832e-09
-6.64468e-09
-1.4097e-08
-3.37382e-09
-4.50119e-09
-2.81813e-08
-1.14427e-08
-2.03156e-08
-8.98887e-09
-2.3266e-09
2.41232e-09
-8.05644e-09
9.41255e-09
-5.49139e-09
-6.1926e-09
-3.32088e-09
-8.6688e-09
1.92728e-09
-2.93153e-08
-1.05553e-08
2.61956e-08
4.0024e-10
-5.55763e-09
-9.31006e-09
-2.48262e-08
-1.17789e-08
-2.61536e-09
-3.59836e-09
-9.8199e-09
-1.2094e-08
-5.89828e-09
-7.06463e-09
-4.43747e-09
-1.25099e-08
-1.19251e-08
-4.36679e-09
-9.05393e-09
-4.17332e-09
-8.85881e-09
-5.81891e-09
-5.46523e-09
2.1718e-09
-7.5864e-09
-2.33009e-08
-1.0524e-08
3.69609e-09
-4.16381e-09
-2.49374e-09
-1.71358e-08
-2.32758e-09
-5.18351e-09
-1.03278e-08
-7.07356e-09
-6.17077e-09
-1.18194e-08
5.79815e-10
-5.40411e-09
5.07224e-09
-1.20048e-08
-1.16973e-08
-1.31005e-08
-1.53971e-08
-8.8816e-09
-1.30626e-08
-8.67626e-09
-4.12094e-09
-4.64911e-09
6.29987e-09
3.20682e-09
-4.41364e-09
-8.2352e-09
6.09508e-09
6.023e-09
7.85388e-09
7.01411e-09
-1.08053e-08
-1.05097e-08
-1.37683e-08
-1.10639e-08
-2.42995e-09
-1.08745e-08
4.97149e-10
-1.6827e-09
-5.43509e-09
-6.1852e-09
-4.59194e-09
-2.91999e-09
7.05575e-09
-3.74424e-09
-3.04272e-09
-5.70338e-09
-2.3879e-09
-5.0341e-09
-1.06296e-08
-1.50443e-10
-3.59569e-09
-5.76405e-09
-6.95617e-09
-1.65635e-08
-1.08923e-08
-1.03751e-08
2.12464e-09
2.06051e-09
-4.39542e-09
-1.10073e-08
8.51835e-09
-1.371e-09
1.74228e-08
-7.63786e-09
5.43342e-09
-4.75616e-09
-4.39758e-09
-3.81421e-09
-4.0485e-09
-4.80947e-09
-3.86973e-09
-3.2506e-09
-3.38333e-09
-3.83714e-09
-3.35536e-09
-1.99581e-09
-2.4626e-09
-3.75787e-09
-1.32999e-09
-3.7283e-09
-7.13491e-10
-1.91192e-09
-2.62863e-09
-9.18865e-11
-3.66697e-09
-1.4883e-09
-1.23724e-09
-2.24833e-09
-3.49897e-09
1.28475e-09
-1.8454e-09
-3.26029e-09
6.89658e-11
-3.12279e-09
-1.34526e-09
8.15951e-10
-3.44782e-09
-6.71083e-09
-3.31621e-09
-1.55695e-09
-4.12727e-09
-2.98897e-09
-3.07143e-09
-7.94244e-10
-1.1401e-09
-3.30545e-09
-2.8101e-09
3.47201e-09
-1.10711e-09
1.60375e-09
-2.63686e-09
-2.97305e-09
7.82544e-09
7.15033e-10
-7.87267e-09
-4.44086e-10
-2.36728e-09
5.27447e-09
3.38752e-09
-2.42177e-09
1.62003e-12
-6.77416e-09
-9.06536e-09
-1.24697e-08
-3.29788e-09
-3.05896e-09
-8.73542e-09
-2.37882e-10
6.32908e-09
-5.94191e-09
-9.95646e-09
-7.66237e-09
-2.57355e-09
-3.32737e-09
-6.70849e-09
-3.51334e-09
-2.99871e-09
-3.33679e-09
-5.00988e-09
-7.58402e-09
-1.0576e-08
-8.2928e-09
-8.09629e-09
-9.65583e-09
4.44832e-09
1.09318e-09
8.28795e-09
2.07416e-08
9.53462e-10
-4.9168e-09
-4.9074e-09
-7.72682e-10
-1.6686e-08
-9.27045e-09
-4.21098e-09
-4.30722e-09
-3.51919e-09
1.99936e-09
-5.06784e-09
-5.37609e-09
-9.9619e-09
-1.1411e-08
-4.09111e-09
3.10158e-09
-8.51848e-09
-7.9535e-09
-1.47286e-08
-8.41136e-09
-2.65065e-09
1.45822e-09
2.46728e-09
6.98991e-09
-2.00252e-09
-8.52215e-09
-5.10666e-09
-6.23096e-09
-5.51933e-09
-3.34242e-09
-4.64872e-09
-4.06964e-09
-7.77353e-09
-4.93479e-09
-9.41804e-09
-6.07004e-09
-4.46134e-09
1.12838e-08
-7.51781e-09
-9.80615e-09
-3.24469e-09
-3.43994e-09
1.63886e-09
-6.38292e-09
-4.83135e-09
-4.67661e-09
-3.0083e-09
-5.19231e-09
-8.00831e-09
-7.65515e-09
-2.54746e-09
-9.22995e-09
-7.9652e-09
-2.60699e-08
-8.22253e-09
-1.76727e-08
-6.37139e-09
-4.16271e-11
-7.95847e-09
-2.13213e-08
1.18109e-08
-1.60272e-09
-3.65933e-09
2.16401e-09
2.84096e-08
-9.19126e-09
-4.26541e-09
2.74904e-08
8.58947e-09
3.85656e-09
2.00707e-08
-5.95979e-09
1.23419e-08
-7.43442e-09
1.63852e-08
-9.19672e-09
9.61823e-09
4.61162e-09
3.64197e-09
9.85963e-10
1.5219e-10
1.80023e-09
2.99233e-10
-7.19704e-09
5.32193e-09
4.23601e-09
-1.41205e-09
3.84775e-10
6.66416e-10
8.38151e-10
-3.66977e-09
-5.75697e-09
-4.83077e-09
-6.8839e-09
-6.36226e-09
1.0056e-08
-9.39547e-09
-5.69413e-09
1.91502e-08
-3.41697e-09
2.60923e-09
7.32485e-09
2.12719e-08
-2.19198e-09
9.0508e-09
-2.53276e-09
-3.44962e-09
-3.09092e-09
-6.91385e-09
-6.44656e-09
-5.96587e-09
-9.86628e-09
3.47322e-08
-2.4408e-09
-6.37905e-09
-1.46795e-08
-3.73483e-09
-5.48336e-09
1.14159e-08
2.44704e-08
9.35388e-09
8.45233e-09
1.38885e-08
1.2663e-08
1.11492e-08
-3.10053e-08
-8.88103e-09
1.78137e-10
4.99249e-09
-8.4789e-09
-7.29522e-10
5.42432e-09
4.58781e-09
-6.86964e-09
4.2883e-09
-1.03373e-08
-4.60087e-10
1.41537e-09
-3.08835e-09
-3.79768e-09
-6.00282e-09
-4.88229e-09
-5.86235e-09
-7.5577e-09
-5.09337e-09
-2.97151e-09
5.84137e-09
2.31782e-09
5.40312e-09
-6.82114e-09
-1.42055e-09
2.43431e-09
9.89345e-10
-2.20459e-09
-3.45299e-09
-2.93032e-09
-3.02009e-09
3.32249e-08
1.94631e-08
-6.85994e-09
)
;

boundaryField
{
    back
    {
        type            empty;
    }
    front
    {
        type            empty;
    }
    left
    {
        type            zeroGradient;
    }
    top
    {
        type            zeroGradient;
    }
    right
    {
        type            zeroGradient;
    }
    bottom
    {
        type            uniformFixedValue;
        uniformValue    
        {
            type            scale;
            scale           
            {
                type            squarePulse;
                start           0.3;
                duration        0.3;
            }
            xScale          
            {
                type            constant;
                value           1;
            }
            value           
            {
                type            constant;
                value           15.1;
            }
        }
        value           uniform 0;
    }
}


// ************************************************************************* //
