/*--------------------------------*- C++ -*----------------------------------*\
  =========                 |
  \\      /  F ield         | OpenFOAM: The Open Source CFD Toolbox
   \\    /   O peration     | Website:  https://openfoam.org
    \\  /    A nd           | Version:  9
     \\/     M anipulation  |
\*---------------------------------------------------------------------------*/
FoamFile
{
    format      ascii;
    class       surfaceScalarField;
    location    "0.68";
    object      phi;
}
// * * * * * * * * * * * * * * * * * * * * * * * * * * * * * * * * * * * * * //

dimensions      [0 3 -1 0 0 0 0];

internalField   nonuniform List<scalar> 
663
(
-3.18766e-14
2.31536e-14
8.723e-15
1.61544e-14
3.1253e-14
-1.69885e-16
1.69885e-16
3.00849e-15
-1.48338e-15
-1.52512e-15
-1.39144e-14
3.00688e-14
1.50331e-17
-1.84917e-16
-2.58e-14
-6.07661e-15
9.93856e-16
2.01464e-15
-2.98112e-14
1.1397e-14
1.84142e-14
7.24471e-15
-3.70559e-14
-2.31179e-14
4.62715e-14
2.41778e-14
-2.03528e-14
-3.82493e-15
-1.4403e-14
2.5146e-14
-9.68253e-16
-2.45427e-15
5.59457e-15
-3.1403e-15
-3.04336e-15
5.89081e-16
5.19644e-15
-3.50567e-15
-1.69078e-15
5.16017e-15
3.62786e-17
1.18105e-16
-1.18105e-16
9.43106e-15
-1.11635e-14
1.73244e-15
-2.01087e-15
1.14419e-14
-3.70639e-15
-4.30324e-15
8.00963e-15
-8.8994e-15
5.19301e-15
-3.82896e-15
3.16685e-15
6.62112e-16
3.14902e-16
-1.79828e-15
-2.14131e-15
-1.68765e-15
-1.11229e-14
1.11365e-14
-1.36528e-17
3.25207e-15
-1.13915e-15
-2.11292e-15
-9.48354e-15
-1.63935e-15
6.03596e-15
-5.07495e-15
-9.61008e-16
2.89001e-15
3.14595e-15
4.0162e-15
-1.32641e-15
-2.68979e-15
1.06509e-15
2.95111e-15
-1.98977e-15
-3.54415e-16
2.34419e-15
1.97232e-15
-3.96209e-15
3.51683e-15
1.64333e-15
8.11508e-15
-4.59825e-15
-4.99227e-16
6.17332e-16
8.2971e-16
2.42236e-15
1.81933e-15
1.89588e-16
-2.00891e-15
-6.21711e-15
-4.9464e-15
9.50836e-15
-1.08908e-14
1.38245e-15
6.0896e-16
6.72737e-15
4.40918e-15
-1.36255e-14
-1.22403e-15
-4.9024e-15
1.01516e-14
-5.24921e-15
-9.51071e-15
8.74912e-15
7.61593e-16
-1.44704e-15
1.44704e-15
-1.63838e-15
3.74996e-15
-9.96706e-15
4.42084e-15
8.67682e-16
-5.28852e-15
-9.91175e-15
1.71079e-15
8.20095e-15
1.01378e-15
-7.36685e-15
6.35306e-15
1.20718e-14
-1.10581e-14
-2.80247e-15
7.22331e-15
-7.70487e-15
-3.71615e-15
-3.82799e-15
7.54414e-15
7.82453e-15
-1.15407e-14
-8.23218e-15
-1.67956e-15
-6.17332e-16
-1.60736e-14
2.64402e-14
-1.03666e-14
-6.82287e-15
1.08699e-15
5.73588e-15
5.26072e-15
-7.2356e-15
1.97488e-15
-1.90265e-14
2.62712e-14
-2.55937e-15
-4.80748e-15
-3.75748e-15
6.38689e-15
-2.62941e-15
2.31472e-15
-2.69428e-14
1.02562e-16
1.19693e-14
1.02768e-14
-2.45223e-15
-3.51001e-14
-4.02726e-15
-5.45628e-15
-3.26658e-15
-6.24413e-15
2.59303e-15
-5.00598e-15
2.41294e-15
-2.86616e-15
4.68177e-15
-8.43925e-15
-2.36993e-14
3.24223e-14
-7.68449e-15
3.8565e-15
1.56731e-15
2.15633e-14
1.02267e-14
-3.179e-14
-1.23009e-15
1.17603e-15
5.40601e-17
3.6364e-15
-1.11066e-14
7.47018e-15
4.61347e-16
1.15823e-16
-5.7717e-16
2.51997e-14
-4.42954e-15
-2.39333e-15
1.52092e-14
1.12311e-14
-7.68743e-16
-4.8567e-15
3.73221e-15
1.12449e-15
5.63141e-15
-3.03838e-15
1.48331e-14
-2.48734e-14
6.28757e-17
-4.28715e-15
4.22428e-15
-1.88027e-14
-1.10974e-14
2.99001e-14
2.32582e-15
-2.26294e-15
5.76876e-15
-2.42377e-15
-3.02203e-16
1.47823e-15
1.13321e-15
-3.08784e-15
1.95464e-15
8.98616e-15
-2.33891e-14
-3.21497e-15
-1.64173e-15
-1.67399e-15
1.04231e-14
2.38275e-15
-5.59772e-15
2.3474e-15
-3.67381e-15
1.99298e-15
-1.11066e-14
1.15824e-16
1.81487e-15
4.57203e-15
-2.61743e-15
1.74505e-14
-9.42769e-15
1.23002e-14
-2.87253e-15
4.94511e-16
-2.11948e-15
1.62497e-15
6.88503e-15
-2.47228e-15
7.76962e-15
-6.63642e-15
-6.34156e-16
4.36637e-15
-3.55548e-15
5.93823e-15
-7.47018e-15
4.85275e-15
6.17311e-16
5.77169e-16
-1.19448e-15
-3.08784e-15
3.10677e-15
-2.48946e-15
-1.11017e-14
-1.04777e-14
1.94639e-14
1.80913e-14
-2.88209e-15
-2.37946e-14
1.7718e-14
5.84722e-15
-3.43468e-15
3.92919e-15
1.64084e-14
1.68288e-15
-7.30848e-16
-1.38863e-15
4.79191e-15
-2.81959e-15
7.23943e-15
-7.23943e-15
2.36768e-15
-5.92316e-15
-1.15504e-15
-4.71199e-15
5.86703e-15
4.85275e-15
-1.19448e-15
1.09044e-15
-3.20335e-15
-3.63012e-15
3.63012e-15
2.03057e-15
-3.18561e-15
3.95079e-15
-9.57654e-15
7.12432e-15
5.30407e-15
-2.03057e-15
8.36092e-16
-7.68275e-16
-4.2377e-15
-4.09617e-15
6.46385e-15
2.33803e-15
-6.50333e-15
-7.32271e-16
-4.08481e-15
4.54686e-16
1.83832e-15
-5.93449e-15
-7.27806e-15
1.3549e-15
1.12081e-14
-1.59885e-15
-9.60925e-15
-1.26787e-15
-2.16681e-15
1.76491e-15
3.18561e-15
4.44515e-16
-3.62289e-15
1.17218e-16
-4.08945e-15
5.92777e-15
5.93068e-15
7.44495e-15
1.00056e-14
2.94775e-15
-8.28799e-15
5.34024e-15
1.17207e-15
-5.26152e-15
-5.95269e-16
3.00821e-15
-4.08481e-15
6.37875e-16
-4.72268e-15
6.78629e-15
-3.83853e-15
-9.15664e-15
9.79451e-15
4.41261e-16
-1.38508e-15
9.43821e-16
5.91093e-16
-5.91093e-16
4.38629e-17
5.47231e-16
1.8676e-14
1.18636e-15
-1.95464e-15
-9.01523e-15
-1.18636e-15
-5.88687e-16
-1.42161e-16
-3.39233e-15
4.5644e-15
-3.48483e-15
9.25031e-17
3.15963e-15
8.04847e-15
7.28583e-16
-2.37631e-15
1.64773e-15
6.48476e-15
-9.96959e-15
-7.38288e-16
4.20737e-15
-3.46908e-15
5.19109e-16
-5.19109e-16
1.24769e-15
-5.66672e-17
4.97928e-16
5.66668e-17
-5.75775e-16
1.21484e-15
-1.95313e-15
1.21484e-15
-5.44822e-16
-4.38642e-17
-9.9305e-15
-1.24216e-15
1.11727e-14
5.44822e-16
6.70019e-16
4.05549e-15
-4.05549e-15
4.92614e-16
-1.79632e-15
-9.74436e-15
-1.07e-14
8.90367e-15
-1.11675e-14
-1.09674e-14
1.10699e-14
2.05273e-16
-1.02674e-14
-4.32567e-16
4.75338e-15
-4.5481e-15
-1.11985e-14
9.31131e-16
4.5481e-15
4.75338e-15
4.62477e-15
-4.62477e-15
4.19221e-15
-1.95313e-15
2.31472e-15
-3.04452e-15
3.04452e-15
-4.72269e-15
4.97928e-16
2.84391e-15
-2.84391e-15
4.19221e-15
1.24769e-15
1.28603e-16
-1.50264e-16
-2.46687e-15
-1.32621e-15
-1.14066e-15
-1.47648e-15
-3.08081e-15
-6.90792e-15
9.98872e-15
-2.19991e-15
7.23429e-16
-2.25029e-16
-3.30584e-15
-9.13135e-15
2.22344e-15
-4.32208e-15
-4.80928e-15
5.15081e-15
-9.42319e-15
1.16466e-14
5.50658e-16
3.13895e-15
4.37153e-15
-7.51048e-15
8.36026e-15
-5.2213e-15
-3.77142e-15
-5.39999e-15
9.77152e-15
1.37939e-15
-5.52365e-15
-1.98683e-15
3.55098e-15
-3.84191e-15
1.89397e-15
-7.09077e-15
-3.62968e-15
7.83402e-16
-1.19509e-14
-6.26084e-15
4.27401e-15
-3.93928e-15
-5.36198e-15
-8.98866e-16
-2.81676e-15
5.5035e-15
-4.52948e-15
-9.7402e-16
4.36354e-15
2.18162e-15
-5.8113e-15
-3.18036e-15
-1.40448e-15
7.33226e-15
-3.93928e-15
2.32315e-15
-4.8556e-15
2.24232e-15
2.61328e-15
-2.74412e-15
5.06727e-15
4.9453e-15
-2.05679e-15
-2.88852e-15
2.40014e-15
-5.14426e-15
1.3687e-15
-5.93696e-15
4.56825e-15
-2.45546e-15
8.15499e-15
2.48984e-15
5.45681e-15
-6.29534e-15
3.15504e-15
-5.29521e-15
-6.41746e-16
-8.57071e-15
-2.27319e-15
4.76303e-15
2.3808e-15
-6.21934e-15
-1.72708e-15
-4.33079e-15
2.91441e-15
-5.1876e-15
-6.72878e-16
-3.51933e-15
3.51933e-15
3.53192e-15
-6.00272e-15
-2.16613e-16
5.11422e-15
1.89852e-16
9.79174e-16
-6.55614e-15
9.71118e-15
-4.54511e-16
-5.54821e-15
7.89125e-16
2.7302e-15
1.27285e-14
-1.10457e-14
-2.59065e-15
-8.7425e-15
-1.03279e-15
-7.70971e-15
1.16958e-14
-6.6537e-15
-7.68001e-15
4.25428e-17
7.91344e-15
-2.7302e-15
7.77071e-16
-2.4051e-15
1.73508e-15
7.63034e-15
-4.26901e-15
-1.21863e-14
2.28503e-14
-1.0664e-14
6.34333e-15
7.41615e-15
6.98933e-16
3.25026e-15
1.894e-15
-8.16038e-16
1.17705e-14
-8.41403e-16
1.1237e-14
1.33574e-14
-7.42675e-15
1.04067e-15
4.14693e-15
-5.13404e-15
1.27644e-14
-5.25645e-16
1.5195e-15
1.65171e-14
-1.8223e-15
-3.25266e-15
-6.09849e-15
-3.2939e-15
3.2939e-15
5.05467e-15
7.82988e-15
3.61206e-15
2.86138e-14
-1.17544e-14
5.11953e-16
-5.11953e-16
1.21681e-14
-3.11561e-15
6.18733e-15
-8.26855e-16
8.26855e-16
-3.06093e-15
-3.01209e-16
3.01209e-16
-4.40363e-15
-3.87003e-14
-8.58659e-15
-3.13913e-15
-6.42264e-17
-2.59202e-15
4.21665e-15
-5.32142e-15
1.28278e-14
1.50331e-17
1.28278e-14
1.50331e-17
-1.02339e-14
4.14869e-14
2.69343e-16
-9.94581e-17
-5.28511e-15
-1.30857e-16
-1.7212e-15
3.51741e-14
2.11913e-17
-1.39296e-16
1.1682e-15
3.62372e-15
6.27118e-15
-3.45047e-15
4.53856e-17
2.55823e-16
-2.83026e-15
4.2549e-15
-2.81593e-15
-8.0696e-16
2.83026e-15
9.22482e-15
-7.18826e-15
-1.2766e-15
2.61437e-15
6.87516e-16
6.07901e-16
-3.21253e-17
-1.43149e-15
-3.71846e-15
-3.33154e-15
-1.34881e-15
-2.44352e-15
1.36491e-15
-1.40119e-15
-8.72426e-15
5.17327e-15
2.22849e-15
-2.22849e-15
5.04233e-15
7.09372e-15
-6.35754e-15
-1.09073e-15
6.73358e-15
-1.23034e-14
3.21968e-14
2.69342e-16
3.07705e-14
4.53855e-17
2.33287e-14
-6.278e-15
1.26145e-14
-1.26145e-14
2.11913e-17
-1.40114e-14
2.11913e-17
-1.66135e-14
-2.04424e-14
1.11315e-15
-1.17737e-15
1.13616e-15
-1.37878e-15
2.42611e-16
-4.24491e-15
-1.35281e-15
6.27118e-15
-5.25231e-16
3.42128e-16
-1.58887e-14
-1.2766e-15
-6.87516e-16
-1.05489e-16
1.36491e-15
1.40119e-15
5.76576e-15
7.49819e-15
-7.02522e-15
-1.8322e-15
-3.04046e-15
-7.27192e-17
-6.65769e-17
5.97951e-16
)
;

boundaryField
{
    back
    {
        type            empty;
        value           nonuniform List<scalar> 0();
    }
    front
    {
        type            empty;
        value           nonuniform List<scalar> 0();
    }
    left
    {
        type            calculated;
        value           uniform 0;
    }
    top
    {
        type            calculated;
        value           uniform 0;
    }
    right
    {
        type            calculated;
        value           uniform 0;
    }
    bottom
    {
        type            calculated;
        value           nonuniform List<scalar> 8(-4.74073e-14 -1.68594e-14 4.31039e-14 -2.67422e-14 -4.24307e-14 2.66259e-14 4.66592e-14 1.70507e-14);
    }
}


// ************************************************************************* //
