/*--------------------------------*- C++ -*----------------------------------*\
  =========                 |
  \\      /  F ield         | OpenFOAM: The Open Source CFD Toolbox
   \\    /   O peration     | Website:  https://openfoam.org
    \\  /    A nd           | Version:  9
     \\/     M anipulation  |
\*---------------------------------------------------------------------------*/
FoamFile
{
    format      ascii;
    class       volVectorField;
    location    "0.68";
    object      U;
}
// * * * * * * * * * * * * * * * * * * * * * * * * * * * * * * * * * * * * * //

dimensions      [0 1 -1 0 0 0 0];

internalField   nonuniform List<vector> 
464
(
(-6.05608e-07 -7.19474e-07 -2.22457e-26)
(-4.04644e-07 1.24555e-06 0)
(1.62044e-09 2.68722e-09 0)
(7.08196e-08 -3.06564e-09 3.10144e-25)
(-2.87733e-07 1.01345e-06 0)
(1.34242e-09 2.29101e-09 -1.14514e-25)
(-5.84111e-07 -4.87451e-07 4.29268e-25)
(6.71527e-08 -1.38625e-08 0)
(-7.16132e-07 5.64705e-08 -7.65957e-26)
(-6.81099e-07 4.72998e-07 -3.18308e-25)
(-4.84294e-07 -9.20611e-07 3.41734e-26)
(-2.04682e-07 -6.71414e-07 -3.48613e-26)
(-6.37144e-07 -1.49751e-07 -4.20757e-26)
(-1.52218e-07 -6.24665e-07 0)
(-4.1325e-08 -1.44494e-07 3.12878e-25)
(-2.20191e-08 -9.41793e-08 -5.89193e-25)
(-3.47551e-08 1.48114e-07 0)
(-2.24964e-08 1.40279e-07 7.82774e-26)
(3.12785e-09 -1.85343e-09 -6.68587e-26)
(-5.34567e-09 3.35905e-07 2.44154e-25)
(8.58579e-09 3.53406e-07 -3.74571e-25)
(8.36023e-08 2.37925e-07 1.18668e-25)
(9.47814e-08 2.50387e-07 -5.23179e-26)
(8.16958e-08 2.45443e-08 0)
(5.02494e-08 1.89847e-09 -3.18535e-25)
(8.17653e-08 4.04237e-08 1.88316e-25)
(-6.44069e-08 -2.7875e-07 -5.13846e-25)
(4.30233e-08 -5.99134e-08 -7.59649e-26)
(-8.80195e-08 -3.04853e-07 0)
(7.75259e-08 1.30427e-07 0)
(9.44101e-08 1.10321e-07 2.60038e-26)
(-7.65305e-08 -5.61688e-08 -1.48605e-27)
(-6.12809e-08 -7.1346e-08 3.9201e-26)
(-6.35188e-08 3.03046e-08 1.43736e-25)
(-8.15227e-08 4.48114e-08 -1.44862e-25)
(-2.06806e-08 1.7224e-07 -9.30163e-26)
(-4.03377e-08 2.26516e-07 7.61609e-26)
(7.67399e-09 -1.33854e-08 -7.8346e-27)
(3.36659e-08 -7.29441e-08 2.25486e-26)
(-1.98008e-08 -5.87798e-08 0)
(-2.31389e-08 3.3504e-07 2.81933e-25)
(5.7649e-08 3.1063e-07 0)
(8.01137e-08 2.82962e-07 -1.28953e-25)
(-7.83843e-08 -3.71504e-07 -1.00936e-24)
(-1.62592e-07 -5.21103e-07 1.02938e-24)
(-3.13705e-08 -8.88467e-08 2.5914e-26)
(1.14387e-07 -2.01604e-07 1.28345e-25)
(3.36646e-08 -2.38165e-07 1.82609e-26)
(7.59811e-09 -2.72273e-08 0)
(2.24753e-08 -3.26214e-08 7.58535e-27)
(-2.46033e-08 3.44696e-07 -1.78537e-25)
(4.00099e-08 -1.26527e-07 3.21156e-27)
(-1.14338e-08 2.52445e-07 -4.09963e-26)
(3.12505e-08 -2.20851e-07 -2.11821e-25)
(2.56585e-08 -3.24004e-07 -6.55703e-27)
(5.92288e-08 -1.74414e-07 2.13007e-26)
(9.75895e-08 -1.83829e-07 0)
(-1.01021e-07 -1.88983e-07 0)
(-7.98876e-08 -2.73894e-07 -3.34792e-25)
(-2.38293e-08 2.7416e-07 0)
(1.23993e-08 -3.74502e-08 -5.4525e-26)
(-3.3198e-07 6.50712e-07 1.5507e-24)
(-1.36764e-07 -9.59709e-08 5.14494e-25)
(-4.76097e-08 -1.5286e-07 -2.41062e-25)
(-5.62583e-07 5.41227e-07 -3.98574e-26)
(6.06836e-08 -1.46596e-07 -2.17682e-25)
(-8.34348e-08 -1.52897e-07 -3.67401e-25)
(1.45796e-08 -6.98404e-08 1.27413e-25)
(-3.50078e-07 -8.0143e-07 -3.68177e-25)
(4.03051e-09 -3.51955e-07 2.39107e-25)
(-7.42171e-08 -2.68046e-07 3.34098e-25)
(-4.47676e-07 7.33082e-07 -8.15314e-25)
(-7.49289e-08 -2.39295e-07 0)
(5.51755e-08 -2.37847e-07 5.20443e-26)
(-4.62556e-08 1.13355e-07 -6.25677e-25)
(5.62614e-08 -1.12937e-07 5.19496e-26)
(-1.01316e-07 -1.71375e-07 -3.59215e-25)
(-6.81203e-07 -6.29062e-07 -4.46848e-25)
(-9.19744e-08 -1.39872e-07 -2.45079e-25)
(-3.48211e-08 -1.66418e-07 3.20262e-25)
(-2.72316e-07 8.50608e-07 0)
(1.85525e-08 1.87017e-08 1.09886e-25)
(-6.42197e-08 3.54029e-07 -1.87324e-24)
(6.60973e-09 1.26652e-08 6.32565e-25)
(-1.66568e-07 6.34819e-07 0)
(-1.21779e-07 -1.56218e-07 3.00501e-27)
(-3.39089e-07 5.20354e-07 -7.44223e-25)
(2.01818e-08 2.99855e-08 0)
(1.13044e-07 -2.98308e-08 0)
(-8.41589e-08 1.29237e-07 -4.52598e-25)
(-2.03832e-07 6.06639e-07 1.13777e-24)
(-4.14511e-07 9.134e-07 0)
(-9.1491e-08 -6.10813e-08 3.80144e-25)
(-2.82644e-07 -9.59236e-07 -9.46998e-25)
(-7.21556e-08 -3.82147e-08 -3.74031e-25)
(-1.28871e-07 -1.18619e-07 -2.5777e-25)
(-6.62601e-08 -2.12878e-07 2.45648e-25)
(3.44138e-08 2.34201e-08 -1.0078e-25)
(-1.52593e-08 9.64436e-08 -1.16239e-24)
(-5.67429e-07 1.77442e-08 4.50182e-27)
(1.17521e-07 3.70946e-09 0)
(4.20406e-08 -2.90319e-07 2.76693e-26)
(1.33389e-07 2.73165e-08 0)
(-7.73083e-08 -2.33068e-08 1.45413e-27)
(-6.11671e-08 -6.41309e-09 0)
(-4.33629e-08 2.33062e-07 -1.43167e-24)
(2.45414e-09 1.68501e-09 0)
(-9.8624e-08 -1.15065e-07 3.60438e-25)
(-1.14102e-07 4.40844e-07 -1.13899e-24)
(6.52324e-08 -2.99409e-07 0)
(-6.81194e-08 1.50252e-08 0)
(9.04039e-08 -2.46176e-07 -1.31021e-25)
(-7.88509e-08 -9.3667e-08 0)
(-5.06232e-08 1.9451e-07 7.88843e-25)
(1.23794e-07 -5.86364e-08 6.04955e-27)
(1.51786e-07 5.75145e-09 -4.28787e-27)
(-3.98551e-08 2.33467e-07 1.594e-24)
(1.01342e-08 3.49758e-08 7.40784e-25)
(-1.18295e-08 5.88522e-08 9.35157e-25)
(3.06864e-08 7.12027e-08 -3.7388e-26)
(6.91306e-08 -2.9993e-07 1.395e-25)
(-4.8553e-07 -1.20654e-07 -5.42158e-27)
(-4.29597e-07 3.74282e-07 3.37952e-25)
(-4.68136e-07 -5.24324e-07 -3.67127e-25)
(-9.59658e-08 -2.25995e-07 0)
(-8.35151e-08 4.03201e-08 4.10787e-25)
(-3.94821e-07 2.23885e-07 -3.40897e-25)
(-3.82379e-08 1.05763e-08 0)
(-8.56043e-08 8.03826e-08 0)
(-2.84569e-08 1.49339e-07 1.45119e-24)
(5.01013e-09 1.09425e-08 -4.91267e-25)
(-3.09965e-08 -1.53706e-07 -1.24163e-24)
(5.49037e-09 -1.09484e-08 4.43552e-26)
(1.5871e-07 4.04074e-08 0)
(3.5717e-08 1.7211e-07 0)
(-1.84884e-08 9.41379e-08 -1.26414e-24)
(6.35566e-09 2.4377e-08 -1.13455e-24)
(7.27054e-08 -6.66749e-08 -1.84584e-25)
(-5.36013e-07 3.26324e-07 3.67054e-25)
(4.57014e-09 7.58392e-08 4.46368e-25)
(1.35963e-08 1.00884e-07 0)
(-8.46856e-08 -9.9799e-09 0)
(-4.45056e-08 -2.57448e-07 -2.42267e-26)
(1.45128e-07 -5.18049e-08 2.2959e-25)
(1.27307e-08 6.44359e-08 7.08145e-25)
(-3.49444e-08 1.24181e-07 -7.30919e-25)
(1.63295e-07 5.95409e-09 0)
(3.95911e-08 5.79643e-08 0)
(-1.99723e-08 -2.25581e-07 4.43664e-27)
(7.55255e-09 1.53725e-07 -1.01052e-24)
(1.56712e-07 5.69674e-08 1.09946e-26)
(1.4131e-07 1.06681e-07 3.55892e-25)
(-2.18498e-07 -1.70721e-07 2.06812e-25)
(-7.06294e-08 6.87441e-08 -4.12609e-25)
(-2.4838e-08 1.50774e-07 -1.16731e-27)
(1.05251e-08 1.33011e-07 -6.81444e-25)
(-2.63251e-08 1.02055e-07 0)
(1.49995e-07 1.05099e-08 0)
(-4.19095e-07 4.43878e-09 -1.44659e-26)
(-1.4059e-07 4.16995e-07 1.0216e-24)
(-2.09884e-07 5.23607e-10 0)
(1.33432e-07 7.07508e-08 -2.87465e-25)
(-2.70828e-08 7.21596e-08 1.21402e-24)
(3.52585e-09 8.63012e-08 6.38674e-26)
(3.2588e-09 1.71467e-07 3.94502e-25)
(7.58452e-09 4.27499e-08 0)
(-1.7684e-07 -4.1394e-08 -5.33506e-26)
(8.25525e-09 2.89398e-07 3.07668e-25)
(-2.41918e-08 -2.8135e-08 -2.71717e-25)
(-4.67018e-09 1.07685e-08 1.16499e-24)
(-7.232e-09 1.27275e-08 -2.97918e-26)
(-2.38355e-07 4.56301e-07 -6.89254e-25)
(-9.94548e-09 6.04144e-08 -8.33819e-26)
(5.36401e-08 2.30403e-07 -1.17899e-25)
(-7.57601e-09 3.45422e-08 5.26517e-26)
(-2.6079e-08 -1.29875e-08 -5.07384e-25)
(1.15712e-07 7.95807e-09 2.83741e-25)
(9.04803e-08 7.82217e-08 -1.08062e-27)
(-2.37232e-07 -2.58219e-07 2.79105e-25)
(-2.76524e-08 5.82926e-08 -3.12104e-26)
(8.02629e-08 2.15943e-07 2.96907e-25)
(-3.18876e-08 -1.05068e-07 4.87007e-25)
(-4.8774e-09 1.10297e-08 0)
(-7.88271e-09 3.25274e-08 3.66504e-25)
(-5.54176e-09 -1.23925e-08 5.15548e-26)
(-7.68275e-09 8.26358e-09 1.08266e-26)
(-1.08546e-08 -5.98882e-08 0)
(-5.98209e-09 -2.44046e-08 -5.10603e-25)
(-5.53299e-09 2.20269e-08 -1.33717e-24)
(-8.10302e-09 -8.86889e-09 1.15078e-27)
(2.32416e-08 -3.25239e-07 -1.55789e-28)
(-9.52968e-09 -3.29219e-08 6.38717e-25)
(5.57515e-09 -8.06035e-08 5.49082e-26)
(2.21294e-08 -2.76255e-07 -9.24256e-26)
(-5.59832e-08 -3.13883e-07 3.37979e-28)
(-3.38581e-08 -3.02384e-07 -3.3905e-28)
(4.00154e-09 3.36093e-07 -2.82892e-25)
(3.84611e-08 -3.36748e-07 1.54132e-28)
(-4.2916e-09 -8.37986e-10 3.54937e-25)
(2.34473e-09 -3.39854e-07 2.42978e-25)
(8.6542e-09 -2.99735e-07 0)
(-1.77219e-08 -2.84839e-07 0)
(3.07963e-09 -1.76067e-07 0)
(-1.75838e-08 -3.31237e-07 2.83104e-28)
(-5.30323e-09 -1.11456e-08 0)
(8.23656e-09 -1.62255e-07 -5.48375e-26)
(3.144e-10 -9.55109e-08 0)
(-2.40288e-09 -9.28668e-08 -2.51161e-25)
(-6.6294e-09 -1.66765e-07 4.35566e-25)
(-7.6915e-09 3.67444e-08 7.63135e-25)
(7.26508e-09 6.4614e-08 5.08573e-25)
(-6.48239e-09 -3.92568e-08 0)
(7.96042e-09 -4.51362e-08 -1.05071e-25)
(-5.14725e-09 6.96974e-08 6.14178e-26)
(-3.86929e-11 9.58361e-08 0)
(-4.78125e-09 2.89518e-10 -5.42205e-25)
(-3.44545e-09 -1.00988e-08 -3.85258e-25)
(3.10088e-09 -9.12532e-08 3.634e-26)
(-1.26907e-08 -5.87711e-08 9.09058e-26)
(-4.65037e-09 -8.4186e-08 -3.48507e-25)
(-5.57645e-09 2.45968e-08 -2.72262e-25)
(-2.02768e-09 -1.77414e-07 3.14122e-25)
(-5.33648e-09 -3.02117e-07 -2.43271e-25)
(5.32072e-09 -1.54829e-07 4.54404e-25)
(6.32014e-08 7.94015e-09 2.68992e-25)
(3.29357e-08 8.73605e-08 -2.54505e-25)
(4.54195e-09 1.1302e-08 0)
(-6.5529e-08 2.25388e-07 9.94549e-26)
(-2.27586e-08 8.50165e-08 -5.75739e-27)
(-5.03458e-08 4.50784e-09 -2.19349e-25)
(-7.51113e-08 8.19795e-08 2.17412e-25)
(-7.47669e-08 2.59875e-07 -1.18664e-26)
(-1.00796e-07 1.95067e-07 0)
(-1.21982e-07 -1.20495e-07 -2.54677e-25)
(-5.66396e-08 3.11295e-07 8.57233e-26)
(-9.74994e-08 8.69988e-09 0)
(-1.15177e-07 1.73217e-07 -1.36811e-26)
(-1.22256e-07 1.59168e-07 -1.57257e-26)
(-1.13053e-07 7.46299e-08 1.86661e-25)
(-8.34014e-08 2.11706e-07 -3.46601e-26)
(-1.28668e-07 5.76558e-09 -1.90682e-25)
(-1.29071e-07 1.22595e-07 -6.26194e-26)
(-1.02648e-07 2.17633e-07 9.17325e-26)
(-1.3623e-07 6.03609e-08 0)
(-1.44407e-07 4.04646e-09 0)
(-6.32582e-08 1.81934e-07 -2.6339e-26)
(-1.44464e-07 4.52265e-08 -3.10798e-27)
(-4.27863e-09 3.00505e-07 0)
(-1.14046e-07 1.24269e-07 0)
(-4.92981e-09 1.69784e-07 0)
(-1.25248e-07 8.13476e-08 -3.00205e-26)
(-8.22864e-08 1.47989e-07 1.10768e-25)
(-1.31019e-07 -4.19426e-08 -2.5029e-25)
(-9.2791e-08 9.37398e-08 4.53997e-25)
(-1.46233e-07 2.51398e-09 0)
(-1.41145e-07 2.88773e-08 0)
(1.436e-07 -1.05384e-07 0)
(-6.66719e-09 8.77232e-08 -4.69252e-26)
(-1.38213e-07 8.04023e-10 -1.29653e-25)
(-1.11538e-07 6.03609e-09 0)
(-1.31499e-07 1.39342e-08 1.23366e-25)
(-1.17091e-07 9.0672e-09 4.94315e-25)
(-1.29513e-07 -2.82099e-10 1.18951e-25)
(-1.17549e-07 -1.09459e-07 1.16204e-25)
(-1.25483e-07 1.82637e-09 -1.18953e-25)
(-1.55496e-07 -1.15413e-07 -3.65762e-25)
(-1.24514e-07 1.17229e-09 -3.51484e-28)
(9.98314e-08 -8.53885e-08 -5.91295e-27)
(-7.74693e-08 -1.6741e-07 -2.55623e-25)
(-1.21169e-07 -6.80847e-08 -1.17779e-25)
(3.31627e-08 2.34839e-07 -4.09605e-25)
(-1.23559e-07 -9.95967e-09 0)
(-1.56977e-07 -5.40353e-11 5.16483e-26)
(-8.25916e-08 -1.26629e-07 -1.14799e-25)
(-4.40302e-07 -3.55803e-07 7.39997e-26)
(-1.30351e-07 6.67894e-10 0)
(-1.38972e-07 -2.43815e-08 0)
(-2.68535e-08 -2.51002e-07 -4.12654e-25)
(-6.06372e-09 -7.08401e-08 0)
(-6.36362e-08 1.82548e-07 -6.48288e-26)
(-1.46963e-07 6.46544e-08 1.32717e-27)
(1.43519e-07 -9.61216e-08 -4.5425e-27)
(-9.88129e-09 -1.46066e-07 0)
(3.87526e-08 -1.82721e-07 -2.14349e-26)
(-1.20744e-07 -2.10793e-07 -2.62089e-25)
(-1.55053e-07 1.15969e-07 -2.70195e-25)
(-1.15175e-08 -1.18664e-07 -5.99944e-25)
(-3.08073e-07 2.61484e-07 0)
(1.15683e-07 -1.40838e-07 0)
(-1.96882e-07 1.02803e-07 2.77357e-25)
(-2.15829e-07 1.77258e-07 1.78211e-27)
(-2.79239e-07 1.54328e-07 -1.43783e-27)
(1.43177e-07 -1.35973e-07 -2.19204e-25)
(8.11918e-08 -2.03974e-07 4.44056e-25)
(-1.25554e-07 -7.94335e-08 2.55955e-25)
(-3.17687e-08 -2.05447e-07 8.99454e-25)
(-1.16572e-08 -8.89676e-08 0)
(-4.14278e-08 -3.83344e-08 7.90084e-27)
(-4.58974e-08 -9.06171e-08 -4.881e-25)
(-2.40463e-07 3.60444e-07 6.82807e-25)
(-1.63502e-07 -1.73725e-07 2.02096e-25)
(-2.45042e-07 -6.0519e-08 -5.35077e-26)
(-2.53154e-07 -4.57843e-07 -1.12178e-24)
(-1.68301e-07 -7.47713e-07 1.19063e-24)
(-3.96741e-08 2.57045e-07 6.65694e-27)
(-1.17322e-07 -4.15808e-08 -2.53546e-25)
(-1.09755e-07 -5.4974e-09 -4.9305e-25)
(-2.3889e-08 2.23224e-07 2.93615e-28)
(-7.64787e-08 2.95777e-07 -1.94902e-24)
(-2.4806e-08 2.87727e-08 -5.57166e-25)
(-1.58841e-08 -3.27429e-07 -2.39165e-25)
(1.56136e-07 -7.97313e-08 -1.56426e-27)
(-1.38275e-07 -6.93533e-08 0)
(-3.499e-07 -8.70401e-08 -7.605e-27)
(-1.08945e-07 3.06146e-08 -4.99245e-25)
(-1.21768e-07 6.90971e-08 0)
(-6.59351e-09 -5.5028e-08 4.75625e-25)
(-1.64632e-07 3.10922e-07 0)
(4.25331e-08 -1.08921e-08 0)
(-3.15495e-07 -2.53041e-07 -2.83364e-25)
(7.97073e-08 1.68102e-07 3.73849e-25)
(-4.92521e-08 -1.46496e-07 -1.69411e-27)
(-9.42639e-08 2.79154e-07 9.4003e-25)
(-2.89908e-08 -5.72224e-08 4.98272e-25)
(-2.96638e-07 4.18805e-09 6.94701e-26)
(1.21805e-08 -1.37716e-07 3.41464e-26)
(1.46956e-08 -1.04956e-07 1.21347e-25)
(-3.43048e-07 -3.73445e-07 3.24974e-25)
(9.20536e-08 -1.19557e-07 0)
(-1.66238e-07 2.43313e-07 -5.51538e-25)
(3.3516e-08 3.36055e-07 -1.82541e-25)
(-7.25972e-07 4.40886e-07 -9.98897e-26)
(1.05632e-08 1.07316e-09 -1.33062e-25)
(-1.2214e-07 -1.66248e-08 4.90386e-25)
(-2.90673e-08 -3.43042e-07 -2.81705e-28)
(1.10088e-07 -1.30548e-07 -2.19165e-25)
(1.00153e-07 1.91105e-07 -3.64456e-25)
(1.46742e-08 -1.48489e-09 -2.33073e-25)
(-3.88902e-08 5.90419e-08 -3.15208e-26)
(3.7509e-08 3.35022e-07 3.52547e-25)
(6.21832e-09 -2.46209e-09 1.18914e-25)
(-6.01069e-07 -1.13449e-06 0)
(-1.18375e-07 1.58288e-07 -6.28471e-27)
(-1.13939e-07 2.06207e-07 5.47509e-25)
(-1.2255e-07 3.48136e-08 2.47782e-25)
(6.99548e-08 -4.40752e-08 8.53638e-26)
(7.54956e-09 -6.49688e-08 -1.71817e-25)
(-8.27594e-08 -2.12401e-07 3.5817e-25)
(2.65286e-08 7.19128e-11 2.85296e-25)
(-5.22782e-08 -3.09369e-07 0)
(1.20491e-07 -1.73703e-07 -5.21234e-27)
(2.18495e-08 -4.09134e-09 -1.35254e-25)
(-3.32266e-08 -1.55499e-07 0)
(-4.91517e-08 -2.03363e-07 -4.5447e-25)
(9.73755e-08 -2.54845e-07 -1.41901e-25)
(-1.33499e-07 7.24432e-07 1.4558e-24)
(-8.94657e-10 1.65577e-10 0)
(-3.89412e-08 3.12807e-07 -7.86105e-25)
(6.4013e-11 -8.31643e-10 -1.93089e-25)
(-5.15068e-07 1.17016e-06 0)
(9.84305e-09 5.79047e-09 -2.07407e-25)
(-7.37832e-07 -1.50181e-07 1.22828e-25)
(7.01069e-09 7.27627e-09 1.22436e-25)
(-2.2276e-07 8.5474e-07 0)
(-4.41899e-07 -1.05096e-06 2.87603e-26)
(1.52603e-09 -5.8523e-10 9.1725e-26)
(8.64796e-08 -3.12106e-08 0)
(-7.05515e-08 9.76547e-08 0)
(-5.83507e-08 -3.06141e-07 0)
(4.5592e-08 1.04156e-07 3.15767e-25)
(7.89323e-09 -4.21769e-09 0)
(-3.2891e-08 -2.03992e-07 2.43664e-24)
(-1.26632e-07 -2.5816e-07 -3.05415e-26)
(-3.80944e-08 1.02018e-07 0)
(-2.4054e-08 -1.28382e-07 1.1952e-25)
(9.60999e-08 9.90529e-09 0)
(-2.56748e-07 -5.43965e-07 6.34101e-25)
(3.80974e-08 2.76293e-07 6.92476e-25)
(-1.26504e-08 -8.49649e-08 1.83724e-24)
(4.78592e-08 1.59055e-07 1.49942e-25)
(-4.27e-09 -2.84715e-08 0)
(-3.52398e-08 -1.12929e-08 2.89735e-25)
(-3.81374e-08 3.87381e-08 0)
(-9.99526e-08 -1.16733e-08 1.71434e-26)
(-1.10678e-07 7.29332e-08 1.27089e-26)
(-1.03006e-07 -5.74067e-08 0)
(-1.04271e-07 2.58123e-08 -7.6722e-27)
(5.68159e-08 4.04518e-08 -2.17508e-25)
(-9.31723e-09 5.4849e-08 0)
(-8.26255e-09 9.85942e-08 0)
(-5.85428e-08 2.92614e-07 -8.90743e-27)
(-7.06556e-08 2.39684e-07 0)
(-6.25198e-09 1.20246e-07 -8.10979e-26)
(-8.49228e-09 1.37881e-07 2.01381e-26)
(-4.19946e-08 2.66552e-07 -1.1482e-25)
(9.1261e-08 2.36874e-07 -2.84096e-25)
(5.05925e-08 2.70175e-07 0)
(1.30785e-07 1.52061e-07 -7.89829e-25)
(2.00958e-08 3.0668e-07 0)
(-1.71855e-07 -3.87821e-07 5.79628e-25)
(-6.29888e-07 1.12584e-06 0)
(5.42312e-09 1.4575e-09 0)
(-5.1517e-07 -1.19029e-06 0)
(6.43553e-10 -1.61801e-09 -7.51455e-26)
(-7.53794e-07 -1.14812e-08 1.64561e-25)
(-6.81872e-07 -8.08105e-07 0)
(-5.08273e-08 -3.25543e-07 0)
(1.06936e-10 7.57236e-10 1.06856e-25)
(-1.51403e-07 -7.15195e-07 0)
(-7.52833e-10 1.233e-10 -1.42317e-25)
(-6.62752e-07 7.08357e-07 1.43674e-25)
(4.61415e-08 -3.08267e-08 1.05159e-25)
(3.79172e-08 9.81069e-09 0)
(1.22347e-07 6.16102e-08 2.02126e-25)
(5.56543e-08 1.39403e-08 0)
(-5.20291e-07 9.80256e-07 0)
(-2.41371e-08 -1.65188e-07 0)
(2.58718e-08 -2.50526e-08 5.29627e-27)
(2.95505e-08 1.33298e-08 1.86596e-25)
(-7.02442e-07 7.4224e-07 -1.42613e-25)
(3.58347e-08 -1.68604e-08 1.2159e-25)
(1.7848e-08 1.95735e-09 1.93052e-25)
(-3.72169e-07 -6.41957e-07 3.94564e-25)
(-1.22073e-08 -6.90887e-08 -1.13385e-24)
(-3.98755e-07 -1.24552e-06 -7.18036e-25)
(-1.82377e-07 -3.08539e-07 2.83016e-25)
(-6.58897e-09 -3.08315e-08 -7.11911e-25)
(-6.57436e-09 -4.57762e-08 3.8423e-25)
(-3.28697e-09 -1.66591e-08 -2.77355e-25)
(-9.28239e-08 5.00318e-07 2.08494e-24)
(1.33974e-09 9.71266e-10 2.87703e-25)
(-1.11411e-07 -2.68363e-08 -1.84342e-26)
(-2.20742e-08 1.20828e-08 -1.22021e-26)
(5.91461e-08 6.51197e-08 4.50754e-25)
(-1.19247e-07 3.75564e-08 2.92383e-26)
(-4.18455e-09 3.19036e-08 0)
(-7.80846e-09 6.87664e-08 -6.87398e-26)
(1.23022e-07 1.02616e-07 -2.11591e-25)
(-4.1118e-09 3.81642e-08 0)
(3.0342e-08 1.11571e-07 -3.18671e-25)
(-8.10223e-08 2.60903e-07 0)
(-2.56045e-09 5.8566e-08 2.67832e-26)
(-2.20469e-08 2.08827e-07 1.01164e-26)
(3.10063e-09 2.64331e-07 -1.20809e-25)
(1.42149e-07 1.43259e-07 5.70745e-25)
(2.96036e-08 2.219e-07 -9.39102e-27)
(1.23618e-07 1.91794e-07 -2.0059e-25)
(1.84083e-08 2.52509e-07 -2.4655e-25)
(1.20565e-07 1.69542e-07 2.00528e-25)
(-1.29523e-08 3.24678e-07 5.3014e-26)
(-3.64437e-08 -5.31148e-08 0)
(-7.49501e-07 -4.54921e-07 -1.25508e-25)
(-6.0799e-08 -1.01142e-07 2.77612e-25)
(1.01435e-07 5.95657e-08 0)
(-3.66483e-08 3.26973e-07 -9.26608e-26)
(-4.29997e-08 8.35833e-08 0)
(-6.5254e-08 1.26399e-07 -6.33148e-26)
(4.06729e-09 -5.05399e-09 -8.12757e-26)
(1.86296e-08 -1.02838e-08 -1.30555e-26)
(1.36721e-08 -1.31673e-08 -2.03531e-26)
(-1.18457e-10 -6.4009e-10 1.63429e-25)
(-6.73036e-08 -4.37127e-07 0)
(-2.80425e-07 -1.00754e-06 1.84569e-25)
(8.42814e-08 8.36352e-08 -5.66448e-25)
)
;

boundaryField
{
    back
    {
        type            empty;
    }
    front
    {
        type            empty;
    }
    left
    {
        type            noSlip;
    }
    top
    {
        type            uniformFixedValue;
        uniformValue    
        {
            type            scale;
            scale           
            {
                type            squarePulse;
                start           0.3;
                duration        0.3;
            }
            xScale          
            {
                type            constant;
                value           1;
            }
            value           
            {
                type            constant;
                value           (0 -0.7 0);
            }
        }
        value           uniform (0 -0 0);
    }
    right
    {
        type            noSlip;
    }
    bottom
    {
        type            zeroGradient;
    }
}


// ************************************************************************* //
