/*--------------------------------*- C++ -*----------------------------------*\
  =========                 |
  \\      /  F ield         | OpenFOAM: The Open Source CFD Toolbox
   \\    /   O peration     | Website:  https://openfoam.org
    \\  /    A nd           | Version:  9
     \\/     M anipulation  |
\*---------------------------------------------------------------------------*/
FoamFile
{
    format      ascii;
    class       volVectorField;
    location    "1.3";
    object      U;
}
// * * * * * * * * * * * * * * * * * * * * * * * * * * * * * * * * * * * * * //

dimensions      [0 1 -1 0 0 0 0];

internalField   nonuniform List<vector> 
942
(
(0.0630508 -0.266285 0)
(0.187275 0.0163158 3.44159e-17)
(0.115153 0.258487 0)
(0.0244755 -0.280172 -1.80039e-17)
(0.111454 0.265183 1.09349e-17)
(0.0980992 -0.0843908 1.92471e-17)
(0.0194619 -0.00888549 5.08999e-17)
(0.128784 -0.100441 0)
(0.030083 -0.170218 -3.96075e-17)
(0.0290457 -0.186484 4.03665e-17)
(0.129754 0.0958792 0)
(0.207488 -0.0746968 0)
(0.0264973 -0.2821 1.67981e-17)
(0.117998 0.108377 0)
(0.228489 -0.0769386 0)
(0.160817 0.00917282 -3.74355e-17)
(0.141997 0.13665 -1.47998e-17)
(0.0487604 -0.262333 0)
(0.0619227 0.041743 -4.45055e-18)
(0.0486269 0.0108749 6.82144e-18)
(0.168532 0.160254 2.51016e-17)
(0.2201 -0.0850504 2.01407e-17)
(0.0101393 -0.0496803 0)
(0.0657343 0.0835213 -4.04321e-17)
(0.148708 0.105018 0)
(0.0979676 0.137571 3.01804e-17)
(0.0837953 0.222936 0)
(0.0248285 -0.101295 2.54568e-17)
(0.085792 0.112452 0)
(0.0233099 -0.184088 1.59921e-17)
(0.121258 0.194112 2.02316e-17)
(0.0731673 0.215816 0)
(0.060114 0.0786651 1.92415e-17)
(0.0507533 0.00374657 2.2615e-17)
(0.0949137 0.194821 -2.21066e-17)
(0.00282874 -0.0306188 4.22136e-17)
(0.153198 -0.211268 1.39705e-18)
(-0.00745919 -0.141057 0)
(0.146113 -0.218637 -7.13121e-19)
(0.0478086 0.0541992 2.88581e-17)
(0.0755201 -0.0138943 -4.03141e-17)
(0.256229 -0.173956 0)
(-0.00203512 -0.0306424 -1.99858e-17)
(0.020417 -0.0338422 -1.69655e-17)
(0.0148935 -0.0164274 -4.29208e-17)
(0.064438 0.0607448 9.71711e-18)
(0.0524154 0.0223382 -1.97172e-17)
(0.019594 0.00586911 -1.86191e-17)
(0.00780628 -0.0040897 2.07918e-17)
(0.137601 0.120851 2.4149e-17)
(0.0813852 0.047606 0)
(-0.0425276 0.0474462 0)
(-0.0692397 0.060364 -2.83544e-17)
(0.0547504 0.0424452 2.29264e-17)
(0.0272569 -0.227654 0)
(0.106394 -0.0635462 -1.50616e-17)
(0.0351642 -0.00305544 -3.82662e-17)
(0.0301079 -0.242128 -2.69017e-18)
(0.0693705 -0.0094575 4.90265e-17)
(0.218223 0.0282559 2.10612e-17)
(0.0100168 -0.119687 -1.99786e-17)
(0.0889499 0.206435 -5.20146e-17)
(0.113733 -0.00882534 2.41767e-17)
(0.0613331 -0.242675 -1.94068e-17)
(-0.00227997 -0.145874 1.85103e-17)
(0.178692 -0.00837014 1.4339e-17)
(0.078511 0.199706 4.0679e-17)
(0.0715597 0.0245438 -1.86614e-17)
(0.0445174 -0.0224753 1.92275e-17)
(0.0691154 -0.142735 5.21718e-18)
(0.174933 0.0212901 0)
(0.0279479 -0.104666 0)
(0.0391452 0.00109671 -2.5038e-18)
(0.0234089 -0.212204 4.79475e-18)
(0.0650889 0.0735991 -2.17292e-17)
(0.0875184 0.0295688 8.75805e-22)
(0.0871903 0.0202 2.51305e-18)
(0.083716 0.185044 2.24645e-17)
(0.12264 0.20601 -2.41868e-17)
(0.19058 0.00382412 -4.90419e-18)
(0.0180834 -0.0218892 2.9273e-17)
(0.107022 0.164438 -1.0496e-17)
(0.13521 0.0783504 -2.6493e-18)
(0.156153 -0.0038649 1.07931e-17)
(0.137322 -0.0093646 0)
(0.0637199 0.25048 0)
(0.163776 0.0263636 -2.21309e-17)
(0.157635 -0.0456729 6.07878e-18)
(0.130369 0.125166 0)
(0.153547 0.0849437 3.02239e-17)
(0.26167 -0.159951 -1.516e-17)
(0.0572579 0.1046 7.04295e-19)
(0.0260272 -0.26157 3.02211e-18)
(0.14971 -0.0704517 0)
(0.135384 -0.0886905 -5.93341e-18)
(0.175589 0.061447 1.09636e-17)
(0.234274 -0.174672 1.86916e-17)
(0.128239 -0.038405 -1.76876e-17)
(0.0709078 -0.075061 -2.62265e-17)
(-0.00464314 -0.0957365 -3.73062e-17)
(0.034433 -0.0963456 -1.12153e-17)
(0.0186165 -0.267548 1.24846e-17)
(0.0732036 0.042471 0)
(0.0609548 -0.117357 1.43663e-17)
(0.193031 -0.128889 -2.25774e-17)
(-0.00347652 -0.0771734 -3.66554e-17)
(0.0866897 0.0772331 -1.30406e-17)
(0.0684034 0.0709841 0)
(0.03028 0.0141694 2.01407e-17)
(0.037582 0.0169664 0)
(0.00760564 -0.0033084 0)
(0.00445151 0.00264972 -2.02994e-17)
(0.134927 0.0303348 4.03022e-17)
(0.0322661 -0.129349 0)
(0.145203 0.112798 0)
(0.0316204 0.0576804 2.7479e-18)
(0.214722 0.0514612 -2.16219e-17)
(0.0322421 -0.281963 2.26672e-17)
(-0.0137152 -0.00535773 -1.62678e-21)
(0.264809 -0.0410084 -2.6136e-18)
(-0.0266739 0.0172059 8.76873e-18)
(0.0180473 -0.0118276 -2.27273e-17)
(0.00124962 -0.0519087 0)
(0.0767357 0.0124057 2.00991e-17)
(0.0785691 0.003073 1.6265e-17)
(0.11848 0.195924 -4.29443e-17)
(-0.0407477 0.0563746 2.26884e-17)
(0.00832983 -0.00699702 -2.20221e-17)
(0.0138986 0.0123556 4.02999e-17)
(-0.0722774 0.057851 2.07002e-17)
(-0.016128 0.0100555 -1.07965e-17)
(0.00263551 0.00580249 -2.50179e-17)
(-0.0242603 -0.00314282 0)
(-0.0756712 0.0128899 0)
(-0.0616977 0.00313748 -2.23286e-17)
(0.00397542 0.0127309 -1.56574e-17)
(-0.0894868 0.0580339 1.34949e-18)
(-0.042576 0.00251922 0)
(-0.0908734 0.0491295 2.76432e-17)
(-0.0873078 0.027699 -9.4693e-18)
(-0.0870558 0.018804 2.22904e-17)
(0.00562856 0.0115035 0)
(0.165114 0.048856 -2.2153e-17)
(0.121524 0.211672 2.38273e-17)
(0.099628 -0.0750017 -5.57361e-18)
(0.0751205 0.100479 -1.01959e-17)
(0.0424549 -0.0994626 0)
(0.0349984 -0.129419 -1.33038e-17)
(0.101308 -0.13628 3.35464e-17)
(0.0731943 0.252403 0)
(0.127228 -0.0865771 6.02438e-18)
(0.277906 -0.0136971 6.6164e-18)
(0.0926713 0.159511 0)
(0.0835588 -0.118358 1.25108e-17)
(0.0884923 0.172122 -2.19879e-17)
(0.11673 -0.195108 0)
(0.138853 -0.0112966 2.46321e-17)
(0.0124506 -0.0252218 0)
(0.236599 0.0442489 0)
(0.156942 0.0478382 9.11951e-18)
(0.166981 -0.0163193 -3.18745e-17)
(0.088427 -0.154085 0)
(0.0109945 -0.267539 0)
(0.120235 -0.0569871 1.12421e-17)
(0.250011 -0.00679346 0)
(0.106937 0.121948 -3.3549e-17)
(0.0409814 -0.116293 0)
(0.0881767 -0.156413 0)
(0.0890165 0.0924987 1.98419e-17)
(0.070901 0.0316627 2.36322e-17)
(0.0689287 0.0163969 -1.971e-17)
(0.0475707 -0.0122702 -2.61405e-18)
(0.0445299 -0.030563 -4.50827e-21)
(0.019988 -0.108849 1.25525e-17)
(0.0707533 0.273952 0)
(0.0857706 -0.233983 -2.41358e-17)
(0.146418 0.0555293 -2.32135e-17)
(0.0804816 -0.238841 0)
(0.200368 -0.102414 8.00677e-19)
(0.1037 -0.247294 0)
(0.0576132 -0.0892373 -1.4682e-17)
(0.0830096 0.106641 0)
(0.140359 -0.177827 -2.85473e-17)
(0.0971586 -0.254752 2.2235e-21)
(0.0349952 -0.244431 -1.4386e-17)
(0.102794 0.146335 0)
(0.231463 0.0894535 -1.14549e-17)
(0.120681 0.248085 2.30013e-17)
(0.0838853 0.254008 3.28537e-17)
(0.118375 -0.264638 1.08515e-17)
(0.119142 0.216936 4.44256e-17)
(0.125383 -0.256344 -1.08848e-17)
(0.0406427 -0.173732 -1.38573e-17)
(0.130011 0.205638 -2.11159e-17)
(0.1242 0.242391 1.16433e-17)
(0.0376281 -0.282282 -1.03126e-17)
(0.128154 0.235304 0)
(0.0407474 -0.199576 3.70943e-17)
(0.0567523 -0.00411828 -2.72393e-17)
(-0.00339303 -0.0700603 2.06143e-17)
(-0.0105686 -0.0133332 0)
(0.0477378 -0.286171 1.04754e-17)
(0.125187 0.236521 0)
(0.126331 0.129901 -2.47855e-17)
(0.136777 0.0489327 2.34555e-17)
(0.121388 -0.0516228 0)
(0.104798 -0.0837938 2.32441e-17)
(0.115891 0.247088 -5.0897e-17)
(0.00625563 -0.0765183 -1.99193e-17)
(0.0438682 0.0234074 1.97328e-17)
(0.124106 0.239831 -1.12992e-17)
(0.0566268 -0.277649 4.14456e-21)
(0.0421826 -0.211812 1.78852e-17)
(0.0982899 0.216484 1.08249e-17)
(0.126542 0.22813 0)
(0.0889163 -0.2961 5.35574e-22)
(0.0888231 0.261637 -2.69685e-17)
(0.137917 0.186486 2.27178e-17)
(0.1294 0.232514 2.23977e-17)
(0.133933 0.229067 -3.02965e-21)
(0.10859 -0.294837 0)
(0.0787702 -0.294222 -2.12724e-17)
(0.140863 -0.268683 0)
(0.0720256 -0.290162 0)
(0.00123854 0.00238861 -2.26928e-17)
(0.0288908 0.0990793 2.26897e-17)
(0.105489 0.213989 -1.59462e-17)
(0.130331 -0.287576 -2.18631e-17)
(-0.0105108 0.018176 3.32011e-17)
(0.142403 0.221986 0)
(0.116246 0.167704 -2.06935e-17)
(0.114577 0.24147 -3.9819e-17)
(0.0311433 0.0756651 2.1999e-17)
(-0.00602592 0.0146806 -1.19697e-17)
(0.103342 -0.297574 -1.09941e-17)
(0.0522716 -0.264147 3.38223e-21)
(0.131068 0.187869 -2.35684e-17)
(0.124752 -0.295065 2.19605e-17)
(0.136762 0.219501 -2.13847e-17)
(0.136052 0.225512 2.2171e-17)
(0.141287 0.222802 0)
(0.0882444 -0.142377 -5.41679e-18)
(0.154285 -0.28642 1.08396e-17)
(0.0763129 -0.198496 -1.23382e-17)
(0.0931712 -0.212033 -2.18175e-17)
(0.128545 0.230591 -2.21983e-17)
(0.153025 -0.276343 1.0906e-17)
(0.085003 -0.293347 -1.18146e-17)
(0.147556 -0.28722 -2.18752e-17)
(0.134066 0.226256 5.46402e-18)
(0.11274 0.219426 -5.6106e-18)
(0.161723 -0.0533315 -2.05299e-17)
(0.118732 0.208935 0)
(0.13024 0.222784 1.65082e-17)
(0.114849 -0.223964 2.16578e-17)
(0.0675374 -0.280349 2.39476e-17)
(0.1434 -0.28602 0)
(0.147951 -0.258234 0)
(0.153028 0.192174 -1.10911e-17)
(0.074843 -0.182805 1.22909e-17)
(0.0966592 -0.288039 -1.07632e-17)
(0.152398 0.181616 1.09097e-17)
(0.10417 0.204555 -2.74284e-17)
(0.136462 -0.230119 -5.72522e-18)
(0.13861 -0.261728 1.13445e-17)
(0.0387761 -0.175811 0)
(0.0939752 -0.198886 0)
(0.170079 -0.254534 0)
(0.130069 0.195346 2.09385e-17)
(0.171807 -0.275698 1.10291e-17)
(0.176277 -0.261362 2.0851e-17)
(0.1015 0.244032 -2.04623e-17)
(0.139693 -0.0372636 2.39179e-17)
(0.0998909 0.226249 -1.07862e-17)
(0.11995 0.237739 2.26084e-17)
(0.14264 0.174407 -2.26168e-17)
(0.000596184 -0.0181104 0)
(0.178924 -0.187208 0)
(0.125245 0.22256 -1.11527e-17)
(-0.0509256 0.0610443 -2.30296e-17)
(0.114637 -0.210742 0)
(0.0327124 -0.0457999 -1.89977e-18)
(0.00579902 -0.0298298 2.34671e-17)
(0.190599 -0.209872 0)
(0.219286 0.170108 4.3503e-17)
(0.273302 0.0448684 -2.16267e-17)
(0.174434 -0.22106 3.2599e-17)
(0.19023 -0.245441 2.15973e-17)
(0.135077 -0.213453 5.61044e-18)
(0.157157 -0.229003 5.57636e-18)
(0.211899 0.178727 -2.20598e-17)
(0.188022 -0.0391878 2.59774e-17)
(0.139346 0.162142 -1.0117e-17)
(0.209431 -0.210741 2.4315e-17)
(0.143276 -0.148963 6.20934e-18)
(0.1759 0.135184 -2.00392e-17)
(0.281858 0.0183542 0)
(0.289447 0.0327002 1.11907e-17)
(0.299385 0.00392186 1.04024e-17)
(0.281557 0.0589928 0)
(0.266884 0.104934 0)
(0.167855 -0.201723 -1.11497e-17)
(0.315459 -0.0500915 -5.02009e-18)
(0.30578 -0.0981821 -3.48434e-17)
(0.254953 0.115477 -3.48563e-17)
(0.166945 -0.280848 1.08129e-17)
(0.289022 -0.145498 -3.44903e-17)
(0.0250636 -0.00133428 0)
(0.040668 0.0152916 -1.0236e-17)
(0.0316315 0.0498869 2.14909e-17)
(-0.00951665 0.00871096 1.7312e-17)
(0.0287924 0.0166693 -1.67102e-21)
(0.00559492 -0.00600508 -3.07163e-18)
(0.041199 0.0121828 -2.14033e-17)
(0.251065 -0.213584 3.02048e-21)
(0.0286539 0.0299157 3.45811e-17)
(-0.00587275 0.00500401 -2.34257e-17)
(0.0346594 -0.00134963 2.42859e-21)
(0.0251439 0.0122958 -6.07834e-18)
(0.0241467 -0.00622241 0)
(0.0238554 -0.00153214 -6.28319e-18)
(0.0262304 0.0334086 0)
(-0.0140471 0.0120131 2.45684e-17)
(0.0294066 -0.00273781 -4.39726e-17)
(0.17779 -0.0271692 -2.7329e-17)
(0.157663 0.168702 -2.24525e-17)
(0.0311482 0.0239751 0)
(0.226745 -0.231672 -1.1177e-17)
(0.273649 -0.194019 0)
(0.00424713 -0.00507387 0)
(0.216809 0.161699 -4.36177e-17)
(0.200757 -0.247073 -1.9071e-17)
(0.2303 -0.191304 1.08946e-17)
(0.311303 -0.0641957 -1.96925e-17)
(0.200674 -0.167391 0)
(0.224894 0.153531 2.18154e-17)
(0.29912 -0.113688 1.24196e-17)
(0.158661 0.104585 -6.46279e-19)
(0.18511 0.128708 0)
(-0.0819452 0.0618674 -2.17533e-17)
(0.226207 0.108381 3.20899e-17)
(0.21977 0.0728701 -2.19803e-17)
(0.283042 -0.159897 -5.64948e-18)
(0.225778 0.131953 -5.44822e-17)
(0.300082 0.0581346 -2.21823e-17)
(0.191062 0.155626 0)
(0.291454 0.0820104 2.25708e-17)
(0.264474 -0.207819 2.1645e-17)
(0.186742 -0.258607 2.15833e-17)
(0.308072 0.0332172 -1.09072e-17)
(0.215863 0.140022 2.18367e-17)
(0.314531 0.00676332 3.09052e-21)
(0.242803 -0.227483 -5.50294e-17)
(0.321112 -0.019868 -1.14383e-17)
(0.169167 0.101483 -1.95722e-17)
(0.182051 -0.164864 0)
(0.281365 0.104248 2.22002e-17)
(0.219839 -0.24553 0)
(0.270182 0.123956 1.08883e-17)
(0.243922 0.0835464 2.1971e-17)
(0.322388 -0.0474221 2.78516e-17)
(0.23844 -0.134853 0)
(0.230291 -0.0605332 -3.07966e-18)
(0.19311 -0.259121 1.84128e-17)
(0.316157 -0.0941678 -2.19862e-17)
(0.256311 -0.0507628 1.15512e-17)
(0.216349 -0.104086 -1.11288e-17)
(-0.0445562 -0.0215658 5.13061e-17)
(0.301147 -0.140923 3.26995e-17)
(0.214433 0.0616735 -5.72411e-18)
(0.220841 -0.0254457 0)
(0.212479 0.115873 2.16072e-17)
(-0.0543867 -0.0190196 -1.1132e-17)
(0.281761 -0.185909 -2.09864e-17)
(0.24925 0.136507 1.10075e-17)
(0.307993 0.045369 1.09187e-17)
(0.258602 0.126139 1.10201e-17)
(0.299286 0.0692401 2.26181e-17)
(0.202379 -0.265069 1.06443e-17)
(0.316038 0.0194496 1.08679e-17)
(-0.00511155 -0.0323669 2.51807e-17)
(-0.0320626 0.0331387 0)
(-0.0808075 0.00150445 2.22984e-17)
(-0.0792313 0.0564577 0)
(-0.0273556 -0.0218868 5.58533e-18)
(0.321761 -0.00664074 3.4287e-17)
(0.321814 -0.0798866 4.33403e-17)
(0.270848 -0.0777476 3.36233e-18)
(0.288848 0.0917786 -4.50964e-17)
(0.32301 -0.033799 -4.58839e-17)
(-0.0641196 -0.0110938 -1.13638e-17)
(-0.0850716 0.0374382 -5.64003e-18)
(0.180678 -0.143315 0)
(0.269035 -0.0252021 2.25367e-17)
(-0.0874621 0.0160935 5.94484e-18)
(0.233221 -0.167053 0)
(0.253535 -0.116036 2.15402e-17)
(-0.0731448 -0.00361639 5.8142e-18)
(-0.0175235 -0.0196365 1.15674e-17)
(-0.0845833 0.0476058 -1.43958e-18)
(-0.087917 0.0199201 -9.95457e-18)
(0.264809 -0.210675 -3.22346e-17)
(0.223605 -0.0523821 0)
(0.211295 -0.113982 1.03471e-17)
(0.308429 -0.126308 0)
(0.241225 0.154728 0)
(0.0742577 -0.123197 0)
(0.276714 0.111621 0)
(0.292263 -0.173258 1.07695e-17)
(-0.0546905 0.0589221 3.32339e-17)
(-0.0196942 -0.0203641 -2.41377e-17)
(0.288797 -0.0608513 1.09101e-17)
(0.266242 -0.145657 0)
(0.320867 -0.0603651 3.26519e-17)
(0.317421 -0.105621 0)
(0.212801 -0.256831 -1.08559e-17)
(0.225639 -0.249579 1.08735e-17)
(0.269754 -0.172312 1.07702e-17)
(0.229181 0.167586 2.18652e-17)
(0.277224 -0.187573 1.07571e-17)
(0.227479 -0.140846 2.27209e-17)
(0.303622 -0.15048 -4.33653e-17)
(0.199869 -0.145003 0)
(0.239074 -0.210211 -1.0742e-17)
(0.311163 -0.119166 2.16768e-17)
(0.319169 -0.0743281 -2.17349e-17)
(0.249366 0.144323 0)
(0.202392 0.0727717 2.29639e-17)
(0.304481 -0.0409723 2.19306e-17)
(0.230349 -0.0196763 -4.0779e-17)
(0.181653 -0.0423723 0)
(0.315176 -0.0298763 2.19128e-17)
(0.251505 -0.0410925 0)
(0.227655 0.0945128 0)
(0.0305955 -0.0546495 0)
(0.247895 -0.162134 0)
(0.315559 0.0195293 3.26651e-17)
(0.247223 -0.18745 0)
(0.293557 -0.162823 1.08761e-17)
(0.277217 -0.0343477 -2.30043e-17)
(0.263927 -0.196994 1.07337e-17)
(0.25733 -0.105417 -1.99626e-17)
(0.300675 0.0670676 -2.19284e-17)
(0.287592 -0.0152506 0)
(0.207376 -0.246368 -2.1636e-17)
(0.306441 -0.0528844 -3.26948e-17)
(0.262487 0.12824 0)
(0.242715 0.118354 0)
(0.281964 -0.162381 0)
(0.246597 -0.231268 2.15756e-17)
(0.275416 0.10574 4.81305e-21)
(0.210693 0.102765 -4.34321e-21)
(0.206878 0.0831659 -2.26924e-17)
(0.250976 -0.219461 0)
(0.258466 0.11979 0)
(0.236723 0.158334 0)
(0.256268 0.13983 0)
(0.231213 0.0180364 0)
(0.233287 -0.239362 -1.08086e-17)
(0.22701 0.105455 -2.23116e-17)
(0.317547 -0.00557273 3.27412e-17)
(0.309487 0.0441149 -1.09278e-17)
(0.112912 0.15429 2.21224e-17)
(0.261222 0.10732 -1.08949e-17)
(0.201599 0.188416 1.1109e-17)
(0.244964 0.0960594 -1.09531e-17)
(0.200088 -0.192401 0)
(0.311111 -0.0179604 -2.18939e-17)
(0.312531 0.0055321 -4.34639e-17)
(0.205456 0.150353 0)
(0.308953 0.0295528 -2.17817e-17)
(0.285684 0.0485402 -2.22056e-17)
(0.301336 0.0525806 0)
(0.311741 -0.0822146 0)
(0.220993 0.166754 5.5848e-21)
(0.146345 0.159945 1.00367e-17)
(0.296186 -0.137695 0)
(0.261523 0.0831521 -3.28239e-17)
(0.307963 -0.0945704 0)
(0.209075 0.181324 0)
(0.17855 -0.277704 -2.14327e-17)
(0.213449 0.174355 -2.18811e-17)
(0.289378 0.087838 0)
(0.219393 0.15601 -2.18713e-17)
(0.304718 -0.125934 -1.08464e-17)
(0.239177 0.15057 2.18251e-17)
(0.292342 -0.0738028 -2.23168e-17)
(0.290785 0.073669 2.19022e-17)
(0.276109 -0.135479 0)
(0.198499 0.156712 -1.09514e-17)
(0.181554 0.130247 -3.88108e-17)
(0.238749 0.129215 0)
(0.197571 0.137235 0)
(0.277336 0.0921343 3.27074e-17)
(0.190076 -0.270745 -2.10818e-17)
(0.159852 0.179465 0)
(0.226103 0.147603 2.18688e-17)
(0.136611 0.176808 4.63506e-17)
(0.245429 0.140469 -2.18176e-17)
(0.225455 -0.230046 0)
(0.209343 0.1121 4.66321e-17)
(0.202342 0.169714 1.09323e-17)
(0.222018 -0.213392 0)
(0.177093 0.184272 2.19218e-17)
(0.233191 0.060046 -1.20251e-17)
(0.16097 0.199454 0)
(0.275501 0.0670118 0)
(0.246061 0.0298516 0)
(0.184093 0.196491 1.92658e-17)
(0.247157 0.0136037 -1.05798e-17)
(0.283109 -0.111019 -2.65108e-17)
(0.194689 0.175438 0)
(0.163606 0.165564 1.12866e-17)
(0.194393 0.185702 -2.18818e-17)
(0.175467 0.135957 3.70528e-17)
(0.208256 -0.231386 0)
(0.158611 0.151773 -9.53866e-18)
(0.175318 0.17215 0)
(0.277758 0.0343271 0)
(0.174194 0.196989 0)
(0.265637 -0.0856594 0)
(0.258582 0.0695167 1.09921e-17)
(0.291307 0.0278071 0)
(0.182987 0.168319 0)
(0.280272 0.0142377 -1.10229e-17)
(0.277139 -0.00602917 -1.08376e-17)
(0.217959 0.1342 0)
(0.168369 0.197126 0)
(0.222803 0.125212 0)
(0.292011 0.00635133 4.35454e-17)
(0.270367 0.0530455 3.31855e-17)
(0.201745 0.129816 0)
(0.286582 -0.098423 1.87412e-17)
(0.131311 0.220783 -2.21925e-17)
(0.186791 0.190864 2.1888e-17)
(0.159073 0.207385 -2.19778e-17)
(0.140753 0.205966 4.30098e-21)
(0.1651 0.148064 0)
(0.164363 -0.266144 0)
(0.111456 0.202816 2.13601e-17)
(0.0812231 -0.250977 0)
(0.184214 0.150779 0)
(0.190881 0.190781 -1.94604e-17)
(0.152713 -0.210707 -2.75043e-17)
(0.169791 0.204396 0)
(0.146085 0.216435 -2.18972e-17)
(0.178738 0.155894 0)
(0.182331 0.197548 -2.19011e-17)
(0.157314 0.21247 -1.09741e-17)
(0.152421 0.217148 4.3903e-17)
(0.175035 0.201759 0)
(0.169519 0.187449 -2.19047e-17)
(0.138339 0.212214 1.10583e-17)
(0.170002 0.206514 0)
(0.11348 0.227047 2.77513e-17)
(0.163796 0.21074 -1.09763e-17)
(0.143846 0.218097 -2.20561e-17)
(0.191944 0.10671 -2.05534e-17)
(0.107108 0.230659 -1.11681e-17)
(0.188226 0.114949 0)
(0.145915 0.193796 -2.2203e-17)
(0.130764 -0.290407 0)
(0.0794751 -0.284174 3.21022e-17)
(0.152412 0.209583 3.30052e-17)
(0.125263 0.207004 2.21602e-17)
(0.142011 0.197216 4.42016e-17)
(0.156914 0.198302 -1.1667e-17)
(0.12825 0.17534 -2.23328e-17)
(0.124917 0.198494 0)
(0.0500234 -0.213435 0)
(0.131856 0.213501 -2.21656e-17)
(0.108639 0.238071 4.61869e-17)
(0.153614 0.205676 0)
(0.149826 0.215863 -3.3018e-17)
(0.0888031 -0.28032 -3.4534e-21)
(0.125124 0.229097 1.11798e-17)
(0.131629 0.196946 0)
(0.13894 0.2041 1.12208e-17)
(0.117204 0.19173 -3.33726e-17)
(0.0997145 0.181638 0)
(0.0560997 -0.287498 2.48826e-17)
(0.113711 0.281354 -4.76151e-17)
(0.00748784 -0.25734 0)
(0.145754 0.202918 0)
(0.120518 -0.285485 -2.16917e-17)
(0.108626 -0.288662 0)
(0.110042 0.19304 2.22233e-17)
(0.123128 0.26972 6.42109e-19)
(0.0572811 -0.243207 -2.3811e-17)
(0.119449 0.231706 -2.24592e-17)
(0.207168 -0.152106 -1.79382e-17)
(0.0994595 -0.278699 2.1796e-17)
(0.00409849 -0.279905 0)
(0.126348 0.248317 0)
(0.120203 0.204438 7.60256e-17)
(-0.0010358 -0.211857 -4.85447e-17)
(0.0924877 0.104695 -4.86763e-17)
(0.117481 -0.0404944 0)
(0.100145 0.292559 2.36628e-17)
(0.0708768 -0.265135 -3.40399e-17)
(0.0803395 -0.264353 3.42449e-17)
(-0.0049327 -0.143489 0)
(0.0473309 -0.0244073 -2.46713e-17)
(0.0816748 0.308082 -7.30781e-17)
(0.00942494 -0.145293 -2.28908e-17)
(0.146163 0.1801 6.61467e-22)
(0.115412 0.269633 2.06393e-17)
(0.0648199 -0.245824 -2.34007e-17)
(0.128809 0.165713 1.14127e-17)
(0.123581 0.257966 0)
(0.175769 0.175241 -2.59835e-17)
(0.103425 0.277661 5.3522e-17)
(0.124525 0.233294 -2.56037e-17)
(0.111103 0.177635 -2.14268e-21)
(0.11521 -0.0474493 3.6062e-17)
(0.216963 -0.0115215 -3.95915e-21)
(0.268981 -0.0553595 4.30051e-17)
(0.228162 0.00364537 1.57346e-17)
(0.0985082 -0.273548 0)
(-0.00739596 -0.180223 2.44309e-17)
(0.0723795 0.0698516 0)
(0.186025 0.0519046 -1.45498e-17)
(0.0870705 0.287747 -7.66947e-19)
(0.0171888 -0.0907432 0)
(0.0828453 0.278085 7.05775e-19)
(0.110917 0.252747 2.46684e-17)
(0.0151432 -0.0102162 -2.91694e-17)
(-0.0146344 -0.0985718 -6.92861e-18)
(0.00659517 -0.191991 5.81053e-18)
(0.0707977 -0.0122557 3.43791e-17)
(0.179648 0.0423709 2.55612e-17)
(0.1777 0.0959204 -2.72301e-17)
(0.0183327 0.0147922 2.13798e-17)
(0.117899 -0.259026 0)
(0.142617 -0.0274799 1.28309e-17)
(0.202559 0.0330312 0)
(0.106627 0.162639 2.05533e-17)
(0.0677276 -0.209865 0)
(0.0634993 0.0709511 -4.91906e-17)
(0.164683 0.0831316 -2.63655e-17)
(0.242411 -0.0030679 -2.14219e-17)
(0.00968554 -0.0277585 -1.85725e-17)
(0.205239 -0.0595025 0)
(0.137337 0.0135121 1.2115e-18)
(0.14682 0.0344692 0)
(0.190044 -0.079655 -3.79405e-17)
(0.140579 -0.0508188 -1.80561e-17)
(0.151615 -0.0577964 -6.34434e-18)
(-0.017967 0.0181502 4.72589e-17)
(0.0640426 -0.103373 0)
(0.0623459 -0.214663 2.00381e-17)
(0.164257 0.171403 0)
(0.135425 -0.0687237 -3.44754e-17)
(0.0138155 -0.238202 -2.58218e-17)
(0.235476 0.0684225 2.42649e-17)
(0.231855 0.0339602 0)
(0.227541 0.0488223 -6.3331e-18)
(0.0927017 0.229872 0)
(0.07663 0.089616 2.43115e-17)
(0.0038523 -0.23579 7.63196e-19)
(0.0130701 -0.178959 5.12047e-17)
(0.11738 -0.276386 0)
(0.00431916 -0.270917 2.21134e-17)
(-0.000803674 -0.237006 2.36599e-17)
(0.0187085 -0.275973 1.24441e-17)
(0.0537143 -0.125114 6.75118e-22)
(0.159176 -0.00118517 -3.34114e-17)
(0.104046 0.251313 0)
(0.209367 -0.192168 0)
(0.0467091 0.182945 -1.23081e-17)
(0.214677 0.0734025 2.49239e-17)
(0.0500882 0.163817 0)
(0.0133308 -0.0139696 1.20919e-17)
(0.0533844 0.147786 -2.05535e-17)
(0.00226218 -0.00799172 0)
(0.0368148 -0.273256 0)
(0.0278819 0.115751 -3.92562e-22)
(0.0321382 0.0897307 2.13594e-17)
(-5.85706e-05 0.0090572 1.18246e-17)
(0.0400285 -0.241893 -1.2173e-17)
(0.280429 -0.1139 0)
(0.122447 0.180469 2.41137e-17)
(0.183803 -0.223758 -1.21864e-17)
(0.0584138 0.0603682 -1.2186e-17)
(0.0617652 0.0547318 0)
(0.0667371 0.0397449 0)
(0.0738788 0.0328536 1.0893e-17)
(0.0578979 0.0920931 -2.3402e-17)
(0.0261407 0.0241561 0)
(0.0668155 0.0454927 2.04119e-17)
(0.0367812 -0.022452 0)
(0.0551479 0.0661041 1.20546e-17)
(0.0126134 -0.0175417 -2.32423e-17)
(0.0642396 0.0336849 3.1139e-18)
(0.0643233 0.0337996 1.86935e-17)
(0.0555588 0.0795899 -2.4782e-17)
(0.054444 0.0711024 -2.50459e-17)
(0.0159069 -0.00768386 0)
(0.0654113 0.0504631 2.28298e-17)
(0.0287728 0.0263809 0)
(0.0276637 0.0136723 -2.9404e-18)
(0.0334757 0.0163775 0)
(0.0287889 0.0395319 0)
(0.0259972 0.0299499 -1.21129e-17)
(0.0070884 -0.00646268 -1.64752e-21)
(-0.0106177 0.00669182 0)
(0.0306927 0.0211696 -1.92519e-17)
(0.282311 -0.0310091 -1.27833e-17)
(0.157989 0.136543 -2.36761e-17)
(0.137915 0.0652408 0)
(0.00438895 -0.210514 -4.33796e-21)
(0.127288 0.169119 -3.86522e-17)
(0.108445 0.130455 -2.80549e-17)
(-0.00422257 -0.182157 0)
(0.0339784 -0.0210302 -4.72625e-17)
(0.115445 0.181488 -1.17802e-17)
(0.0936377 0.240667 0)
(0.170844 0.118313 2.39158e-17)
(0.0451847 -0.288447 -1.32207e-17)
(0.104261 0.169659 2.685e-17)
(0.00309745 -0.00317786 2.39551e-17)
(0.184915 0.16175 1.27273e-17)
(0.190014 0.184229 3.72565e-17)
(0.0546438 0.0398929 1.34948e-17)
(0.177565 -0.123167 0)
(0.0409214 -0.0222112 -4.71255e-17)
(0.0476916 -0.0247982 -5.75869e-18)
(0.0898121 -0.113846 3.5811e-17)
(0.00148029 -0.256254 -2.45671e-17)
(0.291484 -0.066742 -4.01356e-17)
(0.0702604 0.0557503 2.0087e-17)
(0.119473 0.257484 -3.2626e-17)
(0.0111063 -0.255145 6.25028e-18)
(0.268194 0.0694053 2.41962e-17)
(0.262223 0.0928608 -3.6375e-17)
(0.193946 0.0914339 5.08148e-17)
(0.0370563 -0.0416301 0)
(0.0656457 -0.291071 -2.55661e-17)
(0.0567258 0.117297 4.129e-17)
(0.0923692 -0.102251 -2.38143e-17)
(0.0515721 -0.291477 1.39418e-17)
(0.131348 0.114864 -6.32688e-18)
(0.0239395 0.135651 0)
(0.243059 0.0467023 -1.22646e-17)
(0.160768 -0.246732 -2.56778e-17)
(0.126096 -0.143922 2.4035e-17)
(0.0521066 -0.278146 1.54885e-17)
(0.0325941 0.0678473 -2.66769e-17)
(0.0603746 -0.176262 1.39057e-17)
(0.243555 0.0179098 -1.95777e-17)
(0.0473733 -0.185748 0)
(0.123638 0.134077 4.53231e-17)
(0.179523 -0.0351419 -2.47002e-17)
(0.207148 -0.0238987 3.1432e-17)
(0.00922305 -0.00740387 3.00801e-17)
(0.309006 -0.0373948 6.22937e-18)
(0.296797 -0.00935414 -1.32647e-17)
(0.0579384 -0.00796416 -2.80105e-17)
(0.0695284 -0.000988572 2.66619e-17)
(0.165345 0.186624 0)
(0.0572282 0.0561839 0)
(0.00900323 -0.268529 -2.69831e-17)
(-0.00121619 -0.0159539 -1.34322e-17)
(-0.00519169 -0.0923664 -2.70747e-17)
(0.00972349 -0.280808 -2.57964e-21)
(0.0635277 -0.0886265 1.22522e-17)
(0.0323021 -0.0247219 -2.49138e-17)
(-0.0027016 -0.0527014 0)
(0.00201938 -0.111383 0)
(0.118204 -0.120411 4.48307e-17)
(0.00995545 0.159735 -4.47141e-17)
(-0.0106492 0.00351566 -1.26252e-17)
(0.116272 0.137254 1.45728e-17)
(-0.00236973 0.00119142 2.54406e-17)
(0.0655958 0.231762 2.9066e-17)
(0.16571 0.0685632 0)
(0.162612 0.130359 0)
(0.138102 0.0613654 -1.30016e-17)
(0.0390299 0.261735 1.51403e-17)
(0.141414 0.148765 -1.18478e-17)
(0.0069484 -0.00388606 -1.95022e-17)
(0.0423109 -0.12524 1.28846e-17)
(0.130926 0.0164117 -3.21882e-18)
(0.127085 0.0201567 -4.4322e-17)
(0.0995261 0.271427 -3.10498e-17)
(0.116591 -0.10312 7.47457e-18)
(0.123612 0.157757 3.20043e-17)
(0.00765668 -0.0121853 -1.09703e-21)
(0.233745 -0.194823 2.20462e-17)
(0.0469346 -0.0182687 2.63468e-17)
(0.152717 0.0935016 -1.25899e-17)
(0.0772965 0.235239 -4.23549e-17)
(0.0209647 -0.124117 2.73048e-17)
(0.0549763 -0.0119105 -1.29823e-17)
(0.0421169 -0.0203772 -2.59613e-17)
(0.12904 -0.129964 2.22687e-17)
(0.0956373 0.146691 -3.07688e-18)
(-0.00994502 0.00447442 6.36133e-18)
(0.0543962 0.129717 5.69058e-18)
(0.0548148 0.0116383 0)
(0.0612242 0.0103311 8.67358e-18)
(0.104325 0.264568 1.38627e-17)
(0.0939377 -0.0957087 3.01941e-17)
(0.124751 0.233388 0)
(0.1373 -0.0333415 -5.37105e-18)
(0.2746 -0.128437 3.02268e-17)
(0.241655 -0.0749543 1.68788e-17)
(0.107032 0.172129 0)
(0.00272808 -0.00818353 -2.66308e-17)
(0.186391 -0.207307 1.37799e-17)
(0.0136782 -0.0070722 -3.5874e-18)
(0.125122 0.246013 -1.84086e-18)
(0.133372 0.149893 6.75183e-18)
(0.00211961 -0.0170427 2.9173e-17)
(0.0776125 0.0936243 0)
(0.229044 -0.105983 0)
(0.18541 -0.17079 0)
(0.128909 0.148723 -1.49313e-17)
(0.146583 0.144124 0)
(0.149066 0.122251 2.47788e-17)
(0.0432849 -0.260802 -1.42103e-17)
(0.00244134 -0.0514753 -1.48512e-17)
(0.103529 0.15539 0)
(0.2635 -0.086098 -7.46448e-18)
(0.122134 0.0978667 0)
(0.126055 0.0910842 8.47649e-19)
(-0.0193832 -0.100002 1.4422e-17)
(-0.0145446 -0.0360884 2.10006e-17)
(0.0620564 -0.19262 0)
(0.0328882 -0.081572 2.70662e-17)
(0.119453 0.2041 0)
(0.11605 0.187823 0)
(0.0105782 -0.222598 1.78818e-18)
(0.237286 -0.0588111 -2.62825e-17)
(0.00289647 -0.0116929 -1.55594e-18)
(0.100335 -0.0648373 0)
(0.141413 0.0800541 5.19368e-17)
(0.0963422 0.143107 1.48231e-18)
(0.0433357 0.206892 -1.32161e-17)
(0.0270902 -0.0271334 0)
(0.174011 0.11011 -1.16287e-17)
(0.0513571 -0.158124 -3.12221e-17)
(0.122536 -0.0751183 2.90034e-17)
(0.128279 0.15456 1.39215e-17)
(0.0713863 -0.169276 1.26778e-17)
(0.198999 0.177045 -1.37324e-17)
(0.00520022 -0.0219457 -2.80323e-17)
(0.191685 -0.120883 -2.61853e-17)
(0.130554 0.0825477 0)
(0.193997 -0.0929726 1.84831e-17)
(0.0797768 -0.229429 6.3227e-18)
(0.287244 -0.0845559 2.46027e-17)
(0.0871905 0.244004 6.72136e-18)
(0.0998764 0.257431 0)
(0.210999 -0.124241 2.42366e-17)
(0.247148 -0.139194 3.91809e-17)
(0.227895 0.00386432 0)
(0.116593 -0.217663 4.01537e-18)
(-0.0127188 0.0191036 -1.83802e-17)
(0.212 -0.0140502 0)
(0.000909652 -0.21231 -1.70639e-18)
(0.212216 0.0931183 -2.47816e-17)
(0.19077 0.0815288 -3.99506e-21)
(0.275819 0.0825784 6.237e-21)
(0.09917 -0.235583 -6.51089e-18)
(0.0933952 -0.0957008 -2.97988e-17)
(0.15717 0.0268988 3.29914e-17)
(0.125165 0.235576 5.86626e-17)
(0.178738 0.0879885 -3.02287e-17)
(0.00311467 -0.00813537 4.41862e-17)
(0.166706 0.00705213 6.25447e-18)
(0.0252932 -0.087285 1.45995e-17)
(0.12272 0.256033 2.88108e-17)
(0.126526 -0.170768 0)
(0.169953 -0.102453 -4.0637e-17)
(0.0697979 -0.0869692 -2.55251e-17)
(0.111089 0.110368 7.11909e-18)
(0.175963 -0.147187 0)
(0.12379 0.24431 -3.09649e-17)
(0.118727 -0.150933 -2.97767e-17)
(0.164267 0.0653924 0)
(0.0269791 -0.0744321 1.62943e-17)
(0.0302916 -0.27171 1.80688e-17)
(0.137475 -0.245825 -1.4827e-17)
(0.140581 -0.165271 1.8187e-18)
(0.0533581 -0.183033 0)
(0.00298792 -0.276525 2.3348e-21)
(0.119963 0.170081 0)
(0.0145128 -0.0139957 2.64685e-17)
(0.108855 -0.156254 -3.70574e-18)
(0.109935 0.14151 1.52827e-17)
(-0.0106168 -0.11261 0)
(0.031047 -0.0582628 3.29196e-17)
(0.126352 -0.0119548 3.02248e-17)
(0.147189 -0.130111 -7.50874e-18)
(0.128591 -0.108014 -2.45847e-17)
(0.0268446 -0.070619 -5.15054e-17)
(0.121475 0.250403 0)
(0.22015 -0.0328585 0)
(0.109479 0.143628 -3.16195e-17)
(0.0977775 0.133304 4.10744e-17)
(0.2605 -0.100668 1.28086e-17)
(0.316315 -0.0209864 1.46436e-17)
(0.115489 -0.170458 1.06199e-17)
(0.0159434 -0.111178 -1.61187e-17)
(0.0907461 0.269108 0)
(0.10708 0.15605 0)
(0.165553 -0.185353 0)
(0.0659314 -0.294545 -1.05573e-18)
(0.00920452 -0.00537111 1.70145e-17)
(0.207018 0.0442847 7.97748e-18)
(0.0700299 0.294547 4.20705e-17)
(0.0614438 -0.168904 1.68735e-21)
(0.218841 -0.0765065 3.1534e-17)
(0.176315 -0.0963207 7.91364e-18)
(0.039022 0.22961 -2.42908e-22)
(0.148308 0.17297 0)
(0.157481 -0.163048 -2.71617e-17)
(0.122172 0.215768 0)
(0.12171 0.219991 -2.78782e-17)
(0.192501 0.0342797 0)
(0.0955647 -0.0576468 2.36981e-17)
(0.131129 0.0643381 -7.76654e-18)
(0.0449464 -0.11032 -1.74753e-17)
(0.0781704 0.0681447 0)
(0.0580325 0.269138 2.35778e-17)
(0.132025 -0.0705266 7.80622e-18)
(0.0998669 0.123152 3.21627e-17)
(0.0190153 -0.244433 0)
(0.0962224 -0.209674 -3.09322e-17)
(0.154257 0.0728062 7.60148e-18)
(0.019207 -0.0974148 -3.03739e-17)
(0.0823812 -0.103651 -3.28166e-17)
(0.075115 -0.0774496 0)
(0.0180969 -0.257368 -8.8923e-18)
(0.230386 -0.0965501 -2.11708e-17)
(0.254446 -0.125832 -2.04695e-17)
(0.0591343 -0.133216 3.97619e-17)
(0.015986 -0.0373929 3.40114e-17)
(0.119801 0.0973146 0)
(0.0286828 -0.253299 -1.12301e-17)
(0.0344429 -0.267306 -3.4421e-17)
)
;

boundaryField
{
    back
    {
        type            empty;
    }
    front
    {
        type            empty;
    }
    top
    {