/*--------------------------------*- C++ -*----------------------------------*\
  =========                 |
  \\      /  F ield         | OpenFOAM: The Open Source CFD Toolbox
   \\    /   O peration     | Website:  https://openfoam.org
    \\  /    A nd           | Version:  9
     \\/     M anipulation  |
\*---------------------------------------------------------------------------*/
FoamFile
{
    format      ascii;
    class       volScalarField;
    location    "0.8";
    object      p;
}
// * * * * * * * * * * * * * * * * * * * * * * * * * * * * * * * * * * * * * //

dimensions      [0 2 -2 0 0 0 0];

internalField   nonuniform List<scalar> 
464
(
7.25289e-16
-1.48383e-15
-3.03269e-16
-2.90514e-16
-1.71543e-15
-3.0283e-16
3.12597e-16
-2.88397e-16
-2.55617e-16
-1.94937e-16
7.45828e-16
1.69165e-15
2.37484e-16
1.72623e-15
3.52098e-16
2.54726e-16
-2.74868e-16
-2.72926e-16
-2.6873e-16
-2.30697e-16
-2.37464e-16
-2.75437e-16
-2.66227e-16
-2.92643e-16
-2.93893e-16
-2.93023e-16
1.06022e-15
-2.67561e-16
9.37305e-16
-2.9252e-16
-2.93166e-16
-6.76666e-17
-3.74308e-17
-1.76731e-16
-1.91037e-16
-2.65012e-16
-2.65031e-16
-2.62134e-16
-2.61846e-16
6.43713e-17
-2.27885e-16
-2.60429e-16
-2.60981e-16
1.4656e-15
1.25511e-15
1.07188e-16
-2.54106e-16
-2.35701e-16
-2.467e-16
-2.71378e-16
-2.24332e-16
-2.5342e-16
-2.3035e-16
-2.17754e-16
-2.14108e-16
-2.49268e-16
-2.5524e-16
-1.51821e-16
-1.42483e-16
-2.33754e-16
-2.49753e-16
-9.89141e-16
-1.36454e-16
-1.94704e-16
-6.37898e-16
-2.28651e-16
-4.17317e-17
-2.4016e-16
1.01231e-15
-2.0364e-16
-1.15652e-16
-8.42058e-16
6.66361e-16
-2.4055e-16
-2.86898e-16
-2.58249e-16
-7.91621e-17
3.16109e-16
-1.7571e-16
6.23407e-16
-1.4905e-15
-3.05227e-16
-2.38166e-15
-3.13401e-16
-1.48688e-15
-1.22523e-16
-6.90154e-16
-3.05136e-16
-2.83073e-16
-2.47109e-16
-1.32408e-15
-1.0804e-15
-4.40389e-17
1.50532e-15
-1.68921e-17
-9.28181e-17
-1.77576e-16
-3.00538e-16
-8.8937e-16
-1.99773e-16
-2.84138e-16
-2.30726e-16
-2.86971e-16
-1.18259e-16
-1.84261e-16
-2.36485e-15
-3.10586e-16
-5.6235e-17
-1.30617e-15
-2.30105e-16
-4.94256e-17
-2.4556e-16
-1.88832e-17
-6.8687e-16
-2.74238e-16
-2.761e-16
-1.96606e-15
-3.13596e-16
-1.11204e-15
-3.01616e-16
-2.34841e-16
2.08833e-16
-5.47486e-16
6.91366e-16
-1.10749e-16
-9.5778e-17
-1.98894e-16
-1.88743e-17
-2.14171e-16
-2.1227e-15
-3.1252e-16
1.92178e-15
-2.5715e-16
-2.76328e-16
-2.84806e-16
-1.62797e-15
-3.11172e-16
-2.73084e-16
-2.29443e-16
-2.70721e-16
-2.96303e-16
-5.64656e-17
-9.94346e-17
-2.75584e-16
-3.09537e-16
-4.11034e-16
-2.67099e-16
-3.05175e-16
-2.0028e-16
-2.60541e-16
-2.68568e-16
-2.7583e-16
1.32223e-16
-1.24149e-16
-1.41455e-15
-2.78699e-16
-3.2066e-16
-2.5627e-16
-1.51497e-16
-1.09874e-15
-1.00066e-16
-2.54276e-16
-1.98877e-16
-2.50349e-16
-2.43496e-16
-3.0071e-16
3.85368e-18
-2.44398e-16
-8.44508e-17
-4.96911e-17
5.12366e-17
-8.31086e-16
-4.55518e-16
-2.79073e-16
-1.41312e-16
1.526e-17
-2.44743e-16
-2.40994e-16
3.62284e-16
-2.41666e-16
-2.42831e-16
1.70842e-17
-3.50432e-16
-3.64208e-16
-2.29614e-16
-3.48207e-16
1.04358e-16
1.15534e-16
-2.94895e-16
1.39891e-16
-2.18238e-16
1.47601e-16
-2.24906e-16
-2.24161e-16
-1.50681e-16
-1.41756e-16
-2.39655e-16
-2.21128e-16
-2.72102e-16
-2.00628e-16
-2.09633e-16
-1.57992e-16
-2.10975e-16
-1.75484e-16
1.32765e-16
-2.2131e-16
-2.01278e-16
-1.74501e-16
-1.56991e-16
-6.50843e-16
-2.85907e-16
6.17782e-17
-2.37095e-16
-2.59949e-16
-2.37737e-16
8.54664e-17
-1.39478e-16
-2.16537e-16
9.73543e-16
-1.33029e-16
-3.43726e-16
-1.90983e-16
-1.88048e-16
-2.11774e-16
-2.31826e-16
-2.29659e-16
-2.16711e-16
-2.07296e-16
-2.12135e-16
-2.0026e-16
-2.01672e-16
-2.09646e-16
-1.94618e-16
-1.56028e-16
-2.15793e-16
-1.82242e-16
-2.03652e-16
-1.84236e-16
-1.88571e-16
-2.21633e-16
-1.61389e-16
-1.71204e-16
-2.07898e-16
-1.7825e-16
-1.39993e-16
-2.41894e-16
-1.67749e-16
-2.3618e-16
-2.02831e-16
-2.3289e-16
-1.47003e-16
-2.19531e-16
-1.06796e-16
-1.69482e-16
-1.18938e-16
-1.50855e-16
-2.55154e-16
-2.36335e-16
-1.03687e-16
-8.49685e-17
-1.50836e-16
-9.93669e-17
-8.26288e-17
5.94551e-17
-1.15393e-16
4.8243e-17
-7.72834e-17
-2.72052e-16
2.61854e-16
3.79331e-18
-2.70025e-16
-9.90042e-17
-7.00007e-17
1.18824e-16
2.55281e-16
-6.74785e-17
-4.43127e-17
-1.18743e-16
-7.62565e-17
-5.22313e-16
-1.24321e-16
-2.65479e-16
-1.06366e-16
-2.43619e-16
2.78493e-16
-2.17296e-16
-4.01517e-17
-4.45633e-16
-2.62991e-16
-1.51372e-16
-3.27158e-16
-1.77949e-16
-2.56117e-16
-2.33059e-16
-6.87176e-17
-7.20133e-17
3.48026e-17
2.43029e-17
2.27157e-17
-5.63033e-16
1.93489e-16
7.27406e-17
5.57877e-16
1.65284e-15
-2.34389e-16
-5.19005e-17
-5.70346e-17
-2.48944e-16
-1.00023e-15
-5.98549e-17
-1.9507e-16
-2.6629e-16
-1.1824e-16
1.32198e-16
-8.05729e-17
-1.35432e-16
-7.87617e-18
-6.21397e-16
-2.87045e-16
1.90299e-16
-2.87618e-16
-7.48255e-18
-8.04071e-16
3.46807e-17
-1.28826e-16
-2.2727e-16
-2.31915e-16
4.78305e-16
-2.64169e-16
-4.1549e-16
-2.41928e-16
-4.89168e-16
-2.95836e-16
-9.72803e-17
-1.80207e-16
-2.42609e-16
-2.81083e-16
-2.92622e-16
-1.20569e-16
-2.4921e-16
-2.89814e-16
1.05117e-15
-2.77458e-16
-4.17713e-16
-1.08728e-16
-2.7965e-16
-2.30956e-16
-7.67355e-17
-2.91887e-16
-1.70676e-16
-2.45091e-16
-2.93524e-16
-2.36492e-17
-5.17884e-17
-2.42234e-16
-9.62248e-16
-3.06545e-16
-2.18707e-15
-3.07401e-16
-1.41799e-15
-2.99226e-16
1.21784e-16
-3.05627e-16
-1.50085e-15
9.36662e-16
-2.71644e-16
-2.81406e-16
-2.86346e-16
2.24792e-15
-2.98397e-16
-2.88187e-16
1.88618e-15
4.32647e-16
-2.5902e-16
1.32032e-15
-2.932e-16
8.32361e-16
-2.62813e-16
7.59828e-16
-2.89964e-16
-2.05824e-20
-1.54629e-16
-2.25995e-16
-8.99184e-17
-1.6759e-16
-4.91958e-17
-1.58616e-16
-2.99438e-16
-3.73175e-16
-2.74812e-16
-2.2601e-16
-2.27439e-16
-2.55122e-16
-2.29321e-16
-2.1913e-16
-2.52859e-16
-2.39898e-16
-2.77667e-16
-2.51761e-16
6.75045e-16
-8.11144e-16
-2.96328e-16
1.48684e-15
-2.83353e-16
1.09006e-16
6.59194e-16
1.88057e-15
-2.75587e-16
9.71225e-16
-2.77795e-16
-4.00828e-16
-2.79487e-16
-3.019e-16
-2.89068e-16
-2.96427e-16
-7.06091e-16
2.63235e-15
-2.75664e-16
-2.98577e-16
-1.01729e-15
-2.84391e-16
-2.95332e-16
8.53877e-16
1.66605e-15
8.85951e-16
4.83983e-16
5.71562e-16
2.9454e-16
1.34806e-16
-2.43208e-15
-3.10025e-16
-7.6674e-17
-2.3557e-16
-3.02579e-16
-1.50538e-16
-3.38412e-16
-3.25342e-16
-2.86328e-16
-3.08811e-16
-2.99662e-16
-2.18465e-16
-2.40442e-16
-2.14172e-16
-2.26903e-16
-2.70027e-16
-2.33985e-16
-2.63836e-16
-2.58365e-16
-2.54369e-16
-2.35424e-16
-4.35497e-17
2.27816e-16
8.80604e-17
-2.93441e-16
-2.21902e-16
-2.50396e-16
-2.14754e-16
-2.75581e-16
-2.83294e-16
-2.79332e-16
-2.8063e-16
2.49346e-15
1.61705e-15
-2.92006e-16
)
;

boundaryField
{
    back
    {
        type            empty;
    }
    front
    {
        type            empty;
    }
    left
    {
        type            zeroGradient;
    }
    top
    {
        type            zeroGradient;
    }
    right
    {
        type            zeroGradient;
    }
    bottom
    {
        type            uniformFixedValue;
        uniformValue    
        {
            type            scale;
            scale           
            {
                type            squarePulse;
                start           0.3;
                duration        0.3;
            }
            xScale          
            {
                type            constant;
                value           1;
            }
            value           
            {
                type            constant;
                value           15.1;
            }
        }
        value           uniform 0;
    }
}


// ************************************************************************* //
