/*--------------------------------*- C++ -*----------------------------------*\
  =========                 |
  \\      /  F ield         | OpenFOAM: The Open Source CFD Toolbox
   \\    /   O peration     | Website:  https://openfoam.org
    \\  /    A nd           | Version:  9
     \\/     M anipulation  |
\*---------------------------------------------------------------------------*/
FoamFile
{
    format      ascii;
    class       surfaceScalarField;
    location    "0.8";
    object      phi;
}
// * * * * * * * * * * * * * * * * * * * * * * * * * * * * * * * * * * * * * //

dimensions      [0 3 -1 0 0 0 0];

internalField   nonuniform List<scalar> 
663
(
-1.6336e-21
1.90615e-21
-2.72547e-22
4.34313e-22
2.03056e-21
-1.00112e-24
1.00112e-24
1.58639e-23
-7.8592e-24
-8.00469e-24
-8.9226e-22
1.32657e-21
2.42511e-26
-1.02543e-24
-2.03439e-21
4.00793e-22
5.32689e-24
1.0537e-23
-2.39993e-21
1.00466e-21
1.39527e-21
-2.56582e-22
-2.14335e-21
-4.34795e-22
2.34094e-21
1.10624e-21
-4.2048e-22
-6.85764e-22
-1.02973e-21
9.79876e-22
1.26367e-22
4.09484e-22
-4.42316e-22
3.2832e-23
4.36582e-22
-2.70974e-23
3.28562e-23
-8.46243e-23
5.17681e-23
4.51719e-23
-1.23158e-23
6.95343e-25
-6.95343e-25
4.33049e-23
-4.19362e-23
-1.36873e-24
7.09308e-26
4.3234e-23
-2.06635e-23
-1.75858e-23
3.82493e-23
-4.08634e-23
2.01999e-23
-1.9895e-23
1.64734e-23
3.42157e-24
1.66905e-24
-9.52828e-24
-1.11898e-23
-8.70515e-24
-2.49516e-23
-1.04476e-22
1.29428e-22
1.69591e-23
-6.07575e-24
-1.08833e-23
3.70809e-22
-3.95761e-22
3.00113e-23
-2.55524e-23
-4.45893e-24
1.39263e-23
1.6085e-23
-4.53294e-22
4.02393e-22
5.09012e-23
2.15386e-23
-4.74833e-22
3.87766e-22
-3.39291e-22
-4.8475e-23
2.28874e-22
1.58892e-22
4.40248e-23
1.1471e-24
3.93026e-23
4.72232e-24
-2.65221e-24
3.34756e-24
4.2356e-24
1.27235e-23
-4.11472e-22
2.22761e-23
3.89196e-22
-1.87102e-23
-2.3226e-23
3.64135e-23
-4.68239e-23
1.04103e-23
-4.4498e-24
-2.77655e-22
1.73179e-22
-6.98135e-22
2.51093e-23
-2.53165e-23
4.72573e-23
-2.19408e-23
-4.36297e-23
4.14014e-23
2.22831e-24
-7.58313e-24
7.58313e-24
-8.72797e-24
1.69551e-23
-3.56653e-23
2.26872e-23
4.0972e-24
-2.67844e-23
-3.19625e-23
6.03942e-24
2.59231e-23
-6.76588e-24
-2.44937e-23
3.12596e-23
4.31922e-23
-4.99582e-23
-1.24095e-23
3.50967e-23
-3.7726e-23
1.58156e-23
-3.26404e-23
1.68249e-23
5.73694e-23
-4.15538e-23
-2.68823e-23
-5.0803e-24
-3.34755e-24
-2.1354e-23
8.4373e-22
-8.22376e-22
-6.40932e-24
1.04666e-22
-9.82571e-23
2.13213e-23
-3.10762e-23
9.75489e-24
-1.57317e-21
1.31659e-21
1.58924e-24
-2.60831e-23
-1.55945e-22
7.94849e-23
7.64602e-23
1.16803e-23
-1.12056e-21
-6.72432e-24
4.99164e-23
4.13114e-23
1.6058e-23
-1.59453e-21
4.28691e-22
-5.78818e-23
-1.26329e-23
-3.09967e-23
-5.28411e-23
5.25971e-22
-4.7313e-22
-1.40609e-23
-1.04456e-22
-5.14894e-23
-1.9252e-21
1.65265e-21
-2.61532e-23
-6.4872e-24
-1.36253e-23
5.2802e-22
1.02513e-21
-1.55315e-21
-6.58588e-24
6.34089e-24
2.44989e-25
3.04412e-22
-4.16044e-22
1.11632e-22
2.50468e-24
7.56056e-25
-3.26074e-24
8.32432e-22
5.32693e-23
-5.96787e-23
1.16669e-21
-3.22956e-22
-4.08109e-24
-2.48642e-23
1.90473e-23
5.81691e-24
-5.52303e-22
4.99461e-22
1.00558e-23
-5.69399e-22
3.47949e-22
-1.33797e-22
-2.14152e-22
-5.86056e-22
-9.13921e-22
1.49998e-21
2.06861e-22
1.41088e-22
2.10705e-25
-4.83185e-24
-1.51588e-24
7.85682e-24
4.20038e-23
2.06855e-22
-2.48858e-22
8.00824e-22
-1.83056e-21
-1.63955e-23
-8.46865e-24
-2.6554e-24
4.40569e-23
1.16859e-23
-2.80814e-23
9.59571e-23
3.06436e-22
-2.43334e-22
-4.16044e-22
7.56147e-25
2.46203e-22
-1.66718e-22
-2.05561e-22
2.15617e-22
-4.52178e-23
4.84181e-23
-3.20036e-24
3.02836e-22
1.51451e-22
-4.54287e-22
3.46244e-23
1.12406e-22
-4.37703e-22
4.79707e-22
-2.87143e-24
2.19187e-23
-1.73025e-23
2.89884e-23
-1.11632e-22
-9.39292e-23
3.17294e-24
3.26058e-24
-6.43352e-24
2.06854e-22
1.61483e-23
-1.29753e-23
-4.78732e-23
-6.42666e-22
1.44349e-21
6.52722e-22
5.13965e-22
-9.61564e-22
1.36236e-21
9.45807e-23
5.35093e-22
-2.32257e-22
1.15118e-21
-4.98463e-22
-2.8272e-22
4.34171e-22
4.73448e-24
2.24139e-22
1.12032e-22
-1.12032e-22
1.06036e-23
-2.79061e-23
-4.99508e-24
-2.37235e-23
2.87186e-23
-9.39291e-23
-6.43343e-24
5.79368e-24
-1.6677e-23
-1.63298e-23
1.63298e-23
1.04463e-23
-1.54414e-23
-2.47426e-22
-3.55237e-23
5.15817e-23
2.61169e-23
-1.04464e-23
4.01292e-24
8.63611e-24
5.17335e-22
-1.83538e-23
2.89574e-23
1.20673e-23
-2.03824e-23
-1.06938e-23
-1.63763e-23
4.6501e-26
6.26798e-24
-2.46218e-23
-3.53196e-23
7.41359e-24
-3.78075e-23
4.3275e-22
-3.94943e-22
4.08934e-22
1.26159e-22
1.12925e-22
1.54413e-23
8.88419e-25
-4.25934e-23
-4.20309e-23
-1.60559e-23
2.23239e-23
5.08519e-22
5.31486e-22
-3.15869e-22
1.16832e-22
-2.21014e-22
1.04181e-22
1.0318e-24
-1.70877e-23
3.8172e-23
-5.11302e-22
-1.63763e-23
-1.32798e-25
-1.62435e-23
5.42879e-23
6.25445e-23
-3.79813e-23
3.78484e-23
-3.65296e-23
4.47265e-22
-4.10735e-22
-2.0205e-22
2.0205e-22
-1.53022e-22
-4.90285e-23
2.0853e-22
-2.40222e-22
2.48858e-22
-4.13093e-23
2.40222e-22
4.87351e-23
-3.31455e-22
-1.01175e-23
1.11493e-23
-4.3822e-24
-5.73527e-24
-4.81747e-22
4.43939e-22
-3.22959e-23
-1.95808e-22
2.28103e-22
3.32844e-23
-3.76667e-23
2.88556e-23
1.18166e-22
-1.47022e-22
9.52471e-23
-9.52471e-23
6.29512e-23
1.35599e-22
-1.72128e-22
-1.35599e-22
4.03518e-23
6.40807e-23
-3.52251e-23
6.40807e-23
-1.04287e-22
1.53022e-22
-4.40095e-23
1.54015e-24
4.24693e-23
1.04287e-22
-4.0206e-23
1.80088e-23
-1.80088e-23
4.73241e-26
-8.35942e-26
-4.14702e-23
-3.63348e-23
3.62512e-23
-3.79104e-23
-4.43941e-23
3.76697e-23
-1.92485e-24
-3.3761e-23
-2.57379e-24
1.61313e-23
-1.80561e-23
-4.08406e-23
7.0796e-24
1.80562e-23
1.61313e-23
1.29604e-23
-1.29604e-23
1.03865e-23
-3.52251e-23
1.16803e-23
-9.75154e-24
9.75154e-24
-1.62435e-23
-1.72128e-22
-1.90575e-22
1.90575e-22
1.03865e-23
6.29512e-23
3.17094e-24
1.08771e-23
-4.14604e-24
-1.17518e-23
7.60571e-24
-8.7471e-25
-5.11777e-24
-3.43465e-23
3.94643e-23
-1.17716e-23
1.08969e-23
-2.01658e-24
-7.13428e-24
-2.97027e-23
-4.6438e-24
2.07536e-23
-5.04563e-23
-4.28538e-23
-4.53894e-23
4.07456e-23
-1.36214e-23
8.69261e-23
-6.39997e-23
-2.29264e-23
2.20417e-23
6.48844e-23
7.1322e-24
-1.16146e-22
5.21463e-23
-3.57216e-23
1.2714e-22
-1.50067e-22
-2.84146e-23
2.91628e-23
-6.90943e-23
-6.4378e-23
5.80461e-23
4.96771e-24
-4.28781e-23
-2.42001e-23
-1.25867e-22
-1.12759e-23
2.00021e-22
-2.24221e-22
-1.90245e-22
-2.36139e-22
-6.64691e-25
2.36803e-22
-1.43369e-22
-1.09126e-22
1.67172e-22
9.08951e-23
-9.05902e-24
3.1383e-23
-1.12759e-23
-1.45243e-22
2.94324e-22
-3.91782e-22
9.74579e-23
1.11025e-22
-2.56269e-22
-2.98446e-22
-6.4454e-23
3.629e-22
-1.78204e-22
2.89229e-22
-3.66116e-22
4.58299e-22
-9.21831e-23
1.1612e-22
-3.11829e-22
-1.82327e-22
2.77123e-23
5.41907e-22
-5.09075e-22
1.56476e-22
3.01824e-22
-4.04209e-23
8.50529e-23
-2.67379e-22
-6.17486e-24
6.87192e-23
4.49723e-22
4.81926e-22
-1.50301e-22
2.35353e-22
7.27511e-25
-1.1114e-23
1.1114e-23
7.96315e-23
2.91347e-22
-2.22628e-22
2.40745e-23
2.04239e-24
4.1e-24
-1.20922e-22
-3.88153e-22
3.30528e-22
-3.91813e-23
-7.19452e-24
1.83085e-23
2.05205e-22
-7.03668e-22
-1.36514e-23
1.09515e-22
4.31052e-22
-3.21537e-22
6.36257e-22
-3.09998e-23
-2.92835e-23
-1.67383e-22
4.43871e-23
-1.83085e-23
-1.69166e-23
-1.90367e-22
2.30573e-22
-4.95138e-22
-2.90762e-22
-8.54193e-22
4.56337e-22
3.97856e-22
3.9382e-22
2.23672e-23
1.69354e-23
2.26509e-23
-3.1188e-22
-4.51508e-24
-2.02944e-22
3.85143e-22
3.92226e-23
8.54014e-22
-3.45495e-22
1.30643e-22
-3.65997e-22
-2.76763e-22
-2.18375e-22
-2.78495e-24
8.11182e-24
3.72267e-22
-1.02549e-23
-1.52974e-23
-7.05616e-23
-1.57803e-23
1.57803e-23
-5.39912e-22
3.89394e-23
4.29451e-24
2.24554e-21
-1.41965e-21
2.75088e-24
-2.75088e-24
4.63021e-23
-1.81342e-23
2.79944e-23
-4.41981e-24
4.41981e-24
-7.88439e-24
-1.63477e-24
1.63477e-24
4.18413e-22
-2.55604e-21
4.6028e-22
-1.63538e-23
-3.23224e-25
4.30912e-23
1.32488e-23
-8.74783e-23
6.42618e-22
2.42583e-26
6.42618e-22
2.42584e-26
1.72643e-23
2.0133e-21
1.47514e-24
-4.74036e-25
-5.29931e-22
-7.80405e-25
-2.26574e-22
1.42702e-21
1.09253e-25
-8.04598e-25
-1.08002e-22
1.12737e-22
2.384e-22
-1.74342e-23
2.61996e-25
1.37275e-24
6.11469e-23
-4.46034e-22
-1.20101e-22
7.7508e-23
-6.11469e-23
-2.41798e-22
-3.00105e-23
1.7695e-22
1.34212e-23
-1.49852e-22
2.03931e-22
-2.44283e-22
-8.53457e-23
-8.16183e-26
3.52725e-22
2.5635e-22
-1.27057e-23
2.09203e-23
-8.60452e-24
-2.8454e-23
5.68686e-23
5.23655e-24
-5.23655e-24
1.62383e-23
2.88346e-23
-3.33721e-23
-7.3252e-24
2.9964e-23
2.09539e-24
2.1191e-21
1.47512e-24
1.84543e-21
2.61986e-25
1.71561e-21
-9.03389e-22
6.32219e-22
-6.32219e-22
1.09255e-25
-9.07459e-22
1.09255e-25
-1.4439e-21
-6.99446e-22
5.92089e-24
-6.24413e-24
6.10682e-24
-7.38268e-24
1.27586e-24
-2.13399e-23
-6.74146e-24
2.384e-22
-2.80709e-24
1.86766e-24
-5.92518e-22
1.7695e-22
1.49852e-22
-6.38464e-25
2.09203e-23
8.60452e-24
2.71352e-23
2.57664e-23
-3.19469e-23
-1.1747e-23
-1.54466e-23
-4.33347e-25
-3.7124e-25
3.24043e-24
)
;

boundaryField
{
    back
    {
        type            empty;
        value           nonuniform List<scalar> 0();
    }
    front
    {
        type            empty;
        value           nonuniform List<scalar> 0();
    }
    left
    {
        type            calculated;
        value           uniform 0;
    }
    top
    {
        type            calculated;
        value           uniform 0;
    }
    right
    {
        type            calculated;
        value           uniform 0;
    }
    bottom
    {
        type            calculated;
        value           nonuniform List<scalar> 8(-2.46488e-21 -8.25892e-22 2.13763e-21 -1.53488e-21 -2.10183e-21 1.53968e-21 2.43795e-21 8.12222e-22);
    }
}


// ************************************************************************* //
