/*--------------------------------*- C++ -*----------------------------------*\
  =========                 |
  \\      /  F ield         | OpenFOAM: The Open Source CFD Toolbox
   \\    /   O peration     | Website:  https://openfoam.org
    \\  /    A nd           | Version:  9
     \\/     M anipulation  |
\*---------------------------------------------------------------------------*/
FoamFile
{
    format      ascii;
    class       volVectorField;
    location    "0.8";
    object      U;
}
// * * * * * * * * * * * * * * * * * * * * * * * * * * * * * * * * * * * * * //

dimensions      [0 1 -1 0 0 0 0];

internalField   nonuniform List<vector> 
464
(
(-4.87872e-14 -2.70408e-14 -3.28922e-33)
(-3.16203e-14 6.36716e-14 0)
(1.10061e-17 1.44152e-17 0)
(3.7423e-16 -1.66793e-17 1.75752e-32)
(-2.26852e-14 5.01782e-14 0)
(9.39139e-18 1.24396e-17 -4.5813e-33)
(-4.65944e-14 -1.50283e-14 3.08837e-32)
(3.54431e-16 -7.16748e-17 0)
(-5.73394e-14 2.15184e-15 -2.37937e-33)
(-5.42902e-14 1.74355e-14 -2.39862e-32)
(-3.87836e-14 -3.50622e-14 2.51003e-33)
(-1.64161e-14 -1.83044e-14 -2.55073e-33)
(-5.07255e-14 -4.61018e-15 1.1204e-33)
(-1.16726e-14 -2.06178e-14 0)
(-3.49839e-16 1.47693e-14 5.24562e-33)
(2.78504e-16 1.28368e-14 -1.7499e-32)
(8.49899e-16 2.30605e-15 0)
(4.01812e-16 1.49796e-15 -6.36963e-33)
(1.75987e-17 -1.09675e-17 -1.23987e-32)
(-2.37826e-16 1.29094e-15 1.35142e-32)
(-1.71865e-16 1.37344e-15 -1.9984e-32)
(3.25456e-16 1.14057e-15 3.87946e-33)
(3.28313e-16 1.17813e-15 -2.02721e-33)
(4.27287e-16 1.26461e-16 0)
(2.66806e-16 9.78888e-18 -1.80507e-32)
(4.25191e-16 2.09981e-16 8.42031e-33)
(-3.9219e-15 5.9687e-15 -3.22034e-32)
(2.21727e-16 -3.14664e-16 -1.59638e-32)
(-5.49954e-15 8.62257e-15 0)
(3.76754e-16 6.62789e-16 0)
(4.65153e-16 5.61583e-16 1.03644e-33)
(4.60302e-15 1.29216e-14 4.17662e-35)
(3.51411e-15 1.43725e-14 2.08321e-34)
(4.05822e-15 8.78585e-15 -1.02219e-32)
(4.84831e-15 7.54636e-15 1.0302e-32)
(2.68319e-16 1.13056e-15 1.64632e-32)
(3.13268e-16 1.3224e-15 -1.50528e-32)
(4.08499e-17 -7.38854e-17 -1.92597e-33)
(1.71423e-16 -3.81562e-16 3.95063e-34)
(1.16038e-15 1.20273e-14 0)
(-2.3379e-16 1.25165e-15 1.98006e-32)
(1.16525e-16 1.37751e-15 0)
(2.06736e-16 1.28261e-15 -5.2792e-33)
(-6.3332e-15 -4.40475e-16 -7.7194e-32)
(-1.24786e-14 -6.53528e-15 7.87649e-32)
(1.17641e-15 1.42054e-14 3.82089e-34)
(4.77856e-16 -9.8183e-16 1.45502e-32)
(1.04266e-16 -1.10527e-15 -2.92062e-34)
(3.80769e-17 -1.42212e-16 0)
(1.1918e-16 -1.73588e-16 1.8647e-33)
(-1.87039e-16 1.23812e-15 -1.34688e-32)
(1.90696e-16 -6.44329e-16 -9.11733e-34)
(-7.00073e-17 7.86322e-16 -9.41294e-33)
(-1.65819e-16 -9.05698e-16 -1.23372e-32)
(-1.46862e-16 -1.31263e-15 -4.02845e-34)
(2.66793e-16 -8.70525e-16 1.45643e-32)
(4.38684e-16 -9.13793e-16 0)
(4.52238e-16 -9.46766e-16 0)
(3.12681e-16 -1.29915e-15 -7.69851e-33)
(-6.58217e-17 8.92241e-16 0)
(6.34377e-17 -1.9902e-16 1.48746e-32)
(-2.59516e-14 1.36343e-14 1.06426e-31)
(2.32706e-15 -1.09508e-15 1.4554e-32)
(-2.5239e-16 -5.95659e-16 -1.17068e-32)
(-4.47193e-14 1.63297e-14 -8.91579e-34)
(-4.53459e-17 -6.20069e-16 -1.35882e-32)
(2.39684e-15 -3.58727e-15 -2.92204e-33)
(7.03869e-17 -3.59247e-16 -1.32745e-32)
(-2.82848e-14 -2.50446e-14 -2.8204e-32)
(-1.9132e-16 -1.3649e-15 1.18684e-32)
(5.42001e-16 -1.52247e-15 7.68256e-33)
(-3.57473e-14 2.18926e-14 -5.66558e-32)
(-3.6073e-15 1.23528e-14 0)
(2.05749e-16 -1.13511e-15 1.4291e-32)
(1.20607e-15 -1.54708e-14 -1.44721e-32)
(2.76837e-16 -5.80729e-16 1.54714e-32)
(2.25467e-15 -2.7088e-15 -4.65312e-33)
(-5.54231e-14 -2.6004e-14 -3.03544e-32)
(1.32391e-16 -6.09013e-16 -1.04905e-32)
(-1.34121e-15 1.23978e-14 1.3887e-32)
(-2.20312e-14 3.19732e-14 0)
(1.00723e-16 9.97322e-17 4.39318e-33)
(-5.08234e-15 9.97437e-15 -1.38255e-31)
(3.63645e-17 7.30136e-17 1.90887e-32)
(-1.32396e-14 1.84987e-14 0)
(1.47889e-15 -1.27313e-15 5.77906e-34)
(-2.55387e-14 5.77483e-15 -5.03994e-32)
(1.0787e-16 1.61201e-16 0)
(5.78853e-16 -1.52961e-16 0)
(1.52003e-15 -1.53547e-14 -1.24014e-32)
(-1.60027e-14 1.20964e-14 7.86325e-32)
(-3.3558e-14 3.40374e-14 0)
(4.77203e-15 -6.49152e-15 1.86985e-33)
(-2.23968e-14 -4.31879e-14 -7.59887e-32)
(4.35967e-15 -8.26817e-15 -1.81949e-33)
(2.893e-15 -1.95256e-15 -6.82574e-33)
(-1.17136e-16 -8.56238e-16 1.05149e-32)
(1.83816e-16 1.24199e-16 -4.02913e-33)
(-5.001e-16 -8.56841e-15 -5.94388e-32)
(-4.41039e-14 3.38356e-16 -1.23281e-33)
(6.02544e-16 1.9115e-17 0)
(9.21114e-17 -1.30382e-15 5.26441e-34)
(6.69708e-16 1.42281e-16 0)
(5.02382e-15 1.11979e-14 -4.0869e-35)
(4.21114e-15 1.08108e-14 0)
(-3.37831e-15 8.92053e-15 -1.1079e-31)
(1.41446e-17 1.2822e-17 0)
(3.55971e-15 -4.2977e-15 2.84072e-33)
(-8.64652e-15 3.20636e-15 -7.87168e-32)
(7.35869e-17 -1.30649e-15 0)
(4.62324e-15 -1.1213e-14 0)
(3.38956e-16 -1.17476e-15 -1.48537e-32)
(3.49912e-15 -5.62836e-15 0)
(-1.92701e-15 -1.25763e-14 3.58921e-32)
(6.2229e-16 -3.02124e-16 5.20211e-34)
(7.41812e-16 2.87365e-17 -2.64622e-34)
(-3.0832e-15 2.74091e-16 1.08101e-31)
(5.28731e-17 1.90815e-16 2.00503e-32)
(-6.13718e-16 -4.37846e-15 4.78094e-32)
(1.57012e-16 3.72961e-16 -1.12449e-33)
(1.61468e-16 -1.35248e-15 1.34582e-32)
(-3.62792e-14 -1.49442e-15 -4.33566e-34)
(-3.21886e-14 4.46365e-15 2.21575e-32)
(-3.64851e-14 -1.16655e-14 -2.71546e-32)
(1.12296e-15 -1.74665e-15 0)
(5.18745e-15 -1.17873e-14 6.55711e-33)
(-2.77234e-14 2.14648e-16 -2.23506e-32)
(2.92581e-15 -1.09002e-14 0)
(4.00935e-15 5.95616e-15 0)
(-2.22903e-15 2.16651e-15 1.07105e-31)
(2.66697e-17 6.34576e-17 -1.48249e-32)
(-2.48891e-15 -2.17366e-15 -8.78704e-32)
(2.91528e-17 -5.92134e-17 -1.21698e-32)
(7.475e-16 2.0503e-16 0)
(1.49403e-16 8.44101e-16 0)
(-1.32319e-15 -2.12242e-15 -8.57304e-32)
(3.12112e-17 1.33427e-16 -2.97394e-32)
(3.74442e-16 -3.47456e-16 -1.67829e-32)
(-4.16388e-14 7.21128e-15 2.56244e-32)
(7.23118e-18 3.4134e-16 1.26964e-32)
(5.71527e-17 5.01508e-16 0)
(5.47091e-15 -9.13149e-15 0)
(2.82263e-16 -1.29756e-15 1.39757e-33)
(7.09221e-16 -2.61698e-16 1.65007e-32)
(6.2235e-17 3.36307e-16 1.80962e-32)
(1.50829e-16 -1.42765e-14 -2.7961e-32)
(7.33035e-16 2.81066e-17 0)
(2.0586e-16 3.02895e-16 0)
(-2.82695e-16 -8.80031e-16 -5.02021e-34)
(1.47141e-18 6.53897e-16 -3.04315e-32)
(6.53898e-16 2.78578e-16 5.00582e-34)
(6.66959e-16 5.35041e-16 1.60295e-32)
(-9.21001e-15 7.44483e-15 1.03114e-32)
(3.83184e-15 -1.38708e-14 -6.5862e-33)
(-1.59425e-15 -5.68825e-15 -7.04922e-35)
(3.10274e-17 6.21005e-16 -1.80835e-32)
(7.99487e-16 2.87887e-15 0)
(5.65949e-16 5.20621e-17 0)
(-2.93722e-14 -1.13367e-18 -5.54488e-34)
(-9.98455e-15 -2.20328e-15 6.34212e-32)
(-5.52023e-15 -6.1167e-17 0)
(4.30067e-16 3.31121e-16 -1.53538e-32)
(1.39254e-15 -1.34088e-14 2.39842e-32)
(-4.19137e-18 3.43231e-16 4.04678e-34)
(-3.21239e-17 6.41522e-16 1.46982e-32)
(3.41803e-17 2.21848e-16 0)
(-1.45958e-15 3.23052e-15 -1.97725e-33)
(-6.26189e-17 1.12388e-15 1.48125e-32)
(1.84123e-15 1.09794e-14 6.84495e-33)
(3.7803e-16 -4.12631e-15 4.52218e-33)
(8.00276e-16 -6.66319e-15 -4.03663e-33)
(-1.68392e-14 -8.12211e-16 -4.22428e-32)
(2.37099e-16 -9.17024e-15 -1.06178e-32)
(2.0361e-16 1.09845e-15 -3.85431e-33)
(6.54864e-16 -8.29887e-15 7.31983e-33)
(1.94458e-15 -8.34787e-15 1.18933e-33)
(2.8406e-16 3.67084e-17 1.52303e-32)
(1.15373e-16 3.45849e-16 -5.76187e-35)
(-1.29707e-14 6.96336e-15 1.64011e-32)
(1.65827e-15 5.60234e-15 2.04681e-33)
(9.48648e-17 9.45767e-16 1.43308e-32)
(1.1845e-15 -3.59614e-15 -1.18693e-33)
(3.42274e-16 1.98411e-15 0)
(5.98469e-16 3.08135e-15 -2.27802e-32)
(5.84532e-16 6.20794e-15 3.93837e-33)
(6.83324e-16 4.59343e-15 -5.25074e-34)
(4.30979e-16 -1.87314e-15 0)
(2.87802e-16 -1.2677e-15 6.28281e-33)
(2.18302e-16 -4.93656e-15 -2.83436e-32)
(7.68128e-16 -4.83021e-15 -9.04933e-36)
(-3.78375e-17 -1.34412e-15 -1.2805e-35)
(6.20956e-16 -3.16526e-15 -7.8592e-33)
(1.14586e-17 -3.54351e-16 -2.14296e-32)
(1.71399e-17 -1.18878e-15 -1.38474e-32)
(2.31941e-17 -1.26551e-15 8.50322e-36)
(-2.74505e-17 -1.09802e-15 -8.53016e-36)
(-1.3052e-16 1.25127e-15 -1.36197e-32)
(-3.99821e-17 -1.413e-15 1.26688e-35)
(3.51796e-16 2.9131e-15 -1.19164e-32)
(-1.39581e-16 -1.27334e-15 1.15966e-32)
(-6.63101e-17 -1.16734e-15 0)
(-8.19517e-17 -9.42858e-16 0)
(-3.59304e-17 -6.56965e-16 0)
(-1.54861e-16 -1.14841e-15 1.03971e-35)
(3.7375e-16 -2.09365e-15 0)
(5.62179e-19 -6.87317e-16 4.57172e-34)
(-2.16645e-17 -3.13441e-16 0)
(-2.57141e-17 -2.43878e-16 -8.72631e-33)
(-5.25865e-17 -4.53954e-16 8.65585e-33)
(-1.11496e-16 -5.16512e-15 2.6412e-32)
(2.67733e-17 3.14215e-16 1.34084e-32)
(1.87512e-16 -6.80254e-16 0)
(3.60824e-17 -2.2683e-16 1.14138e-32)
(3.7205e-17 1.99632e-16 -1.19371e-32)
(-2.2716e-17 3.2379e-16 0)
(4.17666e-16 -3.1e-15 3.26465e-33)
(2.04349e-16 3.84298e-15 8.71595e-33)
(-6.67892e-18 -3.55794e-16 1.04565e-32)
(-6.37667e-16 4.38486e-15 1.37261e-32)
(-1.05778e-17 -1.86009e-16 -6.92576e-33)
(3.28323e-16 1.33232e-15 1.68283e-32)
(-5.85411e-17 -5.62104e-16 1.09138e-32)
(-1.12673e-16 -1.05543e-15 -1.16105e-32)
(-2.66038e-16 -6.15218e-16 2.4911e-32)
(-4.42363e-17 3.64743e-17 1.40153e-32)
(-1.84204e-16 3.63567e-16 -1.32989e-32)
(-2.74341e-16 4.7872e-17 0)
(-1.27483e-16 9.06273e-16 6.107e-33)
(-2.97975e-16 3.40121e-16 -3.82553e-34)
(-2.53064e-16 1.94221e-17 -1.22476e-32)
(-1.07248e-16 3.44974e-16 1.21394e-32)
(6.56705e-17 1.10036e-15 -1.51835e-33)
(4.47894e-16 9.79482e-16 0)
(9.95595e-16 -7.48044e-16 -8.11015e-33)
(2.40467e-18 1.22102e-15 1.32416e-32)
(1.56101e-16 4.67473e-17 0)
(1.92585e-15 1.97966e-15 -3.71002e-34)
(1.47757e-15 1.3331e-15 -1.31475e-34)
(5.35227e-16 3.98617e-16 1.0384e-32)
(1.37728e-15 2.26491e-15 1.33939e-32)
(1.06586e-15 5.1065e-17 -1.05632e-32)
(2.91432e-15 2.05519e-15 -1.0945e-32)
(7.91081e-16 1.33761e-15 1.13888e-32)
(1.68068e-15 5.32033e-16 0)
(2.4734e-15 6.46254e-17 0)
(1.48832e-15 2.78588e-15 -6.3892e-35)
(3.27518e-15 7.76714e-16 -3.15983e-34)
(-1.06886e-16 1.03901e-15 0)
(3.3699e-15 3.156e-15 0)
(-6.1827e-17 5.4206e-16 0)
(4.57104e-15 3.17563e-15 -9.06818e-33)
(2.52643e-15 3.67646e-15 -2.50625e-32)
(5.65945e-15 -2.66151e-15 -5.19572e-33)
(3.34929e-15 -1.37673e-14 1.24397e-32)
(4.22836e-15 6.06916e-17 0)
(5.07206e-15 1.07977e-15 0)
(5.4143e-16 -5.00583e-16 0)
(-3.71492e-17 2.41548e-16 -1.09767e-32)
(5.95974e-15 -4.55273e-17 -7.7931e-33)
(6.90171e-15 6.29365e-15 0)
(6.61852e-15 1.50966e-15 7.45659e-33)
(7.20803e-15 -5.14877e-15 1.00296e-32)
(7.30685e-15 -3.367e-18 6.01196e-33)
(1.9164e-15 1.22052e-14 1.74511e-33)
(7.58738e-15 2.08512e-15 -6.0121e-33)
(-1.10209e-15 9.58842e-15 -1.46009e-32)
(7.56587e-15 -9.74803e-17 -1.04462e-35)
(5.01729e-16 -4.39529e-16 -5.08464e-34)
(-3.75173e-16 1.57436e-14 -7.77232e-33)
(4.03253e-15 9.51222e-15 -1.76876e-33)
(1.04069e-16 1.08814e-15 -1.44476e-32)
(6.93743e-15 2.60579e-15 0)
(1.76549e-15 -6.71716e-18 1.91779e-33)
(1.66468e-15 1.5445e-14 -2.66895e-34)
(-3.30021e-14 -4.31331e-15 6.55049e-33)
(5.95006e-15 -7.08047e-17 0)
(4.18796e-15 3.15458e-15 0)
(6.10298e-17 -9.67681e-16 -6.50541e-33)
(3.01652e-17 -1.95322e-16 0)
(-1.26612e-15 -1.50003e-14 -8.23668e-33)
(1.80787e-15 -6.8284e-15 4.55365e-35)
(6.77921e-16 -4.83791e-16 -2.817e-34)
(-3.21978e-18 -4.18296e-16 0)
(1.61955e-16 -8.95611e-16 -1.48888e-32)
(-3.21117e-15 1.42209e-14 -1.24257e-32)
(-1.09634e-15 -9.5741e-15 -1.07686e-32)
(9.64956e-17 -5.66481e-16 -1.46248e-33)
(-1.9591e-14 -3.23956e-15 0)
(5.46155e-16 -7.08987e-16 0)
(-5.13131e-15 -6.32825e-15 1.10346e-32)
(-8.97636e-15 -7.77585e-15 8.6896e-35)
(-1.51278e-14 -4.13966e-15 -7.15463e-35)
(5.99396e-16 -6.62233e-16 -1.56748e-32)
(1.01289e-16 -8.94202e-16 2.81193e-32)
(4.4991e-15 -3.05811e-15 5.28516e-33)
(3.31828e-16 -1.30349e-15 8.86983e-33)
(2.44388e-16 -1.0182e-15 0)
(2.69747e-15 -7.87608e-15 5.79389e-34)
(2.11756e-15 -5.22625e-15 1.18959e-33)
(-1.53042e-14 -5.31353e-15 4.18297e-32)
(-4.17588e-15 1.11168e-14 6.3889e-33)
(-1.02525e-14 2.48102e-15 -2.10984e-33)
(-1.7939e-14 5.42541e-16 -7.55019e-32)
(-1.35039e-14 -3.11243e-14 9.61921e-32)
(1.11977e-16 1.06376e-15 7.17155e-33)
(5.95588e-15 -4.55367e-15 -4.52352e-33)
(6.77174e-15 -6.35547e-15 -9.30388e-33)
(-8.77623e-18 7.46306e-16 6.99169e-33)
(-4.88378e-15 -7.10131e-15 -1.16622e-31)
(1.92833e-15 -1.11297e-14 -5.38366e-33)
(-2.53301e-16 -1.24506e-15 -1.18709e-32)
(7.00392e-16 -3.93403e-16 -2.77148e-34)
(3.98531e-15 -1.73121e-15 0)
(-2.22704e-14 8.95575e-16 4.97832e-34)
(6.31283e-15 -8.1275e-15 -1.10514e-32)
(3.89662e-15 -9.4033e-15 0)
(9.73505e-17 -3.37797e-16 1.14648e-33)
(-8.8578e-15 -1.00177e-14 0)
(2.26742e-16 -5.71708e-17 0)
(-2.01115e-14 2.91363e-15 -1.66406e-32)
(3.65465e-16 8.41155e-16 1.33159e-32)
(1.42211e-15 -3.23011e-15 -5.73736e-36)
(-5.01979e-15 -1.09818e-14 5.39904e-32)
(1.63976e-15 -5.7154e-15 -1.7595e-33)
(-1.61108e-14 -1.57457e-16 1.73193e-33)
(3.60045e-17 -6.38011e-16 -1.80718e-34)
(6.20139e-17 -5.17162e-16 -1.36563e-32)
(-2.41565e-14 -1.97659e-16 2.29435e-32)
(4.51986e-16 -6.1177e-16 0)
(-6.79519e-15 -1.16891e-14 -2.50861e-32)
(-8.25505e-17 1.38523e-15 -7.19283e-33)
(-5.96064e-14 2.12771e-14 -1.17456e-32)
(5.68708e-17 5.31301e-18 -7.1514e-33)
(6.95133e-15 -3.83987e-15 9.00135e-33)
(-2.00293e-16 -1.27124e-15 -1.03458e-35)
(2.675e-16 -5.8881e-16 -1.40757e-32)
(4.4228e-16 9.42321e-16 -1.23369e-32)
(7.87513e-17 -7.82265e-18 -1.39545e-32)
(2.52503e-15 -1.37184e-14 -4.14567e-33)
(-1.19996e-17 1.41986e-15 1.53887e-32)
(3.36802e-17 -1.27866e-17 7.24321e-33)
(-4.89218e-14 -5.52951e-14 0)
(-5.52642e-16 -1.41349e-14 -2.31013e-34)
(-2.67015e-15 -1.45021e-14 2.4897e-32)
(5.73445e-15 -6.25796e-15 5.64504e-33)
(3.6437e-16 -2.30188e-16 8.21628e-33)
(2.81254e-17 -3.09443e-16 2.19764e-32)
(1.36012e-15 -2.24065e-15 4.63958e-33)
(1.42286e-16 3.13472e-19 1.70812e-32)
(-1.30716e-16 -1.19128e-15 0)
(3.8643e-16 -8.07779e-16 -4.57291e-34)
(1.16986e-16 -2.17189e-17 -8.23852e-33)
(7.19807e-16 -2.13645e-15 0)
(7.78549e-16 -1.94915e-15 -3.69457e-33)
(3.09214e-16 -1.18353e-15 -1.39402e-32)
(-1.05203e-14 4.11898e-14 1.30135e-31)
(-3.8685e-18 1.69557e-18 0)
(-3.05981e-15 1.69797e-14 -7.02703e-32)
(1.2504e-18 -3.45681e-18 -6.95009e-33)
(-4.06206e-14 5.51674e-14 0)
(5.47546e-17 3.02921e-17 -9.72542e-33)
(-5.98944e-14 -6.11155e-15 2.75267e-33)
(3.97417e-17 3.99545e-17 4.89824e-33)
(-1.75605e-14 3.7093e-14 0)
(-3.52932e-14 -4.51481e-14 2.33089e-33)
(8.53403e-18 -4.03354e-18 1.70101e-32)
(4.5069e-16 -1.62816e-16 0)
(3.13252e-15 5.3851e-15 0)
(-4.48384e-15 -8.60817e-15 0)
(2.2422e-16 5.35093e-16 9.64759e-33)
(4.33751e-17 -2.2569e-17 0)
(-2.86459e-15 -1.18336e-16 1.70521e-31)
(-5.28836e-15 1.28961e-14 -3.11246e-33)
(1.52536e-15 4.10363e-15 0)
(-1.24923e-15 5.15376e-15 1.20303e-32)
(4.98605e-16 5.22379e-17 0)
(-1.9045e-14 -5.19487e-15 4.27342e-32)
(8.55795e-17 1.23857e-15 2.41036e-32)
(-4.7083e-16 7.82829e-15 8.77299e-32)
(2.16954e-16 7.92485e-16 4.87915e-33)
(3.47524e-16 7.0946e-15 0)
(2.74935e-15 1.06586e-14 -7.3019e-33)
(2.44373e-15 7.49933e-15 0)
(6.34803e-15 8.40119e-15 -2.55205e-33)
(4.90145e-15 4.46501e-15 -1.28624e-35)
(5.07839e-15 1.05032e-14 0)
(6.11817e-15 6.42355e-15 -4.77924e-33)
(2.98009e-16 2.10026e-16 -9.72557e-33)
(4.21818e-16 1.6688e-15 0)
(7.60054e-17 4.42609e-16 0)
(1.84564e-16 1.27976e-15 -7.28477e-33)
(7.55671e-16 1.81389e-15 0)
(9.06625e-18 3.2223e-16 8.00778e-33)
(-5.52395e-17 3.63434e-16 2.4613e-32)
(-2.49716e-16 1.03673e-15 -6.83814e-33)
(2.03913e-16 1.06708e-15 -1.504e-32)
(-5.37983e-17 1.13852e-15 0)
(5.85404e-16 7.53711e-16 -3.40671e-32)
(-3.02279e-17 1.25789e-15 0)
(-1.14207e-14 5.74033e-15 3.89528e-32)
(-4.99831e-14 5.52302e-14 0)
(2.99273e-17 7.41393e-18 0)
(-4.14672e-14 -5.66673e-14 0)
(3.61029e-18 -8.64082e-18 -6.64193e-33)
(-6.12754e-14 -2.68333e-16 1.56593e-32)
(-5.51723e-14 -3.69937e-14 0)
(-3.74483e-15 -1.77332e-14 0)
(1.04982e-18 4.10689e-18 1.24791e-32)
(-1.12724e-14 -4.08607e-14 0)
(-4.00193e-18 5.47798e-19 -1.60716e-32)
(-5.3396e-14 2.90493e-14 1.12033e-32)
(2.45101e-16 -1.62557e-16 8.99145e-33)
(2.02345e-16 5.0427e-17 0)
(6.13843e-16 3.13276e-16 8.73693e-33)
(2.95501e-16 7.15997e-17 0)
(-4.204e-14 4.08131e-14 0)
(-1.94091e-15 -6.38541e-15 0)
(1.37434e-16 -1.33815e-16 5.26758e-34)
(1.59636e-16 7.0134e-17 8.7496e-33)
(-5.66893e-14 3.40932e-14 -1.11205e-32)
(1.92009e-16 -8.93478e-17 9.61548e-33)
(9.64233e-17 1.03228e-17 1.03756e-32)
(-2.90659e-14 -1.40431e-14 3.02254e-32)
(-8.52822e-16 1.56868e-15 -7.68519e-32)
(-3.14276e-14 -6.45405e-14 -6.22208e-32)
(-9.99527e-15 9.21197e-15 1.52421e-32)
(-4.55909e-17 4.29895e-15 -3.11388e-32)
(2.212e-16 7.56248e-15 6.94001e-33)
(1.08242e-16 3.80523e-15 -5.00963e-33)
(-7.03009e-15 2.26114e-14 1.61343e-31)
(8.52666e-18 8.17487e-18 1.03557e-32)
(6.46514e-15 7.22524e-15 2.74422e-33)
(1.66174e-15 7.72211e-15 5.91787e-34)
(3.04252e-16 3.37471e-16 1.76841e-32)
(6.11308e-15 4.10143e-15 1.56033e-32)
(1.62958e-16 5.4539e-16 0)
(1.30661e-16 6.92315e-16 5.15141e-33)
(5.98573e-16 5.22498e-16 -9.14605e-33)
(4.27356e-17 2.23395e-16 0)
(1.44473e-16 5.6669e-16 -9.73632e-33)
(5.6683e-16 1.49491e-15 0)
(-6.59159e-18 1.33239e-16 -5.47787e-33)
(-2.97085e-16 8.13145e-16 5.88164e-34)
(-2.50126e-16 1.04182e-15 -7.72323e-33)
(5.89175e-16 6.94305e-16 2.47903e-32)
(-1.77377e-16 9.081e-16 -4.49302e-34)
(4.57114e-16 9.09737e-16 -9.02562e-33)
(1.26846e-17 1.07569e-15 -8.55891e-33)
(3.80716e-16 7.85057e-16 9.48693e-33)
(-1.47251e-16 1.10918e-15 7.32442e-33)
(2.40182e-15 1.32277e-14 0)
(-6.05335e-14 -2.14564e-14 -8.83764e-33)
(2.27127e-15 1.53754e-14 5.87873e-33)
(5.14841e-16 3.06422e-16 0)
(-1.05339e-16 1.18476e-15 -1.46818e-32)
(2.16649e-15 5.25671e-15 0)
(2.47845e-15 4.30542e-15 1.48025e-32)
(2.33587e-17 -2.83615e-17 -8.77278e-33)
(1.00751e-16 -5.45918e-17 -8.19457e-35)
(7.54442e-17 -7.05497e-17 -1.26405e-34)
(-2.11921e-19 -3.66313e-18 1.50169e-32)
(-5.34922e-15 -1.99795e-14 0)
(-2.17084e-14 -5.15989e-14 1.73818e-32)
(4.2592e-16 4.29319e-16 -2.22433e-32)
)
;

boundaryField
{
    back
    {
        type            empty;
    }
    front
    {
        type            empty;
    }
    left
    {
        type            noSlip;
    }
    top
    {
        type            uniformFixedValue;
        uniformValue    
        {
            type            scale;
            scale           
            {
                type            squarePulse;
                start           0.3;
                duration        0.3;
            }
            xScale          
            {
                type            constant;
                value           1;
            }
            value           
            {
                type            constant;
                value           (0 -0.7 0);
            }
        }
        value           uniform (0 -0 0);
    }
    right
    {
        type            noSlip;
    }
    bottom
    {
        type            zeroGradient;
    }
}


// ************************************************************************* //
