/*--------------------------------*- C++ -*----------------------------------*\
  =========                 |
  \\      /  F ield         | OpenFOAM: The Open Source CFD Toolbox
   \\    /   O peration     | Website:  https://openfoam.org
    \\  /    A nd           | Version:  9
     \\/     M anipulation  |
\*---------------------------------------------------------------------------*/
FoamFile
{
    format      ascii;
    class       volScalarField;
    location    "0.97";
    object      p;
}
// * * * * * * * * * * * * * * * * * * * * * * * * * * * * * * * * * * * * * //

dimensions      [0 2 -2 0 0 0 0];

internalField   nonuniform List<scalar> 
90
(
9.08302e-23
-1.78532e-23
-5.01491e-22
-1.52912e-21
-5.17824e-22
1.09725e-21
-5.59063e-24
1.65408e-22
2.65244e-22
1.60023e-22
-5.57871e-23
2.18409e-22
2.09907e-22
-6.40713e-22
4.6422e-22
3.1025e-21
-3.26045e-21
6.60914e-22
7.07308e-22
2.15863e-23
-3.04612e-23
-4.40935e-23
-5.44975e-23
-2.10535e-22
-2.76343e-24
-3.56441e-22
2.97533e-22
-2.62376e-22
-4.23226e-22
2.48624e-22
1.48864e-22
-5.89024e-22
-4.71794e-22
-2.75585e-22
-3.88468e-22
3.00055e-21
1.24486e-22
-4.8158e-21
-5.44146e-22
1.18587e-22
2.07712e-22
3.35632e-22
-6.83562e-22
5.5119e-23
1.28377e-23
-6.99192e-22
1.82937e-22
1.21309e-21
6.26614e-22
-8.20262e-22
1.54325e-23
1.34418e-22
2.32765e-22
-6.45262e-22
2.39041e-22
7.80191e-22
2.7432e-24
-6.99534e-23
6.04536e-23
-7.22789e-22
2.20124e-22
-7.70285e-22
-1.05287e-21
-5.63493e-23
4.72601e-22
2.71052e-22
-6.54793e-22
-7.63827e-22
-4.05148e-21
-1.26144e-22
1.46489e-21
1.4785e-22
-6.06187e-22
1.35622e-21
2.91233e-21
2.23914e-22
1.31913e-22
-5.6341e-22
-1.246e-22
-1.95103e-23
-4.7682e-21
3.8293e-23
-3.19282e-23
2.64268e-21
-1.40732e-22
-1.00332e-21
1.06085e-22
1.62595e-22
1.78821e-21
2.62313e-22
)
;

boundaryField
{
    back
    {
        type            empty;
    }
    front
    {
        type            empty;
    }
    bottom
    {
        type            zeroGradient;
    }
    outer_arc
    {
        type            zeroGradient;
    }
    right
    {
        type            uniformFixedValue;
        uniformValue    
        {
            type            scale;
            scale           
            {
                type            squarePulse;
                start           0.3;
                duration        0.3;
            }
            xScale          
            {
                type            constant;
                value           1;
            }
            value           
            {
                type            constant;
                value           15.1;
            }
        }
        value           uniform 0;
    }
    inner_arc
    {
        type            zeroGradient;
    }
}


// ************************************************************************* //
