/*--------------------------------*- C++ -*----------------------------------*\
  =========                 |
  \\      /  F ield         | OpenFOAM: The Open Source CFD Toolbox
   \\    /   O peration     | Website:  https://openfoam.org
    \\  /    A nd           | Version:  9
     \\/     M anipulation  |
\*---------------------------------------------------------------------------*/
FoamFile
{
    format      ascii;
    class       surfaceScalarField;
    location    "0.97";
    object      phi;
}
// * * * * * * * * * * * * * * * * * * * * * * * * * * * * * * * * * * * * * //

dimensions      [0 3 -1 0 0 0 0];

internalField   nonuniform List<scalar> 
122
(
1.86655e-29
-7.06861e-30
4.5862e-30
-1.83001e-28
3.8084e-29
1.05182e-28
1.6228e-28
-1.9031e-28
-1.32973e-28
1.9218e-28
-2.19549e-28
-4.82434e-28
4.91365e-28
-9.05518e-31
2.29079e-29
7.04524e-30
-1.15797e-29
-7.92356e-29
7.29796e-29
3.04734e-30
8.12099e-30
-3.32179e-29
-3.40303e-29
7.52629e-29
1.26332e-28
-2.10117e-28
7.56937e-29
-2.15589e-28
9.46216e-29
-2.41797e-29
2.37726e-28
1.28059e-28
-5.41566e-29
4.79095e-29
2.79977e-29
1.42146e-30
-9.35017e-30
-4.96137e-29
5.67986e-29
3.91603e-29
-2.50032e-29
4.88058e-29
-3.06824e-29
2.14843e-29
4.33523e-29
-2.31709e-29
-1.69485e-29
2.95951e-29
4.08812e-29
-1.68549e-29
-2.93808e-31
4.89491e-29
-4.98561e-29
3.96863e-28
-2.12434e-28
1.57345e-29
7.2379e-30
2.63331e-29
7.24107e-31
1.82856e-29
2.08838e-29
-2.04393e-29
3.30718e-29
7.51644e-29
-1.2367e-28
-1.28376e-28
1.16967e-29
-8.53249e-30
5.99197e-30
-1.73757e-29
-4.03254e-29
-2.30585e-31
-3.57515e-29
-1.04374e-29
1.00895e-29
-1.2529e-29
-7.64784e-30
-3.69378e-30
-6.18076e-29
3.34526e-29
-1.52775e-30
3.32211e-29
1.32595e-28
-2.96874e-29
2.02938e-29
4.92635e-29
-5.83339e-30
-1.4278e-29
-7.50247e-29
1.02484e-28
3.94653e-29
3.22837e-30
1.32925e-30
8.26425e-29
-8.30784e-29
-3.13654e-30
-7.72467e-30
-1.17517e-29
6.87642e-30
2.93843e-29
3.45811e-29
-4.9811e-29
-5.10921e-29
3.89404e-29
-2.63374e-30
-8.90378e-29
2.20045e-29
-4.86517e-29
2.33152e-29
5.66666e-29
-2.893e-28
2.8554e-28
1.82019e-28
-1.4985e-28
-1.2522e-29
-4.26125e-29
-1.54872e-29
1.29515e-29
-6.97515e-30
-8.28675e-30
7.7331e-29
-4.93318e-30
)
;

boundaryField
{
    back
    {
        type            empty;
        value           nonuniform List<scalar> 0();
    }
    front
    {
        type            empty;
        value           nonuniform List<scalar> 0();
    }
    bottom
    {
        type            calculated;
        value           uniform 0;
    }
    outer_arc
    {
        type            calculated;
        value           uniform 0;
    }
    right
    {
        type            calculated;
        value           nonuniform List<scalar> 4(5.3552e-30 4.58578e-30 5.166e-30 4.79592e-32);
    }
    inner_arc
    {
        type            calculated;
        value           uniform 0;
    }
}


// ************************************************************************* //
