/*--------------------------------*- C++ -*----------------------------------*\
  =========                 |
  \\      /  F ield         | OpenFOAM: The Open Source CFD Toolbox
   \\    /   O peration     | Website:  https://openfoam.org
    \\  /    A nd           | Version:  9
     \\/     M anipulation  |
\*---------------------------------------------------------------------------*/
FoamFile
{
    format      ascii;
    class       volVectorField;
    location    "0.97";
    object      U;
}
// * * * * * * * * * * * * * * * * * * * * * * * * * * * * * * * * * * * * * //

dimensions      [0 1 -1 0 0 0 0];

internalField   nonuniform List<vector> 
90
(
(4.60994e-22 1.13921e-25 -3.64307e-39)
(2.895e-21 3.01499e-21 5.78183e-38)
(-5.1246e-21 -1.14451e-21 -5.26151e-38)
(-4.43424e-21 4.97523e-21 5.2108e-38)
(6.64399e-21 9.58736e-21 1.37227e-37)
(1.74608e-21 1.63378e-21 -4.59351e-38)
(2.50135e-22 1.36154e-22 4.09576e-39)
(-3.41908e-22 -1.97739e-22 9.01753e-39)
(4.29165e-22 -2.5946e-21 0)
(1.79637e-22 6.71381e-23 0)
(-1.63041e-21 3.19039e-22 -8.92457e-39)
(6.2384e-22 -6.56252e-21 7.6731e-39)
(-3.19416e-22 -2.1887e-22 2.6221e-39)
(-5.65945e-22 -1.22949e-21 -7.12576e-40)
(2.31057e-21 -4.86452e-21 0)
(5.79943e-21 2.60278e-21 0)
(2.76528e-21 9.17613e-21 -1.76986e-37)
(-4.60516e-21 -2.03221e-21 -2.72031e-38)
(-3.1375e-22 2.22965e-21 0)
(-2.16891e-22 -4.12101e-22 -5.13501e-39)
(-1.08654e-21 -6.01303e-22 3.53114e-39)
(5.5888e-22 6.52353e-22 4.19719e-39)
(-9.07338e-22 2.27141e-22 -1.29309e-38)
(-9.38055e-22 1.65808e-22 6.44232e-39)
(-9.3138e-22 -5.15449e-23 -3.8246e-39)
(-6.3742e-22 1.36365e-21 9.84689e-39)
(-6.66626e-22 -1.60545e-22 -7.83716e-39)
(1.38211e-21 8.32821e-22 4.05867e-39)
(-1.06766e-20 -1.86611e-21 0)
(-3.71882e-22 2.67719e-22 -1.17586e-38)
(-6.97567e-22 -1.43455e-22 7.77104e-39)
(-1.37963e-21 1.5767e-22 -3.68942e-38)
(-1.22841e-21 -5.49848e-22 -1.14524e-38)
(-6.25073e-22 -5.8138e-22 2.13303e-38)
(-1.19814e-21 -4.84884e-22 -6.30676e-39)
(1.18835e-21 -3.65865e-21 -7.1165e-38)
(1.74548e-21 2.0235e-21 0)
(-1.65385e-21 2.63529e-21 0)
(-4.41498e-22 -1.09062e-22 1.19503e-38)
(2.62037e-23 -1.37411e-22 1.93708e-39)
(6.12168e-22 -6.4669e-23 3.85472e-41)
(2.7678e-22 -6.71328e-22 -2.4171e-38)
(-3.31838e-23 -2.31558e-22 -3.81417e-39)
(4.22083e-22 -1.79735e-23 -3.28032e-39)
(1.72505e-22 7.21414e-23 -1.17826e-39)
(1.11547e-21 2.05482e-21 2.52058e-38)
(-3.77827e-22 5.0741e-22 2.48557e-39)
(2.21431e-21 -2.69575e-21 3.19397e-38)
(-1.35343e-21 -9.0214e-24 -3.17743e-38)
(8.58962e-22 -4.45798e-21 3.12914e-39)
(-7.12565e-23 -2.58639e-23 0)
(1.55761e-22 2.68945e-22 -7.04569e-39)
(1.73662e-21 -2.44645e-21 -4.52351e-41)
(3.52347e-22 5.71799e-22 0)
(1.88138e-22 2.70616e-22 1.41524e-38)
(2.65353e-21 6.07811e-22 -3.05918e-40)
(2.24369e-22 -1.56258e-23 1.03067e-39)
(-4.96147e-22 9.92041e-22 0)
(3.3304e-22 1.16453e-22 0)
(-1.06525e-21 7.17271e-22 4.07269e-38)
(9.11131e-22 -3.74162e-22 1.64237e-38)
(1.34532e-21 1.99785e-21 0)
(-1.7792e-22 5.37827e-22 4.92032e-38)
(2.80423e-21 -4.84628e-22 -3.25846e-39)
(1.6805e-21 8.49103e-22 3.39736e-38)
(-2.98914e-21 4.35612e-22 1.02567e-38)
(-9.39711e-22 -1.08946e-21 0)
(-9.61555e-22 7.48614e-22 0)
(-9.29727e-21 1.1178e-21 1.749e-38)
(-1.10636e-20 2.50004e-21 4.62452e-38)
(5.55765e-21 -2.89851e-21 0)
(3.91418e-22 2.40624e-22 6.72021e-39)
(3.27254e-21 -2.32094e-21 0)
(-4.03067e-22 2.91946e-21 9.96073e-38)
(-7.47674e-21 3.02745e-22 -4.66911e-38)
(-1.68081e-22 7.82827e-22 -7.73444e-39)
(2.72687e-22 8.11998e-23 -1.16274e-39)
(7.12231e-22 4.70673e-22 0)
(1.78234e-22 -1.01783e-21 -1.31108e-38)
(3.17203e-22 1.41514e-22 2.72422e-39)
(-6.09105e-21 6.09688e-22 1.98728e-37)
(2.07804e-22 3.53123e-23 1.58954e-40)
(-8.75141e-22 1.47429e-21 -3.83076e-39)
(3.30887e-21 -5.43409e-22 6.96914e-38)
(7.97495e-22 2.53178e-21 4.06071e-39)
(-1.53839e-22 1.57975e-22 -2.95264e-38)
(3.40344e-22 2.32722e-23 4.36823e-39)
(4.5052e-22 4.07343e-23 -6.10261e-40)
(2.49687e-21 2.32553e-21 -1.71777e-37)
(2.91079e-22 1.33607e-22 -6.50804e-39)
)
;

boundaryField
{
    back
    {
        type            empty;
    }
    front
    {
        type            empty;
    }
    bottom
    {
        type            uniformFixedValue;
        uniformValue    
        {
            type            scale;
            scale           
            {
                type            squarePulse;
                start           0.3;
                duration        0.3;
            }
            xScale          
            {
                type            constant;
                value           1;
            }
            value           
            {
                type            constant;
                value           (0 0.7 0);
            }
        }
        value           uniform (0 0 0);
    }
    outer_arc
    {
        type            noSlip;
    }
    right
    {
        type            zeroGradient;
    }
    inner_arc
    {
        type            noSlip;
    }
}


// ************************************************************************* //
