/*--------------------------------*- C++ -*----------------------------------*\
  =========                 |
  \\      /  F ield         | OpenFOAM: The Open Source CFD Toolbox
   \\    /   O peration     | Website:  https://openfoam.org
    \\  /    A nd           | Version:  9
     \\/     M anipulation  |
\*---------------------------------------------------------------------------*/
FoamFile
{
    format      ascii;
    class       volScalarField;
    location    "1.75";
    object      p;
}
// * * * * * * * * * * * * * * * * * * * * * * * * * * * * * * * * * * * * * //

dimensions      [0 2 -2 0 0 0 0];

internalField   nonuniform List<scalar> 
1655
(
11.3121
11.3046
11.3079
11.3073
11.3117
11.3097
11.3057
11.3095
11.2978
11.3115
11.311
11.3102
11.3104
11.3078
11.304
11.3056
11.3025
11.2983
11.3066
11.3077
11.3039
11.2975
11.3121
11.3123
11.3109
11.3052
11.3053
11.3016
11.3035
11.3039
11.3006
11.3075
11.3066
11.3073
11.299
11.3065
11.3098
11.3046
11.3068
11.3046
11.3039
11.3123
11.3073
11.3041
11.3054
11.3081
11.306
11.3052
11.3106
11.3074
11.3095
11.3074
11.3024
11.2999
11.2987
11.3052
11.3045
11.3115
11.309
11.3054
11.3021
11.3083
11.3127
11.3088
11.3006
11.3003
11.2977
11.311
11.2985
11.3126
11.3121
11.3031
11.3037
11.3023
11.307
11.3047
11.3046
11.2995
11.3045
11.3039
11.2997
11.3048
11.2979
11.3036
11.3039
11.304
11.3075
11.3036
11.3105
11.3045
11.3045
11.308
11.3061
11.3106
11.3068
11.307
11.2979
11.3103
11.3083
11.305
11.3078
11.2986
11.3108
11.2987
11.2969
11.3085
11.3074
11.3039
11.305
11.3052
11.3059
11.3122
11.3056
11.3039
11.3091
11.3043
11.3083
11.3083
11.313
11.2978
11.3058
11.3068
11.3062
11.2961
11.2979
11.3113
11.3075
11.3067
11.3057
11.3042
11.31
11.3057
11.3088
11.3116
11.304
11.3039
11.312
11.3019
11.3043
11.2981
11.3045
11.3054
11.3059
11.3063
11.2971
11.3065
11.3059
11.306
11.3058
11.2956
11.3004
11.2938
11.306
11.3046
11.3037
11.3075
11.3013
11.3057
11.3082
11.2995
11.3059
11.3108
11.2999
11.306
11.3065
11.3106
11.3016
11.3104
11.2985
11.2982
11.2999
11.3002
11.3057
11.3044
11.3038
11.3057
11.3103
11.2996
11.3041
11.3078
11.3048
11.3007
11.3093
11.2969
11.3049
11.3041
11.3049
11.3042
11.3004
11.3026
11.3054
11.3079
11.3024
11.3046
11.3042
11.304
11.301
11.3043
11.3111
11.3034
11.3005
11.3011
11.3066
11.3057
11.3045
11.3042
11.3064
11.3028
11.3043
11.3072
11.303
11.3033
11.3038
11.3105
11.3079
11.2978
11.3065
11.3131
11.298
11.3056
11.3052
11.3037
11.3068
11.3078
11.3065
11.3043
11.3042
11.3048
11.2901
11.2853
11.3049
11.2735
11.2707
11.3001
11.306
11.3051
11.3044
11.3042
11.3041
11.2696
11.304
11.305
11.2712
11.3038
11.3085
11.3037
11.2932
11.3013
11.3041
11.3066
11.3047
11.3038
11.3053
11.3046
11.3059
11.2998
11.3047
11.309
11.3004
11.307
11.301
11.3039
11.3041
11.2994
11.3054
11.3098
11.3069
11.3077
11.3062
11.3078
11.3026
11.3009
11.3055
11.3039
11.3011
11.3015
11.2913
11.309
11.2992
11.2968
11.3008
11.3102
11.3023
11.3028
11.3029
11.3022
11.3035
11.3057
11.3066
11.3001
11.3019
11.3039
11.3074
11.3013
11.3055
11.3052
11.3092
11.2937
11.3039
11.3044
11.3054
11.3106
11.3104
11.3049
11.304
11.3003
11.3051
11.304
11.3065
11.3039
11.3035
11.2953
11.304
11.2993
11.3091
11.3068
11.3039
11.3001
11.3037
11.3049
11.3024
11.3075
11.3057
11.3051
11.3054
11.3098
11.3107
11.3097
11.3045
11.3049
11.306
11.3054
11.3075
11.3039
11.3053
11.304
11.3056
11.3071
11.3042
11.3042
11.3052
11.3046
11.3018
11.2811
11.3036
11.3048
11.3077
11.305
11.3049
11.3038
11.3123
11.3048
11.2769
11.3055
11.2997
11.3035
11.3044
11.3041
11.3082
11.3041
11.3042
11.3064
11.2998
11.2971
11.3056
11.3039
11.3044
11.3128
11.3064
11.3051
11.3054
11.3058
11.305
11.3035
11.3126
11.3072
11.3049
11.3098
11.3051
11.3045
11.3047
11.2966
11.3106
11.2973
11.3048
11.3012
11.3031
11.3086
11.3027
11.304
11.3048
11.3044
11.3054
11.3031
11.3045
11.3025
11.3033
11.3031
11.3012
11.3082
11.3038
11.3052
11.2965
11.3101
11.3038
11.3056
11.3037
11.304
11.3051
11.3044
11.3119
11.2926
11.2986
11.3043
11.3054
11.2865
11.3056
11.2694
11.2989
11.302
11.3086
11.2946
11.3055
11.3028
11.2999
11.2908
11.2687
11.3042
11.3039
11.3039
11.3046
11.3046
11.3009
11.3114
11.2897
11.292
11.305
11.3046
11.3114
11.2867
11.3056
11.2986
11.3037
11.3025
11.2995
11.2907
11.3041
11.3048
11.3041
11.3047
11.3043
11.2871
11.3047
11.2968
11.3038
11.294
11.3072
11.301
11.3042
11.3045
11.299
11.2963
11.2975
11.2922
11.3091
11.3108
11.2986
11.3016
11.2883
11.2998
11.3023
11.3051
11.2955
11.3039
11.2896
11.3018
11.3044
11.2921
11.2772
11.3059
11.304
11.3039
11.2842
11.3053
11.2982
11.2908
11.3051
11.3065
11.3035
11.303
11.2896
11.3041
11.283
11.2983
11.2987
11.2961
11.288
11.3065
11.2898
11.2989
11.298
11.3025
11.3058
11.2949
11.2855
11.2997
11.3065
11.2975
11.2932
11.3056
11.3096
11.3006
11.3053
11.296
11.3069
11.2971
11.2946
11.2847
11.2898
11.2963
11.2814
11.27
11.3054
11.2934
11.2938
11.2731
11.3021
11.2987
11.2893
11.2949
11.2997
11.3044
11.3214
11.3012
11.309
11.3054
11.3108
11.3147
11.2998
11.3093
11.3059
11.3022
11.3078
11.3052
11.3149
11.3099
11.3189
11.2987
11.2936
11.3023
11.3123
11.2978
11.2998
11.3042
11.2917
11.285
11.3065
11.2987
11.2969
11.3053
11.2868
11.2977
11.2758
11.3028
11.3086
11.2945
11.2838
11.3003
11.3061
11.2982
11.3083
11.3039
11.3066
11.3052
11.301
11.285
11.3002
11.3035
11.2866
11.2973
11.3046
11.302
11.3075
11.2979
11.2978
11.2995
11.3073
11.2723
11.294
11.2715
11.2974
11.2764
11.2827
11.2892
11.2744
11.2895
11.3089
11.306
11.294
11.3051
11.2969
11.2968
11.3069
11.3051
11.2932
11.294
11.3061
11.3057
11.305
11.3048
11.2915
11.2992
11.306
11.3015
11.306
11.2985
11.2809
11.3063
11.2797
11.2964
11.282
11.2729
11.279
11.3062
11.2738
11.2985
11.2755
11.2806
11.2865
11.294
11.2842
11.294
11.2914
11.3001
11.3051
11.2946
11.3064
11.3104
11.297
11.2824
11.3059
11.3076
11.293
11.3084
11.3046
11.3093
11.2933
11.3009
11.2971
11.2997
11.2966
11.305
11.2771
11.2866
11.2906
11.3046
11.28
11.3027
11.2789
11.2793
11.2904
11.3004
11.296
11.2836
11.28
11.3039
11.297
11.3063
11.3084
11.3008
11.2985
11.2915
11.2966
11.3045
11.2969
11.2946
11.3036
11.3038
11.3048
11.2975
11.3031
11.3013
11.2947
11.2779
11.2953
11.2777
11.3096
11.3041
11.2998
11.2981
11.2964
11.2961
11.3075
11.2968
11.2976
11.3021
11.297
11.3022
11.3005
11.3046
11.2805
11.2989
11.3089
11.2952
11.3041
11.3046
11.297
11.2764
11.301
11.3044
11.2775
11.2926
11.284
11.2783
11.2794
11.3036
11.2991
11.304
11.2858
11.3031
11.2953
11.2985
11.3043
11.2841
11.3104
11.2808
11.3029
11.3032
11.2903
11.2984
11.2951
11.3079
11.3043
11.2954
11.3082
11.3044
11.3042
11.295
11.3003
11.296
11.2727
11.3091
11.3057
11.2856
11.2996
11.2948
11.3038
11.3027
11.2979
11.295
11.3043
11.2977
11.3037
11.3034
11.2915
11.3048
11.3048
11.3035
11.2981
11.3078
11.286
11.2869
11.3045
11.305
11.3043
11.3038
11.2956
11.281
11.3048
11.3045
11.2902
11.3042
11.3045
11.3046
11.2826
11.2924
11.311
11.3022
11.2935
11.2931
11.3047
11.3051
11.305
11.3047
11.2938
11.294
11.3077
11.287
11.3026
11.2901
11.3033
11.295
11.3011
11.3037
11.3061
11.3055
11.2834
11.3036
11.3083
11.3029
11.3086
11.3083
11.3074
11.3035
11.2963
11.288
11.3052
11.3096
11.295
11.3086
11.2867
11.2974
11.3049
11.3083
11.3038
11.2958
11.3067
11.3056
11.3078
11.299
11.2935
11.3069
11.3044
11.3097
11.2936
11.2902
11.3041
11.3038
11.3058
11.2995
11.3032
11.3064
11.296
11.306
11.3024
11.3052
11.3058
11.304
11.308
11.3064
11.3006
11.2989
11.2991
11.3089
11.3085
11.3054
11.3025
11.3002
11.3017
11.3052
11.3021
11.3038
11.3039
11.3038
11.3066
11.3092
11.3069
11.3048
11.3037
11.2975
11.3089
11.3032
11.3037
11.3001
11.3047
11.3013
11.3095
11.3009
11.3043
11.3033
11.3033
11.3071
11.3109
11.3028
11.2962
11.3052
11.3057
11.3028
11.2915
11.3058
11.3046
11.3112
11.3057
11.3039
11.3075
11.2944
11.3069
11.3004
11.3035
11.3074
11.3099
11.308
11.3045
11.2997
11.3104
11.3029
11.3086
11.2914
11.3058
11.3079
11.3056
11.2992
11.3024
11.3076
11.3104
11.3061
11.3003
11.3101
11.3059
11.3009
11.3064
11.3031
11.3067
11.3109
11.31
11.3067
11.3067
11.3059
11.3062
11.3051
11.3033
11.3107
11.3064
11.2924
11.3059
11.3068
11.3093
11.2991
11.3065
11.3112
11.3081
11.3048
11.3086
11.3102
11.3102
11.3014
11.3009
11.3017
11.3009
11.3042
11.3064
11.3052
11.307
11.3037
11.2934
11.3063
11.3055
11.3074
11.3053
11.3109
11.3104
11.3058
11.3038
11.3058
11.2909
11.3059
11.3034
11.2949
11.3037
11.3056
11.3087
11.294
11.3072
11.3033
11.306
11.3047
11.3045
11.2951
11.3047
11.3058
11.304
11.3069
11.3047
11.3021
11.3116
11.311
11.3069
11.3107
11.3015
11.3072
11.3104
11.3074
11.3052
11.3057
11.3041
11.3106
11.3046
11.3071
11.3044
11.3091
11.3039
11.3053
11.3113
11.3038
11.2997
11.3077
11.3062
11.3077
11.306
11.3116
11.3117
11.3108
11.2994
11.3118
11.3083
11.311
11.3052
11.3087
11.305
11.3051
11.3049
11.3114
11.3109
11.3049
11.306
11.3111
11.3083
11.3034
11.3047
11.3018
11.3096
11.3008
11.3045
11.3102
11.3042
11.3052
11.3104
11.3052
11.3089
11.3011
11.2823
11.3041
11.3057
11.3045
11.3052
11.3064
11.3034
11.3052
11.3054
11.3108
11.3052
11.2973
11.3062
11.3098
11.3035
11.3052
11.3047
11.3099
11.3052
11.3051
11.3035
11.3055
11.3056
11.3048
11.3053
11.3024
11.305
11.3092
11.3051
11.2985
11.2966
11.3051
11.307
11.3051
11.306
11.3052
11.3054
11.3115
11.3094
11.3094
11.3083
11.3052
11.3055
11.3096
11.309
11.3073
11.309
11.3049
11.3032
11.3067
11.3031
11.304
11.3103
11.3089
11.3026
11.3045
11.3083
11.3044
11.2972
11.3066
11.3057
11.3038
11.3096
11.3094
11.3069
11.3094
11.3026
11.3091
11.2964
11.305
11.305
11.3097
11.3067
11.306
11.3025
11.3077
11.3093
11.3041
11.3045
11.3049
11.3097
11.3041
11.3099
11.3037
11.3097
11.3064
11.3042
11.3092
11.3042
11.306
11.2997
11.3039
11.2973
11.2964
11.3057
11.3031
11.3082
11.2851
11.2928
11.3101
11.3098
11.3042
11.3021
11.307
11.3041
11.305
11.3023
11.3091
11.2914
11.3069
11.3076
11.2823
11.3038
11.3068
11.3092
11.3095
11.308
11.3085
11.2956
11.271
11.2771
11.31
11.3059
11.3006
11.3063
11.3095
11.3077
11.3065
11.306
11.3041
11.3075
11.275
11.2715
11.3039
11.3074
11.308
11.2702
11.2684
11.3082
11.3098
11.3089
11.3078
11.3072
11.2726
11.3081
11.3019
11.304
11.3082
11.2864
11.309
11.3087
11.3056
11.3063
11.297
11.3079
11.304
11.2966
11.3047
11.3051
11.3084
11.3006
11.297
11.2977
11.3071
11.3043
11.3042
11.2969
11.3069
11.3059
11.3091
11.3085
11.3008
11.3053
11.3047
11.3011
11.3036
11.3113
11.3055
11.3041
11.3078
11.2975
11.2842
11.3045
11.2966
11.2982
11.3043
11.3046
11.2967
11.289
11.3073
11.3092
11.3081
11.306
11.2875
11.3041
11.3104
11.3111
11.2744
11.2746
11.3047
11.3087
11.299
11.3098
11.3102
11.2739
11.31
11.299
11.305
11.305
11.2993
11.289
11.3078
11.2694
11.3094
11.3107
11.304
11.3108
11.304
11.3047
11.3054
11.3066
11.301
11.2763
11.3045
11.3067
11.2978
11.2814
11.2914
11.3075
11.304
11.3047
11.2951
11.3033
11.3019
11.3048
11.2962
11.2983
11.2983
11.3044
11.2977
11.3063
11.3055
11.3058
11.3027
11.304
11.3078
11.2965
11.3048
11.3014
11.3034
11.3117
11.3055
11.3048
11.2979
11.3105
11.3115
11.3122
11.2776
11.3031
11.2927
11.3022
11.3009
11.2971
11.3035
11.2988
11.3036
11.2984
11.304
11.2976
11.2979
11.3062
11.3033
11.307
11.3091
11.3115
11.3117
11.3148
11.3119
11.2984
11.3125
11.3057
11.3041
11.3121
11.3034
11.3048
11.3082
11.2969
11.3005
11.2982
11.3113
11.3036
11.296
11.2962
11.3047
11.2965
11.2966
11.2957
11.3075
11.3011
11.2991
11.3068
11.3019
11.2968
11.3073
11.2939
11.2956
11.3054
11.3028
11.3152
11.3088
11.3093
11.3
11.3139
11.3065
11.3082
11.3097
11.3075
11.3175
11.3014
11.3118
11.3049
11.3035
11.3157
11.3085
11.3095
11.3006
11.3166
11.3134
11.307
11.305
11.2983
11.2967
11.3038
11.3127
11.3127
11.2986
11.3021
11.3041
11.3037
11.3076
11.3045
11.2893
11.3047
11.3215
11.3202
11.303
11.3072
11.3051
11.3034
11.3064
11.3127
11.3164
11.3046
11.3032
11.3042
11.3046
11.3082
11.3094
11.305
11.2968
11.3208
11.3154
11.3045
11.3061
11.2933
11.3077
11.3059
11.3038
11.3126
11.3078
11.3045
11.3054
11.2976
11.3055
11.3192
11.3043
11.3157
11.3018
11.312
11.3059
11.3148
11.3063
11.3056
11.3037
11.3046
11.3088
11.3118
11.3047
11.31
11.2964
11.3121
11.3049
11.3072
11.3052
11.3115
11.3112
11.3055
11.305
11.312
11.3071
11.3098
11.3209
11.3171
11.3052
11.305
11.3079
11.2974
11.3028
11.306
11.2969
11.2965
11.3104
11.3048
11.3057
11.306
11.2959
11.2969
11.3058
11.3041
11.3047
11.2984
11.3047
11.3009
11.304
11.3076
11.2957
11.3113
11.2992
11.3078
11.3113
11.3031
11.3123
11.31
11.3077
11.31
11.3033
11.304
11.2929
11.3069
11.3062
11.3078
11.3126
11.312
11.3048
11.2998
11.2986
11.3078
11.3053
11.311
11.3032
11.3051
11.3111
11.3043
11.2988
11.3109
11.3017
11.3064
11.2981
11.3037
11.3055
11.3033
11.3077
11.3073
11.3126
11.3121
11.3127
11.3116
11.3103
11.3112
11.3118
11.3108
11.3114
11.3004
11.299
11.2998
11.3128
11.3121
11.319
11.3019
11.304
11.3051
11.2975
11.3117
11.3103
11.2916
11.306
11.3075
11.2987
11.3174
11.3018
11.3046
11.3111
11.3044
11.3082
11.3196
11.3053
11.3056
11.2987
11.3144
11.3053
11.3082
11.3073
11.2976
11.3051
11.3049
11.2993
11.3014
11.3056
11.3075
11.3006
11.3101
11.3054
11.3043
11.3047
11.3109
11.3099
11.3118
11.3064
11.3072
11.305
11.2991
11.3052
11.3121
11.3055
11.3055
11.2957
11.3065
11.3102
11.3077
11.3118
11.3048
11.3074
11.3073
11.2978
11.311
11.3051
11.2973
11.3059
11.313
11.3117
11.3077
11.3066
11.312
11.3159
11.3089
11.3053
11.3125
11.2998
11.3053
11.3059
11.2967
11.3038
11.2909
11.2996
11.3058
11.3077
11.2991
11.3024
11.3125
11.3086
11.3071
11.3082
11.3055
11.2986
11.293
11.3094
11.2986
11.3041
11.3077
11.2964
11.3074
11.3091
11.297
11.3119
11.3053
11.3065
11.303
11.3027
11.3087
11.3062
11.3026
11.3038
11.3168
11.298
11.304
11.3078
11.303
11.3075
11.3115
11.306
11.299
11.3107
11.3053
11.3076
11.3044
11.3126
11.311
11.3078
11.3111
11.3032
11.3036
11.2998
11.311
11.3085
11.3186
11.302
11.3201
11.3078
11.3189
11.3058
11.3077
11.3161
11.3014
11.3075
11.3123
11.3178
11.3051
11.3064
11.3053
11.2981
11.3052
11.3051
11.3055
11.3123
11.2979
)
;

boundaryField
{
    back
    {
        type            empty;
    }
    front
    {
        type            empty;
    }
    top
    {
        type            zeroGradient;
    }
    outer_arc
    {
        type            zeroGradient;
    }
    bottom
    {
        type            uniformFixedValue;
        uniformValue    
        {
            type            table;
            format          csv;
            file            "outlet_p.csv";
            nHeaderLine     1;
            refColumn       0;
            componentColumns List<label> 1(1);
            separator       ",";
            mergeSeparators 0;
        }
        value           uniform 11.2963;
    }
    inner_arc
    {
        type            zeroGradient;
    }
}


// ************************************************************************* //
