/*--------------------------------*- C++ -*----------------------------------*\
  =========                 |
  \\      /  F ield         | OpenFOAM: The Open Source CFD Toolbox
   \\    /   O peration     | Website:  https://openfoam.org
    \\  /    A nd           | Version:  9
     \\/     M anipulation  |
\*---------------------------------------------------------------------------*/
FoamFile
{
    format      ascii;
    class       volScalarField;
    location    "0.94";
    object      p;
}
// * * * * * * * * * * * * * * * * * * * * * * * * * * * * * * * * * * * * * //

dimensions      [0 2 -2 0 0 0 0];

internalField   nonuniform List<scalar> 
464
(
7.15415e-22
-2.07216e-21
-1.03106e-21
-1.03763e-21
-2.36911e-21
-1.02269e-21
2.36591e-22
-1.03326e-21
-4.28666e-22
-2.71963e-22
6.7963e-22
1.57077e-21
2.31461e-22
1.83113e-21
1.31549e-22
-3.62195e-22
-8.46764e-22
-1.76136e-21
-1.02922e-21
-8.65052e-22
-9.10922e-22
-9.4585e-22
-9.31358e-22
-1.02784e-21
-1.03401e-21
-1.02225e-21
1.0722e-21
-1.01963e-21
1.26388e-22
-9.91134e-22
-9.94424e-22
-3.81962e-22
-7.32575e-23
-5.35599e-22
-8.08878e-22
-8.86556e-22
-4.57632e-22
-1.01588e-21
-1.03926e-21
-4.29141e-22
-8.71222e-22
-9.15901e-22
-8.95524e-22
1.62299e-21
5.76364e-22
6.07108e-22
-9.68586e-22
-9.46755e-22
-1.0185e-21
-9.84407e-22
-9.5328e-22
-1.00117e-21
-7.65557e-22
-8.62701e-22
-8.565e-22
-9.8603e-22
-9.90988e-22
-6.97243e-22
-6.66537e-22
-7.9285e-22
-1.03794e-21
-1.26438e-21
-6.75901e-22
-7.93017e-22
-9.04542e-22
-8.77216e-22
-4.55597e-22
-9.8936e-22
9.24448e-22
-8.38248e-22
-6.3355e-22
-1.09156e-21
1.13427e-22
-9.6095e-22
-5.77068e-22
-1.02434e-21
-4.94635e-22
2.65266e-22
-7.39344e-22
-3.41137e-22
-1.82579e-21
-1.02583e-21
-2.99698e-21
-1.01834e-21
-1.91627e-21
-6.34378e-22
-9.83596e-22
-1.01531e-21
-1.02592e-21
-5.18124e-22
-1.64549e-21
-1.3873e-21
-4.21286e-22
1.7567e-21
-3.84034e-22
-4.52903e-22
-7.52688e-22
-1.02558e-21
-1.24237e-21
-3.55921e-22
-1.0176e-21
-9.27621e-22
-1.00519e-21
-6.14694e-22
-5.07229e-22
-2.99498e-21
-1.01944e-21
-4.25651e-22
-1.62685e-21
-9.04533e-22
-3.91014e-22
-9.64035e-22
-4.45109e-22
-9.90638e-22
-1.01731e-21
-9.94052e-22
-2.498e-21
-1.00251e-21
-1.53929e-21
-1.00167e-21
-9.29595e-22
2.98953e-22
-8.68339e-22
6.219e-22
-6.10357e-22
-4.27364e-22
-4.32834e-22
-3.6294e-22
-6.10169e-22
-2.70779e-21
-1.00481e-21
2.6373e-21
-1.05034e-21
-9.83286e-22
-9.51873e-22
-2.12879e-21
-9.88999e-22
-1.02544e-21
-4.73539e-22
-8.87286e-22
-9.33574e-22
-3.82582e-22
-6.08251e-22
-9.91394e-22
-9.7347e-22
-6.90373e-22
-9.71869e-22
-1.01442e-21
-8.11331e-22
-8.65958e-22
-9.63338e-22
-9.90793e-22
-1.67783e-22
-4.59428e-22
-1.88051e-21
-9.08132e-22
-1.12659e-21
-9.53557e-22
-3.58996e-22
-1.45739e-21
-5.06663e-22
-9.30375e-22
-5.31711e-22
-8.01813e-22
-7.942e-22
-9.59103e-22
-3.97378e-22
-9.21942e-22
-6.13263e-22
-3.11701e-22
-1.89034e-22
-1.10979e-21
-7.69641e-22
-9.38021e-22
-4.11623e-22
-3.22041e-22
-9.22893e-22
-8.84331e-22
2.52618e-22
-9.48909e-22
-8.88512e-22
-3.98118e-22
-1.20747e-21
-1.93308e-21
-1.09789e-21
-5.06222e-22
-2.03846e-22
-1.93781e-22
-6.02423e-22
-9.65787e-23
-8.77575e-22
-1.43498e-22
-9.35785e-22
-8.97894e-22
-6.89601e-22
-6.60226e-22
-9.06615e-22
-8.73202e-22
-3.23568e-22
-8.39875e-22
-8.55886e-22
-7.17668e-22
-8.80808e-22
-7.80221e-22
-1.30054e-22
-9.13608e-22
-8.69843e-22
-7.63334e-22
-6.79325e-22
-9.73076e-22
-9.14688e-22
-2.78263e-22
-9.77899e-22
-1.10048e-21
-6.6795e-22
-1.4114e-22
-2.01277e-21
-8.80078e-22
8.94923e-22
-6.16367e-22
-2.49695e-21
-8.3399e-22
-8.15527e-22
-8.30956e-22
-8.7296e-22
-8.35535e-22
-8.32739e-22
-7.93994e-22
-7.94422e-22
-7.9019e-22
-7.78691e-22
-8.61392e-22
-8.12817e-22
-7.29178e-22
-8.74113e-22
-7.54633e-22
-6.02259e-22
-8.77421e-22
-7.90452e-22
-3.52181e-22
-7.80186e-22
-6.634e-22
-8.271e-22
-8.72061e-22
-8.07551e-22
1.37371e-22
-9.06958e-22
-8.72678e-22
-4.12033e-22
-6.6494e-22
-9.82563e-22
2.12423e-22
-5.49211e-22
-4.73526e-22
-7.16387e-22
-8.92729e-22
-9.47712e-22
-5.69582e-22
-7.48309e-22
-6.21735e-22
-8.16381e-22
-4.33486e-22
-4.12225e-22
-1.75996e-22
-5.12259e-22
-3.83081e-22
-4.60167e-22
-1.03114e-21
4.9981e-22
-5.71875e-22
-9.37978e-22
-5.86231e-22
-4.10899e-22
3.85781e-22
4.10655e-22
-4.21573e-22
-5.26891e-22
-6.00354e-22
-5.22853e-22
-7.75374e-22
-3.77821e-22
-9.9168e-22
-5.62253e-22
-9.6598e-22
1.15994e-22
-4.79433e-22
-4.75954e-22
-7.80724e-22
-1.00527e-21
-4.47399e-22
-6.5591e-22
-5.96671e-22
-9.54832e-22
-9.10536e-22
-3.90352e-22
-5.98732e-22
-3.44169e-22
-3.42865e-22
-3.67537e-22
-7.83931e-22
-6.65707e-23
-3.05097e-22
1.85744e-22
1.95955e-21
-6.18902e-22
-3.75283e-22
-3.62379e-22
-5.26363e-22
-1.36857e-21
-3.86516e-22
-8.08324e-22
-9.60811e-22
-4.97983e-22
2.1833e-23
-3.87625e-22
-4.09159e-22
-3.47171e-22
-8.62021e-22
-1.03241e-21
2.83058e-22
-9.72109e-22
-4.60107e-22
-1.15455e-21
-3.42044e-22
-5.83596e-22
-9.59632e-22
-9.76551e-22
7.56197e-22
-1.02704e-21
-6.20803e-22
-8.78098e-22
-7.28545e-22
-1.04147e-21
-4.3114e-22
-7.77389e-22
-9.28466e-22
-9.6651e-22
-1.05068e-21
-4.56199e-22
-9.20215e-22
-1.06671e-21
1.43182e-21
-5.13659e-22
-6.28564e-22
-3.92534e-22
-1.00994e-21
-9.6698e-22
-5.89018e-22
-1.03491e-21
-7.48214e-22
-9.53018e-22
-1.05139e-21
-5.15538e-22
-5.71714e-22
-9.50015e-22
-1.33697e-21
-1.02488e-21
-2.89827e-21
-1.02767e-21
-1.97139e-21
-1.03114e-21
3.08402e-23
-1.02141e-21
-1.84857e-21
1.07137e-21
-1.04649e-21
-1.03481e-21
-2.22618e-22
2.24907e-21
-9.82307e-22
-1.05065e-21
3.28985e-21
2.47969e-22
1.72142e-22
2.58023e-21
-1.0217e-21
1.37381e-22
-9.29099e-22
-6.32687e-22
-9.58227e-22
-1.71978e-21
-3.74179e-22
-5.37014e-22
-6.67767e-22
-9.7359e-22
-6.24099e-22
-8.36497e-22
-1.02194e-21
-2.58912e-21
-1.74212e-21
-8.26317e-22
-7.49978e-22
-3.93088e-22
-6.10254e-22
-7.55085e-22
-9.07875e-22
-8.51161e-22
-9.72844e-22
-9.19975e-22
1.81475e-22
-1.1605e-21
-1.03489e-21
1.95531e-21
-1.12086e-21
1.92145e-24
8.38106e-22
2.42459e-21
-1.10533e-21
1.39381e-21
-1.12698e-21
-4.95948e-22
-9.87509e-22
-1.03357e-21
-1.00666e-21
-1.0258e-21
-9.26287e-22
2.75453e-21
-9.72022e-22
-1.02468e-21
-1.39433e-21
-1.00148e-21
-1.03425e-21
4.75851e-22
3.55082e-21
1.25582e-21
1.49415e-22
-1.37579e-21
-1.43237e-21
-2.03496e-21
-3.04682e-21
-1.02529e-21
-6.56962e-22
-5.95941e-22
-1.01935e-21
-9.48517e-22
-3.05412e-21
-2.49967e-21
-9.93116e-22
-2.59826e-21
-9.71592e-22
-8.25412e-22
-4.20837e-22
-7.70146e-22
-7.97241e-22
-9.65459e-22
-8.27667e-22
-9.45493e-22
-9.2112e-22
-9.27535e-22
-9.80466e-22
-5.19879e-22
2.74543e-22
5.01976e-22
-1.01213e-21
-9.10615e-22
-4.3878e-22
2.44524e-22
-1.02874e-21
-9.87281e-22
-9.70329e-22
-1.11056e-21
2.88883e-21
2.217e-21
-1.01237e-21
)
;

boundaryField
{
    back
    {
        type            empty;
    }
    front
    {
        type            empty;
    }
    left
    {
        type            zeroGradient;
    }
    top
    {
        type            zeroGradient;
    }
    right
    {
        type            zeroGradient;
    }
    bottom
    {
        type            uniformFixedValue;
        uniformValue    
        {
            type            scale;
            scale           
            {
                type            squarePulse;
                start           0.3;
                duration        0.3;
            }
            xScale          
            {
                type            constant;
                value           1;
            }
            value           
            {
                type            constant;
                value           15.1;
            }
        }
        value           uniform 0;
    }
}


// ************************************************************************* //
