/*--------------------------------*- C++ -*----------------------------------*\
  =========                 |
  \\      /  F ield         | OpenFOAM: The Open Source CFD Toolbox
   \\    /   O peration     | Website:  https://openfoam.org
    \\  /    A nd           | Version:  9
     \\/     M anipulation  |
\*---------------------------------------------------------------------------*/
FoamFile
{
    format      ascii;
    class       surfaceScalarField;
    location    "0.94";
    object      phi;
}
// * * * * * * * * * * * * * * * * * * * * * * * * * * * * * * * * * * * * * //

dimensions      [0 3 -1 0 0 0 0];

internalField   nonuniform List<scalar> 
663
(
-1.93601e-27
2.28846e-27
-3.47765e-28
4.89374e-28
2.3923e-27
-2.33482e-30
2.22043e-30
2.03677e-30
-6.75103e-30
4.28377e-30
-1.06735e-27
1.53037e-27
-6.33655e-31
-3.40775e-31
-2.41793e-27
4.83887e-28
-2.94552e-30
6.31345e-30
-2.87395e-27
1.15008e-27
1.71297e-27
-3.84614e-28
-2.47969e-27
-4.94598e-28
2.78575e-27
1.28404e-27
-4.3846e-28
-8.31529e-28
-1.2483e-27
1.15875e-27
1.6609e-28
5.75991e-28
-5.92057e-28
5.23843e-29
5.80611e-28
-8.08929e-30
2.80468e-29
-6.14549e-29
4.58744e-29
-4.01433e-29
-7.41667e-30
-7.84692e-32
5.4519e-31
-4.62337e-29
8.78617e-29
-4.01653e-29
3.34345e-29
-8.27704e-29
1.21852e-29
1.75701e-29
-3.0006e-29
4.30331e-29
-2.89737e-29
2.82584e-30
3.56008e-30
-6.58504e-30
-2.77366e-30
-2.77504e-30
-5.06829e-30
9.33407e-30
8.98393e-29
-1.94119e-28
9.15824e-29
6.87107e-31
-4.81177e-30
3.53494e-30
5.11247e-28
-4.93226e-28
-1.19114e-29
1.42763e-29
-2.61117e-30
8.79779e-32
-1.05263e-29
-6.35849e-28
5.1975e-28
1.14218e-28
3.0535e-29
-6.4856e-28
5.40746e-28
-4.28817e-28
-1.00652e-28
2.52e-28
2.66326e-28
-6.71528e-30
2.49892e-29
-4.25639e-29
9.23611e-29
-1.59611e-32
1.27233e-30
-2.69678e-30
2.34912e-30
-6.24993e-28
7.76198e-29
5.50978e-28
7.46428e-29
1.49769e-29
-6.16701e-29
5.86911e-29
3.14525e-30
-1.42012e-29
-3.11464e-28
1.29136e-28
-8.05074e-28
5.92956e-29
-7.51479e-30
-1.78751e-29
2.54088e-29
2.55195e-29
-1.81465e-29
-7.31098e-30
2.2087e-30
-2.53161e-30
-1.64576e-30
-1.32191e-29
8.15583e-29
-5.63697e-31
-4.57055e-30
4.91001e-30
7.85909e-29
-1.36617e-29
-6.14064e-29
-3.79275e-29
2.58715e-29
1.19285e-29
-5.71418e-29
2.0379e-29
1.34124e-29
-1.31049e-29
6.70078e-30
4.97519e-29
-2.55312e-29
-2.36659e-29
3.05903e-30
5.00161e-29
5.84281e-29
8.5967e-30
4.78819e-31
7.6191e-29
8.72395e-28
-9.4887e-28
2.89658e-29
1.51857e-28
-1.82885e-28
-9.07728e-30
-1.09676e-30
9.60918e-30
-1.85829e-27
1.46417e-27
4.76186e-29
-2.04767e-29
-1.86097e-28
5.75102e-29
1.28153e-28
-3.77681e-30
-1.29258e-27
-2.14072e-29
-3.51044e-29
-3.87351e-29
4.15195e-29
-1.7896e-27
5.96742e-28
-5.16086e-29
1.97386e-29
6.31117e-30
-8.41515e-29
7.30417e-28
-6.46356e-28
8.36564e-30
-1.89825e-28
8.10165e-30
-2.32097e-27
1.96522e-27
1.24792e-29
-3.63192e-29
-1.47633e-29
5.66914e-28
1.22949e-27
-1.80111e-27
-1.26317e-30
4.41897e-30
-3.31915e-30
3.48225e-28
-4.67973e-28
1.11885e-28
2.49478e-30
-3.03569e-31
-2.34041e-30
8.80795e-28
1.12268e-28
-7.9259e-29
1.35737e-27
-4.95384e-28
4.64703e-30
2.01427e-30
6.01848e-30
-8.33573e-30
-7.91669e-28
7.04888e-28
-7.46219e-29
-5.83019e-28
4.85197e-28
-1.57807e-28
-3.27213e-28
-7.13629e-28
-1.11275e-27
1.81847e-27
2.81651e-28
2.03659e-28
-2.49602e-29
5.55363e-30
7.00527e-30
-7.76639e-31
3.91737e-29
2.89058e-28
-3.29745e-28
8.8655e-28
-2.14832e-27
1.42958e-29
-1.07167e-29
2.24741e-29
-3.99323e-29
9.35648e-30
5.65381e-30
7.24871e-29
4.3302e-28
-3.47491e-28
-4.86167e-28
1.40387e-30
3.34126e-28
-2.71667e-28
-2.15698e-28
1.47032e-28
8.47467e-30
-4.86668e-29
4.02917e-29
4.31423e-28
2.10605e-28
-6.43187e-28
2.79896e-30
1.69384e-28
-6.31475e-28
6.63846e-28
1.4305e-29
-6.94461e-30
2.27671e-29
-1.24917e-29
-8.54414e-29
-1.45036e-28
1.94642e-30
-8.94166e-31
-1.15906e-30
2.8125e-28
-1.51618e-30
5.05554e-30
3.23672e-29
-7.85995e-28
1.68739e-27
6.54802e-28
6.92615e-28
-1.13446e-27
1.6253e-27
7.89694e-29
7.60315e-28
-3.28021e-28
1.34145e-27
-6.82442e-28
-3.8097e-28
5.90685e-28
-9.96245e-29
3.40893e-28
1.49957e-28
-1.48036e-28
8.28651e-30
1.47614e-29
1.8859e-30
1.25222e-29
-1.4807e-29
-1.56947e-28
3.23025e-31
8.28081e-30
-4.38515e-30
1.14009e-29
-1.10204e-29
-2.00099e-30
5.52155e-30
-3.56982e-28
5.16679e-29
-9.25876e-30
3.83771e-30
8.08066e-31
-6.07796e-31
2.20177e-29
7.06816e-28
3.3607e-29
-2.45994e-29
3.83942e-30
2.40558e-29
-2.38614e-29
1.5865e-29
-4.26463e-30
7.38413e-30
2.63373e-29
3.0625e-29
-1.58674e-29
-8.21042e-29
5.17444e-28
-4.4116e-28
5.84047e-28
1.74196e-28
1.19852e-28
-7.81132e-30
-2.66482e-30
-6.78056e-29
2.84691e-30
4.45614e-29
-3.6556e-29
5.36287e-28
6.00833e-28
-4.68252e-28
6.6307e-29
-2.33924e-28
1.63691e-28
5.94917e-30
3.91005e-29
4.95396e-29
-7.02183e-28
1.90823e-29
-4.61759e-30
2.23562e-29
3.75254e-29
3.12191e-29
4.75636e-29
-5.82493e-29
-4.91528e-29
5.89594e-28
-5.57158e-28
-2.71728e-28
2.7153e-28
-2.05777e-28
-6.32241e-29
9.90847e-29
-3.21305e-28
3.37077e-28
3.31951e-29
3.25473e-28
6.29062e-29
-4.43516e-28
5.12758e-29
-4.51634e-29
4.45712e-29
8.27256e-30
-5.87989e-28
5.1803e-28
-1.84243e-29
-2.44175e-28
2.55893e-28
-3.50528e-29
7.98564e-29
4.06749e-29
1.19345e-28
-1.60856e-28
1.61481e-28
-1.59918e-28
9.18605e-29
1.46056e-28
-1.98601e-28
-1.90903e-28
7.94554e-29
7.12205e-29
-2.34499e-29
7.27622e-29
-1.34143e-28
2.01862e-28
3.00452e-29
2.47834e-29
-5.45988e-29
1.30368e-28
-5.61427e-29
-1.53404e-29
1.53631e-29
-8.05698e-30
1.02004e-29
4.07775e-29
6.28884e-29
-5.09906e-29
8.09009e-29
4.41892e-29
-6.48629e-29
-7.87114e-30
6.62485e-29
-3.69665e-30
-2.92683e-29
2.10958e-29
5.65762e-29
9.23974e-30
-2.30966e-29
-2.97261e-29
-3.69034e-29
3.67252e-29
-3.62741e-29
-2.07571e-29
-3.60847e-30
5.04217e-29
-5.45574e-29
2.82212e-29
-2.47112e-28
-3.29649e-28
3.27639e-28
-3.57871e-29
7.53205e-29
6.20433e-30
3.7939e-29
5.62383e-29
1.75657e-29
3.93941e-29
5.37697e-29
1.36488e-29
7.45562e-29
-8.80257e-29
3.05642e-29
2.3071e-29
3.99258e-29
5.53275e-29
8.95348e-29
-1.71091e-29
6.44804e-29
2.73004e-29
-1.02316e-28
7.2597e-29
-8.907e-29
1.94538e-29
5.29407e-29
-1.45117e-28
9.9256e-29
-1.0514e-28
1.35794e-28
8.68992e-29
-9.49731e-29
-5.23566e-29
-1.44087e-29
2.37204e-28
-1.48061e-28
-6.95975e-29
1.21055e-28
-6.1919e-29
2.43822e-29
1.51792e-28
-6.69141e-30
8.93726e-29
1.14689e-28
-2.53634e-28
2.72194e-29
3.12891e-28
-2.47868e-28
-2.10385e-28
-3.64078e-28
1.28483e-30
3.64027e-28
-2.11376e-28
-1.14526e-28
2.73287e-28
1.98503e-28
-2.48943e-29
-1.07843e-29
3.10882e-29
-1.68598e-28
4.28309e-28
-4.88223e-28
6.08063e-29
2.16123e-28
-3.88242e-28
-4.30395e-28
-1.23239e-28
5.53172e-28
-1.99839e-28
4.35762e-28
-4.30764e-28
5.97026e-28
-1.70551e-28
2.34811e-28
-4.15822e-28
-1.94026e-28
9.53439e-31
7.38874e-28
-6.42976e-28
2.2685e-28
3.43071e-28
3.09629e-29
1.86128e-28
-3.83536e-28
-8.02249e-29
1.20331e-28
5.69032e-28
5.65795e-28
-1.40263e-28
3.35991e-28
5.68467e-30
2.79593e-29
-2.76668e-29
6.99823e-29
4.77448e-28
-3.5084e-28
-1.59674e-29
1.95663e-29
-4.94379e-30
-1.09587e-28
-5.52416e-28
4.89698e-28
-1.47617e-29
-1.29677e-29
-1.46526e-29
1.23416e-28
-8.102e-28
-9.12861e-30
2.61501e-28
6.15772e-28
-3.56422e-28
7.27836e-28
2.94984e-30
2.09407e-29
-2.59291e-28
-2.3562e-29
5.12684e-30
-2.55296e-29
-2.39054e-28
2.93951e-28
-7.0297e-28
-2.70993e-28
-1.02552e-27
4.94322e-28
5.3459e-28
4.78773e-28
-6.82087e-29
1.99643e-29
4.56868e-29
-4.79241e-28
-5.35102e-30
-3.52256e-28
5.28839e-28
-5.73073e-29
9.79367e-28
-4.35963e-28
2.24044e-28
-5.65415e-28
-2.98417e-28
-4.04869e-28
-2.69331e-30
-1.45604e-31
4.03959e-28
8.87374e-30
6.50582e-30
-3.12325e-29
8.66287e-30
-8.6344e-30
-7.58288e-28
-2.94048e-29
-4.98598e-29
2.65643e-27
-1.72615e-27
1.81443e-30
-1.93393e-30
-4.64405e-29
-2.41656e-29
-1.93088e-29
-2.34906e-30
1.94909e-30
2.81318e-29
-6.88634e-31
-1.58263e-31
5.23345e-28
-3.05666e-27
6.88296e-28
1.79725e-30
-5.24153e-30
8.21547e-29
-3.51424e-29
-5.82429e-29
7.73882e-28
-6.26661e-33
7.57998e-28
-5.51257e-32
5.63104e-29
2.30796e-27
1.22082e-30
2.16319e-30
-6.00864e-28
-1.27135e-30
-2.69499e-28
1.68586e-27
1.20366e-30
2.73628e-31
-1.57358e-28
7.82181e-29
2.78381e-28
5.17945e-30
1.86582e-30
-1.02128e-30
8.33569e-29
-5.69719e-28
-9.08308e-29
1.26282e-28
-1.08704e-28
-3.24692e-28
3.50379e-29
2.60351e-28
-5.75144e-30
-2.01189e-28
2.71708e-28
-3.20062e-28
-6.13632e-29
7.23194e-29
4.47314e-28
3.24302e-28
3.53845e-30
2.25342e-29
2.77863e-29
7.95692e-29
-4.29725e-30
-1.55978e-29
1.35914e-29
-6.19842e-29
-4.99757e-29
3.35319e-29
1.22973e-29
-2.92373e-29
5.94657e-29
2.48565e-27
1.81501e-30
2.23134e-27
-3.03186e-31
2.05321e-27
-1.08046e-27
7.73726e-28
-7.62558e-28
1.0055e-30
-1.11168e-27
2.47401e-31
-1.73057e-27
-7.39958e-28
-1.39881e-30
-2.46025e-30
5.95211e-30
-4.45585e-30
-1.76216e-30
1.36831e-29
-7.69389e-30
2.75627e-28
-2.8723e-30
-2.10893e-30
-7.3174e-28
2.4259e-28
2.21262e-28
7.21081e-30
-5.97195e-30
-3.58644e-30
-3.71178e-29
-7.29018e-29
3.89083e-29
1.01652e-29
2.79312e-30
-4.65693e-31
1.54312e-30
-5.02716e-32
)
;

boundaryField
{
    back
    {
        type            empty;
        value           nonuniform List<scalar> 0();
    }
    front
    {
        type            empty;
        value           nonuniform List<scalar> 0();
    }
    left
    {
        type            calculated;
        value           uniform 0;
    }
    top
    {
        type            calculated;
        value           uniform 0;
    }
    right
    {
        type            calculated;
        value           uniform 0;
    }
    bottom
    {
        type            calculated;
        value           nonuniform List<scalar> 8(-2.93355e-27 -9.47191e-28 2.57209e-27 -1.86647e-27 -2.46364e-27 1.93533e-27 2.999e-27 9.81629e-28);
    }
}


// ************************************************************************* //
