/*--------------------------------*- C++ -*----------------------------------*\
  =========                 |
  \\      /  F ield         | OpenFOAM: The Open Source CFD Toolbox
   \\    /   O peration     | Website:  https://openfoam.org
    \\  /    A nd           | Version:  9
     \\/     M anipulation  |
\*---------------------------------------------------------------------------*/
FoamFile
{
    format      ascii;
    class       volVectorField;
    location    "0.94";
    object      U;
}
// * * * * * * * * * * * * * * * * * * * * * * * * * * * * * * * * * * * * * //

dimensions      [0 1 -1 0 0 0 0];

internalField   nonuniform List<vector> 
464
(
(-5.84962e-20 -3.17054e-20 -2.50206e-39)
(-3.76891e-20 7.53168e-20 0)
(4.47957e-23 6.75391e-24 0)
(6.79856e-23 -1.64873e-22 6.22926e-38)
(-2.75132e-20 5.90311e-20 0)
(4.99988e-23 9.15141e-24 -1.53902e-38)
(-5.54059e-20 -1.77222e-20 2.81736e-38)
(2.34281e-23 -1.47467e-22 0)
(-6.85155e-20 1.08477e-21 -4.6242e-39)
(-6.46906e-20 1.84503e-20 -3.3891e-38)
(-4.63746e-20 -4.10122e-20 2.38174e-39)
(-1.94518e-20 -2.04556e-20 -1.85529e-39)
(-6.00627e-20 -6.36359e-21 -8.89926e-39)
(-1.37502e-20 -2.37866e-20 0)
(-5.54247e-22 1.99678e-20 -2.44155e-39)
(-7.46169e-23 1.73138e-20 7.95553e-39)
(4.84176e-22 1.38526e-21 0)
(4.99304e-23 5.05237e-23 -4.15192e-38)
(-1.31998e-23 1.11382e-23 -4.76522e-38)
(-6.69577e-22 -2.53101e-21 5.12083e-38)
(-6.30097e-22 -2.38765e-21 -7.53286e-38)
(-3.78614e-22 -9.09625e-22 1.31845e-38)
(-5.75089e-22 -1.13724e-21 -7.02924e-39)
(6.93313e-23 -2.31651e-22 0)
(9.91468e-23 -1.1763e-22 -6.3978e-38)
(7.07954e-23 -2.48317e-22 2.90423e-38)
(-3.00759e-21 9.40568e-21 -5.09886e-38)
(-8.06148e-23 -9.9961e-23 -6.20525e-38)
(-5.88751e-21 1.27923e-20 0)
(-5.78878e-23 -3.67705e-22 0)
(-7.01582e-23 -3.81991e-22 3.5609e-39)
(7.14223e-21 1.68226e-20 2.24154e-40)
(5.3431e-21 1.95262e-20 1.69584e-39)
(6.34811e-21 1.09172e-20 -3.75084e-38)
(7.66214e-21 8.69547e-21 3.78023e-38)
(-1.45651e-22 -1.32531e-21 4.65606e-38)
(9.48358e-22 -1.37635e-21 -3.82517e-38)
(1.88536e-23 -1.79664e-23 -7.21859e-39)
(-8.18692e-23 -2.01911e-23 3.2699e-40)
(7.52992e-22 1.75502e-20 0)
(-5.28542e-22 -2.70434e-21 7.73671e-38)
(-5.95878e-22 -1.55014e-21 0)
(-6.84365e-22 -1.45516e-21 -1.86318e-38)
(-5.93564e-21 1.08182e-21 -6.28173e-38)
(-1.40909e-20 -6.18953e-21 6.35936e-38)
(1.66338e-21 1.98381e-20 2.1705e-39)
(-5.71165e-22 5.81205e-23 5.62927e-38)
(-2.93152e-22 6.08971e-22 -9.90747e-40)
(-1.82273e-23 6.30294e-23 0)
(-3.06114e-23 -7.23832e-23 6.98895e-39)
(-3.53284e-22 -2.76385e-21 -5.45678e-38)
(-1.6005e-22 9.26837e-23 -3.67713e-39)
(6.3409e-23 -1.94861e-21 -3.30806e-38)
(-1.02737e-21 3.36031e-22 -4.86307e-38)
(-8.65244e-22 1.00582e-21 -1.60372e-39)
(-2.62551e-22 1.59083e-22 5.76808e-38)
(-4.07879e-22 4.99476e-23 0)
(1.40518e-21 -1.09105e-23 0)
(1.03246e-21 7.29485e-22 -3.87727e-38)
(1.18808e-22 -2.10586e-21 0)
(-3.77461e-23 3.20345e-23 6.12848e-38)
(-3.01419e-20 1.27807e-20 1.39536e-37)
(4.31934e-21 -1.36534e-21 7.27032e-38)
(-2.80382e-22 3.41211e-24 -4.75509e-38)
(-5.27008e-20 1.67487e-20 -5.76108e-39)
(-1.15318e-21 -1.09807e-22 -5.26183e-38)
(4.0642e-21 -3.60999e-21 -2.62663e-38)
(-5.72842e-23 9.43778e-23 -5.47995e-38)
(-3.35525e-20 -2.86693e-20 -2.07752e-38)
(-6.39039e-22 1.40876e-21 4.90133e-38)
(1.35636e-21 5.22091e-22 3.86924e-38)
(-4.19863e-20 2.27865e-20 -7.28944e-38)
(-4.60231e-21 1.71252e-20 0)
(-3.73445e-22 4.25431e-22 5.72423e-38)
(1.85473e-21 -2.13462e-20 -3.30317e-38)
(-1.65855e-22 -8.47309e-25 6.13863e-38)
(4.11485e-21 -2.31555e-21 -3.23359e-38)
(-6.68704e-20 -3.07674e-20 -2.83405e-38)
(8.27233e-22 -1.89457e-22 -4.4305e-38)
(-1.87875e-21 1.71586e-20 -3.03166e-39)
(-2.60196e-20 3.58919e-20 0)
(1.13786e-22 -4.15141e-23 1.48709e-38)
(-5.68574e-21 1.08466e-20 -1.7507e-37)
(5.95721e-23 2.74582e-23 6.17089e-38)
(-1.51291e-20 1.98041e-20 0)
(3.09353e-21 -8.31383e-22 1.57231e-39)
(-2.9567e-20 3.30881e-21 -6.74212e-38)
(9.90426e-23 -3.3422e-23 0)
(-8.61058e-23 -2.61535e-22 0)
(2.47109e-21 -2.17795e-20 -2.95333e-38)
(-1.82213e-20 1.12951e-20 9.78278e-38)
(-3.97893e-20 3.76883e-20 0)
(7.22496e-21 -8.80519e-21 2.4468e-38)
(-2.71726e-20 -5.2053e-20 -8.67885e-38)
(6.35765e-21 -1.12586e-20 -2.40231e-38)
(5.15451e-21 -2.14223e-21 -3.3606e-38)
(1.71452e-22 4.00057e-22 4.44079e-38)
(1.15029e-22 -1.05957e-22 -1.36386e-38)
(-4.04968e-22 -1.16301e-20 -8.26054e-38)
(-5.16511e-20 -1.06311e-21 3.48161e-39)
(-4.46347e-23 -3.15378e-22 0)
(-4.68478e-22 8.23275e-22 2.01465e-39)
(-1.34622e-22 -3.9568e-22 0)
(7.61655e-21 1.4164e-20 -2.1934e-40)
(6.36315e-21 1.38413e-20 0)
(-3.90287e-21 1.03485e-20 -1.39423e-37)
(2.59002e-23 2.06742e-23 0)
(5.81097e-21 -5.2462e-21 2.57324e-38)
(-9.53609e-21 1.11491e-21 -9.79327e-38)
(-9.13895e-22 6.90837e-22 0)
(6.49766e-21 -1.57539e-20 0)
(-5.95015e-22 2.89189e-22 -5.74665e-38)
(5.40418e-21 -7.1174e-21 0)
(-1.89094e-21 -1.76858e-20 5.24292e-38)
(-1.83459e-22 -2.56193e-22 1.95033e-39)
(-2.97973e-22 -4.39054e-22 -9.52348e-40)
(-3.09696e-21 -1.22975e-21 1.3915e-37)
(4.92986e-23 6.9299e-25 6.39916e-38)
(-5.94034e-22 -5.99227e-21 6.64473e-38)
(5.24234e-23 -8.25452e-23 -3.66248e-39)
(-7.42698e-22 6.64739e-22 5.2979e-38)
(-4.22277e-20 -2.78855e-21 -6.63263e-40)
(-3.7427e-20 2.1613e-21 3.86863e-38)
(-4.33647e-20 -1.34893e-20 -2.97055e-38)
(2.41208e-21 -4.25736e-22 0)
(7.26926e-21 -1.6922e-20 2.64324e-38)
(-3.21738e-20 -2.60898e-21 -3.90235e-38)
(4.00042e-21 -1.48569e-20 0)
(7.06473e-21 6.09828e-21 0)
(-2.37611e-21 1.90329e-21 1.35626e-37)
(3.80465e-23 2.29944e-23 -4.79249e-38)
(-3.22286e-21 -3.05415e-21 -1.37877e-37)
(4.88135e-24 -6.00803e-24 -5.01353e-38)
(-4.14056e-22 -5.48396e-22 0)
(-9.44705e-23 -4.38358e-22 0)
(-1.35848e-21 -3.33874e-21 -1.10354e-37)
(1.32663e-23 1.93857e-23 -9.44113e-38)
(-9.72924e-23 -1.52429e-22 -6.17632e-38)
(-4.87256e-20 6.07829e-21 4.05433e-38)
(-4.63891e-23 -2.12566e-22 4.19005e-38)
(-1.26129e-23 -1.58454e-22 0)
(7.84875e-21 -1.2952e-20 0)
(7.21227e-22 9.57683e-22 4.96276e-41)
(-3.04073e-22 -3.36543e-22 6.04494e-38)
(-1.44163e-24 -3.14699e-23 5.72137e-38)
(5.651e-22 -1.96338e-20 -4.39146e-38)
(-6.00305e-22 -5.53267e-22 0)
(1.04201e-22 -1.13461e-22 0)
(-6.3661e-22 4.65111e-22 -1.10563e-39)
(-5.46851e-23 -5.73769e-22 -9.9894e-38)
(-7.18936e-22 -7.16516e-22 1.79252e-39)
(-3.08664e-22 -6.06313e-22 5.68989e-38)
(-1.02614e-20 9.15058e-21 -8.18019e-39)
(5.35058e-21 -1.96313e-20 -2.65497e-38)
(-1.65108e-21 -8.27476e-21 -9.48489e-41)
(-4.4361e-23 -3.80043e-22 -5.85265e-38)
(-2.0136e-22 2.82295e-21 0)
(-9.00957e-22 -6.58571e-22 0)
(-3.41066e-20 -1.65392e-21 -1.01186e-38)
(-1.12283e-20 -5.75743e-21 8.53749e-38)
(-5.788e-21 -2.05422e-21 0)
(-1.00061e-21 -8.94432e-22 -5.69712e-38)
(1.91708e-21 -1.83219e-20 6.24644e-38)
(-3.36605e-23 -3.42318e-22 1.70969e-39)
(9.01565e-24 -8.38747e-22 4.74956e-38)
(-6.65643e-24 -9.70499e-24 0)
(-9.90902e-22 2.50914e-21 -2.42355e-38)
(-2.0852e-22 -1.64799e-21 5.59493e-38)
(2.5073e-21 1.46191e-20 2.75596e-38)
(5.15081e-22 -5.54245e-21 2.9237e-38)
(1.00808e-21 -8.96905e-21 -5.094e-39)
(-1.91713e-20 -4.76647e-21 -5.73691e-38)
(4.65959e-22 -1.23639e-20 -1.10565e-38)
(-2.36407e-22 -7.6684e-22 -1.3099e-38)
(8.51036e-22 -1.1205e-20 8.67844e-39)
(2.62705e-21 -1.11346e-20 -1.98604e-38)
(-1.12476e-21 -7.41395e-22 5.65701e-38)
(-1.16337e-21 -1.05615e-21 -2.11141e-40)
(-1.4965e-20 9.39558e-21 1.58533e-38)
(1.73427e-21 6.45986e-21 9.74861e-39)
(-1.01749e-21 -1.52981e-21 5.1893e-38)
(1.7932e-21 -3.73485e-21 2.28316e-38)
(5.38045e-22 3.65469e-21 0)
(4.70317e-22 4.73514e-21 -1.3948e-37)
(8.25147e-22 7.30607e-21 -5.30033e-38)
(1.13758e-21 6.76608e-21 -1.01933e-39)
(6.24947e-22 -1.79923e-21 0)
(4.32504e-22 -1.40524e-21 -8.05379e-39)
(3.55341e-22 -6.64112e-21 -5.69866e-38)
(9.645e-22 -6.33459e-21 2.43923e-41)
(-4.85252e-22 1.24724e-21 -5.10298e-41)
(8.4691e-22 -3.84678e-21 1.00745e-38)
(-6.06296e-23 3.30026e-22 -8.93259e-38)
(-3.3262e-22 9.98229e-22 -5.55819e-38)
(3.73258e-22 1.35363e-21 3.92501e-41)
(1.4726e-22 1.73727e-21 -3.93745e-41)
(-3.96888e-22 -2.19129e-21 -5.14439e-38)
(-7.73834e-22 1.05889e-21 5.04869e-41)
(9.04708e-22 3.53973e-21 -3.41148e-38)
(-4.3322e-22 1.63131e-21 4.93926e-38)
(-3.24686e-22 1.39076e-21 0)
(-7.4821e-23 1.81588e-21 0)
(-1.30266e-22 9.29041e-22 0)
(-2.20181e-22 1.85321e-21 4.55333e-41)
(5.07372e-22 -2.62715e-21 0)
(-1.3234e-22 6.9117e-22 2.50513e-39)
(-5.58074e-23 6.25463e-22 0)
(-3.15899e-23 7.96264e-22 -3.81377e-38)
(-5.54076e-23 1.33415e-21 3.86708e-38)
(-2.349e-23 -6.88417e-21 4.16069e-38)
(-1.54231e-23 -1.19255e-22 4.32937e-38)
(3.01788e-22 -3.89061e-22 0)
(-3.19501e-23 8.3075e-23 4.70481e-38)
(9.23908e-23 -1.37828e-21 -3.37122e-38)
(-1.78939e-23 -4.73177e-22 0)
(5.43893e-22 -4.12108e-21 -7.88479e-39)
(8.83199e-23 4.72935e-21 7.29666e-38)
(-8.1519e-23 4.68992e-22 4.28359e-38)
(-8.31769e-22 7.88652e-21 7.81488e-38)
(1.86211e-23 7.81791e-22 -3.09414e-38)
(5.96809e-22 1.88522e-21 1.05491e-37)
(-1.09463e-22 1.21343e-21 4.7698e-38)
(-2.41643e-22 1.70505e-21 -4.9452e-38)
(-9.26578e-22 -7.93429e-25 9.87458e-38)
(-1.18208e-21 -8.42787e-22 5.18877e-38)
(-1.06029e-21 -1.26216e-21 -4.92862e-38)
(-9.24564e-22 -9.237e-22 0)
(2.12173e-22 -2.28767e-21 2.20602e-38)
(-5.7793e-22 -1.37076e-21 -1.39911e-39)
(-2.34006e-22 -9.65175e-22 -4.78126e-38)
(2.96819e-22 -1.45048e-21 4.73903e-38)
(5.86117e-22 -2.38487e-21 -6.1938e-39)
(1.46571e-21 -1.93362e-21 0)
(2.39469e-21 -6.2597e-22 -3.97277e-38)
(3.88083e-22 -2.57475e-21 5.40672e-38)
(9.2769e-22 -1.0718e-21 0)
(4.08851e-21 -2.92494e-22 -6.61922e-39)
(3.30784e-21 -1.16486e-21 -6.78354e-39)
(1.69648e-21 -1.43036e-21 4.65935e-38)
(3.02631e-21 2.89286e-22 6.13499e-39)
(2.57337e-21 -1.1916e-21 -4.74374e-38)
(5.60886e-21 1.95545e-22 -3.64827e-38)
(2.01849e-21 -1.82851e-21 4.95528e-38)
(3.53079e-21 -1.24092e-21 0)
(4.62966e-21 -1.23526e-21 0)
(2.29982e-21 1.34304e-21 -1.64265e-38)
(5.88729e-21 -6.96886e-22 -1.46407e-39)
(-6.10381e-23 -2.17943e-21 0)
(6.643e-21 1.3689e-21 0)
(6.30871e-23 -1.13134e-21 0)
(7.61142e-21 1.71906e-21 -5.60064e-38)
(4.99579e-21 2.38459e-21 2.28462e-38)
(8.72988e-21 -4.40213e-21 -2.77608e-38)
(4.84896e-21 -1.97998e-20 2.96246e-38)
(6.9044e-21 -1.21493e-21 0)
(8.03303e-21 -3.42328e-22 0)
(-8.89858e-22 -3.32591e-22 0)
(8.88119e-24 -6.2345e-22 -2.78698e-38)
(9.24639e-21 -1.4598e-21 -4.79088e-38)
(1.00346e-20 6.84524e-21 0)
(1.00165e-20 4.81104e-22 4.58383e-38)
(1.03312e-20 -8.52933e-21 4.82175e-38)
(1.08923e-20 -1.54056e-21 2.80679e-38)
(3.59841e-21 1.54309e-20 -2.14055e-38)
(1.10849e-20 9.69918e-22 -2.80685e-38)
(-5.29178e-22 1.16427e-20 2.73152e-38)
(1.09512e-20 -2.05897e-21 -5.30051e-41)
(-1.69194e-22 -1.81752e-22 -1.90629e-39)
(5.89195e-23 2.11386e-20 -1.51426e-38)
(5.92547e-21 1.14112e-20 2.16955e-38)
(-1.96812e-22 -8.34303e-22 -5.08058e-38)
(9.89654e-21 1.64118e-21 0)
(3.00684e-21 -1.98547e-21 2.38775e-38)
(3.25545e-21 2.03276e-20 -1.2968e-38)
(-3.86322e-20 -5.27839e-21 -3.63369e-39)
(8.42286e-21 -2.14224e-21 0)
(5.93727e-21 2.36609e-21 0)
(2.42123e-22 1.4572e-21 -3.60388e-38)
(9.78318e-23 6.30029e-22 0)
(-9.95173e-22 -2.09982e-20 -8.96323e-39)
(3.1672e-21 -1.11275e-20 1.84678e-40)
(-4.12921e-22 -2.67067e-22 -9.10831e-40)
(8.26331e-23 1.16793e-21 0)
(-2.0811e-22 2.91874e-22 -5.89729e-38)
(-2.94538e-21 1.90336e-20 -5.76085e-39)
(-4.06777e-22 -1.48541e-20 -2.72006e-38)
(1.45559e-22 7.47959e-22 -2.48726e-38)
(-2.26114e-20 -7.16926e-21 0)
(-3.62336e-22 -1.06458e-22 0)
(-5.30115e-21 -1.06503e-20 2.77523e-38)
(-9.97914e-21 -1.28471e-20 1.49374e-40)
(-1.73159e-20 -7.96872e-21 -2.75632e-40)
(-6.9789e-22 -2.12443e-22 -5.7479e-38)
(-1.09893e-21 1.50627e-22 1.08799e-37)
(7.28238e-21 -4.35074e-21 2.83486e-38)
(6.5496e-22 5.15876e-22 7.14702e-38)
(3.31033e-22 -3.0381e-22 0)
(3.84261e-21 -1.0388e-20 -5.96667e-40)
(3.17413e-21 -6.25106e-21 -2.28828e-38)
(-1.74129e-20 -1.01547e-20 5.68207e-38)
(-4.16116e-21 1.43073e-20 -1.93145e-38)
(-1.13567e-20 1.63032e-21 -2.56214e-38)
(-2.15248e-20 2.13582e-21 -1.97382e-38)
(-1.62927e-20 -3.7414e-20 1.13158e-37)
(9.48052e-22 -1.64345e-21 2.22213e-38)
(9.07051e-21 -6.82046e-21 -2.46107e-38)
(9.82257e-21 -9.79758e-21 -4.75952e-38)
(3.39554e-22 -1.56798e-21 1.26349e-38)
(-5.33921e-21 -1.11916e-20 -1.59817e-37)
(2.55973e-21 -1.51483e-20 -2.51291e-38)
(-5.50101e-22 1.2571e-21 -4.90237e-38)
(-5.94907e-22 -3.39228e-22 -1.09688e-39)
(6.5955e-21 -2.66734e-21 0)
(-2.5485e-20 4.14816e-23 -6.93004e-39)
(8.96397e-21 -1.24778e-20 -4.79214e-38)
(5.78812e-21 -1.44364e-20 0)
(1.20007e-22 2.70256e-22 1.96537e-38)
(-9.71269e-21 -1.56866e-20 0)
(3.19208e-24 -8.10763e-23 0)
(-2.31253e-20 3.9803e-21 -1.60867e-38)
(-1.4777e-22 -4.9909e-22 4.56496e-38)
(2.35992e-21 -2.86087e-21 -1.06725e-40)
(-5.37413e-21 -1.62352e-20 7.54999e-38)
(2.36089e-21 -7.16289e-21 2.04302e-38)
(-1.82844e-20 -2.05205e-21 4.42457e-38)
(-1.13847e-22 4.2377e-22 -9.32789e-40)
(-7.36225e-23 2.10175e-22 -5.73471e-38)
(-2.84065e-20 5.07531e-22 3.63256e-38)
(-2.37056e-22 -1.00506e-22 0)
(-7.39254e-21 -1.77186e-20 -3.76345e-38)
(-7.75921e-22 -2.11481e-21 -2.58999e-38)
(-7.0805e-20 2.41487e-20 -2.40279e-38)
(4.29044e-23 -1.01742e-23 -2.51022e-38)
(1.03961e-20 -6.40828e-21 4.74852e-38)
(-2.58189e-22 1.55883e-21 -4.53083e-41)
(-1.10332e-21 -2.0832e-22 -5.44188e-38)
(-2.88136e-22 -7.07293e-22 -4.17635e-38)
(4.81717e-23 -1.97041e-23 -4.97792e-38)
(3.42844e-21 -1.8898e-20 -4.32989e-39)
(-6.27692e-22 -1.84773e-21 5.63917e-38)
(1.18812e-23 -4.88377e-24 2.6341e-38)
(-5.88437e-20 -6.61396e-20 0)
(7.73186e-23 -2.04952e-20 -4.63726e-40)
(-2.48902e-21 -2.09672e-20 3.73319e-38)
(8.19083e-21 -1.02587e-20 2.3261e-38)
(-6.01345e-23 -1.64302e-22 3.11879e-38)
(-4.77292e-23 1.86964e-22 9.23383e-38)
(2.66529e-21 -1.05889e-21 3.22418e-38)
(7.14842e-23 -4.24203e-23 6.09329e-38)
(6.46642e-23 1.22645e-21 0)
(-9.54582e-22 -6.63826e-23 -1.78577e-39)
(3.56458e-23 -2.98346e-23 -2.99606e-38)
(1.19714e-21 -1.14297e-21 0)
(1.47797e-21 -4.80156e-22 -3.49095e-38)
(-8.04837e-22 3.22825e-22 -5.49369e-38)
(-1.27854e-20 4.99259e-20 1.75086e-37)
(2.61625e-24 6.03539e-26 0)
(-3.57216e-21 2.05558e-20 -9.45428e-38)
(1.29117e-24 2.64171e-24 -2.30985e-38)
(-4.80916e-20 6.36007e-20 0)
(7.14333e-23 -1.39542e-23 -3.34503e-38)
(-7.211e-20 -8.23717e-21 1.06061e-38)
(6.79014e-23 -1.4517e-23 1.6455e-38)
(-2.10626e-20 4.26895e-20 0)
(-4.28393e-20 -5.35209e-20 2.70205e-39)
(2.18389e-24 2.58176e-23 6.53752e-38)
(-4.52968e-23 -1.9684e-22 0)
(5.62332e-21 4.8576e-21 0)
(-5.32523e-21 -1.03749e-20 0)
(6.145e-24 -1.93983e-22 3.15094e-38)
(2.41891e-23 4.3594e-23 0)
(-2.79674e-21 3.03196e-22 2.87687e-37)
(-5.90197e-21 1.76184e-20 -2.47074e-40)
(2.22187e-21 4.07687e-21 0)
(-8.25138e-22 8.52072e-21 4.31598e-38)
(2.46539e-23 -2.43042e-22 0)
(-2.25385e-20 -4.65424e-21 9.73994e-39)
(-3.55339e-22 -1.17494e-21 8.48754e-38)
(-5.05474e-22 1.20765e-20 -5.17893e-38)
(-8.36224e-23 -3.80695e-22 1.62962e-38)
(-4.61898e-22 1.00883e-20 0)
(3.98066e-21 1.41199e-20 -2.91931e-38)
(3.63152e-21 9.47785e-21 0)
(9.30866e-21 9.91546e-21 -2.03848e-38)
(8.05988e-21 4.1309e-21 1.07283e-39)
(7.59853e-21 1.26749e-20 0)
(9.22347e-21 7.06461e-21 -2.77504e-38)
(9.86255e-23 -1.89294e-22 -3.35442e-38)
(-4.49117e-22 1.55851e-21 0)
(-5.47999e-22 -1.43882e-21 0)
(9.4749e-22 -2.21654e-21 -2.30299e-38)
(2.09344e-21 -7.59473e-22 0)
(-6.37331e-23 -1.41908e-21 3.04377e-38)
(1.94032e-22 -1.05007e-21 6.13016e-38)
(-2.79376e-22 -2.4107e-21 -2.54022e-38)
(-8.8058e-22 -1.46052e-21 -5.53023e-38)
(-9.5086e-22 -1.88224e-21 0)
(-3.84018e-22 -7.33964e-22 -1.2052e-37)
(-3.78224e-22 -1.65459e-21 0)
(-1.34554e-20 8.95399e-21 1.14888e-38)
(-5.90607e-20 6.44071e-20 0)
(3.81718e-23 -9.52458e-24 0)
(-5.03385e-20 -6.76883e-20 0)
(2.24359e-23 8.8272e-24 -2.628e-38)
(-7.3153e-20 -1.26871e-21 2.54888e-38)
(-6.61607e-20 -4.38638e-20 0)
(-4.56843e-21 -2.17817e-20 0)
(-2.03776e-24 3.16366e-23 5.03523e-38)
(-1.39052e-20 -5.09023e-20 0)
(-1.58712e-23 1.17163e-23 -6.47433e-38)
(-6.39525e-20 3.20354e-20 1.49437e-38)
(-4.60585e-23 -1.18685e-22 3.20938e-38)
(1.13695e-22 -9.08795e-23 0)
(-9.00493e-23 -4.05604e-22 3.03655e-38)
(1.04038e-22 -1.47733e-22 0)
(-5.00468e-20 4.58659e-20 0)
(-2.46487e-21 -7.41579e-21 0)
(-3.64448e-23 -7.89278e-23 1.85947e-39)
(1.21563e-22 -7.05553e-23 3.0094e-38)
(-6.75729e-20 3.84311e-20 -1.48333e-38)
(-4.1025e-23 -8.75657e-23 3.36797e-38)
(8.14388e-23 -3.39583e-23 3.64195e-38)
(-3.4676e-20 -1.548e-20 2.22641e-38)
(-9.66228e-22 2.49208e-21 -1.53364e-37)
(-3.81214e-20 -7.90688e-20 -8.6276e-38)
(-1.15752e-20 1.27587e-20 6.56774e-39)
(-6.06311e-23 6.27124e-21 4.91994e-38)
(-4.91999e-22 1.05962e-20 -5.5873e-38)
(1.35123e-22 5.38571e-21 4.03318e-38)
(-8.2017e-21 2.63626e-20 2.03041e-37)
(2.90878e-23 1.53002e-23 3.44169e-38)
(9.3012e-21 8.04686e-21 2.19198e-38)
(2.6188e-21 1.03138e-20 1.14884e-39)
(7.32686e-23 -2.07468e-22 6.05453e-38)
(9.34861e-21 3.84093e-21 9.32412e-38)
(2.51315e-22 1.57493e-22 0)
(-1.09704e-23 -3.52546e-22 3.7055e-38)
(-1.62946e-22 -4.95941e-22 -3.17875e-38)
(9.38056e-25 -3.93951e-22 0)
(-2.98665e-23 -1.88557e-22 -3.17992e-38)
(1.55841e-21 -1.88936e-21 0)
(1.57728e-23 -3.97212e-22 -1.18173e-38)
(-5.36239e-22 -2.01553e-21 2.31542e-39)
(-8.01035e-22 -2.18954e-21 -2.74367e-38)
(-6.17782e-22 -8.71168e-22 8.8122e-38)
(-9.50108e-22 -1.86049e-21 -1.6105e-39)
(-6.97465e-22 -1.06251e-21 -3.2311e-38)
(-2.02945e-22 -1.15476e-21 -3.03955e-38)
(-8.98362e-22 -1.16579e-21 3.43867e-38)
(-1.77179e-22 -2.45257e-21 2.76798e-38)
(3.24568e-21 1.83493e-20 0)
(-7.20931e-20 -2.58365e-20 -7.57922e-39)
(4.02433e-21 2.07106e-20 2.54288e-38)
(-1.16962e-23 -3.25651e-22 0)
(5.42816e-23 -2.66174e-21 -5.99543e-38)
(3.44869e-21 4.79786e-21 0)
(4.56772e-21 3.59966e-21 -1.59173e-38)
(1.27833e-23 2.82884e-23 -3.15938e-38)
(-1.89357e-23 -9.93753e-24 -5.06317e-40)
(-7.4264e-24 -3.4939e-23 6.44851e-40)
(-1.74602e-23 3.27474e-23 5.96456e-38)
(-6.65255e-21 -2.38182e-20 0)
(-2.64385e-20 -6.32904e-20 2.70551e-38)
(-4.68346e-24 -2.9369e-22 -7.617e-38)
)
;

boundaryField
{
    back
    {
        type            empty;
    }
    front
    {
        type            empty;
    }
    left
    {
        type            noSlip;
    }
    top
    {
        type            uniformFixedValue;
        uniformValue    
        {
            type            scale;
            scale           
            {
                type            squarePulse;
                start           0.3;
                duration        0.3;
            }
            xScale          
            {
                type            constant;
                value           1;
            }
            value           
            {
                type            constant;
                value           (0 -0.7 0);
            }
        }
        value           uniform (0 -0 0);
    }
    right
    {
        type            noSlip;
    }
    bottom
    {
        type            zeroGradient;
    }
}


// ************************************************************************* //
