/*--------------------------------*- C++ -*----------------------------------*\
  =========                 |
  \\      /  F ield         | OpenFOAM: The Open Source CFD Toolbox
   \\    /   O peration     | Website:  https://openfoam.org
    \\  /    A nd           | Version:  9
     \\/     M anipulation  |
\*---------------------------------------------------------------------------*/
FoamFile
{
    format      ascii;
    class       volScalarField;
    location    "0.9";
    object      p;
}
// * * * * * * * * * * * * * * * * * * * * * * * * * * * * * * * * * * * * * //

dimensions      [0 2 -2 0 0 0 0];

internalField   nonuniform List<scalar> 
578
(
-6.14287e-20
-1.82303e-19
-4.12947e-20
1.58035e-20
-1.70375e-19
1.3372e-19
1.8727e-19
-1.45344e-19
-1.12186e-19
-2.83205e-19
7.68986e-20
-1.41034e-19
9.44609e-21
-1.56606e-19
1.7449e-19
1.66248e-20
-7.50759e-20
-6.65659e-20
-1.07962e-19
-6.95097e-20
1.68241e-20
2.67807e-20
5.72284e-20
5.8906e-20
5.69064e-20
-1.07213e-19
3.92847e-23
-1.40513e-20
-1.27298e-19
2.22041e-20
-4.36339e-21
1.49098e-19
-3.67897e-20
2.29655e-20
1.59391e-19
-4.53658e-20
-1.40878e-19
-1.39749e-19
1.19796e-20
-2.03198e-19
-1.51949e-19
-1.24851e-19
-1.62791e-19
1.81505e-19
-2.37659e-20
2.26415e-19
1.73855e-19
-1.20987e-19
1.05434e-20
-2.86673e-21
1.98632e-19
8.67308e-21
1.99563e-19
2.14642e-20
6.75452e-21
-6.5436e-20
5.43585e-20
4.87525e-20
-2.81182e-20
-8.05941e-20
-7.22143e-20
-1.09173e-19
-1.06468e-19
-1.73668e-19
6.62859e-21
1.68372e-19
-1.39562e-20
9.98325e-20
8.036e-20
-1.01964e-19
2.85574e-20
1.42808e-19
6.89071e-21
-1.1747e-19
7.35731e-20
-1.86235e-19
-1.48337e-19
-1.18859e-19
7.02017e-21
1.35441e-19
1.66012e-19
-1.33655e-19
2.41036e-19
2.29567e-19
4.89528e-20
1.14561e-19
2.28965e-19
-3.93686e-20
-1.12912e-19
1.11104e-19
4.52975e-23
9.1082e-20
1.46487e-19
1.18134e-20
9.54062e-20
1.49281e-19
6.56794e-21
6.29954e-21
-2.66379e-19
1.77804e-19
1.62631e-19
-1.17669e-19
2.11378e-21
1.1337e-19
5.13723e-21
-1.6414e-19
8.09299e-20
-1.89325e-19
1.36758e-19
-1.63085e-19
-4.09337e-20
-1.1197e-19
-8.01755e-20
1.20648e-19
1.33346e-19
4.29806e-21
1.37838e-20
-7.77911e-20
1.08437e-19
6.20312e-21
-9.49072e-20
3.08462e-19
-1.29888e-19
1.39096e-20
1.88652e-19
7.26831e-20
1.40478e-19
1.9642e-20
1.39741e-19
1.82008e-20
1.37806e-19
6.38285e-20
1.19138e-20
-1.05903e-19
1.23437e-19
1.39415e-19
-1.68826e-19
4.27475e-21
8.40813e-20
1.39936e-19
1.49955e-19
3.92286e-20
1.33886e-19
-3.49476e-20
-1.21048e-19
6.38671e-20
5.11042e-20
-5.93132e-21
-1.29758e-19
-7.71872e-22
-1.31816e-19
7.79586e-20
-1.67218e-19
-9.84798e-20
1.72104e-19
-2.22926e-21
-9.35289e-20
1.32409e-20
1.87017e-19
-1.3213e-19
-1.39761e-19
-1.35701e-19
1.60125e-19
-1.27926e-19
-6.49083e-20
4.37646e-20
-3.99188e-20
1.71739e-19
1.77691e-20
6.3184e-21
-1.14614e-19
-1.74408e-19
1.43575e-19
1.00118e-19
1.65385e-19
5.22486e-21
7.78414e-21
-7.20974e-20
-1.28705e-19
-1.10073e-19
1.8061e-19
-1.37803e-19
9.07814e-20
7.24264e-21
1.44565e-19
-2.36531e-21
1.19063e-20
1.85821e-19
1.69673e-19
-1.63164e-19
-1.48214e-19
-1.41774e-19
8.04129e-20
1.68672e-19
-2.1665e-19
7.72133e-21
2.48601e-20
-1.07422e-20
1.63784e-19
-1.49424e-19
1.50004e-20
8.89919e-21
3.22068e-19
3.49287e-21
6.07632e-21
-1.54763e-19
1.58297e-19
8.61057e-21
-1.3953e-19
3.95712e-20
2.82345e-20
1.57935e-19
1.1673e-19
8.82903e-21
1.2086e-19
1.20021e-20
1.67934e-19
-1.46409e-19
1.70207e-19
6.22269e-20
-1.47804e-19
1.62246e-19
-6.92911e-20
-1.48182e-19
1.83486e-19
7.35182e-20
8.18077e-21
2.02942e-20
-6.97296e-21
-1.25327e-19
-2.49559e-19
3.05765e-19
1.12938e-19
-6.66653e-20
6.69236e-20
-1.03165e-19
-1.5393e-19
1.77249e-19
1.03113e-20
-2.43925e-20
1.73169e-19
-1.76407e-19
5.33426e-21
1.71993e-19
-1.03196e-20
-1.20299e-19
1.38722e-19
-2.48949e-19
1.24765e-19
1.11167e-20
7.63062e-21
9.82286e-20
1.69884e-19
2.13328e-20
1.51922e-19
-3.77037e-20
-9.50348e-20
1.59499e-19
-1.20169e-19
2.72818e-19
-5.9952e-20
1.81659e-19
2.51753e-20
2.80942e-20
-1.38804e-19
-8.34652e-20
4.77427e-20
-2.93942e-20
-2.01762e-19
5.66606e-20
-5.66632e-20
5.74398e-20
2.70499e-20
6.87905e-21
1.0029e-20
1.06713e-20
2.87047e-21
3.15459e-20
1.72943e-19
1.69101e-20
-1.60325e-19
7.00909e-21
6.76105e-21
8.60402e-21
1.09111e-20
1.30752e-19
-7.35039e-20
7.7129e-20
3.34928e-20
2.53009e-20
2.42133e-20
9.39841e-20
2.01253e-21
1.57997e-19
2.34745e-20
2.67901e-20
-1.60051e-19
-1.74011e-20
-2.20251e-21
2.27209e-20
1.29592e-20
-2.38954e-20
7.71062e-21
-1.93749e-20
2.64973e-20
1.16843e-20
2.9001e-21
-8.62393e-20
1.37207e-20
1.11715e-20
-4.52344e-20
-1.85223e-21
1.03656e-20
-2.63495e-20
2.13301e-20
7.12741e-21
8.52518e-20
-2.10691e-20
-4.75205e-20
2.14307e-20
9.02295e-20
6.28107e-21
8.43981e-21
4.17925e-20
6.58504e-21
3.17131e-22
1.57334e-19
1.58345e-19
-1.51443e-19
-1.85072e-21
5.3676e-21
1.37458e-19
5.27022e-21
1.64412e-21
1.09412e-19
3.03878e-20
1.08058e-20
3.34732e-21
-4.65574e-20
1.87117e-21
7.45197e-21
8.02727e-21
-1.98323e-21
-6.79289e-20
1.945e-20
1.63731e-19
9.4663e-20
1.27357e-19
-1.19252e-19
1.51543e-19
-1.32004e-19
-1.46828e-19
1.65456e-19
-4.13249e-20
-1.82595e-19
2.10441e-19
3.26084e-20
2.0031e-19
-1.89016e-19
2.12529e-19
9.84943e-21
-4.9516e-20
2.65704e-20
-9.56799e-20
1.15246e-20
2.14935e-20
-1.48279e-21
1.41891e-19
1.00305e-20
4.28495e-21
-1.40267e-19
-1.19136e-19
7.45829e-20
9.93596e-20
7.46256e-20
2.35145e-19
2.13178e-21
1.47182e-19
-1.40752e-19
-1.82763e-20
5.8153e-21
-1.42282e-19
1.6359e-19
4.44244e-20
3.05998e-20
1.00934e-20
1.97883e-20
2.00563e-19
1.88612e-19
-1.10263e-19
7.6756e-21
4.7028e-20
5.18268e-20
-3.86203e-20
-1.63011e-22
3.25482e-20
1.59666e-19
-1.81813e-20
4.07591e-20
5.97564e-20
1.53172e-20
1.209e-19
1.82393e-20
-8.70385e-20
4.83033e-21
-6.11209e-21
1.15321e-19
-2.49714e-20
6.44174e-20
1.10751e-19
2.49726e-21
-1.13886e-19
-5.82791e-20
8.08805e-20
-3.08881e-20
7.49735e-20
-1.21386e-19
1.36578e-19
-1.62471e-19
-1.26892e-21
1.45152e-19
9.0303e-20
-1.28614e-19
1.79548e-19
1.09755e-19
-6.29446e-20
-1.09376e-19
-9.16476e-20
-1.3331e-19
-6.00766e-20
1.09778e-19
4.2039e-20
5.8146e-20
7.65322e-21
9.6356e-20
-8.19986e-20
-1.43202e-19
-7.21013e-20
-8.88457e-20
-2.55123e-20
-5.72386e-20
1.23828e-20
1.46496e-20
-3.79859e-21
1.34653e-19
-1.94523e-20
-7.57815e-21
1.19504e-19
1.17888e-19
-3.22961e-24
1.47906e-19
2.98802e-21
1.26986e-19
9.8629e-21
1.54876e-19
8.31093e-21
-1.75693e-19
5.97373e-20
4.50663e-20
-8.68512e-20
2.45519e-19
1.40728e-19
-7.3941e-20
-8.67299e-20
-1.92918e-20
-9.48812e-20
9.76149e-20
-1.60609e-19
-4.16402e-20
-8.0301e-20
-1.61281e-20
-1.65109e-20
1.08066e-19
-1.32661e-21
-2.4504e-20
-1.23274e-19
-9.29099e-20
-9.24797e-20
-3.54986e-20
-7.82806e-20
4.30694e-20
6.51966e-20
-2.93771e-20
-1.31946e-20
-8.78272e-22
-7.70022e-20
-4.00951e-20
4.50534e-22
2.44755e-21
1.47514e-19
1.25403e-20
1.11779e-19
-4.91426e-20
1.24773e-20
3.58398e-21
1.13529e-19
5.82363e-21
1.31005e-19
1.22424e-21
1.18238e-20
-1.5897e-19
-1.17784e-20
-8.29065e-20
1.13468e-20
-7.0475e-20
7.05903e-22
1.32313e-19
1.73158e-20
8.76434e-20
2.52349e-21
-4.36186e-21
1.77621e-19
1.35473e-20
2.21894e-19
1.49178e-19
-1.0567e-21
-1.37659e-19
-1.95133e-19
1.11108e-19
1.10377e-20
6.05562e-20
8.59467e-20
-2.9225e-20
-1.11323e-19
-1.21182e-19
9.21179e-21
-1.997e-20
1.78323e-20
-1.20571e-19
-1.22851e-19
-1.26873e-19
-1.36476e-19
-1.24705e-20
-5.83268e-21
1.49092e-19
1.1627e-19
1.00102e-19
1.2391e-19
1.16061e-19
-1.39462e-21
1.3944e-20
1.41129e-19
-6.03102e-20
-1.03854e-19
1.72559e-19
2.77309e-20
7.08801e-20
-7.31068e-20
-5.11611e-20
-9.90383e-20
1.04503e-19
1.62033e-19
-9.51095e-20
1.54192e-19
1.09141e-19
-4.29455e-20
-1.34776e-19
-1.06469e-20
8.23311e-21
-3.65433e-23
2.211e-21
1.66597e-19
-1.26837e-19
3.9659e-22
1.26763e-20
9.92137e-20
9.62728e-21
-7.20612e-20
2.32575e-21
1.09049e-20
1.36033e-19
-7.825e-20
1.13632e-19
-1.18207e-19
-3.68649e-20
6.86658e-20
8.65904e-20
6.49805e-20
)
;

boundaryField
{
    front
    {
        type            empty;
    }
    back
    {
        type            empty;
    }
    bottom
    {
        type            uniformFixedValue;
        uniformValue    
        {
            type            scale;
            scale           
            {
                type            squarePulse;
                start           0.3;
                duration        0.3;
            }
            xScale          
            {
                type            constant;
                value           1;
            }
            value           
            {
                type            constant;
                value           15.1;
            }
        }
        value           uniform 0;
    }
    left
    {
        type            zeroGradient;
    }
    top
    {
        type            zeroGradient;
    }
    right
    {
        type            zeroGradient;
    }
    inner_arc
    {
        type            zeroGradient;
    }
}


// ************************************************************************* //
