/*--------------------------------*- C++ -*----------------------------------*\
  =========                 |
  \\      /  F ield         | OpenFOAM: The Open Source CFD Toolbox
   \\    /   O peration     | Website:  https://openfoam.org
    \\  /    A nd           | Version:  9
     \\/     M anipulation  |
\*---------------------------------------------------------------------------*/
FoamFile
{
    format      ascii;
    class       surfaceScalarField;
    location    "0.9";
    object      phi;
}
// * * * * * * * * * * * * * * * * * * * * * * * * * * * * * * * * * * * * * //

dimensions      [0 3 -1 0 0 0 0];

internalField   nonuniform List<scalar> 
816
(
4.27512e-27
1.36767e-25
-1.41059e-25
-4.77507e-26
1.90949e-25
-1.43241e-25
-2.38518e-25
2.42801e-25
1.21521e-26
-1.65377e-26
4.38756e-27
1.34537e-25
-1.3452e-25
-7.46874e-26
9.21394e-26
-1.74515e-26
-1.40438e-25
1.40433e-25
-1.24829e-25
1.24814e-25
-2.84953e-25
4.62798e-28
2.84511e-25
3.45968e-26
-8.23616e-26
6.99087e-26
-1.44614e-25
3.32109e-25
-2.40654e-25
-9.1464e-26
4.97675e-27
-3.97275e-27
-1.0036e-27
3.23197e-25
-2.92409e-25
-3.0798e-26
-3.19152e-25
2.8106e-25
3.80956e-26
-2.44449e-25
4.02846e-25
-1.58429e-25
-1.53982e-25
-4.30432e-26
1.97026e-25
2.91102e-25
-2.32592e-26
-2.67857e-25
3.89074e-26
2.93241e-25
1.33978e-25
-4.18959e-25
2.3314e-26
-1.11803e-26
3.05594e-26
-2.74987e-25
1.60722e-25
-6.78659e-26
-9.28256e-26
4.09362e-26
1.91847e-26
-6.01094e-26
4.74919e-26
-6.57293e-27
-2.72845e-25
6.63589e-26
2.06467e-25
1.86037e-26
-1.67311e-26
-1.87659e-27
5.7537e-27
-1.17504e-26
5.99637e-27
9.19311e-26
9.89813e-26
1.4035e-25
2.62541e-25
2.06426e-26
-1.48741e-26
2.83059e-26
6.3799e-26
4.26047e-25
-2.85743e-25
5.67411e-26
-3.96846e-26
-1.70516e-26
-3.15524e-26
-2.87581e-25
-6.90097e-26
3.31544e-25
2.97542e-26
2.93446e-25
-3.95742e-26
-2.33281e-25
4.15709e-25
-1.51383e-25
-2.64351e-25
8.36418e-26
5.09072e-26
-1.04775e-25
-8.59348e-26
8.52766e-26
2.83109e-25
-2.08248e-27
-1.44503e-25
-6.93777e-26
2.13899e-25
-8.41642e-26
-5.62689e-26
1.08855e-25
2.6396e-25
-2.63442e-25
1.7722e-25
5.98848e-27
1.2631e-26
-1.53914e-26
-4.39589e-27
1.98013e-26
4.15145e-27
8.18378e-28
1.16861e-25
4.39336e-26
3.35007e-26
2.32499e-26
-1.75579e-27
1.75715e-27
9.06294e-26
-2.80365e-26
-6.26031e-26
-6.78548e-26
-1.44477e-25
-3.31101e-25
1.77114e-25
1.14025e-25
-1.83063e-25
-3.9973e-26
5.46945e-26
-9.7759e-26
-1.21029e-25
9.77861e-26
-9.38016e-27
-2.83001e-25
6.27715e-27
-4.00567e-27
-2.26631e-27
2.8537e-25
-2.25798e-27
2.72837e-25
1.53212e-25
-1.17965e-25
1.87864e-25
-1.21227e-25
3.55082e-25
-2.33878e-25
6.43828e-26
2.37032e-25
-3.01429e-25
7.78989e-27
1.28786e-26
6.01242e-27
2.69536e-28
2.41476e-25
1.17124e-25
-3.58639e-25
6.58277e-26
-7.76633e-26
1.18402e-26
1.14163e-25
-1.14185e-25
-1.69299e-25
3.03273e-25
-2.28816e-25
5.95558e-26
2.02989e-27
-5.20751e-26
-8.9015e-26
1.41078e-25
-2.28659e-25
-9.20876e-26
3.20741e-25
1.36795e-25
1.0265e-25
-1.02609e-25
-1.5245e-25
1.52463e-25
-1.64505e-25
3.20589e-25
-1.56089e-25
8.2753e-26
2.57312e-26
-4.44806e-27
8.34403e-26
7.21343e-27
-7.0063e-27
-2.25868e-25
2.32846e-25
1.97314e-25
8.50063e-27
-2.058e-25
3.93074e-27
1.17134e-25
-2.81647e-25
7.70315e-27
2.43132e-25
-2.50814e-25
1.08437e-26
-9.37874e-27
-1.46666e-27
-2.79669e-25
-4.03154e-27
2.54619e-25
-2.50595e-25
-1.49228e-27
7.46898e-28
3.46402e-26
2.36227e-26
-3.1123e-25
-3.7407e-27
2.89063e-25
-2.00934e-25
2.65331e-25
3.06101e-27
4.11876e-27
-7.17579e-27
-2.03432e-25
7.91637e-28
-7.86585e-28
-4.08454e-26
3.34327e-25
4.83423e-26
1.04777e-25
8.27562e-26
-1.04646e-26
-1.03706e-25
1.46057e-25
1.85474e-25
3.03372e-25
2.83647e-25
-3.50544e-25
6.6891e-26
4.70693e-27
-1.64762e-27
-1.23462e-26
-4.20191e-27
1.2972e-25
1.85001e-25
-3.14731e-25
-4.02671e-27
2.01333e-25
-7.02072e-28
1.49168e-27
-1.27129e-26
2.19184e-25
-1.72818e-25
2.03601e-26
5.99545e-26
1.97786e-26
3.5303e-27
-7.01968e-26
-2.58206e-25
2.80489e-25
-2.22788e-26
-4.24238e-26
-1.86201e-25
2.56938e-25
-1.80634e-25
-7.62735e-26
2.45163e-25
5.35357e-26
-2.92102e-25
1.06182e-27
2.91045e-25
-3.00818e-25
4.25927e-26
4.16152e-27
6.67632e-27
-7.25359e-26
7.25241e-26
-2.64562e-25
-2.7561e-26
-2.00314e-27
2.66729e-25
-2.64713e-25
-4.36333e-27
-2.36296e-25
-2.12958e-25
-1.37593e-25
-2.07693e-25
2.0877e-25
-3.23393e-27
7.80334e-26
-7.47958e-26
-5.5614e-26
-2.1094e-25
2.65156e-27
4.50346e-26
-4.76867e-26
-8.52644e-26
-3.12594e-27
-2.61242e-25
-2.99985e-26
-1.56245e-25
1.86238e-25
2.04128e-28
-1.57446e-27
1.3675e-27
2.67156e-25
-2.13617e-25
-3.26704e-25
-8.85732e-27
3.35524e-25
9.40742e-26
-9.40508e-26
1.13997e-25
1.25102e-26
6.00121e-26
3.2536e-26
2.98415e-25
-3.30963e-25
-2.60544e-27
8.60321e-27
-1.22291e-25
2.14189e-25
1.17251e-27
2.84786e-27
-4.021e-27
-8.9037e-26
2.94616e-26
-3.56128e-25
-2.53506e-25
7.80386e-26
-2.56087e-25
2.47292e-25
-2.57903e-26
2.57874e-26
2.37217e-25
-2.31136e-26
-2.1344e-25
2.45984e-25
-1.55961e-28
1.31222e-27
2.42539e-26
-2.56647e-26
1.40464e-27
-2.43664e-26
-2.31669e-25
8.59351e-26
-9.02814e-26
9.78976e-26
-9.99162e-26
-8.61087e-27
6.72866e-26
-5.86736e-26
4.91456e-27
-2.18345e-25
8.86467e-27
-1.11328e-26
1.15661e-26
-2.6989e-27
3.06884e-25
-1.30253e-25
1.05908e-25
-1.50067e-26
-6.41666e-27
2.1402e-26
-8.48723e-26
8.97874e-26
-5.44326e-26
2.59598e-25
-2.05197e-25
-1.93917e-25
2.19652e-25
1.36001e-26
9.69037e-27
2.5705e-25
2.20431e-28
-1.83011e-25
1.2436e-25
1.32591e-25
3.0633e-25
1.56773e-26
-3.21999e-25
-2.03749e-26
5.36953e-27
-3.04844e-25
-1.54565e-26
3.20303e-25
2.57244e-25
-9.93223e-27
2.40252e-25
5.71018e-27
8.23388e-26
-1.39203e-26
-9.90798e-27
2.38283e-26
-1.28525e-27
4.04619e-27
-2.76167e-27
1.55636e-27
-4.15995e-27
2.5142e-25
-2.55884e-25
4.4726e-27
2.4757e-25
-2.41806e-25
-5.75978e-27
-1.66888e-28
4.20893e-27
-3.06431e-26
-7.19756e-26
1.03587e-26
1.5367e-26
-1.80694e-26
1.12848e-26
-1.3329e-26
2.11208e-25
1.10466e-26
-1.67251e-25
3.44388e-25
1.63617e-26
-2.80906e-25
3.18639e-28
1.50519e-26
-1.94559e-25
2.78024e-26
-8.03204e-27
-4.75768e-26
5.86398e-26
2.79451e-25
-2.01955e-25
-1.63879e-26
-1.77191e-25
1.89695e-25
9.60274e-26
-1.05941e-25
9.54635e-26
-8.97849e-26
1.77681e-25
-2.15562e-26
-3.69099e-27
2.52471e-26
-2.03662e-26
-3.06698e-26
6.73253e-26
-5.2437e-26
-1.9701e-25
-1.30275e-25
9.6004e-26
9.54784e-26
2.6757e-27
-1.20093e-26
1.68959e-25
-1.56941e-25
-8.48642e-26
-3.14684e-26
-6.82318e-27
-4.1491e-27
-7.48065e-26
-5.40609e-27
4.00275e-26
9.7887e-26
6.25549e-27
3.52141e-26
-4.14739e-26
2.41565e-26
2.53954e-26
2.5511e-25
3.51461e-26
2.86381e-26
1.47579e-26
-4.79417e-26
3.31825e-26
1.97751e-26
2.45107e-25
-2.97573e-25
5.43132e-27
-3.31046e-25
3.28817e-25
4.795e-26
-6.00002e-26
4.02648e-27
8.39999e-27
1.16308e-25
4.19664e-26
-1.29563e-25
3.31744e-26
2.79829e-25
3.93783e-26
-3.27439e-26
2.90503e-26
1.9263e-26
-9.37347e-27
-2.33711e-26
2.7321e-26
-2.10629e-26
-4.75663e-26
9.99147e-26
3.52611e-26
7.96377e-27
-4.32301e-26
9.02751e-26
2.58467e-26
1.94856e-26
9.56315e-27
1.5937e-26
8.22033e-27
1.18972e-26
-7.47855e-27
1.6635e-26
-1.66334e-26
2.44109e-26
-2.12263e-25
-2.55486e-25
5.6075e-27
-3.12599e-26
-1.19184e-26
1.19218e-26
-8.40349e-27
-5.37949e-26
-2.19798e-26
2.3098e-26
-1.11899e-27
2.19741e-26
-1.00647e-26
3.75317e-26
2.44055e-26
-2.6606e-25
-5.21051e-26
4.57036e-26
1.20734e-26
-2.14415e-26
9.36768e-27
2.39562e-26
3.27314e-26
4.40814e-27
2.30764e-26
-2.74887e-26
-4.94716e-27
9.34266e-27
-1.29705e-25
1.13984e-26
-3.28559e-26
3.82903e-26
-1.88094e-26
2.43429e-26
-1.43911e-26
-3.18307e-26
2.0203e-25
3.35152e-26
1.08573e-26
2.96985e-26
-4.05643e-26
-7.71209e-27
2.71487e-26
6.36896e-27
2.90756e-25
-4.39977e-27
3.15385e-26
-7.0056e-27
3.3849e-25
-3.38064e-26
4.01586e-26
-2.19897e-26
-1.35741e-26
2.95042e-26
4.46875e-27
4.66742e-26
-1.63243e-27
-3.34661e-26
1.46508e-26
5.41817e-26
-3.11282e-26
-1.26644e-26
1.2948e-25
-2.88486e-25
1.58995e-25
7.03271e-26
-7.03318e-26
-6.46441e-26
6.46387e-26
-7.65069e-26
7.65144e-26
7.65446e-26
-7.65477e-26
8.3617e-26
-8.4165e-26
-1.77147e-26
-4.08558e-26
5.85588e-26
1.08857e-25
-4.37622e-26
3.11e-26
-1.06772e-25
1.06787e-25
-1.03725e-25
-1.03066e-25
1.03095e-25
-2.28063e-26
1.65585e-25
-1.4278e-25
5.47231e-26
-1.04327e-26
-8.80871e-26
9.852e-26
-6.61256e-26
6.61292e-26
-4.30677e-26
2.65359e-25
-2.22283e-25
-1.10896e-25
-3.05015e-25
5.68564e-27
-1.21007e-25
-1.16099e-25
2.33247e-25
9.02011e-26
-1.75559e-25
3.17492e-25
1.16809e-25
-1.4714e-26
-6.05897e-27
1.19249e-26
1.71076e-25
2.59347e-26
-4.17955e-26
-1.74131e-25
2.15929e-25
1.23761e-25
-2.17267e-25
-1.31512e-26
-1.49494e-27
7.46635e-28
-1.03709e-25
-1.8477e-25
1.61614e-25
-2.33335e-25
-4.077e-25
1.39861e-25
-6.41232e-26
-1.57968e-25
2.22088e-25
-2.76517e-26
-3.84816e-26
-1.86193e-27
4.03444e-26
-2.48917e-25
-2.31972e-26
2.32092e-26
-3.42273e-27
-5.84396e-27
1.04831e-25
-1.00831e-28
-6.8738e-28
8.36843e-27
-2.30713e-25
-2.61486e-25
2.40553e-25
-2.14613e-25
9.7934e-26
-2.59588e-25
8.4016e-26
3.01363e-25
1.97376e-25
9.22747e-26
-4.51809e-26
-1.80705e-25
7.5357e-26
1.67791e-25
-1.30834e-25
-2.27791e-25
1.4059e-26
7.62259e-26
-2.56859e-25
-2.22292e-25
1.99707e-25
2.63671e-25
2.41738e-25
-2.86819e-25
4.50683e-26
-8.15025e-26
-2.69226e-26
-5.56004e-26
-6.99858e-27
-8.15174e-26
-5.58262e-26
-3.54878e-25
-3.18563e-26
3.86733e-25
2.08594e-26
9.08722e-26
1.23038e-25
3.46249e-29
7.1325e-28
-7.44735e-26
7.44718e-26
2.47175e-25
5.61963e-26
1.16719e-25
1.79102e-25
-2.23941e-25
-2.714e-25
4.06907e-26
1.8321e-26
6.9873e-27
3.70988e-26
-4.71401e-26
1.00451e-26
-1.64283e-26
1.21585e-26
-1.54945e-25
3.59838e-26
-2.68196e-25
2.36335e-25
-1.11579e-26
-1.17489e-26
2.14745e-25
-1.04071e-28
-1.11534e-25
3.06702e-29
-1.98334e-25
3.59142e-26
-1.26614e-26
3.41822e-26
-1.29302e-25
2.88242e-25
4.29349e-26
-2.17704e-25
-9.70049e-26
-1.14326e-25
-8.67444e-26
-2.29325e-27
1.64339e-25
4.98584e-26
-1.53694e-26
-2.74333e-26
7.16027e-26
8.37679e-27
7.07143e-26
4.3288e-26
2.05069e-25
2.89169e-25
1.17113e-26
-5.0199e-26
6.00878e-27
-8.67283e-26
-2.6446e-27
4.02871e-27
-3.86997e-26
-2.15361e-27
2.04527e-25
1.29775e-25
-2.306e-25
7.07159e-26
9.08983e-26
4.88819e-26
3.17098e-25
2.9653e-26
5.97042e-27
-1.78848e-25
-7.37569e-29
7.577e-29
-2.32198e-27
2.72626e-25
8.21889e-29
-8.3041e-29
2.30629e-25
-1.36435e-27
-6.53283e-28
2.36112e-25
-6.7653e-29
7.61322e-29
2.72977e-25
-6.84503e-26
-1.94224e-25
3.29632e-26
-2.57684e-25
2.19023e-27
1.84481e-27
1.74569e-25
-1.80628e-25
-1.31385e-28
-1.77537e-26
-2.93935e-26
3.23447e-26
-1.94736e-26
1.52385e-28
-1.51721e-27
2.379e-27
-1.60952e-25
1.59456e-25
3.22969e-26
2.49281e-26
1.28028e-26
-2.7624e-25
-1.0218e-25
2.88692e-26
2.0756e-26
2.34051e-25
2.96961e-28
-2.55386e-28
8.56734e-26
-1.28643e-25
-3.12412e-26
-3.02209e-25
-3.47394e-26
-1.94547e-25
-9.024e-27
1.50656e-25
-1.4771e-25
5.32029e-27
1.68409e-28
-1.07416e-28
2.8869e-26
-9.78392e-26
-5.94053e-26
-3.06249e-26
)
;

boundaryField
{
    front
    {
        type            empty;
        value           nonuniform List<scalar> 0();
    }
    back
    {
        type            empty;
        value           nonuniform List<scalar> 0();
    }
    bottom
    {
        type            calculated;
        value           nonuniform List<scalar> 
12
(
-1.08494e-25
-2.9871e-25
2.4948e-25
-2.49547e-25
1.4432e-25
3.31808e-26
-3.31685e-26
2.51645e-25
2.98953e-25
-2.5112e-25
-1.44076e-25
1.08454e-25
)
;
    }
    left
    {
        type            calculated;
        value           uniform 0;
    }
    top
    {
        type            calculated;
        value           uniform 0;
    }
    right
    {
        type            calculated;
        value           uniform 0;
    }
    inner_arc
    {
        type            calculated;
        value           uniform 0;
    }
}


// ************************************************************************* //
