/*--------------------------------*- C++ -*----------------------------------*\
  =========                 |
  \\      /  F ield         | OpenFOAM: The Open Source CFD Toolbox
   \\    /   O peration     | Website:  https://openfoam.org
    \\  /    A nd           | Version:  9
     \\/     M anipulation  |
\*---------------------------------------------------------------------------*/
FoamFile
{
    format      ascii;
    class       volScalarField;
    location    "0.8";
    object      p;
}
// * * * * * * * * * * * * * * * * * * * * * * * * * * * * * * * * * * * * * //

dimensions      [0 2 -2 0 0 0 0];

internalField   nonuniform List<scalar> 
578
(
-1.1491e-14
-2.81975e-14
-8.66789e-15
1.88594e-15
-2.81678e-14
1.8206e-14
2.44668e-14
-2.34631e-14
-2.04127e-14
-4.27286e-14
9.87934e-15
-2.34771e-14
8.03022e-16
-2.67997e-14
2.28435e-14
-1.54854e-15
-1.36326e-14
-1.25697e-14
-1.84589e-14
-1.40874e-14
2.05083e-15
3.27395e-17
5.31981e-15
7.91404e-15
7.66328e-15
-1.72849e-14
-6.54517e-16
-2.58755e-15
-1.99761e-14
-8.32924e-16
-1.21076e-15
2.04209e-14
-9.49535e-15
2.81128e-15
2.04076e-14
-1.02766e-14
-2.40767e-14
-2.23511e-14
-1.16705e-15
-3.25623e-14
-2.58606e-14
-2.07784e-14
-2.57334e-14
2.4047e-14
-7.61871e-15
3.01021e-14
2.27364e-14
-2.20489e-14
-1.36918e-15
-1.17299e-15
2.77361e-14
7.59613e-16
2.55985e-14
2.58366e-15
3.4234e-16
-1.05071e-14
4.95321e-15
2.86947e-15
-6.82885e-15
-1.51347e-14
-1.32908e-14
-1.86951e-14
-1.8439e-14
-2.95375e-14
1.7884e-16
2.21614e-14
-5.98624e-15
1.30059e-14
7.47493e-15
-1.6901e-14
3.63139e-15
1.96635e-14
2.80447e-16
-1.98314e-14
9.71349e-15
-3.1329e-14
-2.54311e-14
-2.10777e-14
3.76462e-16
1.67717e-14
2.15878e-14
-2.18607e-14
3.21999e-14
2.96259e-14
4.53978e-15
1.65284e-14
3.20065e-14
-6.79393e-15
-1.91521e-14
1.54937e-14
-5.84679e-16
1.06533e-14
1.94995e-14
1.22466e-15
9.72298e-15
1.84953e-14
2.53401e-16
3.34158e-16
-4.00852e-14
2.26971e-14
2.14014e-14
-1.91089e-14
-5.76874e-16
1.34861e-14
-1.19819e-16
-2.70147e-14
1.07384e-14
-3.17044e-14
1.97185e-14
-2.81087e-14
-9.55855e-15
-1.80749e-14
-1.54725e-14
1.43526e-14
1.59573e-14
-2.44943e-16
1.59356e-15
-1.39832e-14
1.51096e-14
8.5497e-17
-1.52748e-14
4.13259e-14
-2.12199e-14
1.6287e-15
2.43843e-14
1.02647e-14
1.80461e-14
-1.42607e-15
1.86937e-14
2.74068e-15
1.91063e-14
9.10764e-15
1.27698e-15
-1.66758e-14
1.70473e-14
1.78545e-14
-2.76094e-14
-2.01014e-16
9.44092e-15
1.92474e-14
2.0889e-14
5.76335e-15
1.85686e-14
-5.57129e-15
-1.91213e-14
6.36192e-15
7.10777e-15
-1.7486e-15
-2.1281e-14
-7.71669e-17
-2.3372e-14
8.33192e-15
-2.75121e-14
-1.53654e-14
2.22317e-14
-1.15505e-15
-1.52298e-14
1.52285e-15
2.4491e-14
-2.37029e-14
-2.47847e-14
-2.41643e-14
2.20853e-14
-2.27811e-14
-9.98859e-15
6.1523e-15
-6.34173e-15
2.25158e-14
2.20548e-15
2.1435e-16
-2.08824e-14
-2.83375e-14
1.83577e-14
1.40216e-14
2.19137e-14
-3.64339e-17
4.07913e-16
-1.30649e-14
-2.26962e-14
-1.67906e-14
2.41294e-14
-2.24367e-14
1.32258e-14
4.17043e-16
1.87222e-14
-1.27013e-15
-2.00301e-15
2.48975e-14
2.20065e-14
-2.44677e-14
-2.51857e-14
-2.44589e-14
7.93791e-15
2.21165e-14
-3.36397e-14
5.13244e-16
3.21692e-15
-2.34617e-15
2.12344e-14
-2.52153e-14
1.80511e-15
7.26023e-16
4.44172e-14
-1.97085e-16
1.83841e-16
-2.56728e-14
2.05964e-14
-1.73164e-15
-2.43985e-14
3.0015e-15
3.86903e-15
2.05752e-14
1.62414e-14
6.69836e-16
1.67609e-14
1.32628e-15
2.19252e-14
-2.50085e-14
2.1982e-14
8.70883e-15
-2.47963e-14
2.1758e-14
-1.107e-14
-2.52636e-14
2.41944e-14
1.02027e-14
7.39252e-16
2.58077e-15
-1.87941e-15
-1.88653e-14
-3.82465e-14
4.24765e-14
1.57953e-14
-9.99386e-15
9.77384e-15
-1.89514e-14
-2.59e-14
2.32067e-14
1.01921e-15
-4.13126e-15
2.33791e-14
-2.84788e-14
2.35806e-16
2.35609e-14
-2.22153e-15
-1.92599e-14
1.94035e-14
-3.71823e-14
1.56824e-14
1.07297e-15
5.45169e-16
1.37532e-14
2.32238e-14
2.84594e-15
2.10963e-14
-6.04792e-15
-1.44186e-14
2.08924e-14
-2.13639e-14
3.80806e-14
-9.3068e-15
2.41645e-14
3.25105e-15
3.66033e-15
-2.22528e-14
-1.33329e-14
6.7531e-15
-4.71296e-15
-3.02051e-14
8.09877e-15
-8.20493e-15
8.02489e-15
3.59575e-15
5.97707e-16
9.0667e-16
1.10064e-15
-1.47747e-16
4.35883e-15
2.25083e-14
1.98542e-15
-2.66599e-14
4.93168e-16
6.42385e-16
7.82775e-16
1.15938e-15
1.83481e-14
-1.14964e-14
1.07233e-14
4.28165e-15
3.16188e-15
3.25257e-15
1.30266e-14
-3.71068e-16
2.03562e-14
2.91167e-15
3.43909e-15
-2.65289e-14
-2.84986e-15
-8.49243e-16
2.77836e-15
1.36828e-15
-3.42644e-15
5.81561e-16
-3.34911e-15
3.40539e-15
1.19114e-15
-4.90263e-17
-1.32506e-14
1.6235e-15
1.26546e-15
-7.31633e-15
-8.07198e-16
1.0563e-15
-3.84548e-15
2.65896e-15
7.23474e-16
1.19384e-14
-3.11121e-15
-6.89734e-15
2.64057e-15
1.25473e-14
5.99635e-16
6.42965e-16
5.47554e-15
2.05544e-16
-2.54839e-16
2.04242e-14
2.1601e-14
-2.49923e-14
-5.53786e-16
-5.97926e-17
1.77728e-14
4.16195e-16
-5.57488e-17
1.52657e-14
3.89026e-15
1.13446e-15
1.66068e-16
-7.27467e-15
-3.55267e-16
7.27804e-16
7.62724e-16
-9.46663e-16
-1.04815e-14
2.28525e-15
2.03402e-14
1.14072e-14
1.76421e-14
-1.95334e-14
2.03316e-14
-2.17998e-14
-2.41961e-14
2.16668e-14
-6.68726e-15
-3.05323e-14
2.81696e-14
4.04376e-15
2.67903e-14
-3.19155e-14
2.84111e-14
1.54258e-16
-1.01479e-14
2.87844e-15
-1.54352e-14
9.00105e-16
1.23759e-15
-1.25401e-15
1.80285e-14
9.92706e-16
-2.49337e-15
-2.28589e-14
-2.02256e-14
7.6838e-15
1.21261e-14
7.80033e-15
3.03373e-14
-5.13357e-16
1.99891e-14
-2.28789e-14
-5.19338e-15
8.65108e-17
-2.34122e-14
2.18303e-14
4.90072e-15
3.10043e-15
-1.57173e-16
-6.35691e-17
2.68353e-14
2.5073e-14
-1.78864e-14
5.92989e-16
4.61394e-15
5.55711e-15
-6.36072e-15
-2.87512e-15
2.17069e-15
1.91406e-14
-3.01982e-15
3.54077e-15
8.01055e-15
-7.74865e-16
1.66948e-14
-6.71332e-17
-1.39454e-14
-1.96229e-16
-2.88608e-15
1.25753e-14
-6.04382e-15
7.72833e-15
1.40287e-14
-1.8725e-15
-1.88283e-14
-9.25279e-15
1.14576e-14
-6.8646e-15
8.96477e-15
-2.04192e-14
1.76577e-14
-2.65861e-14
-9.73493e-16
1.96994e-14
1.23532e-14
-2.17577e-14
2.35977e-14
1.52966e-14
-1.02892e-14
-1.61364e-14
-1.43683e-14
-2.01073e-14
-9.63487e-15
1.40035e-14
5.06352e-15
4.06494e-15
6.34263e-16
1.35434e-14
-1.34271e-14
-2.32846e-14
-1.25333e-14
-1.35055e-14
-5.64023e-15
-1.04001e-14
1.4195e-15
1.72007e-15
-9.70143e-16
1.74952e-14
-4.18972e-15
-1.57623e-15
1.51908e-14
1.49153e-14
-5.59282e-16
2.02485e-14
-4.82172e-16
1.54351e-14
9.90176e-16
2.00014e-14
6.47174e-16
-2.65968e-14
6.25436e-15
5.76605e-15
-1.54248e-14
3.33642e-14
1.79803e-14
-1.22537e-14
-1.37567e-14
-3.78886e-15
-1.79465e-14
1.37366e-14
-2.66797e-14
-7.72377e-15
-1.29393e-14
-2.71058e-15
-2.9521e-15
1.3249e-14
-1.1189e-15
-4.12142e-15
-2.0888e-14
-1.49982e-14
-1.70701e-14
-9.56932e-15
-1.49865e-14
5.69308e-15
8.17845e-15
-6.92537e-15
-2.24831e-15
-1.00112e-15
-1.21361e-14
-6.2981e-15
-8.86824e-16
-5.53697e-16
1.92456e-14
1.44472e-15
1.39838e-14
-8.08662e-15
1.40154e-15
-3.18605e-16
1.59163e-14
2.47165e-16
1.82082e-14
-7.77779e-16
1.33531e-15
-2.58632e-14
-3.27266e-15
-1.33449e-14
1.30046e-15
-1.30701e-14
-8.27382e-16
1.7856e-14
2.06378e-15
1.23282e-14
-5.60427e-16
-1.04217e-15
2.29627e-14
1.4931e-15
2.93378e-14
2.01065e-14
-6.61943e-16
-2.313e-14
-3.1252e-14
1.5168e-14
1.17909e-15
8.07497e-15
9.76044e-15
-4.98177e-15
-1.81662e-14
-1.9863e-14
9.67568e-16
-3.32897e-15
2.19613e-15
-2.18731e-14
-1.88038e-14
-2.29524e-14
-2.27265e-14
-2.47581e-15
-1.17563e-15
1.96046e-14
1.45075e-14
1.37232e-14
1.69193e-14
1.45835e-14
-1.13151e-15
1.64576e-15
1.87884e-14
-1.26931e-14
-1.72991e-14
2.33373e-14
3.51221e-15
9.54512e-15
-1.32806e-14
-1.16466e-14
-1.60067e-14
1.16151e-14
2.1726e-14
-1.56069e-14
2.01469e-14
1.30423e-14
-7.53397e-15
-2.39648e-14
-2.01141e-15
8.27075e-16
-8.87223e-16
-5.93312e-16
2.16592e-14
-2.08519e-14
-8.78007e-16
1.43677e-15
1.34917e-14
9.39959e-16
-1.18145e-14
-6.02013e-16
1.16715e-15
1.87783e-14
-1.39585e-14
1.33219e-14
-1.83727e-14
-8.03867e-15
9.19256e-15
1.00767e-14
6.93454e-15
)
;

boundaryField
{
    front
    {
        type            empty;
    }
    back
    {
        type            empty;
    }
    bottom
    {
        type            uniformFixedValue;
        uniformValue    
        {
            type            scale;
            scale           
            {
                type            squarePulse;
                start           0.3;
                duration        0.3;
            }
            xScale          
            {
                type            constant;
                value           1;
            }
            value           
            {
                type            constant;
                value           15.1;
            }
        }
        value           uniform 0;
    }
    left
    {
        type            zeroGradient;
    }
    top
    {
        type            zeroGradient;
    }
    right
    {
        type            zeroGradient;
    }
    inner_arc
    {
        type            zeroGradient;
    }
}


// ************************************************************************* //
