/*--------------------------------*- C++ -*----------------------------------*\
  =========                 |
  \\      /  F ield         | OpenFOAM: The Open Source CFD Toolbox
   \\    /   O peration     | Website:  https://openfoam.org
    \\  /    A nd           | Version:  9
     \\/     M anipulation  |
\*---------------------------------------------------------------------------*/
FoamFile
{
    format      ascii;
    class       surfaceScalarField;
    location    "0.8";
    object      phi;
}
// * * * * * * * * * * * * * * * * * * * * * * * * * * * * * * * * * * * * * //

dimensions      [0 3 -1 0 0 0 0];

internalField   nonuniform List<scalar> 
816
(
5.97546e-22
1.97475e-20
-2.03451e-20
-6.89281e-21
2.76369e-20
-2.07441e-20
-3.43727e-20
3.49703e-20
1.7717e-21
-2.40494e-21
6.33238e-22
1.93576e-20
-1.93576e-20
-1.08087e-20
1.34427e-20
-2.63404e-21
-2.02343e-20
2.02343e-20
-1.8169e-20
1.8169e-20
-4.11605e-20
1.22753e-22
4.10378e-20
5.00227e-21
-1.18951e-20
1.02165e-20
-2.10252e-20
4.81718e-20
-3.48797e-20
-1.32921e-20
7.1747e-22
-5.7126e-22
-1.4621e-22
4.65614e-20
-4.21852e-20
-4.37622e-21
-4.59877e-20
4.05898e-20
5.3979e-21
-3.5331e-20
5.81805e-20
-2.28495e-20
-2.20953e-20
-6.26463e-21
2.83599e-20
4.20976e-20
-3.40622e-21
-3.86914e-20
5.64892e-21
4.25229e-20
1.93328e-20
-6.04934e-20
3.38046e-21
-1.60876e-21
4.37296e-21
-3.9704e-20
2.31003e-20
-9.71041e-21
-1.33899e-20
5.9154e-21
2.74688e-21
-8.66228e-21
6.85975e-21
-9.44351e-22
-3.95942e-20
9.68758e-21
2.99066e-20
2.70546e-21
-2.43498e-21
-2.70476e-22
8.30529e-22
-1.70323e-21
8.72703e-22
1.32426e-20
1.43944e-20
2.02591e-20
3.79214e-20
2.99572e-21
-2.16519e-21
4.04996e-21
9.39279e-21
6.15e-20
-4.12408e-20
8.21425e-21
-5.7301e-21
-2.48415e-21
-4.54684e-21
-4.14409e-20
-9.96738e-21
4.78888e-20
4.26955e-21
4.22918e-20
-5.79133e-21
-3.38028e-20
5.98854e-20
-2.18029e-20
-3.80825e-20
1.20319e-20
7.32568e-21
-1.50881e-20
-1.25201e-20
1.23777e-20
4.08709e-20
-2.8108e-22
-2.08291e-20
-9.97288e-21
3.0802e-20
-1.21569e-20
-8.07733e-21
1.56874e-20
3.81028e-20
-3.798e-20
2.55127e-20
8.73893e-22
1.83156e-21
-2.25138e-21
-5.92578e-22
2.84396e-21
6.01855e-22
1.15616e-22
1.68519e-20
6.24839e-21
4.83271e-21
3.38154e-21
-2.51733e-22
2.51733e-22
1.30915e-20
-3.99834e-21
-9.09315e-21
-9.71041e-21
-2.08291e-20
-4.7771e-20
2.56757e-20
1.64375e-20
-2.64048e-20
-5.67337e-21
7.82873e-21
-1.40934e-20
-1.74996e-20
1.40934e-20
-1.36488e-21
-4.08203e-20
9.08651e-22
-5.79995e-22
-3.28656e-22
4.12404e-20
-3.69516e-22
3.93928e-20
2.21072e-20
-1.7051e-20
2.72675e-20
-1.75072e-20
5.12137e-20
-3.37066e-20
9.3162e-21
3.41745e-20
-4.34907e-20
1.12965e-21
1.79858e-21
8.70518e-22
3.81339e-23
3.47707e-20
1.67644e-20
-5.15352e-20
9.61116e-21
-1.12603e-20
1.6491e-21
1.6453e-20
-1.6453e-20
-2.44265e-20
4.37593e-20
-3.30246e-20
8.59809e-21
2.99259e-22
-7.48864e-21
-1.28564e-20
2.03451e-20
-3.3189e-20
-1.3172e-20
4.6361e-20
1.97475e-20
1.4943e-20
-1.4943e-20
-2.20319e-20
2.20319e-20
-2.37492e-20
4.62843e-20
-2.25351e-20
1.1849e-20
3.64231e-21
-5.92579e-22
1.21221e-20
9.69385e-22
-1.0345e-21
-3.23693e-20
3.34038e-20
2.83422e-20
1.22489e-21
-2.95671e-20
5.60738e-22
1.6942e-20
-4.06913e-20
1.13082e-21
3.48642e-20
-3.5995e-20
1.57436e-21
-1.35656e-21
-2.178e-22
-4.03567e-20
-4.31891e-22
3.66962e-20
-3.62643e-20
-2.13599e-22
1.05524e-22
5.00227e-21
3.24878e-21
-4.46897e-20
-5.12233e-22
4.17527e-20
-2.88444e-20
3.81606e-20
4.44922e-22
5.94196e-22
-1.03912e-21
-2.92915e-20
1.12613e-22
-1.12613e-22
-5.75935e-21
4.80512e-20
6.97713e-21
1.50881e-20
1.1849e-20
-1.52374e-21
-1.49292e-20
2.11006e-20
2.67882e-20
4.38621e-20
4.07886e-20
-5.05148e-20
9.72617e-21
6.80979e-22
-2.36056e-22
-1.78893e-21
-6.16006e-22
1.85854e-20
2.67868e-20
-4.53722e-20
-5.50949e-22
2.88931e-20
-1.00985e-22
2.13598e-22
-1.87924e-21
3.17858e-20
-2.50397e-20
3.00778e-21
8.72002e-21
2.87296e-21
5.07504e-22
-1.00967e-20
-3.72776e-20
4.04794e-20
-3.20185e-21
-6.24332e-21
-2.69457e-20
3.6922e-20
-2.59333e-20
-1.09887e-20
3.54718e-20
7.73671e-21
-4.22333e-20
2.42211e-22
4.19911e-20
-4.34568e-20
6.17924e-21
5.98638e-22
9.75723e-22
-1.04985e-20
1.04985e-20
-3.81969e-20
-4.0364e-21
-3.02012e-22
3.8454e-20
-3.81519e-20
-5.849e-22
-3.42948e-20
-3.08278e-20
-1.96869e-20
-3.00716e-20
3.03138e-20
-5.20816e-22
1.1369e-20
-1.08482e-20
-7.98501e-21
-3.05924e-20
3.75302e-22
6.48741e-21
-6.86271e-21
-1.23777e-20
-4.41187e-22
-3.76414e-20
-4.36159e-21
-2.25942e-20
2.69558e-20
3.06887e-23
-2.26872e-22
1.96184e-22
3.86808e-20
-3.09441e-20
-4.71306e-20
-1.24938e-21
4.838e-20
1.36126e-20
-1.36126e-20
1.64375e-20
1.84003e-21
8.65844e-21
4.5489e-21
4.31139e-20
-4.76628e-20
-3.75352e-22
1.24924e-21
-1.77672e-20
3.10097e-20
1.66039e-22
4.1574e-22
-5.81779e-22
-1.28564e-20
4.24123e-21
-5.13719e-20
-3.65791e-20
1.1369e-20
-3.69517e-20
3.57024e-20
-3.70213e-21
3.70213e-21
3.43193e-20
-3.32683e-21
-3.09818e-20
3.55307e-20
-2.34174e-23
1.89457e-22
3.51644e-21
-3.73245e-21
2.16014e-22
-3.52653e-21
-3.34252e-20
1.25201e-20
-1.3105e-20
1.40859e-20
-1.43879e-20
-1.26536e-21
9.72852e-21
-8.46316e-21
6.64484e-22
-3.16463e-20
1.28692e-21
-1.61557e-21
1.67757e-21
-3.90656e-22
4.42611e-20
-1.87991e-20
1.52726e-20
-2.15775e-21
-8.72898e-22
3.03065e-21
-1.23952e-20
1.30597e-20
-7.85247e-21
3.74967e-20
-2.96442e-20
-2.79419e-20
3.15842e-20
1.97683e-21
1.40663e-21
3.70473e-20
3.06883e-23
-2.64048e-20
1.79028e-20
1.90192e-20
4.42601e-20
2.10252e-21
-4.63627e-20
-2.91228e-21
7.54529e-22
-4.40038e-20
-2.11348e-21
4.61173e-20
3.71065e-20
-1.40416e-21
3.47878e-20
7.42921e-22
1.18951e-20
-2.00936e-21
-1.43541e-21
3.44478e-21
-1.89458e-22
5.8783e-22
-3.98373e-22
2.26874e-22
-6.02227e-22
3.63051e-20
-3.68903e-20
5.85284e-22
3.57565e-20
-3.4993e-20
-7.63443e-22
-2.34169e-23
6.20272e-22
-4.52545e-21
-1.04175e-20
1.50708e-21
2.23095e-21
-2.6216e-21
1.46168e-21
-1.84688e-21
3.05546e-20
1.60224e-21
-2.41964e-20
4.9658e-20
2.44672e-21
-4.06436e-20
5.34729e-23
2.17747e-21
-2.81457e-20
4.0191e-21
-1.14615e-21
-6.86092e-21
8.46316e-21
4.03579e-20
-2.92875e-20
-2.35879e-21
-2.56422e-20
2.74822e-20
1.38685e-20
-1.52726e-20
1.38027e-20
-1.30597e-20
2.56904e-20
-3.10855e-21
-5.22135e-22
3.63068e-21
-2.91228e-21
-4.52545e-21
9.72852e-21
-7.51914e-21
-2.83608e-20
-1.87991e-20
1.38685e-20
1.38027e-20
3.84055e-22
-1.75412e-21
2.44574e-20
-2.27032e-20
-1.23953e-20
-4.54396e-21
-1.02627e-21
-6.02227e-22
-1.08482e-20
-7.54531e-22
5.7568e-21
1.40859e-20
9.25455e-22
5.0843e-21
-6.00975e-21
3.49825e-21
3.72007e-21
3.67593e-20
5.11802e-21
4.27476e-21
2.13031e-21
-6.90432e-21
4.77401e-21
2.84396e-21
3.54222e-20
-4.29414e-20
7.89848e-22
-4.78111e-20
4.74416e-20
6.90432e-21
-8.65844e-21
5.87831e-22
1.22107e-21
1.67526e-20
6.14364e-21
-1.87471e-20
4.78576e-21
4.04985e-20
5.71022e-21
-4.71047e-21
4.18833e-21
2.79775e-21
-1.33574e-21
-3.37473e-21
3.96713e-21
-3.04167e-21
-6.86092e-21
1.43879e-20
5.0699e-21
1.17704e-21
-6.24694e-21
1.3105e-20
3.74855e-21
2.77929e-21
1.40905e-21
2.29379e-21
1.20446e-21
1.69517e-21
-1.11964e-21
2.3989e-21
-2.3989e-21
3.52855e-21
-3.07371e-20
-3.69236e-20
7.95409e-22
-4.52786e-21
-1.72857e-21
1.72857e-21
-1.22107e-21
-7.77731e-21
-3.17381e-21
3.32683e-21
-1.53012e-22
3.17381e-21
-1.44524e-21
5.42826e-21
3.52855e-21
-3.85144e-20
-7.48703e-21
6.61414e-21
1.72374e-21
-3.04723e-21
1.32349e-21
3.41891e-21
4.77898e-21
6.66898e-22
3.34368e-21
-4.01058e-21
-7.47088e-22
1.41399e-21
-1.87682e-20
1.67722e-21
-4.72445e-21
5.52162e-21
-2.74234e-21
3.57492e-21
-2.07515e-21
-4.56973e-21
2.92653e-20
4.82796e-21
1.51977e-21
4.30699e-21
-5.82677e-21
-1.11453e-21
3.95655e-21
8.71412e-22
4.18196e-20
-5.76401e-22
4.53295e-21
-1.02138e-21
4.88483e-20
-4.90475e-21
5.77617e-21
-3.20467e-21
-1.98454e-21
4.27832e-21
6.16871e-22
6.69719e-21
-2.09778e-22
-4.83514e-21
2.09281e-21
7.89122e-21
-4.54754e-21
-1.79069e-21
1.85654e-20
-4.15055e-20
2.29402e-20
1.01134e-20
-1.01134e-20
-9.25926e-21
9.25926e-21
-1.10261e-20
1.10261e-20
1.09974e-20
-1.09974e-20
1.20319e-20
-1.21569e-20
-2.6158e-21
-5.87999e-21
8.49579e-21
1.56874e-20
-6.35422e-21
4.56353e-21
-1.54063e-20
1.54063e-20
-1.49292e-20
-1.48941e-20
1.48941e-20
-3.27895e-21
2.39842e-20
-2.07052e-20
7.82873e-21
-1.537e-21
-1.27914e-20
1.43284e-20
-9.45849e-21
9.45849e-21
-6.14781e-21
3.82598e-20
-3.2112e-20
-1.60704e-20
-4.39998e-20
8.1321e-22
-1.74996e-20
-1.66943e-20
3.34587e-20
1.30551e-20
-2.54345e-20
4.58431e-20
1.68519e-20
-2.13591e-21
-9.12702e-22
1.73818e-21
2.45195e-20
3.84042e-21
-6.02706e-21
-2.52131e-20
3.12401e-20
1.79571e-20
-3.13609e-20
-1.88168e-21
-1.99228e-22
1.05524e-22
-1.49503e-20
-2.65552e-20
2.33095e-20
-3.37354e-20
-5.88982e-20
2.02068e-20
-9.2081e-21
-2.26378e-20
3.18459e-20
-3.97723e-21
-5.5674e-21
-2.37935e-22
5.80533e-21
-3.57633e-20
-3.34325e-21
3.34325e-21
-4.99295e-22
-7.78413e-22
1.51728e-20
-1.38653e-23
-9.87466e-23
1.1052e-21
-3.32172e-20
-3.76838e-20
3.46581e-20
-3.08177e-20
1.41892e-20
-3.74987e-20
1.20642e-20
4.35393e-20
2.83824e-20
1.34434e-20
-6.42885e-21
-2.59404e-20
1.07755e-20
2.40887e-20
-1.87836e-20
-3.27515e-20
2.04757e-21
1.09586e-20
-3.68918e-20
-3.20757e-20
2.86783e-20
3.79842e-20
3.4843e-20
-4.13263e-20
6.48337e-21
-1.16482e-20
-3.80183e-21
-8.00904e-21
-1.08412e-21
-1.16482e-20
-8.09839e-21
-5.11912e-20
-4.57152e-21
5.57627e-20
3.06814e-21
1.30711e-20
1.7731e-20
3.27943e-24
1.02244e-22
-1.06643e-20
1.06643e-20
3.56901e-20
8.17197e-21
1.67095e-20
2.57721e-20
-3.21627e-20
-3.92155e-20
5.99831e-21
2.66956e-21
1.01438e-21
5.3421e-21
-6.80695e-21
1.46486e-21
-2.34288e-21
1.67345e-21
-2.23787e-20
5.18908e-21
-3.86325e-20
3.40609e-20
-1.58514e-21
-1.70323e-21
3.10024e-20
-1.38648e-23
-1.60114e-20
3.27955e-24
-2.86436e-20
5.20686e-21
-1.82532e-21
4.97838e-21
-1.8456e-20
4.13962e-20
6.21263e-21
-3.14439e-20
-1.39283e-20
-1.66608e-20
-1.25008e-20
-3.55657e-22
2.36891e-20
7.32062e-21
-2.18969e-21
-3.94825e-21
1.03341e-20
1.1847e-21
1.02011e-20
6.23641e-21
2.96874e-20
4.18338e-20
1.67363e-21
-7.24102e-21
8.72704e-22
-1.25008e-20
-3.85945e-22
5.82128e-22
-5.59556e-21
-2.84433e-22
2.94365e-20
1.86147e-20
-3.31544e-20
1.02011e-20
1.30711e-20
7.05387e-21
4.57195e-20
4.29501e-21
8.63299e-22
-2.56793e-20
-1.07363e-23
1.07363e-23
-3.34802e-22
3.94098e-20
1.1664e-23
-1.1664e-23
3.32276e-20
-1.97723e-22
-8.8331e-23
3.39478e-20
-1.07362e-23
1.16646e-23
3.91804e-20
-9.74393e-21
-2.7869e-20
4.76237e-21
-3.71172e-20
3.17978e-22
2.6415e-22
2.50364e-20
-2.59491e-20
-1.68239e-23
-2.57386e-21
-4.23309e-21
4.65085e-21
-2.85227e-21
2.01366e-23
-2.1786e-22
3.85866e-22
-2.30619e-20
2.28627e-20
4.61429e-21
3.61622e-21
1.85816e-21
-3.98382e-20
-1.48814e-20
4.15156e-21
2.94402e-21
3.37053e-20
4.1425e-23
-3.50808e-23
1.23861e-20
-1.84477e-20
-4.51073e-21
-4.35725e-20
-5.00627e-21
-2.79576e-20
-1.2815e-21
2.17092e-20
-2.14093e-20
7.74968e-22
2.46011e-23
-1.49441e-23
4.12486e-21
-1.40887e-20
-8.60223e-21
-4.41377e-21
)
;

boundaryField
{
    front
    {
        type            empty;
        value           nonuniform List<scalar> 0();
    }
    back
    {
        type            empty;
        value           nonuniform List<scalar> 0();
    }
    bottom
    {
        type            calculated;
        value           nonuniform List<scalar> 
12
(
-1.54914e-20
-4.32085e-20
3.588e-20
-3.59269e-20
2.08775e-20
4.77401e-21
-4.78576e-21
3.64473e-20
4.31995e-20
-3.63724e-20
-2.08433e-20
1.545e-20
)
;
    }
    left
    {
        type            calculated;
        value           uniform 0;
    }
    top
    {
        type            calculated;
        value           uniform 0;
    }
    right
    {
        type            calculated;
        value           uniform 0;
    }
    inner_arc
    {
        type            calculated;
        value           uniform 0;
    }
}


// ************************************************************************* //
