/*--------------------------------*- C++ -*----------------------------------*\
  =========                 |
  \\      /  F ield         | OpenFOAM: The Open Source CFD Toolbox
   \\    /   O peration     | Website:  https://openfoam.org
    \\  /    A nd           | Version:  9
     \\/     M anipulation  |
\*---------------------------------------------------------------------------*/
FoamFile
{
    format      ascii;
    class       volVectorField;
    location    "0.8";
    object      U;
}
// * * * * * * * * * * * * * * * * * * * * * * * * * * * * * * * * * * * * * //

dimensions      [0 1 -1 0 0 0 0];

internalField   nonuniform List<vector> 
578
(
(5.04145e-13 6.20661e-13 0)
(3.97874e-13 4.96213e-13 -1.57449e-30)
(7.77651e-13 9.32979e-13 0)
(-2.5204e-14 -5.70095e-14 1.09796e-31)
(1.4462e-13 -3.09222e-13 0)
(3.27537e-13 -4.56125e-14 -7.48177e-31)
(1.49336e-13 3.1818e-13 -1.38784e-31)
(1.49694e-13 -2.72897e-13 -1.31179e-30)
(7.66497e-13 -1.2518e-12 0)
(2.02263e-13 3.0048e-13 1.95647e-30)
(5.17924e-13 -1.3275e-13 5.17241e-31)
(5.24761e-13 -1.00802e-12 -8.2551e-32)
(-1.64604e-14 -4.78908e-15 0)
(5.44663e-13 -1.11457e-12 1.65577e-30)
(5.48558e-13 1.11423e-12 0)
(9.77303e-13 -1.11622e-12 6.6588e-32)
(7.25079e-13 3.46083e-13 3.88927e-31)
(8.40189e-13 7.64338e-13 -1.2471e-30)
(4.69961e-13 -9.03708e-13 3.97867e-31)
(8.36084e-13 -1.23107e-12 8.69869e-31)
(-4.0752e-14 -8.12862e-14 -1.1305e-31)
(8.16489e-13 -1.02001e-12 2.19056e-31)
(4.48417e-13 -2.02609e-13 -5.28898e-31)
(-1.73183e-15 2.10158e-13 -5.59171e-32)
(-8.4247e-15 1.86551e-13 0)
(4.58625e-13 -9.29013e-13 8.40641e-32)
(-2.24081e-14 5.82997e-14 0)
(-1.05639e-14 5.22595e-14 -6.05266e-33)
(4.7361e-13 3.99452e-13 9.67256e-31)
(9.73132e-13 -1.13567e-12 0)
(-2.1923e-14 8.67076e-14 5.64217e-32)
(2.23461e-13 -4.33514e-14 -1.02487e-31)
(9.80096e-13 -1.16915e-12 7.50229e-32)
(-4.11337e-14 1.9475e-13 -3.85032e-32)
(4.77547e-13 9.8766e-13 -1.25403e-30)
(8.36225e-13 -9.53371e-13 -2.80208e-31)
(4.73967e-13 -9.79929e-13 -1.46455e-30)
(4.37964e-13 -8.4273e-13 0)
(9.32714e-13 1.07932e-12 7.30526e-32)
(2.38732e-13 -5.00345e-13 0)
(2.50287e-13 -5.512e-13 1.40928e-30)
(2.6951e-13 -4.70283e-13 7.17595e-31)
(2.40319e-13 -4.65808e-13 1.63651e-30)
(4.69941e-13 9.64845e-13 -4.39889e-32)
(5.7792e-13 -6.29531e-13 0)
(2.44101e-13 5.13676e-13 5.59618e-32)
(2.53268e-13 5.63064e-13 1.38688e-30)
(6.72601e-13 -1.11413e-12 6.38116e-31)
(9.47124e-13 1.09821e-12 -7.45396e-32)
(-3.02624e-14 5.15099e-14 0)
(3.05149e-14 7.17478e-14 4.33436e-32)
(-1.49056e-14 -7.15673e-15 9.60222e-34)
(5.0382e-13 -2.81464e-13 9.36135e-31)
(-4.90491e-14 1.76584e-13 3.80797e-32)
(-4.23017e-15 -4.53456e-16 0)
(3.02157e-13 -1.37257e-14 -2.69928e-31)
(1.9786e-13 -6.14144e-14 -5.59523e-32)
(3.27684e-13 -3.08529e-13 0)
(9.15265e-13 6.41217e-13 6.5385e-31)
(5.36442e-13 -6.02265e-13 -3.06041e-31)
(9.42317e-13 8.18545e-13 3.66633e-31)
(4.01847e-13 2.01411e-13 6.60423e-31)
(5.11884e-13 4.55242e-13 9.14621e-31)
(4.72536e-13 -9.76937e-13 -7.79216e-31)
(-2.51055e-14 3.48634e-15 1.32298e-32)
(5.84412e-13 1.12612e-12 6.91893e-31)
(9.20033e-13 -1.17985e-12 -5.82066e-31)
(6.43461e-13 -2.46636e-13 0)
(9.84472e-13 -1.0032e-12 6.9872e-32)
(5.54144e-13 -1.16537e-12 -5.44538e-31)
(-2.40579e-14 1.8197e-13 0)
(9.45808e-14 6.96992e-14 -1.24886e-30)
(-2.07809e-14 -4.99834e-16 -3.36872e-32)
(5.74442e-13 -1.17048e-12 -1.44887e-30)
(2.644e-13 5.98022e-14 0)
(1.40553e-13 -2.96176e-13 -7.6858e-31)
(6.82483e-13 -1.0493e-12 -2.029e-30)
(5.45874e-13 -8.36991e-13 1.12498e-30)
(-2.62872e-14 -5.45995e-15 1.92e-32)
(4.67675e-13 5.18225e-13 2.98188e-31)
(7.59063e-13 -7.4662e-13 -1.51372e-30)
(2.59553e-13 3.48124e-13 -2.41352e-30)
(1.83812e-13 -2.63012e-13 -2.50116e-30)
(2.5275e-13 -3.46939e-13 0)
(8.66753e-13 1.16078e-12 2.60391e-31)
(1.76636e-13 4.34171e-13 -1.45116e-30)
(3.04167e-14 1.7944e-14 0)
(4.25149e-13 2.22078e-14 -6.1935e-32)
(3.86104e-13 -8.19699e-13 1.18867e-30)
(3.97406e-13 9.0593e-13 6.53603e-33)
(-3.40574e-14 7.97646e-14 -5.38589e-32)
(7.1969e-13 1.02019e-12 2.34483e-33)
(3.85871e-13 8.32683e-13 1.06994e-30)
(-3.08639e-14 -1.95274e-14 3.04722e-32)
(1.0186e-12 -1.07827e-12 -7.75688e-32)
(8.4111e-13 -9.63851e-13 0)
(-9.34981e-15 3.99215e-18 9.99952e-33)
(-7.06127e-15 -1.57562e-15 0)
(8.47949e-14 1.00759e-13 4.81782e-31)
(5.54471e-13 1.12774e-12 -1.25587e-30)
(5.22529e-13 9.79489e-13 -7.8167e-32)
(5.10313e-13 -1.11204e-12 -6.07384e-31)
(-2.47434e-14 1.38516e-14 0)
(7.31012e-13 8.08478e-13 0)
(-2.07783e-15 8.74977e-16 -3.89347e-33)
(5.51898e-13 -1.13016e-12 -1.44553e-30)
(2.36524e-13 6.2592e-14 0)
(2.51947e-13 -5.3584e-13 -9.24433e-31)
(8.22384e-14 2.24773e-13 9.00618e-31)
(2.76e-13 -5.56362e-13 1.81326e-30)
(8.14121e-13 -1.02289e-12 -3.60699e-31)
(5.27771e-13 -1.11436e-12 -4.30677e-31)
(9.07837e-13 -1.2125e-12 -5.84674e-32)
(9.84636e-13 -8.82962e-13 1.12198e-31)
(9.73244e-13 -1.01224e-12 -1.11546e-31)
(-1.58776e-14 7.36009e-15 -1.39175e-32)
(-2.85285e-14 -4.79428e-14 0)
(9.60373e-13 8.50025e-13 2.5116e-31)
(3.40681e-13 7.56888e-13 0)
(-6.92383e-15 1.49294e-15 4.97484e-33)
(3.66946e-13 -7.39737e-13 1.09922e-30)
(4.2058e-13 -5.77424e-13 0)
(5.30813e-13 -1.0467e-12 1.48283e-31)
(-2.8452e-14 -9.17719e-14 1.0762e-31)
(3.83551e-13 -5.03256e-13 0)
(4.47419e-13 1.10644e-12 3.20896e-31)
(6.18083e-13 -6.13403e-13 1.55743e-30)
(9.0463e-13 -1.00703e-12 -8.20949e-32)
(5.74798e-13 1.17087e-12 -1.17541e-30)
(4.03039e-13 1.13206e-12 0)
(5.59756e-13 1.11721e-12 1.40948e-30)
(4.47839e-13 1.14205e-12 0)
(-3.02175e-14 -2.83545e-14 5.15669e-32)
(9.08872e-14 -1.83394e-13 -8.55992e-31)
(5.57645e-13 1.15512e-12 -1.27024e-30)
(5.14302e-13 9.0951e-13 0)
(4.4734e-13 -8.25945e-13 1.75171e-30)
(-1.56225e-14 4.03302e-15 1.36309e-32)
(9.89557e-13 -7.91536e-13 -3.14607e-33)
(4.70075e-13 9.06799e-13 -1.17685e-30)
(2.11639e-13 3.92796e-13 0)
(4.03465e-13 1.11489e-12 0)
(3.92573e-13 7.50702e-13 0)
(-5.58874e-15 -1.94115e-13 0)
(1.97916e-13 -3.891e-13 1.07558e-30)
(9.54045e-13 1.17666e-12 0)
(3.33563e-13 7.59427e-13 7.2868e-31)
(-2.73424e-15 4.69831e-15 -1.13422e-31)
(5.76016e-13 -1.16298e-12 0)
(3.86151e-13 1.04894e-12 0)
(6.57973e-13 -1.23823e-12 0)
(1.90306e-13 2.77316e-13 -8.06646e-32)
(2.20505e-13 -2.36523e-13 1.55679e-30)
(1.67788e-13 -3.39538e-13 7.78887e-31)
(6.03911e-13 1.18771e-12 -3.86668e-32)
(-1.5638e-14 3.04809e-14 -6.57134e-32)
(7.1999e-13 4.73253e-13 -1.0895e-30)
(-8.27503e-15 -1.14524e-14 8.20132e-32)
(1.82736e-13 1.96602e-13 5.09406e-31)
(6.82174e-13 -1.25658e-12 0)
(5.83548e-13 -1.12795e-12 0)
(5.24015e-13 -9.77957e-13 0)
(1.10146e-13 2.04736e-13 0)
(5.82684e-13 -1.06118e-12 2.10319e-32)
(1.2723e-15 -7.68455e-14 0)
(4.05332e-13 9.91057e-13 -4.03794e-31)
(-5.90857e-15 -1.30586e-13 0)
(5.17876e-13 9.9278e-13 -1.07984e-32)
(-2.59121e-15 -4.12913e-15 0)
(-6.86143e-14 6.10271e-14 0)
(5.42782e-13 -9.29796e-13 1.31165e-30)
(2.44283e-13 -4.44881e-13 0)
(2.83921e-13 4.9532e-13 0)
(1.65105e-13 3.28889e-13 -1.41565e-32)
(4.36087e-13 8.21504e-13 0)
(-3.85751e-14 7.07703e-15 0)
(-4.98075e-14 7.46746e-16 -2.52158e-32)
(9.89129e-13 6.98562e-13 -7.7981e-32)
(3.13061e-13 -5.41446e-13 -1.23728e-30)
(8.98469e-14 -7.27267e-14 0)
(2.42045e-13 4.44958e-13 1.14125e-32)
(6.11798e-13 8.1142e-13 1.6524e-30)
(2.93444e-13 8.04613e-13 0)
(-4.0535e-14 -8.20968e-15 5.43931e-32)
(6.21774e-13 1.05464e-12 0)
(-9.90833e-16 2.72588e-16 5.48844e-32)
(3.30281e-13 -4.08191e-13 9.34187e-32)
(5.76699e-13 1.18104e-12 1.23111e-30)
(6.27024e-13 1.21733e-12 0)
(3.04858e-14 -7.19964e-14 0)
(6.24189e-13 -1.21533e-12 0)
(4.91372e-13 -9.04964e-13 1.52277e-30)
(5.33385e-13 -7.11253e-13 -2.35807e-31)
(4.63109e-13 8.68048e-13 1.05924e-32)
(3.59446e-13 5.23879e-13 1.57584e-30)
(-9.45241e-14 1.7182e-14 -1.3423e-32)
(-5.38302e-15 -1.45317e-14 -1.79175e-31)
(-5.49655e-15 1.51434e-14 -1.42105e-31)
(4.85845e-13 8.97821e-13 0)
(4.66289e-13 -8.69325e-13 0)
(-9.87883e-16 -2.88633e-16 0)
(-4.38087e-14 -1.85383e-14 -3.16575e-32)
(2.3128e-13 -3.17653e-13 2.25971e-30)
(-7.9725e-14 3.44459e-14 1.9287e-32)
(-6.52118e-14 3.37412e-15 5.89912e-33)
(5.32882e-13 -1.00179e-12 -3.15725e-30)
(5.76329e-13 1.06308e-12 0)
(4.78129e-13 6.23316e-13 3.0585e-32)
(6.33544e-13 -1.2463e-12 0)
(2.94545e-13 3.43051e-13 -3.91462e-31)
(2.56724e-13 5.78117e-13 -3.33984e-31)
(6.36998e-13 1.24723e-12 0)
(5.21583e-13 1.08527e-12 0)
(-7.39528e-14 -1.31021e-14 -2.37315e-32)
(4.39381e-13 8.7715e-13 0)
(-3.9701e-14 -1.20031e-13 -9.17141e-32)
(5.46475e-13 1.03632e-12 0)
(5.48171e-13 -1.03744e-12 -5.90891e-33)
(6.18955e-13 1.22781e-12 1.3939e-30)
(1.33526e-13 2.81822e-13 0)
(6.15723e-13 -1.22346e-12 1.66149e-30)
(4.93021e-13 9.44859e-13 1.29269e-30)
(3.13766e-13 -6.63402e-13 -1.54562e-30)
(2.7128e-13 -5.03234e-13 -1.50047e-30)
(2.55588e-13 4.68974e-13 0)
(3.11262e-13 6.51577e-13 8.25283e-33)
(-1.13088e-13 -6.89045e-15 4.49475e-32)
(-2.17863e-15 -3.52347e-15 0)
(-2.20712e-15 4.01315e-15 8.65434e-32)
(1.13277e-14 -6.28152e-14 7.9195e-31)
(1.54199e-13 2.31703e-13 0)
(8.09408e-14 -9.23774e-14 1.933e-30)
(8.84014e-14 1.74145e-13 1.13046e-32)
(3.46881e-13 -9.55455e-13 0)
(3.48066e-13 9.56095e-13 0)
(1.82823e-13 -2.99546e-13 -7.13042e-31)
(1.35755e-13 -2.50781e-13 -1.26738e-30)
(1.36174e-13 2.49087e-13 -1.12331e-30)
(-1.94573e-14 -1.2157e-14 -6.31056e-32)
(2.57479e-13 -5.8281e-13 0)
(1.20044e-13 2.22812e-13 -1.11492e-30)
(1.2487e-13 -2.11151e-13 -1.3987e-30)
(-1.06085e-13 2.82271e-14 -5.6213e-33)
(2.26307e-13 4.18779e-13 -2.21336e-32)
(-3.49915e-15 1.17101e-14 2.15514e-31)
(1.00538e-13 -2.06414e-13 -1.09111e-30)
(1.02335e-13 1.93585e-13 0)
(8.81541e-14 6.52095e-14 0)
(1.49984e-13 2.47784e-13 0)
(-8.10457e-14 1.33572e-13 2.33476e-32)
(-8.99889e-14 -1.35635e-14 0)
(4.98038e-13 1.14261e-12 1.15347e-32)
(2.22861e-13 -1.51381e-13 1.19802e-30)
(8.94876e-14 -2.38933e-13 0)
(9.60611e-15 6.33495e-14 0)
(3.99754e-13 -1.11421e-12 -2.60548e-31)
(7.91031e-15 -1.23371e-13 -1.03235e-30)
(6.78687e-13 1.26077e-12 -6.60623e-31)
(1.45068e-13 -2.6652e-13 -1.0456e-30)
(8.59016e-14 -6.11629e-14 -2.51662e-30)
(1.33998e-13 -2.84499e-13 4.20948e-31)
(1.27943e-13 2.34851e-13 -9.14189e-33)
(-3.99221e-15 -1.16938e-14 3.17524e-31)
(-9.27043e-15 -3.24313e-14 -4.34395e-31)
(6.39585e-13 7.35125e-13 -2.42925e-30)
(3.95406e-13 -8.49675e-13 6.37526e-31)
(1.89671e-13 -5.2517e-13 0)
(5.17251e-14 -1.20985e-13 -3.39833e-31)
(3.1696e-14 -1.67674e-14 -2.27848e-32)
(2.22331e-14 -1.0943e-13 0)
(2.2552e-14 1.097e-13 0)
(4.53691e-13 1.09336e-12 0)
(2.64972e-13 -6.93186e-13 0)
(-1.17357e-13 4.29588e-16 -2.54345e-32)
(-6.12956e-14 -2.7136e-14 -3.48798e-32)
(-1.10869e-13 6.163e-14 5.94328e-32)
(-6.17028e-14 1.25711e-13 1.45288e-33)
(5.19568e-14 1.20428e-13 -1.4761e-35)
(2.69303e-13 4.91196e-13 0)
(-8.32128e-14 1.41771e-13 1.01416e-31)
(2.55604e-13 -4.71274e-13 1.25352e-32)
(-1.00822e-13 9.32653e-14 -2.35257e-32)
(-1.10812e-13 -5.31936e-14 0)
(-9.21963e-14 -4.26149e-14 2.89107e-32)
(-1.01348e-13 8.02946e-14 3.8652e-32)
(1.91423e-13 3.65936e-13 0)
(7.26585e-14 -1.54277e-13 3.94436e-33)
(7.27458e-14 1.52064e-13 -5.20313e-31)
(-1.66286e-15 5.56429e-14 8.94644e-32)
(-1.13339e-14 1.11699e-13 2.51788e-32)
(3.34226e-13 -9.41845e-13 1.28149e-31)
(5.12504e-13 1.12683e-12 0)
(-7.52413e-14 8.09086e-14 -9.67012e-33)
(1.45519e-13 2.5888e-13 -9.81945e-31)
(-6.09246e-15 -3.6253e-14 7.68089e-32)
(-1.10469e-14 -5.57944e-14 -1.12465e-31)
(1.28531e-13 -2.38112e-13 0)
(3.99533e-13 -1.13178e-12 4.87304e-31)
(-1.30456e-14 -1.17097e-13 -1.2737e-31)
(-1.37092e-14 -8.77253e-14 -2.78538e-32)
(-7.61486e-14 1.58219e-13 -1.03335e-31)
(3.35743e-13 9.39607e-13 0)
(-7.61871e-15 -6.20071e-14 6.331e-33)
(-4.31532e-15 -6.83776e-14 1.04884e-31)
(-5.517e-15 -2.4298e-14 1.65773e-31)
(-8.56546e-15 6.51232e-14 -1.03482e-31)
(3.82825e-13 -1.05102e-12 -1.86008e-31)
(9.31646e-14 -1.3612e-13 0)
(-6.24228e-14 3.89784e-14 -2.15168e-32)
(-9.29889e-14 2.52544e-14 -5.10503e-32)
(3.33357e-13 -7.65999e-13 0)
(8.37596e-14 -7.52795e-14 0)
(3.36188e-14 -1.38605e-14 -5.11176e-32)
(2.65452e-13 6.90002e-13 -2.44332e-36)
(-4.27425e-14 1.16253e-13 -2.11314e-31)
(-1.021e-13 -1.00073e-13 -2.71431e-32)
(4.70093e-13 1.04668e-12 0)
(8.98618e-14 2.38341e-13 1.85235e-35)
(1.90131e-13 5.24242e-13 0)
(-6.07612e-14 1.60937e-13 2.48327e-31)
(3.91631e-13 8.25589e-13 0)
(-1.0115e-13 -5.02212e-14 -1.19239e-32)
(-9.79753e-14 7.07171e-14 1.10173e-32)
(1.94935e-14 1.77981e-13 1.04418e-31)
(-6.64347e-14 2.22029e-14 3.72694e-33)
(-7.72752e-14 -1.15913e-13 1.09869e-32)
(6.57844e-13 1.24076e-12 0)
(4.14301e-13 7.78801e-13 0)
(6.0658e-13 -1.17843e-12 1.5361e-30)
(-4.55105e-14 -1.09936e-13 8.81542e-32)
(-3.80959e-14 1.59578e-14 4.33013e-33)
(7.18408e-13 1.24204e-12 0)
(-3.04582e-14 -2.73085e-14 -1.55593e-33)
(-7.57301e-14 -1.60509e-13 -8.92313e-34)
(3.57522e-13 7.08188e-13 0)
(5.54179e-15 1.25713e-13 4.94555e-32)
(-7.26417e-14 -6.1949e-14 3.31722e-33)
(-8.45386e-14 -1.4421e-13 1.14484e-32)
(1.70426e-14 -2.05558e-13 0)
(-5.87592e-14 9.74569e-14 0)
(-9.72037e-14 -8.82306e-14 0)
(-1.04905e-13 -4.8702e-14 -4.4836e-32)
(1.78554e-13 -5.60105e-14 -1.77574e-31)
(3.47239e-14 -1.74647e-13 2.22803e-32)
(5.80175e-14 6.22031e-14 -4.48956e-32)
(7.443e-13 -9.55697e-13 0)
(1.0137e-12 -4.6827e-13 -3.72519e-31)
(8.74312e-14 1.97114e-13 -3.87148e-31)
(8.57098e-14 -1.89148e-13 4.80096e-31)
(9.72351e-14 2.10061e-13 -4.94062e-31)
(9.96524e-14 -2.125e-13 -8.1121e-31)
(1.06047e-13 -2.12574e-13 0)
(1.08276e-13 2.15043e-13 3.17677e-31)
(1.52181e-13 -1.29825e-13 0)
(1.17945e-13 -2.60831e-13 0)
(1.17614e-13 2.70022e-13 0)
(1.45003e-13 5.99447e-14 -5.02118e-32)
(1.33926e-13 2.81571e-13 -4.96667e-31)
(1.62215e-13 -3.03923e-13 -1.29012e-30)
(1.59412e-13 2.99373e-13 -2.87818e-31)
(6.20751e-13 8.92318e-15 8.39606e-33)
(1.79308e-13 4.18286e-14 0)
(3.59978e-13 1.9074e-15 2.37456e-31)
(7.85899e-14 -1.9733e-13 0)
(2.28347e-13 3.93102e-15 1.50331e-31)
(1.02433e-12 -2.05104e-14 0)
(4.58144e-13 -3.24818e-15 -8.08551e-33)
(9.31647e-13 -7.67414e-13 2.0694e-30)
(-5.80178e-14 -4.80859e-14 2.23869e-32)
(2.85569e-13 2.95485e-13 0)
(5.0441e-13 -1.05844e-12 1.26983e-30)
(2.70984e-13 1.90911e-13 -4.64406e-31)
(5.38478e-13 6.26838e-13 2.79684e-31)
(9.7164e-13 -5.99889e-13 -5.6431e-31)
(9.45805e-13 1.1615e-12 -1.96135e-31)
(2.81381e-13 -1.74884e-13 7.37987e-31)
(-5.01506e-14 2.60448e-14 -1.36688e-32)
(1.81673e-13 4.01724e-13 0)
(1.81623e-13 -3.95002e-13 -6.43898e-31)
(8.04962e-13 2.30936e-13 -4.84534e-31)
(-3.78584e-15 5.04044e-16 -1.2504e-32)
(1.96433e-13 -4.2769e-13 3.58526e-31)
(1.98789e-13 4.28014e-13 0)
(8.28927e-13 -9.58647e-14 -4.92806e-32)
(6.78529e-13 -4.96505e-14 -3.3083e-31)
(9.23577e-13 3.01996e-15 -8.86306e-32)
(3.57587e-13 -5.51898e-15 7.47768e-32)
(2.46701e-13 5.34634e-13 0)
(2.70156e-13 5.39286e-13 -2.07778e-31)
(1.63079e-13 -3.76081e-13 0)
(-1.91369e-15 -8.82278e-16 0)
(1.0389e-12 -2.6715e-13 0)
(1.02673e-12 -2.14054e-13 -4.40293e-31)
(4.01467e-13 -9.94758e-13 0)
(9.67308e-13 1.04781e-12 1.03006e-31)
(8.34819e-13 -1.12335e-13 2.27756e-31)
(5.86191e-13 -4.69097e-13 0)
(-1.3124e-14 -1.97065e-13 1.41091e-31)
(9.97241e-13 -8.73819e-14 -4.43964e-32)
(-4.22463e-15 1.19702e-13 0)
(8.81656e-13 1.03421e-12 -2.99858e-31)
(3.27758e-15 1.21151e-13 0)
(6.78087e-13 4.04212e-14 -8.05731e-32)
(3.67186e-13 2.67484e-13 0)
(-2.71637e-15 1.55655e-15 4.98222e-33)
(1.04682e-12 1.47354e-13 3.64019e-32)
(8.73519e-13 -7.41664e-13 -4.56088e-31)
(9.78636e-13 3.01139e-13 -1.93525e-31)
(8.25316e-13 -2.28515e-13 6.62643e-32)
(8.90302e-13 -5.0698e-13 0)
(1.03197e-12 1.25481e-13 -3.65916e-32)
(8.42076e-13 7.64397e-13 3.64211e-31)
(1.75502e-13 -1.04353e-13 0)
(3.59509e-13 9.31141e-13 -3.26691e-31)
(1.01218e-12 5.20097e-13 1.95989e-31)
(9.36371e-13 -3.25757e-13 5.69506e-31)
(4.4827e-13 -9.36768e-13 -7.01397e-31)
(4.44964e-13 9.4179e-13 -6.78949e-31)
(5.89451e-13 -1.18774e-12 1.15451e-30)
(-4.69178e-14 5.31491e-14 0)
(5.35117e-13 1.11354e-12 1.35868e-30)
(-3.14454e-16 7.49481e-14 0)
(5.7844e-13 -1.15282e-12 -6.42385e-32)
(5.46122e-13 1.1108e-12 6.35842e-31)
(4.92397e-13 1.09672e-12 0)
(4.34912e-13 -1.09852e-12 2.6135e-31)
(1.74775e-13 -4.32117e-13 0)
(3.06528e-13 5.12159e-14 0)
(7.86947e-14 -2.23282e-13 -5.15801e-32)
(4.40267e-13 -1.14097e-12 -3.22536e-31)
(8.21022e-13 1.21357e-12 4.20991e-31)
(3.94586e-13 3.86592e-15 -2.37815e-31)
(5.00481e-13 -6.14882e-13 -1.14672e-31)
(-2.267e-15 -1.52295e-15 0)
(8.67425e-14 2.11821e-13 0)
(5.06957e-13 -1.13678e-12 7.51916e-31)
(4.25525e-13 -8.93029e-13 -1.38352e-30)
(8.69429e-13 6.04057e-13 -3.40913e-31)
(2.92127e-13 -8.05235e-13 -3.11644e-33)
(9.98211e-13 3.19665e-13 4.90856e-31)
(9.8696e-13 5.02018e-13 -1.38421e-31)
(-6.37913e-14 -8.53332e-14 0)
(-1.61788e-14 -2.20931e-14 -2.45929e-32)
(-4.24699e-14 -1.83624e-13 -3.71223e-32)
(7.64785e-13 1.25424e-12 1.06867e-30)
(7.00108e-13 7.89127e-14 2.37717e-31)
(-2.41106e-14 -1.7472e-13 7.80593e-32)
(6.84717e-13 9.85058e-13 4.87552e-31)
(5.53222e-13 8.68343e-13 -9.20728e-31)
(-8.13376e-15 3.60446e-14 0)
(5.84847e-13 1.1623e-12 0)
(-1.15782e-16 5.59214e-16 0)
(5.00461e-13 1.07331e-12 -7.03723e-31)
(1.43322e-16 -4.22414e-16 2.58014e-32)
(5.97319e-13 1.20224e-12 -1.30363e-30)
(-3.01898e-14 1.39781e-13 0)
(1.73062e-13 1.28857e-13 6.96491e-31)
(9.46213e-13 -4.69063e-13 2.3553e-31)
(1.57612e-13 1.04755e-13 0)
(9.58177e-13 9.54695e-13 0)
(3.72957e-13 -4.43348e-13 -1.57247e-30)
(3.01363e-13 3.66544e-13 -1.56649e-30)
(7.5075e-13 3.29275e-13 -9.3328e-32)
(1.52938e-13 -4.17074e-13 4.9565e-31)
(3.76694e-13 -1.88116e-14 2.57184e-31)
(6.49813e-13 -1.08567e-12 7.09296e-31)
(1.64593e-13 4.33417e-13 3.95569e-31)
(3.07353e-13 -3.61804e-13 0)
(8.87188e-13 2.68512e-13 -3.40618e-31)
(4.6742e-13 -1.05884e-12 4.03722e-32)
(-3.09812e-14 -2.07656e-13 2.30446e-32)
(-3.70108e-15 2.03236e-14 6.49277e-32)
(1.38613e-13 1.9581e-13 -6.34412e-31)
(-8.14568e-15 1.25115e-14 1.05616e-32)
(7.6233e-14 -1.61608e-13 -4.33925e-31)
(5.03504e-13 -1.07313e-12 -8.56959e-32)
(4.82093e-13 -1.13222e-12 -8.36962e-31)
(1.15214e-13 -1.61029e-13 -8.18634e-31)
(1.96299e-13 -2.74991e-13 7.43539e-32)
(6.22028e-13 -7.85816e-13 -1.08905e-31)
(-1.58848e-14 2.06318e-13 0)
(5.4278e-13 -5.73188e-14 6.30156e-31)
(1.00587e-12 1.11961e-12 0)
(-1.10273e-14 -1.50962e-13 -1.2896e-31)
(-1.7551e-14 2.48874e-14 6.21553e-32)
(3.4774e-13 -9.20915e-13 3.98555e-31)
(2.50281e-14 -1.95344e-13 1.72494e-31)
(2.05392e-17 -3.78402e-16 -6.03358e-32)
(-7.72904e-15 4.49609e-15 -1.75504e-32)
(6.61698e-13 1.12423e-12 -1.00906e-30)
(4.80036e-17 3.48668e-16 0)
(8.951e-13 1.21802e-12 -1.24997e-31)
(4.47556e-13 -1.09781e-12 -4.02092e-32)
(-9.51078e-15 -8.90709e-15 -9.13593e-32)
(-4.17988e-14 3.62928e-14 0)
(1.72991e-13 3.9746e-13 1.05773e-30)
(-3.78959e-14 1.26315e-13 -1.43182e-33)
(5.38765e-13 1.14546e-12 1.01799e-30)
(3.45442e-16 -7.1286e-17 3.8763e-32)
(3.42075e-16 1.28227e-16 1.44732e-32)
(5.78644e-13 -1.17123e-12 -7.06699e-31)
(8.55879e-13 1.19672e-13 2.30164e-31)
(2.94947e-13 -7.54882e-13 -8.63705e-31)
(-7.72691e-14 -1.0607e-13 0)
(1.00129e-12 9.85649e-13 -1.73952e-31)
(-1.03595e-14 1.04505e-14 -1.85397e-32)
(3.44314e-13 7.44934e-13 -4.89375e-31)
(-4.09884e-14 -4.41436e-14 -2.54653e-32)
(3.13988e-13 7.80397e-13 -4.08471e-31)
(-5.75762e-15 5.51192e-15 1.36378e-32)
(-4.45702e-14 -1.6865e-13 -7.68429e-33)
(6.88198e-13 -7.69371e-13 0)
(-2.66275e-14 -1.3136e-13 3.15562e-32)
(3.67104e-13 8.42798e-13 2.61155e-31)
(4.41826e-13 9.36216e-13 -1.53577e-30)
(-1.60886e-14 8.82959e-14 0)
(5.60762e-13 -1.12323e-12 6.69111e-31)
(3.73015e-13 -8.36819e-13 8.87763e-31)
(7.98281e-14 1.32609e-13 7.06772e-31)
(-4.64936e-15 -4.3447e-15 -4.91866e-32)
(7.81293e-14 1.62707e-13 -1.02743e-31)
(7.8152e-13 -2.70561e-13 -3.3364e-31)
(2.37128e-13 -7.20438e-14 2.51792e-31)
(3.07536e-13 -7.09257e-13 -7.06631e-32)
(4.79175e-13 -1.02016e-12 6.52431e-31)
(-6.43828e-14 -1.29731e-13 0)
(-2.14626e-14 -2.05597e-13 -2.54963e-32)
(-1.34563e-14 -2.84571e-14 -1.05956e-32)
(6.33235e-13 -9.67956e-13 -4.31291e-31)
(1.78594e-13 1.48982e-14 -7.41763e-31)
(3.5526e-13 -5.58682e-13 -2.39606e-31)
(6.0036e-13 -1.19622e-12 -7.30634e-31)
(-6.66922e-15 2.9628e-14 -2.43539e-31)
(-5.48523e-14 -1.9363e-13 -3.42965e-32)
(7.33079e-13 -5.09082e-13 6.40717e-31)
(2.92736e-13 4.54851e-13 0)
(2.21057e-14 1.62538e-13 -4.55971e-31)
(4.14582e-13 8.85894e-13 5.69391e-31)
(6.25732e-13 7.944e-13 6.93251e-31)
(-2.99477e-16 -4.67433e-17 -4.31248e-32)
(-3.97409e-16 1.53839e-16 -4.99415e-32)
(5.85572e-13 -3.47418e-13 0)
(2.9735e-13 -4.67512e-13 1.24724e-30)
(3.70697e-13 -8.12644e-13 7.31489e-31)
(3.91364e-13 -3.03214e-13 0)
(-4.29254e-14 1.98485e-13 -1.00856e-31)
(2.16119e-14 1.99218e-13 6.9121e-32)
(8.22493e-13 9.68043e-13 -5.19114e-31)
(7.45959e-13 -9.9534e-13 3.24656e-31)
(3.6118e-13 -8.59987e-13 2.88971e-32)
(9.12196e-13 -7.28988e-13 4.1818e-31)
(5.70113e-13 1.11731e-12 -1.48565e-30)
(4.64917e-13 -1.06478e-12 0)
(6.10218e-13 9.75908e-13 0)
(9.43109e-13 -5.94421e-13 0)
(5.83648e-13 1.05171e-13 -1.80217e-31)
(7.20342e-13 -1.24934e-12 0)
(4.81244e-14 -1.30673e-13 1.39926e-31)
(-6.90811e-14 -1.53622e-13 1.7781e-32)
(-2.76135e-14 2.75381e-14 8.15586e-33)
(-2.13347e-14 1.72671e-14 2.39882e-32)
(3.44211e-13 5.64799e-13 4.36615e-31)
(3.20159e-13 -6.964e-13 8.83887e-32)
(-1.39425e-15 1.92024e-15 5.87944e-33)
(-1.17326e-15 -1.42201e-15 1.36452e-31)
(1.27643e-13 1.30713e-13 -2.31776e-31)
(-6.49247e-15 -3.71032e-15 -6.67655e-33)
(5.93294e-13 2.15673e-13 9.06084e-32)
(1.55192e-16 2.56933e-16 -6.42921e-33)
(3.39936e-16 -7.91025e-17 -6.59513e-32)
(5.19544e-13 1.09073e-12 0)
(8.67536e-13 1.01603e-12 0)
(8.197e-13 -5.28653e-13 -6.45856e-31)
(4.46071e-13 1.8824e-13 0)
(9.94854e-13 1.08088e-12 1.87626e-31)
(7.27e-14 1.77827e-13 0)
(8.79351e-13 1.13238e-12 5.42898e-32)
(7.58719e-13 9.23447e-13 3.51595e-31)
)
;

boundaryField
{
    front
    {
        type            empty;
    }
    back
    {
        type            empty;
    }
    bottom
    {
        type            zeroGradient;
    }
    left
    {
        type            noSlip;
    }
    top
    {
        type            uniformFixedValue;
        uniformValue    
        {
            type            scale;
            scale           
            {
                type            squarePulse;
                start           0.3;
                duration        0.3;
            }
            xScale          
            {
                type            constant;
                value           1;
            }
            value           
            {
                type            constant;
                value           (0 -0.7 0);
            }
        }
        value           uniform (0 -0 0);
    }
    right
    {
        type            noSlip;
    }
    inner_arc
    {
        type            noSlip;
    }
}


// ************************************************************************* //
