/*--------------------------------*- C++ -*----------------------------------*\
  =========                 |
  \\      /  F ield         | OpenFOAM: The Open Source CFD Toolbox
   \\    /   O peration     | Website:  https://openfoam.org
    \\  /    A nd           | Version:  9
     \\/     M anipulation  |
\*---------------------------------------------------------------------------*/
FoamFile
{
    format      ascii;
    class       volScalarField;
    location    "0.88";
    object      p;
}
// * * * * * * * * * * * * * * * * * * * * * * * * * * * * * * * * * * * * * //

dimensions      [0 2 -2 0 0 0 0];

internalField   nonuniform List<scalar> 
578
(
-1.22326e-18
-2.52743e-18
-1.01698e-18
-6.04789e-19
-2.21558e-18
6.60898e-19
1.61013e-18
-1.79963e-18
-1.78867e-18
-3.55929e-18
7.91374e-20
-1.83659e-18
-6.96096e-19
-2.16042e-18
1.46042e-18
-5.55764e-19
-1.42203e-18
-1.29484e-18
-1.46564e-18
-1.35468e-18
-5.91727e-19
-4.55806e-19
-9.91464e-20
-1.25287e-19
-1.46649e-19
-1.31988e-18
-7.98562e-19
-9.31526e-19
-1.96652e-18
-4.79624e-19
-8.33779e-19
8.20092e-19
-1.07811e-18
-5.15016e-19
1.30404e-18
-1.14368e-18
-1.95341e-18
-1.69662e-18
-4.36305e-19
-2.50774e-18
-2.06841e-18
-1.62454e-18
-1.94428e-18
1.52754e-18
-9.46949e-19
2.0222e-18
1.4716e-18
-1.89559e-18
-4.74491e-19
-8.37557e-19
1.33037e-18
-6.97609e-19
1.34638e-18
-5.44888e-19
-7.30371e-19
-1.38882e-18
-1.22297e-19
-2.16268e-19
-9.3775e-19
-1.49914e-18
-1.36945e-18
-1.76947e-18
-1.70487e-18
-2.37015e-18
-7.4196e-19
1.37408e-18
-8.11646e-19
3.19282e-19
9.609e-20
-1.29796e-18
-4.47025e-19
7.56381e-19
-7.34476e-19
-1.53864e-18
3.78282e-20
-2.51535e-18
-2.14973e-18
-1.85237e-18
-7.26224e-19
8.42706e-19
9.98314e-19
-1.98666e-18
1.74061e-18
1.62529e-18
1.90695e-20
1.16535e-18
1.64464e-18
-1.12431e-18
-1.5077e-18
1.04614e-18
-7.90722e-19
4.67487e-19
1.2857e-18
-6.59747e-19
2.45612e-19
8.20999e-19
-7.37348e-19
-7.30607e-19
-3.39439e-18
1.48645e-18
1.30084e-18
-1.44804e-18
-7.96475e-19
6.19905e-19
-7.65889e-19
-2.14756e-18
1.15849e-19
-2.52444e-18
1.37898e-18
-2.30397e-18
-1.07232e-18
-1.36778e-18
-1.4753e-18
5.33038e-19
6.4996e-19
-7.73841e-19
-6.28081e-19
-1.46916e-18
1.01025e-18
-7.50475e-19
-1.15944e-18
2.43948e-18
-1.63814e-18
-6.16644e-19
1.20988e-18
6.94525e-19
7.26573e-19
-5.15002e-19
1.23697e-18
1.88286e-19
1.27365e-18
6.19609e-19
-6.54445e-19
-1.24275e-18
1.13973e-18
1.06681e-18
-2.15297e-18
-7.70143e-19
1.69517e-19
1.28336e-18
1.40634e-18
3.96212e-19
1.24317e-18
-1.10191e-18
-1.43436e-18
1.19839e-19
4.77323e-19
-8.83046e-19
-1.63178e-18
-1.63413e-20
-1.93809e-18
3.03058e-19
-2.36075e-18
-1.13299e-18
1.46495e-18
-8.40227e-19
-1.63083e-18
-6.37249e-19
1.42377e-18
-1.97666e-18
-2.05151e-18
-2.0277e-18
1.48239e-18
-1.89852e-18
-1.3991e-18
4.13084e-19
-1.15288e-18
1.47854e-18
-5.88538e-19
-7.35659e-19
-1.78323e-18
-2.20461e-18
1.10414e-18
9.54705e-19
1.44556e-18
-7.56486e-19
-7.22954e-19
-1.40282e-18
-1.919e-18
-1.8331e-18
1.6017e-18
-2.06236e-18
9.24615e-19
-7.20898e-19
1.10821e-18
-8.49824e-19
-5.81043e-19
1.66211e-18
1.41614e-18
-2.37209e-18
-2.0369e-18
-2.00306e-18
1.04767e-19
1.4357e-18
-2.85818e-18
-7.10642e-19
-5.13246e-19
-9.24275e-19
1.34348e-18
-2.02162e-18
-6.18775e-19
-6.97287e-19
2.5778e-18
-7.64339e-19
-7.37099e-19
-2.03664e-18
1.27969e-18
-4.31136e-19
-1.99466e-18
-1.63562e-19
2.54559e-19
1.29573e-18
1.09041e-18
-6.99658e-19
1.12592e-18
-6.39037e-19
1.40824e-18
-2.02453e-18
1.43111e-18
5.95636e-19
-1.99388e-18
1.44389e-18
-8.27011e-19
-2.06355e-18
1.58333e-18
6.85941e-19
-6.88961e-19
-5.59629e-19
-8.92824e-19
-1.99365e-18
-3.20913e-18
2.42012e-18
1.07114e-18
-7.11918e-19
6.87064e-19
-1.67218e-18
-2.09113e-18
1.49812e-18
-6.76741e-19
-3.08604e-19
1.55706e-18
-2.19352e-18
-7.28235e-19
1.578e-18
-9.14858e-19
-1.46383e-18
1.30936e-18
-3.22503e-18
8.94183e-19
-6.65424e-19
-7.06649e-19
9.28212e-19
1.03216e-18
1.98735e-19
8.44132e-19
-4.38427e-19
-1.69836e-18
1.28206e-18
-1.80488e-18
2.09028e-18
-6.77682e-19
1.59281e-18
-5.10136e-19
-4.79345e-19
-2.07782e-18
-1.00259e-18
4.77026e-19
-3.42743e-19
-2.75207e-18
5.74094e-19
-5.84092e-19
5.38823e-19
2.49433e-19
-6.95883e-19
-6.81371e-19
-6.59809e-19
-7.55552e-19
2.94416e-19
1.43373e-18
-5.87528e-19
-2.12571e-18
-7.06916e-19
-6.8892e-19
-6.86207e-19
-6.49337e-19
1.24366e-18
-8.44174e-19
7.28838e-19
-3.95962e-19
-4.85674e-19
2.28342e-19
8.74617e-19
-7.75639e-19
1.2634e-18
-5.23831e-19
-4.91174e-19
-2.09512e-18
-2.05022e-19
-7.79965e-19
-5.31555e-19
-6.37095e-19
-2.48095e-19
-6.82924e-19
-9.50723e-19
-4.94739e-19
-6.36482e-19
-1.09365e-20
-1.60388e-18
-6.03068e-19
-6.37379e-19
-5.44997e-19
-7.50983e-19
-6.26193e-19
-2.81733e-19
-5.23658e-19
-6.82486e-19
8.04192e-19
-2.27128e-19
-4.92946e-19
-5.29491e-19
8.44909e-19
-6.87109e-19
-7.00134e-19
-3.00463e-19
-7.36938e-19
-7.44973e-19
1.26887e-18
1.44026e-18
-1.99088e-18
-7.58525e-19
-7.58506e-19
1.03941e-18
-6.84667e-19
-7.32015e-19
1.02694e-18
-4.2204e-19
-6.60407e-19
-7.20012e-19
-1.21241e-18
-7.74081e-19
-6.85065e-19
-6.85425e-19
-7.47548e-19
-1.42261e-18
-5.30623e-19
9.56005e-19
2.8847e-19
1.17941e-18
-1.47884e-18
1.35427e-18
-1.67683e-18
-1.89009e-18
1.43297e-18
-1.14868e-18
-2.42066e-18
1.83842e-18
-3.91528e-19
1.70466e-18
-2.58983e-18
1.78261e-18
-6.11772e-19
-1.17425e-18
-4.48594e-19
-1.15293e-18
-6.08199e-19
-4.69026e-19
-7.35911e-19
7.57977e-19
-6.72159e-19
-5.42541e-19
-1.74664e-18
-1.85414e-18
2.09357e-19
3.27761e-19
2.25731e-19
1.69744e-18
-7.90114e-19
1.33663e-18
-1.73549e-18
-8.49911e-19
-7.49861e-19
-1.81047e-18
1.45251e-18
-2.47137e-19
-3.95745e-19
-5.91646e-19
-4.72644e-19
1.72533e-18
1.56485e-18
-1.34532e-18
-7.11859e-19
-2.01564e-19
-1.55431e-19
-4.73377e-19
-5.77788e-19
-3.42519e-19
9.17709e-19
-9.29452e-19
-2.63673e-19
-1.23794e-19
-4.06745e-19
5.20884e-19
-4.85989e-19
-1.56652e-18
-7.72006e-19
-7.45586e-19
4.50067e-19
-9.28611e-19
-3.74605e-20
4.41493e-19
-6.51905e-19
-1.83647e-18
-1.32291e-18
7.82759e-19
-9.88421e-19
7.20081e-20
-1.61382e-18
1.15051e-18
-2.0385e-18
-8.23612e-19
1.31107e-18
1.96763e-19
-1.71918e-18
1.57202e-18
1.03085e-18
-7.69636e-19
-1.15119e-18
-1.64894e-18
-1.4448e-18
-7.10722e-19
7.26698e-19
-2.87726e-19
-9.30846e-20
-7.08265e-19
9.11047e-19
-1.01904e-18
-1.78237e-18
-1.41356e-18
-9.6918e-19
-9.45888e-19
-1.2633e-18
-6.35878e-19
-6.2194e-19
-7.9592e-19
9.96408e-19
-9.10078e-19
-8.33724e-19
8.13697e-19
8.15571e-19
-7.84747e-19
1.34599e-18
-7.9308e-19
9.81619e-19
-6.82827e-19
1.31634e-18
-6.92432e-19
-2.48087e-18
-6.04767e-20
-2.6093e-19
-1.54547e-18
1.79522e-18
9.86845e-19
-1.44411e-18
-1.01738e-18
-9.20776e-19
-1.59609e-18
9.35976e-19
-2.28448e-18
-1.11934e-18
-9.69397e-19
-9.11068e-19
-9.58001e-19
6.75643e-19
-8.38473e-19
-9.87257e-19
-1.69674e-18
-1.12321e-18
-1.58256e-18
-1.0454e-18
-1.44358e-18
-2.84841e-19
-4.5609e-20
-8.80935e-19
-8.74046e-19
-8.28811e-19
-8.93218e-19
-1.14699e-18
-8.22345e-19
-7.96961e-19
1.12544e-18
-6.48533e-19
7.05167e-19
-6.07873e-19
-6.48538e-19
-7.77786e-19
1.06548e-18
-7.29202e-19
1.22362e-18
-8.14401e-19
-6.57275e-19
-2.02951e-18
-8.19722e-19
-9.91304e-19
-6.42596e-19
-1.35731e-18
-8.16801e-19
1.18784e-18
-5.96687e-19
8.35835e-19
-7.983e-19
-8.03007e-19
1.11013e-18
-6.23104e-19
1.97204e-18
1.33658e-18
-7.77855e-19
-1.81849e-18
-2.41498e-18
4.28584e-19
-6.66571e-19
-1.00066e-19
1.98437e-19
-1.02743e-18
-1.36505e-18
-1.51088e-18
-6.64487e-19
-9.5298e-19
-5.86561e-19
-1.90186e-18
-1.95794e-18
-1.97008e-18
-1.81338e-18
-9.29754e-19
-8.0985e-19
8.24597e-19
7.90481e-19
3.09021e-19
1.12744e-18
7.45797e-19
-8.39489e-19
-6.31946e-19
7.43064e-19
-1.24771e-18
-1.32495e-18
1.05669e-18
-4.59945e-19
1.89042e-21
-1.39391e-18
-1.19759e-18
-1.20155e-18
3.59501e-19
1.44328e-18
-1.17782e-18
1.16552e-18
4.2899e-19
-1.15089e-18
-2.01158e-18
-8.4268e-19
-6.72953e-19
-8.19852e-19
-7.99466e-19
1.28442e-18
-1.59038e-18
-8.21266e-19
-6.48782e-19
3.05216e-19
-6.85786e-19
-1.43887e-18
-8.02112e-19
-6.69557e-19
1.25907e-18
-1.41483e-18
4.69934e-19
-1.90493e-18
-9.80617e-19
-1.42221e-20
4.06238e-19
1.8307e-19
)
;

boundaryField
{
    front
    {
        type            empty;
    }
    back
    {
        type            empty;
    }
    bottom
    {
        type            uniformFixedValue;
        uniformValue    
        {
            type            scale;
            scale           
            {
                type            squarePulse;
                start           0.3;
                duration        0.3;
            }
            xScale          
            {
                type            constant;
                value           1;
            }
            value           
            {
                type            constant;
                value           15.1;
            }
        }
        value           uniform 0;
    }
    left
    {
        type            zeroGradient;
    }
    top
    {
        type            zeroGradient;
    }
    right
    {
        type            zeroGradient;
    }
    inner_arc
    {
        type            zeroGradient;
    }
}


// ************************************************************************* //
