/*--------------------------------*- C++ -*----------------------------------*\
  =========                 |
  \\      /  F ield         | OpenFOAM: The Open Source CFD Toolbox
   \\    /   O peration     | Website:  https://openfoam.org
    \\  /    A nd           | Version:  9
     \\/     M anipulation  |
\*---------------------------------------------------------------------------*/
FoamFile
{
    format      ascii;
    class       surfaceScalarField;
    location    "0.88";
    object      phi;
}
// * * * * * * * * * * * * * * * * * * * * * * * * * * * * * * * * * * * * * //

dimensions      [0 3 -1 0 0 0 0];

internalField   nonuniform List<scalar> 
816
(
4.25547e-26
1.40242e-24
-1.44496e-24
-4.89026e-25
1.96094e-24
-1.4719e-24
-2.43979e-24
2.4823e-24
1.25399e-25
-1.70367e-25
4.49674e-26
1.37425e-24
-1.37425e-24
-7.66127e-25
9.52397e-25
-1.86273e-25
-1.43673e-24
1.43673e-24
-1.28802e-24
1.28803e-24
-2.92162e-24
8.47935e-27
2.91313e-24
3.55827e-25
-8.44827e-25
7.24619e-25
-1.49077e-24
3.41702e-24
-2.47391e-24
-9.43108e-25
5.08325e-26
-4.05121e-26
-1.03196e-26
3.30599e-24
-2.99476e-24
-3.11235e-25
-3.26466e-24
2.88052e-24
3.84141e-25
-2.50778e-24
4.12952e-24
-1.62174e-24
-1.56912e-24
-4.4457e-25
2.01369e-24
2.98719e-24
-2.41361e-25
-2.74583e-24
4.01239e-25
3.01577e-24
1.37206e-24
-4.2937e-24
2.39614e-25
-1.1422e-25
3.10473e-25
-2.81819e-24
1.64009e-24
-6.89985e-25
-9.50113e-25
4.19062e-25
1.95563e-25
-6.14628e-25
4.86541e-25
-6.74375e-26
-2.80831e-24
6.86577e-25
2.12174e-24
1.91959e-25
-1.72635e-25
-1.93238e-26
5.89903e-26
-1.20881e-25
6.18915e-26
9.40148e-25
1.02083e-24
1.43802e-24
2.69152e-24
2.1248e-25
-1.53457e-25
2.87401e-25
6.64983e-25
4.36544e-24
-2.92745e-24
5.82857e-25
-4.06503e-25
-1.76355e-25
-3.22634e-25
-2.942e-24
-7.07437e-25
3.39896e-24
3.03187e-25
3.00284e-24
-4.10451e-25
-2.39789e-24
4.25065e-24
-1.54788e-24
-2.70277e-24
8.53817e-25
5.20418e-25
-1.07095e-24
-8.86814e-25
8.77541e-25
2.90076e-24
-2.01856e-26
-1.47813e-24
-7.082e-25
2.18632e-24
-8.62797e-25
-5.73902e-25
1.11411e-24
2.70452e-24
-2.69603e-24
1.81086e-24
6.20257e-26
1.29942e-25
-1.59485e-25
-4.25206e-26
2.02e-25
4.25813e-26
8.25132e-27
1.19564e-24
4.44469e-25
3.42971e-25
2.39886e-25
-1.78307e-26
1.7831e-26
9.29108e-25
-2.8414e-25
-6.44967e-25
-6.89962e-25
-1.47805e-24
-3.39052e-24
1.82143e-24
1.16664e-24
-1.87404e-24
-4.0331e-25
5.56553e-25
-1.00109e-24
-1.2425e-24
1.00114e-24
-9.69885e-26
-2.89774e-24
6.43597e-26
-4.1068e-26
-2.32918e-26
2.92625e-24
-2.54676e-26
2.79605e-24
1.56945e-24
-1.20952e-24
1.93412e-24
-1.2427e-24
3.63559e-24
-2.39288e-24
6.60905e-25
2.42581e-24
-3.08671e-24
8.00788e-26
1.28005e-25
6.16137e-26
2.72625e-27
2.4689e-24
1.19114e-24
-3.66003e-24
6.8128e-25
-7.98549e-25
1.17265e-25
1.16792e-24
-1.16791e-24
-1.73407e-24
3.1062e-24
-2.34411e-24
6.10025e-25
2.11004e-26
-5.31576e-25
-9.13377e-25
1.44495e-24
-2.35422e-24
-9.36245e-25
3.29047e-24
1.4024e-24
1.05865e-24
-1.05866e-24
-1.56358e-24
1.56357e-24
-1.68508e-24
3.28448e-24
-1.5994e-24
8.42344e-25
2.59538e-25
-4.25579e-26
8.59575e-25
6.95227e-26
-7.30431e-26
-2.29993e-24
2.37297e-24
2.01269e-24
8.72069e-26
-2.0999e-24
3.98559e-26
1.20242e-24
-2.8875e-24
8.02092e-26
2.47652e-24
-2.55673e-24
1.11521e-25
-9.62701e-26
-1.52508e-26
-2.86441e-24
-3.27032e-26
2.60589e-24
-2.57318e-24
-1.51023e-26
7.50501e-27
3.5585e-25
2.31989e-25
-3.17396e-24
-3.66929e-26
2.96295e-24
-2.0488e-24
2.70967e-24
3.16528e-26
4.20552e-26
-7.37084e-26
-2.07946e-24
7.94597e-27
-7.9465e-27
-4.10116e-25
3.41294e-24
4.9499e-25
1.07095e-24
8.42335e-25
-1.08132e-25
-1.0598e-24
1.49768e-24
1.90121e-24
3.11235e-24
2.89714e-24
-3.58677e-24
6.8963e-25
4.82971e-26
-1.66666e-26
-1.26782e-25
-4.358e-26
1.31986e-24
1.90011e-24
-3.21997e-24
-3.95311e-26
2.05222e-24
-7.19199e-27
1.51213e-26
-1.32807e-25
2.25455e-24
-1.77595e-24
2.12344e-25
6.17835e-25
2.03685e-25
3.59448e-26
-7.17259e-25
-2.64553e-24
2.87319e-24
-2.27656e-25
-4.42332e-25
-1.91187e-24
2.62228e-24
-1.84187e-24
-7.80411e-25
2.51662e-24
5.493e-25
-2.99684e-24
1.62382e-26
2.9806e-24
-3.08408e-24
4.38506e-25
4.25512e-26
6.89628e-26
-7.44672e-25
7.44675e-25
-2.71097e-24
-2.859e-25
-2.10832e-26
2.72935e-24
-2.70827e-24
-4.19368e-26
-2.43201e-24
-2.18746e-24
-1.39931e-24
-2.13335e-24
2.14957e-24
-3.64112e-26
8.05925e-25
-7.69515e-25
-5.67444e-25
-2.16976e-24
2.65939e-26
4.60509e-25
-4.87102e-25
-8.77544e-25
-3.12959e-26
-2.67147e-24
-3.09414e-25
-1.60299e-24
1.9124e-24
2.08834e-27
-1.59692e-26
1.38812e-26
2.7442e-24
-2.19489e-24
-3.34559e-24
-8.88592e-26
3.43446e-24
9.66226e-25
-9.6623e-25
1.16665e-24
1.30257e-25
6.14425e-25
3.24271e-25
3.05943e-24
-3.3837e-24
-2.66081e-26
8.86227e-26
-1.25972e-24
2.1999e-24
1.18336e-26
2.94243e-26
-4.12577e-26
-9.13372e-25
3.01383e-25
-3.64702e-24
-2.59637e-24
8.0594e-25
-2.62264e-24
2.53377e-24
-2.62895e-25
2.62897e-25
2.43478e-24
-2.36336e-25
-2.19691e-24
2.52116e-24
-1.73639e-27
1.35448e-26
2.49289e-25
-2.64617e-25
1.53286e-26
-2.50241e-25
-2.37238e-24
8.86759e-25
-9.28713e-25
1.0008e-24
-1.02189e-24
-8.96357e-26
6.90442e-25
-6.00808e-25
4.76518e-26
-2.24456e-24
9.11531e-26
-1.14468e-25
1.18954e-25
-2.78138e-26
3.14121e-24
-1.33371e-24
1.08346e-24
-1.53414e-25
-6.20408e-26
2.15463e-25
-8.78273e-25
9.25907e-25
-5.57537e-25
2.66096e-24
-2.10341e-24
-1.98352e-24
2.2431e-24
1.40045e-25
9.94825e-26
2.62984e-24
2.07933e-27
-1.87403e-24
1.2714e-24
1.35086e-24
3.14047e-24
1.50957e-25
-3.29143e-24
-2.06643e-25
5.3195e-26
-3.12323e-24
-1.51197e-25
3.27443e-24
2.6337e-24
-9.99135e-26
2.46751e-24
5.3649e-26
8.44855e-25
-1.42391e-25
-1.01939e-25
2.4433e-25
-1.35227e-26
4.18881e-26
-2.83656e-26
1.59712e-26
-4.25787e-26
2.57619e-24
-2.6185e-24
4.23021e-26
2.5374e-24
-2.48255e-24
-5.48547e-26
-1.75004e-27
4.37656e-26
-3.19887e-25
-7.38748e-25
1.06889e-25
1.57992e-25
-1.85814e-25
1.05458e-25
-1.32067e-25
2.16867e-24
1.13717e-25
-1.71671e-24
3.52465e-24
1.72782e-25
-2.88372e-24
3.55299e-27
1.54424e-25
-1.99696e-24
2.85091e-25
-8.14064e-26
-4.87075e-25
6.00817e-25
2.86433e-24
-2.07723e-24
-1.67345e-25
-1.81928e-24
1.94948e-24
9.83597e-25
-1.0835e-24
9.79586e-25
-9.25919e-25
1.82279e-24
-2.20469e-25
-3.71815e-26
2.57651e-25
-2.06587e-25
-3.19953e-25
6.90462e-25
-5.34124e-25
-2.0139e-24
-1.33374e-24
9.83571e-25
9.7959e-25
2.73063e-26
-1.2431e-25
1.73508e-24
-1.61078e-24
-8.78269e-25
-3.22378e-25
-7.233e-26
-4.25955e-26
-7.6952e-25
-5.31917e-26
4.0905e-25
1.00079e-24
6.55039e-26
3.60808e-25
-4.2631e-25
2.47893e-25
2.63628e-25
2.60951e-24
3.62473e-25
3.02478e-25
1.51167e-25
-4.90093e-25
3.38926e-25
2.01995e-25
2.51365e-24
-3.04776e-24
5.63034e-26
-3.39257e-24
3.36707e-24
4.9005e-25
-6.14434e-25
4.18744e-26
8.68465e-26
1.1891e-24
4.35247e-25
-1.33003e-24
3.39689e-25
2.8733e-24
4.05052e-25
-3.34381e-25
2.97234e-25
1.98191e-25
-9.49153e-26
-2.39457e-25
2.81308e-25
-2.15807e-25
-4.8709e-25
1.0219e-24
3.59966e-25
8.33428e-26
-4.43307e-25
9.28712e-25
2.6588e-25
1.97452e-25
9.97895e-26
1.62742e-25
8.51515e-26
1.20507e-25
-7.90596e-26
1.70169e-25
-1.7017e-25
2.50255e-25
-2.18045e-24
-2.62006e-24
5.65263e-26
-3.21164e-25
-1.22798e-25
1.22796e-25
-8.6845e-26
-5.5189e-25
-2.25475e-25
2.36273e-25
-1.07974e-26
2.25459e-25
-1.02664e-25
3.85332e-25
2.50257e-25
-2.73234e-24
-5.31593e-25
4.69526e-25
1.22381e-25
-2.16583e-25
9.4202e-26
2.42901e-25
3.38703e-25
4.717e-26
2.37557e-25
-2.84727e-25
-5.28909e-26
1.0007e-25
-1.33135e-24
1.18779e-25
-3.35341e-25
3.91637e-25
-1.94183e-25
2.53234e-25
-1.47401e-25
-3.24538e-25
2.07603e-24
3.42702e-25
1.08322e-25
3.05273e-25
-4.13592e-25
-7.89319e-26
2.80371e-25
6.23313e-26
2.96978e-24
-4.13004e-26
3.2171e-25
-7.24456e-26
3.46654e-24
-3.47598e-25
4.09924e-25
-2.27015e-25
-1.40381e-25
3.03153e-25
4.41145e-26
4.75333e-25
-1.47953e-26
-3.4287e-25
1.48673e-25
5.59605e-25
-3.22015e-25
-1.26931e-25
1.31883e-24
-2.94732e-24
1.62849e-24
7.18197e-25
-7.18197e-25
-6.57635e-25
6.57635e-25
-7.82608e-25
7.82608e-25
7.80803e-25
-7.80804e-25
8.53812e-25
-8.62799e-25
-1.85408e-25
-4.17071e-25
6.02478e-25
1.1141e-24
-4.50452e-25
3.23519e-25
-1.0939e-24
1.0939e-24
-1.05981e-24
-1.05724e-24
1.05723e-24
-2.33015e-25
1.70145e-24
-1.46844e-24
5.56551e-25
-1.09162e-25
-9.06995e-25
1.01616e-24
-6.7199e-25
6.71992e-25
-4.37288e-25
2.71582e-24
-2.27854e-24
-1.14001e-24
-3.12372e-24
5.78338e-26
-1.24251e-24
-1.18568e-24
2.3768e-24
9.26164e-25
-1.80489e-24
3.25319e-24
1.19565e-24
-1.51377e-25
-6.44241e-26
1.23172e-25
1.74174e-24
2.71957e-25
-4.28345e-25
-1.78835e-24
2.2167e-24
1.27314e-24
-2.22563e-24
-1.33406e-25
-1.43277e-26
7.50578e-27
-1.06162e-24
-1.88574e-24
1.6542e-24
-2.39364e-24
-4.17936e-24
1.43356e-24
-6.53888e-25
-1.60839e-24
2.26227e-24
-2.82405e-25
-3.94908e-25
-1.70629e-26
4.11971e-25
-2.53971e-24
-2.37598e-25
2.37614e-25
-3.56242e-26
-5.57763e-26
1.07659e-24
-9.19046e-28
-7.04296e-27
7.95187e-26
-2.35804e-24
-2.67528e-24
2.46017e-24
-2.18824e-24
1.00717e-24
-2.66129e-24
8.56403e-25
3.0892e-24
2.01537e-24
9.52993e-25
-4.57269e-25
-1.8427e-24
7.65632e-25
1.71088e-24
-1.33353e-24
-2.32653e-24
1.45246e-25
7.78434e-25
-2.62033e-24
-2.27667e-24
2.037e-24
2.69673e-24
2.47328e-24
-2.93372e-24
4.60444e-25
-8.27659e-25
-2.70514e-25
-5.6867e-25
-7.63088e-26
-8.27652e-25
-5.74494e-25
-3.63308e-24
-3.24516e-25
3.9576e-24
2.17634e-25
9.27917e-25
1.25846e-24
2.63131e-28
7.24303e-27
-7.57781e-25
7.57781e-25
2.53288e-24
5.79476e-25
1.18729e-24
1.82946e-24
-2.28439e-24
-2.78243e-24
4.24401e-25
1.88945e-25
7.19577e-26
3.79129e-25
-4.82853e-25
1.03723e-25
-1.6656e-25
1.19699e-25
-1.58814e-24
3.68312e-25
-2.74238e-24
2.41787e-24
-1.1253e-25
-1.20848e-25
2.20019e-24
-9.3201e-28
-1.13696e-24
2.60948e-28
-2.03283e-24
3.69281e-25
-1.29425e-25
3.53213e-25
-1.31218e-24
2.94062e-24
4.4076e-25
-2.23096e-24
-9.89023e-25
-1.1811e-24
-8.88277e-25
-2.50968e-26
1.68159e-24
5.18336e-25
-1.55701e-25
-2.80434e-25
7.33814e-25
8.4519e-26
7.23796e-25
4.42848e-25
2.10593e-24
2.96813e-24
1.188e-25
-5.13701e-25
6.19031e-26
-8.88262e-25
-2.73835e-26
4.12617e-26
-3.97192e-25
-1.99318e-26
2.09067e-24
1.3223e-24
-2.35426e-24
7.23755e-25
9.27899e-25
5.00901e-25
3.24441e-24
3.04648e-25
6.12249e-26
-1.82392e-24
-8.12125e-28
8.11918e-28
-2.3738e-26
2.79645e-24
8.07741e-28
-8.07333e-28
2.35819e-24
-1.39738e-26
-6.13049e-27
2.41085e-24
-8.16228e-28
7.92246e-28
2.78379e-24
-6.9312e-25
-1.97962e-24
3.37648e-25
-2.63427e-24
2.26174e-26
1.86444e-26
1.77827e-24
-1.84269e-24
-1.1324e-27
-1.82439e-25
-3.00347e-25
3.30172e-25
-2.02167e-25
1.50596e-27
-1.54792e-26
2.71895e-26
-1.63848e-24
1.62416e-24
3.28035e-25
2.56237e-25
1.31927e-25
-2.82798e-24
-1.05547e-24
2.94592e-25
2.09493e-25
2.39275e-24
2.88128e-27
-2.55757e-27
8.78618e-25
-1.31046e-24
-3.20001e-25
-3.09243e-24
-3.5544e-25
-1.98563e-24
-9.10568e-26
1.54124e-24
-1.51863e-24
5.50944e-26
1.74855e-27
-1.05362e-27
2.9281e-25
-1.00033e-24
-6.10138e-25
-3.13279e-25
)
;

boundaryField
{
    front
    {
        type            empty;
        value           nonuniform List<scalar> 0();
    }
    back
    {
        type            empty;
        value           nonuniform List<scalar> 0();
    }
    bottom
    {
        type            calculated;
        value           nonuniform List<scalar> 
12
(
-1.10188e-24
-3.06592e-24
2.54801e-24
-2.551e-24
1.48113e-24
3.38923e-25
-3.3969e-25
2.5855e-24
3.06555e-24
-2.58027e-24
-1.47876e-24
1.09817e-24
)
;
    }
    left
    {
        type            calculated;
        value           uniform 0;
    }
    top
    {
        type            calculated;
        value           uniform 0;
    }
    right
    {
        type            calculated;
        value           uniform 0;
    }
    inner_arc
    {
        type            calculated;
        value           uniform 0;
    }
}


// ************************************************************************* //
