/*--------------------------------*- C++ -*----------------------------------*\
  =========                 |
  \\      /  F ield         | OpenFOAM: The Open Source CFD Toolbox
   \\    /   O peration     | Website:  https://openfoam.org
    \\  /    A nd           | Version:  9
     \\/     M anipulation  |
\*---------------------------------------------------------------------------*/
FoamFile
{
    format      ascii;
    class       volScalarField;
    location    "0.08";
    object      p;
}
// * * * * * * * * * * * * * * * * * * * * * * * * * * * * * * * * * * * * * //

dimensions      [0 2 -2 0 0 0 0];

internalField   nonuniform List<scalar> 
942
(
12.0691
12.0239
11.9392
12.0842
11.9373
12.0673
12.0921
12.0653
12.112
12.1123
11.9945
12.0468
12.0899
11.9884
12.0445
12.026
11.967
12.0697
11.967
12.0162
11.9697
12.0478
12.0502
11.9344
11.9959
11.9382
11.953
12.0516
11.9427
12.0588
11.9455
11.9515
11.9372
12.0017
11.9617
12.0393
12.0555
12.0566
12.0577
11.9341
12.0119
12.0468
11.9273
12.0937
12.0896
11.9541
11.9769
11.9961
12.0111
11.9897
11.9715
12.0486
12.0331
11.9303
12.1074
12.0291
12.0412
12.1043
12.039
12.0046
12.054
11.9577
12.008
12.064
12.057
12.031
11.9563
11.9898
12.0239
12.0939
12.0225
12.1098
12.0295
12.0615
11.9323
12.014
12.0182
11.9604
11.9449
12.0275
12.0763
11.9423
12.0011
12.0295
12.0333
11.942
12.0006
12.0452
11.9863
12.0025
12.0432
11.9696
12.103
12.0282
12.0339
12.0109
12.0466
12.0445
12.0757
12.0549
12.1062
12.1025
11.9778
12.092
12.0382
12.0522
11.959
11.9503
11.9894
11.9827
12.0253
12.0174
11.9954
12.1104
11.9923
11.9686
11.9988
12.082
12.0537
12.0211
12.0513
12.03
11.9199
12.027
12.0303
11.9414
12.0449
11.9306
11.9369
12.023
11.9605
11.9552
11.9673
11.9877
11.9805
11.9474
12.0176
11.9744
12.0099
12.0022
11.9948
11.9427
11.9943
11.9414
12.0645
11.9389
12.0967
12.1077
12.047
11.9442
12.0622
12.0176
11.9682
12.0843
11.9644
12.0559
12.0355
12.1123
12.0035
12.0128
12.0361
12.0517
12.0811
12.0544
12.014
11.9821
12.1038
12.0891
11.9559
11.9832
11.9963
12.0173
12.0306
12.0525
11.939
12.0971
12.0102
12.0989
12.0327
12.0931
12.0866
11.9459
12.0506
12.0942
12.0663
11.9431
11.9945
11.9426
11.9437
12.0892
11.9577
12.0878
12.0571
11.9496
11.9441
12.094
11.9484
12.0592
12.0066
11.919
12.0543
12.0928
11.9425
11.9616
11.989
12.0232
12.035
11.9441
11.9237
11.9305
11.9471
12.0962
12.1071
11.956
11.9434
12.0847
11.9417
11.9712
11.9515
11.9529
12.0793
12.0804
12.084
12.0907
12.1107
11.9524
11.9575
12.0746
12.0522
11.9558
11.9476
11.9472
11.9612
12.1066
12.084
12.1008
11.9694
12.079
11.9522
11.9562
11.9577
12.0872
12.0774
12.0981
12.0945
11.9465
12.0698
12.0896
12.0742
11.9509
11.9561
12.0232
11.9606
11.9475
12.0895
12.0951
12.0817
12.0828
11.9721
12.0973
12.0746
11.975
11.9603
12.0846
12.066
12.1089
12.0927
12.078
11.9507
12.0694
12.0651
11.9467
12.0178
11.9529
11.9486
11.9758
11.9278
12.0708
11.9562
12.0423
12.0879
12.0386
12.0455
12.0717
11.9826
12.007
12.0757
12.0736
12.0832
12.08
11.9798
12.0195
11.9782
12.0539
12.0725
11.976
12.0122
12.0111
12.0162
12.0063
11.9979
12.0747
12.0272
12.0344
11.9942
12.0767
12.0421
12.048
12.0135
11.9721
12.0966
12.0015
12.0614
12.0263
12.0538
11.9858
12.0821
12.0388
12.0081
12.0547
12.0206
11.9793
12.0901
12.0324
12.0159
11.9796
11.9953
12.0574
12.0506
12.0715
11.9814
12.0605
12.0624
12.0295
12.0646
11.9846
12.0368
11.9769
11.9792
12.0241
11.9903
12.0098
12.0447
11.9871
12.0091
11.9771
12.005
12.0539
12.0744
12.0138
11.9835
12.0188
12.0572
12.0242
11.9815
12.0674
12.001
12.0609
11.9975
12.0079
12.0292
12.0542
12.0416
12.0647
12.0354
12.0372
12.0517
11.9517
12.0428
12.0122
12.0169
11.9861
11.9581
12.051
11.991
12.0126
11.9943
12.0084
12.0681
12.0173
11.9229
12.0492
11.9787
12.0163
11.9458
12.0222
12.033
12.0405
12.0044
12.0274
11.9655
12.001
12.064
12.031
11.9844
12.0593
12.0496
11.9723
11.9388
12.0074
11.9918
12.0569
12.0399
12.054
12.0401
11.9883
12.0483
12.0007
12.0481
12.0357
11.9347
12.0363
12.0517
12.0324
12.0388
12.0675
12.064
12.0541
11.986
12.054
12.0566
12.046
12.0614
12.0628
12.0411
12.0343
11.9914
12.0092
12.0317
12.032
12.0402
12.0288
12.0354
12.0048
12.0438
12.0567
12.0194
12.0595
12.0486
12.0327
12.0569
12.0471
12.0107
12.0284
12.0702
12.0336
11.9975
12
12.0515
12.0603
12.0033
12.002
12.0068
12.0601
12.0001
11.9888
11.9945
12.0228
12.0636
12.0022
12.024
12.0149
11.9487
12.003
11.9784
12.0052
12.068
12.027
12.0225
11.99
12.0181
12.0159
12.0139
12.0373
11.9867
11.9801
12.0465
12.0085
12.0396
11.9809
12.0726
11.9841
12.0069
11.9896
12.044
11.9919
12.0381
12.0099
12.0493
11.9876
11.9926
11.9973
11.9924
12.0063
12.0719
11.9769
11.9922
11.9737
11.9947
12.0663
11.9995
11.9848
12.0657
11.9781
12.0129
11.9709
12.0121
12.0203
11.9719
12.0241
12.0446
11.9824
11.9817
11.9794
11.9906
12.0695
11.9843
11.981
12.0187
11.9681
12.0429
12.0113
12.0199
11.9832
12.0227
12.0269
11.9948
11.973
11.9973
12.024
12.0149
11.9948
12.0425
11.9578
11.977
11.9678
11.9548
11.9862
12.079
11.9619
12.0651
11.988
11.9748
12.0789
11.9664
11.9573
11.9857
11.9737
11.9626
11.9609
11.9717
11.976
11.9625
11.9682
11.9531
11.9662
11.961
11.9995
11.9516
11.9972
11.9702
12.0826
12.0745
11.9659
11.9622
11.9562
11.9624
11.9532
11.9651
12.1062
11.9609
11.9485
11.9604
11.9627
12.0928
11.9532
11.9667
11.9655
11.9662
11.9657
12.0791
11.9326
12.1114
11.9673
12.0869
12.0877
11.9645
11.9328
12.1026
11.9517
12.0423
12.0918
12.0938
11.9323
11.9321
12.0698
11.9318
12.0488
11.9328
12.0979
12.0969
12.0603
11.9299
11.9327
12.1156
11.9598
11.934
12.1007
11.9551
11.9339
11.9693
11.9342
11.9333
11.9328
12.0511
12.0306
12.0241
12.0267
12.0701
12.0628
11.9312
12.0136
11.9339
12.1117
11.9378
11.9426
11.9276
12.055
12.0604
12.0433
12.016
12.0016
12.0014
12.0663
12.0378
12.0203
11.9384
12.1021
11.9439
11.9852
12.0282
12.0981
12.0439
12.0006
12.0181
12.0497
12.0514
12.0469
12.1005
12.0876
12.1024
11.9659
12.0525
12.1118
11.9987
12.0191
12.0153
11.9514
11.9499
12.07
12.1137
12.0703
12.0855
12.0732
12.0953
12.0983
12.0092
11.9436
12.0502
11.9489
11.9945
11.9535
12.1089
11.9579
12.1072
12.0993
11.9473
11.9562
12.1085
12.1063
12.0359
11.9703
12.0567
11.9869
11.993
12.0025
12.0117
11.9733
11.9891
11.9993
12.0623
11.9835
12.0835
12.0058
12.0087
11.9769
11.9803
12.0879
11.9962
11.9923
12.0048
12.011
11.9758
11.9825
12.0647
12.0864
11.9985
12.0217
11.9885
11.9837
12.1151
11.9743
11.9534
12.061
12.0689
11.9687
11.9481
11.9949
12.0844
11.9697
12.068
11.974
11.9739
11.9626
12.0609
12.0591
12.0558
12.0802
12.0819
12.028
11.9693
11.9386
12.0743
12.0024
11.9983
12.004
12.0336
12.0825
11.9659
12.0768
12.0883
11.9674
11.9416
12.0164
12.0618
12.0752
12.0745
11.9647
12.1031
12.0097
12.1075
11.9834
12.0381
12.0344
12.0582
12.0237
12.0188
12.037
12.0342
11.966
11.99
12.1061
12.0552
11.9223
12.0976
12.0828
12.0658
12.0566
11.9256
12.0431
11.9352
12.0747
11.98
12.1114
11.9474
12.008
11.9909
12.0074
11.9287
11.9825
12.1048
12.1066
12.0227
12.0216
11.9375
12.069
11.9766
12.0457
12.0503
12.0459
11.9988
11.9487
12.1111
12.0498
12.0525
12.0716
11.9721
12.0792
11.9621
12.0242
12.0224
11.939
12.0395
11.9355
12.0425
12.0387
12.0268
11.9364
12.113
12.0539
12.0363
11.937
11.9618
12.114
11.9322
12.0332
12.0464
11.9576
11.9847
11.9711
12.1025
12.1149
11.9341
12.0304
11.9918
11.9723
11.9232
12.0548
12.0579
12.1006
11.9387
11.9346
12.0648
12.0236
12.1018
12.0612
11.9805
11.9352
11.9438
12.0726
11.9973
12.0552
12.0592
11.9786
12.055
11.9761
12.1107
12.0584
11.9982
12.0517
12.0616
12.031
11.9468
11.9419
12.0376
12.0396
12.0107
12.059
12.1038
12.0135
12.0641
11.9901
12.0064
12.0021
12.0621
12.073
12.0196
11.9399
12.0039
12.0519
12.0052
12.1082
11.9365
12.0805
12.0579
12.0789
11.9858
12.0427
11.9392
12.0791
11.9891
12.1039
12.0765
12.0624
12.0763
12.1047
12.1045
11.9726
12.0799
12.0833
11.9518
12.057
11.93
12.0111
12.069
12.0389
12.0484
11.9401
12.0362
11.9774
11.9758
12.0326
12.0226
12.0847
12.1145
11.9393
11.9735
12.05
12.0879
12.0239
12.0166
11.9341
12.1006
12.0267
12.0557
11.9378
11.9617
12.0467
11.936
11.9384
12.0191
12.0582
12.0048
12.1019
11.9632
11.937
12.056
11.9794
12.0683
12.0586
12.0055
12.1123
12.0432
12.0715
12.0736
12.0305
12.0376
12.0521
12.1133
11.9697
12.069
12.0743
)
;

boundaryField
{
    back
    {
        type            empty;
    }
    front
    {
        type            empty;
    }
    top
    {
        type            zeroGradient;
    }
    outer_arc
    {
        type            zeroGradient;
    }
    bottom
    {
        type            uniformFixedValue;
        uniformValue    
        {
            type            table;
            format          csv;
            file            "outlet_p.csv";
            nHeaderLine     1;
            refColumn       0;
            componentColumns List<label> 1(1);
            separator       ",";
            mergeSeparators 0;
        }
        value           uniform 11.9311;
    }
    inner_arc
    {
        type            zeroGradient;
    }
}


// ************************************************************************* //
