/*--------------------------------*- C++ -*----------------------------------*\
  =========                 |
  \\      /  F ield         | OpenFOAM: The Open Source CFD Toolbox
   \\    /   O peration     | Website:  https://openfoam.org
    \\  /    A nd           | Version:  9
     \\/     M anipulation  |
\*---------------------------------------------------------------------------*/
FoamFile
{
    format      ascii;
    class       volScalarField;
    location    "0.72";
    object      p;
}
// * * * * * * * * * * * * * * * * * * * * * * * * * * * * * * * * * * * * * //

dimensions      [0 2 -2 0 0 0 0];

internalField   nonuniform List<scalar> 
90
(
-1.232e-22
-1.54456e-21
-1.65746e-21
-2.55037e-21
-1.83759e-21
-1.20546e-21
-2.55124e-23
-2.94654e-22
-9.38996e-22
-8.35428e-23
-4.83188e-22
-9.35638e-22
-3.2707e-22
-1.60347e-21
-9.36745e-22
1.64584e-21
-4.46348e-21
-4.96157e-22
-3.01272e-22
-1.25436e-21
-4.05742e-22
-8.46108e-22
-6.00115e-22
-1.45841e-21
-4.88391e-22
-9.15061e-22
-2.70448e-22
-9.57092e-22
-1.58812e-21
-2.09845e-22
-2.14201e-22
-7.8995e-22
-5.89052e-22
-7.54031e-22
-8.38217e-22
1.69972e-21
-6.25185e-22
-6.24511e-21
-6.21785e-22
-1.14967e-21
-6.53875e-22
-6.55753e-22
-1.15355e-21
-4.52311e-23
-2.48722e-23
-1.48447e-21
-1.06093e-21
2.55037e-22
-6.23655e-22
-2.15678e-21
-1.50213e-21
-1.95484e-21
-4.94984e-22
-8.94606e-22
-1.89518e-21
-9.30394e-24
-1.63869e-23
-6.73735e-22
-5.45388e-23
-9.38453e-22
-5.89538e-22
-1.37496e-21
-1.29584e-21
-9.17783e-22
-7.11505e-22
-6.7648e-22
-1.65661e-21
-1.86325e-21
-5.34331e-21
-1.20655e-21
7.16174e-22
-1.67717e-22
-1.15517e-21
4.3716e-22
1.76071e-21
-1.6407e-21
-1.07458e-22
-9.46341e-22
-7.01147e-22
-2.0617e-23
-5.91755e-21
4.78905e-24
-7.81062e-22
1.8218e-21
-9.91708e-22
-2.30498e-21
-5.38348e-23
-1.39304e-22
9.88852e-22
-1.53765e-22
)
;

boundaryField
{
    back
    {
        type            empty;
    }
    front
    {
        type            empty;
    }
    bottom
    {
        type            zeroGradient;
    }
    outer_arc
    {
        type            zeroGradient;
    }
    right
    {
        type            uniformFixedValue;
        uniformValue    
        {
            type            scale;
            scale           
            {
                type            squarePulse;
                start           0.3;
                duration        0.3;
            }
            xScale          
            {
                type            constant;
                value           1;
            }
            value           
            {
                type            constant;
                value           15.1;
            }
        }
        value           uniform 0;
    }
    inner_arc
    {
        type            zeroGradient;
    }
}


// ************************************************************************* //
