/*--------------------------------*- C++ -*----------------------------------*\
  =========                 |
  \\      /  F ield         | OpenFOAM: The Open Source CFD Toolbox
   \\    /   O peration     | Website:  https://openfoam.org
    \\  /    A nd           | Version:  9
     \\/     M anipulation  |
\*---------------------------------------------------------------------------*/
FoamFile
{
    format      ascii;
    class       surfaceScalarField;
    location    "0.72";
    object      phi;
}
// * * * * * * * * * * * * * * * * * * * * * * * * * * * * * * * * * * * * * //

dimensions      [0 3 -1 0 0 0 0];

internalField   nonuniform List<scalar> 
122
(
1.96455e-29
-2.5565e-29
6.18759e-30
-6.29433e-29
2.10777e-30
1.81305e-29
1.7585e-29
-4.88757e-29
-7.68194e-29
1.74397e-28
-2.65721e-28
-4.36436e-28
4.41166e-28
1.57366e-28
-9.05661e-29
-5.47288e-29
-1.42704e-29
-1.92722e-29
1.66401e-29
7.06151e-29
1.09686e-28
1.56906e-29
-1.12165e-29
-8.23363e-30
6.69993e-29
-1.65525e-28
1.03169e-28
-1.75774e-28
4.04713e-29
-2.75229e-29
2.15513e-28
9.99701e-29
5.17064e-29
4.52015e-29
-4.82386e-30
1.51573e-29
-1.11232e-29
4.17646e-29
-2.87365e-29
4.03875e-29
-3.17779e-29
-1.12998e-29
1.06754e-28
-7.4254e-29
1.2577e-29
-2.58103e-30
3.84858e-30
-9.31454e-29
2.73537e-29
-6.0519e-29
8.10772e-29
3.98135e-29
-2.62307e-29
2.71306e-28
-1.30622e-28
-1.03068e-28
1.22372e-28
-1.59381e-29
2.10787e-29
-2.7371e-29
-8.23908e-29
-2.03062e-29
-5.3001e-29
7.95522e-29
-1.16595e-28
-4.38924e-29
1.87537e-30
-2.64124e-29
2.23198e-29
-7.64835e-30
4.70782e-29
-7.10725e-29
2.16534e-29
-1.16127e-28
1.07456e-28
-9.16073e-29
-7.77045e-29
-1.01335e-28
-6.50617e-29
8.13796e-29
5.73528e-29
-2.82773e-29
9.36725e-29
6.69068e-29
8.77262e-29
7.03631e-30
2.11237e-29
-6.96912e-30
-3.88893e-29
-2.91395e-29
1.10611e-28
2.84344e-29
-2.00375e-29
1.41872e-28
-1.25389e-28
-5.24544e-29
1.35838e-29
-1.2288e-28
4.51958e-29
4.55696e-30
1.86257e-29
-2.51411e-29
-9.69219e-29
6.97276e-29
-1.10746e-29
-5.87107e-29
-1.81632e-29
-7.38177e-29
1.06658e-29
5.24049e-29
-2.42969e-28
2.23047e-28
2.17239e-28
-9.21794e-29
-5.56337e-29
-6.24839e-29
6.10126e-29
3.35357e-29
-3.14054e-29
-1.5054e-28
1.45187e-28
-3.14841e-29
)
;

boundaryField
{
    back
    {
        type            empty;
        value           nonuniform List<scalar> 0();
    }
    front
    {
        type            empty;
        value           nonuniform List<scalar> 0();
    }
    bottom
    {
        type            calculated;
        value           uniform 0;
    }
    outer_arc
    {
        type            calculated;
        value           uniform 0;
    }
    right
    {
        type            calculated;
        value           nonuniform List<scalar> 4(2.54311e-29 1.80192e-28 1.59042e-28 8.62801e-29);
    }
    inner_arc
    {
        type            calculated;
        value           uniform 0;
    }
}


// ************************************************************************* //
