/*--------------------------------*- C++ -*----------------------------------*\
  =========                 |
  \\      /  F ield         | OpenFOAM: The Open Source CFD Toolbox
   \\    /   O peration     | Website:  https://openfoam.org
    \\  /    A nd           | Version:  9
     \\/     M anipulation  |
\*---------------------------------------------------------------------------*/
FoamFile
{
    format      ascii;
    class       volVectorField;
    location    "0.72";
    object      U;
}
// * * * * * * * * * * * * * * * * * * * * * * * * * * * * * * * * * * * * * //

dimensions      [0 1 -1 0 0 0 0];

internalField   nonuniform List<vector> 
90
(
(1.2886e-21 -1.63092e-22 6.72372e-39)
(7.85774e-22 8.36495e-22 -1.35622e-37)
(-1.64926e-21 -1.86965e-22 -1.10584e-37)
(-2.91911e-21 5.58783e-21 1.09518e-37)
(5.7831e-21 8.35511e-21 1.92166e-37)
(5.55844e-22 4.2215e-22 1.07748e-37)
(6.0843e-22 -3.19361e-22 -7.80643e-39)
(3.76047e-21 7.00056e-22 -3.10976e-38)
(1.4653e-22 -5.20899e-22 0)
(4.34357e-21 6.76784e-22 0)
(5.41436e-22 5.77671e-22 -1.73786e-38)
(1.65771e-21 -4.65693e-21 6.17273e-38)
(1.76384e-22 -9.98995e-23 -4.08567e-39)
(-5.4294e-22 -8.32557e-22 -4.00616e-38)
(2.07412e-21 -3.03063e-21 0)
(4.95343e-21 3.06297e-21 0)
(3.04719e-21 8.10105e-21 -3.03346e-37)
(-3.27607e-22 1.0225e-21 1.65512e-39)
(5.61334e-22 3.39087e-21 0)
(4.99203e-22 -4.62414e-22 -8.51456e-38)
(5.89321e-22 1.00512e-22 -2.09728e-38)
(4.40582e-22 5.83217e-22 -3.39944e-38)
(2.01387e-21 1.50017e-21 -3.7537e-38)
(-3.55137e-22 1.70848e-22 8.42125e-38)
(2.80761e-21 1.11053e-21 3.18096e-38)
(1.54434e-21 1.44057e-21 3.29914e-38)
(1.85887e-21 6.02999e-22 1.8168e-38)
(8.6102e-22 9.23062e-22 -2.31394e-38)
(-6.5416e-21 -6.76166e-22 0)
(2.84559e-21 1.01615e-21 1.25835e-38)
(3.09692e-21 9.71595e-22 -1.10281e-38)
(-8.73106e-23 7.19917e-23 -4.40414e-38)
(6.40227e-22 9.43676e-22 -1.08183e-38)
(2.65001e-21 1.3735e-21 6.4619e-38)
(1.37018e-21 1.76623e-21 -1.74255e-38)
(8.58683e-22 -2.81453e-21 -4.03129e-38)
(1.78657e-21 1.67724e-21 0)
(-5.04966e-22 2.03077e-21 0)
(-7.04246e-23 2.35e-22 1.42602e-38)
(-2.34706e-22 -6.84362e-22 -1.04834e-38)
(6.7398e-22 -2.81681e-23 4.17749e-38)
(1.07862e-21 1.18952e-21 5.56649e-38)
(1.61319e-21 2.32059e-21 -7.11337e-39)
(3.25427e-21 5.73779e-23 2.78559e-39)
(4.86595e-21 3.50689e-22 3.87421e-40)
(1.65782e-22 2.43896e-21 5.63982e-38)
(1.16519e-21 3.85663e-22 -4.11749e-38)
(3.0925e-21 -2.09e-22 -1.9433e-39)
(2.98019e-22 2.26608e-21 3.97119e-38)
(1.42872e-21 -1.51704e-21 1.38054e-38)
(-5.48171e-23 -7.78773e-22 0)
(1.21691e-22 -3.6504e-22 6.6783e-38)
(3.15576e-21 2.50799e-22 5.71826e-40)
(1.30364e-22 8.34189e-22 0)
(4.00358e-22 -3.00127e-23 -1.31988e-37)
(4.12735e-21 2.39861e-21 -1.17872e-40)
(4.24826e-21 1.51579e-22 -2.26484e-40)
(-3.07167e-22 9.79903e-22 0)
(3.76909e-21 4.62278e-22 0)
(2.09006e-22 3.78812e-22 5.35448e-38)
(1.35447e-21 5.26386e-22 -3.19622e-38)
(1.56885e-21 1.18066e-21 0)
(-2.36464e-23 1.58409e-22 6.05579e-38)
(3.33778e-21 1.52372e-21 1.39393e-38)
(1.85671e-21 1.99191e-21 -3.09249e-38)
(-1.4395e-21 6.66677e-23 -3.09382e-38)
(1.33743e-22 -5.70145e-23 0)
(-6.58587e-22 2.0754e-21 0)
(-5.92826e-21 1.67463e-21 2.22581e-38)
(-8.7283e-21 2.80946e-21 8.64968e-39)
(6.48244e-21 4.48831e-24 0)
(3.77635e-21 5.31819e-22 -5.32031e-39)
(4.63295e-21 1.05482e-21 0)
(-5.19222e-22 3.11699e-21 4.38751e-38)
(-3.07632e-21 1.51714e-21 -8.73308e-39)
(1.27223e-21 3.78429e-22 5.88276e-38)
(8.03388e-22 9.91052e-23 1.37087e-39)
(1.45989e-21 2.36093e-21 0)
(3.31789e-21 1.32689e-21 -4.91577e-38)
(2.2077e-21 2.10765e-22 -3.21185e-39)
(-4.20612e-21 3.84263e-22 2.46242e-37)
(4.96137e-21 4.11725e-22 -1.36292e-40)
(6.37e-22 1.49676e-21 6.34586e-38)
(3.95061e-21 1.50882e-21 4.42782e-38)
(1.83684e-21 3.0053e-21 1.61715e-38)
(7.65973e-22 1.59535e-21 -6.60655e-38)
(4.67239e-21 6.48613e-22 -3.11454e-39)
(3.7372e-21 5.39379e-22 -1.01111e-40)
(3.43988e-21 3.59422e-21 -9.14586e-38)
(2.00073e-21 4.29921e-22 5.15234e-39)
)
;

boundaryField
{
    back
    {
        type            empty;
    }
    front
    {
        type            empty;
    }
    bottom
    {
        type            uniformFixedValue;
        uniformValue    
        {
            type            scale;
            scale           
            {
                type            squarePulse;
                start           0.3;
                duration        0.3;
            }
            xScale          
            {
                type            constant;
                value           1;
            }
            value           
            {
                type            constant;
                value           (0 0.7 0);
            }
        }
        value           uniform (0 0 0);
    }
    outer_arc
    {
        type            noSlip;
    }
    right
    {
        type            zeroGradient;
    }
    inner_arc
    {
        type            noSlip;
    }
}


// ************************************************************************* //
