/*--------------------------------*- C++ -*----------------------------------*\
  =========                 |
  \\      /  F ield         | OpenFOAM: The Open Source CFD Toolbox
   \\    /   O peration     | Website:  https://openfoam.org
    \\  /    A nd           | Version:  9
     \\/     M anipulation  |
\*---------------------------------------------------------------------------*/
FoamFile
{
    format      ascii;
    class       surfaceScalarField;
    location    "2.89";
    object      phi;
}
// * * * * * * * * * * * * * * * * * * * * * * * * * * * * * * * * * * * * * //

dimensions      [0 3 -1 0 0 0 0];

internalField   nonuniform List<scalar> 
1363
(
-5.04612e-07
3.19652e-07
1.8496e-07
-1.10007e-07
-1.6543e-07
2.75437e-07
7.43473e-07
-5.92561e-07
-1.50912e-07
-1.53063e-07
4.62915e-07
-3.09852e-07
7.07274e-07
3.61996e-08
3.53526e-07
-1.71639e-08
-3.36362e-07
-1.14302e-07
1.14302e-07
3.06917e-07
4.66084e-08
-2.95126e-07
3.03516e-07
-8.38985e-09
1.39786e-08
-3.09105e-07
-6.34758e-07
5.99506e-07
3.52516e-08
6.47058e-07
-8.6202e-07
2.14962e-07
3.42319e-07
-4.95382e-07
-6.49301e-07
6.87061e-07
-3.77592e-08
1.0934e-07
5.37718e-07
4.95963e-09
-1.14967e-07
3.23555e-07
-2.177e-07
-1.05855e-07
-2.57661e-07
-2.46951e-07
-2.14842e-07
-9.14526e-09
2.23987e-07
-3.52023e-07
3.52023e-07
9.68573e-08
2.26697e-07
-4.36766e-07
-4.25254e-07
-1.42987e-07
-1.64163e-08
1.59404e-07
1.90258e-08
1.55176e-07
-1.74201e-07
-3.11538e-07
-3.23219e-07
2.16255e-07
-1.97229e-07
6.82992e-07
-6.35167e-07
-4.78253e-08
-2.16064e-07
7.30766e-08
-1.85561e-07
2.48086e-07
-6.2525e-08
-2.6146e-08
-3.50652e-07
3.76798e-07
-1.75262e-07
2.99522e-08
1.4531e-07
9.60114e-09
6.73391e-07
1.06564e-08
-1.96218e-07
-1.00593e-07
-3.54353e-07
4.54946e-07
6.25393e-07
-5.49066e-07
-7.63274e-08
1.8631e-08
1.17024e-07
-1.35655e-07
-4.66479e-07
1.80138e-07
2.86341e-07
2.98169e-07
-1.29406e-07
-1.68764e-07
-2.49502e-07
-2.16978e-07
-5.34234e-09
1.60518e-07
4.24359e-07
-5.53885e-07
1.29526e-07
5.63572e-07
-7.52607e-07
1.89035e-07
-2.29676e-08
1.76252e-08
-3.09138e-08
-8.33879e-08
5.39748e-08
6.03269e-08
7.70619e-08
-1.17624e-07
4.05624e-08
3.72927e-07
-3.39499e-09
-3.69532e-07
2.69352e-07
-3.69945e-07
-2.21554e-07
6.45913e-07
-1.67465e-07
-4.81836e-07
-3.004e-07
8.55582e-08
4.51007e-08
-6.1517e-08
7.17308e-08
-5.30998e-08
2.38828e-07
-1.39244e-07
-9.95837e-08
4.10462e-07
-3.96483e-07
-5.41121e-07
2.38597e-07
3.02523e-07
2.48631e-07
-2.48631e-07
-1.53726e-09
4.11999e-07
1.5744e-07
9.11911e-08
7.15016e-07
1.7143e-07
-8.86446e-07
-2.08199e-07
1.82053e-07
6.93104e-07
-6.04636e-07
-8.84686e-08
-4.77291e-07
1.22939e-07
-9.18475e-08
4.115e-07
1.92579e-07
1.0559e-07
1.62868e-07
-2.95101e-07
1.32233e-07
5.79376e-08
3.35997e-09
4.60154e-07
-4.63514e-07
-1.59003e-08
-5.2522e-07
2.79906e-07
-2.06736e-07
-7.31692e-08
5.36766e-08
-2.19107e-07
-2.26809e-07
2.10946e-07
1.58629e-08
1.27002e-08
-1.27002e-08
-1.97913e-08
-3.30861e-07
1.35757e-07
1.03071e-07
-7.7033e-08
-2.7499e-07
2.281e-07
1.23923e-07
2.07577e-08
-1.65652e-07
-9.61028e-09
-2.4831e-07
2.5327e-07
-9.00109e-09
9.05952e-08
-8.15941e-08
2.46207e-07
-3.98529e-07
1.00308e-07
2.9822e-07
-8.54421e-08
-2.91674e-07
-3.42743e-09
-8.03954e-07
7.8298e-07
2.09744e-08
6.74626e-07
4.03898e-08
4.60392e-07
1.10304e-07
-5.70696e-07
2.60297e-07
4.26763e-07
-3.38152e-07
-6.03771e-08
8.21447e-07
-2.57874e-07
2.29972e-07
-2.49599e-08
-2.05012e-07
-4.17839e-07
4.16302e-07
6.17137e-07
-3.7854e-07
5.43618e-07
-2.41095e-07
2.22528e-07
-4.13288e-08
-1.81199e-07
-4.03889e-07
-3.48718e-07
-1.11993e-07
5.72385e-07
-1.94417e-07
1.85416e-07
-1.56194e-08
2.15805e-07
-2.79428e-09
-2.1301e-07
3.83404e-08
-4.56179e-07
7.25266e-08
2.48992e-07
-2.94059e-08
5.73024e-07
6.43957e-10
1.81409e-07
1.61258e-07
-8.41959e-08
-7.78701e-08
1.71209e-07
-9.33393e-08
3.3423e-07
-3.3087e-07
1.4979e-07
3.10364e-07
-2.07465e-07
1.91564e-07
-2.63554e-07
-2.61666e-07
2.11112e-07
-9.65476e-08
-1.30261e-07
1.31011e-07
4.68495e-07
2.29972e-07
3.9761e-07
-7.91491e-07
3.93882e-07
3.8857e-07
7.43456e-08
-7.64924e-08
6.0873e-08
4.93637e-07
-4.03636e-07
-9.00017e-08
-6.0873e-08
6.1517e-08
1.0927e-07
-8.61611e-08
-2.31093e-08
-2.29676e-08
-1.02267e-07
-9.81423e-08
-1.16679e-07
-4.89728e-08
4.51007e-08
2.82817e-08
-1.76252e-08
-2.82817e-08
-2.80097e-08
5.62914e-08
7.17308e-08
2.52172e-07
-2.61318e-07
-2.52172e-07
2.23504e-07
2.86682e-08
2.61318e-07
-2.64713e-07
-2.19307e-07
4.88659e-07
2.19307e-07
1.14922e-07
-2.23504e-07
1.0588e-07
1.44303e-08
-2.21895e-07
2.64713e-07
-1.14922e-07
-4.8545e-07
2.21895e-07
4.8545e-07
-7.07003e-07
-4.88659e-07
7.07003e-07
-2.18344e-07
-1.0588e-07
2.80097e-08
6.08722e-07
3.16338e-08
-1.48313e-07
3.00674e-07
6.24336e-09
-3.56998e-08
1.88767e-08
-2.25613e-07
6.0588e-08
1.50358e-07
6.78116e-08
-2.40906e-07
1.73094e-07
-2.44162e-07
-5.59792e-07
3.54496e-08
2.65225e-07
9.19957e-07
-5.50797e-07
-3.6916e-07
5.00071e-07
-5.25031e-07
-1.74274e-07
2.05821e-07
-3.15473e-08
-5.92857e-07
4.37913e-08
1.30218e-08
-2.62524e-07
-2.35804e-07
-5.58698e-08
-7.97836e-09
6.0761e-08
-5.27826e-08
-6.20061e-07
1.45495e-07
-3.8022e-07
1.44416e-07
2.4174e-07
-2.28718e-07
-4.87067e-07
1.77215e-07
3.27246e-07
8.18817e-08
-4.09128e-07
6.45905e-07
2.74052e-07
-4.03805e-08
-5.05314e-07
5.45695e-07
8.21024e-08
1.33702e-07
3.34885e-07
-8.58932e-08
2.11772e-07
-5.91679e-08
-7.00815e-07
3.84247e-07
3.00835e-07
-3.46552e-08
1.5623e-07
6.2675e-07
-3.76335e-07
2.80995e-07
9.53395e-08
1.07877e-07
-1.49205e-07
-1.52645e-07
-2.2369e-07
5.10228e-07
1.06908e-07
-4.30033e-07
3.173e-07
1.12733e-07
-1.87206e-07
1.29323e-08
9.95876e-08
1.48499e-07
2.4795e-07
-1.49037e-07
-2.77452e-07
2.10507e-07
-6.76355e-07
7.59248e-08
6.0043e-07
-4.22868e-07
2.11569e-08
4.01711e-07
5.96038e-07
-8.402e-07
4.4918e-07
-1.3188e-07
8.61094e-07
-7.3577e-07
-1.25324e-07
3.47529e-07
1.01651e-07
-2.84951e-07
2.50295e-07
6.72591e-09
1.38584e-07
-2.3712e-08
-3.99156e-07
5.18831e-07
-1.76512e-07
4.54862e-07
-4.11904e-07
-4.29585e-08
-2.36602e-07
-3.17283e-07
6.14115e-08
-6.14115e-08
-7.64924e-08
2.08655e-07
3.10175e-07
-1.00238e-07
7.65261e-08
-5.92789e-09
5.49554e-07
5.70754e-09
5.97403e-08
-6.6411e-07
6.85267e-07
3.84439e-08
5.57067e-08
-2.38873e-07
4.47528e-07
-2.06968e-07
4.13949e-07
-2.06981e-07
-8.55121e-07
7.66652e-07
-6.86043e-08
-2.16503e-07
4.92976e-07
-2.76473e-07
-2.36408e-07
8.32446e-07
8.58713e-07
-6.66504e-07
-1.92208e-07
-5.01037e-07
8.91335e-08
-4.4018e-07
-6.08578e-08
-3.3103e-07
4.87881e-07
-1.56851e-07
3.00323e-07
-5.16826e-07
-1.11183e-07
4.58712e-07
4.65396e-07
-2.45539e-07
-2.19856e-07
7.66239e-08
-7.66239e-08
3.62059e-07
-3.62059e-07
-1.00784e-07
-7.54337e-07
-3.51654e-07
4.80926e-07
-1.29272e-07
1.75305e-07
8.59508e-08
-2.61256e-07
-4.62698e-08
2.56777e-07
-7.03416e-07
3.93065e-08
2.94521e-07
-2.94521e-07
-6.91593e-08
6.91593e-08
1.61946e-07
2.05935e-07
-4.44808e-07
7.12594e-07
1.46119e-07
1.36228e-07
1.82031e-07
-5.57273e-07
1.17094e-07
-4.71322e-07
1.2688e-07
2.08005e-07
-1.11722e-07
-3.77068e-07
4.8879e-07
3.11357e-07
-2.16017e-07
-2.56251e-07
3.68984e-07
-1.11563e-07
-3.69204e-07
-1.00506e-07
4.6971e-07
1.88922e-07
1.21173e-07
7.6031e-07
-2.90054e-07
2.95761e-07
1.36457e-07
-8.72227e-07
-2.95815e-07
3.97465e-07
2.01989e-07
-4.88251e-07
7.84977e-08
3.80214e-07
-6.79284e-07
-1.89234e-07
8.68518e-07
5.5106e-08
-4.85283e-07
3.28432e-07
2.26041e-07
-9.05325e-07
-8.30664e-07
-3.11572e-07
3.9007e-07
-4.20494e-07
3.19988e-07
6.32629e-08
4.0477e-07
-4.68033e-07
9.23142e-08
3.77193e-07
9.25168e-08
5.19082e-07
-1.41889e-07
-8.1021e-07
8.46379e-07
-3.61686e-08
-1.60528e-07
-7.96927e-08
8.46345e-07
-6.4771e-07
-6.2249e-07
8.48531e-07
-3.88788e-07
-1.63175e-08
4.05106e-07
-7.74186e-07
6.48862e-07
-7.99907e-09
5.30998e-08
1.19332e-07
-2.3077e-09
1.34821e-07
-1.4282e-07
-3.75789e-07
-1.29997e-08
1.46614e-07
-4.70418e-07
3.23804e-07
-9.43438e-07
3.23377e-07
-3.98578e-08
4.15942e-07
-3.76084e-07
-4.66061e-07
4.26203e-07
3.46082e-07
4.39875e-08
4.09345e-07
4.138e-07
-2.67186e-07
-6.84642e-08
-9.2064e-08
-9.24702e-07
3.02213e-07
3.3742e-08
3.12476e-07
-3.46218e-07
-2.90578e-07
2.7426e-07
-1.28102e-07
3.73486e-07
-2.45384e-07
2.96479e-07
-1.16986e-06
8.73377e-07
-6.46959e-07
-6.75984e-07
-4.93871e-07
-4.4537e-07
7.68747e-07
5.18466e-07
1.82724e-07
-7.0119e-07
4.01533e-08
-6.91361e-07
-2.57161e-07
9.48522e-07
-6.41355e-07
4.69587e-07
1.71767e-07
-2.99895e-07
8.18361e-07
4.00971e-07
8.78194e-08
-6.64476e-07
8.96514e-07
-2.32038e-07
2.78177e-07
-2.78177e-07
-2.7499e-07
-2.05012e-07
-8.33879e-08
-1.79274e-07
1.79274e-07
-1.13624e-07
1.13624e-07
-1.02267e-07
5.09644e-07
-4.29772e-07
-7.98718e-08
-2.27814e-07
2.27814e-07
-8.30267e-08
8.30267e-08
1.5744e-07
-4.50093e-08
4.50093e-08
-2.39849e-07
2.39849e-07
2.281e-07
1.70522e-07
-1.70522e-07
5.39748e-08
-9.81423e-08
-2.62809e-07
1.94345e-07
2.52427e-07
6.50797e-07
-9.03225e-07
2.87786e-07
-2.87786e-07
4.45943e-07
-4.12201e-07
-4.92765e-07
6.818e-07
1.16255e-07
-1.16255e-07
-1.61244e-07
-3.09174e-07
4.43469e-07
-4.78055e-07
3.45859e-08
-5.99038e-08
-4.60106e-07
5.2001e-07
-6.3124e-07
-6.01208e-08
-4.68683e-07
4.08779e-07
-5.09829e-07
3.48585e-07
-2.93977e-08
-6.11957e-07
3.26683e-07
-3.48205e-07
2.15219e-08
1.98581e-07
-1.44303e-08
4.88626e-07
-7.88521e-07
-1.79293e-07
1.78076e-08
1.61485e-07
1.5697e-07
3.11248e-07
-6.57515e-07
3.46267e-07
-8.60009e-07
4.14639e-07
6.43123e-08
-6.79508e-07
5.42971e-07
1.36537e-07
1.68792e-08
-6.12908e-08
3.70248e-07
-1.01721e-06
4.0013e-07
-1.07611e-06
1.61703e-08
4.85497e-07
-1.0408e-06
5.55307e-07
1.68889e-07
-5.17094e-07
-3.71028e-07
-9.76548e-08
-5.40784e-07
7.23508e-07
3.12681e-08
-3.95579e-07
-4.44947e-07
8.40525e-07
1.60115e-07
-3.39408e-07
6.58947e-07
-9.16108e-07
5.02307e-07
7.34975e-08
-5.75804e-07
-2.30285e-07
8.78306e-07
-6.48022e-07
4.10275e-08
8.53695e-07
-3.84108e-07
-6.46768e-07
-1.04363e-07
7.51132e-07
1.33846e-07
-6.25916e-07
4.9207e-07
8.3862e-07
5.78936e-08
-4.42755e-08
6.20831e-08
2.30829e-07
6.50626e-07
3.11732e-08
-4.22782e-07
7.69049e-07
-4.89761e-07
-2.64869e-07
4.73224e-07
-4.32197e-07
-6.17078e-07
-5.90617e-07
2.22454e-07
6.18806e-07
-8.4909e-07
2.18656e-09
-3.81858e-07
4.55388e-07
-2.05357e-07
-5.91209e-07
7.96566e-07
-8.06736e-08
5.50174e-07
-4.695e-07
8.15831e-07
-6.81984e-07
5.24717e-07
-5.07837e-07
2.31538e-07
-1.23609e-07
8.09223e-07
-3.10929e-07
6.59514e-07
8.34101e-10
2.78562e-07
8.07597e-07
8.39311e-07
-9.43674e-07
-6.86779e-07
7.60276e-07
-8.89806e-07
-2.63014e-08
-9.77655e-07
5.93548e-07
4.40105e-07
3.31194e-08
4.71373e-07
-6.064e-07
-6.43869e-08
6.70787e-07
-2.65377e-07
5.89181e-07
-5.75227e-07
-4.85787e-07
-9.00177e-08
-7.91605e-07
8.49498e-07
3.74714e-07
2.55628e-08
-4.85669e-07
-1.68433e-07
-6.67352e-07
4.58121e-07
-1.97136e-08
9.97296e-07
-1.84286e-07
-8.13009e-07
3.47143e-07
-5.525e-07
7.21476e-07
-4.89938e-07
6.15438e-07
7.75495e-07
-2.43635e-08
3.33101e-07
1.71789e-07
-5.04889e-07
-9.21076e-07
3.03999e-07
5.05101e-08
1.59921e-08
3.79065e-07
-6.1547e-07
3.50601e-07
4.01476e-07
3.9509e-07
4.59323e-07
4.73764e-07
3.66762e-07
-7.75721e-07
4.57075e-07
3.18645e-07
4.82275e-07
-4.66104e-07
6.4673e-07
-3.68169e-07
-6.28864e-07
2.82297e-07
3.46567e-07
3.13387e-07
-3.01957e-07
3.94136e-07
8.24882e-07
3.09473e-07
-3.4036e-08
5.26849e-09
-1.01691e-06
4.26297e-07
-7.73298e-07
2.83537e-07
1.94252e-07
3.44774e-07
-2.5364e-07
3.58994e-07
-1.05353e-07
3.40777e-08
-4.9478e-07
-6.661e-07
6.18288e-07
4.78127e-08
-4.693e-07
3.31933e-07
-4.64747e-07
1.32814e-07
-9.9222e-07
3.24868e-07
3.59563e-07
2.29618e-07
-6.72275e-07
9.2779e-07
-7.82919e-08
-1.12837e-07
-2.26571e-07
-3.98672e-07
1.6016e-07
4.93487e-07
5.19723e-07
-4.7882e-07
4.81006e-07
-4.36482e-07
7.59358e-07
7.48247e-07
-3.54111e-07
-1.28219e-07
5.2694e-08
5.65594e-07
-6.32272e-07
8.87633e-07
-2.55361e-07
-4.70771e-07
7.89416e-07
-5.84459e-07
-2.54528e-07
3.11765e-07
1.82026e-07
4.51591e-07
-4.46323e-07
-3.67318e-07
6.49614e-07
5.72417e-07
-4.62112e-07
-2.97672e-07
7.59785e-07
1.89352e-08
-6.32106e-08
-7.06157e-07
5.16923e-07
2.07636e-07
-3.35855e-07
3.35127e-07
-2.56533e-08
-4.19929e-08
-1.91869e-07
2.33862e-07
3.73847e-07
-4.07883e-07
1.13842e-06
1.42196e-07
4.30221e-07
-5.60661e-07
-3.42563e-07
5.0119e-07
2.59168e-07
6.28465e-07
-1.04232e-06
4.81657e-07
-8.04676e-07
-1.2962e-07
1.37091e-07
-1.79084e-07
-7.3975e-07
-5.9892e-07
-3.74455e-07
-2.25073e-07
7.19853e-07
-3.24763e-07
-4.22098e-07
7.33864e-07
-2.00901e-07
-5.05256e-07
-2.03041e-07
1.49405e-07
-6.57093e-07
2.03518e-07
-1.41663e-07
6.58586e-07
4.55476e-08
4.67666e-08
-4.50307e-07
-5.92011e-07
-6.94207e-07
1.17724e-07
2.93776e-07
8.24762e-07
-2.97222e-07
3.32613e-08
1.46105e-07
-9.01365e-09
-2.15708e-07
4.37379e-07
3.22411e-07
-2.40921e-07
-8.14896e-08
1.06703e-07
2.36479e-07
-1.36791e-07
8.08365e-07
-6.71575e-07
3.82584e-07
8.50596e-07
-9.02861e-08
-6.08113e-07
5.15755e-07
1.33859e-07
7.70904e-07
6.6516e-07
6.76309e-07
-3.52023e-07
5.0141e-07
1.57176e-07
-7.20955e-07
-1.51272e-07
1.80875e-08
2.86791e-08
5.28105e-08
-6.18242e-08
2.12339e-07
-8.74504e-07
1.53549e-07
1.90975e-07
2.22974e-07
4.70995e-07
-2.82072e-07
7.37996e-07
-1.6191e-07
-8.33485e-07
7.86994e-07
-6.33445e-07
-9.27866e-08
-3.34647e-07
3.72584e-07
-3.79372e-08
-6.3469e-07
-1.19564e-07
2.09e-07
2.278e-07
-4.83903e-07
-3.21957e-07
-7.25837e-08
-3.26778e-07
3.96911e-07
-4.33295e-07
2.64979e-07
2.10221e-07
-3.90128e-08
-4.36687e-08
4.34831e-08
7.73869e-08
1.71392e-07
1.88608e-07
1.16883e-07
1.03825e-07
-4.49234e-07
3.55733e-07
9.35009e-08
-6.74944e-07
-2.80958e-07
4.34717e-07
-2.32729e-07
1.30102e-07
1.14698e-07
1.31585e-07
7.73992e-08
-6.52087e-07
-3.3097e-07
1.36588e-07
1.08212e-07
-2.00152e-07
1.38328e-07
1.64182e-07
1.21875e-08
-3.65791e-07
-1.76541e-07
2.73399e-07
-7.94507e-07
-1.85673e-10
1.9427e-07
-3.94061e-07
-5.51731e-08
4.79376e-07
-4.18209e-07
1.45729e-08
-1.54614e-07
4.46156e-07
3.01494e-07
2.3541e-07
2.07578e-07
-9.33045e-07
-1.38239e-07
-7.76815e-07
9.27059e-08
1.21248e-09
-1.40457e-07
2.43892e-08
-1.53795e-07
-2.25271e-07
-1.66184e-07
-8.24466e-08
9.27496e-08
1.14828e-07
-2.04293e-07
-3.16883e-07
-1.03611e-07
-2.89029e-07
2.08013e-07
-1.54336e-07
-2.46202e-07
-3.89762e-07
1.66072e-07
1.55879e-07
-6.19627e-07
4.31536e-07
1.88091e-07
-6.45112e-08
-6.60425e-07
2.16673e-07
2.43174e-08
-4.49572e-07
-3.69744e-07
-6.45112e-08
-2.2558e-07
1.054e-08
-1.87081e-07
-4.24979e-08
-1.87483e-07
6.73901e-07
-2.8002e-07
1.8236e-07
2.0681e-08
-8.38916e-08
7.9852e-07
6.25396e-08
-4.0332e-07
2.15625e-07
1.87695e-07
-1.72517e-07
-2.22087e-07
-2.14713e-07
-4.57042e-07
-1.70507e-07
-5.0488e-07
2.75892e-08
9.39085e-07
4.2859e-07
-1.16114e-07
3.97809e-07
-3.57497e-08
-2.45327e-09
-3.52458e-07
7.19536e-08
4.67036e-09
3.52458e-07
-7.19536e-08
2.3979e-07
3.97809e-07
2.05018e-07
-4.74807e-07
-1.3715e-07
7.30135e-07
-5.84016e-07
3.20927e-07
-2.36686e-07
8.87139e-09
2.74445e-07
1.33415e-08
-7.89651e-08
-1.67114e-07
-1.73084e-07
-3.19277e-08
-2.36686e-07
2.52535e-07
-7.32613e-08
-1.05334e-07
-8.28972e-09
1.87434e-07
-6.69071e-08
-1.61196e-08
7.89651e-08
-1.23974e-07
1.67114e-07
-1.22105e-07
1.73084e-07
-2.56205e-09
-1.87434e-07
1.69119e-08
6.69071e-08
-2.52535e-07
2.74445e-07
-1.05334e-07
-6.40798e-07
-7.59476e-07
-5.471e-07
-4.76793e-07
6.58819e-07
2.23226e-07
-1.60686e-07
1.3273e-07
9.90906e-08
9.66904e-08
7.62351e-07
-5.669e-07
5.39231e-08
-4.2834e-07
9.90906e-08
2.9101e-07
-2.38235e-08
-1.19333e-07
1.48001e-07
4.10164e-07
1.57968e-07
-4.43439e-08
-1.57968e-07
-1.89702e-07
2.20564e-07
-3.08621e-08
-4.78329e-07
1.04655e-07
2.01462e-07
-3.52374e-07
3.92839e-07
4.88728e-07
-6.25265e-07
-6.98157e-08
4.16383e-07
9.62228e-08
-1.44242e-07
2.73763e-07
2.75798e-08
-2.21997e-07
3.64098e-07
5.54029e-08
-4.18783e-07
4.18783e-07
-3.58867e-07
-2.62998e-07
-2.84888e-07
2.73763e-07
2.48174e-07
-1.3069e-08
2.83562e-07
-6.96793e-08
-4.35635e-07
4.32447e-07
-4.08084e-07
3.07724e-07
-8.63031e-07
1.0157e-07
-1.0157e-07
-1.68544e-07
-2.28379e-07
-5.21032e-08
5.21032e-08
-6.0199e-08
6.0199e-08
-2.46821e-07
3.90968e-08
6.30576e-08
1.14056e-07
5.67307e-08
-1.70787e-07
3.67466e-07
-3.67466e-07
9.05952e-08
2.50607e-07
2.95087e-07
6.0761e-08
-5.95542e-07
9.43658e-08
-2.43571e-07
-2.77388e-08
-3.47097e-07
-7.41954e-07
6.25455e-08
6.6138e-09
-1.55028e-07
-5.79822e-08
-2.02109e-07
-1.69978e-08
-1.08836e-07
-9.32734e-08
-7.38877e-07
-5.56308e-08
-1.64265e-07
-1.72097e-07
-5.5282e-07
7.60266e-08
-1.66184e-07
-9.82602e-08
3.96481e-07
7.78487e-08
-1.46629e-07
-1.84676e-07
1.84676e-07
1.23408e-08
2.6192e-07
-4.60268e-07
-8.15941e-08
-1.19265e-07
1.19265e-07
-7.02677e-07
2.10279e-07
-9.72687e-09
9.5412e-09
-7.06845e-07
7.87671e-08
7.74911e-08
-1.56258e-07
-2.33247e-07
9.01163e-08
1.43131e-07
-5.27826e-08
-2.52908e-08
1.64329e-07
-1.74056e-07
-1.93009e-07
-4.6801e-08
4.6801e-08
1.35827e-07
2.25442e-07
2.84786e-07
1.63276e-07
-2.7939e-07
3.02165e-08
-1.89981e-07
4.4399e-08
-9.74207e-08
3.06562e-07
-2.27795e-07
1.26177e-07
1.93326e-07
5.69691e-08
1.96573e-09
-1.72473e-07
-5.81966e-08
9.68489e-08
-3.20426e-07
9.51553e-08
-6.25455e-08
2.56935e-07
-2.56593e-08
2.66403e-07
1.36081e-09
2.55574e-07
5.42678e-08
2.12135e-07
3.20146e-07
3.50745e-07
6.79932e-07
4.22058e-07
6.32836e-07
3.88785e-08
-3.01402e-07
2.47134e-07
1.97756e-07
1.234e-07
1.2472e-07
-4.81934e-08
2.1209e-07
2.53707e-07
-2.20446e-07
3.21507e-07
-1.43263e-09
-2.70019e-07
-4.93366e-08
2.22845e-07
1.40316e-07
-2.13477e-07
2.87823e-07
7.48038e-08
-2.51993e-07
1.65833e-08
3.88026e-07
-3.11999e-07
3.85464e-07
-3.64945e-07
1.52611e-07
2.22659e-07
3.09367e-08
-6.78067e-07
3.21568e-08
1.39503e-07
1.97897e-07
5.1317e-08
1.0639e-07
2.1123e-07
-1.84352e-07
6.38049e-08
-1.79362e-07
2.74518e-07
5.98167e-09
-2.93456e-09
)
;

boundaryField
{
    back
    {
        type            empty;
        value           nonuniform List<scalar> 0();
    }
    front
    {
        type            empty;
        value           nonuniform List<scalar> 0();
    }
    top
    {
        type            calculated;
        value           nonuniform List<scalar> 10(-4.368e-07 -4.752e-07 -3.6e-07 -2.448e-07 -2.448e-07 -3.6e-07 -4.368e-07 -9.12e-08 -9.12e-08 -4.752e-07);
    }
    outer_arc
    {
        type            calculated;
        value           uniform 0;
    }
    bottom
    {
        type            calculated;
        value           nonuniform List<scalar> 10(7.54254e-07 3.99362e-07 8.26816e-08 -1.2087e-07 -2.20708e-07 9.55901e-07 -2.08985e-07 9.83057e-07 -1.23257e-07 7.14563e-07);
    }
    inner_arc
    {
        type            calculated;
        value           uniform 0;
    }
}


// ************************************************************************* //
