/*--------------------------------*- C++ -*----------------------------------*\
  =========                 |
  \\      /  F ield         | OpenFOAM: The Open Source CFD Toolbox
   \\    /   O peration     | Website:  https://openfoam.org
    \\  /    A nd           | Version:  9
     \\/     M anipulation  |
\*---------------------------------------------------------------------------*/
FoamFile
{
    format      ascii;
    class       volVectorField;
    location    "2.89";
    object      U;
}
// * * * * * * * * * * * * * * * * * * * * * * * * * * * * * * * * * * * * * //

dimensions      [0 1 -1 0 0 0 0];

internalField   nonuniform List<vector> 
942
(
(0.0214622 -0.0697966 0)
(-0.0125152 0.0335668 2.52993e-17)
(0.039108 0.110509 0)
(0.00937472 -0.0788334 -1.33793e-17)
(0.0394795 0.121457 8.02705e-18)
(0.0383173 -0.0305225 1.41484e-17)
(0.00726953 -0.0103084 3.72099e-17)
(0.0461486 -0.0351803 0)
(0.00406058 -0.0484682 -2.93033e-17)
(0.0049031 -0.0530996 2.98691e-17)
(0.0810172 0.0483793 0)
(0.110499 -0.0559924 0)
(0.00891673 -0.0802053 1.24776e-17)
(0.0703168 0.0705126 0)
(0.125394 -0.0524896 0)
(-0.0016013 0.0260434 -2.75464e-17)
(0.0172602 -0.0409024 -1.08423e-17)
(0.0185503 -0.0696951 0)
(0.0323879 0.016938 -3.24795e-18)
(-0.0411753 -0.0158768 4.95773e-18)
(0.0242404 -0.0441738 1.84357e-17)
(0.106279 -0.0650387 1.4805e-17)
(0.0137964 -0.0250357 0)
(-0.00885515 -0.0316754 -2.93935e-17)
(0.0888224 0.042648 0)
(-0.0126013 -0.0392757 2.2088e-17)
(0.0443556 0.117981 0)
(0.0155632 -0.0341347 1.87589e-17)
(-0.0211137 -0.0336429 0)
(0.0143489 -0.0509677 1.18465e-17)
(-0.0176755 -0.0316559 1.4888e-17)
(0.0372532 0.109981 0)
(-0.016194 -0.0287165 1.40168e-17)
(-0.0490043 0.0582479 1.64324e-17)
(0.0507153 0.100111 -1.61256e-17)
(0.017617 -0.0163719 3.09546e-17)
(0.0347924 -0.0524106 1.04504e-18)
(0.0052822 -0.0411534 0)
(0.0345657 -0.0543956 -5.33703e-19)
(-0.00946281 -0.0256871 2.09813e-17)
(-0.0867376 0.0198214 -2.93367e-17)
(0.0392067 -0.108076 0)
(-0.00289747 -0.00801276 -1.45096e-17)
(0.0099665 -0.0176532 -1.24053e-17)
(0.00987992 -0.0149101 -3.13827e-17)
(0.0198027 -0.0119718 7.09754e-18)
(0.0609423 0.0149658 -1.4352e-17)
(-0.0385416 0.0615951 -1.35504e-17)
(-0.107702 0.0155691 1.50809e-17)
(0.0814909 0.0761138 1.7618e-17)
(0.0432875 0.0126761 0)
(0.00649057 -0.011451 0)
(0.0115356 -0.0102228 -2.08735e-17)
(0.00137961 -0.0337958 1.66438e-17)
(0.00502222 -0.0656409 0)
(-0.0591332 -0.0656016 -1.10287e-17)
(0.0314834 -0.000360121 -2.78845e-17)
(0.0063136 -0.0687603 -2.0012e-18)
(0.0417181 -0.00429211 3.57214e-17)
(0.0854757 0.118042 1.54013e-17)
(0.0108489 -0.0377643 -1.47264e-17)
(0.0479055 0.107789 -3.79414e-17)
(-0.0193778 0.0742325 1.76514e-17)
(0.0217456 -0.0636176 -1.4433e-17)
(0.00727667 -0.0418308 1.36867e-17)
(0.0412174 0.0236662 1.05234e-17)
(0.0405874 0.100179 2.96663e-17)
(0.0516795 0.0591507 -1.35753e-17)
(-0.0731915 -0.0281815 1.39774e-17)
(0.0221401 -0.041937 3.84706e-18)
(-0.0243717 0.0247063 0)
(0.00589519 -0.0334612 0)
(0.00336445 0.00989513 -1.82842e-18)
(0.0138235 -0.0572595 3.55211e-18)
(-0.00100535 -0.0351614 -1.57712e-17)
(-0.0558955 -0.0181283 6.97483e-22)
(-0.0604027 -0.0130296 1.82694e-18)
(0.0429587 0.0905972 1.63891e-17)
(-0.0104771 -0.0211619 -1.78173e-17)
(0.0132379 0.0344699 -3.60405e-18)
(0.0166349 -0.0171427 2.13489e-17)
(-0.0170436 -0.0377143 -7.68716e-18)
(0.0584213 0.00693366 -1.93819e-18)
(0.0234699 0.0248896 7.93254e-18)
(0.0477843 0.00888488 0)
(0.0309294 0.128709 0)
(0.0661264 0.105822 -1.61386e-17)
(0.106989 -0.0245131 4.44776e-18)
(0.0730237 0.0817846 0)
(0.0602341 -0.00728335 2.21637e-17)
(0.0361752 -0.124523 -1.12611e-17)
(0.0252832 0.0454324 5.11685e-19)
(0.00629462 -0.0749131 2.25195e-18)
(-0.0526373 -0.0662879 0)
(-0.033289 -0.0729412 -4.35138e-18)
(-0.0116992 -0.0295301 8.05307e-18)
(0.0236022 -0.091498 1.38299e-17)
(0.0970288 -0.0168927 -1.29215e-17)
(0.0272405 -0.0293394 -1.92508e-17)
(0.00686029 -0.0328162 -2.74912e-17)
(0.00976077 -0.0328762 -8.26261e-18)
(0.00541005 -0.0769715 9.3239e-18)
(0.0640263 0.00581363 0)
(0.0206385 -0.0362933 1.0584e-17)
(-0.0119148 -0.101257 -1.66855e-17)
(0.00966541 -0.0306139 -2.69849e-17)
(0.0206632 -0.0153258 -9.53828e-18)
(-4.70287e-05 -0.0207888 0)
(0.0133622 0.0612095 1.46727e-17)
(0.0528235 0.0385177 0)
(-0.0364775 -0.0320517 0)
(-0.0877556 -0.0107202 -1.47479e-17)
(0.0711877 0.0808862 2.94034e-17)
(0.00560686 -0.0376988 0)
(0.0888815 0.0633428 0)
(0.013873 0.024331 1.99581e-18)
(0.103051 0.077918 -1.5835e-17)
(0.0122984 -0.0775998 1.69076e-17)
(0.00373676 -0.0159497 4.1775e-23)
(0.059466 0.0646094 -1.93656e-18)
(0.00505296 -0.0146885 6.4394e-18)
(0.00309008 -0.0259797 -1.66447e-17)
(-0.00066093 -0.000694737 0)
(-0.0127334 0.00975255 1.46517e-17)
(0.00763753 0.00824471 1.18715e-17)
(-0.00886021 -0.0329076 -3.16101e-17)
(0.00277676 -0.00440503 1.66977e-17)
(-0.00429361 -0.00926904 -1.59671e-17)
(0.00213788 -0.00759689 2.91947e-17)
(0.00627537 -0.0100553 1.52436e-17)
(0.051643 0.0246859 -7.83823e-18)
(0.0495934 0.023904 -1.81397e-17)
(0.057793 0.0185688 0)
(-0.0809277 0.0352305 0)
(-0.00449609 0.043593 -1.62889e-17)
(0.0345448 0.0131363 -1.13404e-17)
(-0.0313433 -0.000442679 9.90725e-19)
(0.0476946 0.0223604 0)
(-0.0884812 0.0112205 2.01941e-17)
(-0.133289 0.0255089 -6.89068e-18)
(-0.129025 0.0298694 1.62148e-17)
(0.0151773 0.00166521 0)
(0.0964159 0.0647611 -1.61871e-17)
(-0.00110795 -0.0212432 1.75556e-17)
(0.039352 -0.0283174 -4.09487e-18)
(-0.0178815 -0.0307547 -7.42606e-18)
(0.0165147 -0.0323912 0)
(0.00743408 -0.0388186 -9.82507e-18)
(0.0261811 -0.03388 2.48048e-17)
(0.0361786 0.133777 0)
(0.0474322 -0.0343535 4.4271e-18)
(0.0921956 0.11827 4.85261e-18)
(0.0441188 0.0748448 0)
(0.0239892 -0.0373591 9.20256e-18)
(0.044218 0.082319 -1.6038e-17)
(0.0304865 -0.0492067 0)
(0.0529277 0.000146673 1.80682e-17)
(0.00181594 -0.0160018 0)
(0.0984849 0.103529 0)
(-0.034254 -0.0221756 6.68527e-18)
(0.0725293 0.00363746 -2.33307e-17)
(0.025508 -0.0402251 0)
(0.00638414 -0.0768256 0)
(0.0570259 -0.0405338 8.2386e-18)
(0.0727365 0.120494 0)
(0.0527751 0.0714553 -2.44476e-17)
(0.0121034 -0.0370669 0)
(0.0261073 -0.0453263 0)
(0.00575055 -0.0300854 1.4481e-17)
(0.072089 0.0206104 1.72025e-17)
(0.0123777 0.0880725 -1.42949e-17)
(-0.0984173 -0.00926035 -1.89451e-18)
(-0.0239151 -0.0345291 6.39578e-22)
(0.014164 -0.0360444 9.25299e-18)
(0.032889 0.143178 0)
(0.0223631 -0.0612841 -1.79601e-17)
(-0.0182644 -0.0297455 -1.70511e-17)
(0.0204586 -0.0626809 0)
(-0.0316052 -0.0887189 5.88481e-19)
(0.0275202 -0.06432 0)
(0.0187551 -0.0305139 -1.08047e-17)
(-0.0183026 -0.0341578 0)
(0.0306892 -0.0420028 -2.12069e-17)
(0.0254605 -0.0660704 2.32037e-22)
(0.0159095 -0.0656294 -1.06968e-17)
(-0.0216435 -0.0404817 0)
(0.126169 0.0133483 -8.42186e-18)
(0.0331426 0.0785563 1.69094e-17)
(0.0444048 0.147237 2.40034e-17)
(0.030937 -0.0683299 8.08819e-18)
(0.070268 0.131435 3.23971e-17)
(0.0328333 -0.0667305 -8.10607e-18)
(0.0179822 -0.0484035 -1.02728e-17)
(-0.010791 -0.0189956 -1.55684e-17)
(0.0299223 0.0633675 8.56286e-18)
(0.0110515 -0.0787084 -7.69964e-18)
(0.0347355 0.0640273 0)
(0.0176382 -0.0538498 2.7521e-17)
(-0.0808378 0.0393787 -1.98065e-17)
(0.000874004 -0.00804622 1.49951e-17)
(0.000737823 -0.00986446 0)
(0.0139279 -0.0785215 7.81646e-18)
(0.0132389 0.025898 0)
(0.00497935 -0.0397342 -1.81828e-17)
(0.0954687 0.0398679 1.71424e-17)
(-0.0657956 -0.0405478 0)
(-0.0183964 -0.0601917 1.71267e-17)
(0.0455585 0.111545 -3.72591e-17)
(0.000583179 -0.0104502 -1.44868e-17)
(-0.00190657 -0.0273597 1.43312e-17)
(0.0384014 0.0801508 -8.30333e-18)
(0.0150951 -0.0754844 3.46691e-22)
(0.00788597 -0.0587522 1.32692e-17)
(0.0591978 0.127736 7.89091e-18)
(0.00528534 0.00374571 0)
(0.0249401 -0.0768396 -8.48855e-23)
(0.0451981 0.152052 -1.97127e-17)
(0.0800398 0.129244 1.6561e-17)
(0.0443518 0.0839427 1.64523e-17)
(0.0401105 0.0695315 -9.26203e-23)
(0.0296604 -0.0753354 0)
(0.0233531 -0.0768089 -1.58994e-17)
(0.0359407 -0.0695954 0)
(0.0200762 -0.0769114 0)
(0.00175894 -0.00965425 -1.66005e-17)
(0.0132676 0.0467876 1.64979e-17)
(0.064583 0.129757 -1.16242e-17)
(0.0339846 -0.0729145 -1.63347e-17)
(0.00212692 -0.00747215 2.43339e-17)
(0.0275372 0.0407624 0)
(-0.0209681 -0.0336989 -1.51825e-17)
(0.0525723 0.122914 -2.91362e-17)
(0.0143918 0.0346053 1.59829e-17)
(0.00309542 -0.00894175 -8.7476e-18)
(0.0280366 -0.0764327 -8.21623e-18)
(0.0129832 -0.0723073 2.78064e-22)
(0.0781783 0.128094 -1.71818e-17)
(0.0327778 -0.0750262 1.64103e-17)
(0.0144533 0.022767 -1.57785e-17)
(0.0505501 0.0889513 1.62754e-17)
(0.045834 0.0764163 0)
(0.0262007 -0.0425833 -4.00311e-18)
(0.0383194 -0.0731601 8.0927e-18)
(0.0208759 -0.0532676 -9.14764e-18)
(0.0259127 -0.0564595 -1.61868e-17)
(0.0118522 0.0220285 -1.63976e-17)
(0.0376555 -0.0700082 8.1439e-18)
(0.0231277 -0.076687 -8.82563e-18)
(0.0370421 -0.0728175 -1.63409e-17)
(0.0175538 0.0294451 4.03511e-18)
(0.0681873 0.135106 -4.09263e-18)
(-0.0449534 -0.0270088 -1.50842e-17)
(0.0729516 0.13212 0)
(0.00440735 0.0134523 1.219e-17)
(0.0311914 -0.059782 1.60812e-17)
(0.0179871 -0.0750726 1.78736e-17)
(0.0363766 -0.0731929 0)
(0.0376797 -0.0678186 0)
(0.0787926 0.122626 -8.10036e-18)
(0.0217866 -0.0498262 9.11234e-18)
(0.027637 -0.0738311 -8.04002e-18)
(0.085824 0.127452 7.96211e-18)
(0.0632181 0.120808 -1.99939e-17)
(0.0357844 -0.0621373 -4.25049e-18)
(0.034888 -0.0662463 8.46035e-18)
(0.00675154 -0.0496737 0)
(0.0268922 -0.0539472 0)
(0.0420741 -0.0678205 0)
(-0.0132902 -0.0209206 1.54367e-17)
(0.0410866 -0.0702443 8.23591e-18)
(0.0405729 -0.0668596 1.55867e-17)
(0.0549784 0.145067 -1.49122e-17)
(-0.0498041 0.00869413 1.75969e-17)
(0.0592667 0.136418 -7.86398e-18)
(0.05154 0.110227 1.65422e-17)
(0.0822311 0.12615 -1.64824e-17)
(0.000213886 -0.000798397 0)
(0.0477872 -0.0554707 0)
(0.065691 0.121965 -8.1523e-18)
(0.00869426 -0.00951892 -1.69587e-17)
(0.0315393 -0.057486 0)
(0.0172725 -0.0190715 -1.39486e-18)
(0.015361 -0.0202904 1.72147e-17)
(0.0482298 -0.0604931 0)
(0.0676216 -0.0406065 3.21451e-17)
(0.107959 0.10817 -1.58599e-17)
(0.0435961 -0.0622155 2.41784e-17)
(0.0461976 -0.0667449 1.60738e-17)
(0.0358299 -0.0592259 4.16393e-18)
(0.0399916 -0.0630127 4.13908e-18)
(0.05707 -0.0358713 -1.6315e-17)
(-0.0174805 0.0185897 1.91957e-17)
(0.0806399 0.116977 -7.37222e-18)
(0.041086 -0.0577979 1.81195e-17)
(0.0414994 -0.0471703 4.58352e-18)
(0.0407666 -0.0303787 -1.47328e-17)
(0.106167 0.135354 0)
(0.105814 0.12539 8.22233e-18)
(0.109955 0.139131 7.63958e-18)
(0.108613 0.0871846 0)
(0.127928 -0.00495408 0)
(0.043235 -0.0582997 -8.27212e-18)
(0.130165 0.0561449 -3.70912e-18)
(0.10218 -0.062993 -2.58368e-17)
(0.129048 -0.023161 -2.56272e-17)
(0.0408376 -0.0723376 8.07051e-18)
(0.0681808 -0.133463 -2.55569e-17)
(0.0407019 -0.00786392 0)
(-0.0363343 -0.0198193 -7.43837e-18)
(0.0136601 0.0211092 1.56085e-17)
(0.00321906 -0.00797221 1.26494e-17)
(0.0212489 0.00787212 -1.13118e-22)
(0.0102542 -0.00928524 -2.23915e-18)
(-0.0150008 0.00451093 -1.55975e-17)
(0.0480951 -0.071842 3.46835e-22)
(0.0211674 0.025122 2.50843e-17)
(0.00634654 -0.00885006 -1.70904e-17)
(0.0227784 0.00065941 7.67784e-23)
(-0.0107001 -0.0133195 -4.42499e-18)
(0.0283039 -0.0158736 0)
(-0.0370497 -0.00833678 -4.5625e-18)
(0.0139191 0.019306 0)
(0.00278179 -0.00464887 1.79322e-17)
(0.0174207 0.00699038 -3.20649e-17)
(-0.00988415 0.0547485 -2.01797e-17)
(0.094625 0.122477 -1.63795e-17)
(0.0305294 0.0236098 0)
(0.0458148 -0.0646508 -8.3419e-18)
(0.0537362 -0.0932726 0)
(0.0114428 -0.0101939 0)
(0.0595404 -0.0435479 -3.22222e-17)
(0.0435924 -0.0646839 -1.4224e-17)
(0.0632078 -0.0611247 8.10079e-18)
(0.122866 0.0183811 -1.45978e-17)
(0.0595755 -0.0532736 0)
(0.0741612 -0.0362844 1.611e-17)
(0.0873488 -0.0999475 9.22269e-18)
(0.054947 0.000944659 -4.75877e-19)
(0.0542455 -0.0160047 0)
(0.00286439 -0.0114223 -1.6021e-17)
(0.126424 -0.018869 2.35722e-17)
(0.02233 -0.0240929 -1.6217e-17)
(0.0591128 -0.134637 -4.19345e-18)
(0.100604 -0.0296664 -4.01282e-17)
(0.104881 0.0854867 -1.63209e-17)
(0.0421483 -0.04097 0)
(0.108008 0.0420058 1.66447e-17)
(0.055594 -0.0754591 1.61503e-17)
(0.0447808 -0.0688986 1.60706e-17)
(0.11009 0.119693 -8.01345e-18)
(0.0758444 -0.0278666 1.61166e-17)
(0.123979 0.133383 8.24676e-22)
(0.0510733 -0.066476 -4.10716e-17)
(0.139401 0.113334 -8.42384e-18)
(0.0757281 -0.00239474 -1.4378e-17)
(0.0531017 -0.0504779 0)
(0.117583 -0.00462559 1.6363e-17)
(0.0478427 -0.0657938 0)
(0.124809 -0.0445231 8.01726e-18)
(0.0481214 -0.0230366 1.62266e-17)
(0.15124 0.0599784 2.05618e-17)
(0.0825003 -0.0747597 0)
(0.137779 -0.0246281 -2.26613e-18)
(0.0439834 -0.0674022 1.37222e-17)
(0.129393 -0.0539256 -1.62838e-17)
(0.147754 0.0116298 8.50615e-18)
(0.0866933 -0.0709367 -8.21657e-18)
(0.0398636 0.0213484 3.72128e-17)
(0.0899299 -0.13401 2.42467e-17)
(0.000395305 -0.0115854 -4.23421e-18)
(0.0307861 0.0703143 0)
(0.105176 -0.0198628 1.58962e-17)
(0.0387312 0.0134956 -8.08931e-18)
(0.0659081 -0.0990592 -1.56259e-17)
(0.11534 -0.043402 8.10879e-18)
(0.0990964 0.100573 8.03724e-18)
(0.130609 -0.0397054 8.11673e-18)
(0.0984554 0.0620846 1.66884e-17)
(0.0464232 -0.0696601 7.92948e-18)
(0.109248 0.125543 7.99565e-18)
(-0.000478302 0.00236899 1.8256e-17)
(0.00250499 -0.00701579 0)
(-0.0396788 0.0220232 1.62952e-17)
(-0.0099747 -0.0132486 0)
(0.0344493 0.0167414 4.04594e-18)
(0.128183 0.124444 2.52374e-17)
(0.14036 -0.0174256 3.20887e-17)
(0.151233 -0.0415447 2.47855e-18)
(0.105836 0.0182227 -3.33417e-17)
(0.146522 0.0886673 -3.38234e-17)
(0.0411165 0.0118626 -8.27139e-18)
(-0.0790791 0.0159911 -4.11793e-18)
(0.0571514 -0.0473883 0)
(0.114353 0.0563014 1.65957e-17)
(-0.0822616 0.024219 4.32999e-18)
(0.0692021 -0.0624678 0)
(0.100125 -0.0893507 1.59046e-17)
(0.00890972 0.0112748 4.24996e-18)
(0.0186186 0.00873385 8.38522e-18)
(-0.0429752 -0.00201236 -1.05687e-18)
(-0.0970535 0.0277325 -7.2397e-18)
(0.0616138 -0.0735182 -2.4032e-17)
(0.137019 -0.0112808 0)
(0.0776219 -0.0683377 7.63239e-18)
(0.106127 -0.116343 0)
(0.0939818 -0.0475869 0)
(0.0249327 -0.0323319 0)
(0.118503 -0.0259222 0)
(0.0713563 -0.117156 8.00521e-18)
(0.00429744 -0.00478962 2.44679e-17)
(0.00763648 0.00398212 -1.75003e-17)
(0.158501 0.00204896 8.04493e-18)
(0.088654 -0.0937828 0)
(0.158101 0.0254729 2.41414e-17)
(0.140555 -0.0815231 0)
(0.0492992 -0.0688792 -8.09235e-18)
(0.0502886 -0.0682667 8.10288e-18)
(0.0768377 -0.0839403 8.00706e-18)
(0.083979 -0.0405836 1.61324e-17)
(0.0719297 -0.0848774 8.01241e-18)
(0.0736677 -0.066329 1.68206e-17)
(0.0986793 -0.123739 -3.21856e-17)
(0.0639962 -0.0520604 0)
(0.0609311 -0.0649911 -7.99212e-18)
(0.12399 -0.108037 1.60444e-17)
(0.155903 -0.00736967 -1.60761e-17)
(0.1142 -0.0493465 0)
(0.0115472 -0.0325287 1.69426e-17)
(0.152515 0.0564385 1.61658e-17)
(0.0799034 0.0347673 -3.00235e-17)
(0.116602 -0.00484379 0)
(0.149908 0.085784 1.61496e-17)
(0.137223 0.0249674 0)
(0.0670139 -0.0477015 0)
(0.0194142 -0.022366 0)
(0.07641 -0.0704357 0)
(0.101041 0.110426 2.40489e-17)
(0.0688697 -0.0663165 0)
(0.0841384 -0.118743 8.07517e-18)
(0.140357 0.0523089 -1.69496e-17)
(0.0671103 -0.0728088 7.99785e-18)
(0.115635 -0.0823131 -1.47252e-17)
(0.0818806 0.0550917 -1.6178e-17)
(0.110614 0.0764242 0)
(0.0489771 -0.0675346 -1.60934e-17)
(0.160846 0.0335966 -2.41547e-17)
(0.126132 -0.0554262 0)
(0.11122 -0.0588613 0)
(0.0864455 -0.0973137 0)
(0.0548658 -0.068645 1.60919e-17)
(0.0989425 -0.0271378 1.54395e-21)
(0.0855435 -0.0494868 -2.1031e-21)
(0.0413723 -0.0442032 -1.66996e-17)
(0.0599065 -0.0677811 0)
(0.11142 -0.0574389 0)
(0.0972347 -0.0443302 0)
(0.119642 -0.0585458 0)
(0.0121519 0.0539148 0)
(0.0539726 -0.0675374 -8.06369e-18)
(0.0893213 -0.0557303 -1.63899e-17)
(0.125674 0.111867 2.41072e-17)
(0.0860644 0.0892017 -8.05009e-18)
(-0.0230017 -0.03976 1.62458e-17)
(0.0968693 -0.0421244 -8.0322e-18)
(0.0589619 -0.00168192 8.21019e-18)
(0.0722142 -0.0412325 -8.06907e-18)
(0.0536659 -0.0575045 0)
(0.129346 0.0945394 -1.61309e-17)
(0.101174 0.106589 -3.20408e-17)
(0.114838 0.00774535 0)
(0.0804702 0.0967325 -1.60702e-17)
(0.0493963 0.0587509 -1.63771e-17)
(0.0711264 0.0700431 0)
(0.160622 -0.0365951 0)
(0.0932216 -0.0228197 -1.13157e-21)
(0.0858692 0.117183 7.3151e-18)
(0.108093 -0.117662 0)
(0.0562522 -0.00793147 -2.42499e-17)
(0.149281 -0.0649061 0)
(0.0668372 -0.0164811 0)
(0.0425211 -0.0715691 -1.59965e-17)
(0.0843885 -0.00940026 -1.61435e-17)
(0.0868264 0.014939 0)
(0.108491 -0.0180452 -1.60963e-17)
(0.126088 -0.108948 -8.02993e-18)
(0.110457 -0.0482913 1.60671e-17)
(0.159131 -0.0239457 -1.64594e-17)
(0.0719357 0.0344465 1.6199e-17)
(0.103114 -0.0987353 0)
(0.111738 0.0310051 -8.04925e-18)
(0.117316 0.0386957 -2.83934e-17)
(0.116381 -0.0568086 0)
(0.12128 0.0163019 0)
(0.0811813 -0.00529536 2.41768e-17)
(0.0449958 -0.0707293 -1.57222e-17)
(0.0874868 0.120425 0)
(0.115357 -0.0326764 1.6075e-17)
(0.0800232 0.125407 3.37825e-17)
(0.12122 -0.0551218 -1.60435e-17)
(0.0540922 -0.0660056 0)
(0.101272 -0.0391797 3.41992e-17)
(0.0961414 0.0208582 8.0474e-18)
(0.0566224 -0.0625835 0)
(0.0823975 0.0848478 1.60641e-17)
(0.0131799 0.00520176 -8.89171e-18)
(0.0691316 0.102159 0)
(0.0483514 0.0276025 0)
(0.0165699 0.0537467 0)
(0.0382779 0.00252333 1.42554e-17)
(0.0313835 0.0597273 -7.80151e-18)
(0.128512 -0.0939713 -1.9562e-17)
(0.0904417 0.0429816 0)
(0.0970528 0.112616 8.23635e-18)
(0.0733649 0.0304869 -1.61227e-17)
(0.11651 0.0628667 2.70969e-17)
(0.0507968 -0.06482 0)
(0.10143 0.10884 -6.95651e-18)
(0.0961892 0.0945126 0)
(0.0404388 0.06662 0)
(0.0283916 -0.00938978 0)
(0.139264 -0.059089 0)
(0.0370752 0.00910716 8.13568e-18)
(0.0596403 0.0801255 0)
(0.0999018 0.0746834 0)
(0.056323 0.0785083 -8.14207e-18)
(0.0828427 0.0736359 -7.98979e-18)
(0.118821 -0.0292721 0)
(0.0682277 0.088457 0)
(0.11677 -0.0440839 0)
(0.0806105 0.0854401 3.20981e-17)
(0.0347835 0.0412042 2.45341e-17)
(0.118549 -0.00786334 0)
(0.141873 -0.0748715 1.38387e-17)
(0.0640538 0.113343 -1.62247e-17)
(0.0691042 0.0505596 1.61272e-17)
(0.0585636 0.0875424 -1.61232e-17)
(-0.0023095 -0.0114011 -1.31803e-22)
(0.106642 0.0962532 0)
(0.0405812 -0.0696785 0)
(0.068398 0.124213 1.55674e-17)
(0.0252903 -0.0646893 0)
(0.114188 0.0595395 0)
(0.0450929 -0.0131082 -1.4398e-17)
(0.0395177 -0.0596078 -2.04083e-17)
(0.0267075 0.0072384 0)
(0.0239107 0.0292416 -1.61549e-17)
(0.112232 0.0823875 0)
(0.0547517 0.03629 -1.61493e-17)
(0.030385 0.035938 -8.09282e-18)
(0.0336777 0.0498465 3.23773e-17)
(0.0532939 0.0539972 0)
(0.0806144 0.1014 -1.60513e-17)
(0.0685683 0.116715 8.08216e-18)
(0.0408856 0.0390485 0)
(0.0647572 0.133806 2.02431e-17)
(0.0419331 0.0542245 -8.09304e-18)
(0.055981 0.0940926 -1.6185e-17)
(0.0950247 -0.0243475 -1.50835e-17)
(0.0620144 0.139136 -8.14738e-18)
(0.104165 -0.0022356 0)
(0.0793389 0.128377 -1.62122e-17)
(0.0337797 -0.0741027 0)
(0.0242939 -0.0737617 2.3978e-17)
(0.0616537 0.0992186 2.42125e-17)
(0.0745293 0.130226 1.61581e-17)
(-0.00138096 -0.00777255 3.26941e-17)
(0.0147355 -0.00430166 -8.64908e-18)
(-0.0179223 -0.0304063 -1.64321e-17)
(0.0762011 0.130049 0)
(0.0104793 -0.0582006 0)
(0.0706839 0.123728 -1.61963e-17)
(0.0584411 0.137494 3.37064e-17)
(0.0105453 0.000171366 0)
(0.0516096 0.0831259 -2.4235e-17)
(0.0234787 -0.0730156 -3.20526e-22)
(0.0582253 0.111015 8.17512e-18)
(0.0774712 0.129905 0)
(0.074636 0.126199 8.19704e-18)
(0.0702842 0.119229 -2.43264e-17)
(0.051899 0.0921172 0)
(0.0184054 -0.0764539 1.85536e-17)
(0.0373787 0.12513 -3.49348e-17)
(0.00158297 -0.0729369 0)
(0.0728176 0.12046 0)
(0.0314347 -0.0731578 -1.61918e-17)
(0.0287485 -0.0741433 0)
(0.0655071 0.114494 1.61987e-17)
(0.0226738 0.0662232 4.72004e-19)
(0.0133838 -0.0659943 -1.77358e-17)
(0.0593915 0.121548 -1.64256e-17)
(0.00890968 -0.0897852 -1.328e-17)
(0.0261656 -0.0720373 1.62609e-17)
(0.00189617 -0.079417 0)
(0.00732643 0.0136809 0)
(-0.00273837 -0.0201025 5.61208e-17)
(0.00142186 -0.0600591 -3.6108e-17)
(0.00159267 -0.0368405 -3.55948e-17)
(0.0824279 -0.0305697 0)
(0.0423603 0.158615 1.73221e-17)
(0.0179638 -0.0703449 -2.53796e-17)
(0.0206054 -0.0693674 2.55305e-17)
(0.000880127 -0.0405995 0)
(0.00440569 -0.0349214 -1.78575e-17)
(0.036539 0.163235 -5.35802e-17)
(0.00110221 -0.0408249 -1.6918e-17)
(-0.00487401 -0.0316322 -3.86477e-22)
(0.0344226 0.111513 1.51051e-17)
(0.0155154 -0.0656939 -1.74194e-17)
(-0.0153036 -0.0379034 8.40412e-18)
(0.0192527 0.0487029 0)
(0.0223814 -0.039206 -1.92197e-17)
(0.042998 0.150185 3.91461e-17)
(0.00447159 -0.00385485 -1.89399e-17)
(0.00114546 -0.0323489 4.14197e-22)
(0.0725829 -0.0373838 2.63576e-17)
(0.0599516 0.0364868 2.16495e-22)
(0.0585906 0.0263742 3.18777e-17)
(0.0336669 0.0521269 1.15973e-17)
(0.0283528 -0.0699707 0)
(0.00246785 -0.0511295 1.81354e-17)
(0.0018302 -0.0385025 0)
(-0.0270787 -0.0110932 -1.06983e-17)
(0.0405708 0.161014 -5.60626e-19)
(0.00246406 -0.0285694 0)
(0.0398716 0.154943 5.15801e-19)
(0.0464274 0.126354 1.80785e-17)
(0.00289472 -0.0280415 -2.1096e-17)
(0.00243496 -0.0302797 -5.11564e-18)
(0.0100481 -0.0533845 4.31768e-18)
(0.0508398 -0.00271187 2.50619e-17)
(-0.0321195 -0.00673482 1.88728e-17)
(0.0714617 -0.0182563 -1.99887e-17)
(-0.087374 0.0408049 1.55196e-17)
(0.0317421 -0.0658538 0)
(0.081504 -0.00416067 9.3949e-18)
(-0.0181998 0.0285509 0)
(-0.00804409 -0.0390922 1.50483e-17)
(0.0169486 -0.0559681 0)
(-0.0127886 -0.0251257 -3.58324e-17)
(0.109288 -0.00286804 -1.92772e-17)
(0.0551897 0.0535157 -1.57802e-17)
(0.00793932 -0.0158434 -1.35767e-17)
(0.123176 -0.0329758 0)
(0.0313692 0.0987549 8.84329e-19)
(-0.0476413 -0.00452805 0)
(0.0921983 -0.0569187 -2.80151e-17)
(0.0741817 -0.0409628 -1.32341e-17)
(0.0965668 -0.0380845 -4.64304e-18)
(0.00264863 -0.00718698 3.45205e-17)
(0.0195554 -0.0332857 0)
(0.0148527 -0.0577138 1.48768e-17)
(0.013999 -0.0378834 0)
(0.0653956 -0.0504062 -2.53355e-17)
(0.00209117 -0.0678283 -1.92399e-17)
(0.113561 0.0573468 1.78302e-17)
(0.00293895 0.0388191 0)
(-0.000938564 0.0133364 -4.68643e-18)
(0.0539004 0.134997 0)
(-0.00640963 -0.0316957 1.77696e-17)
(0.00587739 -0.0675735 5.68806e-19)
(0.00132562 -0.0507449 3.80112e-17)
(0.0316464 -0.0701848 0)
(0.00337878 -0.0770163 1.65087e-17)
(0.00296934 -0.0674411 1.76369e-17)
(0.00551029 -0.0797105 9.31119e-18)
(0.0179874 -0.0382036 -6.78389e-23)
(0.0132676 0.0971396 -2.45075e-17)
(0.0505971 0.142118 0)
(0.0317703 -0.060781 0)
(0.0209747 0.0867202 -8.96108e-18)
(0.117488 0.0343099 1.83092e-17)
(0.0234554 0.0781666 0)
(0.0045953 -0.0177988 8.84626e-18)
(0.0253924 0.0697319 -1.49366e-17)
(0.0052267 -0.0170233 0)
(0.00952523 -0.0765948 0)
(0.0123261 0.053999 -2.0975e-22)
(0.0154685 0.0423407 1.55255e-17)
(0.00265289 -0.00948932 8.6423e-18)
(0.00849773 -0.066957 -9.06604e-18)
(0.0571399 -0.102854 0)
(0.0705087 0.114332 1.75863e-17)
(0.040053 -0.0574824 -9.07587e-18)
(0.0358819 0.0419896 -8.83955e-18)
(0.0473174 0.0422379 0)
(0.0338855 0.0108427 0)
(-0.0373025 -0.0244602 7.91589e-18)
(0.0244399 0.0401106 -1.70002e-17)
(0.0236781 0.0250628 0)
(0.0452507 0.0232401 1.48225e-17)
(0.0242932 -0.0170982 0)
(0.0303823 0.0400594 8.74266e-18)
(0.011192 -0.0163742 -1.69597e-17)
(0.0158692 -0.00831697 2.26486e-18)
(-0.0103212 -0.0214703 1.35965e-17)
(0.0236372 0.0371584 -1.79957e-17)
(0.0253063 0.037446 -1.81743e-17)
(0.009629 -0.0132283 0)
(0.0497601 0.0363584 1.65662e-17)
(0.0286073 0.0265055 0)
(0.0082546 -0.00376846 -2.13986e-18)
(-0.0250509 -0.0199121 0)
(0.0128004 0.0184067 0)
(0.016325 0.0213816 -8.78772e-18)
(0.00961686 -0.00834353 1.28918e-23)
(0.00443728 -0.00698938 0)
(0.0290974 0.0158464 -1.39742e-17)
(0.0930417 0.0925381 -9.41722e-18)
(0.10354 0.0890052 -1.72713e-17)
(0.101129 0.0096313 0)
(0.000630711 -0.0601187 -1.72577e-22)
(0.0704705 0.110051 -2.81958e-17)
(-0.0089466 -0.0420746 -2.05647e-17)
(0.00515553 -0.0520916 0)
(0.0221751 -0.015311 -3.44778e-17)
(0.0659235 0.108429 -8.58799e-18)
(0.0525244 0.143635 0)
(0.106009 0.0392283 1.75065e-17)
(0.0150124 -0.0782497 -9.86893e-18)
(0.051628 0.0855661 1.95935e-17)
(0.0101063 -0.00775717 1.74727e-17)
(0.0353174 -0.0424536 9.42974e-18)
(0.0364858 -0.0345815 2.75099e-17)
(0.0317826 0.0110489 9.83547e-18)
(0.0596433 -0.047186 0)
(0.0306663 -0.0212437 -3.43401e-17)
(0.0426257 -0.0261503 -4.19393e-18)
(0.0267903 -0.037544 2.63247e-17)
(0.00152433 -0.0729561 -1.83352e-17)
(0.0887297 0.00749515 -2.97108e-17)
(0.0326924 0.0106102 1.46632e-17)
(0.0302377 0.0797479 -2.40502e-17)
(0.00795977 -0.0721479 4.65812e-18)
(0.113768 0.0652032 1.78038e-17)
(0.123614 0.0182534 -2.6783e-17)
(0.0598553 -0.0432088 3.73171e-17)
(0.00599492 -0.0259178 0)
(0.0203132 -0.0768599 -1.91929e-17)
(0.02623 0.0522323 3.00022e-17)
(0.0299896 -0.0358396 -1.75036e-17)
(0.0159749 -0.0788324 1.03918e-17)
(0.0233451 -0.028643 -4.65834e-18)
(0.0102577 0.0623004 0)
(0.0113412 0.033126 -9.04911e-18)
(0.0371228 -0.06228 -1.91479e-17)
(0.0363297 -0.0457301 1.7753e-17)
(0.0184149 -0.0741072 1.15364e-17)
(0.0150422 0.0299978 -1.93803e-17)
(0.0156169 -0.0487969 1.0294e-17)
(0.0857641 0.134421 -1.43376e-17)
(0.00965186 -0.0512429 0)
(0.0616906 0.0826793 3.30751e-17)
(0.10846 0.00252983 -1.81239e-17)
(0.0905466 0.0196902 2.30725e-17)
(0.0162653 -0.0126023 2.19183e-17)
(0.120772 0.0840522 4.57809e-18)
(0.110268 0.131818 -9.81943e-18)
(0.0317552 -0.00392826 -2.04202e-17)
(0.0235947 0.00529073 1.94545e-17)
(0.0137064 -0.0323366 0)
(0.0414396 0.0437058 0)
(0.00242566 -0.0765746 -2.01866e-17)
(0.000975164 -0.00690615 -9.85816e-18)
(-0.000210469 -0.0101541 -1.97067e-17)
(0.00308913 -0.0799484 1.09386e-22)
(0.0207202 -0.0309042 9.00889e-18)
(0.0217809 -0.014936 -1.8174e-17)
(0.000742998 -0.0158871 0)
(0.00198733 -0.0205852 0)
(0.0194598 -0.0344013 3.31409e-17)
(0.00332086 0.069598 -3.26097e-17)
(0.00857389 -0.00950597 -9.20688e-18)
(0.0546014 0.0783677 1.06391e-17)
(0.000327758 -0.00837551 1.8616e-17)
(0.0318374 0.115862 2.12412e-17)
(0.0125481 -0.0372886 0)
(0.107174 0.0723017 0)
(0.00644415 -0.0257985 -9.55367e-18)
(0.0167831 0.118956 1.11344e-17)
(0.082091 0.105352 -8.63325e-18)
(0.0065448 -0.0156588 -1.42551e-17)
(0.0101773 -0.0380257 9.49974e-18)
(-0.0400495 0.0116793 -2.35421e-18)
(-0.0453738 0.00634994 -3.24808e-17)
(0.0450784 0.151281 -2.27591e-17)
(0.0410765 -0.0359891 5.51936e-18)
(0.0638979 0.0963212 2.33594e-17)
(0.0216278 -0.00541545 -1.02795e-22)
(0.04086 -0.0706299 1.6426e-17)
(0.0540797 -0.00975616 1.91611e-17)
(0.0782226 0.017542 -9.21971e-18)
(0.0394077 0.124117 -3.0972e-17)
(0.00213885 -0.0358081 2.01377e-17)
(0.0595965 -0.0161597 -9.4451e-18)
(0.051257 -0.0245606 -1.89007e-17)
(0.0406542 -0.0425289 1.64368e-17)
(0.042428 0.0683071 -2.24449e-18)
(0.00787155 -0.00851725 4.63839e-18)
(0.0257405 0.0597674 4.1356e-18)
(-0.0305063 0.00896404 0)
(-0.0507051 -0.00326471 6.2973e-18)
(0.0463464 0.143673 1.01473e-17)
(0.0104789 -0.0356797 2.23318e-17)
(0.00537597 0.00349905 0)
(0.0990024 -0.0113423 -3.92208e-18)
(0.0487296 -0.126216 2.23905e-17)
(0.0112179 -0.0301049 1.25872e-17)
(-0.00136184 -0.0385178 0)
(0.000611931 -0.00771897 -1.95083e-17)
(0.0360032 -0.0541053 1.02823e-17)
(0.0185653 0.00157783 -2.61252e-18)
(0.0103546 0.0246853 -1.36249e-18)
(0.00353669 -0.042889 4.98001e-18)
(-4.3958e-05 -0.00666704 2.13938e-17)
(0.000702127 -0.0407766 0)
(-0.00457946 -0.0955075 0)
(0.0253242 -0.0534455 0)
(-0.00389953 -0.0410319 -1.10205e-17)
(0.0891678 0.1024 0)
(0.0287464 -0.0261181 1.82224e-17)
(0.0104985 -0.0722265 -1.06417e-17)
(0.00012725 -0.0153688 -1.09211e-17)
(0.00144704 -0.0391394 0)
(0.0407352 -0.0457575 -5.55076e-18)
(0.0720604 0.0578612 0)
(0.0319821 0.00577205 6.23022e-19)
(0.00131775 -0.0157761 1.05122e-17)
(0.00145975 -0.0168199 1.54067e-17)
(0.0216919 -0.0514949 0)
(0.0133366 -0.0292718 1.99141e-17)
(0.000465078 -0.028568 0)
(0.00233546 -0.0349438 0)
(0.00990442 -0.0616524 1.33159e-18)
(0.0197417 0.0120848 -1.95327e-17)
(0.0072032 -0.0146073 -1.13706e-18)
(0.0406011 -0.0296677 0)
(0.0824284 0.00295328 3.80338e-17)
(-0.00299152 -0.0397369 1.08538e-18)
(0.019188 0.0969517 -9.63283e-18)
(0.019679 -0.0175228 0)
(0.0989471 0.0131191 -8.49666e-18)
(0.0202319 -0.0444017 -2.31981e-17)
(0.0475948 -0.0372648 2.13022e-17)
(0.0684829 0.0994451 1.01523e-17)
(0.0232984 -0.0457533 9.39137e-18)
(0.0440932 -0.0369603 -1.01667e-17)
(0.00255982 -0.0174239 -2.05095e-17)
(0.0659167 -0.0525611 -1.93513e-17)
(0.0689886 0.0274079 0)
(0.0840746 -0.0656185 1.36016e-17)
(0.025075 -0.059386 4.70951e-18)
(0.0760219 -0.0386854 1.82869e-17)
(0.0479219 0.141059 4.91205e-18)
(0.0492643 0.148384 0)
(-0.00686461 -0.11007 1.79308e-17)
(0.0201899 -0.126516 2.89473e-17)
(0.071371 0.12741 0)
(0.0308189 -0.0554793 2.9958e-18)
(0.00320414 -0.00782528 -1.3435e-17)
(0.0319745 0.0970195 0)
(0.00688291 -0.0601965 -1.26975e-18)
(0.121908 -0.00273035 -1.81854e-17)
(0.0327171 -0.0419101 -2.84236e-21)
(0.116485 0.041637 1.91153e-22)
(0.0282454 -0.0603507 -4.85217e-18)
(0.0339355 -0.034167 -2.18884e-17)
(-0.0449269 0.00660184 2.42245e-17)
(0.0104093 0.00616591 4.337e-17)
(0.0536943 -0.0337039 -2.21863e-17)
(0.0276027 -0.0128109 3.21401e-17)
(0.034558 0.112978 4.57344e-18)
(0.00645909 -0.030512 1.0757e-17)
(0.0202316 0.0543368 2.14351e-17)
(0.0338529 -0.0508812 0)
(0.0595941 -0.0491185 -2.99692e-17)
(0.0241893 -0.0317879 -1.87717e-17)
(0.0569703 0.066646 5.18826e-18)
(0.00617494 -0.0649931 0)
(0.014942 0.037371 -2.29867e-17)
(0.0326609 -0.046814 -2.1996e-17)
(0.114188 0.022575 0)
(0.0102939 -0.0282002 1.19868e-17)
(0.0130458 -0.0743469 1.34725e-17)
(0.0347762 -0.0620846 -1.10861e-17)
(0.0378154 -0.050523 1.34295e-18)
(0.0123455 -0.0506209 0)
(0.000940798 -0.0793693 2.17423e-22)
(0.0650339 0.103039 0)
(0.0140987 -0.0166028 1.93067e-17)
(0.030103 -0.0469948 -2.73938e-18)
(-0.0146847 -0.0384663 1.12264e-17)
(0.0018571 -0.0323636 0)
(0.00326156 -0.0311093 2.38461e-17)
(-0.0411411 0.0507825 2.21481e-17)
(0.0466044 -0.0418769 -5.53999e-18)
(-0.00360189 -0.0550724 -1.8133e-17)
(0.0171482 -0.0271073 -3.78359e-17)
(0.0270055 0.0695869 0)
(0.11276 0.0228053 0)
(0.0487193 0.0750432 -2.31084e-17)
(0.0417127 0.0640419 2.99595e-17)
(0.0350969 -0.0760796 9.54151e-18)
(0.124869 0.11529 1.0783e-17)
(0.0317794 -0.0497551 7.84673e-18)
(0.000846406 -0.0316339 -1.18921e-17)
(0.044045 0.154912 0)
(0.050036 0.0796656 0)
(0.0316191 -0.0444523 0)
(0.0193388 -0.0782271 -7.90782e-19)