/*--------------------------------*- C++ -*----------------------------------*\
  =========                 |
  \\      /  F ield         | OpenFOAM: The Open Source CFD Toolbox
   \\    /   O peration     | Website:  https://openfoam.org
    \\  /    A nd           | Version:  9
     \\/     M anipulation  |
\*---------------------------------------------------------------------------*/
FoamFile
{
    format      ascii;
    class       volScalarField;
    location    "0.82";
    object      p;
}
// * * * * * * * * * * * * * * * * * * * * * * * * * * * * * * * * * * * * * //

dimensions      [0 2 -2 0 0 0 0];

internalField   nonuniform List<scalar> 
578
(
-1.5904e-15
-3.27486e-15
-1.32418e-15
-7.94047e-16
-2.86937e-15
8.40981e-16
2.07381e-15
-2.33438e-15
-2.32158e-15
-4.60674e-15
9.03503e-17
-2.38584e-15
-9.08562e-16
-2.80333e-15
1.8828e-15
-7.34803e-16
-1.84823e-15
-1.68655e-15
-1.90647e-15
-1.76057e-15
-7.77761e-16
-6.05811e-16
-1.36707e-16
-1.77331e-16
-2.04907e-16
-1.71137e-15
-1.04337e-15
-1.21608e-15
-2.549e-15
-6.35482e-16
-1.08985e-15
1.04634e-15
-1.40736e-15
-6.79835e-16
1.6779e-15
-1.48931e-15
-2.53256e-15
-2.19965e-15
-5.74445e-16
-3.24328e-15
-2.68338e-15
-2.10921e-15
-2.52008e-15
1.97034e-15
-1.23718e-15
2.60594e-15
1.8974e-15
-2.4621e-15
-6.24577e-16
-1.09292e-15
1.70501e-15
-9.10936e-16
1.72805e-15
-7.17737e-16
-9.52377e-16
-1.80415e-15
-1.67464e-16
-2.95007e-16
-1.22406e-15
-1.94773e-15
-1.78223e-15
-2.2979e-15
-2.21593e-15
-3.07562e-15
-9.66822e-16
1.77257e-15
-1.06031e-15
4.01431e-16
1.07539e-16
-1.68626e-15
-5.92357e-16
9.62845e-16
-9.57335e-16
-2.001e-15
3.53893e-17
-3.26261e-15
-2.78758e-15
-2.40285e-15
-9.47293e-16
1.07848e-15
1.28012e-15
-2.57694e-15
2.23263e-15
2.08256e-15
1.68539e-17
1.50753e-15
2.11179e-15
-1.46271e-15
-1.95458e-15
1.36273e-15
-1.0339e-15
5.96309e-16
1.66816e-15
-8.6268e-16
2.99922e-16
1.05091e-15
-9.61003e-16
-9.53006e-16
-4.39249e-15
1.91048e-15
1.67787e-15
-1.88e-15
-1.03723e-15
7.90764e-16
-9.97009e-16
-2.7796e-15
1.36044e-16
-3.27482e-15
1.7882e-15
-2.9896e-15
-1.39432e-15
-1.77492e-15
-1.91491e-15
6.79354e-16
8.27704e-16
-1.00744e-15
-8.23414e-16
-1.91194e-15
1.31925e-15
-9.77215e-16
-1.50348e-15
3.13633e-15
-2.12594e-15
-8.10647e-16
1.54865e-15
9.06268e-16
9.27841e-16
-6.81583e-16
1.60724e-15
2.46008e-16
1.65856e-15
8.07547e-16
-8.56278e-16
-1.61035e-15
1.48392e-15
1.3765e-15
-2.79273e-15
-1.00271e-15
2.12254e-16
1.66861e-15
1.82758e-15
5.16771e-16
1.61683e-15
-1.43476e-15
-1.85875e-15
1.44122e-16
6.21871e-16
-1.14963e-15
-2.11925e-15
-1.75114e-17
-2.51675e-15
3.80213e-16
-3.0579e-15
-1.4677e-15
1.88765e-15
-1.09533e-15
-2.11644e-15
-8.3389e-16
1.83275e-15
-2.56836e-15
-2.66444e-15
-2.63303e-15
1.92407e-15
-2.46536e-15
-1.8175e-15
5.39223e-16
-1.50046e-15
1.90875e-15
-7.70955e-16
-9.61739e-16
-2.31648e-15
-2.85811e-15
1.42386e-15
1.24025e-15
1.86947e-15
-9.85906e-16
-9.43309e-16
-1.82372e-15
-2.48983e-15
-2.37575e-15
2.07055e-15
-2.67709e-15
1.20016e-15
-9.40863e-16
1.43124e-15
-1.10624e-15
-7.65583e-16
2.15226e-15
1.8247e-15
-3.07119e-15
-2.64097e-15
-2.59813e-15
1.18999e-16
1.85267e-15
-3.7029e-15
-9.30264e-16
-6.74488e-16
-1.20407e-15
1.73145e-15
-2.6221e-15
-8.10039e-16
-9.10919e-16
3.31558e-15
-9.9862e-16
-9.6241e-16
-2.64107e-15
1.65086e-15
-5.69145e-16
-2.58951e-15
-2.21733e-16
3.32859e-16
1.67139e-15
1.4195e-15
-9.15004e-16
1.46432e-15
-8.39633e-16
1.81593e-15
-2.62651e-15
1.84349e-15
7.73255e-16
-2.58382e-15
1.87068e-15
-1.07192e-15
-2.67488e-15
2.04176e-15
8.92965e-16
-9.04066e-16
-7.3392e-16
-1.16277e-15
-2.58353e-15
-4.15539e-15
3.11343e-15
1.3921e-15
-9.22477e-16
8.9071e-16
-2.17099e-15
-2.7099e-15
1.93106e-15
-8.84238e-16
-4.00985e-16
2.01604e-15
-2.84517e-15
-9.53903e-16
2.04642e-15
-1.19252e-15
-1.89797e-15
1.70199e-15
-4.17219e-15
1.1537e-15
-8.72951e-16
-9.25158e-16
1.20966e-15
1.32127e-15
2.55732e-16
1.07617e-15
-5.70541e-16
-2.20299e-15
1.65535e-15
-2.34172e-15
2.68752e-15
-8.7743e-16
2.05704e-15
-6.70886e-16
-6.31821e-16
-2.69568e-15
-1.29958e-15
6.15688e-16
-4.44727e-16
-3.56118e-15
7.41025e-16
-7.54016e-16
7.02703e-16
3.20662e-16
-9.13358e-16
-8.91467e-16
-8.66472e-16
-9.88918e-16
3.82953e-16
1.84702e-15
-7.7326e-16
-2.75467e-15
-9.26572e-16
-9.0451e-16
-8.99838e-16
-8.53084e-16
1.61643e-15
-1.09362e-15
9.4697e-16
-5.26237e-16
-6.41865e-16
2.9326e-16
1.13917e-15
-1.01413e-15
1.62811e-15
-6.90651e-16
-6.4812e-16
-2.71687e-15
-2.6741e-16
-1.02079e-15
-7.00751e-16
-8.36739e-16
-3.18529e-16
-8.95969e-16
-1.24094e-15
-6.52287e-16
-8.36308e-16
-1.70475e-17
-2.08071e-15
-7.93249e-16
-8.37724e-16
-7.06984e-16
-9.82753e-16
-8.22326e-16
-3.61621e-16
-6.91051e-16
-8.96138e-16
1.04753e-15
-2.92179e-16
-6.35955e-16
-6.98594e-16
1.09934e-15
-9.01875e-16
-9.17233e-16
-4.03204e-16
-9.62275e-16
-9.76345e-16
1.6365e-15
1.86904e-15
-2.57858e-15
-9.93303e-16
-9.88556e-16
1.34227e-15
-8.98123e-16
-9.59612e-16
1.33633e-15
-5.5975e-16
-8.66337e-16
-9.44979e-16
-1.57673e-15
-1.01249e-15
-8.9935e-16
-8.99725e-16
-9.77725e-16
-1.84699e-15
-6.99386e-16
1.22088e-15
3.65082e-16
1.53652e-15
-1.92186e-15
1.75641e-15
-2.17391e-15
-2.4456e-15
1.84904e-15
-1.49411e-15
-3.13963e-15
2.37191e-15
-5.19231e-16
2.20001e-15
-3.35867e-15
2.29891e-15
-8.02059e-16
-1.52832e-15
-5.9219e-16
-1.49886e-15
-7.98402e-16
-6.15791e-16
-9.62416e-16
9.7054e-16
-8.80605e-16
-7.15165e-16
-2.26569e-15
-2.40782e-15
2.56398e-16
4.14966e-16
2.79175e-16
2.17883e-15
-1.03026e-15
1.73703e-15
-2.25151e-15
-1.10756e-15
-9.76663e-16
-2.34489e-15
1.87993e-15
-3.30623e-16
-5.23538e-16
-7.75053e-16
-6.21606e-16
2.22685e-15
2.01904e-15
-1.74871e-15
-9.29172e-16
-2.6836e-16
-2.09553e-16
-6.15271e-16
-7.58483e-16
-4.50645e-16
1.17047e-15
-1.21298e-15
-3.49082e-16
-1.75164e-16
-5.3896e-16
6.58011e-16
-6.37436e-16
-2.03159e-15
-1.00479e-15
-9.73169e-16
5.65515e-16
-1.20931e-15
-5.85103e-17
5.61442e-16
-8.51284e-16
-2.38451e-15
-1.71861e-15
1.019e-15
-1.28743e-15
8.37478e-17
-2.08885e-15
1.48947e-15
-2.64706e-15
-1.07456e-15
1.70518e-15
2.39257e-16
-2.23566e-15
2.03076e-15
1.34413e-15
-1.00071e-15
-1.48913e-15
-2.1392e-15
-1.87237e-15
-9.23198e-16
9.39504e-16
-3.84884e-16
-1.34486e-16
-9.24879e-16
1.1885e-15
-1.32332e-15
-2.30993e-15
-1.83668e-15
-1.25704e-15
-1.23186e-15
-1.64189e-15
-8.3526e-16
-8.14301e-16
-1.04188e-15
1.28641e-15
-1.18664e-15
-1.08993e-15
1.05077e-15
1.05342e-15
-1.02688e-15
1.75034e-15
-1.03201e-15
1.26017e-15
-8.92328e-16
1.69984e-15
-9.07547e-16
-3.21108e-15
-8.28909e-17
-3.50928e-16
-2.01074e-15
2.30655e-15
1.27182e-15
-1.87486e-15
-1.32146e-15
-1.20057e-15
-2.07498e-15
1.2182e-15
-2.95899e-15
-1.45547e-15
-1.25804e-15
-1.18966e-15
-1.25002e-15
8.70691e-16
-1.09189e-15
-1.28621e-15
-2.19722e-15
-1.45875e-15
-2.05354e-15
-1.36372e-15
-1.87373e-15
-3.83312e-16
-7.2025e-17
-1.14857e-15
-1.14175e-15
-1.07999e-15
-1.15968e-15
-1.49276e-15
-1.0703e-15
-1.03715e-15
1.45134e-15
-8.48408e-16
9.07791e-16
-7.89605e-16
-8.48081e-16
-1.01454e-15
1.38934e-15
-9.54756e-16
1.59357e-15
-1.0599e-15
-8.59512e-16
-2.62752e-15
-1.06904e-15
-1.28904e-15
-8.44465e-16
-1.76744e-15
-1.06354e-15
1.54541e-15
-7.8251e-16
1.09058e-15
-1.03914e-15
-1.05181e-15
1.42362e-15
-8.19289e-16
2.5411e-15
1.73651e-15
-1.01839e-15
-2.36305e-15
-3.12253e-15
5.38924e-16
-8.71452e-16
-1.43807e-16
2.48159e-16
-1.33793e-15
-1.7752e-15
-1.9622e-15
-8.72736e-16
-1.24321e-15
-7.69081e-16
-2.46966e-15
-2.53686e-15
-2.55842e-15
-2.35234e-15
-1.21272e-15
-1.05976e-15
1.05501e-15
1.02029e-15
3.83839e-16
1.46903e-15
9.62345e-16
-1.0926e-15
-8.27144e-16
9.49168e-16
-1.62254e-15
-1.72156e-15
1.3532e-15
-6.09063e-16
-1.33362e-17
-1.81462e-15
-1.55994e-15
-1.56128e-15
4.53604e-16
1.87044e-15
-1.53146e-15
1.50173e-15
5.46763e-16
-1.49702e-15
-2.61309e-15
-1.10065e-15
-8.83976e-16
-1.06828e-15
-1.04109e-15
1.65366e-15
-2.06419e-15
-1.06887e-15
-8.48637e-16
3.80307e-16
-8.9584e-16
-1.86819e-15
-1.04387e-15
-8.75352e-16
1.64032e-15
-1.83874e-15
6.00079e-16
-2.46951e-15
-1.27821e-15
-3.32051e-17
5.19448e-16
2.32421e-16
)
;

boundaryField
{
    front
    {
        type            empty;
    }
    back
    {
        type            empty;
    }
    bottom
    {
        type            uniformFixedValue;
        uniformValue    
        {
            type            scale;
            scale           
            {
                type            squarePulse;
                start           0.3;
                duration        0.3;
            }
            xScale          
            {
                type            constant;
                value           1;
            }
            value           
            {
                type            constant;
                value           15.1;
            }
        }
        value           uniform 0;
    }
    left
    {
        type            zeroGradient;
    }
    top
    {
        type            zeroGradient;
    }
    right
    {
        type            zeroGradient;
    }
    inner_arc
    {
        type            zeroGradient;
    }
}


// ************************************************************************* //
