/*--------------------------------*- C++ -*----------------------------------*\
  =========                 |
  \\      /  F ield         | OpenFOAM: The Open Source CFD Toolbox
   \\    /   O peration     | Website:  https://openfoam.org
    \\  /    A nd           | Version:  9
     \\/     M anipulation  |
\*---------------------------------------------------------------------------*/
FoamFile
{
    format      ascii;
    class       surfaceScalarField;
    location    "0.82";
    object      phi;
}
// * * * * * * * * * * * * * * * * * * * * * * * * * * * * * * * * * * * * * //

dimensions      [0 3 -1 0 0 0 0];

internalField   nonuniform List<scalar> 
816
(
5.48289e-23
1.81055e-21
-1.86538e-21
-6.31602e-22
2.53232e-21
-1.90071e-21
-3.14929e-21
3.20412e-21
1.62148e-22
-2.20236e-22
5.8088e-23
1.77346e-21
-1.77346e-21
-9.90237e-22
1.23143e-21
-2.41198e-22
-1.85435e-21
1.85435e-21
-1.66501e-21
1.66501e-21
-3.77239e-21
1.13812e-23
3.76101e-21
4.5903e-22
-1.09063e-21
9.36216e-22
-1.92645e-21
4.41462e-21
-3.19617e-21
-1.21845e-21
6.56719e-23
-5.23176e-23
-1.33543e-23
4.26723e-21
-3.86624e-21
-4.00984e-22
-4.21372e-21
3.71917e-21
4.94552e-22
-3.23846e-21
5.33172e-21
-2.09326e-21
-2.02455e-21
-5.74494e-22
2.59905e-21
3.8576e-21
-3.12237e-22
-3.54536e-21
5.18385e-22
3.89623e-21
1.77152e-21
-5.5439e-21
3.09626e-22
-1.47478e-22
4.00135e-22
-3.6386e-21
2.11643e-21
-8.8984e-22
-1.22659e-21
5.41283e-22
2.52491e-22
-7.93775e-22
6.28386e-22
-8.7103e-23
-3.6285e-21
8.87887e-22
2.74061e-21
2.48005e-22
-2.23036e-22
-2.49686e-23
7.61459e-23
-1.56075e-22
7.99296e-23
1.21382e-21
1.3185e-21
1.85654e-21
3.47518e-21
2.7448e-22
-1.98334e-22
3.71175e-22
8.60259e-22
5.63625e-21
-3.77971e-21
7.52919e-22
-5.24953e-22
-2.27966e-22
-4.16375e-22
-3.79734e-21
-9.13378e-22
4.38856e-21
3.91223e-22
3.876e-21
-5.31099e-22
-3.0974e-21
5.48657e-21
-1.99794e-21
-3.48863e-21
1.10208e-21
6.71386e-22
-1.38224e-21
-1.14662e-21
1.13391e-21
3.74498e-21
-2.58172e-23
-1.90827e-21
-9.13836e-22
2.82211e-21
-1.11406e-21
-7.40283e-22
1.43797e-21
3.49175e-21
-3.48037e-21
2.33728e-21
8.00934e-23
1.67911e-22
-2.06254e-22
-5.45545e-23
2.60809e-22
5.50524e-23
1.06196e-23
1.54373e-21
5.72701e-22
4.42929e-22
3.0999e-22
-2.30377e-23
2.30377e-23
1.19968e-21
-3.66694e-22
-8.32987e-22
-8.8984e-22
-1.90827e-21
-4.37733e-21
2.35278e-21
1.50594e-21
-2.41932e-21
-5.19734e-22
7.17763e-22
-1.29226e-21
-1.60449e-21
1.29226e-21
-1.25306e-22
-3.74094e-21
8.31775e-23
-5.31309e-23
-3.00466e-23
3.77862e-21
-3.36314e-23
3.61015e-21
2.0261e-21
-1.56254e-21
2.49876e-21
-1.6047e-21
4.69355e-21
-3.08885e-21
8.53682e-22
3.13154e-21
-3.98523e-21
1.03433e-22
1.64921e-22
7.96773e-23
3.50011e-24
3.18639e-21
1.53639e-21
-4.72278e-21
8.80724e-22
-1.03195e-21
1.51226e-22
1.50755e-21
-1.50755e-21
-2.23886e-21
4.01038e-21
-3.02643e-21
7.87572e-22
2.73598e-23
-6.86034e-22
-1.17935e-21
1.86538e-21
-3.04141e-21
-1.2075e-21
4.24891e-21
1.81055e-21
1.36847e-21
-1.36847e-21
-2.01918e-21
2.01918e-21
-2.17559e-21
4.24058e-21
-2.06499e-21
1.08593e-21
3.33932e-22
-5.45545e-23
1.11059e-21
8.90915e-23
-9.43974e-23
-2.96676e-21
3.06116e-21
2.59689e-21
1.12502e-22
-2.70939e-21
5.14439e-23
1.55281e-21
-3.7284e-21
1.03779e-22
3.19441e-21
-3.29819e-21
1.44189e-22
-1.24382e-22
-1.98074e-23
-3.69796e-21
-4.04016e-23
3.36366e-21
-3.32325e-21
-1.95375e-23
9.68351e-24
4.5903e-22
2.97524e-22
-4.09487e-21
-4.70117e-23
3.82563e-21
-2.64336e-21
3.49705e-21
4.08441e-23
5.44093e-23
-9.52534e-23
-2.68397e-21
1.0267e-23
-1.0267e-23
-5.27917e-22
4.40392e-21
6.39526e-22
1.38224e-21
1.08593e-21
-1.39708e-22
-1.36784e-21
1.93375e-21
2.45481e-21
4.01943e-21
3.73836e-21
-4.62964e-21
8.91278e-22
6.24017e-23
-2.15577e-23
-1.6386e-22
-5.6376e-23
1.70281e-21
2.4541e-21
-4.15691e-21
-5.05548e-23
2.64745e-21
-9.27067e-24
1.95376e-23
-1.72093e-22
2.9127e-21
-2.29413e-21
2.74943e-22
7.98835e-22
2.63218e-22
4.64077e-23
-9.25659e-22
-3.41588e-21
3.70943e-21
-2.93555e-22
-5.72212e-22
-2.4692e-21
3.3835e-21
-2.37645e-21
-1.00705e-21
3.25041e-21
7.08973e-22
-3.87031e-21
2.22829e-23
3.84803e-21
-3.98216e-21
5.6628e-22
5.49469e-23
8.92424e-23
-9.61815e-22
9.61815e-22
-3.50025e-21
-3.70064e-22
-2.74193e-23
3.5235e-21
-3.49608e-21
-5.36811e-23
-3.14249e-21
-2.82501e-21
-1.80462e-21
-2.75564e-21
2.77792e-21
-4.78062e-23
1.04198e-21
-9.94179e-22
-7.31745e-22
-2.80344e-21
3.43186e-23
5.94609e-22
-6.28928e-22
-1.13391e-21
-4.03364e-23
-3.44829e-21
-3.99684e-22
-2.07042e-21
2.47011e-21
2.65473e-24
-2.05824e-23
1.79277e-23
3.54453e-21
-2.83556e-21
-4.31953e-21
-1.14227e-22
4.43375e-21
1.24786e-21
-1.24786e-21
1.50594e-21
1.68535e-22
7.9328e-22
4.16845e-22
3.95073e-21
-4.36758e-21
-3.43786e-23
1.14472e-22
-1.62762e-21
2.84144e-21
1.52569e-23
3.80612e-23
-5.33181e-23
-1.17935e-21
3.8889e-22
-4.70842e-21
-3.35205e-21
1.04198e-21
-3.38606e-21
3.27183e-21
-3.3934e-22
3.3934e-22
3.14485e-21
-3.05022e-22
-2.83902e-21
3.25587e-21
-2.23033e-24
1.74873e-23
3.22144e-22
-3.41916e-22
1.97725e-23
-3.23094e-22
-3.06297e-21
1.14662e-21
-1.2003e-21
1.29163e-21
-1.31905e-21
-1.15959e-22
8.91562e-22
-7.75603e-22
6.10303e-23
-2.90005e-21
1.1792e-22
-1.47966e-22
1.53752e-22
-3.58325e-23
4.05559e-21
-1.72189e-21
1.39879e-21
-1.97912e-22
-8.01077e-23
2.7802e-22
-1.13602e-21
1.19705e-21
-7.1992e-22
3.43573e-21
-2.71581e-21
-2.56028e-21
2.89421e-21
1.81112e-22
1.28674e-22
3.39483e-21
2.65474e-24
-2.41932e-21
1.64074e-21
1.74276e-21
4.05544e-21
1.92812e-22
-4.24826e-21
-2.66693e-22
6.87802e-23
-4.03277e-21
-1.93653e-22
4.22642e-21
3.40035e-21
-1.28519e-22
3.18766e-21
6.82088e-23
1.09063e-21
-1.84086e-22
-1.31575e-22
3.1566e-22
-1.74873e-23
5.41194e-23
-3.66321e-23
2.05824e-23
-5.49611e-23
3.32668e-21
-3.38047e-21
5.37951e-23
3.27667e-21
-3.2067e-21
-6.99717e-23
-2.23037e-24
5.67301e-23
-4.14121e-22
-9.54346e-22
1.38058e-22
2.04328e-22
-2.4016e-22
1.34185e-22
-1.69407e-22
2.80067e-21
1.46823e-22
-2.21725e-21
4.55e-21
2.24272e-22
-3.72452e-21
4.78453e-24
1.99543e-22
-2.57917e-21
3.68238e-22
-1.0502e-22
-6.2878e-22
7.75603e-22
3.69851e-21
-2.68389e-21
-2.16167e-22
-2.34977e-21
2.51831e-21
1.27027e-21
-1.39879e-21
1.26526e-21
-1.19705e-21
2.35415e-21
-2.84878e-22
-4.78105e-23
3.32689e-22
-2.66693e-22
-4.14121e-22
8.91562e-22
-6.88851e-22
-2.59936e-21
-1.72189e-21
1.27027e-21
1.26526e-21
3.52452e-23
-1.60648e-22
2.24117e-21
-2.08052e-21
-1.13602e-21
-4.16453e-22
-9.40338e-23
-5.49611e-23
-9.94179e-22
-6.87802e-23
5.2781e-22
1.29163e-21
8.47423e-23
4.66015e-22
-5.50757e-22
3.20445e-22
3.41026e-22
3.36841e-21
4.68675e-22
3.91584e-22
1.95107e-22
-6.32632e-22
4.37525e-22
2.60809e-22
3.24624e-21
-3.93509e-21
7.26475e-23
-4.38059e-21
4.34696e-21
6.32632e-22
-7.9328e-22
5.41193e-23
1.12207e-22
1.53502e-21
5.62931e-22
-1.71804e-21
4.38585e-22
3.71113e-21
5.2313e-22
-4.31769e-22
3.83959e-22
2.56273e-22
-1.22555e-22
-3.09215e-22
3.63465e-22
-2.78723e-22
-6.2878e-22
1.31905e-21
4.64778e-22
1.07828e-22
-5.72606e-22
1.2003e-21
3.4346e-22
2.54728e-22
1.29231e-22
2.10162e-22
1.10283e-22
1.55564e-22
-1.02617e-22
2.19709e-22
-2.19709e-22
3.23142e-22
-2.81678e-21
-3.38349e-21
7.29927e-23
-4.14909e-22
-1.58615e-22
1.58615e-22
-1.12207e-22
-7.12515e-22
-2.91112e-22
3.05021e-22
-1.39092e-23
2.91112e-22
-1.32497e-22
4.97451e-22
3.23142e-22
-3.52929e-21
-6.86386e-22
6.06278e-22
1.57837e-22
-2.79408e-22
1.2157e-22
3.13401e-22
4.37787e-22
6.09976e-23
3.06852e-22
-3.6785e-22
-6.85851e-23
1.29583e-22
-1.7198e-21
1.53613e-22
-4.33021e-22
5.05871e-22
-2.51143e-22
3.27639e-22
-1.90195e-22
-4.18993e-22
2.68179e-21
4.42632e-22
1.39658e-22
3.94468e-22
-5.34126e-22
-1.02102e-22
3.62512e-22
8.01207e-23
3.83269e-21
-5.29855e-23
4.15497e-22
-9.35571e-23
4.47563e-21
-4.49186e-22
5.29307e-22
-2.93363e-22
-1.81656e-22
3.91818e-22
5.66848e-23
6.13738e-22
-1.9129e-23
-4.42972e-22
1.91829e-22
7.23021e-22
-4.16168e-22
-1.6378e-22
1.70153e-21
-3.80375e-21
2.10223e-21
9.26637e-22
-9.26637e-22
-8.48376e-22
8.48376e-22
-1.01029e-21
1.01029e-21
1.00768e-21
-1.00768e-21
1.10208e-21
-1.11406e-21
-2.39585e-22
-5.38563e-22
7.78148e-22
1.43797e-21
-5.82013e-22
4.18233e-22
-1.41215e-21
1.41215e-21
-1.36784e-21
-1.36514e-21
1.36514e-21
-3.00509e-22
2.19786e-21
-1.89735e-21
7.17763e-22
-1.41008e-22
-1.17206e-21
1.31307e-21
-8.66606e-22
8.66606e-22
-5.63512e-22
3.50613e-21
-2.94261e-21
-1.47257e-21
-4.03252e-21
7.46173e-23
-1.60449e-21
-1.52991e-21
3.0663e-21
1.19617e-21
-2.33099e-21
4.20025e-21
1.54373e-21
-1.9566e-22
-8.36488e-23
1.59302e-22
2.24685e-21
3.52202e-22
-5.5252e-22
-2.31042e-21
2.86294e-21
1.64534e-21
-2.87393e-21
-1.72077e-22
-1.82294e-23
9.68351e-24
-1.37011e-21
-2.43364e-21
2.13601e-21
-3.0915e-21
-5.39642e-21
1.85106e-21
-8.43629e-22
-2.07477e-21
2.9184e-21
-3.64539e-22
-5.10045e-22
-2.19547e-23
5.32e-22
-3.27727e-21
-3.06812e-22
3.06812e-22
-4.60031e-23
-7.17923e-23
1.39029e-21
-1.18825e-24
-9.07889e-24
1.01323e-22
-3.04394e-21
-3.45339e-21
3.17595e-21
-2.82375e-21
1.30039e-21
-3.43641e-21
1.10542e-21
3.98912e-21
2.60066e-21
1.23184e-21
-5.89529e-22
-2.37723e-21
9.87267e-22
2.20715e-21
-1.72072e-21
-3.00207e-21
1.87684e-22
1.00432e-21
-3.38078e-21
-2.93917e-21
2.628e-21
3.48091e-21
3.19305e-21
-3.78713e-21
5.94075e-22
-1.06718e-21
-3.4814e-22
-7.34038e-22
-9.89486e-23
-1.06718e-21
-7.42038e-22
-4.69014e-21
-4.18748e-22
5.10889e-21
2.81118e-22
1.19748e-21
1.62463e-21
3.26084e-25
9.35743e-24
-9.77192e-22
9.77192e-22
3.27061e-21
7.4882e-22
1.53125e-21
2.3615e-21
-2.9475e-21
-3.59334e-21
5.494e-22
2.4434e-22
9.30082e-23
4.8949e-22
-6.23575e-22
1.34085e-22
-2.14513e-22
1.53507e-22
-2.05085e-21
4.75581e-22
-3.53983e-21
3.12108e-21
-1.44998e-22
-1.56075e-22
2.84098e-21
-1.18835e-24
-1.46686e-21
3.2613e-25
-2.62481e-21
4.77056e-22
-1.67066e-22
4.56018e-22
-1.6918e-21
3.79403e-21
5.69458e-22
-2.88063e-21
-1.27628e-21
-1.52656e-21
-1.14664e-21
-3.27117e-23
2.17102e-21
6.70422e-22
-2.00574e-22
-3.6198e-22
9.47412e-22
1.08735e-22
9.34316e-22
5.71624e-22
2.72042e-21
3.83354e-21
1.53347e-22
-6.63392e-22
7.99297e-23
-1.14664e-21
-3.53477e-23
5.32754e-23
-5.12871e-22
-2.56926e-23
2.69807e-21
1.70584e-21
-3.03831e-21
9.34316e-22
1.19748e-21
6.46959e-22
4.18834e-21
3.93543e-22
7.91244e-23
-2.35342e-21
-1.05497e-24
1.05497e-24
-3.06368e-23
3.61111e-21
1.04179e-24
-1.04179e-24
3.0439e-21
-1.80729e-23
-7.97572e-24
3.11085e-21
-1.05501e-24
1.04175e-24
3.5916e-21
-8.9352e-22
-2.554e-21
4.36169e-22
-3.40037e-21
2.91705e-23
2.41049e-23
2.29387e-21
-2.37752e-21
-1.46631e-24
-2.35741e-22
-3.87833e-22
4.26411e-22
-2.6149e-22
1.90422e-24
-1.99771e-23
3.53318e-23
-2.11349e-21
2.09526e-21
4.22939e-22
3.31148e-22
1.70357e-22
-3.65073e-21
-1.36378e-21
3.80407e-22
2.69931e-22
3.08837e-21
3.70967e-24
-3.27214e-24
1.13497e-21
-1.69055e-21
-4.13367e-22
-3.99209e-21
-4.58738e-22
-2.56211e-21
-1.17282e-22
1.98941e-21
-1.96176e-21
7.11487e-23
2.24336e-24
-1.36788e-24
3.78036e-22
-1.29134e-21
-7.87972e-22
-4.04397e-22
)
;

boundaryField
{
    front
    {
        type            empty;
        value           nonuniform List<scalar> 0();
    }
    back
    {
        type            empty;
        value           nonuniform List<scalar> 0();
    }
    bottom
    {
        type            calculated;
        value           nonuniform List<scalar> 
12
(
-1.41986e-21
-3.95939e-21
3.28821e-21
-3.29203e-21
1.91315e-21
4.37525e-22
-4.38585e-22
3.33991e-21
3.95875e-21
-3.33301e-21
-1.90999e-21
1.41532e-21
)
;
    }
    left
    {
        type            calculated;
        value           uniform 0;
    }
    top
    {
        type            calculated;
        value           uniform 0;
    }
    right
    {
        type            calculated;
        value           uniform 0;
    }
    inner_arc
    {
        type            calculated;
        value           uniform 0;
    }
}


// ************************************************************************* //
