/*--------------------------------*- C++ -*----------------------------------*\
  =========                 |
  \\      /  F ield         | OpenFOAM: The Open Source CFD Toolbox
   \\    /   O peration     | Website:  https://openfoam.org
    \\  /    A nd           | Version:  9
     \\/     M anipulation  |
\*---------------------------------------------------------------------------*/
FoamFile
{
    format      ascii;
    class       volVectorField;
    location    "0.82";
    object      U;
}
// * * * * * * * * * * * * * * * * * * * * * * * * * * * * * * * * * * * * * //

dimensions      [0 1 -1 0 0 0 0];

internalField   nonuniform List<vector> 
578
(
(-0.0363 -0.0431 0)
(-0.0193 -0.0653 2.84e-16)
(-0.0543 -0.064 -1.01e-16)
(0.00359 -0.0708 -2.4e-17)
(0.0119 -0.0262 -4.51e-17)
(0.00457 -0.0929 -8.89e-17)
(-0.0123 -0.0269 4.49e-17)
(0.0132 -0.0244 -2.03e-20)
(0.0597 -0.0899 -1.96e-16)
(-0.0114 -0.0409 4.2e-16)
(0.00579 -0.101 -1.32e-16)
(0.0385 -0.075 0)
(0.00935 -0.0872 9.77e-17)
(0.0395 -0.0822 -7.59e-16)
(-0.0401 -0.0831 3.82e-16)
(0.07 -0.0751 -9.18e-17)
(-0.0455 -0.0415 4.09e-16)
(-0.0731 -0.0622 0)
(0.0353 -0.0685 0)
(0.0652 -0.0878 1.41e-16)
(0.00324 -0.0799 0)
(0.0557 -0.0688 0)
(0.0308 -0.0274 -4.86e-16)
(0.000222 -0.0739 0)
(-0.00101 -0.0587 0)
(0.0337 -0.0683 3.86e-16)
(-0.00329 -0.0677 -4.88e-17)
(-0.00024 -0.0337 2.62e-17)
(-0.0169 -0.0782 -4.67e-16)
(0.0721 -0.078 3.75e-16)
(-0.00101 -0.0582 -4.5e-16)
(0.00428 -0.0765 9.65e-17)
(0.0771 -0.0829 -3.61e-16)
(-0.00119 -0.0795 1.9e-16)
(-0.0352 -0.0748 -3.78e-16)
(0.0617 -0.0653 -5.68e-16)
(0.0346 -0.0733 7.43e-16)
(0.0325 -0.0631 0)
(-0.0695 -0.0756 -3.73e-16)
(0.0189 -0.0403 0)
(0.0193 -0.0438 -3.68e-16)
(0.0221 -0.0399 4.42e-16)
(0.0194 -0.0377 0)
(-0.0356 -0.0732 0)
(0.0542 -0.0527 4.83e-17)
(-0.0195 -0.0414 0)
(-0.0198 -0.045 3.69e-16)
(0.054 -0.0826 -4.85e-17)
(-0.0692 -0.0755 5.55e-16)
(-0.00569 -0.0806 -1.02e-16)
(0.00074 -0.0353 1.43e-17)
(0.0139 -0.0901 -4.12e-16)
(0.046 -0.033 -2.01e-16)
(-0.0014 -0.0805 0)
(0.00151 -0.0811 3.37e-16)
(-0.00429 -0.0975 8.16e-16)
(0.012 -0.0105 7.79e-16)
(0.0363 -0.0301 -3.95e-16)
(-0.0598 -0.0594 -7.12e-16)
(0.0398 -0.0426 2.08e-16)
(-0.0706 -0.0674 3.76e-16)
(-0.0381 -0.0266 0)
(-0.0577 -0.0442 5.39e-17)
(0.0354 -0.0732 3.53e-16)
(-0.0046 -0.0892 9.4e-17)
(-0.0444 -0.0837 2.08e-16)
(0.0733 -0.0856 -4.34e-17)
(0.0102 -0.0978 3.11e-16)
(0.0786 -0.0736 -1.78e-16)
(0.0394 -0.084 4.16e-16)
(0.000444 -0.0623 0)
(0.00133 -0.063 -1.35e-17)
(0.000164 -0.0862 -1.02e-16)
(0.0403 -0.0855 0)
(0.00159 -0.108 1.89e-16)
(0.0117 -0.0247 0)
(0.0526 -0.0763 2.5e-16)
(0.0433 -0.062 -2.05e-16)
(0.00573 -0.0901 0)
(-0.0358 -0.0385 -1.09e-16)
(0.0362 -0.074 -3.52e-16)
(-0.0178 -0.0257 -3.81e-16)
(0.0108 -0.0252 -1.73e-16)
(0.0179 -0.0253 1.76e-16)
(-0.0702 -0.0865 -5.04e-17)
(-0.0142 -0.0411 0)
(0.000672 -0.0206 0)
(-0.00413 -0.107 -2.99e-16)
(0.0286 -0.0634 9.55e-21)
(-0.0306 -0.0702 3.36e-18)
(-0.0024 -0.0739 0)
(-0.0608 -0.0785 1.02e-16)
(-0.029 -0.0648 0)
(0.0129 -0.0971 1.83e-16)
(0.0735 -0.0757 5.55e-16)
(0.0528 -0.0699 -4.76e-16)
(0.000148 -0.0822 1e-16)
(0.00527 -0.0826 -7.2e-16)
(-0.00391 -0.0246 -7.51e-16)
(-0.0399 -0.0834 0)
(-0.0418 -0.0748 0)
(0.0369 -0.0814 -6.56e-16)
(-0.0138 -0.0946 0)
(-0.0547 -0.0576 0)
(-0.00446 -0.0815 0)
(0.0393 -0.0825 -5.65e-16)
(0.00222 -0.0977 -1.98e-16)
(0.0197 -0.0425 0)
(-0.00838 -0.023 0)
(0.0221 -0.0444 -4.59e-16)
(0.0615 -0.0711 -1.53e-16)
(0.0376 -0.08 0)
(0.0697 -0.0847 4.21e-16)
(0.0606 -0.0721 -3.39e-16)
(0.0632 -0.0744 3.53e-16)
(-0.0138 -0.0904 4.08e-16)
(0.00602 -0.08 2.12e-16)
(-0.0499 -0.0771 -3.11e-16)
(-0.0269 -0.0608 5.4e-17)
(-0.00513 -0.0827 3.56e-16)
(0.0278 -0.056 -3.68e-16)
(0.0279 -0.0423 -1.34e-21)
(0.0382 -0.0768 -4.01e-16)
(0.00168 -0.065 -5.38e-17)
(0.0235 -0.0406 0)
(-0.0325 -0.0819 4.15e-16)
(0.0244 -0.0751 -3.94e-16)
(0.0752 -0.0765 -2.01e-16)
(-0.0408 -0.0863 2.08e-16)
(-0.0266 -0.0819 0)
(-0.0403 -0.0819 0)
(-0.0317 -0.0833 0)
(0.0111 -0.0937 0)
(0.00806 -0.0162 3.9e-16)
(-0.0397 -0.0844 -3.87e-16)
(-0.0406 -0.0695 0)
(0.0338 -0.0634 0)
(-0.00834 -0.0866 -3.49e-16)
(0.0495 -0.0732 3.94e-16)
(-0.035 -0.0686 0)
(-0.0182 -0.0342 4.76e-16)
(-0.0276 -0.0823 0)
(-0.0302 -0.0585 0)
(-0.000265 -0.0624 0)
(0.0158 -0.031 0)
(-0.0733 -0.0828 9.57e-21)
(-0.0247 -0.0573 4.36e-16)
(-0.00658 -0.0515 0)
(0.0405 -0.0838 4.19e-16)
(-0.0264 -0.0763 0)
(0.0487 -0.0902 0)
(-0.0186 -0.0262 0)
(0.018 -0.0178 0)
(0.0139 -0.0282 4.66e-16)
(-0.0438 -0.0878 -3.9e-16)
(-0.00577 -0.0704 -2.16e-16)
(-0.0197 -0.0884 4.2e-16)
(0.0116 -0.0792 -9.62e-17)
(-0.0154 -0.0153 -9.38e-17)
(0.0512 -0.091 -3.32e-16)
(0.044 -0.0831 4.67e-16)
(0.0413 -0.0734 4.85e-16)
(-0.00991 -0.0188 -5.96e-18)
(0.0445 -0.08 0)
(-0.000109 -0.0191 2.13e-20)
(-0.0287 -0.0726 5.47e-21)
(-0.000218 -0.0349 -4.69e-16)
(-0.0391 -0.0756 0)
(0.00766 -0.0527 -1.06e-16)
(-0.00557 -0.103 -1.72e-16)
(0.0428 -0.0708 0)
(0.0203 -0.0366 0)
(-0.0243 -0.0416 0)
(-0.014 -0.0283 -4.69e-16)
(-0.0342 -0.0644 0)
(-0.0052 -0.095 -9.65e-17)
(-0.000273 -0.0985 -9.76e-17)
(-0.048 -0.0729 3.6e-16)
(0.0266 -0.0451 5.28e-17)
(-0.00216 -0.0638 2.21e-16)
(-0.0209 -0.0375 0)
(-0.0367 -0.0643 0)
(-0.0215 -0.0661 0)
(0.00528 -0.0958 7.23e-16)
(-0.0486 -0.0782 2.63e-16)
(-0.00494 -0.038 -3.49e-16)
(0.025 -0.0301 -1.77e-16)
(-0.0417 -0.0866 9.38e-17)
(-0.0459 -0.0903 4.07e-16)
(-0.00105 -0.0362 -4.72e-16)
(0.0449 -0.089 -4.03e-16)
(0.0379 -0.0706 0)
(0.0382 -0.0492 4.48e-16)
(-0.0361 -0.0682 0)
(-0.0241 -0.0417 0)
(-0.00143 -0.111 1.86e-16)
(0.00287 -0.042 8.94e-16)
(-0.00285 -0.0414 -7.15e-16)
(-0.0381 -0.071 0)
(0.0355 -0.0674 0)
(0.00588 -0.0396 -3.44e-16)
(0.00903 -0.0992 -9.15e-16)
(0.0137 -0.0422 -2.22e-16)
(-0.00409 -0.108 0)
(-0.000978 -0.104 -2.94e-16)
(0.0389 -0.0751 0)
(-0.0442 -0.0803 0)
(-0.0451 -0.0536 0)
(0.046 -0.0907 4.15e-16)
(-0.0224 -0.0255 0)
(-0.0196 -0.0457 4.42e-16)
(-0.0469 -0.0922 -3.99e-16)
(-0.0375 -0.0796 -1.3e-17)
(0.00246 -0.106 9.62e-17)
(-0.0328 -0.0664 -2.21e-16)
(0.00133 -0.0726 0)
(-0.0416 -0.08 -4.21e-16)
(0.0409 -0.079 4.22e-16)
(-0.0446 -0.0906 4.12e-16)
(-0.0111 -0.0239 -4.81e-16)
(0.0437 -0.0894 2.1e-16)
(-0.0372 -0.0722 0)
(0.0238 -0.0502 -4.35e-16)
(0.0227 -0.0427 0)
(-0.0221 -0.0412 0)
(-0.024 -0.0504 8.75e-16)
(3.75e-05 -0.115 -9.41e-17)
(0.00263 -0.0253 3.97e-20)
(-0.00206 -0.025 1.85e-16)
(-0.000311 -0.0191 3.73e-16)
(-0.00942 -0.0231 -3.78e-16)
(0.00467 -0.0225 -1.91e-16)
(-0.00807 -0.0163 -3.88e-16)
(0.023 -0.0726 0)
(-0.0234 -0.0738 0)
(0.0164 -0.0263 1.34e-16)
(0.0124 -0.0236 0)
(-0.0127 -0.0238 0)
(0.0158 -0.0937 1.53e-16)
(0.0194 -0.0453 0)
(-0.0112 -0.0204 0)
(0.0111 -0.0194 0)
(-0.0014 -0.113 -3.81e-16)
(-0.019 -0.0356 0)
(-0.00136 -0.0218 7.25e-16)
(0.00898 -0.0179 0)
(-0.00961 -0.0181 -3.75e-16)
(-0.00358 -0.0403 8.77e-16)
(-0.0135 -0.0218 0)
(-0.00185 -0.0998 -9.52e-17)
(0.00142 -0.11 9.42e-17)
(-0.0359 -0.0835 0)
(0.00678 -0.0667 0)
(0.00697 -0.0203 -3.76e-18)
(0.00059 -0.0182 0)
(0.027 -0.081 4.13e-16)
(-0.000419 -0.0357 4.67e-16)
(-0.0516 -0.0923 -6.38e-16)
(0.0132 -0.024 0)
(0.00404 -0.0397 4.71e-16)
(0.011 -0.0237 4.78e-16)
(-0.0118 -0.0211 3.8e-16)
(0.000762 -0.0217 -7.42e-16)
(0.00108 -0.039 5e-16)
(-0.0329 -0.0719 3.19e-16)
(0.0293 -0.0629 7.9e-16)
(0.0139 -0.0404 0)
(0.00487 -0.0115 -3.85e-16)
(-0.000916 -0.0201 -3.8e-16)
(0.0021 -0.00913 0)
(-0.00214 -0.00924 0)
(-0.0323 -0.0796 -4.02e-16)
(0.0188 -0.052 0)
(-0.000233 -0.117 -2.76e-16)
(0.00634 -0.104 -2.03e-16)
(-0.00105 -0.115 -5.57e-16)
(-0.00236 -0.089 2.15e-16)
(-0.00493 -0.0116 0)
(-0.0229 -0.042 0)
(-0.000937 -0.107 -4.88e-16)
(0.0216 -0.0408 0)
(-0.00188 -0.11 8.4e-16)
(0.000315 -0.116 0)
(0.00287 -0.11 -9.44e-17)
(-0.000809 -0.115 1.89e-16)
(-0.0161 -0.0312 -4.58e-16)
(0.00672 -0.0136 -7.63e-16)
(-0.00679 -0.0137 3.85e-16)
(-0.000488 -0.0149 0)
(0.000211 -0.0345 -4.67e-16)
(0.0226 -0.0677 0)
(-0.0368 -0.0822 1.28e-17)
(-0.00391 -0.102 1.72e-16)
(-0.0132 -0.023 0)
(0.0004 -0.018 0)
(0.000926 -0.0363 5.78e-17)
(0.0114 -0.0208 -3.81e-16)
(0.0261 -0.0807 -1.02e-15)
(-0.000175 -0.0364 1.07e-16)
(0.0003 -0.0368 -4.16e-16)
(-0.00124 -0.0979 5.01e-16)
(-0.023 -0.069 0)
(1.49e-06 -0.0212 3.7e-16)
(-3.71e-05 -0.018 0)
(0.00064 -0.021 0)
(1.67e-05 -0.0222 7.02e-16)
(0.0259 -0.0751 4.06e-16)
(-0.00187 -0.0764 -9.65e-16)
(-0.000439 -0.118 -3.66e-16)
(-0.000437 -0.118 0)
(0.0244 -0.0569 2.2e-16)
(-0.000868 -0.116 2.76e-16)
(-0.000405 -0.119 -5.83e-16)
(-0.0191 -0.0526 0)
(-0.000577 -0.114 3.79e-16)
(0.00117 -0.11 3.91e-16)
(-0.034 -0.0766 0)
(-0.0071 -0.0205 0)
(-0.014 -0.0408 0)
(-0.000869 -0.106 -4.68e-16)
(-0.0294 -0.0623 -4.41e-16)
(4.05e-05 -0.117 7.6e-16)
(-0.00264 -0.11 9.72e-17)
(0.000537 -0.103 -3.03e-16)
(-0.00501 -0.105 3.86e-16)
(0.000388 -0.113 -1.79e-16)
(-0.0493 -0.0915 3.82e-16)
(-0.032 -0.0609 0)
(0.043 -0.0866 0)
(8.43e-05 -0.114 7.02e-16)
(-0.00989 -0.0975 9.9e-17)
(-0.0557 -0.0906 -1.52e-16)
(-0.000264 -0.118 1.86e-16)
(0.000711 -0.104 -3.81e-16)
(-0.0277 -0.0554 6.56e-16)
(-6.03e-05 -0.112 1.92e-16)
(0.00515 -0.104 -1.77e-16)
(0.000885 -0.103 -3.97e-16)
(-0.000478 -0.0763 0)
(-0.00236 -0.0903 0)
(0.00196 -0.108 -1.93e-16)
(0.0018 -0.112 2.86e-16)
(-0.000868 -0.116 2.76e-16)
(-0.000778 -0.0659 3.94e-16)
(-0.00017 -0.117 2.79e-16)
(0.0497 -0.0663 -1.12e-16)
(0.0275 -0.0773 2.21e-16)
(-0.00809 -0.0185 -3.83e-16)
(0.00769 -0.0176 9.72e-17)
(-0.00893 -0.0201 3.78e-16)
(0.00899 -0.0199 0)
(0.00919 -0.0191 3.86e-16)
(-0.00933 -0.0194 1.93e-16)
(-0.00171 -0.103 -1.89e-16)
(0.00992 -0.0223 0)
(-0.0101 -0.0234 0)
(3.73e-05 -0.116 -2.79e-16)
(-0.0117 -0.0243 -3.73e-16)
(0.0142 -0.026 0)
(-0.0143 -0.0266 0)
(-0.00136 -0.113 -3.02e-16)
(-0.0118 -0.0111 0)
(-9.51e-05 -0.116 9.39e-17)
(0.00786 -0.0192 4.29e-16)
(-0.00036 -0.117 -9.71e-17)
(0.000489 -0.0961 -4.09e-16)
(-0.00136 -0.115 9.68e-17)
(0.0396 -0.0781 4.06e-16)
(0.00727 -0.101 1.7e-16)
(-0.0325 -0.0298 0)
(0.0361 -0.0787 0)
(-0.0331 -0.0217 -4.72e-17)
(-0.0524 -0.0539 3.93e-16)
(0.0302 -0.0827 -2.05e-16)
(-0.0765 -0.0851 -2.1e-16)
(0.0329 -0.0202 3.61e-16)
(-0.00872 -0.101 -9.77e-17)
(-0.0156 -0.0356 -4.86e-16)
(0.0154 -0.0345 3.47e-16)
(-0.0258 -0.0499 -4.49e-16)
(-0.00127 -0.081 -3.47e-16)
(0.0161 -0.0362 -2.42e-16)
(-0.0163 -0.0367 0)
(0.00341 -0.107 -4.75e-16)
(0.00145 -0.111 2.8e-16)
(-0.00101 -0.104 5.77e-16)
(-0.00155 -0.0193 -4.96e-16)
(-0.0199 -0.0434 4.51e-16)
(-0.0224 -0.0443 0)
(0.0141 -0.0333 -2.98e-16)
(0.00422 -0.0812 1.72e-16)
(0.015 -0.0812 0)
(0.00973 -0.0916 4.07e-16)
(0.0282 -0.0719 -1.97e-16)
(-0.0797 -0.0775 3.57e-16)
(0.0102 -0.0535 2.09e-16)
(0.0619 -0.0446 3.54e-18)
(-0.000332 -0.0986 5.12e-16)
(0.00539 -0.0715 4.36e-16)
(-0.00104 -0.0314 4.86e-16)
(-0.0748 -0.0793 -7.04e-16)
(0.00111 -0.0335 -4.42e-16)
(-0.00617 -0.0369 2.32e-16)
(-0.0106 -0.0784 3.16e-16)
(-0.0126 -0.0847 0)
(-0.00818 -0.0895 0)
(0.0729 -0.0602 0)
(-0.0236 -0.0679 6.38e-16)
(0.00872 -0.101 -4.91e-16)
(0.022 -0.0889 -4.01e-16)
(-0.00837 -0.0778 -8.2e-16)
(-0.0373 -0.0799 1.01e-16)
(-0.00285 -0.094 5.42e-21)
(-0.0274 -0.073 -8.41e-16)
(-0.0338 -0.0765 -1.02e-16)
(0.0143 -0.0952 9.84e-17)
(0.0322 -0.0706 -4.47e-16)
(-0.0326 -0.0719 -2.25e-16)
(0.0411 -0.0864 0)
(-0.00774 -0.0955 9.7e-17)
(-0.0378 -0.0828 5.25e-17)
(0.000138 -0.0177 -1.79e-20)
(0.0412 -0.0843 0)
(-0.0399 -0.0821 5.46e-16)
(-0.0358 -0.0811 0)
(0.0314 -0.0805 -2.11e-16)
(0.0138 -0.0404 5.96e-16)
(-0.0062 -0.089 -4.53e-16)
(0.00788 -0.0223 -3.56e-16)
(0.0308 -0.082 0)
(-0.065 -0.0875 0)
(0.00127 -0.113 -1.88e-16)
(0.0469 -0.0524 -1.07e-16)
(0.0114 -0.0837 0)
(-0.00876 -0.0205 -1.87e-16)
(0.0363 -0.0817 -2.06e-16)
(0.0316 -0.0688 0)
(-0.0282 -0.0862 -4.02e-16)
(0.021 -0.0648 0)
(-0.0155 -0.0929 4.1e-16)
(-0.0258 -0.0864 -3.14e-16)
(0.00357 -0.0957 0)
(0.00992 -0.0829 2.19e-16)
(0.000243 -0.0774 0)
(-0.0602 -0.0913 0)
(-0.00448 -0.109 3.96e-16)
(-0.000538 -0.062 -3.37e-16)
(-0.0542 -0.0718 -4.02e-16)
(-0.0445 -0.0656 5.69e-16)
(0.000741 -0.0173 0)
(-0.042 -0.0852 1.08e-16)
(-0.0109 -0.082 0)
(-0.0369 -0.0807 1.13e-21)
(0.00967 -0.0814 1.67e-16)
(-0.0432 -0.0889 -3.9e-16)
(-0.00143 -0.0643 0)
(-0.00557 -0.064 -6.98e-18)
(0.0361 -0.0648 2.02e-16)
(0.000499 -0.109 6.03e-16)
(-0.0584 -0.0756 0)
(0.0173 -0.0642 4.35e-16)
(-0.0251 -0.0281 2.23e-16)
(-0.0142 -0.0968 -1.54e-16)
(0.0142 -0.0382 -2.72e-16)
(-0.00223 -0.113 9.74e-17)
(0.0508 -0.0797 -1.25e-20)
(-0.0154 -0.0399 0)
(0.0249 -0.0269 -2.29e-16)
(-0.0117 -0.0991 2.04e-16)
(0.0335 -0.0761 -6.32e-16)
(0.000489 -0.0911 -4.49e-16)
(-0.00114 -0.0179 0)
(-0.0124 -0.0166 0)
(-0.00989 -0.0756 2.12e-16)
(-0.000633 -0.102 -4.16e-16)
(0.0361 -0.0795 2.01e-16)
(0.0348 -0.082 4.22e-16)
(0.0104 -0.0136 1.86e-16)
(0.0194 -0.0257 9.18e-17)
(0.0484 -0.0566 1.8e-16)
(0.000497 -0.0932 0)
(0.00308 -0.11 1.97e-16)
(-0.0758 -0.0791 -3.02e-16)
(-0.000822 -0.11 -9.31e-16)
(-0.00913 -0.0815 1.7e-16)
(0.0262 -0.0713 2.18e-16)
(-6.28e-05 -0.0929 3.16e-16)
(-0.00211 -0.0407 0)
(-0.0164 -0.0885 0)
(-0.0531 -0.0841 -2e-16)
(0.00222 -0.041 -1.71e-16)
(-0.0699 -0.0871 4.97e-17)
(0.0315 -0.0786 2.52e-17)
(0.0174 -0.0906 5.25e-17)
(-0.00996 -0.0982 -2.02e-16)
(-0.0151 -0.0352 4.73e-16)
(-0.00152 -0.0714 2.23e-16)
(-0.0388 -0.084 2.02e-16)
(-0.00672 -0.0782 1.65e-16)
(0.00638 -0.0788 0)
(0.0406 -0.0854 -2.13e-16)
(-0.00569 -0.105 -4.01e-16)
(0.024 -0.0608 0)
(0.00255 -0.0991 5.97e-16)
(-0.0692 -0.0739 1.15e-16)
(-0.0157 -0.0897 0)
(-0.0266 -0.0598 2.33e-16)
(0.00913 -0.0936 0)
(-0.0254 -0.063 4.38e-16)
(-0.02 -0.0895 0)
(0.00103 -0.0769 4.06e-16)
(0.0391 -0.0648 0)
(0.00134 -0.0616 -4.42e-16)
(-0.0278 -0.0646 -2.42e-16)
(-0.0328 -0.072 -5.64e-17)
(0.000246 -0.0363 -4.41e-16)
(0.0395 -0.0826 2.17e-16)
(0.0277 -0.0636 0)
(0.000847 -0.071 0)
(0.0212 -0.0895 4.17e-16)
(0.000552 -0.101 -2.96e-16)
(0.027 -0.0494 -3.53e-16)
(-0.00145 -0.112 9.8e-17)
(0.0248 -0.0571 0)
(0.035 -0.0764 2.31e-16)
(0.0013 -0.0896 -5.65e-16)
(-3.06e-05 -0.0723 2.9e-16)
(0.00559 -0.0687 -2.28e-16)
(0.0531 -0.0742 1.05e-16)
(-0.00469 -0.0735 2.3e-16)
(0.0312 -0.0471 0)
(0.0427 -0.0875 0)
(-0.00218 -0.036 -4.33e-16)
(0.000279 -0.0938 0)
(0.0214 -0.0863 4.84e-16)
(-0.0248 -0.0373 -2.4e-16)
(0.000927 -0.058 0)
(-0.031 -0.0688 -2.85e-16)
(-0.0489 -0.0577 -2.75e-17)
(-0.0119 -0.0661 4.64e-16)
(0.013 -0.0672 8.71e-20)
(0.0147 -0.0883 -2.67e-17)
(0.0256 -0.0383 0)
(0.0284 -0.064 2.42e-16)
(0.0125 -0.0749 0)
(-0.000874 -0.0952 -2.13e-16)
(0.000421 -0.0722 0)
(-0.0515 -0.0712 0)
(0.063 -0.0761 -1.04e-16)
(0.0284 -0.0672 2.25e-16)
(0.0673 -0.061 2.92e-17)
(-0.0415 -0.0829 -1.17e-16)
(0.0342 -0.0788 -2.02e-16)
(-0.0514 -0.0754 1.06e-16)
(0.0479 -0.0632 -1.16e-16)
(-0.00624 -0.106 -9.97e-17)
(0.055 -0.0899 -2.73e-16)
(-0.000883 -0.111 1.15e-16)
(0.00102 -0.0918 1.12e-16)
(-0.012 -0.0929 5.88e-17)
(-0.0148 -0.0942 0)
(-0.0305 -0.0482 0)
(0.0249 -0.0559 -5.07e-16)
(-0.0208 -0.0858 0)
(0.0217 -0.0863 -2.18e-16)
(0.000841 -0.0872 0)
(0.016 -0.0873 2.23e-16)
(-0.00994 -0.0986 1.49e-16)
(-0.023 -0.0871 -2.38e-16)
(0.0225 -0.087 -2.39e-16)
(-0.0374 -0.0813 2.2e-16)
(-0.0583 -0.0718 0)
(0.057 -0.0503 -1.63e-16)
(-0.00979 -0.0908 -4.66e-16)
(-0.0707 -0.0767 1.17e-16)
(0.000685 -0.0891 0)
(-0.0676 -0.0803 2.41e-16)
(-0.058 -0.0656 0)
)
;

boundaryField
{
    front
    {
        type            empty;
    }
    back
    {
        type            empty;
    }
    bottom
    {
        type            zeroGradient;
    }
    left
    {
        type            noSlip;
    }
    top
    {
        type            uniformFixedValue;
        uniformValue    
        {
            type            table;
            format          csv;
            file            "inlet_v.csv";
            nHeaderLine     1;
            refColumn       0;
            componentColumns List<label> 3(1 2 3);
            separator       ",";
            mergeSeparators 0;
        }
        value           uniform (0 -0.08 0);
    }
    right
    {
        type            noSlip;
    }
    inner_arc
    {
        type            noSlip;
    }
}


// ************************************************************************* //
