/*--------------------------------*- C++ -*----------------------------------*\
  =========                 |
  \\      /  F ield         | OpenFOAM: The Open Source CFD Toolbox
   \\    /   O peration     | Website:  https://openfoam.org
    \\  /    A nd           | Version:  9
     \\/     M anipulation  |
\*---------------------------------------------------------------------------*/
FoamFile
{
    format      ascii;
    class       volScalarField;
    location    "0.99";
    object      p;
}
// * * * * * * * * * * * * * * * * * * * * * * * * * * * * * * * * * * * * * //

dimensions      [0 2 -2 0 0 0 0];

internalField   nonuniform List<scalar> 
464
(
6.49867e-24
-7.86199e-23
-3.43767e-22
-3.36552e-22
-9.7101e-23
-3.52893e-22
-3.46865e-23
-3.42835e-22
-4.41535e-23
-3.68638e-23
-5.83775e-24
6.23356e-23
-4.0663e-23
4.45098e-23
-1.55404e-22
-1.13023e-22
-2.93533e-22
1.27745e-21
-3.44328e-22
-2.88628e-22
-2.04129e-22
-3.16833e-22
-3.35472e-22
-3.39539e-22
-3.45841e-22
-3.44178e-22
-6.45339e-23
-3.39215e-22
6.1942e-23
-3.3241e-22
-3.39585e-22
-1.84761e-22
-2.13837e-22
-4.27107e-22
3.4473e-23
-3.63323e-22
-1.08206e-21
-3.5198e-22
-3.43176e-22
-8.79195e-23
-2.43038e-22
-2.92221e-22
-3.48609e-22
-5.16892e-24
1.3047e-22
-3.93834e-22
-3.25922e-22
-3.20803e-22
-3.39805e-22
-3.53108e-22
-3.89909e-23
-3.34776e-22
-3.90774e-22
-2.90382e-22
-3.06987e-22
-3.37906e-22
-3.35683e-22
-2.53192e-22
-3.11064e-22
-3.22278e-22
-3.50625e-22
-1.03284e-22
-1.77482e-22
-2.75409e-22
-6.92556e-23
-3.04323e-22
-2.61454e-22
-3.50216e-22
2.36672e-23
-2.97816e-22
-2.7614e-22
-8.73625e-23
-1.39302e-23
-3.29586e-22
-1.4998e-22
-3.4345e-22
-3.27995e-22
-1.2997e-25
-2.75128e-22
5.62272e-23
-1.11326e-22
-3.46022e-22
-1.69596e-22
-3.48935e-22
-1.27078e-22
-2.59559e-22
-9.90712e-23
-3.56102e-22
-3.34545e-22
-1.50073e-22
-1.25221e-22
-8.67763e-23
-2.26009e-22
4.9456e-23
-1.83661e-22
-4.06369e-22
-3.21597e-22
-3.47735e-22
-1.48383e-22
-7.1093e-23
-3.4067e-22
-3.23306e-22
-3.34411e-22
-2.04242e-22
-3.66719e-22
-1.57782e-22
-3.51298e-22
-2.82868e-22
-1.29453e-22
-3.05689e-22
-1.70375e-22
-3.25167e-22
-1.25199e-22
-1.45146e-22
-3.39956e-22
-3.34209e-22
-1.65588e-22
-3.39514e-22
-1.45796e-22
-3.43514e-22
-3.17797e-22
-8.58568e-23
-8.61111e-23
-2.08952e-23
-3.12254e-22
-1.40496e-22
-7.96809e-23
-1.52062e-22
-3.31345e-22
-1.71227e-22
-3.58458e-22
-3.66687e-23
-3.49271e-22
-3.30545e-22
-3.23043e-22
-1.52069e-22
-3.36981e-22
-3.41059e-22
-5.54361e-23
-3.16088e-22
-3.38554e-22
-2.50263e-22
-2.41248e-22
-3.39349e-22
-3.30383e-22
-1.52585e-22
-3.28625e-22
-3.41595e-22
-2.87833e-22
-3.0852e-22
-3.21368e-22
-3.30471e-22
-9.22822e-23
-1.45294e-22
-1.48904e-22
-3.12933e-22
-1.29924e-23
-3.15573e-22
-8.68337e-23
-1.3366e-22
-1.05681e-22
-3.16322e-22
-1.54675e-22
-4.12104e-22
-3.83396e-22
-3.32681e-22
-1.02763e-22
-1.722e-22
-2.03476e-22
-1.52308e-22
-1.57225e-22
-1.25775e-22
-1.4852e-22
-3.16875e-22
-1.58091e-22
-1.6304e-22
-3.07435e-22
-3.30342e-22
-1.04019e-22
-1.49815e-23
-3.40232e-22
-1.74048e-22
3.24254e-22
1.26499e-21
-1.28756e-22
-8.30207e-22
-2.26035e-22
-2.09692e-22
-1.5174e-22
-2.00583e-22
-3.13009e-22
-1.82303e-22
-3.22848e-22
-3.25024e-22
-2.92168e-22
-2.70762e-22
-1.98083e-22
-3.24082e-22
-4.94596e-22
-2.94931e-22
-3.08267e-22
-2.8001e-22
-3.04311e-22
-2.94447e-22
-2.3299e-22
-3.24859e-22
-2.97284e-22
-2.78668e-22
-2.78103e-22
-1.53606e-22
-3.4471e-22
-2.23885e-22
-3.36002e-22
8.36154e-23
-6.29107e-22
-1.74885e-22
2.65142e-22
-3.17462e-22
-4.6988e-23
-2.60513e-22
2.21661e-21
-2.9292e-22
-2.89828e-22
-2.84367e-22
-3.18558e-22
-3.36504e-22
-2.88509e-22
-2.79812e-22
-3.26065e-22
-2.5098e-22
-2.56749e-22
-1.80447e-22
-1.84617e-22
-1.64835e-22
-1.7735e-22
-2.14303e-22
-4.34236e-22
5.27418e-23
-1.67669e-22
-9.17058e-22
-7.34562e-23
-1.77456e-22
-2.25485e-22
4.93413e-23
7.64387e-23
-1.84332e-21
1.97168e-22
-2.5723e-22
-6.5221e-22
-6.18904e-22
5.27108e-22
-1.77064e-21
-2.2499e-22
-1.41028e-22
-1.97865e-23
1.93768e-22
-3.17399e-22
-7.44929e-22
1.21947e-22
-4.8243e-23
1.25964e-22
-2.26005e-22
-3.66704e-22
-1.5403e-22
-2.86154e-22
-8.82184e-23
-2.38749e-22
-3.39834e-22
-2.42795e-22
-1.01365e-22
-2.95159e-22
-1.64692e-22
-1.36416e-22
-2.77323e-22
-1.04115e-22
-1.47828e-22
-1.29504e-22
-2.60319e-22
-2.48059e-22
-1.55674e-22
-1.48953e-22
-3.28735e-22
-2.54812e-22
-3.35129e-22
-1.21578e-22
-1.5436e-22
-2.50271e-22
-1.00431e-22
-3.30109e-22
-1.34628e-22
-1.23602e-22
-8.65433e-23
-3.38736e-22
-3.01648e-22
-4.04486e-22
-2.30366e-22
-2.18874e-22
-1.27887e-22
-1.40111e-22
-1.20267e-22
-9.76399e-23
-8.9015e-23
-2.954e-23
5.71265e-23
-6.52907e-22
-3.35918e-22
-2.85531e-22
-8.34227e-22
-1.28746e-22
-1.61046e-22
-3.05599e-22
-3.36404e-22
-4.00652e-22
-9.11559e-23
-1.31384e-22
-1.33756e-22
-2.70767e-22
-1.30684e-22
-3.42387e-22
-1.27833e-22
-3.31599e-22
-1.78947e-22
-1.31826e-22
-1.32181e-22
-7.82701e-23
-3.35986e-22
-3.31093e-22
-1.21332e-22
-3.30265e-22
-1.44841e-22
-3.13182e-22
-3.07092e-23
-3.36845e-22
-3.36663e-22
-3.03387e-22
-2.94172e-22
-3.32185e-22
-3.41156e-22
-1.59425e-22
-2.3859e-22
-3.34219e-22
5.75599e-23
-1.56904e-22
-1.51711e-22
-1.41116e-22
-3.43395e-22
-3.2838e-22
-2.37419e-22
-3.50639e-22
-3.0937e-22
-3.02514e-22
-3.49148e-22
-1.96787e-22
-2.15758e-22
-3.08243e-22
-4.50037e-23
-3.50315e-22
-1.22427e-22
-3.43481e-22
-9.22072e-23
-3.48996e-22
-1.27669e-23
-3.546e-22
-1.11778e-22
4.27168e-24
-3.53834e-22
-3.49224e-22
-1.27863e-21
1.51635e-22
-3.47871e-22
-3.42044e-22
-1.61793e-22
-1.24454e-22
-2.20608e-21
-2.4759e-22
-3.51515e-22
5.98715e-23
-2.75318e-22
1.57584e-22
-3.41438e-22
1.96565e-22
-5.04735e-22
-7.01936e-22
-1.57337e-22
4.65053e-22
-1.33193e-22
2.17967e-22
-3.45361e-22
2.34187e-21
1.17617e-21
-2.25638e-22
-3.04522e-22
-1.17895e-21
-6.80854e-22
-4.48381e-22
-3.14524e-22
-3.76534e-22
-3.29722e-22
-2.20279e-22
-6.76862e-24
-4.82927e-23
-3.4724e-22
6.59915e-23
-3.44028e-22
-4.63294e-24
2.81528e-23
1.10643e-22
-3.47896e-22
6.10941e-23
-3.39774e-22
-4.41873e-23
-3.452e-22
-3.43901e-22
-3.37034e-22
-3.57215e-22
-5.87229e-23
1.61728e-22
-3.49039e-22
-3.56033e-22
-6.66535e-23
-3.50898e-22
-3.52549e-22
3.40042e-23
-2.83715e-22
4.93351e-23
-6.93422e-23
2.38612e-22
1.60783e-22
2.73044e-22
-1.48638e-22
-3.47457e-22
-1.5769e-22
-5.94161e-22
-3.3387e-22
4.22466e-22
3.13796e-21
2.24775e-21
-3.38796e-22
2.52007e-21
-3.38092e-22
-2.1669e-22
-1.04313e-21
-4.26472e-22
-4.28447e-22
-3.25814e-22
-3.84795e-22
-3.23081e-22
-2.3397e-22
-3.22243e-22
-1.56271e-23
-5.624e-23
1.16584e-23
-3.46063e-22
-3.40394e-22
-1.28706e-22
-8.78362e-22
-1.86349e-21
-3.48067e-22
-3.47763e-22
-3.47513e-22
-3.4512e-22
1.29284e-22
8.31574e-23
-3.3441e-22
)
;

boundaryField
{
    back
    {
        type            empty;
    }
    front
    {
        type            empty;
    }
    left
    {
        type            zeroGradient;
    }
    top
    {
        type            zeroGradient;
    }
    right
    {
        type            zeroGradient;
    }
    bottom
    {
        type            uniformFixedValue;
        uniformValue    
        {
            type            scale;
            scale           
            {
                type            squarePulse;
                start           0.3;
                duration        0.3;
            }
            xScale          
            {
                type            constant;
                value           1;
            }
            value           
            {
                type            constant;
                value           15.1;
            }
        }
        value           uniform 0;
    }
}


// ************************************************************************* //
