/*--------------------------------*- C++ -*----------------------------------*\
  =========                 |
  \\      /  F ield         | OpenFOAM: The Open Source CFD Toolbox
   \\    /   O peration     | Website:  https://openfoam.org
    \\  /    A nd           | Version:  9
     \\/     M anipulation  |
\*---------------------------------------------------------------------------*/
FoamFile
{
    format      ascii;
    class       surfaceScalarField;
    location    "0.99";
    object      phi;
}
// * * * * * * * * * * * * * * * * * * * * * * * * * * * * * * * * * * * * * //

dimensions      [0 3 -1 0 0 0 0];

internalField   nonuniform List<scalar> 
663
(
2.75617e-29
1.06852e-28
-1.34695e-28
7.28436e-29
1.38221e-28
8.09303e-31
-8.15706e-31
-1.59189e-30
1.03702e-29
-8.81489e-30
-5.97263e-29
1.31836e-28
3.53766e-31
-2.00631e-30
-1.04091e-28
1.32132e-28
7.6669e-30
-1.2565e-29
-1.19852e-28
1.70989e-28
-5.15922e-29
1.02378e-28
-2.22038e-28
8.06704e-29
2.72157e-29
1.15874e-29
4.87163e-29
-6.04329e-29
6.72272e-29
-7.83159e-30
1.24905e-29
9.07223e-29
-8.84227e-29
6.55262e-30
9.84686e-29
-3.43098e-30
9.96146e-29
-4.34571e-29
-2.24173e-29
6.57933e-29
7.39674e-29
-2.6568e-30
2.69952e-30
4.41785e-29
-4.63649e-29
4.81649e-30
-3.08856e-30
4.00811e-29
-2.86873e-29
2.5094e-30
2.59361e-29
-3.2415e-29
2.41381e-31
-7.25004e-30
-5.25906e-30
1.24969e-29
6.30776e-30
8.60591e-31
6.35157e-30
-1.69147e-29
4.84671e-29
-6.84371e-29
1.9485e-29
-1.11104e-29
1.28187e-29
-1.74301e-30
9.78617e-29
-4.12049e-29
1.07296e-29
-2.10596e-29
1.03779e-29
-1.07762e-29
1.84029e-29
-7.93158e-29
1.08736e-28
-2.90322e-29
1.88066e-29
-9.62764e-29
8.30915e-29
-9.61977e-29
4.32397e-29
9.56672e-29
1.01729e-29
-2.19868e-29
-5.09399e-30
1.08527e-29
-9.13755e-29
-1.7977e-30
-3.36236e-30
2.51128e-30
-1.68989e-29
-7.94167e-29
1.28474e-29
6.60773e-29
-2.88563e-29
-2.04586e-29
2.05092e-29
-3.38056e-29
1.32442e-29
-2.09767e-29
-6.32273e-29
-1.2763e-30
-8.89604e-30
-1.80719e-29
3.33285e-29
-3.41359e-29
8.17567e-31
2.73846e-29
-2.96491e-29
2.23324e-30
6.62125e-30
-6.63853e-30
5.79232e-30
4.80382e-30
-3.88571e-29
-2.09672e-29
3.22387e-30
1.77603e-29
-2.80263e-29
1.15485e-29
1.79537e-29
2.76027e-30
5.78697e-29
-6.0893e-29
-5.35932e-29
5.23277e-29
-3.09678e-30
-2.11403e-29
2.55241e-29
4.12347e-30
7.6503e-29
-7.81934e-29
-6.60488e-29
6.47146e-29
-3.50457e-30
-1.00905e-29
5.1598e-30
-9.50655e-29
1.35824e-28
-4.08005e-29
8.74482e-29
-7.20352e-29
-1.88818e-29
-6.58231e-29
6.61064e-29
-1.60759e-30
-7.57243e-29
1.77476e-28
7.00945e-31
5.2827e-29
6.57838e-29
-7.40318e-29
9.77243e-30
-8.9729e-30
1.46327e-29
1.10675e-30
-5.61993e-29
-6.95746e-29
3.17308e-30
-1.73049e-28
8.3242e-29
1.54076e-29
9.55648e-32
2.42574e-29
-5.44861e-30
-3.24847e-29
3.80502e-29
-4.18686e-30
4.98081e-31
7.21773e-29
-9.99659e-29
-3.42605e-29
7.23469e-29
-2.13814e-30
-4.08556e-30
9.68276e-29
4.11575e-29
-1.3802e-28
-4.82746e-30
-1.51397e-30
6.33368e-30
1.45912e-29
-4.73933e-29
3.26903e-29
-1.79482e-30
3.61621e-30
-1.81586e-30
1.09136e-28
2.82865e-30
7.51659e-29
5.67516e-29
7.79098e-29
-1.28098e-29
3.42968e-30
-2.0286e-29
1.68351e-29
5.61989e-29
-6.29394e-29
6.75161e-29
-1.33048e-28
-5.81383e-29
7.14316e-29
-9.77695e-30
2.27733e-29
-4.93969e-29
2.73581e-29
-6.99332e-29
1.21386e-29
-8.44033e-29
-9.5325e-31
-1.29502e-29
8.03565e-30
6.30411e-31
-1.3316e-29
1.24447e-29
1.56542e-28
-8.98411e-29
-2.13867e-29
2.15493e-29
-3.17359e-30
-2.94273e-29
-2.61234e-29
2.78112e-30
6.08822e-29
3.99669e-29
-2.85002e-29
-4.85297e-29
8.36194e-31
-6.45539e-29
-1.22922e-30
-8.74666e-30
7.63615e-29
4.54837e-29
-4.49059e-29
-8.81817e-31
-6.97267e-29
1.18486e-29
5.66893e-29
-3.85397e-29
1.61935e-29
3.90469e-29
-4.04686e-29
-2.44919e-29
1.02152e-30
-2.72511e-29
-7.35812e-31
-3.03275e-29
2.06531e-29
-3.22492e-30
7.66122e-30
-4.42421e-30
-1.4961e-29
9.48774e-30
-1.5786e-29
3.71743e-29
8.18377e-29
7.58071e-29
1.43944e-28
-8.76758e-29
6.12004e-29
7.21214e-29
-7.16129e-29
-5.15745e-29
-1.8153e-29
5.86237e-29
8.35244e-29
4.41263e-29
-3.29921e-29
2.85031e-29
3.70921e-29
-2.48599e-29
2.76865e-29
-3.22157e-29
3.33938e-30
3.30271e-30
-2.12054e-29
1.78365e-29
1.98125e-29
-7.2744e-30
-1.90639e-29
1.4336e-29
-9.47137e-30
1.08986e-29
7.69212e-30
-8.00816e-30
-2.07312e-29
5.1211e-29
-4.57657e-29
-2.87033e-29
-5.44711e-30
-1.88047e-30
2.11158e-30
-3.60283e-29
-3.30788e-29
-8.0188e-31
-4.9933e-30
6.32267e-29
8.49143e-31
-1.0938e-29
-2.56318e-30
-3.95146e-29
5.02835e-30
-2.95759e-29
3.12935e-29
-1.05373e-28
1.21186e-28
-1.69696e-29
-6.59635e-29
1.00089e-29
4.57932e-30
1.19071e-29
-3.54999e-30
-4.68166e-29
6.33388e-30
-4.05075e-29
-9.06601e-31
1.42198e-28
2.64813e-29
4.88825e-29
1.15497e-28
-9.07526e-30
-1.07481e-28
-4.46815e-29
2.07721e-30
3.7923e-30
3.29761e-29
-1.27868e-29
-4.24123e-30
-9.57071e-30
-2.4272e-30
1.14444e-28
-1.73305e-29
3.31892e-29
2.9881e-30
9.08857e-29
-9.62376e-29
1.19758e-29
-1.19245e-29
1.49701e-29
-4.20295e-30
1.02399e-28
1.17687e-29
-9.93439e-30
-2.33629e-29
-1.08933e-29
6.86176e-30
3.56384e-29
-4.53688e-29
-1.35823e-30
3.98941e-30
-5.10408e-29
-1.31966e-28
2.58429e-29
-1.35022e-29
-5.6998e-29
6.25911e-29
4.76082e-29
-4.32674e-29
6.70274e-30
-5.10361e-29
4.30016e-29
-1.1422e-29
-4.35874e-30
6.22489e-29
4.91788e-29
-3.18052e-29
-5.48786e-29
-3.50651e-29
-1.92004e-29
1.72184e-29
-1.8583e-29
1.73776e-29
-1.54684e-29
3.45024e-29
5.95814e-31
-3.48461e-29
-1.3084e-29
-5.52388e-30
-1.17167e-29
1.17515e-29
5.88679e-31
2.00501e-30
6.36353e-29
4.75093e-29
-4.48259e-29
-3.53051e-29
3.96856e-29
-3.93538e-29
2.89091e-31
4.34758e-29
2.18259e-30
-1.44208e-29
1.46556e-29
4.31937e-29
-1.50598e-30
-1.30288e-29
-1.58915e-29
-1.69617e-29
1.68676e-29
-1.84678e-29
1.77704e-29
-8.87901e-30
-5.51478e-29
4.3648e-29
-7.71167e-30
-3.73161e-29
-2.76365e-29
2.78409e-29
-1.86447e-29
-4.01801e-30
-1.55384e-30
-3.72733e-30
-5.30575e-29
-5.81852e-29
7.64645e-30
-5.87521e-29
-1.00299e-29
-6.50467e-29
7.41763e-29
-6.44212e-29
8.17769e-30
-6.01737e-29
-6.90959e-29
-5.91798e-29
-6.21067e-30
-1.42437e-30
-7.10073e-29
-4.29149e-30
-6.57375e-29
4.7251e-29
-7.19499e-29
8.66096e-29
4.74022e-30
-7.40731e-29
7.92227e-29
2.13709e-29
-7.98976e-29
-4.24178e-29
3.7965e-29
-8.82247e-29
3.35278e-29
-8.99585e-29
-2.35394e-29
-8.33355e-29
-1.02366e-28
-8.44213e-29
-6.76406e-29
8.08967e-30
-4.40875e-29
-1.06567e-28
8.79333e-30
-1.61855e-29
7.23916e-29
-9.95604e-29
-7.33835e-29
-1.79616e-29
9.47843e-29
-7.0818e-29
-1.13624e-29
-9.34362e-29
2.74525e-29
-7.78482e-29
3.95451e-29
-4.21752e-29
-4.51455e-30
-8.93208e-29
2.55837e-29
-1.12239e-28
8.27992e-29
-7.1641e-29
-3.20275e-29
-1.59226e-29
9.45762e-29
-7.5832e-29
-1.08584e-28
4.22087e-30
-1.24007e-28
1.30724e-28
-6.93744e-30
-1.005e-28
-1.24678e-28
-1.06871e-28
-2.15522e-29
1.16706e-28
-1.12436e-28
1.04944e-29
1.25355e-28
-2.76266e-29
-9.40834e-29
-1.54782e-29
1.06591e-28
5.36481e-30
1.10491e-28
1.35047e-28
-1.10104e-28
1.44337e-29
2.04493e-30
1.88595e-29
-1.86244e-29
1.13439e-30
-8.66902e-29
9.03677e-29
1.82878e-30
-3.04466e-29
-4.04586e-31
2.05458e-30
-1.05839e-28
-8.83179e-29
5.70786e-31
-4.24996e-30
-1.72332e-29
1.17944e-28
-3.47164e-29
2.58021e-29
-1.00153e-28
-8.57402e-29
-1.4376e-29
3.13028e-29
3.46156e-29
4.78783e-29
8.22378e-29
-5.26937e-29
2.19718e-29
-5.04715e-30
4.80174e-29
-4.21032e-29
6.59597e-29
-1.27196e-28
-4.53791e-29
-7.48666e-29
1.20607e-28
1.3893e-29
1.83739e-29
-5.93663e-31
-9.42456e-29
8.00297e-29
1.7253e-29
5.29262e-29
-4.04713e-29
-5.93134e-29
4.88791e-29
9.43951e-29
-8.98985e-29
7.84883e-29
-1.26559e-29
7.87036e-29
6.83264e-30
-9.69133e-31
-8.4277e-29
-2.38994e-29
2.41063e-31
5.16158e-29
9.20235e-30
-9.23073e-30
6.19926e-29
3.39516e-29
1.10479e-30
1.7525e-28
-3.42251e-30
-9.74914e-31
9.75344e-31
-6.23745e-29
4.5791e-29
-1.9185e-30
6.53185e-31
-6.98063e-31
-3.75242e-30
-1.31918e-31
5.37632e-32
7.81806e-29
-7.64688e-29
-6.37447e-29
2.05476e-30
1.04132e-29
7.2454e-30
1.62397e-30
4.5988e-29
5.60952e-29
-8.21833e-31
5.58165e-29
-8.24825e-31
-6.43445e-29
2.01777e-28
3.69248e-31
-3.64694e-30
-1.51629e-28
-9.46749e-33
-7.18824e-30
-2.164e-29
7.75898e-31
-4.44431e-31
-1.75883e-29
4.03168e-29
-3.11881e-32
-9.98368e-30
1.55049e-30
-3.33082e-30
1.8304e-29
-1.00029e-28
-1.07242e-28
-5.621e-29
-2.69147e-29
-8.86171e-29
-2.02701e-29
3.43283e-29
1.36469e-29
-1.93091e-29
7.34189e-29
-5.25829e-29
-8.03715e-29
-3.60504e-29
9.72783e-29
8.61952e-29
-9.84888e-30
7.77653e-29
2.43157e-29
-3.96539e-29
6.72519e-29
-1.49306e-29
2.86631e-30
3.11286e-29
2.92466e-29
-4.82561e-29
-3.32426e-29
1.87972e-29
7.15067e-29
1.58323e-28
-9.57463e-31
5.72911e-29
-1.5522e-33
2.32582e-29
-1.10323e-28
1.24323e-29
-1.24983e-29
-3.80711e-31
-3.65513e-29
-4.67377e-31
-6.84235e-29
-1.54284e-28
1.42062e-30
7.43769e-30
-6.14643e-30
1.71099e-30
4.42752e-30
-1.62605e-29
1.72429e-29
-1.34297e-30
6.24125e-30
3.68616e-30
7.69264e-30
2.58237e-29
2.91014e-29
-1.48229e-29
-1.06853e-29
4.04955e-29
4.0548e-29
3.96351e-29
-3.0248e-29
-2.97412e-29
-2.24717e-30
-3.39908e-30
1.66089e-30
-1.43067e-30
)
;

boundaryField
{
    back
    {
        type            empty;
        value           nonuniform List<scalar> 0();
    }
    front
    {
        type            empty;
        value           nonuniform List<scalar> 0();
    }
    left
    {
        type            calculated;
        value           uniform 0;
    }
    top
    {
        type            calculated;
        value           uniform 0;
    }
    right
    {
        type            calculated;
        value           uniform 0;
    }
    bottom
    {
        type            calculated;
        value           nonuniform List<scalar> 8(-2.11768e-28 -1.72081e-28 -1.17482e-30 -1.16365e-28 -2.23318e-28 4.81966e-29 5.02972e-29 -8.70968e-29);
    }
}


// ************************************************************************* //
