/*--------------------------------*- C++ -*----------------------------------*\
  =========                 |
  \\      /  F ield         | OpenFOAM: The Open Source CFD Toolbox
   \\    /   O peration     | Website:  https://openfoam.org
    \\  /    A nd           | Version:  9
     \\/     M anipulation  |
\*---------------------------------------------------------------------------*/
FoamFile
{
    format      ascii;
    class       volVectorField;
    location    "0.99";
    object      U;
}
// * * * * * * * * * * * * * * * * * * * * * * * * * * * * * * * * * * * * * //

dimensions      [0 1 -1 0 0 0 0];

internalField   nonuniform List<vector> 
464
(
(-2.60605e-21 1.90129e-21 9.99332e-40)
(-1.73483e-21 5.55446e-21 0)
(-1.78118e-23 9.9323e-24 0)
(-5.11895e-23 3.11671e-22 2.0525e-38)
(-1.23672e-21 4.45364e-21 0)
(-2.70368e-23 2.84201e-23 -5.32689e-39)
(-2.50751e-21 2.57654e-21 -9.19532e-40)
(1.16967e-24 2.99428e-22 0)
(-3.03365e-21 3.61239e-21 8.86676e-40)
(-2.86513e-21 4.26003e-21 -3.03176e-39)
(-2.06037e-21 1.06383e-21 1.46397e-42)
(-8.62602e-22 1.14545e-21 -1.67363e-40)
(-2.65008e-21 3.23139e-21 -5.8647e-39)
(-5.07542e-22 5.5567e-22 0)
(-2.64655e-22 2.64421e-21 -7.47274e-39)
(-1.39467e-22 2.50876e-21 7.74233e-39)
(-1.62052e-21 1.00658e-21 0)
(-2.08334e-21 9.62866e-22 3.01768e-38)
(-1.04248e-24 5.15398e-23 -1.60432e-38)
(-2.60747e-22 1.31256e-21 1.4425e-38)
(-1.94917e-22 1.24576e-21 -2.14945e-38)
(-1.20939e-22 8.65112e-22 4.43447e-39)
(-1.54727e-22 9.72123e-22 -2.62528e-39)
(-4.9614e-23 4.27621e-22 0)
(-6.84839e-23 2.33845e-22 -2.10804e-38)
(-7.44397e-23 4.68451e-22 9.79704e-39)
(-3.09781e-22 2.19705e-21 4.47902e-39)
(6.79977e-23 3.62629e-22 -2.05683e-38)
(-2.6464e-22 2.6146e-21 0)
(-1.24327e-22 6.14695e-22 0)
(-1.02435e-22 6.27458e-22 1.19262e-39)
(2.00543e-22 3.41485e-21 8.7983e-41)
(3.27605e-22 3.03852e-21 -2.12817e-39)
(-8.4477e-23 2.50874e-21 -1.06121e-38)
(1.05721e-21 2.73857e-21 1.06953e-38)
(6.74964e-23 8.84616e-22 3.60007e-38)
(-1.66358e-21 7.17913e-22 -4.09663e-38)
(1.45806e-23 1.09496e-22 -2.54496e-39)
(7.59705e-23 3.59293e-22 3.17372e-41)
(9.01757e-23 1.88512e-21 0)
(-3.34102e-23 1.44699e-21 1.8243e-38)
(-8.66163e-23 1.03317e-21 0)
(-1.52273e-22 1.07309e-21 -6.78942e-39)
(-3.58957e-22 1.67749e-21 -3.45225e-39)
(-5.76569e-22 1.8276e-21 3.65625e-39)
(-3.61873e-22 2.85678e-21 -1.4486e-39)
(1.73856e-23 9.61367e-22 1.89651e-38)
(3.3738e-23 7.23137e-22 -1.87034e-40)
(-4.42936e-24 1.32242e-22 0)
(6.28742e-23 2.3154e-22 2.46399e-39)
(-2.46967e-23 1.30886e-21 -7.92516e-39)
(5.90741e-23 5.06958e-22 -1.26552e-39)
(7.58939e-23 9.76799e-22 -1.24684e-38)
(2.95372e-23 1.66819e-21 -1.64903e-38)
(4.01129e-23 1.55826e-21 -5.57317e-40)
(3.13433e-23 6.43001e-22 1.98897e-38)
(5.92163e-23 8.03368e-22 0)
(-1.14763e-23 2.22654e-21 0)
(1.26046e-22 1.94075e-21 -1.75124e-38)
(3.87323e-22 1.01539e-21 0)
(3.07454e-23 2.09598e-22 2.05403e-38)
(-1.3323e-21 3.35725e-21 1.19032e-38)
(3.71749e-22 2.33354e-21 3.0425e-38)
(2.82436e-23 1.86923e-21 -1.66935e-38)
(-2.31466e-21 4.08346e-21 -5.38118e-40)
(-2.80194e-23 1.59866e-21 -1.78316e-38)
(3.81397e-22 1.89498e-21 -1.62295e-38)
(1.92657e-23 2.88478e-22 -1.91307e-38)
(-1.53942e-21 1.46667e-21 -8.89517e-40)
(1.35478e-24 1.5229e-21 1.79616e-38)
(3.05379e-23 1.86177e-21 1.74761e-38)
(-1.85196e-21 4.04088e-21 -5.89831e-39)
(-2.32724e-22 2.76264e-21 0)
(2.63083e-23 7.97391e-22 1.95176e-38)
(1.28343e-22 1.13726e-21 -9.07589e-39)
(8.2183e-23 5.27506e-22 2.04266e-38)
(1.86251e-22 2.18074e-21 -1.68821e-38)
(-2.9492e-21 2.03651e-21 -1.70098e-40)
(-1.84002e-23 2.07896e-21 -1.77233e-38)
(-1.09859e-22 2.68244e-21 -1.38413e-39)
(-1.13039e-21 3.7863e-21 0)
(-7.51442e-23 1.99381e-22 5.02836e-39)
(-2.53238e-22 1.5171e-21 -1.0445e-38)
(-5.29989e-23 1.1418e-22 2.15647e-38)
(-6.65921e-22 2.75389e-21 0)
(-4.63642e-23 2.33228e-21 -3.604e-40)
(-1.29369e-21 3.15093e-21 -6.06101e-39)
(-9.47366e-23 2.39097e-22 0)
(-9.31233e-24 5.84837e-22 0)
(1.45029e-22 1.62195e-21 -8.66993e-39)
(-7.9239e-22 2.72132e-21 7.61304e-39)
(-1.75686e-21 4.45158e-21 0)
(3.83971e-22 2.00864e-21 1.25224e-38)
(-1.16548e-21 -2.86533e-22 -2.30413e-39)
(4.38532e-22 1.7988e-21 -1.22225e-38)
(-7.3491e-23 2.22681e-21 -1.73852e-38)
(-1.53308e-23 2.00135e-21 1.77645e-38)
(-5.12838e-23 2.77927e-22 -4.61167e-39)
(1.29818e-24 4.84357e-22 -8.72695e-39)
(-2.29947e-21 3.48617e-21 3.26992e-39)
(-6.65088e-23 6.07532e-22 0)
(3.86238e-23 9.11834e-22 1.32237e-39)
(-7.73916e-23 6.97417e-22 0)
(3.57826e-22 3.19853e-21 -8.60931e-41)
(2.92744e-22 2.77337e-21 0)
(-1.75022e-22 1.01325e-21 -7.02875e-39)
(-1.89331e-23 3.61674e-23 0)
(2.85217e-22 2.06564e-21 1.58001e-38)
(-4.1168e-22 1.91703e-21 -7.62121e-39)
(3.61217e-23 1.32006e-21 0)
(3.74245e-22 1.77394e-21 0)
(4.84741e-23 9.96023e-22 -1.93605e-38)
(4.14936e-22 1.85156e-21 0)
(-4.12449e-23 1.03484e-21 8.94248e-39)
(5.33139e-24 6.58188e-22 6.47299e-40)
(-4.74879e-23 8.06336e-22 -3.23046e-40)
(-1.29955e-22 9.63391e-22 9.55091e-39)
(-6.90118e-23 2.29026e-22 2.17419e-38)
(-1.38303e-23 2.74064e-22 7.02529e-39)
(-9.44897e-23 3.58672e-22 -1.24809e-39)
(4.35513e-23 1.14311e-21 1.76008e-38)
(-1.92143e-21 3.31172e-21 1.77461e-40)
(-1.63661e-21 3.41556e-21 4.94609e-39)
(-1.91614e-21 2.70081e-21 3.63207e-39)
(1.61089e-22 2.14793e-21 0)
(4.51403e-22 1.80933e-21 8.51801e-39)
(-1.43711e-21 3.28648e-21 -4.98919e-39)
(2.13033e-22 1.21088e-21 0)
(-1.21797e-22 2.37996e-21 0)
(-9.40268e-23 6.31791e-22 8.09171e-39)
(-5.2459e-23 9.80112e-23 -1.67478e-38)
(-4.74266e-23 5.21224e-22 4.77776e-39)
(1.01132e-23 8.07528e-23 -1.68029e-38)
(-7.68706e-23 9.00027e-22 0)
(-1.06531e-22 5.74975e-22 0)
(-5.44798e-23 3.91864e-22 -7.57442e-39)
(-3.24121e-23 1.27942e-22 -3.20884e-38)
(2.36358e-23 4.60364e-22 -2.07769e-38)
(-2.15557e-21 3.68893e-21 3.64876e-39)
(7.73182e-23 2.53559e-22 1.49274e-38)
(-6.28925e-23 2.95524e-22 0)
(4.30701e-22 1.87353e-21 0)
(1.01541e-22 1.52896e-21 8.9497e-40)
(-1.45145e-23 7.93023e-22 2.03703e-38)
(-3.75346e-23 2.49741e-22 1.94562e-38)
(7.01139e-23 8.76173e-22 -9.23626e-39)
(-4.29359e-23 9.9126e-22 0)
(-1.30017e-22 3.79008e-22 0)
(-2.60512e-24 1.86862e-21 -2.58867e-40)
(-7.20988e-23 3.4336e-22 -3.92907e-38)
(-7.99598e-23 1.09049e-21 6.01633e-40)
(-1.26164e-22 8.66712e-22 1.91232e-38)
(-4.94381e-22 3.59933e-21 -6.15996e-39)
(2.86828e-22 1.61844e-21 -8.55579e-39)
(-5.69924e-23 6.57758e-22 -8.10641e-42)
(-4.33511e-23 3.96544e-22 -2.09965e-38)
(3.33515e-22 1.17992e-21 0)
(-5.32765e-23 1.1767e-21 0)
(-1.49556e-21 3.38848e-21 -5.36099e-39)
(-4.94902e-22 1.94401e-21 7.93211e-39)
(-2.57022e-22 3.19894e-21 0)
(-6.79424e-23 1.27882e-21 -1.91991e-38)
(1.27627e-22 9.06507e-22 1.84366e-38)
(1.71037e-22 3.28117e-22 -1.79456e-39)
(-1.68252e-22 3.91312e-22 2.36841e-38)
(-2.30534e-23 1.40395e-22 0)
(-3.56468e-23 3.36047e-21 -7.1691e-39)
(2.5765e-23 9.72222e-22 1.12575e-38)
(5.64395e-23 2.14227e-21 2.01607e-38)
(1.59043e-23 2.30945e-22 1.4809e-38)
(6.90931e-23 5.16836e-22 6.74241e-40)
(-8.52843e-22 2.5652e-21 -7.43705e-39)
(4.56265e-23 4.18269e-22 -5.56487e-41)
(-9.82555e-23 7.31713e-22 -4.40572e-39)
(5.11621e-23 4.42393e-22 -1.68437e-41)
(2.5976e-22 1.03926e-21 -8.70029e-39)
(-6.06557e-23 1.35628e-21 1.90382e-38)
(-5.53246e-23 1.484e-21 -7.98223e-41)
(-6.74833e-22 3.46496e-21 -6.85917e-39)
(9.69277e-22 2.13514e-21 -4.25475e-39)
(-1.54118e-22 1.31865e-21 1.88316e-38)
(2.2949e-22 1.25135e-21 9.36776e-39)
(-8.58185e-22 3.32199e-22 0)
(-3.22629e-22 5.30941e-22 1.06113e-37)
(-1.73897e-22 1.29445e-21 2.32926e-38)
(4.33546e-22 1.07037e-21 -1.28473e-39)
(5.35171e-23 6.79728e-22 0)
(-3.45576e-23 3.95014e-22 -9.36011e-39)
(2.42898e-23 2.14977e-22 -1.45677e-38)
(7.81996e-23 6.34338e-22 2.11978e-41)
(1.05593e-23 1.08979e-21 -1.85656e-41)
(1.06466e-22 6.0885e-22 1.17086e-38)
(-9.39363e-24 2.32545e-22 -3.11662e-38)
(2.78218e-23 8.453e-22 -1.97441e-38)
(2.34085e-23 1.78391e-21 1.6368e-41)
(7.37496e-23 1.45143e-21 -1.64199e-41)
(2.43393e-22 7.55245e-22 -1.0351e-38)
(2.06442e-23 1.32893e-21 1.83681e-41)
(-3.60641e-22 1.23777e-21 -1.46818e-38)
(4.50757e-23 1.24509e-21 1.74478e-38)
(2.70615e-23 9.78997e-22 0)
(7.63742e-23 1.20193e-21 0)
(8.70365e-24 5.47918e-22 0)
(4.22441e-23 1.36989e-21 1.74751e-41)
(1.32829e-23 2.8915e-22 0)
(-3.17443e-24 4.69171e-22 4.64004e-40)
(3.14492e-24 3.01504e-22 0)
(-4.12299e-25 3.38636e-22 -1.36471e-38)
(1.04406e-23 6.6578e-22 1.60753e-38)
(2.57948e-23 2.13078e-22 7.21413e-39)
(-2.23672e-23 2.2138e-22 1.56111e-38)
(-1.96935e-23 3.53275e-22 0)
(-5.37405e-24 1.82358e-22 1.641e-38)
(-9.58304e-22 5.39878e-22 -2.70412e-38)
(2.7377e-22 2.42256e-22 0)
(9.39415e-24 2.90894e-22 -7.93113e-39)
(-8.41544e-23 6.24819e-22 -3.09562e-39)
(4.55893e-24 2.76965e-22 1.53396e-38)
(7.62761e-24 7.49207e-22 -9.83413e-39)
(1.31201e-24 3.78505e-22 -1.28623e-38)
(-1.9044e-21 9.8363e-22 -8.30421e-38)
(1.37816e-23 6.19309e-22 1.70681e-38)
(4.8466e-23 1.0879e-21 -1.74688e-38)
(1.35991e-23 1.7567e-21 3.39513e-38)
(-1.0496e-24 1.5685e-21 1.98936e-38)
(-7.12303e-23 1.69135e-21 -1.88157e-38)
(5.83239e-23 1.7266e-21 0)
(-2.52065e-22 1.98245e-21 1.06547e-38)
(-1.59235e-22 1.7738e-21 -6.90174e-40)
(2.90019e-23 1.96374e-21 -1.547e-38)
(-1.35686e-22 1.78519e-21 1.53333e-38)
(-2.99143e-23 1.85809e-21 -1.27691e-39)
(1.69618e-23 1.75849e-21 0)
(9.01984e-23 2.11758e-21 -1.24839e-38)
(1.98438e-22 1.5763e-21 9.13674e-39)
(5.18626e-23 2.07874e-21 0)
(5.2407e-22 3.21957e-21 7.28883e-39)
(4.02383e-22 2.0675e-21 6.26649e-39)
(-1.38897e-22 2.16752e-21 7.16163e-39)
(-4.06501e-22 1.40353e-21 7.98797e-38)
(9.64493e-23 2.3438e-21 -7.29406e-39)
(1.6476e-21 2.07138e-21 -1.84837e-38)
(2.28536e-22 2.55021e-21 4.93312e-39)
(2.32572e-22 2.52351e-21 0)
(5.12576e-22 2.65344e-21 0)
(5.59752e-22 2.53506e-21 2.48106e-38)
(1.56227e-22 2.4651e-21 1.85692e-41)
(-1.49858e-22 1.23839e-21 0)
(-2.03373e-22 2.63891e-21 0)
(-1.38463e-23 4.359e-22 0)
(1.80943e-21 3.24216e-21 2.82469e-38)
(-7.58566e-23 1.82848e-21 -2.03798e-37)
(7.36053e-22 2.5406e-21 -1.87013e-38)
(2.68201e-22 1.8888e-21 8.69673e-39)
(7.86952e-22 2.49247e-21 0)
(7.00714e-22 2.14401e-21 0)
(-1.39725e-23 1.20449e-21 0)
(3.57294e-22 3.36996e-22 -3.35669e-38)
(-8.87555e-24 2.69833e-21 7.51875e-39)
(7.47676e-22 2.9304e-21 0)
(5.44671e-22 2.64263e-21 -7.26262e-39)
(4.87827e-22 2.55206e-21 2.59101e-38)
(2.65971e-22 2.608e-21 1.98227e-38)
(8.12291e-23 3.55867e-21 -7.17253e-39)
(3.37851e-22 3.45864e-21 -1.98232e-38)
(8.83959e-23 3.64982e-21 1.12532e-38)
(3.08881e-22 2.85086e-21 -2.75645e-41)
(2.47675e-23 6.09645e-22 -6.32683e-40)
(-2.8181e-24 3.28776e-21 8.98085e-39)
(3.76037e-22 3.47494e-21 7.26973e-39)
(-9.14847e-23 6.83572e-22 -1.54012e-38)
(4.05442e-22 3.13833e-21 0)
(1.20077e-22 3.16382e-21 7.0511e-39)
(8.64466e-23 3.56952e-21 1.0462e-38)
(-1.84118e-21 3.15701e-21 2.81647e-39)
(3.26938e-22 3.00433e-21 0)
(3.05474e-22 3.27502e-21 0)
(9.69431e-23 1.26861e-21 -1.49556e-38)
(-1.0415e-23 3.83614e-22 0)
(-3.55218e-24 1.18886e-21 2.2164e-40)
(1.29947e-22 2.65047e-21 6.68332e-41)
(-8.50133e-24 8.50072e-22 -9.28277e-41)
(1.03014e-23 7.00771e-22 0)
(3.73193e-24 6.06816e-22 -2.03348e-38)
(-3.09914e-22 3.4825e-21 4.41042e-39)
(-1.5083e-23 2.47628e-21 -8.47963e-39)
(5.23311e-23 6.82734e-22 -1.56992e-38)
(-9.93269e-22 2.924e-21 0)
(4.78513e-23 7.67492e-22 0)
(-2.45562e-22 2.78234e-21 8.65241e-39)
(-4.48933e-22 2.64137e-21 3.14093e-41)
(-7.62567e-22 2.99501e-21 -3.84759e-41)
(-2.0481e-24 1.05728e-21 -2.02577e-38)
(1.74768e-23 1.42633e-21 3.6049e-38)
(-6.17641e-23 2.42934e-21 1.89802e-38)
(1.46435e-22 1.30503e-21 2.76041e-38)
(8.07248e-23 7.41942e-22 0)
(1.90946e-22 1.34826e-21 9.20467e-40)
(2.4536e-22 1.44731e-21 -9.38877e-39)
(-7.4523e-22 2.5017e-21 7.38315e-39)
(-1.40697e-22 3.55571e-21 -6.14529e-39)
(-5.30033e-22 3.45798e-21 -4.63151e-39)
(-1.01935e-21 2.93142e-21 1.04395e-42)
(-7.05471e-22 1.60734e-23 3.24335e-39)
(-2.70367e-22 9.919e-22 1.41237e-38)
(1.98287e-22 2.24705e-21 -2.0485e-38)
(5.50933e-22 2.35492e-21 -3.39485e-38)
(-5.53496e-22 -1.85193e-23 2.81862e-38)
(-2.1923e-22 1.34411e-21 -1.56261e-38)
(1.6738e-22 9.55118e-22 -9.55399e-39)
(2.63484e-23 1.71869e-21 -1.79654e-38)
(-1.51999e-23 9.50385e-22 2.97568e-40)
(3.96381e-22 2.44384e-21 0)
(-1.19558e-21 3.43731e-21 3.60505e-40)
(3.99862e-22 2.32042e-21 -1.88528e-38)
(2.71196e-22 2.39771e-21 0)
(2.40239e-23 4.04513e-22 1.2442e-38)
(-4.42032e-22 2.0226e-21 0)
(1.38492e-23 2.03507e-22 0)
(-1.16313e-21 3.43808e-21 6.91942e-39)
(-1.40859e-22 6.84086e-22 1.55211e-38)
(1.3803e-22 1.47545e-21 -5.13322e-41)
(-2.02598e-22 1.45291e-21 7.79727e-39)
(1.69145e-22 1.19288e-21 7.75762e-39)
(-8.26767e-22 3.29343e-21 1.02202e-38)
(1.36696e-23 3.9119e-22 -1.66185e-40)
(-1.08295e-23 3.36438e-22 -1.9458e-38)
(-1.31628e-21 3.16308e-21 -6.98158e-39)
(6.7977e-23 6.56084e-22 0)
(-2.98756e-22 2.10847e-21 -8.92829e-39)
(-1.04965e-22 1.26249e-21 -8.15614e-39)
(-3.15067e-21 4.55395e-21 -1.20482e-39)
(-2.03918e-23 1.79303e-23 -8.36336e-39)
(2.79449e-22 2.80792e-21 3.84347e-38)
(2.30493e-23 1.68415e-21 -1.73887e-41)
(-1.14181e-23 1.37104e-21 -1.76312e-38)
(-1.4952e-22 8.40391e-22 -1.43059e-38)
(-1.12771e-23 3.46681e-23 -1.65254e-38)
(1.99601e-22 1.17096e-21 1.89978e-40)
(-1.72152e-22 9.74648e-22 1.70447e-38)
(1.36407e-24 2.07082e-23 8.47017e-39)
(-2.56353e-21 1.47245e-22 0)
(1.95607e-23 1.93088e-21 -1.45347e-40)
(-7.67607e-23 1.73288e-21 8.8605e-39)
(4.01168e-22 2.54044e-21 8.12503e-39)
(3.18848e-24 3.99544e-22 1.02215e-38)
(-7.96346e-24 1.7707e-22 3.15869e-38)
(1.5305e-22 1.92779e-21 1.6833e-38)
(-2.63061e-23 8.47926e-23 2.02281e-38)
(1.21252e-23 1.87773e-21 0)
(6.49238e-24 1.25433e-21 -5.7314e-40)
(-1.19711e-23 8.02436e-23 -9.63408e-39)
(1.91318e-22 1.28773e-21 0)
(1.51926e-22 1.56716e-21 -1.33065e-38)
(4.99498e-23 1.13749e-21 -1.83169e-38)
(-5.71778e-22 3.15131e-21 6.90725e-39)
(7.59312e-24 1.23605e-23 0)
(-1.617e-22 1.3831e-21 -3.72978e-39)
(9.30164e-24 1.26859e-23 -7.77856e-39)
(-2.18884e-21 5.61208e-21 0)
(-1.44257e-23 5.20282e-23 -1.14607e-38)
(-3.17381e-21 3.17819e-21 1.64323e-39)
(-3.76719e-23 1.07623e-22 5.69541e-39)
(-9.52306e-22 3.71327e-21 0)
(-1.84933e-21 2.63701e-22 5.45042e-41)
(1.78855e-23 6.01957e-23 2.20101e-38)
(4.76212e-24 4.403e-22 0)
(1.15357e-21 1.38368e-21 0)
(-2.38351e-22 4.37076e-22 0)
(-1.05315e-22 4.7636e-22 1.10581e-38)
(3.12987e-23 5.08451e-23 0)
(-8.6201e-23 8.94153e-22 -1.32964e-38)
(-2.87576e-22 3.27426e-21 -8.93151e-40)
(-2.90526e-21 1.0025e-21 0)
(8.46658e-23 1.3064e-21 -3.76664e-39)
(-5.65963e-23 4.58348e-22 0)
(-9.75163e-22 2.46055e-21 1.07555e-39)
(-3.80217e-23 7.59826e-22 2.49885e-38)
(-1.97231e-22 1.31626e-21 1.47389e-38)
(-9.03499e-23 5.74005e-22 5.68894e-39)
(-1.31925e-22 1.2837e-21 0)
(9.44782e-23 2.34323e-21 -2.18004e-38)
(-7.80687e-22 1.54644e-21 0)
(1.45702e-22 3.24246e-21 -4.85043e-39)
(1.08183e-21 1.10861e-21 -3.12448e-39)
(2.86362e-22 3.53963e-21 0)
(3.70767e-22 2.72959e-21 1.01176e-38)
(-6.67347e-23 4.10918e-22 -1.13157e-38)
(-6.12033e-22 1.56063e-21 0)
(-2.43159e-22 -6.72859e-22 0)
(-1.66715e-22 1.73735e-21 -1.36149e-38)
(-2.18508e-22 2.06286e-21 0)
(6.27033e-22 4.0689e-22 4.55603e-39)
(-1.02956e-22 4.70972e-22 7.75987e-38)
(-2.36926e-22 1.51498e-21 -8.85879e-39)
(-1.53808e-22 1.24415e-21 -1.95155e-38)
(-1.58913e-22 1.36397e-21 0)
(-1.41876e-22 9.19819e-22 -4.06846e-38)
(9.43028e-23 8.80195e-22 0)
(-6.45079e-22 2.96174e-21 -1.07147e-39)
(-2.65071e-21 5.92076e-21 0)
(-7.70389e-24 2.18723e-23 0)
(-2.16522e-21 -2.7791e-22 0)
(1.84051e-23 2.98487e-23 -8.12399e-39)
(-3.24872e-21 3.49679e-21 1.17207e-39)
(-2.88661e-21 1.37809e-21 0)
(-2.08315e-22 -4.89805e-22 0)
(9.25119e-24 -3.91442e-25 1.5497e-38)
(-5.57934e-22 -1.25456e-21 0)
(6.74269e-24 5.53365e-25 -1.99095e-38)
(-2.84546e-21 4.77263e-21 8.72175e-40)
(2.30348e-23 2.8802e-22 1.10675e-38)
(-4.30247e-23 1.84981e-22 0)
(-1.0495e-22 6.64792e-22 1.02612e-38)
(-4.92681e-23 2.79752e-22 0)
(-2.23939e-21 5.02016e-21 0)
(-1.03831e-22 -1.39304e-23 0)
(5.70774e-23 2.04547e-22 6.58064e-40)
(-4.67934e-23 1.79012e-22 1.03107e-38)
(-3.00914e-21 5.09086e-21 -8.65729e-40)
(2.01905e-23 2.08258e-22 1.18329e-38)
(-3.73246e-23 6.84677e-23 1.21339e-38)
(-1.64118e-21 2.15533e-21 9.53268e-40)
(1.96312e-23 5.82026e-22 1.1613e-38)
(-1.62193e-21 -1.29079e-21 -3.28869e-39)
(-6.69253e-22 3.44046e-21 -3.2006e-39)
(-1.2074e-22 8.53027e-22 -9.56315e-39)
(1.47836e-23 1.15233e-21 6.98737e-39)
(-2.41841e-22 6.26228e-22 -5.04382e-39)
(-3.912e-22 2.16333e-21 1.0236e-38)
(-6.51673e-24 4.18145e-23 1.15901e-38)
(4.24593e-22 3.28646e-21 5.21566e-39)
(-8.36765e-22 2.80805e-21 1.44796e-39)
(-1.02082e-22 4.58142e-22 1.99262e-38)
(8.15821e-22 3.21138e-21 -4.01039e-38)
(-1.45202e-21 3.88952e-22 0)
(-1.31493e-21 4.50472e-22 -3.10158e-38)
(-1.22479e-22 7.4558e-22 -1.07417e-38)
(-6.77917e-22 -3.68835e-22 0)
(-5.5388e-23 4.30303e-22 -1.11598e-38)
(5.7768e-22 2.04797e-21 0)
(-5.19838e-23 -4.62153e-22 -2.04132e-38)
(-2.56155e-22 1.59634e-21 5.07646e-40)
(-8.97946e-23 1.52578e-21 -1.49592e-38)
(-1.18549e-22 1.03986e-21 2.98498e-38)
(-2.25943e-22 1.48274e-21 -7.01223e-40)
(-1.31967e-22 1.09507e-21 -1.09789e-38)
(-2.42507e-24 7.56474e-22 -8.31271e-39)
(-9.87271e-23 1.2166e-21 1.19211e-38)
(2.16799e-22 8.50746e-22 5.9583e-39)
(-2.76035e-22 2.68103e-21 0)
(-3.18178e-21 2.35007e-21 -2.09993e-40)
(-1.4234e-23 3.25061e-21 -1.68442e-38)
(-8.60942e-23 5.70948e-22 0)
(-2.44055e-22 1.4656e-21 -9.86196e-39)
(-1.56462e-21 3.19308e-21 0)
(2.67592e-22 1.98463e-21 1.25093e-37)
(4.37151e-23 8.54768e-23 -1.09959e-38)
(3.0898e-23 1.24649e-22 -5.53689e-41)
(4.64989e-23 1.3832e-22 4.61578e-42)
(2.16214e-23 3.59169e-23 1.83857e-38)
(-2.64872e-22 -2.16161e-22 0)
(-1.12051e-21 -1.09964e-21 1.18784e-39)
(-8.96529e-23 5.41599e-22 -2.50943e-38)
)
;

boundaryField
{
    back
    {
        type            empty;
    }
    front
    {
        type            empty;
    }
    left
    {
        type            noSlip;
    }
    top
    {
        type            uniformFixedValue;
        uniformValue    
        {
            type            scale;
            scale           
            {
                type            squarePulse;
                start           0.3;
                duration        0.3;
            }
            xScale          
            {
                type            constant;
                value           1;
            }
            value           
            {
                type            constant;
                value           (0 -0.7 0);
            }
        }
        value           uniform (0 -0 0);
    }
    right
    {
        type            noSlip;
    }
    bottom
    {
        type            zeroGradient;
    }
}


// ************************************************************************* //
