/*--------------------------------*- C++ -*----------------------------------*\
  =========                 |
  \\      /  F ield         | OpenFOAM: The Open Source CFD Toolbox
   \\    /   O peration     | Website:  https://openfoam.org
    \\  /    A nd           | Version:  9
     \\/     M anipulation  |
\*---------------------------------------------------------------------------*/
FoamFile
{
    format      ascii;
    class       volScalarField;
    location    "0.95";
    object      p;
}
// * * * * * * * * * * * * * * * * * * * * * * * * * * * * * * * * * * * * * //

dimensions      [0 2 -2 0 0 0 0];

internalField   nonuniform List<scalar> 
90
(
6.34633e-23
-1.85425e-23
-5.37301e-22
-1.54717e-21
-5.87642e-22
1.0794e-21
-1.59922e-23
1.55688e-22
2.27439e-22
1.41778e-22
-9.53875e-23
1.60051e-22
1.61758e-22
-6.59703e-22
3.95939e-22
2.94292e-21
-3.25016e-21
5.84783e-22
6.56426e-22
6.03522e-23
1.51676e-23
3.45044e-23
-6.38709e-23
-1.71132e-22
1.16096e-23
-3.6687e-22
3.09552e-22
-1.87673e-22
-4.78738e-22
2.08274e-22
1.23922e-22
-6.04657e-22
-4.13653e-22
-2.50459e-22
-3.47899e-22
2.85191e-21
8.88789e-23
-4.76187e-21
-4.60514e-22
1.7321e-22
2.5299e-22
3.47456e-22
-6.2838e-22
3.71859e-23
1.04535e-23
-6.61488e-22
2.27017e-22
1.14621e-21
6.01221e-22
-8.29828e-22
5.36485e-23
1.81146e-22
2.36615e-22
-5.53344e-22
2.83417e-22
7.54085e-22
-2.21175e-24
-2.61523e-23
5.86317e-23
-7.28369e-22
2.20625e-22
-7.65258e-22
-1.04371e-21
-3.71286e-23
4.7504e-22
2.01463e-22
-6.22428e-22
-7.26731e-22
-4.01271e-21
-1.91092e-22
1.40466e-21
1.45496e-22
-5.73059e-22
1.275e-21
2.76079e-21
2.57496e-22
1.42484e-22
-4.92203e-22
-1.08997e-22
-1.82646e-23
-4.7069e-21
2.76409e-23
3.64556e-24
2.52695e-21
-1.44969e-22
-9.84862e-22
8.1065e-23
1.2895e-22
1.71082e-21
2.70416e-22
)
;

boundaryField
{
    back
    {
        type            empty;
    }
    front
    {
        type            empty;
    }
    bottom
    {
        type            zeroGradient;
    }
    outer_arc
    {
        type            zeroGradient;
    }
    right
    {
        type            uniformFixedValue;
        uniformValue    
        {
            type            scale;
            scale           
            {
                type            squarePulse;
                start           0.3;
                duration        0.3;
            }
            xScale          
            {
                type            constant;
                value           1;
            }
            value           
            {
                type            constant;
                value           15.1;
            }
        }
        value           uniform 0;
    }
    inner_arc
    {
        type            zeroGradient;
    }
}


// ************************************************************************* //
