/*--------------------------------*- C++ -*----------------------------------*\
  =========                 |
  \\      /  F ield         | OpenFOAM: The Open Source CFD Toolbox
   \\    /   O peration     | Website:  https://openfoam.org
    \\  /    A nd           | Version:  9
     \\/     M anipulation  |
\*---------------------------------------------------------------------------*/
FoamFile
{
    format      ascii;
    class       surfaceScalarField;
    location    "0.95";
    object      phi;
}
// * * * * * * * * * * * * * * * * * * * * * * * * * * * * * * * * * * * * * //

dimensions      [0 3 -1 0 0 0 0];

internalField   nonuniform List<scalar> 
122
(
1.65547e-29
1.9705e-32
4.52071e-30
-2.28963e-28
3.60115e-29
1.37023e-28
2.30988e-28
-2.3379e-28
-2.15831e-28
3.14145e-28
-3.06337e-28
-6.09298e-28
6.18128e-28
-6.86235e-30
3.31067e-29
1.82851e-29
-4.83369e-29
-9.09005e-29
8.26774e-29
2.17842e-30
9.28976e-30
-4.485e-29
-5.06474e-29
1.02886e-28
1.3158e-28
-2.39081e-28
1.15401e-28
-2.52237e-28
9.38112e-29
-9.93338e-29
3.7093e-28
2.48174e-28
-1.38637e-28
2.37703e-29
5.0832e-29
-9.20738e-30
-9.61346e-30
-5.90265e-29
6.87176e-29
4.92337e-29
-3.03812e-29
7.09789e-29
-4.26084e-29
1.65881e-29
6.44997e-29
-2.7624e-29
-1.90475e-29
4.01787e-29
6.90691e-29
-3.98725e-29
-7.88469e-30
7.49052e-29
-6.13348e-29
5.92685e-28
-2.82888e-28
1.99872e-29
-4.56629e-30
2.63309e-29
-5.77665e-30
1.93212e-29
3.27245e-29
-3.2476e-29
1.1271e-29
9.12857e-29
-1.57816e-28
-2.08132e-28
-5.37286e-30
-1.04266e-29
1.40178e-29
-1.17635e-29
-3.80453e-29
1.83895e-29
-9.08869e-29
-1.53296e-29
1.32715e-29
-1.11918e-29
-1.26532e-29
-7.52998e-30
-7.17454e-29
4.23846e-29
-7.01793e-30
5.20918e-29
1.58591e-28
-6.3132e-29
1.02505e-29
8.52632e-29
-6.48543e-30
-1.28673e-29
-9.86455e-29
1.02512e-28
7.12097e-29
-1.31512e-29
1.32366e-29
1.30315e-28
-1.1917e-28
-4.2516e-30
-5.79978e-30
-1.78241e-29
9.85385e-30
3.95479e-29
6.24322e-29
-6.7412e-29
-4.14273e-29
6.36532e-29
1.13429e-29
-1.1854e-28
3.89793e-29
-6.05726e-29
2.51077e-29
7.68408e-29
-3.75209e-28
3.72991e-28
2.27675e-28
-1.65079e-28
-1.36231e-29
-6.73589e-29
-1.03956e-28
1.77555e-29
-6.46189e-30
-1.13919e-29
8.63447e-29
-3.05517e-30
)
;

boundaryField
{
    back
    {
        type            empty;
        value           nonuniform List<scalar> 0();
    }
    front
    {
        type            empty;
        value           nonuniform List<scalar> 0();
    }
    bottom
    {
        type            calculated;
        value           uniform 0;
    }
    outer_arc
    {
        type            calculated;
        value           uniform 0;
    }
    right
    {
        type            calculated;
        value           nonuniform List<scalar> 4(4.25862e-30 1.34143e-29 1.05908e-29 9.11332e-30);
    }
    inner_arc
    {
        type            calculated;
        value           uniform 0;
    }
}


// ************************************************************************* //
