/*--------------------------------*- C++ -*----------------------------------*\
  =========                 |
  \\      /  F ield         | OpenFOAM: The Open Source CFD Toolbox
   \\    /   O peration     | Website:  https://openfoam.org
    \\  /    A nd           | Version:  9
     \\/     M anipulation  |
\*---------------------------------------------------------------------------*/
FoamFile
{
    format      ascii;
    class       volVectorField;
    location    "0.95";
    object      U;
}
// * * * * * * * * * * * * * * * * * * * * * * * * * * * * * * * * * * * * * //

dimensions      [0 1 -1 0 0 0 0];

internalField   nonuniform List<vector> 
90
(
(3.89106e-22 -8.62109e-24 -1.89454e-39)
(3.84501e-21 3.70114e-21 5.68324e-38)
(-8.29961e-21 -3.67048e-22 -5.40674e-38)
(-6.31407e-21 8.22056e-21 5.35462e-38)
(8.03821e-21 1.25073e-20 1.37067e-37)
(2.1794e-21 2.02082e-21 -4.51518e-38)
(2.16253e-22 1.10796e-22 2.03967e-39)
(-6.59556e-22 -1.9784e-22 8.71023e-39)
(4.94585e-22 -3.03759e-21 0)
(1.44116e-22 1.10548e-22 0)
(-2.32494e-21 5.11626e-22 -9.6664e-39)
(1.70801e-21 -8.1093e-21 9.84147e-39)
(-5.88833e-22 -1.88294e-22 2.02064e-39)
(-4.34201e-23 -1.70686e-21 -2.40794e-39)
(3.85391e-21 -5.38184e-21 0)
(8.23843e-21 4.30937e-21 0)
(2.55903e-21 1.36689e-20 -1.80293e-37)
(-9.02443e-21 -2.41105e-21 -2.52424e-38)
(-1.08049e-21 3.07543e-21 0)
(-6.99818e-22 -5.81269e-22 -2.74467e-39)
(-1.36457e-21 -6.64267e-22 5.39398e-39)
(8.43647e-22 8.16212e-22 6.97334e-39)
(-1.11127e-21 6.40412e-22 -1.32483e-38)
(-1.6243e-21 1.57421e-22 4.02962e-39)
(-1.35922e-21 -2.14244e-22 -4.21073e-39)
(-6.41669e-22 2.25566e-21 1.03533e-38)
(-9.87341e-22 -2.17911e-22 -9.34779e-39)
(2.04645e-21 1.15661e-21 5.03751e-39)
(-1.70001e-20 -2.08927e-21 0)
(-8.85653e-22 4.49532e-22 -9.82679e-39)
(-1.12846e-21 8.40783e-23 6.09529e-39)
(-1.81676e-21 4.0541e-22 -3.70832e-38)
(-1.49507e-21 -6.58575e-22 -1.00928e-38)
(-7.51467e-22 -9.33025e-22 1.92272e-38)
(-1.05249e-21 -8.34395e-22 -5.6449e-39)
(2.27294e-21 -3.49525e-21 -6.76399e-38)
(1.97588e-21 2.87087e-21 0)
(-3.24161e-21 4.5016e-21 0)
(-3.36827e-22 -1.36093e-23 1.02876e-38)
(-2.89024e-23 -2.31149e-22 2.52187e-39)
(6.5147e-22 -9.34366e-23 -3.77026e-39)
(-1.81372e-22 -7.44141e-22 -2.53725e-38)
(1.23966e-21 -7.19998e-22 -3.47215e-39)
(4.63262e-22 -1.71806e-23 -2.5202e-39)
(4.0263e-22 1.07121e-22 -8.74474e-40)
(1.64341e-21 2.83559e-21 2.44345e-38)
(-6.60959e-22 8.308e-22 4.28279e-39)
(1.65527e-21 -3.90515e-21 2.96376e-38)
(-2.51073e-21 2.31544e-22 -3.12124e-38)
(1.70805e-21 -5.85219e-21 3.39062e-39)
(-3.251e-22 -1.18614e-22 0)
(7.95422e-23 3.10993e-22 -8.62117e-39)
(3.23952e-21 -2.66504e-21 -5.46793e-41)
(1.01849e-21 8.22738e-22 0)
(5.75296e-23 3.78793e-22 1.72032e-38)
(4.22035e-21 1.41636e-21 -2.9357e-40)
(3.58394e-22 -3.68814e-23 6.54924e-40)
(-3.71649e-22 1.47085e-21 0)
(5.82096e-22 1.78763e-22 0)
(-1.44622e-21 1.39563e-21 4.13345e-38)
(3.61864e-22 -3.70376e-22 1.66421e-38)
(1.87401e-21 3.1744e-21 0)
(-1.39926e-22 1.03551e-21 4.87752e-38)
(3.59338e-21 -1.12451e-21 -3.45107e-39)
(1.95068e-21 7.46991e-22 3.2387e-38)
(-4.41904e-21 8.46345e-22 7.25044e-39)
(-1.51723e-21 -1.34572e-21 0)
(-1.3932e-21 8.17872e-22 0)
(-1.37584e-20 2.07112e-21 1.72885e-38)
(-1.5093e-20 2.79177e-21 4.26173e-38)
(6.432e-21 -3.87498e-21 0)
(4.80977e-22 3.03253e-22 6.80987e-39)
(5.26646e-21 -3.11799e-21 0)
(-6.69405e-22 4.02227e-21 9.4493e-38)
(-1.19247e-20 1.64506e-22 -4.30283e-38)
(-5.76576e-22 1.05134e-21 -9.02232e-39)
(3.29164e-22 1.08219e-22 -1.28852e-39)
(1.99758e-21 2.24229e-22 0)
(6.57141e-22 -1.18465e-21 -1.17531e-38)
(5.63745e-22 2.29582e-22 3.01891e-39)
(-8.30226e-21 7.91336e-22 1.96157e-37)
(3.69631e-22 3.44489e-23 2.00209e-40)
(-1.19938e-21 2.03384e-21 -6.60063e-39)
(2.25465e-21 -6.4124e-22 6.66536e-38)
(1.66622e-21 3.80232e-21 4.1806e-39)
(1.66999e-22 -4.08006e-22 -2.86229e-38)
(3.80918e-22 5.17416e-23 3.41232e-39)
(2.85971e-22 9.91055e-23 -5.27465e-40)
(3.18433e-21 3.1073e-21 -1.63641e-37)
(2.08992e-22 1.33001e-22 -6.59487e-39)
)
;

boundaryField
{
    back
    {
        type            empty;
    }
    front
    {
        type            empty;
    }
    bottom
    {
        type            uniformFixedValue;
        uniformValue    
        {
            type            scale;
            scale           
            {
                type            squarePulse;
                start           0.3;
                duration        0.3;
            }
            xScale          
            {
                type            constant;
                value           1;
            }
            value           
            {
                type            constant;
                value           (0 0.7 0);
            }
        }
        value           uniform (0 0 0);
    }
    outer_arc
    {
        type            noSlip;
    }
    right
    {
        type            zeroGradient;
    }
    inner_arc
    {
        type            noSlip;
    }
}


// ************************************************************************* //
