/*--------------------------------*- C++ -*----------------------------------*\
  =========                 |
  \\      /  F ield         | OpenFOAM: The Open Source CFD Toolbox
   \\    /   O peration     | Website:  https://openfoam.org
    \\  /    A nd           | Version:  9
     \\/     M anipulation  |
\*---------------------------------------------------------------------------*/
FoamFile
{
    format      ascii;
    class       volScalarField;
    location    "0.84";
    object      p;
}
// * * * * * * * * * * * * * * * * * * * * * * * * * * * * * * * * * * * * * //

dimensions      [0 2 -2 0 0 0 0];

internalField   nonuniform List<scalar> 
90
(
8.85036e-23
4.5682e-24
-7.0218e-22
-1.9018e-21
-9.92584e-22
1.2263e-21
3.73691e-24
1.9649e-22
1.37495e-22
2.05636e-22
-1.51674e-22
4.04428e-22
1.46188e-22
-4.73696e-22
4.26858e-22
2.93995e-21
-4.07159e-21
5.47378e-22
5.9315e-22
1.11543e-22
-4.29621e-23
1.35742e-22
-8.07962e-23
-2.07546e-22
-5.77734e-24
-4.50911e-22
2.93187e-22
-1.0882e-22
-9.44604e-22
2.04417e-22
1.24497e-22
-7.7024e-22
-5.52384e-22
-3.31447e-22
-4.93513e-22
3.27523e-21
2.05284e-22
-6.34894e-21
-6.11799e-22
3.01546e-22
4.07529e-22
5.08506e-22
-6.27482e-22
6.80236e-23
2.1104e-23
-7.93102e-22
1.89968e-22
1.57522e-21
7.61664e-22
-8.46482e-22
1.43091e-22
2.41472e-22
4.00842e-22
-6.11125e-22
3.29416e-22
1.05174e-21
8.01455e-24
-1.04152e-22
8.78875e-23
-9.09968e-22
2.95264e-22
-7.51552e-22
-1.27486e-21
2.34254e-22
6.39689e-22
2.17198e-22
-7.52032e-22
-9.44745e-22
-5.27911e-21
-5.51115e-22
1.97219e-21
2.0195e-22
-2.49924e-22
1.57479e-21
2.81675e-21
2.36697e-22
1.99242e-22
-4.38972e-22
-1.46005e-22
3.6803e-24
-5.9298e-21
5.00226e-23
-1.37539e-22
3.15503e-21
-6.47721e-23
-1.23934e-21
1.35438e-22
1.71636e-22
2.22667e-21
3.07773e-22
)
;

boundaryField
{
    back
    {
        type            empty;
    }
    front
    {
        type            empty;
    }
    bottom
    {
        type            zeroGradient;
    }
    outer_arc
    {
        type            zeroGradient;
    }
    right
    {
        type            uniformFixedValue;
        uniformValue    
        {
            type            scale;
            scale           
            {
                type            squarePulse;
                start           0.3;
                duration        0.3;
            }
            xScale          
            {
                type            constant;
                value           1;
            }
            value           
            {
                type            constant;
                value           15.1;
            }
        }
        value           uniform 0;
    }
    inner_arc
    {
        type            zeroGradient;
    }
}


// ************************************************************************* //
