/*--------------------------------*- C++ -*----------------------------------*\
  =========                 |
  \\      /  F ield         | OpenFOAM: The Open Source CFD Toolbox
   \\    /   O peration     | Website:  https://openfoam.org
    \\  /    A nd           | Version:  9
     \\/     M anipulation  |
\*---------------------------------------------------------------------------*/
FoamFile
{
    format      ascii;
    class       surfaceScalarField;
    location    "0.84";
    object      phi;
}
// * * * * * * * * * * * * * * * * * * * * * * * * * * * * * * * * * * * * * //

dimensions      [0 3 -1 0 0 0 0];

internalField   nonuniform List<scalar> 
122
(
1.24209e-29
-1.65183e-30
2.89367e-30
-1.71615e-28
3.46661e-29
1.02358e-28
1.59345e-28
-1.79622e-28
-1.09492e-28
2.08517e-28
-2.15201e-28
-4.79006e-28
4.82838e-28
-5.59571e-31
2.12029e-29
3.13213e-30
-1.50123e-30
-8.06026e-29
5.70384e-29
3.49835e-30
4.75711e-30
-3.43813e-29
-3.29395e-29
7.30575e-29
1.10952e-28
-1.83358e-28
7.28399e-29
-1.69244e-28
7.92364e-29
-3.82282e-29
2.39538e-28
1.01643e-28
-4.76497e-29
3.5558e-29
4.11643e-29
-2.02772e-30
-1.81704e-29
-4.53038e-29
5.05946e-29
3.31895e-29
-2.07874e-29
3.90561e-29
-2.3076e-29
1.37041e-29
4.83904e-29
-2.07009e-29
-1.6464e-29
2.64379e-29
3.25021e-29
-1.8059e-29
-3.35939e-30
5.43821e-29
-5.21063e-29
3.47861e-28
-2.17975e-28
1.12892e-29
5.17939e-30
2.5204e-29
4.7248e-30
7.79641e-30
1.18031e-29
-1.47755e-29
2.11067e-29
6.98124e-29
-1.10661e-28
-9.92291e-29
2.28257e-30
-1.3413e-29
1.44676e-29
-1.93443e-29
-4.86763e-29
1.79149e-29
-2.44236e-29
-2.31568e-29
5.69094e-30
-8.49693e-30
-2.87198e-30
-3.41533e-30
-5.81943e-29
3.79166e-29
-5.24959e-30
3.40998e-29
1.2169e-28
-2.40867e-29
1.95828e-29
2.59054e-29
-3.00129e-30
-8.59006e-30
-5.4608e-29
7.19928e-29
3.43639e-29
1.2702e-30
5.42889e-30
8.37785e-29
-6.54176e-29
-2.78636e-31
-5.59299e-30
-9.35449e-30
8.28521e-30
2.47741e-29
3.4044e-29
-5.05516e-29
-4.05707e-29
4.56993e-29
3.14241e-29
-1.04723e-28
2.57304e-29
-4.88726e-29
3.03287e-29
3.75072e-29
-2.64461e-28
2.79299e-28
1.63148e-28
-1.20572e-28
-6.92258e-30
-6.84512e-29
-1.59391e-29
1.29356e-29
-6.58747e-30
-5.26859e-30
7.91073e-29
-4.40395e-30
)
;

boundaryField
{
    back
    {
        type            empty;
        value           nonuniform List<scalar> 0();
    }
    front
    {
        type            empty;
        value           nonuniform List<scalar> 0();
    }
    bottom
    {
        type            calculated;
        value           uniform 0;
    }
    outer_arc
    {
        type            calculated;
        value           uniform 0;
    }
    right
    {
        type            calculated;
        value           nonuniform List<scalar> 4(1.52703e-30 1.14146e-30 -8.02575e-31 3.03079e-30);
    }
    inner_arc
    {
        type            calculated;
        value           uniform 0;
    }
}


// ************************************************************************* //
