/*--------------------------------*- C++ -*----------------------------------*\
  =========                 |
  \\      /  F ield         | OpenFOAM: The Open Source CFD Toolbox
   \\    /   O peration     | Website:  https://openfoam.org
    \\  /    A nd           | Version:  9
     \\/     M anipulation  |
\*---------------------------------------------------------------------------*/
FoamFile
{
    format      ascii;
    class       volVectorField;
    location    "0.84";
    object      U;
}
// * * * * * * * * * * * * * * * * * * * * * * * * * * * * * * * * * * * * * //

dimensions      [0 1 -1 0 0 0 0];

internalField   nonuniform List<vector> 
90
(
(2.01562e-22 3.95232e-23 -4.04437e-39)
(3.10829e-21 2.41757e-21 6.57491e-38)
(-4.09755e-21 -2.39218e-21 -6.76203e-38)
(-4.85826e-21 4.19352e-21 6.69685e-38)
(6.45523e-21 9.42128e-21 1.72686e-37)
(1.54394e-21 1.3187e-21 -5.22359e-38)
(1.24252e-22 1.23552e-22 4.61552e-39)
(-2.45324e-22 -2.83807e-22 9.88413e-39)
(-1.05824e-22 -1.69428e-21 0)
(9.04652e-23 -3.66416e-24 0)
(-1.68783e-21 3.29204e-22 -1.27131e-38)
(7.44056e-22 -5.48022e-21 -2.37663e-39)
(-3.48141e-22 -2.88535e-22 1.82614e-39)
(-1.06279e-21 -7.19395e-22 5.74736e-39)
(1.45297e-21 -3.74622e-21 0)
(5.05391e-21 3.76173e-21 0)
(2.96566e-21 8.80258e-21 -2.3973e-37)
(-2.75695e-21 -9.9109e-22 -3.17147e-38)
(-2.9382e-22 2.31818e-21 0)
(-4.19209e-22 -7.56351e-22 -2.08311e-39)
(-1.02206e-21 -5.8797e-22 2.60107e-39)
(3.74036e-22 5.85572e-22 1.29244e-38)
(-9.07075e-22 1.60922e-22 -1.61314e-38)
(-1.23169e-21 1.36858e-22 3.80573e-39)
(-7.95269e-22 1.37537e-23 -4.42588e-39)
(-1.38419e-22 1.11387e-21 1.37365e-38)
(-5.79755e-22 -1.96496e-22 -7.39281e-39)
(1.45151e-21 7.78824e-22 8.59588e-39)
(-9.27004e-21 -2.28816e-21 0)
(-2.17758e-22 2.97653e-22 -9.73095e-39)
(-4.37861e-22 -1.72299e-22 5.24742e-39)
(-1.20651e-21 -2.55396e-23 -4.64259e-38)
(-9.73492e-22 -2.73618e-22 -1.29797e-38)
(-5.42381e-22 -4.61476e-22 2.59193e-38)
(-6.20436e-22 -1.14624e-22 -8.63755e-39)
(9.62032e-22 -2.95867e-21 -7.76798e-38)
(1.70009e-21 1.73561e-21 0)
(-1.04761e-21 2.09261e-21 0)
(-1.11997e-22 -6.59921e-23 1.37017e-38)
(-1.06526e-22 -3.01264e-22 4.18961e-39)
(5.58435e-22 -1.69442e-22 -9.44478e-39)
(2.04492e-22 -1.04781e-21 -3.68215e-38)
(-4.65433e-23 3.4638e-23 -4.00852e-39)
(2.00828e-22 -1.96797e-23 -3.58531e-39)
(8.5973e-23 -2.94316e-23 -1.62671e-39)
(9.48217e-22 1.62844e-21 3.02614e-38)
(-5.16109e-22 3.43111e-22 -3.09823e-40)
(1.30129e-21 -2.65498e-21 3.72368e-38)
(-1.11845e-21 5.97994e-23 -4.08039e-38)
(5.39107e-22 -2.66073e-21 2.56779e-39)
(-2.69357e-22 -1.38557e-22 0)
(9.20949e-23 1.56173e-22 -1.04003e-38)
(9.59977e-22 -1.87159e-21 -1.11655e-40)
(5.66303e-22 5.93298e-22 0)
(2.71984e-23 1.61365e-22 1.99299e-38)
(2.22847e-21 8.16379e-22 -3.90268e-40)
(6.8263e-23 -4.21508e-23 1.44051e-39)
(-4.90168e-22 7.13393e-22 0)
(2.72656e-22 -4.29384e-23 0)
(-8.79421e-22 5.28523e-22 5.20325e-38)
(4.02926e-22 -6.21275e-22 2.34617e-38)
(1.24411e-21 1.70183e-21 0)
(-3.94135e-23 5.18583e-22 5.95776e-38)
(2.77782e-21 -2.77252e-22 -7.20834e-39)
(1.48532e-21 2.6986e-22 4.26211e-38)
(-2.47342e-21 -6.59372e-22 7.53699e-39)
(-1.05923e-21 -1.14732e-21 0)
(-1.1513e-21 9.53808e-22 0)
(-7.83581e-21 7.49979e-22 2.21723e-38)
(-1.10535e-20 1.85611e-21 3.73969e-38)
(4.75791e-21 -2.18067e-21 0)
(3.07801e-22 9.83983e-23 8.37008e-39)
(2.96155e-21 -1.48124e-21 0)
(-1.73936e-21 2.85185e-21 1.20304e-37)
(-5.86882e-21 -7.37808e-23 -3.77575e-38)
(-2.3585e-22 6.02845e-22 -9.32686e-39)
(2.56484e-22 7.6264e-23 -2.14088e-39)
(8.73385e-22 6.68574e-22 0)
(6.24196e-22 -5.69399e-22 -1.55717e-38)
(3.99701e-22 1.07921e-22 5.01594e-39)
(-5.28142e-21 -8.52906e-23 2.46844e-37)
(8.12493e-23 -5.59294e-23 2.0633e-40)
(-8.45363e-22 1.28463e-21 4.77498e-40)
(1.84538e-21 -2.45695e-22 8.46196e-38)
(3.32151e-22 2.50799e-21 4.10449e-39)
(-1.25984e-23 3.50631e-22 -3.54486e-38)
(2.62331e-22 -1.72002e-23 5.0086e-39)
(2.79169e-22 3.3571e-23 -9.10851e-40)
(1.56556e-21 2.48239e-21 -2.08253e-37)
(1.71317e-22 1.22564e-23 -8.10582e-39)
)
;

boundaryField
{
    back
    {
        type            empty;
    }
    front
    {
        type            empty;
    }
    bottom
    {
        type            uniformFixedValue;
        uniformValue    
        {
            type            scale;
            scale           
            {
                type            squarePulse;
                start           0.3;
                duration        0.3;
            }
            xScale          
            {
                type            constant;
                value           1;
            }
            value           
            {
                type            constant;
                value           (0 0.7 0);
            }
        }
        value           uniform (0 0 0);
    }
    outer_arc
    {
        type            noSlip;
    }
    right
    {
        type            zeroGradient;
    }
    inner_arc
    {
        type            noSlip;
    }
}


// ************************************************************************* //
