/*--------------------------------*- C++ -*----------------------------------*\
  =========                 |
  \\      /  F ield         | OpenFOAM: The Open Source CFD Toolbox
   \\    /   O peration     | Website:  https://openfoam.org
    \\  /    A nd           | Version:  9
     \\/     M anipulation  |
\*---------------------------------------------------------------------------*/
FoamFile
{
    format      ascii;
    class       volScalarField;
    location    "0.84";
    object      p;
}
// * * * * * * * * * * * * * * * * * * * * * * * * * * * * * * * * * * * * * //

dimensions      [0 2 -2 0 0 0 0];

internalField   nonuniform List<scalar> 
578
(
-9.33078e-17
-2.40163e-16
-6.93327e-17
8.31571e-18
-2.21103e-16
1.46473e-16
2.15753e-16
-1.87332e-16
-1.57384e-16
-3.6232e-16
7.67964e-17
-1.85209e-16
4.724e-19
-2.09111e-16
2.01766e-16
-6.9178e-18
-1.12979e-16
-1.03034e-16
-1.445e-16
-1.04705e-16
9.26397e-18
5.63424e-18
4.76904e-17
5.67658e-17
5.46657e-17
-1.37552e-16
-1.46083e-17
-3.19302e-17
-1.72424e-16
1.35594e-18
-2.02522e-17
1.65515e-16
-6.97598e-17
1.31401e-17
1.81155e-16
-7.77552e-17
-1.86865e-16
-1.78978e-16
-4.59999e-18
-2.58301e-16
-2.0132e-16
-1.63529e-16
-2.0764e-16
2.11356e-16
-5.34201e-17
2.62809e-16
2.0124e-16
-1.69802e-16
-7.38633e-18
-1.81906e-17
2.26885e-16
-1.07967e-19
2.19022e-16
1.11952e-17
-3.09583e-18
-9.82197e-17
4.37461e-17
3.36403e-17
-5.64452e-17
-1.19541e-16
-1.09927e-16
-1.55044e-16
-1.51841e-16
-2.31931e-16
-4.27516e-18
1.95243e-16
-3.89554e-17
1.04173e-16
7.08085e-17
-1.33373e-16
2.02972e-17
1.58814e-16
-3.54057e-18
-1.55497e-16
7.32031e-17
-2.47246e-16
-2.00476e-16
-1.64626e-16
-2.99989e-18
1.46302e-16
1.81589e-16
-1.81606e-16
2.69497e-16
2.52884e-16
4.35065e-17
1.39448e-16
2.63231e-16
-6.65204e-17
-1.48275e-16
1.3471e-16
-1.45436e-17
9.56389e-17
1.72309e-16
3.55631e-18
8.89392e-17
1.59323e-16
-3.65062e-18
-3.38554e-18
-3.417e-16
2.00948e-16
1.88161e-16
-1.52323e-16
-1.07314e-17
1.19358e-16
-6.35584e-18
-2.11445e-16
8.25796e-17
-2.50546e-16
1.67365e-16
-2.20183e-16
-6.98966e-17
-1.44454e-16
-1.17942e-16
1.25019e-16
1.38338e-16
-7.60933e-18
6.17832e-18
-1.17897e-16
1.3246e-16
-4.73731e-18
-1.21766e-16
3.5032e-16
-1.68618e-16
5.39731e-18
2.06047e-16
8.86415e-17
1.50357e-16
-2.49102e-18
1.64955e-16
2.32043e-17
1.66833e-16
7.80456e-17
3.88148e-18
-1.34497e-16
1.48739e-16
1.59473e-16
-2.18882e-16
-7.23129e-18
8.26921e-17
1.68037e-16
1.809e-16
4.90074e-17
1.61401e-16
-5.87961e-17
-1.54076e-16
5.88824e-17
6.07969e-17
-2.11915e-17
-1.69054e-16
-2.88741e-19
-1.80322e-16
7.6959e-17
-2.22241e-16
-1.2442e-16
1.96468e-16
-1.74795e-17
-1.3236e-16
5.97347e-18
2.11927e-16
-1.83157e-16
-1.92046e-16
-1.87286e-16
1.91877e-16
-1.75713e-16
-9.56767e-17
5.26486e-17
-6.50187e-17
1.98446e-16
1.16617e-17
-6.58623e-18
-1.60258e-16
-2.24981e-16
1.64075e-16
1.19705e-16
1.92702e-16
-6.38187e-18
-3.00864e-18
-1.09801e-16
-1.76409e-16
-1.51342e-16
2.11268e-16
-1.88488e-16
1.12042e-16
-2.90951e-18
1.66296e-16
-1.67513e-17
-1.029e-17
2.18044e-16
1.94732e-16
-2.15575e-16
-1.96114e-16
-1.89982e-16
7.17952e-17
1.95338e-16
-2.82554e-16
-4.00299e-18
2.00418e-17
-2.75517e-17
1.88241e-16
-1.97082e-16
8.26614e-18
-5.9015e-19
3.70085e-16
-9.59443e-18
-5.3854e-18
-2.0163e-16
1.82727e-16
-8.2903e-18
-1.89163e-16
2.9808e-17
3.31492e-17
1.82452e-16
1.40865e-16
-1.71537e-18
1.45267e-16
2.41675e-18
1.94028e-16
-1.94829e-16
1.94544e-16
7.39761e-17
-1.93312e-16
1.90798e-16
-8.85746e-17
-1.97041e-16
2.1276e-16
8.74975e-17
-3.25526e-18
1.47829e-17
-2.29007e-17
-1.69357e-16
-3.22557e-16
3.52742e-16
1.35436e-16
-8.33276e-17
8.24534e-17
-1.45616e-16
-2.02474e-16
2.0475e-16
1.9298e-18
-3.24256e-17
2.04323e-16
-2.27262e-16
-7.08282e-18
2.05029e-16
-2.72929e-17
-1.54294e-16
1.67512e-16
-3.19542e-16
1.41438e-16
-1.20389e-18
-3.43007e-18
1.18952e-16
1.8992e-16
2.4652e-17
1.70472e-16
-4.95768e-17
-1.32633e-16
1.84752e-16
-1.64502e-16
3.14964e-16
-7.54901e-17
2.12136e-16
2.0196e-17
2.33374e-17
-1.88616e-16
-1.06583e-16
5.70616e-17
-3.77062e-17
-2.62426e-16
6.82206e-17
-6.88452e-17
6.90745e-17
3.11023e-17
-5.11922e-18
4.46655e-19
-1.13177e-18
-1.13014e-17
3.71348e-17
1.98965e-16
5.78665e-18
-2.09302e-16
-5.8551e-18
-5.09365e-18
-1.82245e-18
-1.1191e-18
1.57675e-16
-9.28192e-17
9.14173e-17
2.64225e-17
1.65594e-17
2.77324e-17
1.12934e-16
-1.2147e-17
1.80911e-16
1.58649e-17
2.08013e-17
-2.08884e-16
-2.34355e-17
-1.77933e-17
1.41415e-17
9.10369e-19
-2.86817e-17
-4.97484e-18
-3.94352e-17
2.0878e-17
-1.42404e-19
6.25972e-19
-1.22487e-16
2.20455e-18
-5.70619e-19
-5.83054e-17
-1.80915e-17
-2.50704e-18
-3.20614e-17
1.10738e-17
-4.01832e-18
1.0279e-16
-2.59347e-17
-5.78558e-17
1.11507e-17
1.07959e-16
-6.02537e-18
-3.9751e-18
3.55558e-17
-5.46859e-18
-1.35544e-17
1.81252e-16
1.88569e-16
-1.95565e-16
-1.63841e-17
-6.71301e-18
1.58037e-16
-8.13661e-18
-1.15618e-17
1.31717e-16
2.1709e-17
1.5099e-18
-8.95067e-18
-7.32618e-17
-1.2514e-17
-3.25619e-18
-2.69205e-18
-1.86944e-17
-9.98121e-17
8.27212e-18
1.74373e-16
9.63222e-17
1.54885e-16
-1.55021e-16
1.79109e-16
-1.71436e-16
-1.88967e-16
1.91469e-16
-6.73725e-17
-2.40719e-16
2.46344e-16
2.37368e-17
2.34102e-16
-2.52378e-16
2.47112e-16
-6.31193e-18
-8.31372e-17
1.50777e-17
-1.2381e-16
-2.53116e-18
7.38219e-18
-1.95546e-17
1.52566e-16
8.53994e-19
-1.69576e-17
-1.81349e-16
-1.67079e-16
6.95698e-17
1.01857e-16
7.09102e-17
2.60845e-16
-1.11157e-17
1.75436e-16
-1.81866e-16
-4.30403e-17
-4.86795e-18
-1.83639e-16
1.92217e-16
3.58827e-17
1.93527e-17
-6.02172e-18
1.23018e-18
2.34776e-16
2.1944e-16
-1.42664e-16
-1.39985e-18
3.8259e-17
4.46884e-17
-5.08829e-17
-2.06394e-17
1.91697e-17
1.68268e-16
-3.74609e-17
2.95316e-17
5.81471e-17
-2.60273e-18
1.32711e-16
6.37503e-19
-1.23544e-16
-6.99082e-18
-2.67368e-17
1.13475e-16
-5.12912e-17
6.07165e-17
1.16187e-16
-1.67825e-17
-1.59877e-16
-8.87817e-17
9.85678e-17
-5.87203e-17
7.26467e-17
-1.57509e-16
1.57494e-16
-2.11088e-16
-1.62093e-17
1.72913e-16
9.54407e-17
-1.71088e-16
2.07659e-16
1.32935e-16
-8.25247e-17
-1.34693e-16
-1.29982e-16
-1.66723e-16
-7.8104e-17
1.24695e-16
3.42117e-17
4.67172e-17
-1.27015e-18
1.18393e-16
-1.06726e-16
-1.84102e-16
-1.08096e-16
-1.11967e-16
-5.06699e-17
-8.988e-17
3.6315e-18
7.62332e-18
-1.87863e-17
1.54414e-16
-4.25113e-17
-2.4221e-17
1.34945e-16
1.33505e-16
-1.49545e-17
1.77518e-16
-9.40442e-18
1.39563e-16
1.53545e-18
1.77404e-16
-4.89427e-18
-2.30912e-16
5.47137e-17
3.89091e-17
-1.2875e-16
2.77715e-16
1.58188e-16
-1.08533e-16
-1.11311e-16
-4.15324e-17
-1.36812e-16
1.18762e-16
-2.14144e-16
-6.98406e-17
-1.03716e-16
-3.4573e-17
-3.47153e-17
1.19601e-16
-1.58289e-17
-4.64782e-17
-1.61281e-16
-1.20434e-16
-1.32122e-16
-6.66874e-17
-1.14793e-16
3.7449e-17
6.16919e-17
-5.515e-17
-3.08421e-17
-1.54667e-17
-9.86258e-17
-6.50376e-17
-1.29931e-17
-1.00987e-17
1.69842e-16
5.13102e-18
1.23742e-16
-6.4428e-17
5.00696e-18
-9.894e-18
1.39383e-16
-8.10329e-18
1.58384e-16
-1.19735e-17
4.22442e-18
-2.03317e-16
-3.3112e-17
-1.07504e-16
1.98857e-18
-1.08199e-16
-1.29264e-17
1.57413e-16
1.01331e-17
1.06936e-16
-1.0356e-17
-1.8632e-17
1.94399e-16
3.30944e-18
2.56235e-16
1.76819e-16
-1.58558e-17
-1.82368e-16
-2.48001e-16
1.20226e-16
3.11679e-18
5.81766e-17
8.36377e-17
-5.25538e-17
-1.44974e-16
-1.57601e-16
-9.75554e-19
-3.97081e-17
1.15098e-17
-1.69355e-16
-1.67237e-16
-1.77408e-16
-1.77506e-16
-3.00202e-17
-2.11262e-17
1.62302e-16
1.31246e-16
1.0742e-16
1.48568e-16
1.29319e-16
-1.52682e-17
6.89049e-18
1.53906e-16
-9.39743e-17
-1.36418e-16
1.9168e-16
1.87395e-17
7.12401e-17
-1.10789e-16
-8.49535e-17
-1.28071e-16
1.03716e-16
1.90592e-16
-1.24353e-16
1.75961e-16
1.12283e-16
-7.12844e-17
-1.85255e-16
-2.85815e-17
-2.87857e-18
-1.42562e-17
-1.11482e-17
1.90619e-16
-1.64984e-16
-1.29753e-17
5.16325e-18
1.05506e-16
1.27274e-18
-1.06483e-16
-1.05166e-17
2.89905e-18
1.64165e-16
-1.15103e-16
1.17202e-16
-1.61953e-16
-6.51116e-17
6.83066e-17
9.06504e-17
6.4876e-17
)
;

boundaryField
{
    front
    {
        type            empty;
    }
    back
    {
        type            empty;
    }
    bottom
    {
        type            uniformFixedValue;
        uniformValue    
        {
            type            scale;
            scale           
            {
                type            squarePulse;
                start           0.3;
                duration        0.3;
            }
            xScale          
            {
                type            constant;
                value           1;
            }
            value           
            {
                type            constant;
                value           15.1;
            }
        }
        value           uniform 0;
    }
    left
    {
        type            zeroGradient;
    }
    top
    {
        type            zeroGradient;
    }
    right
    {
        type            zeroGradient;
    }
    inner_arc
    {
        type            zeroGradient;
    }
}


// ************************************************************************* //
