/*--------------------------------*- C++ -*----------------------------------*\
  =========                 |
  \\      /  F ield         | OpenFOAM: The Open Source CFD Toolbox
   \\    /   O peration     | Website:  https://openfoam.org
    \\  /    A nd           | Version:  9
     \\/     M anipulation  |
\*---------------------------------------------------------------------------*/
FoamFile
{
    format      ascii;
    class       volVectorField;
    location    "0.84";
    object      U;
}
// * * * * * * * * * * * * * * * * * * * * * * * * * * * * * * * * * * * * * //

dimensions      [0 1 -1 0 0 0 0];

internalField   nonuniform List<vector> 
578
(
(-0.0361 -0.043 0)
(-0.0193 -0.0652 2.81e-16)
(-0.0542 -0.0639 -9.98e-17)
(0.0036 -0.0708 -2.38e-17)
(0.0118 -0.0263 -4.47e-17)
(0.00454 -0.0929 -8.82e-17)
(-0.0123 -0.0269 4.45e-17)
(0.0132 -0.0244 -2.14e-20)
(0.0597 -0.0899 -1.94e-16)
(-0.0114 -0.0407 4.17e-16)
(0.00577 -0.101 -1.31e-16)
(0.0385 -0.075 0)
(0.00935 -0.0872 9.7e-17)
(0.0394 -0.0822 -7.53e-16)
(-0.0401 -0.0832 3.79e-16)
(0.07 -0.0751 -9.11e-17)
(-0.0455 -0.0414 4.06e-16)
(-0.0731 -0.0622 0)
(0.0353 -0.0685 0)
(0.0652 -0.0879 1.4e-16)
(0.00326 -0.0799 0)
(0.0557 -0.0689 0)
(0.0308 -0.0274 -4.82e-16)
(0.000206 -0.0738 0)
(-0.00105 -0.0586 0)
(0.0337 -0.0683 3.83e-16)
(-0.00331 -0.0677 -4.84e-17)
(-0.000249 -0.0336 2.6e-17)
(-0.0169 -0.0781 -4.64e-16)
(0.0722 -0.0781 3.72e-16)
(-0.00102 -0.0581 -4.46e-16)
(0.00427 -0.0765 9.57e-17)
(0.0771 -0.083 -3.58e-16)
(-0.00121 -0.0795 1.88e-16)
(-0.0352 -0.0748 -3.75e-16)
(0.0617 -0.0652 -5.64e-16)
(0.0345 -0.0734 7.37e-16)
(0.0325 -0.0631 0)
(-0.0696 -0.0757 -3.7e-16)
(0.0189 -0.0403 0)
(0.0193 -0.0438 -3.65e-16)
(0.0222 -0.0399 4.38e-16)
(0.0194 -0.0377 0)
(-0.0356 -0.0732 0)
(0.0542 -0.0528 4.8e-17)
(-0.0195 -0.0413 0)
(-0.0198 -0.045 3.66e-16)
(0.054 -0.0826 -4.82e-17)
(-0.0693 -0.0756 5.51e-16)
(-0.00568 -0.0806 -1.01e-16)
(0.000752 -0.0352 1.42e-17)
(0.0139 -0.0901 -4.09e-16)
(0.046 -0.033 -1.99e-16)
(-0.00142 -0.0805 0)
(0.00151 -0.0811 3.34e-16)
(-0.00429 -0.0975 8.09e-16)
(0.0119 -0.0104 7.73e-16)
(0.0363 -0.0301 -3.92e-16)
(-0.0598 -0.0594 -7.07e-16)
(0.0396 -0.0425 2.06e-16)
(-0.0706 -0.0674 3.73e-16)
(-0.0381 -0.0267 0)
(-0.0576 -0.0443 5.35e-17)
(0.0354 -0.0732 3.51e-16)
(-0.0046 -0.0892 9.33e-17)
(-0.0444 -0.0837 2.07e-16)
(0.0733 -0.0857 -4.31e-17)
(0.0102 -0.0979 3.09e-16)
(0.0787 -0.0737 -1.77e-16)
(0.0393 -0.084 4.12e-16)
(0.000434 -0.0623 0)
(0.0013 -0.0629 -1.34e-17)
(0.000156 -0.0862 -1.01e-16)
(0.0403 -0.0856 0)
(0.00158 -0.108 1.87e-16)
(0.0117 -0.0246 0)
(0.0526 -0.0763 2.48e-16)
(0.0433 -0.062 -2.04e-16)
(0.00573 -0.0901 0)
(-0.0357 -0.0384 -1.08e-16)
(0.0362 -0.0741 -3.5e-16)
(-0.0177 -0.0256 -3.78e-16)
(0.0108 -0.025 -1.72e-16)
(0.0176 -0.0251 1.74e-16)
(-0.0702 -0.0866 -5e-17)
(-0.0142 -0.041 0)
(0.000632 -0.0205 0)
(-0.00412 -0.107 -2.97e-16)
(0.0286 -0.0634 1e-20)
(-0.0306 -0.0703 3.33e-18)
(-0.00241 -0.0739 0)
(-0.0608 -0.0786 1.01e-16)
(-0.029 -0.0648 0)
(0.013 -0.0971 1.81e-16)
(0.0736 -0.0758 5.51e-16)
(0.0528 -0.0699 -4.72e-16)
(0.000131 -0.0822 9.96e-17)
(0.00526 -0.0826 -7.14e-16)
(-0.00389 -0.0244 -7.45e-16)
(-0.04 -0.0834 0)
(-0.0418 -0.0748 0)
(0.0369 -0.0814 -6.51e-16)
(-0.0138 -0.0946 0)
(-0.0545 -0.0575 0)
(-0.00447 -0.0815 0)
(0.0392 -0.0825 -5.61e-16)
(0.00221 -0.0978 -1.97e-16)
(0.0197 -0.0425 0)
(-0.00834 -0.0229 0)
(0.0221 -0.0443 -4.55e-16)
(0.0615 -0.0712 -1.51e-16)
(0.0377 -0.08 0)
(0.0698 -0.0847 4.18e-16)
(0.0607 -0.0722 -3.36e-16)
(0.0634 -0.0745 3.5e-16)
(-0.0138 -0.0905 4.05e-16)
(0.00603 -0.0801 2.11e-16)
(-0.05 -0.0772 -3.09e-16)
(-0.0269 -0.0607 5.36e-17)
(-0.00516 -0.0827 3.53e-16)
(0.0278 -0.056 -3.65e-16)
(0.0279 -0.042 -9.98e-22)
(0.0382 -0.0768 -3.98e-16)
(0.00169 -0.065 -5.34e-17)
(0.0234 -0.0404 0)
(-0.0325 -0.082 4.11e-16)
(0.0244 -0.0752 -3.91e-16)
(0.0752 -0.0765 -2e-16)
(-0.0408 -0.0864 2.06e-16)
(-0.0267 -0.082 0)
(-0.0403 -0.082 0)
(-0.0318 -0.0834 0)
(0.0111 -0.0937 0)
(0.00808 -0.0162 3.87e-16)
(-0.0397 -0.0844 -3.84e-16)
(-0.0406 -0.0695 0)
(0.0338 -0.0634 0)
(-0.00835 -0.0866 -3.46e-16)
(0.0497 -0.0733 3.91e-16)
(-0.035 -0.0686 0)
(-0.0181 -0.0342 4.72e-16)
(-0.0276 -0.0823 0)
(-0.0302 -0.0584 0)
(-0.000233 -0.0623 0)
(0.0158 -0.031 0)
(-0.0733 -0.0829 1e-20)
(-0.0247 -0.0573 4.32e-16)
(-0.00657 -0.0514 0)
(0.0406 -0.0839 4.16e-16)
(-0.0265 -0.0763 0)
(0.0487 -0.0903 0)
(-0.0186 -0.0262 0)
(0.018 -0.0177 0)
(0.0139 -0.0282 4.62e-16)
(-0.0438 -0.0879 -3.87e-16)
(-0.00577 -0.0704 -2.14e-16)
(-0.0197 -0.0885 4.16e-16)
(0.0116 -0.0792 -9.54e-17)
(-0.0154 -0.0152 -9.31e-17)
(0.0512 -0.0911 -3.29e-16)
(0.044 -0.0831 4.63e-16)
(0.0413 -0.0734 4.81e-16)
(-0.00989 -0.0187 -5.91e-18)
(0.0445 -0.08 0)
(-9.61e-05 -0.019 2.06e-20)
(-0.0288 -0.0726 5.45e-21)
(-0.00021 -0.0348 -4.65e-16)
(-0.0391 -0.0756 0)
(0.00766 -0.0527 -1.05e-16)
(-0.00558 -0.103 -1.71e-16)
(0.0429 -0.0708 0)
(0.0203 -0.0365 0)
(-0.0243 -0.0416 0)
(-0.014 -0.0283 -4.66e-16)
(-0.0341 -0.0644 0)
(-0.0052 -0.095 -9.58e-17)
(-0.000272 -0.0985 -9.69e-17)
(-0.048 -0.0729 3.57e-16)
(0.0266 -0.0451 5.23e-17)
(-0.00215 -0.0637 2.19e-16)
(-0.0209 -0.0374 0)
(-0.0367 -0.0642 0)
(-0.0215 -0.066 0)
(0.00529 -0.0958 7.18e-16)
(-0.0487 -0.0783 2.61e-16)
(-0.00496 -0.038 -3.46e-16)
(0.0249 -0.0299 -1.76e-16)
(-0.0417 -0.0868 9.31e-17)
(-0.0459 -0.0904 4.04e-16)
(-0.00106 -0.0361 -4.69e-16)
(0.0449 -0.0891 -4e-16)
(0.0379 -0.0706 0)
(0.038 -0.049 4.45e-16)
(-0.0361 -0.0682 0)
(-0.0241 -0.0416 0)
(-0.00144 -0.111 1.85e-16)
(0.00287 -0.0419 8.87e-16)
(-0.00283 -0.0414 -7.09e-16)
(-0.0381 -0.071 0)
(0.0354 -0.0674 0)
(0.00588 -0.0396 -3.42e-16)
(0.00903 -0.0993 -9.07e-16)
(0.0136 -0.042 -2.2e-16)
(-0.0041 -0.108 0)
(-0.000972 -0.104 -2.92e-16)
(0.0389 -0.0751 0)
(-0.0442 -0.0804 0)
(-0.045 -0.0535 0)
(0.046 -0.0908 4.11e-16)
(-0.0223 -0.0254 0)
(-0.0197 -0.0456 4.38e-16)
(-0.0469 -0.0922 -3.96e-16)
(-0.0376 -0.0796 -1.29e-17)
(0.00246 -0.107 9.54e-17)
(-0.0328 -0.0664 -2.19e-16)
(0.00136 -0.0726 0)
(-0.0417 -0.08 -4.18e-16)
(0.0409 -0.079 4.19e-16)
(-0.0447 -0.0907 4.09e-16)
(-0.0111 -0.0239 -4.78e-16)
(0.0437 -0.0894 2.09e-16)
(-0.0372 -0.0723 0)
(0.0238 -0.0502 -4.31e-16)
(0.0227 -0.0427 0)
(-0.0221 -0.0412 0)
(-0.0241 -0.0503 8.68e-16)
(3.53e-05 -0.115 -9.34e-17)
(0.00263 -0.0253 3.92e-20)
(-0.00207 -0.025 1.83e-16)
(-0.000295 -0.019 3.7e-16)
(-0.00936 -0.023 -3.75e-16)
(0.00457 -0.0224 -1.89e-16)
(-0.00805 -0.0162 -3.84e-16)
(0.023 -0.0727 0)
(-0.0235 -0.0738 0)
(0.0164 -0.0263 1.33e-16)
(0.0124 -0.0236 0)
(-0.0127 -0.0238 0)
(0.0158 -0.0938 1.51e-16)
(0.0195 -0.0453 0)
(-0.0112 -0.0203 0)
(0.0112 -0.0194 0)
(-0.0014 -0.113 -3.78e-16)
(-0.019 -0.0355 0)
(-0.00136 -0.0218 7.2e-16)
(0.009 -0.0179 0)
(-0.0096 -0.018 -3.72e-16)
(-0.00359 -0.0402 8.71e-16)
(-0.0135 -0.0218 0)
(-0.00187 -0.0998 -9.44e-17)
(0.00142 -0.11 9.35e-17)
(-0.036 -0.0835 0)
(0.00673 -0.0667 0)
(0.00696 -0.0203 -3.73e-18)
(0.000567 -0.0181 0)
(0.0269 -0.081 4.1e-16)
(-0.000418 -0.0356 4.63e-16)
(-0.0517 -0.0923 -6.33e-16)
(0.0133 -0.024 0)
(0.00405 -0.0395 4.67e-16)
(0.011 -0.0237 4.74e-16)
(-0.0118 -0.0211 3.77e-16)
(0.000767 -0.0217 -7.36e-16)
(0.0011 -0.039 4.96e-16)
(-0.0329 -0.0718 3.17e-16)
(0.0292 -0.0629 7.84e-16)
(0.0139 -0.0404 0)
(0.0049 -0.0115 -3.82e-16)
(-0.000899 -0.02 -3.77e-16)
(0.00212 -0.00914 0)
(-0.00216 -0.00924 0)
(-0.0323 -0.0796 -3.99e-16)
(0.0188 -0.052 0)
(-0.000238 -0.117 -2.74e-16)
(0.00635 -0.104 -2.01e-16)
(-0.00106 -0.115 -5.53e-16)
(-0.00239 -0.089 2.14e-16)
(-0.00494 -0.0116 0)
(-0.0228 -0.042 0)
(-0.000951 -0.107 -4.84e-16)
(0.0216 -0.0407 0)
(-0.0019 -0.11 8.34e-16)
(0.000315 -0.116 0)
(0.00288 -0.11 -9.36e-17)
(-0.000821 -0.115 1.88e-16)
(-0.016 -0.0312 -4.54e-16)
(0.00675 -0.0136 -7.57e-16)
(-0.00677 -0.0137 3.82e-16)
(-0.000494 -0.0148 0)
(0.000198 -0.0344 -4.64e-16)
(0.0226 -0.0677 0)
(-0.0368 -0.0823 1.27e-17)
(-0.00393 -0.102 1.71e-16)
(-0.0132 -0.023 0)
(0.000398 -0.018 0)
(0.000952 -0.0363 5.73e-17)
(0.0114 -0.0208 -3.78e-16)
(0.0262 -0.0807 -1.01e-15)
(-0.000164 -0.0363 1.06e-16)
(0.000319 -0.0367 -4.13e-16)
(-0.00126 -0.0979 4.97e-16)
(-0.0231 -0.069 0)
(9.15e-06 -0.0211 3.67e-16)
(-2.31e-05 -0.018 0)
(0.000639 -0.0209 0)
(4.78e-07 -0.0222 6.97e-16)
(0.0259 -0.0751 4.03e-16)
(-0.00187 -0.0763 -9.58e-16)
(-0.000446 -0.118 -3.63e-16)
(-0.000438 -0.118 0)
(0.0243 -0.0569 2.18e-16)
(-0.000855 -0.116 2.74e-16)
(-0.000408 -0.119 -5.78e-16)
(-0.0191 -0.0526 0)
(-0.000585 -0.114 3.76e-16)
(0.00118 -0.11 3.88e-16)
(-0.0341 -0.0766 0)
(-0.00707 -0.0204 0)
(-0.014 -0.0408 0)
(-0.000886 -0.106 -4.65e-16)
(-0.0294 -0.0624 -4.37e-16)
(4.27e-05 -0.117 7.54e-16)
(-0.00265 -0.11 9.65e-17)
(0.000542 -0.103 -3.01e-16)
(-0.00501 -0.105 3.83e-16)
(0.0004 -0.113 -1.78e-16)
(-0.0494 -0.0916 3.79e-16)
(-0.032 -0.0609 0)
(0.043 -0.0866 0)
(9.44e-05 -0.114 6.96e-16)
(-0.00989 -0.0975 9.82e-17)
(-0.0558 -0.0907 -1.51e-16)
(-0.000258 -0.118 1.84e-16)
(0.000737 -0.104 -3.78e-16)
(-0.0277 -0.0554 6.51e-16)
(-7.67e-05 -0.113 1.9e-16)
(0.00516 -0.104 -1.76e-16)
(0.000893 -0.103 -3.94e-16)
(-0.00044 -0.0763 0)
(-0.00236 -0.0903 0)
(0.00197 -0.108 -1.92e-16)
(0.00181 -0.112 2.83e-16)
(-0.000854 -0.116 2.74e-16)
(-0.000754 -0.0658 3.91e-16)
(-0.000168 -0.117 2.77e-16)
(0.0497 -0.0663 -1.11e-16)
(0.0275 -0.0774 2.2e-16)
(-0.00803 -0.0185 -3.8e-16)
(0.00765 -0.0175 9.64e-17)
(-0.00887 -0.02 3.75e-16)
(0.00894 -0.0199 0)
(0.00916 -0.0191 3.83e-16)
(-0.0093 -0.0193 1.91e-16)
(-0.00169 -0.103 -1.88e-16)
(0.0099 -0.0223 0)
(-0.0101 -0.0233 0)
(2.75e-05 -0.116 -2.76e-16)
(-0.0116 -0.0243 -3.7e-16)
(0.0141 -0.026 0)
(-0.0143 -0.0265 0)
(-0.00136 -0.113 -2.99e-16)
(-0.0118 -0.011 0)
(-0.000106 -0.117 9.32e-17)
(0.00782 -0.0191 4.25e-16)
(-0.000352 -0.117 -9.63e-17)
(0.000539 -0.0961 -4.06e-16)
(-0.00135 -0.115 9.6e-17)
(0.0396 -0.0782 4.03e-16)
(0.00727 -0.101 1.69e-16)
(-0.0326 -0.0298 0)
(0.036 -0.0787 0)
(-0.0332 -0.0217 -4.68e-17)
(-0.0523 -0.054 3.9e-16)
(0.0303 -0.0828 -2.03e-16)
(-0.0765 -0.0851 -2.09e-16)
(0.0329 -0.0202 3.58e-16)
(-0.00872 -0.101 -9.7e-17)
(-0.0155 -0.0355 -4.82e-16)
(0.0154 -0.0344 3.44e-16)
(-0.0258 -0.0499 -4.45e-16)
(-0.00127 -0.081 -3.44e-16)
(0.0161 -0.0361 -2.4e-16)
(-0.0163 -0.0365 0)
(0.00344 -0.107 -4.71e-16)
(0.00145 -0.111 2.78e-16)
(-0.000982 -0.104 5.72e-16)
(-0.00162 -0.0194 -4.92e-16)
(-0.0199 -0.0434 4.48e-16)
(-0.0224 -0.0443 0)
(0.0141 -0.0332 -2.96e-16)
(0.00421 -0.0812 1.71e-16)
(0.0151 -0.0813 0)
(0.00978 -0.0916 4.03e-16)
(0.0282 -0.0718 -1.96e-16)
(-0.0798 -0.0775 3.54e-16)
(0.0102 -0.0534 2.07e-16)
(0.0618 -0.0446 3.51e-18)
(-0.000301 -0.0987 5.08e-16)
(0.00544 -0.0716 4.32e-16)
(-0.00104 -0.0313 4.82e-16)
(-0.0748 -0.0793 -6.99e-16)
(0.00111 -0.0334 -4.39e-16)
(-0.00617 -0.0368 2.3e-16)
(-0.0105 -0.0785 3.14e-16)
(-0.0126 -0.0847 0)
(-0.00815 -0.0896 0)
(0.073 -0.0602 0)
(-0.0236 -0.0679 6.33e-16)
(0.00871 -0.101 -4.87e-16)
(0.0221 -0.089 -3.98e-16)
(-0.00834 -0.0778 -8.14e-16)
(-0.0373 -0.0799 1e-16)
(-0.00283 -0.094 5.17e-21)
(-0.0274 -0.073 -8.34e-16)
(-0.0338 -0.0765 -1.01e-16)
(0.0143 -0.0953 9.76e-17)
(0.0321 -0.0707 -4.43e-16)
(-0.0326 -0.0719 -2.23e-16)
(0.041 -0.0865 0)
(-0.00775 -0.0955 9.63e-17)
(-0.0379 -0.0829 5.21e-17)
(0.000117 -0.0176 -1.73e-20)
(0.0412 -0.0842 0)
(-0.04 -0.0821 5.41e-16)
(-0.0359 -0.0812 0)
(0.0314 -0.0805 -2.1e-16)
(0.0138 -0.0404 5.91e-16)
(-0.0062 -0.089 -4.5e-16)
(0.00785 -0.0223 -3.53e-16)
(0.0308 -0.082 0)
(-0.065 -0.0876 0)
(0.00126 -0.113 -1.87e-16)
(0.0469 -0.0524 -1.07e-16)
(0.0114 -0.0837 0)
(-0.00871 -0.0205 -1.85e-16)
(0.0363 -0.0816 -2.05e-16)
(0.0316 -0.0688 0)
(-0.0282 -0.0863 -3.98e-16)
(0.0209 -0.0648 0)
(-0.0155 -0.0929 4.07e-16)
(-0.0258 -0.0864 -3.12e-16)
(0.00358 -0.0958 0)
(0.00993 -0.0829 2.18e-16)
(0.00027 -0.0774 0)
(-0.0602 -0.0914 0)
(-0.00446 -0.109 3.93e-16)
(-0.000511 -0.0619 -3.34e-16)
(-0.0543 -0.0719 -3.99e-16)
(-0.0445 -0.0655 5.65e-16)
(0.000727 -0.0172 0)
(-0.042 -0.0853 1.07e-16)
(-0.0109 -0.082 0)
(-0.0369 -0.0808 1.42e-21)
(0.00967 -0.0814 1.65e-16)
(-0.0432 -0.0889 -3.87e-16)
(-0.00145 -0.0643 0)
(-0.00553 -0.0639 -6.92e-18)
(0.0362 -0.0649 2.01e-16)
(0.000502 -0.109 5.99e-16)
(-0.0585 -0.0756 0)
(0.0172 -0.0641 4.32e-16)
(-0.025 -0.0281 2.22e-16)
(-0.0142 -0.0968 -1.53e-16)
(0.0142 -0.0382 -2.69e-16)
(-0.00223 -0.113 9.66e-17)
(0.0509 -0.0798 -1.45e-20)
(-0.0153 -0.0398 0)
(0.0248 -0.0269 -2.27e-16)
(-0.0117 -0.0992 2.03e-16)
(0.0335 -0.0761 -6.27e-16)
(0.000523 -0.0912 -4.46e-16)
(-0.00114 -0.0179 0)
(-0.0125 -0.0166 0)
(-0.00989 -0.0756 2.11e-16)
(-0.000591 -0.102 -4.13e-16)
(0.0361 -0.0796 1.99e-16)
(0.0348 -0.082 4.19e-16)
(0.0104 -0.0135 1.85e-16)
(0.0194 -0.0257 9.11e-17)
(0.0485 -0.0565 1.79e-16)
(0.000473 -0.0932 0)
(0.00307 -0.11 1.95e-16)
(-0.0757 -0.0791 -3e-16)
(-0.000793 -0.11 -9.24e-16)
(-0.00912 -0.0815 1.69e-16)
(0.0262 -0.0713 2.16e-16)
(-2.98e-05 -0.0929 3.14e-16)
(-0.00212 -0.0407 0)
(-0.0164 -0.0885 0)
(-0.0532 -0.0842 -1.99e-16)
(0.00222 -0.041 -1.7e-16)
(-0.07 -0.0872 4.93e-17)
(0.0315 -0.0786 2.5e-17)
(0.0174 -0.0906 5.21e-17)
(-0.00995 -0.0982 -2.01e-16)
(-0.015 -0.0351 4.69e-16)
(-0.00154 -0.0714 2.21e-16)
(-0.0387 -0.0841 2e-16)
(-0.00672 -0.0782 1.64e-16)
(0.00638 -0.0788 0)
(0.0405 -0.0854 -2.11e-16)
(-0.00567 -0.105 -3.98e-16)
(0.0239 -0.0608 0)
(0.00257 -0.0991 5.92e-16)
(-0.0692 -0.074 1.14e-16)
(-0.0157 -0.0897 0)
(-0.0266 -0.0598 2.32e-16)
(0.00915 -0.0936 0)
(-0.0254 -0.0629 4.34e-16)
(-0.02 -0.0895 0)
(0.00106 -0.0769 4.03e-16)
(0.0392 -0.0648 0)
(0.00136 -0.0616 -4.39e-16)
(-0.0279 -0.0646 -2.4e-16)
(-0.0329 -0.0721 -5.6e-17)
(0.000246 -0.0362 -4.38e-16)
(0.0396 -0.0826 2.15e-16)
(0.0277 -0.0636 0)
(0.000837 -0.071 0)
(0.0212 -0.0895 4.14e-16)
(0.000538 -0.101 -2.94e-16)
(0.0271 -0.0493 -3.5e-16)
(-0.00144 -0.112 9.72e-17)
(0.0247 -0.057 0)
(0.035 -0.0764 2.29e-16)
(0.00132 -0.0896 -5.6e-16)
(3.79e-06 -0.0723 2.87e-16)
(0.0056 -0.0687 -2.26e-16)
(0.0531 -0.0742 1.04e-16)
(-0.00469 -0.0735 2.28e-16)
(0.0312 -0.0471 0)
(0.0427 -0.0876 0)
(-0.00218 -0.036 -4.3e-16)
(0.000306 -0.0939 0)
(0.0214 -0.0864 4.8e-16)
(-0.0248 -0.0373 -2.38e-16)
(0.000909 -0.0579 0)
(-0.031 -0.0688 -2.83e-16)
(-0.0489 -0.0576 -2.73e-17)
(-0.0119 -0.066 4.6e-16)
(0.013 -0.0672 8.72e-20)
(0.0147 -0.0884 -2.65e-17)
(0.0256 -0.0382 0)
(0.0284 -0.064 2.4e-16)
(0.0125 -0.075 0)
(-0.000893 -0.0952 -2.12e-16)
(0.000396 -0.0721 0)
(-0.0515 -0.0713 0)
(0.063 -0.0761 -1.03e-16)
(0.0284 -0.0673 2.23e-16)
(0.0674 -0.0612 2.9e-17)
(-0.0414 -0.0829 -1.16e-16)
(0.0342 -0.0788 -2.01e-16)
(-0.0514 -0.0754 1.06e-16)
(0.0481 -0.0633 -1.15e-16)
(-0.00625 -0.106 -9.89e-17)
(0.0551 -0.09 -2.7e-16)
(-0.000842 -0.111 1.14e-16)
(0.00104 -0.0918 1.11e-16)
(-0.012 -0.0929 5.84e-17)
(-0.0148 -0.0942 0)
(-0.0304 -0.0482 0)
(0.0249 -0.0558 -5.03e-16)
(-0.0208 -0.0857 0)
(0.0217 -0.0863 -2.17e-16)
(0.000824 -0.0872 0)
(0.016 -0.0873 2.21e-16)
(-0.00993 -0.0987 1.48e-16)
(-0.023 -0.0871 -2.37e-16)
(0.0225 -0.087 -2.37e-16)
(-0.0375 -0.0814 2.19e-16)
(-0.0584 -0.0719 0)
(0.0572 -0.0503 -1.62e-16)
(-0.0098 -0.0909 -4.63e-16)
(-0.0707 -0.0768 1.16e-16)
(0.000674 -0.0891 0)
(-0.0677 -0.0804 2.39e-16)
(-0.0581 -0.0656 0)
)
;

boundaryField
{
    front
    {
        type            empty;
    }
    back
    {
        type            empty;
    }
    bottom
    {
        type            zeroGradient;
    }
    left
    {
        type            noSlip;
    }
    top
    {
        type            uniformFixedValue;
        uniformValue    
        {
            type            table;
            format          csv;
            file            "inlet_v.csv";
            nHeaderLine     1;
            refColumn       0;
            componentColumns List<label> 3(1 2 3);
            separator       ",";
            mergeSeparators 0;
        }
        value           uniform (0 -0.08 0);
    }
    right
    {
        type            noSlip;
    }
    inner_arc
    {
        type            noSlip;
    }
}


// ************************************************************************* //
