/*--------------------------------*- C++ -*----------------------------------*\
  =========                 |
  \\      /  F ield         | OpenFOAM: The Open Source CFD Toolbox
   \\    /   O peration     | Website:  https://openfoam.org
    \\  /    A nd           | Version:  9
     \\/     M anipulation  |
\*---------------------------------------------------------------------------*/
FoamFile
{
    format      ascii;
    class       volVectorField;
    location    "0.84";
    object      U;
}
// * * * * * * * * * * * * * * * * * * * * * * * * * * * * * * * * * * * * * //

dimensions      [0 1 -1 0 0 0 0];

internalField   nonuniform List<vector> 
578
(
(4.2322e-15 5.21096e-15 0)
(3.34043e-15 4.1646e-15 -1.33728e-32)
(6.52757e-15 7.8334e-15 0)
(-2.11864e-16 -4.78471e-16 4.90328e-34)
(1.21416e-15 -2.59939e-15 0)
(2.7507e-15 -3.82805e-16 -5.94592e-33)
(1.25327e-15 2.67056e-15 -1.22605e-33)
(1.25815e-15 -2.2952e-15 -1.04287e-32)
(6.43643e-15 -1.05094e-14 0)
(1.69833e-15 2.52213e-15 1.66184e-32)
(4.34948e-15 -1.11365e-15 4.18129e-33)
(4.40624e-15 -8.46374e-15 -6.53133e-34)
(-1.37914e-16 -4.02815e-17 0)
(4.57221e-15 -9.35773e-15 1.29625e-32)
(4.60711e-15 9.35807e-15 0)
(8.20709e-15 -9.37268e-15 6.5363e-34)
(6.08795e-15 2.90475e-15 3.22895e-33)
(7.05455e-15 6.41664e-15 -1.02571e-32)
(3.94568e-15 -7.59026e-15 3.11794e-33)
(7.01995e-15 -1.03364e-14 6.5454e-33)
(-3.42315e-16 -6.82175e-16 -5.04856e-34)
(6.85745e-15 -8.5652e-15 2.14154e-33)
(3.76424e-15 -1.70073e-15 -4.56619e-33)
(-1.47039e-17 1.76506e-15 -4.11394e-34)
(-7.05491e-17 1.56574e-15 0)
(3.85043e-15 -7.8013e-15 6.81462e-34)
(-1.88326e-16 4.89446e-16 0)
(-8.89344e-17 4.38182e-16 -8.39855e-35)
(3.97795e-15 3.35326e-15 8.37621e-33)
(8.17191e-15 -9.53445e-15 0)
(-1.84303e-16 7.27613e-16 1.06134e-33)
(1.87564e-15 -3.63561e-16 -8.95625e-34)
(8.22994e-15 -9.8167e-15 4.89623e-34)
(-3.45487e-16 1.6356e-15 -1.73889e-34)
(4.01017e-15 8.29547e-15 -1.1115e-32)
(7.02377e-15 -8.00562e-15 -2.08243e-33)
(3.97974e-15 -8.22837e-15 -1.13851e-32)
(3.67663e-15 -7.07819e-15 0)
(7.83479e-15 9.06641e-15 3.43152e-34)
(2.0065e-15 -4.2035e-15 0)
(2.1033e-15 -4.62979e-15 1.0955e-32)
(2.26419e-15 -3.95258e-15 5.73279e-33)
(2.02025e-15 -3.91417e-15 1.31577e-32)
(3.94658e-15 8.10388e-15 -3.87074e-34)
(4.85203e-15 -5.28559e-15 0)
(2.04954e-15 4.31192e-15 4.72331e-34)
(2.12613e-15 4.72792e-15 1.22877e-32)
(5.64859e-15 -9.35472e-15 4.92878e-33)
(7.95443e-15 9.22429e-15 -3.50137e-34)
(-2.54064e-16 4.32591e-16 0)
(2.55991e-16 6.02112e-16 3.52647e-34)
(-1.24958e-16 -5.99424e-17 8.125e-36)
(4.22956e-15 -2.36401e-15 8.09389e-33)
(-4.12139e-16 1.48295e-15 1.71976e-34)
(-3.56691e-17 -3.86962e-18 0)
(2.5377e-15 -1.15928e-16 -2.56964e-33)
(1.66193e-15 -5.17997e-16 -5.16786e-34)
(2.75137e-15 -2.59118e-15 0)
(7.68549e-15 5.38387e-15 5.41989e-33)
(4.50709e-15 -5.05752e-15 -2.45404e-33)
(7.91343e-15 6.87426e-15 3.01944e-33)
(3.37323e-15 1.69258e-15 5.45854e-33)
(4.29491e-15 3.82386e-15 7.51846e-33)
(3.96723e-15 -8.20383e-15 -6.05653e-33)
(-2.10509e-16 2.91762e-17 -2.22691e-34)
(4.90864e-15 9.45786e-15 6.10569e-33)
(7.72557e-15 -9.90637e-15 -4.14081e-33)
(5.40318e-15 -2.06938e-15 0)
(8.26588e-15 -8.42364e-15 6.40594e-34)
(4.6505e-15 -9.78217e-15 -4.32451e-33)
(-2.02418e-16 1.52841e-15 0)
(7.9479e-16 5.85024e-16 -1.01051e-32)
(-1.74281e-16 -4.20879e-18 4.32777e-34)
(4.8219e-15 -9.82456e-15 -1.14457e-32)
(2.22019e-15 5.02315e-16 0)
(1.18048e-15 -2.48896e-15 -6.06557e-33)
(5.73193e-15 -8.80912e-15 -1.58766e-32)
(4.58475e-15 -7.02735e-15 8.88057e-33)
(-2.20387e-16 -4.58576e-17 -1.92507e-34)
(3.92514e-15 4.35209e-15 2.65139e-33)
(6.37389e-15 -6.26888e-15 -1.27379e-32)
(2.17899e-15 2.92364e-15 -2.01235e-32)
(1.54317e-15 -2.20757e-15 -2.08939e-32)
(2.12335e-15 -2.91465e-15 0)
(7.27684e-15 9.75105e-15 2.39701e-33)
(1.483e-15 3.64396e-15 -1.22846e-32)
(2.56069e-16 1.50646e-16 0)
(3.57029e-15 1.85864e-16 -8.12968e-34)
(3.24369e-15 -6.88249e-15 9.32407e-33)
(3.33749e-15 7.60792e-15 5.67681e-35)
(-2.86216e-16 6.69583e-16 -1.04761e-33)
(6.04177e-15 8.56947e-15 2.26904e-35)
(3.2402e-15 6.99225e-15 9.42836e-33)
(-2.59008e-16 -1.6363e-16 7.22867e-35)
(8.5547e-15 -9.05301e-15 -7.61418e-34)
(7.0647e-15 -8.0929e-15 0)
(-7.85924e-17 -1.95794e-20 -2.549e-34)
(-5.94538e-17 -1.31386e-17 0)
(7.11917e-16 8.46097e-16 4.10687e-33)
(4.65726e-15 9.47196e-15 -1.11166e-32)
(4.38734e-15 8.22723e-15 -6.88431e-34)
(4.28477e-15 -9.33612e-15 -4.82924e-33)
(-2.075e-16 1.16775e-16 0)
(6.13494e-15 6.7898e-15 0)
(-1.74669e-17 7.38139e-18 -1.63498e-34)
(4.63174e-15 -9.48756e-15 -1.12907e-32)
(1.98576e-15 5.26656e-16 0)
(2.11657e-15 -4.50155e-15 -7.28303e-33)
(6.8955e-16 1.88611e-15 7.62407e-33)
(2.31924e-15 -4.67464e-15 1.4279e-32)
(6.83735e-15 -8.58732e-15 -2.71894e-33)
(4.4312e-15 -9.35728e-15 -3.45442e-33)
(7.62352e-15 -1.01798e-14 -4.758e-34)
(8.26849e-15 -7.41538e-15 9.74962e-34)
(8.17169e-15 -8.49897e-15 -9.69295e-34)
(-1.33013e-16 6.19694e-17 -4.61267e-34)
(-2.39832e-16 -4.0233e-16 0)
(8.06486e-15 7.13784e-15 2.1257e-33)
(2.86113e-15 6.35598e-15 0)
(-5.81578e-17 1.25904e-17 -3.12062e-34)
(3.08128e-15 -6.21361e-15 8.75689e-33)
(3.53141e-15 -4.85028e-15 0)
(4.45653e-15 -8.78704e-15 1.17074e-33)
(-2.39403e-16 -7.70515e-16 3.2642e-34)
(3.22339e-15 -4.22519e-15 0)
(3.75812e-15 9.29253e-15 2.7653e-33)
(5.19044e-15 -5.14856e-15 1.30075e-32)
(7.59736e-15 -8.45692e-15 -5.35777e-34)
(4.82817e-15 9.83503e-15 -1.0343e-32)
(3.38484e-15 9.50712e-15 0)
(4.7012e-15 9.38228e-15 1.23057e-32)
(3.76114e-15 9.59111e-15 0)
(-2.53679e-16 -2.37894e-16 2.06911e-34)
(7.63939e-16 -1.54247e-15 -6.90021e-33)
(4.68365e-15 9.70101e-15 -1.10694e-32)
(4.32068e-15 7.63801e-15 0)
(3.7581e-15 -6.93589e-15 1.38258e-32)
(-1.31152e-16 3.40316e-17 4.67166e-34)
(8.30801e-15 -6.6453e-15 -2.69892e-35)
(3.9473e-15 7.61468e-15 -1.02752e-32)
(1.77588e-15 3.29667e-15 0)
(3.38883e-15 9.36341e-15 0)
(3.297e-15 6.30294e-15 0)
(-4.73982e-17 -1.63115e-15 0)
(1.66345e-15 -3.27017e-15 8.67062e-33)
(8.01015e-15 9.8845e-15 0)
(2.80148e-15 6.37761e-15 6.23513e-33)
(-2.29103e-17 3.85422e-17 -1.38721e-33)
(4.83659e-15 -9.76529e-15 0)
(3.24334e-15 8.80921e-15 0)
(5.52405e-15 -1.03957e-14 0)
(1.59788e-15 2.32762e-15 -8.26574e-34)
(1.85114e-15 -1.98729e-15 1.25604e-32)
(1.41023e-15 -2.85365e-15 6.27474e-33)
(5.0717e-15 9.97533e-15 -3.42348e-34)
(-1.31205e-16 2.55927e-16 -1.00519e-33)
(6.0464e-15 3.97282e-15 -9.43483e-33)
(-6.93942e-17 -9.62155e-17 3.06149e-34)
(1.53335e-15 1.65002e-15 4.43788e-33)
(5.72756e-15 -1.05505e-14 0)
(4.8994e-15 -9.47043e-15 0)
(4.39981e-15 -8.21229e-15 0)
(9.24404e-16 1.71735e-15 0)
(4.89282e-15 -8.90826e-15 1.61825e-34)
(1.02813e-17 -6.46531e-16 0)
(3.40426e-15 8.32268e-15 -3.45463e-33)
(-4.88593e-17 -1.09822e-15 0)
(4.34724e-15 8.33789e-15 -9.52711e-35)
(-2.18847e-17 -3.48145e-17 0)
(-5.75707e-16 5.12392e-16 0)
(4.55728e-15 -7.80669e-15 1.01278e-32)
(2.05339e-15 -3.73879e-15 0)
(2.38279e-15 4.1576e-15 0)
(1.38575e-15 2.76071e-15 -1.21136e-34)
(3.66174e-15 6.8976e-15 0)
(-3.23704e-16 5.94588e-17 0)
(-4.17638e-16 6.15724e-18 1.81297e-34)
(8.30651e-15 5.86552e-15 -6.52034e-34)
(2.63098e-15 -4.54654e-15 -9.55313e-33)
(7.54605e-16 -6.12094e-16 0)
(2.0302e-15 3.7346e-15 1.00056e-34)
(5.1367e-15 6.81224e-15 1.39168e-32)
(2.46442e-15 6.75681e-15 0)
(-3.40179e-16 -6.8903e-17 -2.60037e-34)
(5.22193e-15 8.85928e-15 0)
(-8.02044e-18 1.57389e-18 7.33084e-34)
(2.77326e-15 -3.42827e-15 4.79917e-34)
(4.84288e-15 9.92095e-15 1.08422e-32)
(5.26636e-15 1.02248e-14 0)
(2.56998e-16 -6.05903e-16 0)
(5.24011e-15 -1.02024e-14 0)
(4.12623e-15 -7.59898e-15 1.18524e-32)
(4.47991e-15 -5.97431e-15 -2.3053e-33)
(3.88906e-15 7.28893e-15 9.34532e-35)
(3.01797e-15 4.39801e-15 1.3177e-32)
(-7.93437e-16 1.44474e-16 7.32899e-34)
(-4.54433e-17 -1.22115e-16 -1.11897e-33)
(-4.63798e-17 1.26125e-16 -1.70418e-33)
(4.08087e-15 7.53943e-15 0)
(3.91645e-15 -7.29978e-15 0)
(-8.25952e-18 -2.51493e-18 0)
(-3.6746e-16 -1.55659e-16 9.64322e-35)
(1.94221e-15 -2.66729e-15 1.88619e-32)
(-6.69591e-16 2.89286e-16 -7.15366e-34)
(-5.47471e-16 2.84123e-17 -1.64457e-34)
(4.47655e-15 -8.40971e-15 -2.48348e-32)
(4.83967e-15 8.92872e-15 0)
(4.01194e-15 5.23237e-15 2.80882e-34)
(5.31956e-15 -1.04624e-14 0)
(2.47263e-15 2.88009e-15 -3.63126e-33)
(2.15595e-15 4.85425e-15 -2.85833e-33)
(5.34876e-15 1.04761e-14 0)
(4.38085e-15 9.11369e-15 0)
(-6.20435e-16 -1.09756e-16 1.89179e-35)
(3.68999e-15 7.36634e-15 0)
(-3.33808e-16 -1.0075e-15 -2.37154e-34)
(4.58859e-15 8.70397e-15 0)
(4.60345e-15 -8.70854e-15 -4.59661e-35)
(5.19702e-15 1.03132e-14 1.23384e-32)
(1.12082e-15 2.36557e-15 0)
(5.17122e-15 -1.02688e-14 1.29776e-32)
(4.13972e-15 7.93488e-15 1.13383e-32)
(2.63481e-15 -5.57225e-15 -1.24083e-32)
(2.27996e-15 -4.22661e-15 -1.16788e-32)
(2.14422e-15 3.9367e-15 0)
(2.61411e-15 5.47094e-15 7.07002e-35)
(-9.49877e-16 -5.76318e-17 -1.77924e-34)
(-1.81398e-17 -2.96736e-17 0)
(-1.83739e-17 3.2739e-17 1.05189e-33)
(9.47314e-17 -5.28001e-16 7.18522e-33)
(1.29423e-15 1.94573e-15 0)
(6.80342e-16 -7.76022e-16 1.60214e-32)
(7.4194e-16 1.461e-15 9.67329e-35)
(2.91186e-15 -8.02235e-15 0)
(2.92327e-15 8.02924e-15 0)
(1.53574e-15 -2.51594e-15 -5.38367e-33)
(1.14044e-15 -2.10734e-15 -9.90795e-33)
(1.14337e-15 2.09007e-15 -9.91086e-33)
(-1.631e-16 -1.02069e-16 -1.11939e-34)
(2.16186e-15 -4.89496e-15 0)
(1.00738e-15 1.86903e-15 -9.74421e-33)
(1.04987e-15 -1.77492e-15 -1.11617e-32)
(-8.91085e-16 2.37296e-16 8.30504e-35)
(1.89882e-15 3.51425e-15 -1.93021e-34)
(-2.9457e-17 9.74785e-17 2.60655e-33)
(8.44722e-16 -1.73582e-15 -8.77569e-33)
(8.58875e-16 1.62392e-15 0)
(7.41442e-16 5.46818e-16 0)
(1.25926e-15 2.07953e-15 0)
(-6.81135e-16 1.12188e-15 -1.03604e-34)
(-7.55731e-16 -1.13572e-16 0)
(4.18278e-15 9.59579e-15 9.96983e-35)
(1.87172e-15 -1.27076e-15 9.75721e-33)
(7.51749e-16 -2.00758e-15 0)
(8.08883e-17 5.31958e-16 0)
(3.35594e-15 -9.35445e-15 -2.13891e-33)
(6.68462e-17 -1.03762e-15 -9.37236e-33)
(5.6996e-15 1.05906e-14 -5.83086e-33)
(1.21766e-15 -2.23902e-15 -8.05108e-33)
(7.20314e-16 -5.14677e-16 -2.08587e-32)
(1.12606e-15 -2.39098e-15 3.39865e-33)
(1.07392e-15 1.97035e-15 -8.01491e-35)
(-3.34736e-17 -9.8424e-17 1.98844e-33)
(-7.79303e-17 -2.72569e-16 -2.72889e-33)
(5.37086e-15 6.17272e-15 -2.05537e-32)
(3.31965e-15 -7.13495e-15 5.10012e-33)
(1.59243e-15 -4.41105e-15 0)
(4.35072e-16 -1.0175e-15 -2.74381e-33)
(2.65822e-16 -1.41075e-16 -1.97957e-34)
(1.87288e-16 -9.19882e-16 0)
(1.89349e-16 9.20823e-16 0)
(3.81064e-15 9.18257e-15 0)
(2.22495e-15 -5.82107e-15 0)
(-9.86002e-16 3.66944e-18 9.33685e-35)
(-5.14804e-16 -2.27596e-16 -5.98811e-35)
(-9.3167e-16 5.17658e-16 -1.27439e-34)
(-5.18465e-16 1.05566e-15 -3.17557e-34)
(4.36095e-16 1.01061e-15 -1.3252e-37)
(2.25984e-15 4.12307e-15 0)
(-6.99479e-16 1.19094e-15 2.0204e-34)
(2.14835e-15 -3.95912e-15 9.82067e-35)
(-8.46892e-16 7.83253e-16 1.04394e-34)
(-9.31087e-16 -4.46479e-16 0)
(-7.74086e-16 -3.57419e-16 -8.14042e-36)
(-8.51694e-16 6.74343e-16 -1.68469e-35)
(1.60641e-15 3.07146e-15 0)
(6.1087e-16 -1.29751e-15 3.19122e-35)
(6.10456e-16 1.27597e-15 -4.43571e-33)
(-1.37196e-17 4.67401e-16 5.19238e-34)
(-9.53151e-17 9.37805e-16 -1.05009e-34)
(2.80553e-15 -7.90861e-15 1.13579e-33)
(4.30475e-15 9.46366e-15 0)
(-6.31738e-16 6.79333e-16 4.1354e-34)
(1.22197e-15 2.17267e-15 -8.72683e-33)
(-5.14066e-17 -3.05378e-16 4.43274e-34)
(-9.29099e-17 -4.6906e-16 -6.37143e-34)
(1.08069e-15 -2.00146e-15 0)
(3.35361e-15 -9.50275e-15 3.95809e-33)
(-1.09404e-16 -9.84815e-16 -2.24316e-33)
(-1.15429e-16 -7.37784e-16 -1.07885e-34)
(-6.39902e-16 1.32873e-15 -2.05862e-34)
(2.81968e-15 7.89058e-15 0)
(-6.42159e-17 -5.22136e-16 5.40987e-34)
(-3.65606e-17 -5.75503e-16 1.41153e-33)
(-4.65352e-17 -2.04548e-16 1.03836e-33)
(-7.18561e-17 5.46734e-16 -4.14749e-34)
(3.21407e-15 -8.8247e-15 -1.55984e-33)
(7.82791e-16 -1.14388e-15 0)
(-5.24803e-16 3.27126e-16 -1.21781e-35)
(-7.81604e-16 2.12351e-16 6.29262e-35)
(2.79911e-15 -6.4323e-15 0)
(7.02721e-16 -6.32073e-16 0)
(2.81897e-16 -1.16557e-16 -8.48777e-35)
(2.22936e-15 5.79436e-15 -1.26291e-37)
(-3.59756e-16 9.76869e-16 -9.26735e-34)
(-8.57954e-16 -8.39903e-16 4.03299e-34)
(3.94838e-15 8.78971e-15 0)
(7.54374e-16 2.0008e-15 1.66298e-37)
(1.59686e-15 4.40189e-15 0)
(-5.10688e-16 1.35174e-15 1.10599e-33)
(3.28897e-15 6.93336e-15 0)
(-8.50057e-16 -4.21765e-16 5.80945e-34)
(-8.22854e-16 5.93816e-16 -4.71153e-34)
(1.62856e-16 1.49517e-15 7.22645e-34)
(-5.57247e-16 1.86457e-16 5.51199e-34)
(-6.49605e-16 -9.72915e-16 -5.35293e-34)
(5.52554e-15 1.04208e-14 0)
(3.47892e-15 6.5386e-15 0)
(5.0931e-15 -9.89255e-15 1.20415e-32)
(-3.82872e-16 -9.23167e-16 1.74853e-33)
(-3.19546e-16 1.34019e-16 1.35725e-34)
(6.03583e-15 1.04326e-14 0)
(-2.56653e-16 -2.29009e-16 -3.64663e-34)
(-6.36625e-16 -1.34719e-15 1.44249e-34)
(3.0027e-15 5.94616e-15 0)
(4.59886e-17 1.05567e-15 2.4763e-34)
(-6.10135e-16 -5.19818e-16 4.1038e-35)
(-7.10404e-16 -1.21014e-15 -3.83132e-34)
(1.43497e-16 -1.72624e-15 0)
(-4.9355e-16 8.18571e-16 0)
(-8.16578e-16 -7.40303e-16 0)
(-8.8111e-16 -4.08664e-16 1.77483e-34)
(1.49901e-15 -4.70803e-16 -2.42919e-33)
(2.91207e-16 -1.46789e-15 2.07808e-34)
(4.86454e-16 5.2262e-16 -3.94385e-34)
(6.2507e-15 -8.02813e-15 0)
(8.51282e-15 -3.93198e-15 -3.13726e-33)
(7.32947e-16 1.65376e-15 -3.39028e-33)
(7.20711e-16 -1.58999e-15 3.81015e-33)
(8.15176e-16 1.76236e-15 -4.35237e-33)
(8.39129e-16 -1.78655e-15 -6.37647e-33)
(8.9255e-16 -1.78724e-15 0)
(9.07973e-16 1.80411e-15 2.78879e-33)
(1.27813e-15 -1.09047e-15 0)
(9.89675e-16 -2.19212e-15 0)
(9.87962e-16 2.26735e-15 0)
(1.21734e-15 5.03312e-16 -1.34588e-34)
(1.12466e-15 2.36378e-15 -4.33892e-33)
(1.36231e-15 -2.55379e-15 -1.01685e-32)
(1.3387e-15 2.51153e-15 -2.51903e-33)
(5.21281e-15 7.45701e-17 2.01453e-34)
(1.50565e-15 3.49494e-16 0)
(3.02289e-15 1.5762e-17 1.47255e-33)
(6.60497e-16 -1.6589e-15 0)
(1.917e-15 3.32399e-17 9.56399e-34)
(8.60149e-15 -1.72451e-16 0)
(3.84707e-15 -2.72189e-17 -1.94002e-34)
(7.82415e-15 -6.44277e-15 1.74594e-32)
(-4.86944e-16 -4.0348e-16 2.14047e-36)
(2.39818e-15 2.47932e-15 0)
(4.2359e-15 -8.88388e-15 1.00272e-32)
(2.27567e-15 1.60106e-15 -3.85106e-33)
(4.51976e-15 5.26457e-15 2.77115e-33)
(8.1585e-15 -5.03745e-15 -4.76557e-33)
(7.94471e-15 9.75534e-15 -1.81992e-33)
(2.36165e-15 -1.46825e-15 6.34535e-33)
(-4.20906e-16 2.1877e-16 -6.30427e-34)
(1.52494e-15 3.37123e-15 0)
(1.52607e-15 -3.31888e-15 -5.10479e-33)
(6.76022e-15 1.93977e-15 -4.03422e-33)
(-3.19191e-17 4.22138e-18 4.47395e-34)
(1.6515e-15 -3.59431e-15 2.81565e-33)
(1.66808e-15 3.59169e-15 0)
(6.96073e-15 -8.04913e-16 -5.74454e-34)
(5.69823e-15 -4.16569e-16 -2.37959e-33)
(7.75628e-15 2.53584e-17 -2.86192e-34)
(3.00294e-15 -4.43924e-17 6.6608e-34)
(2.07053e-15 4.48838e-15 0)
(2.26665e-15 4.52699e-15 -1.81709e-33)
(1.37019e-15 -3.1594e-15 0)
(-1.62156e-17 -7.47205e-18 0)
(8.72402e-15 -2.24326e-15 0)
(8.62256e-15 -1.79742e-15 -3.55756e-33)
(3.36991e-15 -8.35257e-15 0)
(8.12302e-15 8.79968e-15 6.58545e-34)
(7.0108e-15 -9.4313e-16 1.9578e-33)
(4.92173e-15 -3.93894e-15 0)
(-1.10591e-16 -1.65406e-15 1.5538e-33)
(8.37478e-15 -7.34514e-16 -3.78427e-34)
(-3.61873e-17 1.00535e-15 0)
(7.40186e-15 8.68512e-15 -2.56175e-33)
(2.74103e-17 1.01722e-15 0)
(5.69433e-15 3.37831e-16 -6.27174e-34)
(3.08332e-15 2.24574e-15 0)
(-2.26131e-17 1.32128e-17 2.09217e-34)
(8.79128e-15 1.23685e-15 3.32913e-34)
(7.33502e-15 -6.22964e-15 -4.10773e-33)
(8.21823e-15 2.52785e-15 -1.64934e-33)
(6.93139e-15 -1.91793e-15 4.62908e-34)
(7.47641e-15 -4.25597e-15 0)
(8.66636e-15 1.05351e-15 -3.34648e-34)
(7.07171e-15 6.418e-15 3.09425e-33)
(1.47382e-15 -8.77131e-16 0)
(3.01915e-15 7.81985e-15 -2.81554e-33)
(8.50006e-15 4.3669e-15 1.67034e-33)
(7.86278e-15 -2.73522e-15 4.5901e-33)
(3.76549e-15 -7.85838e-15 -5.47394e-33)
(3.73712e-15 7.91078e-15 -6.01015e-33)
(4.94686e-15 -9.96627e-15 9.12796e-33)
(-3.93933e-16 4.46465e-16 0)
(4.49517e-15 9.35341e-15 1.19536e-32)
(-2.24588e-18 6.29793e-16 0)
(4.8577e-15 -9.67564e-15 -5.58509e-34)
(4.58694e-15 9.33059e-15 5.62856e-33)
(4.13614e-15 9.21113e-15 0)
(3.6505e-15 -9.22245e-15 2.10857e-33)
(1.46841e-15 -3.63075e-15 0)
(2.57461e-15 4.28793e-16 0)
(6.61409e-16 -1.87662e-15 -4.23318e-34)
(3.69561e-15 -9.57952e-15 -2.60128e-33)
(6.89476e-15 1.0194e-14 3.74387e-33)
(3.3134e-15 3.32218e-17 -1.47478e-33)
(4.20301e-15 -5.16276e-15 -5.01035e-34)
(-1.92185e-17 -1.27261e-17 0)
(7.27113e-16 1.77756e-15 0)
(4.25515e-15 -9.54395e-15 6.01206e-33)
(3.57315e-15 -7.49567e-15 -1.08489e-32)
(7.30111e-15 5.07173e-15 -2.94304e-33)
(2.4522e-15 -6.76095e-15 -2.55926e-35)
(8.38245e-15 2.68392e-15 4.30226e-33)
(8.2885e-15 4.21485e-15 -1.25945e-33)
(-5.35899e-16 -7.15872e-16 0)
(-1.35952e-16 -1.85327e-16 -9.45933e-35)
(-3.57197e-16 -1.54144e-15 -5.60848e-34)
(6.42215e-15 1.05362e-14 9.43153e-33)
(5.87929e-15 6.62125e-16 2.3319e-33)
(-2.02888e-16 -1.46746e-15 1.32169e-33)
(5.75103e-15 8.27398e-15 4.35759e-33)
(4.64827e-15 7.29255e-15 -8.20919e-33)
(-6.81748e-17 3.0227e-16 0)
(4.91168e-15 9.76191e-15 0)
(-7.2759e-19 4.71868e-18 0)
(4.2029e-15 9.01657e-15 -6.2181e-33)
(1.0183e-18 -3.58166e-18 5.44805e-35)
(5.01604e-15 1.00969e-14 -1.14791e-32)
(-2.53816e-16 1.17335e-15 0)
(1.4536e-15 1.07866e-15 6.11175e-33)
(7.94552e-15 -3.93854e-15 2.03464e-33)
(1.32308e-15 8.80484e-16 0)
(8.04768e-15 8.01697e-15 0)
(3.13311e-15 -3.72349e-15 -1.30933e-32)
(2.52935e-15 3.07702e-15 -1.37604e-32)
(6.30461e-15 2.7644e-15 -8.33814e-34)
(1.28526e-15 -3.50377e-15 4.01063e-33)
(3.16332e-15 -1.58388e-16 2.58649e-33)
(5.45559e-15 -9.11235e-15 5.51012e-33)
(1.3817e-15 3.63796e-15 3.42529e-33)
(2.58252e-15 -3.03698e-15 0)
(7.45044e-15 2.25396e-15 -3.19018e-33)
(3.92402e-15 -8.89087e-15 3.22855e-34)
(-2.60877e-16 -1.74323e-15 2.83016e-34)
(-3.12353e-17 1.69943e-16 7.74856e-34)
(1.16373e-15 1.64399e-15 -5.72692e-33)
(-6.81704e-17 1.0485e-16 1.37524e-34)
(6.39887e-16 -1.35646e-15 -4.81262e-33)
(4.22774e-15 -9.00585e-15 -7.10495e-34)
(4.04725e-15 -9.50585e-15 -6.68781e-33)
(9.67801e-16 -1.35245e-15 -6.33619e-33)
(1.64812e-15 -2.30977e-15 3.18267e-34)
(5.22381e-15 -6.59845e-15 -8.21414e-34)
(-1.33695e-16 1.7324e-15 0)
(4.55814e-15 -4.81408e-16 4.66151e-33)
(8.44561e-15 9.40191e-15 0)
(-9.34358e-17 -1.26705e-15 -2.01431e-33)
(-1.47129e-16 2.09507e-16 9.47225e-34)
(2.91937e-15 -7.73183e-15 3.2241e-33)
(2.09847e-16 -1.64082e-15 1.81154e-33)
(3.69742e-19 -3.33624e-18 -8.82225e-34)
(-6.47307e-17 3.80443e-17 -3.22147e-34)
(5.55701e-15 9.44294e-15 -8.90682e-33)
(3.45451e-19 2.91037e-18 0)
(7.51998e-15 1.02319e-14 -1.12234e-33)
(3.75733e-15 -9.21724e-15 -3.21552e-34)
(-7.97007e-17 -7.46592e-17 -3.41037e-34)
(-3.50751e-16 3.05108e-16 0)
(1.45226e-15 3.33543e-15 9.27498e-33)
(-3.18589e-16 1.06056e-15 3.12955e-34)
(4.52437e-15 9.62017e-15 8.86749e-33)
(2.95498e-18 -7.26437e-19 5.81656e-34)
(2.81807e-18 1.02029e-18 4.07794e-35)
(4.85731e-15 -9.82993e-15 -5.51061e-33)
(7.18724e-15 1.00441e-15 2.00181e-33)
(2.47577e-15 -6.33835e-15 -6.97792e-33)
(-6.49166e-16 -8.901e-16 0)
(8.40797e-15 8.27688e-15 -1.42691e-33)
(-8.67675e-17 8.81099e-17 -3.18887e-34)
(2.89126e-15 6.25572e-15 -4.30554e-33)
(-3.44131e-16 -3.70039e-16 -1.06013e-34)
(2.63692e-15 6.55352e-15 -3.53719e-33)
(-4.8054e-17 4.64545e-17 2.54582e-34)
(-3.75013e-16 -1.41579e-15 -1.42821e-34)
(5.77722e-15 -6.46167e-15 0)
(-2.24119e-16 -1.10317e-15 1.22226e-34)
(3.0826e-15 7.07692e-15 2.35892e-33)
(3.71083e-15 7.86327e-15 -1.35284e-32)
(-1.35408e-16 7.41085e-16 0)
(4.70985e-15 -9.42496e-15 5.21853e-33)
(3.1324e-15 -7.02466e-15 6.97297e-33)
(6.70306e-16 1.11418e-15 5.56889e-33)
(-3.89136e-17 -3.64299e-17 -1.93501e-34)
(6.55874e-16 1.36668e-15 -7.11056e-34)
(6.56326e-15 -2.27313e-15 -2.87097e-33)
(1.99103e-15 -6.05192e-16 2.92782e-33)
(2.5819e-15 -5.95464e-15 -5.60338e-34)
(4.02187e-15 -8.56263e-15 5.18739e-33)
(-5.41298e-16 -1.08851e-15 0)
(-1.8019e-16 -1.7264e-15 -3.13126e-34)
(-1.12933e-16 -2.38661e-16 -6.1222e-35)
(5.31629e-15 -8.12734e-15 -3.36668e-33)
(1.50051e-15 1.24138e-16 -6.50902e-33)
(2.9847e-15 -4.69226e-15 -1.8734e-33)
(5.04263e-15 -1.00385e-14 -5.72587e-33)
(-5.63008e-17 2.47891e-16 -2.94659e-33)
(-4.61372e-16 -1.6251e-15 -6.37763e-34)
(6.15597e-15 -4.27436e-15 5.31889e-33)
(2.45777e-15 3.81796e-15 0)
(1.85904e-16 1.36428e-15 -3.59331e-33)
(3.48175e-15 7.44016e-15 5.00999e-33)
(5.25315e-15 6.67176e-15 6.05059e-33)
(-2.3163e-18 -8.36862e-19 -5.55775e-34)
(-3.24101e-18 1.18751e-18 -1.95074e-34)
(4.91689e-15 -2.91601e-15 0)
(2.49671e-15 -3.92647e-15 9.44524e-33)
(3.11272e-15 -6.8221e-15 5.78136e-33)
(3.28682e-15 -2.54385e-15 0)
(-3.6126e-16 1.66745e-15 -4.93946e-34)
(1.81588e-16 1.67347e-15 5.08539e-34)
(6.90485e-15 8.12967e-15 -4.34668e-33)
(6.26528e-15 -8.35774e-15 2.13618e-33)
(3.03236e-15 -7.21988e-15 2.31918e-34)
(7.6589e-15 -6.11887e-15 3.75183e-33)
(4.78746e-15 9.38307e-15 -1.30307e-32)
(3.90182e-15 -8.93852e-15 0)
(5.12314e-15 8.1979e-15 0)
(7.91834e-15 -4.99122e-15 0)
(4.90164e-15 8.82492e-16 -1.74927e-33)
(6.04849e-15 -1.0487e-14 0)
(4.03664e-16 -1.09742e-15 1.78404e-33)
(-5.80505e-16 -1.28893e-15 -1.85078e-34)
(-2.31922e-16 2.31997e-16 1.28511e-34)
(-1.78908e-16 1.45621e-16 4.11057e-34)
(2.88698e-15 4.74258e-15 3.82133e-33)
(2.68929e-15 -5.84512e-15 7.18872e-34)
(-1.13135e-17 1.60843e-17 9.38825e-35)
(-9.86905e-18 -1.20552e-17 4.6805e-34)
(1.07238e-15 1.09791e-15 -1.82566e-33)
(-5.43425e-17 -3.11949e-17 -5.1332e-35)
(4.98244e-15 1.8101e-15 8.09516e-34)
(1.6614e-18 2.36185e-18 -1.02661e-34)
(2.73535e-18 -6.81259e-19 -1.60092e-34)
(4.36421e-15 9.16102e-15 0)
(7.28662e-15 8.53301e-15 0)
(6.88198e-15 -4.43985e-15 -5.59887e-33)
(3.7465e-15 1.57897e-15 0)
(8.3551e-15 9.07789e-15 1.53908e-33)
(6.10404e-16 1.49382e-15 0)
(7.38431e-15 9.51361e-15 4.84224e-34)
(6.37367e-15 7.75771e-15 3.18464e-33)
)
;

boundaryField
{
    front
    {
        type            empty;
    }
    back
    {
        type            empty;
    }
    bottom
    {
        type            zeroGradient;
    }
    left
    {
        type            noSlip;
    }
    top
    {
        type            uniformFixedValue;
        uniformValue    
        {
            type            scale;
            scale           
            {
                type            squarePulse;
                start           0.3;
                duration        0.3;
            }
            xScale          
            {
                type            constant;
                value           1;
            }
            value           
            {
                type            constant;
                value           (0 -0.7 0);
            }
        }
        value           uniform (0 -0 0);
    }
    right
    {
        type            noSlip;
    }
    inner_arc
    {
        type            noSlip;
    }
}


// ************************************************************************* //
