/*--------------------------------*- C++ -*----------------------------------*\
  =========                 |
  \\      /  F ield         | OpenFOAM: The Open Source CFD Toolbox
   \\    /   O peration     | Website:  https://openfoam.org
    \\  /    A nd           | Version:  9
     \\/     M anipulation  |
\*---------------------------------------------------------------------------*/
FoamFile
{
    format      ascii;
    class       volScalarField;
    location    "0.79";
    object      p;
}
// * * * * * * * * * * * * * * * * * * * * * * * * * * * * * * * * * * * * * //

dimensions      [0 2 -2 0 0 0 0];

internalField   nonuniform List<scalar> 
464
(
2.87976e-15
-5.79732e-15
-1.33687e-15
-1.26393e-15
-6.71148e-15
-1.33595e-15
1.25895e-15
-1.25146e-15
-9.89404e-16
-7.50552e-16
2.95265e-15
6.67347e-15
9.56018e-16
6.79569e-15
1.44174e-15
1.07436e-15
-1.03309e-15
-1.03156e-15
-1.149e-15
-9.91986e-16
-1.03107e-15
-1.22482e-15
-1.17387e-15
-1.27914e-15
-1.28225e-15
-1.28415e-15
4.20298e-15
-1.14348e-15
3.72811e-15
-1.2966e-15
-1.29666e-15
-1.9005e-16
-5.66144e-17
-6.15324e-16
-6.91945e-16
-1.02928e-15
-1.04325e-15
-1.11612e-15
-1.11468e-15
3.52359e-16
-9.72555e-16
-1.15129e-15
-1.1535e-15
5.77293e-15
4.94327e-15
5.13231e-16
-1.08665e-15
-9.91886e-16
-1.0364e-15
-1.16239e-15
-9.52201e-16
-1.07333e-15
-9.5279e-16
-9.31066e-16
-9.14423e-16
-1.05374e-15
-1.08732e-15
-6.61169e-16
-6.28061e-16
-9.64033e-16
-1.05253e-15
-3.87713e-15
-5.84199e-16
-8.34196e-16
-2.4932e-15
-9.84492e-16
-2.51987e-16
-1.00239e-15
3.9988e-15
-8.70303e-16
-5.29368e-16
-3.30055e-15
2.64585e-15
-1.01371e-15
-1.17446e-15
-1.09754e-15
-3.84818e-16
1.26981e-15
-7.50704e-16
2.49019e-15
-5.84471e-15
-1.34906e-15
-9.33069e-15
-1.39454e-15
-5.82725e-15
-5.44015e-16
-2.70689e-15
-1.35244e-15
-1.22769e-15
-1.00244e-15
-5.19023e-15
-4.2346e-15
-2.52715e-16
5.90846e-15
-1.60124e-16
-4.28332e-16
-7.65203e-16
-1.32381e-15
-3.5113e-15
-7.63291e-16
-1.23499e-15
-9.71497e-16
-1.25397e-15
-3.92963e-16
-6.34565e-16
-9.26193e-15
-1.37835e-15
-2.99108e-16
-5.12254e-15
-9.81995e-16
-2.76013e-16
-1.04261e-15
-1.6707e-16
-2.70737e-15
-1.18292e-15
-1.19886e-15
-7.70995e-15
-1.40292e-15
-4.37469e-15
-1.34083e-15
-9.97096e-16
8.43555e-16
-2.13852e-15
2.74871e-15
-5.04638e-16
-4.3483e-16
-7.66681e-16
-1.79236e-16
-7.92232e-16
-8.32193e-15
-1.39373e-15
7.56022e-15
-1.09035e-15
-1.20623e-15
-1.27415e-15
-6.38995e-15
-1.39608e-15
-1.17299e-15
-8.87477e-16
-1.2205e-15
-1.34039e-15
-2.96772e-16
-4.75802e-16
-1.19406e-15
-1.39469e-15
-1.64895e-15
-1.15767e-15
-1.35473e-15
-8.59365e-16
-1.17258e-15
-1.17241e-15
-1.20629e-15
5.43238e-16
-5.47319e-16
-5.55669e-15
-1.25879e-15
-1.18993e-15
-1.1085e-15
-5.73056e-16
-4.31253e-15
-3.79026e-16
-1.10801e-15
-8.49883e-16
-1.11557e-15
-1.0787e-15
-1.35644e-15
3.93497e-17
-1.07033e-15
-2.25489e-16
-3.08088e-16
6.94989e-17
-3.26048e-15
-1.84158e-15
-1.24608e-15
-6.50358e-16
-5.9415e-17
-1.05675e-15
-1.04536e-15
1.45502e-15
-8.66755e-16
-1.05273e-15
-4.83709e-17
-1.245e-15
-1.30879e-15
-7.5857e-16
-1.2229e-15
2.59459e-16
3.01897e-16
-1.23228e-15
3.93594e-16
-9.21677e-16
4.20004e-16
-9.30508e-16
-9.42963e-16
-6.6385e-16
-6.33954e-16
-1.04117e-15
-9.39753e-16
-9.25467e-16
-8.55024e-16
-8.88077e-16
-6.94906e-16
-8.82102e-16
-7.60421e-16
3.64085e-16
-9.1526e-16
-8.50602e-16
-7.57574e-16
-6.96542e-16
-2.58698e-15
-1.29068e-15
1.03008e-16
-9.86861e-16
-1.02108e-15
-1.03708e-15
1.91686e-16
-4.11024e-16
-9.01424e-16
3.86274e-15
-6.09298e-16
-1.24459e-15
-8.15302e-16
-8.07064e-16
-9.08439e-16
-9.98498e-16
-9.94755e-16
-9.29398e-16
-8.7641e-16
-9.06311e-16
-8.55725e-16
-8.54375e-16
-8.72457e-16
-8.10792e-16
-6.65937e-16
-8.92127e-16
-7.75704e-16
-8.12381e-16
-7.5417e-16
-7.87916e-16
-8.74434e-16
-6.85833e-16
-6.90083e-16
-8.45965e-16
-7.34563e-16
-5.94716e-16
-9.31199e-16
-6.82494e-16
-1.01131e-15
-7.90287e-16
-1.0045e-15
-5.84958e-16
-8.4482e-16
-4.6299e-16
-7.01797e-16
-5.06896e-16
-6.0761e-16
-1.10194e-15
-1.00985e-15
-4.40343e-16
-3.1679e-16
-5.94962e-16
-4.18418e-16
-3.4848e-16
2.79058e-16
-4.48527e-16
2.19682e-16
-3.16119e-16
-1.17001e-15
1.07916e-15
4.76757e-17
-1.20184e-15
-3.70744e-16
-2.66752e-16
5.2062e-16
1.03471e-15
-2.64821e-16
-1.51217e-16
-5.48637e-16
-4.03327e-16
-2.06814e-15
-4.88259e-16
-1.14184e-15
-5.1499e-16
-1.02567e-15
1.13e-15
-8.58597e-16
-2.73811e-16
-1.74076e-15
-1.12708e-15
-5.82985e-16
-1.27767e-15
-6.85227e-16
-1.0989e-15
-9.97332e-16
-3.35073e-16
-3.75644e-16
1.77986e-18
-2.24234e-17
-2.56628e-17
-2.20755e-15
7.92883e-16
3.06949e-16
2.22683e-15
6.49178e-15
-9.37538e-16
-2.67401e-16
-2.8017e-16
-1.01303e-15
-3.92914e-15
-3.33117e-16
-8.378e-16
-1.15201e-15
-5.10669e-16
5.44478e-16
-3.59585e-16
-5.5484e-16
-1.53195e-16
-2.43888e-15
-1.24285e-15
7.7886e-16
-1.27834e-15
-1.36213e-16
-3.16088e-15
1.34048e-17
-4.8914e-16
-9.37847e-16
-9.59485e-16
1.91297e-15
-1.12977e-15
-1.629e-15
-1.0565e-15
-1.91419e-15
-1.29295e-15
-4.20002e-16
-7.78197e-16
-1.04627e-15
-1.24447e-15
-1.27292e-15
-5.51887e-16
-1.09639e-15
-1.25577e-15
4.11185e-15
-1.10223e-15
-1.64882e-15
-4.40658e-16
-1.20584e-15
-9.56501e-16
-3.82126e-16
-1.27165e-15
-7.39284e-16
-1.0492e-15
-1.27563e-15
-1.97486e-16
-2.99247e-16
-1.03288e-15
-3.75248e-15
-1.35499e-15
-8.55599e-15
-1.35997e-15
-5.55485e-15
-1.31581e-15
4.87957e-16
-1.35104e-15
-5.8897e-15
3.68584e-15
-1.16395e-15
-1.21578e-15
-1.06606e-15
8.82554e-15
-1.32817e-15
-1.24616e-15
7.43098e-15
1.73712e-15
-9.49693e-16
5.21112e-15
-1.28095e-15
3.30457e-15
-1.16771e-15
3.03765e-15
-1.2934e-15
1.22741e-16
-5.02885e-16
-7.9795e-16
-3.08852e-16
-6.39999e-16
-1.43665e-16
-5.90111e-16
-1.31874e-15
-1.37165e-15
-1.04927e-15
-9.24904e-16
-8.9883e-16
-1.02539e-15
-9.45463e-16
-9.3347e-16
-1.10803e-15
-1.04401e-15
-1.2229e-15
-1.10955e-15
2.68141e-15
-3.17252e-15
-1.30069e-15
5.83527e-15
-1.222e-15
4.45429e-16
2.58979e-15
7.36322e-15
-1.18325e-15
3.7899e-15
-1.19417e-15
-1.5564e-15
-1.20344e-15
-1.32582e-15
-1.26701e-15
-1.2972e-15
-2.77232e-15
1.03362e-14
-1.18316e-15
-1.31205e-15
-3.99464e-15
-1.2285e-15
-1.29318e-15
3.38554e-15
6.56699e-15
3.46175e-15
1.93465e-15
2.30572e-15
1.24717e-15
6.36982e-16
-9.52243e-15
-1.37367e-15
-2.69726e-16
-8.11917e-16
-1.34018e-15
-5.8148e-16
-1.24734e-15
-1.21835e-15
-1.25988e-15
-1.16797e-15
-1.34092e-15
-8.80315e-16
-9.72848e-16
-9.13994e-16
-9.75241e-16
-1.18208e-15
-1.01419e-15
-1.15652e-15
-1.15002e-15
-1.11011e-15
-1.00059e-15
-6.66675e-17
8.93791e-16
4.13856e-16
-1.28975e-15
-9.22733e-16
-9.179e-16
-8.14574e-16
-1.18333e-15
-1.22197e-15
-1.20157e-15
-1.20802e-15
9.79252e-15
6.33552e-15
-1.28679e-15
)
;

boundaryField
{
    back
    {
        type            empty;
    }
    front
    {
        type            empty;
    }
    left
    {
        type            zeroGradient;
    }
    top
    {
        type            zeroGradient;
    }
    right
    {
        type            zeroGradient;
    }
    bottom
    {
        type            uniformFixedValue;
        uniformValue    
        {
            type            scale;
            scale           
            {
                type            squarePulse;
                start           0.3;
                duration        0.3;
            }
            xScale          
            {
                type            constant;
                value           1;
            }
            value           
            {
                type            constant;
                value           15.1;
            }
        }
        value           uniform 0;
    }
}


// ************************************************************************* //
