/*--------------------------------*- C++ -*----------------------------------*\
  =========                 |
  \\      /  F ield         | OpenFOAM: The Open Source CFD Toolbox
   \\    /   O peration     | Website:  https://openfoam.org
    \\  /    A nd           | Version:  9
     \\/     M anipulation  |
\*---------------------------------------------------------------------------*/
FoamFile
{
    format      ascii;
    class       surfaceScalarField;
    location    "0.79";
    object      phi;
}
// * * * * * * * * * * * * * * * * * * * * * * * * * * * * * * * * * * * * * //

dimensions      [0 3 -1 0 0 0 0];

internalField   nonuniform List<scalar> 
663
(
-6.4695e-21
7.46348e-21
-9.93978e-22
1.76638e-21
7.99184e-21
-4.45877e-24
4.45877e-24
7.72498e-23
-3.80448e-23
-3.9205e-23
-3.51262e-21
5.27899e-21
2.59735e-25
-4.71855e-24
-7.97034e-21
1.50083e-21
2.55148e-23
5.1735e-23
-9.40047e-21
3.92844e-21
5.47204e-21
-9.405e-22
-8.45997e-21
-1.81194e-21
9.27542e-21
4.3965e-21
-1.74009e-21
-2.65641e-21
-4.0419e-21
3.91725e-21
4.79246e-22
1.55018e-21
-1.65869e-21
1.08514e-22
1.65087e-21
-1.00699e-22
1.74116e-22
-3.56718e-22
1.82602e-22
2.21008e-22
-4.68917e-23
2.84682e-24
-2.84682e-24
2.33563e-22
-2.51034e-22
1.74709e-23
-2.26976e-23
2.56261e-22
-9.96875e-23
-1.00848e-22
2.00535e-22
-2.1881e-22
1.19122e-22
-9.81778e-23
8.13998e-23
1.6778e-23
7.99024e-24
-4.6035e-23
-5.52176e-23
-4.29603e-23
-1.64223e-22
-3.31254e-22
4.95477e-22
8.35066e-23
-2.9215e-23
-5.42916e-23
1.36142e-21
-1.52564e-21
1.5355e-22
-1.29297e-22
-2.42529e-23
7.32942e-23
8.02559e-23
-1.70792e-21
1.53086e-21
1.77057e-22
8.90652e-23
-1.79698e-21
1.46588e-21
-1.30217e-21
-1.6371e-22
8.94109e-22
5.71775e-22
2.01907e-22
1.91006e-23
2.23878e-22
-2.19711e-23
-1.27747e-23
1.56215e-23
2.12863e-23
6.22203e-23
-1.56165e-21
8.60687e-23
1.47558e-21
-1.30306e-22
-1.20728e-22
2.14421e-22
-2.59411e-22
4.49893e-23
-4.38849e-24
-1.02307e-21
6.91818e-22
-2.76316e-21
8.92211e-23
-1.26686e-22
2.51604e-22
-1.24918e-22
-2.33251e-22
2.17962e-22
1.5289e-23
-3.6908e-23
3.6908e-23
-4.19895e-23
9.10423e-23
-2.21349e-22
1.13361e-22
2.17169e-23
-1.35078e-22
-2.05747e-22
3.64504e-23
1.69297e-22
-7.09338e-24
-1.56659e-22
1.63753e-22
2.6433e-22
-2.71424e-22
-6.84274e-23
1.81789e-22
-1.95113e-22
3.51135e-23
-1.63272e-22
1.28159e-22
2.91968e-22
-2.56855e-22
-1.75163e-22
-3.05842e-23
-1.56215e-23
-1.81766e-22
3.40217e-21
-3.2204e-21
-8.53763e-23
4.11813e-22
-3.26437e-22
1.31859e-22
-1.72735e-22
4.0876e-23
-6.15755e-21
5.21705e-21
-2.63284e-23
-1.30331e-22
-6.31897e-22
3.64107e-22
2.6779e-22
5.86249e-23
-4.46836e-21
-1.83349e-23
2.82665e-22
2.49176e-22
4.27919e-23
-6.33932e-21
1.61524e-21
-2.53818e-22
-7.46577e-23
-1.58593e-22
-1.88273e-22
1.98172e-21
-1.79345e-21
-7.28579e-23
-3.57371e-22
-2.74526e-22
-7.54062e-21
6.54664e-21
-1.61195e-22
-2.07788e-24
-4.34539e-23
2.15979e-21
4.00022e-21
-6.16001e-21
-3.16132e-23
3.03937e-23
1.21955e-24
1.1914e-21
-1.66555e-21
4.74155e-22
1.20773e-23
3.23898e-24
-1.53162e-23
3.35119e-21
1.67697e-22
-2.53073e-22
4.56978e-21
-1.16761e-21
-1.95357e-23
-1.24781e-22
9.58212e-23
2.89597e-23
-2.07823e-21
1.88996e-21
1.30784e-22
-2.3391e-21
1.3323e-21
-5.52418e-22
-7.79879e-22
-2.36548e-21
-3.57919e-21
5.94468e-21
8.1328e-22
5.19018e-22
5.44419e-23
-2.93351e-23
-7.37111e-24
3.77649e-23
1.66782e-22
7.73698e-22
-9.4048e-22
3.12861e-21
-7.17051e-21
-8.25861e-23
-4.21947e-23
-2.74751e-23
2.45438e-22
6.07836e-23
-1.4337e-22
3.86922e-22
1.14394e-21
-9.15251e-22
-1.66555e-21
3.23916e-24
9.58647e-22
-5.9454e-22
-8.04703e-22
9.35487e-22
-2.37795e-22
2.81104e-22
-4.33085e-23
1.16362e-21
5.62736e-22
-1.72636e-21
1.76946e-22
4.06229e-22
-1.62826e-21
1.79505e-21
-1.59364e-23
1.11758e-22
-9.01163e-23
1.509e-22
-4.74155e-22
-3.30548e-22
1.59791e-23
1.53159e-23
-3.1295e-23
7.73698e-22
7.97588e-23
-6.37795e-23
-2.6527e-22
-2.52963e-21
5.65824e-21
2.61632e-21
1.95346e-21
-3.83775e-21
5.33858e-21
4.16873e-22
2.02431e-21
-8.60688e-22
4.51516e-21
-1.89884e-21
-1.08831e-21
1.65105e-21
6.34279e-23
8.30681e-22
4.74646e-22
-4.74646e-22
5.85018e-23
-1.48618e-22
-2.77555e-23
-1.2027e-22
1.48026e-22
-3.30548e-22
-3.12948e-23
2.80372e-23
-8.23287e-23
-8.81544e-23
8.81544e-23
5.24703e-23
-8.02256e-23
-9.13079e-22
-2.20113e-22
2.62905e-22
1.34963e-22
-5.24706e-23
2.11758e-23
2.95206e-23
1.9522e-21
-1.00279e-22
1.58781e-22
6.02232e-23
-1.36882e-22
-3.58529e-23
-9.34545e-23
5.30018e-24
4.06162e-23
-1.40895e-22
-1.83764e-22
3.51455e-23
-7.60599e-23
1.64428e-21
-1.56822e-21
1.55533e-21
4.68986e-22
4.4315e-22
8.02255e-23
7.92881e-24
-1.97172e-22
-1.59546e-22
-9.40304e-23
1.34647e-22
1.98552e-21
2.08355e-21
-1.14806e-21
4.63106e-22
-8.92978e-22
4.29871e-22
1.78163e-23
-1.11847e-22
1.42865e-22
-1.93632e-21
-9.34546e-23
6.40912e-24
-9.98638e-23
2.45709e-22
2.17398e-22
-2.14123e-22
2.20532e-22
-1.36456e-22
1.70111e-21
-1.56465e-21
-7.68094e-22
7.68094e-22
-5.84378e-22
-1.83716e-22
9.15936e-22
-9.10959e-22
9.4048e-22
-2.21118e-22
9.10959e-22
1.81108e-22
-1.26942e-21
-6.88518e-23
8.6668e-23
-5.42754e-23
-1.45765e-23
-1.82439e-21
1.74833e-21
-1.16302e-22
-7.71189e-22
8.87491e-22
1.69364e-22
-2.23639e-22
1.03106e-22
4.91391e-22
-5.94497e-22
3.69065e-22
-3.69065e-22
2.52763e-22
5.18109e-22
-6.54565e-22
-5.18109e-22
1.49044e-22
2.56052e-22
-1.52946e-22
2.56051e-22
-4.0327e-22
5.84378e-22
-2.39805e-22
-9.67958e-24
2.49484e-22
4.0327e-22
-1.47219e-22
9.71093e-23
-9.71093e-23
5.6328e-24
-1.07596e-23
-2.46095e-22
-2.29055e-22
2.18295e-22
-2.36821e-22
-2.53216e-22
2.34881e-22
-3.73145e-24
-2.17373e-22
-1.16822e-23
9.9011e-23
-1.02742e-22
-2.45991e-22
2.86181e-23
1.02742e-22
9.90109e-23
8.79004e-23
-8.79004e-23
7.62183e-23
-1.52946e-22
5.86249e-23
-6.54264e-23
6.54264e-23
-9.98638e-23
-6.54564e-22
-7.12648e-22
7.12648e-22
7.62183e-23
2.52763e-22
1.11103e-23
2.687e-23
-4.09051e-23
-4.82746e-23
7.36944e-24
-2.14046e-23
-3.4229e-23
-1.95995e-22
2.30224e-22
-5.62251e-23
3.48205e-23
-1.53491e-23
-4.95781e-23
-1.89317e-22
-6.67834e-24
4.97075e-23
-2.39024e-22
-1.24914e-22
-2.58611e-22
2.51933e-22
-5.1656e-23
3.62815e-22
-2.06712e-22
-1.56102e-22
1.5723e-22
2.05584e-22
-1.94848e-24
-4.94842e-22
2.8813e-22
-1.26863e-22
4.36655e-22
-5.92757e-22
-8.17939e-23
7.87216e-23
-2.47715e-22
-3.1224e-22
1.88941e-22
2.35185e-23
-2.6034e-22
-1.51249e-22
-4.41508e-22
-7.63453e-23
7.14709e-22
-8.65958e-22
-7.53748e-22
-8.51524e-22
-4.56361e-23
8.9716e-22
-5.22909e-22
-3.96794e-22
5.85734e-22
3.17915e-22
-4.06496e-23
1.75296e-22
-7.63453e-23
-5.33609e-22
1.08505e-21
-1.48194e-21
3.96882e-22
3.9977e-22
-9.33379e-22
-1.10318e-21
-2.64784e-22
1.36797e-21
-6.60812e-22
1.06058e-21
-1.39008e-21
1.71707e-21
-3.26995e-22
4.24241e-22
-1.14437e-21
-6.78944e-22
1.39795e-22
2.03476e-21
-1.92624e-21
5.67205e-22
1.14987e-21
-2.13189e-22
3.0998e-22
-9.88924e-22
-1.03057e-23
2.27703e-22
1.70776e-21
1.82049e-21
-5.56899e-22
8.6688e-22
-1.81769e-24
-7.44006e-23
7.44006e-23
3.23941e-22
1.07895e-21
-8.51252e-22
1.28176e-22
6.78703e-24
2.31954e-23
-4.99909e-22
-1.42633e-21
1.25944e-21
-1.80489e-22
-2.10181e-23
9.54185e-23
8.65006e-22
-2.76385e-21
-6.6937e-23
3.66466e-22
1.6421e-21
-1.27564e-21
2.50711e-21
-1.65568e-22
-1.7364e-22
-6.40176e-22
2.41886e-22
-9.54185e-23
-5.75272e-23
-7.50401e-22
8.9762e-22
-1.84791e-21
-1.13835e-21
-3.35039e-21
1.89293e-21
1.45746e-21
1.55177e-21
1.49631e-22
7.42467e-23
1.17281e-22
-1.17786e-21
-2.55316e-23
-7.04912e-22
1.46733e-21
2.46812e-22
3.35429e-21
-1.36876e-21
5.07281e-22
-1.37416e-21
-1.09013e-21
-7.57777e-22
-1.34151e-23
3.893e-23
1.52989e-21
-4.81271e-23
-8.11699e-23
-3.26707e-22
-8.18203e-23
8.18203e-23
-2.03341e-21
2.01778e-22
5.44826e-23
8.80225e-21
-5.52628e-21
1.29663e-23
-1.29663e-23
2.7543e-22
-8.69717e-23
1.52408e-22
-2.09563e-23
2.09563e-23
-5.76326e-23
-7.54084e-24
7.54084e-24
1.58122e-21
-1.00562e-20
1.70947e-21
-8.06947e-23
-1.63389e-24
1.42348e-22
8.83243e-23
-3.84234e-22
2.54657e-21
2.59763e-25
2.54657e-21
2.59764e-25
4.53984e-24
7.9873e-21
6.88703e-24
-2.42826e-24
-2.06859e-21
-3.49892e-24
-8.81013e-22
5.69623e-21
6.19929e-25
-3.46673e-24
-4.01722e-22
4.6515e-22
9.53892e-22
-8.80323e-23
9.94854e-25
6.54589e-24
2.17171e-22
-1.68015e-21
-4.85769e-22
2.88598e-22
-2.17171e-22
-8.70228e-22
-1.682e-22
6.69194e-22
6.68563e-23
-5.68496e-22
7.85855e-22
-9.34899e-22
-3.37998e-22
-3.52776e-23
1.32692e-21
9.68657e-22
-6.25887e-23
9.32173e-23
-4.63256e-23
-1.84365e-22
2.66159e-22
3.98946e-23
-3.98946e-23
1.09496e-22
1.64975e-22
-1.69157e-22
-3.13554e-23
1.629e-22
-6.81845e-23
8.33806e-21
6.887e-24
7.27745e-21
9.94774e-25
6.73367e-21
-3.50957e-21
2.50566e-21
-2.50566e-21
6.19893e-25
-3.57194e-21
6.19893e-25
-5.6482e-21
-2.81177e-21
2.85921e-23
-3.02259e-23
2.92571e-23
-3.53365e-23
6.07942e-24
-1.0844e-22
-3.493e-23
9.53892e-22
-1.33975e-23
8.70398e-24
-2.37274e-21
6.69194e-22
5.68496e-22
-2.36558e-24
9.32173e-23
4.63256e-23
1.44317e-22
1.61788e-22
-1.72251e-22
-5.31284e-23
-7.78903e-23
-1.85216e-24
-1.61463e-24
1.52497e-23
)
;

boundaryField
{
    back
    {
        type            empty;
        value           nonuniform List<scalar> 0();
    }
    front
    {
        type            empty;
        value           nonuniform List<scalar> 0();
    }
    left
    {
        type            calculated;
        value           uniform 0;
    }
    top
    {
        type            calculated;
        value           uniform 0;
    }
    right
    {
        type            calculated;
        value           uniform 0;
    }
    bottom
    {
        type            calculated;
        value           nonuniform List<scalar> 8(-9.75822e-21 -3.27597e-21 8.475e-21 -6.05918e-21 -8.33352e-21 6.0776e-21 9.65019e-21 3.22409e-21);
    }
}


// ************************************************************************* //
