/*--------------------------------*- C++ -*----------------------------------*\
  =========                 |
  \\      /  F ield         | OpenFOAM: The Open Source CFD Toolbox
   \\    /   O peration     | Website:  https://openfoam.org
    \\  /    A nd           | Version:  9
     \\/     M anipulation  |
\*---------------------------------------------------------------------------*/
FoamFile
{
    format      ascii;
    class       volVectorField;
    location    "0.79";
    object      U;
}
// * * * * * * * * * * * * * * * * * * * * * * * * * * * * * * * * * * * * * //

dimensions      [0 1 -1 0 0 0 0];

internalField   nonuniform List<vector> 
464
(
(-1.91104e-13 -1.08262e-13 -1.31057e-32)
(-1.23953e-13 2.52196e-13 0)
(4.44776e-17 6.71009e-17 0)
(1.81998e-15 -8.07056e-17 7.65748e-32)
(-8.89076e-14 1.98927e-13 0)
(3.7099e-17 5.51225e-17 -2.02315e-32)
(-1.82507e-13 -6.07148e-14 1.23191e-31)
(1.72237e-15 -3.54114e-16 0)
(-2.24625e-13 8.61886e-15 -9.75205e-33)
(-2.12692e-13 6.98738e-14 -9.34399e-32)
(-1.51939e-13 -1.40316e-13 9.95155e-33)
(-6.42837e-14 -7.44186e-14 -1.00555e-32)
(-1.98696e-13 -1.86215e-14 6.87298e-33)
(-4.57683e-14 -8.30139e-14 0)
(-1.54025e-15 5.56268e-14 2.33436e-32)
(9.59289e-16 4.85132e-14 -7.26462e-32)
(2.92978e-15 1.02119e-14 0)
(1.32923e-15 7.04151e-15 -2.40782e-32)
(8.19337e-17 -4.15896e-17 -5.30805e-32)
(-7.22269e-16 7.62047e-15 5.83986e-32)
(-3.98798e-16 8.02969e-15 -8.65533e-32)
(1.92275e-15 5.95886e-15 1.72857e-32)
(2.06682e-15 6.22733e-15 -8.94846e-33)
(2.10201e-15 6.18657e-16 0)
(1.28448e-15 4.82041e-17 -7.86466e-32)
(2.10441e-15 1.0288e-15 3.69964e-32)
(-1.54183e-14 2.11366e-14 -1.27338e-31)
(1.10204e-15 -1.53645e-15 -6.80962e-32)
(-2.15924e-14 3.11321e-14 0)
(1.96716e-15 3.32724e-15 0)
(2.40479e-15 2.8118e-15 4.57432e-33)
(1.70974e-14 4.90717e-14 1.30661e-34)
(1.30559e-14 5.45054e-14 1.41187e-33)
(1.49538e-14 3.39057e-14 -3.6351e-32)
(1.78071e-14 2.92977e-14 3.66358e-32)
(8.56688e-16 5.92049e-15 6.42139e-32)
(8.73901e-16 7.12798e-15 -5.88754e-32)
(1.9389e-16 -3.38844e-16 -8.22565e-33)
(8.66099e-16 -1.87131e-15 1.86766e-33)
(4.33036e-15 4.56267e-14 0)
(-8.67617e-16 7.53687e-15 8.4335e-32)
(1.015e-15 7.50655e-15 0)
(1.54279e-15 6.91294e-15 -2.3205e-32)
(-2.47733e-14 -3.9959e-15 -3.04061e-31)
(-4.88934e-14 -2.83234e-14 3.10246e-31)
(4.34508e-15 5.37643e-14 1.81402e-33)
(2.72012e-15 -5.09337e-15 6.2e-32)
(6.96034e-16 -5.86883e-15 -1.25514e-33)
(1.95267e-16 -6.89139e-16 0)
(5.78965e-16 -8.32962e-16 7.96396e-33)
(-7.47201e-16 7.6076e-15 -5.73147e-32)
(1.00724e-15 -3.23383e-15 -3.83414e-33)
(-3.12157e-16 5.15972e-15 -3.93015e-32)
(-9.01973e-17 -5.1819e-15 -5.28394e-32)
(-1.22073e-16 -7.53045e-15 -1.72149e-33)
(1.45447e-15 -4.43559e-15 6.14425e-32)
(2.39827e-15 -4.67721e-15 0)
(1.0403e-15 -5.29524e-15 0)
(6.53656e-16 -7.39328e-15 -3.45186e-32)
(-3.86386e-16 5.78894e-15 0)
(3.17174e-16 -9.56662e-16 6.28797e-32)
(-1.01654e-13 5.63688e-14 4.17206e-31)
(7.72356e-15 -5.08232e-15 6.38111e-32)
(-1.05096e-15 -3.55658e-15 -5.01948e-32)
(-1.75178e-13 6.60437e-14 -3.54227e-33)
(5.9697e-16 -3.48931e-15 -5.8324e-32)
(8.38866e-15 -1.51513e-14 -1.64323e-32)
(3.68698e-16 -1.78138e-15 -5.5295e-32)
(-1.10763e-13 -1.01099e-13 -1.11617e-31)
(-4.95611e-16 -8.0106e-15 5.08449e-32)
(1.51118e-15 -8.23331e-15 3.4447e-32)
(-1.40005e-13 8.85857e-14 -2.22072e-31)
(-1.42317e-14 4.58196e-14 0)
(1.24107e-15 -5.94234e-15 6.01833e-32)
(4.36769e-15 -5.84618e-14 -6.03085e-32)
(1.42989e-15 -2.89386e-15 6.5807e-32)
(7.70986e-15 -1.19607e-14 -2.28905e-32)
(-2.17074e-13 -1.03737e-13 -1.21028e-31)
(-3.34284e-17 -3.55019e-15 -4.50141e-32)
(-5.32703e-15 4.64288e-14 5.59685e-32)
(-8.62866e-14 1.28006e-13 0)
(4.78502e-16 4.76314e-16 1.93863e-32)
(-1.99158e-14 4.04645e-14 -5.41816e-31)
(1.73329e-16 3.3696e-16 8.50315e-32)
(-5.18682e-14 7.49271e-14 0)
(4.66386e-15 -6.29672e-15 2.41645e-33)
(-1.00066e-13 2.54154e-14 -1.97601e-31)
(5.24947e-16 7.72671e-16 0)
(2.90235e-15 -7.63679e-16 0)
(5.3584e-15 -5.79241e-14 -5.07343e-32)
(-6.26798e-14 5.0186e-14 3.08305e-31)
(-1.3144e-13 1.36334e-13 0)
(1.7397e-14 -2.54193e-14 1.26013e-32)
(-8.77836e-14 -1.71755e-13 -2.98493e-31)
(1.60234e-14 -3.20006e-14 -1.23209e-32)
(9.90483e-15 -8.57413e-15 -3.01448e-32)
(-7.42239e-16 -5.0885e-15 4.51186e-32)
(8.85275e-16 5.99849e-16 -1.77798e-32)
(-1.98393e-15 -3.22176e-14 -2.342e-31)
(-1.72784e-13 1.41551e-15 -6.15141e-33)
(3.0215e-15 9.32285e-17 0)
(7.55613e-16 -7.05214e-15 2.22177e-33)
(3.41706e-15 7.05356e-16 0)
(1.86252e-14 4.26899e-14 -1.27855e-34)
(1.56142e-14 4.13408e-14 0)
(-1.32451e-14 3.56741e-14 -4.33832e-31)
(6.56463e-17 5.20638e-17 0)
(1.26813e-14 -1.75267e-14 1.60196e-32)
(-3.3871e-14 1.50377e-14 -3.08636e-31)
(9.79669e-16 -7.20244e-15 0)
(1.71531e-14 -4.28318e-14 0)
(2.0439e-15 -6.16522e-15 -6.32929e-32)
(1.2632e-14 -2.2408e-14 0)
(-7.66239e-15 -4.69464e-14 1.41752e-31)
(3.1733e-15 -1.50993e-15 2.24066e-33)
(3.86091e-15 1.41837e-16 -1.1478e-33)
(-1.20787e-14 2.48086e-15 4.24094e-31)
(2.63402e-16 9.17439e-16 8.98043e-32)
(-2.41688e-15 -1.64177e-14 1.88379e-31)
(7.93247e-16 1.83169e-15 -5.01525e-33)
(1.28185e-15 -7.32182e-15 5.7289e-32)
(-1.42185e-13 -6.48813e-15 -1.75467e-33)
(-1.26149e-13 1.94732e-14 8.62406e-32)
(-1.42933e-13 -4.80306e-14 -1.08537e-31)
(3.51535e-15 -8.74587e-15 0)
(1.9259e-14 -4.48323e-14 2.92815e-32)
(-1.08734e-13 2.23205e-15 -8.69922e-32)
(1.08875e-14 -4.16436e-14 0)
(1.45234e-14 2.35368e-14 0)
(-8.73675e-15 9.22777e-15 4.19741e-31)
(1.30638e-16 2.95349e-16 -6.60378e-32)
(-9.74464e-15 -9.28828e-15 -3.45945e-31)
(1.43492e-16 -2.73074e-16 -5.14467e-32)
(3.98108e-15 1.03558e-15 0)
(8.49547e-16 4.34579e-15 0)
(-5.18283e-15 -7.56246e-15 -3.36331e-31)
(1.6148e-16 6.45393e-16 -1.33473e-31)
(1.87154e-15 -1.7129e-15 -7.22342e-32)
(-1.6313e-13 2.97145e-14 9.98884e-32)
(7.41756e-17 1.84214e-15 5.71909e-32)
(3.24033e-16 2.5667e-15 0)
(2.0205e-14 -3.50676e-14 0)
(7.45446e-16 -7.28257e-15 5.17363e-33)
(3.68847e-15 -1.3244e-15 7.12454e-32)
(3.25285e-16 1.66869e-15 8.13625e-32)
(3.98136e-16 -5.38554e-14 -1.11357e-31)
(4.01665e-15 1.42506e-16 0)
(1.02334e-15 1.48039e-15 0)
(-9.42313e-16 -5.20486e-15 -2.18389e-33)
(8.78055e-17 3.62485e-15 -1.36694e-31)
(3.72958e-15 1.43865e-15 2.18847e-33)
(3.54982e-15 2.71788e-15 7.03396e-32)
(-3.65249e-14 2.74334e-14 4.23182e-32)
(1.42131e-14 -5.26109e-14 -2.94114e-32)
(-6.2528e-15 -2.08788e-14 -2.7691e-34)
(2.13212e-16 3.28901e-15 -8.16247e-32)
(2.80436e-15 1.1965e-14 0)
(3.41089e-15 2.64012e-16 0)
(-1.15205e-13 3.07194e-17 -7.5531e-34)
(-3.91471e-14 -5.84356e-15 2.49023e-31)
(-2.23166e-14 -2.31337e-16 0)
(2.83e-15 1.75433e-15 -6.66242e-32)
(5.18026e-15 -5.08157e-14 1.02053e-31)
(2.64093e-17 1.96535e-15 2.22885e-33)
(-6.67635e-17 3.78468e-15 6.53107e-32)
(1.86371e-16 1.11131e-15 0)
(-6.57639e-15 1.21089e-14 -6.79307e-33)
(-9.60551e-17 6.53201e-15 6.46351e-32)
(6.86906e-15 4.18091e-14 2.09746e-32)
(1.4124e-15 -1.56922e-14 2.85816e-32)
(3.01138e-15 -2.53771e-14 -1.49263e-32)
(-6.60285e-14 -2.51833e-16 -1.65686e-31)
(8.72625e-16 -3.47087e-14 -4.04102e-32)
(1.21965e-15 5.7516e-15 -1.71737e-32)
(2.46518e-15 -3.14957e-14 2.75889e-32)
(7.2133e-15 -3.20536e-14 -2.42192e-33)
(2.20158e-15 1.91072e-16 6.6067e-32)
(1.41389e-15 1.89065e-15 -2.49865e-34)
(-5.11e-14 2.5042e-14 6.62988e-32)
(6.07398e-15 2.19693e-14 7.34964e-33)
(1.22896e-15 5.20496e-15 6.24983e-32)
(4.21906e-15 -1.473e-14 2.20736e-33)
(1.25869e-15 7.6881e-15 0)
(2.20744e-15 1.20918e-14 -8.21317e-32)
(2.19156e-15 2.36415e-14 1.5392e-32)
(2.54088e-15 1.76404e-14 -1.8285e-33)
(1.54089e-15 -7.71665e-15 0)
(1.04038e-15 -5.06754e-15 1.72364e-32)
(8.07819e-16 -1.87356e-14 -1.18387e-31)
(2.85813e-15 -1.85408e-14 -1.94993e-35)
(1.4839e-16 -7.58284e-15 -5.42484e-35)
(2.28036e-15 -1.23937e-14 -2.15611e-32)
(9.79116e-17 -1.9136e-15 -8.85936e-32)
(3.0321e-16 -6.56016e-15 -5.8271e-32)
(-2.37442e-16 -7.56268e-15 3.77372e-35)
(-2.99516e-16 -6.82514e-15 -3.78568e-35)
(-3.42097e-16 7.44898e-15 -5.94302e-32)
(3.30755e-16 -7.94354e-15 5.36713e-35)
(1.30876e-15 1.11345e-14 -3.99885e-32)
(-3.89912e-16 -7.5583e-15 4.95906e-32)
(-1.03019e-16 -6.77073e-15 0)
(-3.90235e-16 -6.02561e-15 0)
(-8.17867e-17 -3.85833e-15 0)
(-6.1902e-16 -7.14383e-15 4.49754e-35)
(1.38173e-15 -8.09158e-15 0)
(9.12658e-17 -3.79786e-15 1.73306e-33)
(-6.30436e-17 -1.94662e-15 0)
(-1.02366e-16 -1.70137e-15 -3.75538e-32)
(-2.28228e-16 -3.15405e-15 3.89737e-32)
(-4.69887e-16 -1.95441e-14 1.05724e-31)
(1.63072e-16 1.63068e-15 6.05458e-32)
(6.53388e-16 -2.96795e-15 0)
(1.95941e-16 -1.13623e-15 4.75737e-32)
(1.03164e-16 1.41191e-15 -4.74589e-32)
(-6.97829e-17 2.0057e-15 0)
(1.55751e-15 -1.18381e-14 6.23752e-33)
(7.64211e-16 1.4625e-14 2.76376e-32)
(1.44213e-17 -2.03417e-15 4.33852e-32)
(-2.51795e-15 1.64385e-14 5.32335e-32)
(-6.88109e-17 -1.44374e-15 -3.11838e-32)
(1.19835e-15 5.33386e-15 6.0699e-32)
(-2.08145e-16 -3.58303e-15 4.69677e-32)
(-3.90301e-16 -6.48428e-15 -4.96502e-32)
(-6.48171e-16 -3.59078e-15 1.06777e-31)
(6.36472e-16 1.8923e-16 6.05347e-32)
(-1.1484e-16 2.05706e-15 -5.74344e-32)
(-6.70123e-16 2.6243e-16 0)
(-7.76612e-16 5.37088e-15 2.59303e-32)
(-9.92452e-16 1.98115e-15 -1.63332e-33)
(-1.06181e-15 1.0367e-16 -5.21124e-32)
(-7.50605e-16 2.0054e-15 5.16521e-32)
(-1.82859e-16 6.45061e-15 -6.2976e-33)
(1.02051e-15 5.46214e-15 0)
(2.88671e-15 -3.95183e-15 -3.52431e-32)
(-3.24161e-16 7.37331e-15 5.49393e-32)
(2.0676e-17 2.43489e-16 0)
(6.36946e-15 9.16335e-15 -1.85747e-33)
(4.65134e-15 6.54471e-15 -1.0268e-33)
(1.2708e-15 2.17214e-15 4.37278e-32)
(4.54221e-15 1.062e-14 5.21719e-32)
(3.10158e-15 2.39258e-16 -4.44896e-32)
(9.98506e-15 8.99919e-15 -4.38522e-32)
(2.2454e-15 7.06299e-15 4.64745e-32)
(5.31824e-15 2.57427e-15 0)
(8.21569e-15 2.80243e-16 0)
(5.11735e-15 1.23467e-14 -8.71871e-34)
(1.12279e-14 3.38054e-15 -1.27956e-33)
(-3.58742e-16 6.42353e-15 0)
(1.18258e-14 1.32278e-14 0)
(-2.46269e-16 3.46661e-15 0)
(1.63058e-14 1.29142e-14 -3.52398e-32)
(8.89511e-15 1.54466e-14 -9.60349e-32)
(2.0413e-14 -1.05901e-14 -2.36252e-32)
(1.2278e-14 -5.20605e-14 5.08912e-32)
(1.4821e-14 2.53429e-16 0)
(1.80736e-14 4.39148e-15 0)
(3.26318e-15 -2.64208e-15 0)
(-1.84775e-16 1.66531e-15 -4.60569e-32)
(2.14967e-14 -1.70147e-16 -3.17103e-32)
(2.54613e-14 2.41642e-14 0)
(2.40994e-14 5.89875e-15 3.03304e-32)
(2.66588e-14 -1.96616e-14 4.4028e-32)
(2.67993e-14 -2.05594e-17 2.41975e-32)
(6.67316e-15 4.60073e-14 9.05608e-33)
(2.79695e-14 7.99756e-15 -2.41981e-32)
(-5.07633e-15 3.59572e-14 -6.11694e-32)
(2.7975e-14 -3.71444e-16 -4.34249e-35)
(2.55365e-15 -2.19048e-15 -2.19007e-33)
(-1.85252e-15 5.91971e-14 -3.24412e-32)
(1.4706e-14 3.59446e-14 -9.17881e-33)
(6.92303e-16 5.788e-15 -6.42062e-32)
(2.56609e-14 9.90346e-15 0)
(5.86748e-15 -3.54329e-17 6.56843e-33)
(5.91878e-15 5.8277e-14 -3.05699e-33)
(-1.29333e-13 -1.87721e-14 2.57455e-32)
(2.19222e-14 -2.74056e-16 0)
(1.51988e-14 1.19175e-14 0)
(4.93661e-17 -5.9226e-15 -3.0546e-32)
(6.72539e-17 -1.38941e-15 0)
(-5.17601e-15 -5.62707e-14 -3.16048e-32)
(6.08899e-15 -2.57028e-14 1.76932e-34)
(3.60558e-15 -2.46064e-15 -1.27757e-33)
(-7.79904e-17 -2.89753e-15 0)
(9.19513e-16 -4.6115e-15 -6.28091e-32)
(-1.29529e-14 5.31144e-14 -5.01434e-32)
(-5.05886e-15 -3.59105e-14 -4.20942e-32)
(2.75958e-16 -3.25596e-15 -1.29237e-32)
(-7.69589e-14 -1.07581e-14 0)
(2.90115e-15 -3.59817e-15 0)
(-2.07471e-14 -2.35689e-14 4.31464e-32)
(-3.56229e-14 -2.86506e-14 3.40105e-34)
(-5.961e-14 -1.48855e-14 -2.7387e-34)
(3.41274e-15 -3.44179e-15 -6.75382e-32)
(1.25967e-15 -4.93021e-15 1.20753e-31)
(1.60246e-14 -1.24475e-14 2.405e-32)
(1.00601e-15 -6.86228e-15 4.58716e-32)
(8.27043e-16 -4.72359e-15 0)
(9.93272e-15 -3.04851e-14 2.17245e-33)
(7.65626e-15 -2.08348e-14 -2.21231e-33)
(-6.01063e-14 -1.80933e-14 1.64065e-31)
(-1.69033e-14 4.14626e-14 2.73929e-32)
(-4.06845e-14 9.11957e-15 -7.24e-33)
(-7.03393e-14 -7.97407e-16 -3.00431e-31)
(-5.29034e-14 -1.24114e-13 3.77685e-31)
(1.30713e-16 6.37086e-15 2.89891e-32)
(2.16933e-14 -1.7822e-14 -2.08886e-32)
(2.49775e-14 -2.44047e-14 -4.18845e-32)
(-2.058e-16 4.83238e-15 2.82638e-32)
(-1.91722e-14 -2.53756e-14 -4.58082e-31)
(7.19931e-15 -4.23758e-14 -2.64015e-32)
(-8.56089e-16 -7.42403e-15 -5.08559e-32)
(3.83802e-15 -2.02716e-15 -1.27028e-33)
(1.39628e-14 -7.2816e-15 0)
(-8.74827e-14 2.88203e-15 1.7743e-33)
(2.33742e-14 -3.09057e-14 -4.72352e-32)
(1.41849e-14 -3.55361e-14 0)
(3.12357e-16 -1.80405e-15 1.0195e-32)
(-3.48989e-14 -3.64193e-14 0)
(1.08824e-15 -2.78834e-16 0)
(-7.89931e-14 9.57659e-15 -6.72577e-32)
(1.9737e-15 4.27682e-15 5.90095e-32)
(4.97482e-15 -1.37246e-14 -4.52495e-35)
(-1.97712e-14 -4.03236e-14 2.12156e-31)
(5.99179e-15 -2.23788e-14 2.68783e-34)
(-6.3484e-14 -5.69846e-16 4.37129e-33)
(2.45086e-16 -3.37245e-15 -7.76156e-34)
(3.50124e-16 -2.64158e-15 -5.65263e-32)
(-9.47421e-14 -3.10744e-15 9.21753e-32)
(2.34282e-15 -3.06642e-15 0)
(-2.69635e-14 -4.32275e-14 -9.86854e-32)
(1.49045e-16 7.8514e-15 -3.17478e-32)
(-2.33436e-13 8.44366e-14 -4.51936e-32)
(2.66597e-16 2.54932e-17 -3.12882e-32)
(2.54974e-14 -1.48699e-14 4.11638e-32)
(-8.14126e-16 -7.71368e-15 -4.47531e-35)
(2.08415e-15 -3.19888e-15 -6.04732e-32)
(2.44359e-15 4.84068e-15 -5.48207e-32)
(3.69343e-16 -3.84419e-17 -6.07506e-32)
(9.4163e-15 -5.20739e-14 -1.54098e-32)
(3.97118e-16 7.92469e-15 6.74794e-32)
(1.54071e-16 -6.27989e-17 3.14265e-32)
(-1.91638e-13 -2.19346e-13 0)
(-2.75175e-15 -5.30876e-14 -9.15561e-34)
(-1.0852e-14 -5.42174e-14 9.79432e-32)
(2.1145e-14 -2.37154e-14 2.38623e-32)
(1.79441e-15 -1.13113e-15 3.53255e-32)
(1.69328e-16 -1.60369e-15 9.09101e-32)
(4.48418e-15 -1.05301e-14 2.28239e-32)
(6.75357e-16 3.2041e-18 7.43626e-32)
(-7.28287e-16 -7.18724e-15 0)
(2.54787e-15 -4.3121e-15 -1.95375e-33)
(5.52236e-16 -1.05296e-16 -3.57449e-32)
(2.44643e-15 -9.61563e-15 0)
(2.55206e-15 -9.33478e-15 -2.01365e-32)
(2.045e-15 -6.31123e-15 -5.93087e-32)
(-4.12355e-14 1.62639e-13 5.08592e-31)
(-2.19889e-17 6.7559e-18 0)
(-1.19815e-14 6.71279e-14 -2.7463e-31)
(4.19088e-18 -1.98286e-17 -3.07733e-32)
(-1.5921e-13 2.19056e-13 0)
(2.52827e-16 1.46131e-16 -4.27527e-32)
(-2.34603e-13 -2.43889e-14 1.00821e-32)
(1.84149e-16 1.87184e-16 2.16311e-32)
(-6.88201e-14 1.47696e-13 0)
(-1.38291e-13 -1.79848e-13 9.15668e-33)
(3.37051e-17 -9.35457e-18 7.28224e-32)
(2.22476e-15 -8.03203e-16 0)
(1.13023e-14 2.14977e-14 0)
(-1.75709e-14 -3.49295e-14 0)
(1.15767e-15 2.66567e-15 4.30614e-32)
(1.96806e-16 -1.06079e-16 0)
(-1.12047e-14 -1.71146e-15 6.71539e-31)
(-2.09808e-14 4.77604e-14 -1.21792e-32)
(5.46122e-15 1.66405e-14 0)
(-4.92477e-15 1.89597e-14 4.70164e-32)
(2.46542e-15 2.55818e-16 0)
(-7.46528e-14 -2.33256e-14 1.70004e-31)
(6.91365e-16 6.70411e-15 1.07187e-31)
(-1.85668e-15 2.94532e-14 3.50527e-31)
(1.1811e-15 4.03482e-15 2.17271e-32)
(1.3135e-15 2.69411e-14 0)
(1.02365e-14 4.07078e-14 -2.23619e-32)
(8.99374e-15 2.90478e-14 0)
(2.35014e-14 3.20925e-14 -8.86993e-33)
(1.77075e-14 1.77618e-14 3.90123e-34)
(1.87691e-14 3.98046e-14 0)
(2.2469e-14 2.48255e-14 -1.81333e-32)
(1.46227e-15 1.02785e-15 -4.27314e-32)
(1.52526e-15 6.90603e-15 0)
(2.24638e-16 2.61437e-15 0)
(3.00647e-16 7.48389e-15 -2.94837e-32)
(2.3029e-15 9.12944e-15 0)
(-4.64125e-18 2.32036e-15 3.13235e-32)
(-2.62675e-16 2.58086e-15 1.02222e-31)
(-1.03901e-15 6.17301e-15 -2.90364e-32)
(1.66955e-15 5.78146e-15 -6.53714e-32)
(4.44023e-16 6.39189e-15 0)
(3.212e-15 3.86372e-15 -1.49621e-31)
(1.36606e-16 7.11563e-15 0)
(-4.48113e-14 1.95656e-14 1.55036e-31)
(-1.95881e-13 2.19049e-13 0)
(1.38379e-16 3.52721e-17 0)
(-1.62443e-13 -2.24943e-13 0)
(1.11499e-17 -4.18862e-17 -2.86139e-32)
(-2.40034e-13 -1.08885e-15 6.09318e-32)
(-2.16134e-13 -1.47034e-13 0)
(-1.47028e-14 -7.01083e-14 0)
(3.44554e-18 2.2307e-17 5.36139e-32)
(-4.42314e-14 -1.61344e-13 0)
(-2.13511e-17 3.522e-18 -6.90668e-32)
(-2.09175e-13 1.15922e-13 4.38572e-32)
(1.18945e-15 -7.91403e-16 3.8745e-32)
(9.69687e-16 2.46641e-16 0)
(3.1322e-15 1.56355e-15 3.83681e-32)
(1.42797e-15 3.53266e-16 0)
(-1.64672e-13 1.62766e-13 0)
(-7.60344e-15 -2.55378e-14 0)
(6.58226e-16 -6.40844e-16 2.26483e-33)
(7.58875e-16 3.36798e-16 3.8463e-32)
(-2.22095e-13 1.35506e-13 -4.3533e-32)
(9.16682e-16 -4.3376e-16 4.15052e-32)
(4.54273e-16 4.77695e-17 4.53943e-32)
(-1.13864e-13 -5.78892e-14 1.19617e-31)
(-3.34309e-15 5.58785e-15 -3.02959e-31)
(-1.23187e-13 -2.55542e-13 -2.43558e-31)
(-3.93628e-14 3.33455e-14 6.10533e-32)
(-2.13194e-16 1.62602e-14 -1.25023e-31)
(8.27659e-16 2.86517e-14 3.04473e-32)
(3.99036e-16 1.44422e-14 -2.19783e-32)
(-2.75751e-14 8.9902e-14 6.31789e-31)
(3.4647e-17 2.99868e-17 4.58523e-32)
(2.39419e-14 2.74631e-14 9.53783e-33)
(6.15801e-15 2.96502e-14 2.06082e-33)
(1.51803e-15 1.65985e-15 7.81039e-32)
(2.22806e-14 1.60482e-14 5.96935e-32)
(5.81469e-16 2.395e-15 0)
(4.29248e-16 3.30533e-15 1.93626e-32)
(3.12021e-15 2.62868e-15 -4.01647e-32)
(1.26636e-16 1.21869e-15 0)
(7.63451e-16 2.84545e-15 -4.34574e-32)
(1.54934e-15 8.06281e-15 0)
(-4.02286e-17 1.03257e-15 -2.23519e-32)
(-1.00904e-15 4.79514e-15 2.65447e-33)
(-6.42535e-16 6.07434e-15 -3.30836e-32)
(3.37125e-15 3.60714e-15 1.08755e-31)
(-1.44133e-16 5.18645e-15 -1.94684e-33)
(2.78282e-15 4.78373e-15 -3.95398e-32)
(2.47105e-16 5.96121e-15 -3.80652e-32)
(2.53073e-15 4.18436e-15 4.14672e-32)
(-5.58488e-16 6.93871e-15 3.07475e-32)
(8.94939e-15 5.02299e-14 0)
(-2.37149e-13 -8.52034e-14 -3.50943e-32)
(8.34636e-15 5.8158e-14 2.61661e-32)
(2.5978e-15 1.51852e-15 0)
(-5.73844e-16 7.32639e-15 -6.09168e-32)
(7.87308e-15 2.08929e-14 0)
(8.86042e-15 1.76514e-14 5.64496e-32)
(1.01511e-16 -1.29475e-16 -3.77039e-32)
(4.742e-16 -2.62966e-16 -4.3638e-34)
(3.50537e-16 -3.3358e-16 -6.33767e-34)
(-8.9613e-18 -1.35121e-17 6.46634e-32)
(-2.09722e-14 -7.94167e-14 0)
(-8.51196e-14 -2.04364e-13 6.78522e-32)
(2.161e-15 2.13339e-15 -9.8236e-32)
)
;

boundaryField
{
    back
    {
        type            empty;
    }
    front
    {
        type            empty;
    }
    left
    {
        type            noSlip;
    }
    top
    {
        type            uniformFixedValue;
        uniformValue    
        {
            type            scale;
            scale           
            {
                type            squarePulse;
                start           0.3;
                duration        0.3;
            }
            xScale          
            {
                type            constant;
                value           1;
            }
            value           
            {
                type            constant;
                value           (0 -0.7 0);
            }
        }
        value           uniform (0 -0 0);
    }
    right
    {
        type            noSlip;
    }
    bottom
    {
        type            zeroGradient;
    }
}


// ************************************************************************* //
